<?xml version="1.0"?>
<VTKFile type="PolyData">
	<PolyData>
		<Piece NumberOfPoints="1206" NumberOfPolys="1000">
			<Points>
				<DataArray type="Float32" NumberOfComponents="3" format="ascii">
 0 0 0 0.005 0 0 0.01 0 0 0.015 0 0 0.02 0 0 0.025 0 0 0.03 0 0 0.035 0 0 0.04 0 0 0.045 0 0 0.05 0 0 0.055 0 0 0.06 0 0 0.065 0 0 0.07 0 0 0.075 0 0 0.08 0 0 0.085 0 0 0.09 0 0 0.095 0 0 0.1 0 0 0.105 0 0 0.11 0 0 0.115 0 0 0.12 0 0 0.125 0 0 0.13 0 0 0.135 0 0 0.14 0 0 0.145 0 0 0.15 0 0 0.155 0 0 0.16 0 0 0.165 0 0 0.17 0 0 0.175 0 0 0.18 0 0 0.185 0 0 0.19 0 0 0.195 0 0 0.2 0 0 0.205 0 0 0.21 0 0 0.215 0 0 0.22 0 0 0.225 0 0 0.23 0 0 0.235 0 0 0.24 0 0 0.245 0 0 0.25 0 0 0.255 0 0 0.26 0 0 0.265 0 0 0.27 0 0 0.275 0 0 0.28 0 0 0.285 0 0 0.29 0 0 0.295 0 0 0.3 0 0 0.305 0 0 0.31 0 0 0.315 0 0 0.32 0 0 0.325 0 0 0.33 0 0 0.335 0 0 0.34 0 0 0.345 0 0 0.35 0 0 0.355 0 0 0.36 0 0 0.365 0 0 0.37 0 0 0.375 0 0 0.38 0 0 0.385 0 0 0.39 0 0 0.395 0 0 0.4 0 0 0.405 0 0 0.41 0 0 0.415 0 0 0.42 0 0 0.425 0 0 0.43 0 0 0.435 0 0 0.44 0 0 0.445 0 0 0.45 0 0 0.455 0 0 0.46 0 0 0.465004 0 0 0.470029 0 0 0.475169 0 0 0.48068 0 0 0.487031 0 0 0.494922 0 0 0.505462 0 0 0.518577 0 0 0.521239 0 0 0.523744 0 0 0.526226 0 0 0.528777 0 0 0.531488 0 0 0.534458 0 0 0.537779 0 0 0.541518 0 0 0.545694 0 0 0.550252 0 0 0.555071 0 0 0.560016 0 0 0.565003 0 0 0.570001 0 0 0.575 0 0 0.58 0 0 0.585 0 0 0.59 0 0 0.595 0 0 0.6 0 0 0.605 0 0 0.61 0 0 0.615 0 0 0.62 0 0 0.625 0 0 0.63 0 0 0.635 0 0 0.64 0 0 0.645 0 0 0.65 0 0 0.655 0 0 0.66 0 0 0.665 0 0 0.67 0 0 0.675 0 0 0.68 0 0 0.685 0 0 0.69 0 0 0.695 0 0 0.7 0 0 0.705 0 0 0.71 0 0 0.715 0 0 0.72 0 0 0.725 0 0 0.73 0 0 0.735 0 0 0.74 0 0 0.745 0 0 0.75 0 0 0.755 0 0 0.76 0 0 0.765 0 0 0.77 0 0 0.775 0 0 0.78 0 0 0.785 0 0 0.79 0 0 0.795 0 0 0.8 0 0 0.805 0 0 0.81 0 0 0.815 0 0 0.82 0 0 0.825 0 0 0.83 0 0 0.835 0 0 0.84 0 0 0.845 0 0 0.85 0 0 0.855 0 0 0.86 0 0 0.865 0 0 0.87 0 0 0.875 0 0 0.88 0 0 0.885 0 0 0.89 0 0 0.895 0 0 0.9 0 0 0.905 0 0 0.91 0 0 0.915 0 0 0.92 0 0 0.925 0 0 0.93 0 0 0.935 0 0 0.94 0 0 0.945 0 0 0.95 0 0 0.955 0 0 0.96 0 0 0.965 0 0 0.97 0 0 0.975 0 0 0.98 0 0 0.985 0 0 0.99 0 0 0.995 0 0 1 0 0 0 0.02 0 0.005 0.02 0 0.01 0.02 0 0.015 0.02 0 0.02 0.02 0 0.025 0.02 0 0.03 0.02 0 0.035 0.02 0 0.04 0.02 0 0.045 0.02 0 0.05 0.02 0 0.055 0.02 0 0.06 0.02 0 0.065 0.02 0 0.07 0.02 0 0.075 0.02 0 0.08 0.02 0 0.085 0.02 0 0.09 0.02 0 0.095 0.02 0 0.1 0.02 0 0.105 0.02 0 0.11 0.02 0 0.115 0.02 0 0.12 0.02 0 0.125 0.02 0 0.13 0.02 0 0.135 0.02 0 0.14 0.02 0 0.145 0.02 0 0.15 0.02 0 0.155 0.02 0 0.16 0.02 0 0.165 0.02 0 0.17 0.02 0 0.175 0.02 0 0.18 0.02 0 0.185 0.02 0 0.19 0.02 0 0.195 0.02 0 0.2 0.02 0 0.205 0.02 0 0.21 0.02 0 0.215 0.02 0 0.22 0.02 0 0.225 0.02 0 0.23 0.02 0 0.235 0.02 0 0.24 0.02 0 0.245 0.02 0 0.25 0.02 0 0.255 0.02 0 0.26 0.02 0 0.265 0.02 0 0.27 0.02 0 0.275 0.02 0 0.28 0.02 0 0.285 0.02 0 0.29 0.02 0 0.295 0.02 0 0.3 0.02 0 0.305 0.02 0 0.31 0.02 0 0.315 0.02 0 0.32 0.02 0 0.325 0.02 0 0.33 0.02 0 0.335 0.02 0 0.34 0.02 0 0.345 0.02 0 0.35 0.02 0 0.355 0.02 0 0.36 0.02 0 0.365 0.02 0 0.37 0.02 0 0.375 0.02 0 0.38 0.02 0 0.385 0.02 0 0.39 0.02 0 0.395 0.02 0 0.4 0.02 0 0.405 0.02 0 0.41 0.02 0 0.415 0.02 0 0.42 0.02 0 0.425 0.02 0 0.43 0.02 0 0.435 0.02 0 0.44 0.02 0 0.445 0.02 0 0.45 0.02 0 0.455 0.02 0 0.46 0.02 0 0.465004 0.02 0 0.470029 0.02 0 0.475169 0.02 0 0.48068 0.02 0 0.487031 0.02 0 0.494922 0.02 0 0.505462 0.02 0 0.518577 0.02 0 0.521239 0.02 0 0.523744 0.02 0 0.526226 0.02 0 0.528777 0.02 0 0.531488 0.02 0 0.534458 0.02 0 0.537779 0.02 0 0.541518 0.02 0 0.545694 0.02 0 0.550252 0.02 0 0.555071 0.02 0 0.560016 0.02 0 0.565003 0.02 0 0.570001 0.02 0 0.575 0.02 0 0.58 0.02 0 0.585 0.02 0 0.59 0.02 0 0.595 0.02 0 0.6 0.02 0 0.605 0.02 0 0.61 0.02 0 0.615 0.02 0 0.62 0.02 0 0.625 0.02 0 0.63 0.02 0 0.635 0.02 0 0.64 0.02 0 0.645 0.02 0 0.65 0.02 0 0.655 0.02 0 0.66 0.02 0 0.665 0.02 0 0.67 0.02 0 0.675 0.02 0 0.68 0.02 0 0.685 0.02 0 0.69 0.02 0 0.695 0.02 0 0.7 0.02 0 0.705 0.02 0 0.71 0.02 0 0.715 0.02 0 0.72 0.02 0 0.725 0.02 0 0.73 0.02 0 0.735 0.02 0 0.74 0.02 0 0.745 0.02 0 0.75 0.02 0 0.755 0.02 0 0.76 0.02 0 0.765 0.02 0 0.77 0.02 0 0.775 0.02 0 0.78 0.02 0 0.785 0.02 0 0.79 0.02 0 0.795 0.02 0 0.8 0.02 0 0.805 0.02 0 0.81 0.02 0 0.815 0.02 0 0.82 0.02 0 0.825 0.02 0 0.83 0.02 0 0.835 0.02 0 0.84 0.02 0 0.845 0.02 0 0.85 0.02 0 0.855 0.02 0 0.86 0.02 0 0.865 0.02 0 0.87 0.02 0 0.875 0.02 0 0.88 0.02 0 0.885 0.02 0 0.89 0.02 0 0.895 0.02 0 0.9 0.02 0 0.905 0.02 0 0.91 0.02 0 0.915 0.02 0 0.92 0.02 0 0.925 0.02 0 0.93 0.02 0 0.935 0.02 0 0.94 0.02 0 0.945 0.02 0 0.95 0.02 0 0.955 0.02 0 0.96 0.02 0 0.965 0.02 0 0.97 0.02 0 0.975 0.02 0 0.98 0.02 0 0.985 0.02 0 0.99 0.02 0 0.995 0.02 0 1 0.02 0 0 0.04 0 0.005 0.04 0 0.01 0.04 0 0.015 0.04 0 0.02 0.04 0 0.025 0.04 0 0.03 0.04 0 0.035 0.04 0 0.04 0.04 0 0.045 0.04 0 0.05 0.04 0 0.055 0.04 0 0.06 0.04 0 0.065 0.04 0 0.07 0.04 0 0.075 0.04 0 0.08 0.04 0 0.085 0.04 0 0.09 0.04 0 0.095 0.04 0 0.1 0.04 0 0.105 0.04 0 0.11 0.04 0 0.115 0.04 0 0.12 0.04 0 0.125 0.04 0 0.13 0.04 0 0.135 0.04 0 0.14 0.04 0 0.145 0.04 0 0.15 0.04 0 0.155 0.04 0 0.16 0.04 0 0.165 0.04 0 0.17 0.04 0 0.175 0.04 0 0.18 0.04 0 0.185 0.04 0 0.19 0.04 0 0.195 0.04 0 0.2 0.04 0 0.205 0.04 0 0.21 0.04 0 0.215 0.04 0 0.22 0.04 0 0.225 0.04 0 0.23 0.04 0 0.235 0.04 0 0.24 0.04 0 0.245 0.04 0 0.25 0.04 0 0.255 0.04 0 0.26 0.04 0 0.265 0.04 0 0.27 0.04 0 0.275 0.04 0 0.28 0.04 0 0.285 0.04 0 0.29 0.04 0 0.295 0.04 0 0.3 0.04 0 0.305 0.04 0 0.31 0.04 0 0.315 0.04 0 0.32 0.04 0 0.325 0.04 0 0.33 0.04 0 0.335 0.04 0 0.34 0.04 0 0.345 0.04 0 0.35 0.04 0 0.355 0.04 0 0.36 0.04 0 0.365 0.04 0 0.37 0.04 0 0.375 0.04 0 0.38 0.04 0 0.385 0.04 0 0.39 0.04 0 0.395 0.04 0 0.4 0.04 0 0.405 0.04 0 0.41 0.04 0 0.415 0.04 0 0.42 0.04 0 0.425 0.04 0 0.43 0.04 0 0.435 0.04 0 0.44 0.04 0 0.445 0.04 0 0.45 0.04 0 0.455 0.04 0 0.46 0.04 0 0.465004 0.04 0 0.470029 0.04 0 0.475169 0.04 0 0.48068 0.04 0 0.487031 0.04 0 0.494922 0.04 0 0.505462 0.04 0 0.518577 0.04 0 0.521239 0.04 0 0.523744 0.04 0 0.526226 0.04 0 0.528777 0.04 0 0.531488 0.04 0 0.534458 0.04 0 0.537779 0.04 0 0.541518 0.04 0 0.545694 0.04 0 0.550252 0.04 0 0.555071 0.04 0 0.560016 0.04 0 0.565003 0.04 0 0.570001 0.04 0 0.575 0.04 0 0.58 0.04 0 0.585 0.04 0 0.59 0.04 0 0.595 0.04 0 0.6 0.04 0 0.605 0.04 0 0.61 0.04 0 0.615 0.04 0 0.62 0.04 0 0.625 0.04 0 0.63 0.04 0 0.635 0.04 0 0.64 0.04 0 0.645 0.04 0 0.65 0.04 0 0.655 0.04 0 0.66 0.04 0 0.665 0.04 0 0.67 0.04 0 0.675 0.04 0 0.68 0.04 0 0.685 0.04 0 0.69 0.04 0 0.695 0.04 0 0.7 0.04 0 0.705 0.04 0 0.71 0.04 0 0.715 0.04 0 0.72 0.04 0 0.725 0.04 0 0.73 0.04 0 0.735 0.04 0 0.74 0.04 0 0.745 0.04 0 0.75 0.04 0 0.755 0.04 0 0.76 0.04 0 0.765 0.04 0 0.77 0.04 0 0.775 0.04 0 0.78 0.04 0 0.785 0.04 0 0.79 0.04 0 0.795 0.04 0 0.8 0.04 0 0.805 0.04 0 0.81 0.04 0 0.815 0.04 0 0.82 0.04 0 0.825 0.04 0 0.83 0.04 0 0.835 0.04 0 0.84 0.04 0 0.845 0.04 0 0.85 0.04 0 0.855 0.04 0 0.86 0.04 0 0.865 0.04 0 0.87 0.04 0 0.875 0.04 0 0.88 0.04 0 0.885 0.04 0 0.89 0.04 0 0.895 0.04 0 0.9 0.04 0 0.905 0.04 0 0.91 0.04 0 0.915 0.04 0 0.92 0.04 0 0.925 0.04 0 0.93 0.04 0 0.935 0.04 0 0.94 0.04 0 0.945 0.04 0 0.95 0.04 0 0.955 0.04 0 0.96 0.04 0 0.965 0.04 0 0.97 0.04 0 0.975 0.04 0 0.98 0.04 0 0.985 0.04 0 0.99 0.04 0 0.995 0.04 0 1 0.04 0 0 0.06 0 0.005 0.06 0 0.01 0.06 0 0.015 0.06 0 0.02 0.06 0 0.025 0.06 0 0.03 0.06 0 0.035 0.06 0 0.04 0.06 0 0.045 0.06 0 0.05 0.06 0 0.055 0.06 0 0.06 0.06 0 0.065 0.06 0 0.07 0.06 0 0.075 0.06 0 0.08 0.06 0 0.085 0.06 0 0.09 0.06 0 0.095 0.06 0 0.1 0.06 0 0.105 0.06 0 0.11 0.06 0 0.115 0.06 0 0.12 0.06 0 0.125 0.06 0 0.13 0.06 0 0.135 0.06 0 0.14 0.06 0 0.145 0.06 0 0.15 0.06 0 0.155 0.06 0 0.16 0.06 0 0.165 0.06 0 0.17 0.06 0 0.175 0.06 0 0.18 0.06 0 0.185 0.06 0 0.19 0.06 0 0.195 0.06 0 0.2 0.06 0 0.205 0.06 0 0.21 0.06 0 0.215 0.06 0 0.22 0.06 0 0.225 0.06 0 0.23 0.06 0 0.235 0.06 0 0.24 0.06 0 0.245 0.06 0 0.25 0.06 0 0.255 0.06 0 0.26 0.06 0 0.265 0.06 0 0.27 0.06 0 0.275 0.06 0 0.28 0.06 0 0.285 0.06 0 0.29 0.06 0 0.295 0.06 0 0.3 0.06 0 0.305 0.06 0 0.31 0.06 0 0.315 0.06 0 0.32 0.06 0 0.325 0.06 0 0.33 0.06 0 0.335 0.06 0 0.34 0.06 0 0.345 0.06 0 0.35 0.06 0 0.355 0.06 0 0.36 0.06 0 0.365 0.06 0 0.37 0.06 0 0.375 0.06 0 0.38 0.06 0 0.385 0.06 0 0.39 0.06 0 0.395 0.06 0 0.4 0.06 0 0.405 0.06 0 0.41 0.06 0 0.415 0.06 0 0.42 0.06 0 0.425 0.06 0 0.43 0.06 0 0.435 0.06 0 0.44 0.06 0 0.445 0.06 0 0.45 0.06 0 0.455 0.06 0 0.46 0.06 0 0.465004 0.06 0 0.470029 0.06 0 0.475169 0.06 0 0.48068 0.06 0 0.487031 0.06 0 0.494922 0.06 0 0.505462 0.06 0 0.518577 0.06 0 0.521239 0.06 0 0.523744 0.06 0 0.526226 0.06 0 0.528777 0.06 0 0.531488 0.06 0 0.534458 0.06 0 0.537779 0.06 0 0.541518 0.06 0 0.545694 0.06 0 0.550252 0.06 0 0.555071 0.06 0 0.560016 0.06 0 0.565003 0.06 0 0.570001 0.06 0 0.575 0.06 0 0.58 0.06 0 0.585 0.06 0 0.59 0.06 0 0.595 0.06 0 0.6 0.06 0 0.605 0.06 0 0.61 0.06 0 0.615 0.06 0 0.62 0.06 0 0.625 0.06 0 0.63 0.06 0 0.635 0.06 0 0.64 0.06 0 0.645 0.06 0 0.65 0.06 0 0.655 0.06 0 0.66 0.06 0 0.665 0.06 0 0.67 0.06 0 0.675 0.06 0 0.68 0.06 0 0.685 0.06 0 0.69 0.06 0 0.695 0.06 0 0.7 0.06 0 0.705 0.06 0 0.71 0.06 0 0.715 0.06 0 0.72 0.06 0 0.725 0.06 0 0.73 0.06 0 0.735 0.06 0 0.74 0.06 0 0.745 0.06 0 0.75 0.06 0 0.755 0.06 0 0.76 0.06 0 0.765 0.06 0 0.77 0.06 0 0.775 0.06 0 0.78 0.06 0 0.785 0.06 0 0.79 0.06 0 0.795 0.06 0 0.8 0.06 0 0.805 0.06 0 0.81 0.06 0 0.815 0.06 0 0.82 0.06 0 0.825 0.06 0 0.83 0.06 0 0.835 0.06 0 0.84 0.06 0 0.845 0.06 0 0.85 0.06 0 0.855 0.06 0 0.86 0.06 0 0.865 0.06 0 0.87 0.06 0 0.875 0.06 0 0.88 0.06 0 0.885 0.06 0 0.89 0.06 0 0.895 0.06 0 0.9 0.06 0 0.905 0.06 0 0.91 0.06 0 0.915 0.06 0 0.92 0.06 0 0.925 0.06 0 0.93 0.06 0 0.935 0.06 0 0.94 0.06 0 0.945 0.06 0 0.95 0.06 0 0.955 0.06 0 0.96 0.06 0 0.965 0.06 0 0.97 0.06 0 0.975 0.06 0 0.98 0.06 0 0.985 0.06 0 0.99 0.06 0 0.995 0.06 0 1 0.06 0 0 0.08 0 0.005 0.08 0 0.01 0.08 0 0.015 0.08 0 0.02 0.08 0 0.025 0.08 0 0.03 0.08 0 0.035 0.08 0 0.04 0.08 0 0.0
[...]
			<PointData Scalars="VitesseX">
				<DataArray Name="VitesseX" type="Float32" format="ascii">
 0 -6.94443e-16 -7.48694e-16 -9.71641e-16 1.72033e-15 2.07644e-15 -3.18946e-15 -3.86152e-15 2.51919e-15 3.43478e-15 -4.65058e-15 2.19203e-15 -6.34103e-15 9.46441e-15 -1.34839e-14 1.15695e-14 0 -9.85869e-15 1.25907e-14 -6.11725e-15 -5.54766e-15 -3.44875e-15 1.01133e-14 1.99777e-15 -2.28565e-15 1.67153e-14 -2.57654e-14 8.58753e-16 -4.75074e-15 1.23387e-14 -8.44671e-15 1.60708e-14 -1.43715e-14 -1.00627e-14 -1.43556e-14 2.07153e-14 -5.10174e-15 2.4724e-15 1.90541e-14 -1.84172e-14 -1.4955e-14 -3.11823e-15 -1.07703e-14 1.83385e-14 1.26022e-15 1.64133e-14 -2.45821e-14 1.61789e-14 2.20988e-16 1.9093e-14 1.16822e-14 -2.36673e-14 -3.55208e-14 3.28859e-14 -2.16357e-14 1.46093e-14 -4.95986e-14 3.48801e-15 6.22157e-15 2.45798e-14 -9.41498e-15 -7.21875e-15 1.79914e-15 1.86134e-14 -4.83786e-15 1.61667e-14 -4.80329e-14 1.1427e-14 -1.37185e-14 2.8461e-15 -1.15518e-15 -3.76157e-14 4.7461e-14 3.96939e-15 -3.37297e-14 3.51143e-14 1.39782e-14 -2.91895e-14 -5.00783e-14 4.96239e-14 -6.2284e-14 -1.35681e-14 3.81624e-14 -6.33909e-14 2.36759e-14 1.16383e-13 1.6477e-12 5.82003e-11 1.79102e-09 4.57567e-08 9.54371e-07 1.58872e-05 0.000204806 0.00196134 0.0132025 0.0591566 0.175608 0.374895 0.648585 0.958651 0.931134 0.962957 0.979903 0.965133 0.921367 0.843065 0.72587 0.574998 0.403781 0.23841 0.109861 0.037117 0.00956843 0.00209311 0.000414572 7.60316e-05 1.30021e-05 2.0792e-06 3.11439e-07 4.37489e-08 5.76889e-09 7.14665e-10 8.31688e-11 9.14523e-12 9.30902e-13 1.04971e-13 -1.83668e-14 -3.22857e-14 3.24566e-14 5.13461e-14 -3.98152e-14 2.03639e-14 -5.67615e-14 1.56964e-14 3.58616e-14 -2.02745e-14 8.25119e-15 -3.13521e-14 1.91812e-14 -4.67333e-14 -3.34364e-14 -3.13509e-14 8.93755e-14 -2.74595e-14 1.84594e-14 -1.58578e-14 6.78576e-14 -1.0493e-13 2.72084e-14 2.93996e-14 -1.2967e-14 -8.7519e-15 3.12973e-15 8.1427e-14 -9.25425e-14 2.66841e-14 -3.11966e-14 -6.48118e-14 5.66002e-15 -1.46884e-14 -4.93009e-14 2.58468e-14 -4.27502e-14 9.24145e-14 -3.85736e-14 2.32664e-15 -5.74827e-14 9.33126e-14 -9.86709e-15 4.1727e-14 1.55871e-14 -6.111e-14 -5.78072e-14 7.73459e-14 4.08957e-15 -8.76266e-15 1.59229e-14 2.31321e-14 -3.31827e-14 5.71132e-14 -2.21277e-14 -4.98327e-14 3.5816e-14 3.41476e-14 -6.76186e-15 3.83704e-14 -1.76669e-14 -4.40018e-14 5.38502e-14 -1.53071e-14 -4.62739e-14 -7.18751e-15 -1.9081e-14 9.49583e-14 4.47802e-14 1.62203e-14 1.21475e-14 -1.04595e-14 4.97167e-14 0 0 0 -6.34641e-16 -7.69374e-16 1.34583e-15 -1.36865e-15 2.43491e-16 -2.37254e-15 3.83599e-15 -4.72348e-15 2.15955e-15 -4.57655e-15 7.50177e-16 4.15294e-15 -1.22798e-14 1.29301e-14 2.62468e-15 -9.97749e-15 1.05211e-14 -1.08434e-14 8.70722e-15 -5.53955e-15 -1.3463e-14 1.13227e-14 1.80999e-15 4.40148e-15 4.89073e-15 -1.81977e-14 -8.31885e-15 3.84383e-15 6.8013e-15 -1.89763e-15 1.42145e-14 -2.19705e-14 -1.78912e-14 1.54488e-15 6.43891e-16 1.03366e-14 4.67228e-15 1.26695e-14 -1.54832e-14 -6.57698e-15 -1.1281e-14 -1.08676e-14 6.86065e-15 2.61065e-14 -2.08286e-15 -1.43983e-14 1.19788e-14 1.25916e-14 6.08961e-15 5.84111e-15 -3.14732e-14 -3.09272e-14 3.08757e-14 -3.58891e-14 1.84606e-14 -1.92396e-14 -3.95415e-14 3.57397e-14 7.81636e-15 -5.57396e-15 -1.46077e-14 -9.44879e-15 3.26735e-14 -1.43206e-14 -8.98924e-15 -1.83773e-14 5.30841e-15 -6.37125e-16 -1.19966e-14 -1.79091e-14 8.60659e-15 1.9464e-14 2.31306e-14 -3.756e-14 1.85724e-14 2.38719e-14 -2.22202e-14 -5.52941e-14 3.01583e-15 -4.66977e-15 -3.41809e-14 1.44098e-14 -1.37007e-14 2.36084e-14 7.30882e-14 1.65629e-12 5.82626e-11 1.79099e-09 4.57567e-08 9.54371e-07 1.58872e-05 0.000204806 0.00196134 0.0132025 0.0591566 0.175608 0.374895 0.648585 0.958651 0.931134 0.962957 0.979903 0.965133 0.921367 0.843065 0.72587 0.574998 0.403781 0.23841 0.109861 0.037117 0.00956843 0.00209311 0.000414572 7.60316e-05 1.30021e-05 2.0792e-06 3.11439e-07 4.37488e-08 5.76887e-09 7.14694e-10 8.31979e-11 9.06125e-12 9.65004e-13 2.54457e-14 9.9433e-14 -5.66865e-14 -7.59941e-15 6.21751e-14 -2.69689e-14 -3.40433e-15 -3.67417e-14 8.0178e-15 2.33557e-14 -4.75784e-14 9.51466e-15 9.35224e-15 1.25296e-14 -8.89136e-16 -8.01287e-14 -7.06114e-14 5.04746e-14 2.77944e-14 1.10655e-14 -1.60946e-14 2.21143e-14 1.54012e-14 -2.16279e-14 -1.15479e-14 7.06518e-14 -6.68915e-14 7.28042e-14 -6.00032e-15 -5.11021e-14 -8.73952e-15 -1.70314e-14 -1.03271e-13 -1.16806e-14 -3.93768e-14 -6.17441e-15 4.47527e-14 -4.0089e-14 6.59085e-14 -7.90929e-14 7.01473e-14 -6.89431e-14 1.03135e-13 -2.09216e-14 5.57515e-14 1.84578e-14 -5.11521e-14 -1.39921e-14 -4.16599e-14 1.94572e-14 7.44305e-15 4.17103e-14 1.75e-14 1.82613e-15 1.05432e-14 -8.43181e-15 -2.09671e-14 1.56617e-14 -3.9767e-14 6.32807e-14 -3.15396e-14 3.33481e-14 1.06395e-14 5.44211e-15 1.07876e-14 -6.59167e-14 3.58235e-14 2.5807e-14 1.14351e-14 4.42275e-14 7.30897e-14 -8.85216e-16 3.95478e-14 1.92444e-15 2.14593e-14 0 0 7.35929e-16 -6.27484e-16 1.29209e-15 1.37666e-15 -3.02476e-15 -3.2583e-15 1.96186e-15 -9.18791e-16 -1.52713e-15 -2.17684e-15 -5.52685e-15 5.11748e-15 3.1206e-15 -2.79493e-15 4.1251e-15 -5.74421e-16 1.0117e-14 -1.05937e-14 2.68914e-15 -9.88975e-15 -6.54708e-15 6.72907e-15 1.48661e-15 -5.51658e-15 1.6522e-15 -1.13426e-14 -2.55629e-14 6.22418e-15 2.53081e-14 5.37048e-15 -2.74422e-14 -1.16063e-15 -2.40957e-14 -1.83079e-14 9.43327e-15 1.66254e-14 1.06241e-14 1.7888e-14 -1.19836e-14 -5.36672e-15 -9.70046e-15 -1.85619e-14 2.31509e-14 2.3098e-14 -1.81558e-14 6.15403e-15 2.03056e-15 3.04686e-14 -2.23692e-14 -5.14926e-15 -4.55909e-14 -3.71127e-14 4.12587e-15 -2.20898e-14 3.51455e-14 5.56983e-15 -4.48341e-14 -1.21328e-14 1.39575e-14 8.9645e-15 -2.44495e-14 1.35851e-15 3.67705e-14 -5.36704e-15 -5.12678e-14 -2.29088e-14 -2.27079e-15 3.20411e-14 -3.18076e-14 -2.46803e-14 9.79955e-15 1.66046e-15 4.17261e-14 -3.26317e-14 1.79366e-14 1.40184e-14 -6.01381e-14 1.07503e-14 -2.58953e-14 2.97377e-14 -2.99248e-14 -2.42924e-14 4.44407e-14 3.55582e-14 3.13163e-14 1.66351e-12 5.83011e-11 1.79097e-09 4.57567e-08 9.54371e-07 1.58872e-05 0.000204806 0.00196134 0.0132025 0.0591566 0.175608 0.374895 0.648585 0.958651 0.931134 0.962957 0.979903 0.965133 0.921367 0.843065 0.72587 0.574998 0.403781 0.23841 0.109861 0.037117 0.00956843 0.00209311 0.000414572 7.60316e-05 1.30021e-05 2.0792e-06 3.11439e-07 4.37488e-08 5.76887e-09 7.14687e-10 8.32196e-11 9.01234e-12 9.30446e-13 2.74762e-14 5.1616e-14 3.14158e-14 -9.33582e-14 4.91508e-14 2.19374e-14 -4.65583e-14 8.86284e-14 -9.25161e-14 -3.63268e-14 4.15227e-14 -2.20435e-14 1.74755e-14 3.89585e-14 -2.02245e-14 -9.74465e-14 -6.90289e-14 -2.60466e-14 5.39319e-14 6.96525e-14 -7.1727e-14 6.67671e-15 1.1091e-13 -2.87086e-14 -6.09149e-14 1.06053e-14 5.49145e-15 9.15095e-14 -3.66541e-14 -1.71237e-15 -1.04177e-13 -2.12233e-14 -3.70289e-14 -9.38858e-14 -3.02445e-14 -1.93115e-14 8.52154e-14 5.42152e-15 -2.48126e-14 -2.35009e-14 1.0274e-13 -8.19844e-14 6.27424e-14 5.05256e-15 5.55749e-14 6.32288e-14 -1.10841e-13 -6.26604e-14 -8.93782e-14 9.84297e-14 -1.34337e-14 3.17139e-14 1.21147e-13 -4.72492e-14 -3.51807e-14 -1.10126e-14 7.85693e-14 3.9545e-15 -1.23506e-13 3.70995e-14 3.07894e-15 9.43825e-14 -2.10386e-14 1.51603e-14 -3.00601e-14 6.8912e-14 6.58897e-14 -2.7115e-14 5.51575e-15 1.07621e-14 7.9673e-14 6.81886e-14 9.20732e-14 -1.00811e-13 7.67745e-14 0 0 4.1116e-16 -4.6442e-16 3.7212e-17 9.01874e-16 -4.00571e-15 2.80752e-15 -7.06167e-15 6.62425e-15 -2.60517e-15 -2.55224e-15 -4.2697e-15 -3.25686e-15 1.20502e-14 -9.73175e-15 6.58096e-15 4.76532e-15 -9.35146e-15 7.81618e-15 -1.13505e-14 -2.86288e-15 -4.17137e-15 3.1403e-15 2.09472e-15 -1.15646e-14 -8.13423e-15 -1.96103e-14 1.26194e-15 2.79015e-15 1.81638e-14 1.59179e-14 -3.26072e-14 9.11014e-15 -3.80726e-14 -2.44278e-14 1.85435e-14 2.03836e-14 -3.83491e-15 1.25009e-14 -5.07652e-15 -2.2741e-14 1.14478e-14 -2.84072e-14 1.97227e-14 8.3604e-15 1.45389e-14 -7.98763e-15 9.12096e-15 2.14868e-14 -2.55043e-14 2.1901e-15 -4.88375e-14 -6.95551e-15 -4.38391e-14 -8.08055e-16 2.30741e-14 3.68966e-14 -3.96025e-14 -5.29593e-14 3.30864e-14 -2.10416e-15 -1.1065e-14 2.3432e-14 2.5141e-15 1.27197e-14 -4.4317e-14 -4.34515e-14 -3.65345e-14 1.26034e-14 -2.29977e-14 8.38893e-15 -7.03214e-14 3.69017e-14 5.0779e-14 2.66985e-14 -7.10889e-14 -2.65868e-14 -4.96683e-15 5.00286e-14 1.23971e-14 -6.36836e-14 3.63344e-14 -3.11361e-14 3.88077e-14 3.56533e-14 6.94909e-14 1.66144e-12 5.82462e-11 1.791e-09 4.57568e-08 9.54371e-07 1.58872e-05 0.000204806 0.00196134 0.0132025 0.0591566 0.175608 0.374895 0.648585 0.958651 0.931134 0.962957 0.979903 0.965133 0.921367 0.843065 0.72587 0.574998 0.403781 0.23841 0.109861 0.037117 0.00956843 0.00209311 0.000414572 7.60316e-05 1.30021e-05 2.0792e-06 3.11439e-07 4.37488e-08 5.76888e-09 7.14638e-10 8.32466e-11 9.05688e-12 8.61726e-13 4.98636e-14 -5.21188e-14 9.09161e-14 -1.20482e-13 -2.0521e-14 9.05486e-14 -3.50224e-14 1.35996e-13 -1.29982e-13 -3.68587e-14 1.15126e-13 -8.7277e-14 -6.73963e-14 7.93983e-14 -6.69266e-14 -1.71236e-14 -3.54688e-14 -3.55959e-14 7.70947e-14 2.16542e-14 -6.76262e-14 -2.30555e-14 6.95437e-14 2.37964e-14 -5.92876e-14 -2.90182e-14 -3.30671e-14 1.51233e-13 -1.93172e-14 -6.07201e-14 -9.34065e-14 -3.74138e-14 -2.94864e-14 -1.13827e-13 1.77601e-14 3.50285e-14 2.12464e-14 -7.55615e-15 -8.09636e-14 9.51935e-14 -3.50668e-15 -5.24763e-14 4.57303e-14 1.59634e-14 -5.92829e-15 2.18741e-14 -6.42703e-14 -1.27834e-13 7.39024e-14 -4.48161e-15 1.10146e-13 -3.53518e-16 3.75138e-14 -5.08344e-14 -4.71004e-14 -3.3242e-14 7.74915e-14 -5.24943e-14 6.9191e-14 3.59509e-14 1.79026e-14 -7.96776e-14 -5.99434e-14 1.57e-13 -1.12945e-13 9.48434e-14 1.57734e-13 5.12029e-15 -9.2754e-14 7.44815e-15 6.23673e-14 9.87367e-14 3.54573e-14 2.56923e-14 7.82961e-14 0 0 -8.76041e-16 -1.50891e-15 -7.27041e-16 -1.84054e-15 -6.25197e-15 4.08393e-15 -6.27116e-15 -5.79537e-16 3.71648e-15 -4.06119e-15 -3.97832e-15 -2.00754e-15 -7.86747e-15 7.56844e-15 -3.28513e-15 1.96961e-15 -4.98644e-15 5.45032e-16 -4.44222e-15 1.05031e-14 -7.92769e-15 -7.24145e-16 2.84742e-15 -8.70517e-16 -5.3176e-15 -2.26571e-14 2.13953e-14 1.07115e-14 -1.88368e-14 1.9016e-15 1.27853e-14 -1.68769e-14 -2.6158e-14 4.84457e-15 -2.82797e-15 2.13229e-14 4.18203e-15 -2.55735e-14 -3.43017e-14 3.46113e-15 -1.12692e-14 -3.72803e-14 -1.1925e-16 1.03203e-14 4.72509e-14 -9.19321e-15 -1.61373e-15 1.78305e-14 -1.56246e-14 1.86331e-14 -1.30625e-14 6.50297e-15 -2.99141e-14 -4.29313e-15 -1.10849e-14 4.17584e-14 -4.31658e-14 4.36567e-15 -3.19929e-15 -1.00981e-14 -8.18742e-15 2.34603e-14 -8.72794e-15 9.8101e-15 -3.54526e-14 -2.71346e-14 -2.38551e-14 -3.2633e-14 -6.70121e-15 -1.02416e-14 -7.37917e-14 2.95475e-15 1.76744e-14 4.61832e-14 -9.8445e-14 -2.56952e-15 4.49337e-14 6.89966e-14 -2.23887e-15 -7.98045e-14 2.01859e-14 -2.6525e-14 1.54791e-15 5.17179e-14 7.00153e-14 1.66364e-12 5.82171e-11 1.79105e-09 4.57568e-08 9.54371e-07 1.58872e-05 0.000204806 0.00196134 0.0132025 0.0591566 0.175608 0.374895 0.648585 0.958651 0.931134 0.962957 0.979903 0.965133 0.921367 0.843065 0.72587 0.574998 0.403781 0.23841 0.109861 0.037117 0.00956843 0.00209311 0.000414572 7.60316e-05 1.30021e-05 2.0792e-06 3.11439e-07 4.37488e-08 5.76888e-09 7.1466e-10 8.32664e-11 8.98506e-12 9.59173e-13 -4.57914e-14 2.40225e-15 4.06946e-14 -1.46315e-14 -5.98633e-14 4.84531e-14 1.48376e-14 8.06378e-14 -2.69489e-14 -5.15442e-14 3.8234e-14 -2.14647e-13 -4.03299e-14 -2.81118e-14 4.32853e-14 3.56692e-14 -1.27214e-14 6.88454e-15 1.09931e-13 -5.42084e-14 -5.70816e-14 -1.50525e-15 -7.84689e-15 5.17512e-14 -2.67558e-14 1.23786e-14 -1.32637e-13 1.20976e-13 -2.56638e-14 -4.09831e-14 2.13975e-14 -8.28331e-14 -1.20839e-13 1.83171e-14 -5.57487e-14 5.26381e-14 5.68577e-14 -1.55125e-13 5.29591e-15 8.36837e-14 -3.37951e-14 3.93098e-15 5.49126e-14 -4.42121e-14 -2.743e-14 -1.2976e-15 -1.01128e-13 1.68819e-14 7.29308e-14 -8.27711e-14 1.05388e-13 -2.35024e-14 -3.27673e-14 6.90563e-14 -9.94169e-15 2.35858e-14 -1.38883e-13 -7.81042e-14 2.50322e-13 9.47596e-14 -2.49694e-14 -1.58658e-13 1.67118e-14 1.63133e-13 -2.93834e-14 -1.01689e-13 7.13039e-14 1.37443e-13 -1.14148e-13 1.88742e-15 -5.25322e-14 5.72074e-14 1.69133e-13 4.99398e-14 9.21322e-14 0 0 -5.27706e-16 -2.5539e-15 -2.60763e-15 1.72611e-15 -8.9526e-15 -2.40819e-15 -6.02876e-15 -4.279e-15 8.70473e-15 -2.86905e-15 -9.77927e-15 -1.91332e-15 4.29811e-16 -1.03337e-14 -5.16179e-15 1.32147e-14 -1.93689e-15 -1.45209e-15 -4.33677e-15 1.2484e-14 2.87053e-15 -6.80283e-15 2.85641e-15 -7.33586e-16 1.58715e-14 -1.81489e-14 6.63745e-15 1.58527e-14 -2.4649e-14 -2.19432e-14 2.35424e-14 -2.47259e-14 1.35767e-15 4.48353e-15 -4.44886e-15 9.35449e-15 3.041e-14 -4.66577e-14 -6.98684e-14 3.98699e-14 -4.53911e-14 -4.39049e-14 1.12351e-14 -8.37031e-16 4.96912e-14 1.41114e-14 -2.5187e-14 2.86622e-14 -1.80652e-14 2.25876e-14 1.96473e-14 -2.09749e-14 7.23617e-15 -1.00725e-15 -2.03389e-14 9.74393e-15 -1.4224e-14 2.51265e-14 -3.57092e-14 3.67411e-15 -2.11471e-14 2.34702e-14 4.32333e-15 7.25009e-15 -5.06617e-14 -2.44619e-14 2.16274e-14 -3.88348e-14 -4.18301e-15 -5.19587e-14 -4.21703e-14 -5.60399e-14 -2.50488e-14 1.50962e-14 -2.08695e-14 4.23058e-14 -5.22425e-15 1.19946e-13 -3.74702e-14 -2.57107e-14 -3.7353e-14 -3.00198e-14 -2.16278e-14 7.97045e-14 3.38874e-14 1.66653e-12 5.8219e-11 1.79109e-09 4.57568e-08 9.54371e-07 1.58872e-05 0.000204806 0.00196134 0.0132025 0.0591566 0.175608 0.374895 0.648585 0.958651 0.931134 0.962957 0.979903 0.965133 0.921367 0.843065 0.72587 0.574998 0.403781 0.23841 0.109861 0.037117 0.00956843 0.00209311 0.000414572 7.60316e-05 1.30021e-05 2.0792e-06 3.11439e-07 4.37487e-08 5.76888e-09 7.14693e-10 8.3252e-11 8.90388e-12 1.05671e-12 -8.23128e-14 -5.04086e-15 4.35535e-14 7.27672e-14 -5.33637e-14 -2.6146e-14 3.38565e-14 8.33614e-14 2.08377e-14 -1.12858e-13 4.05315e-15 -3.09661e-13 3.91385e-14 -1.42855e-13 1.34978e-13 3.73966e-14 1.72821e-14 2.10532e-14 9.02075e-14 -1.60452e-14 -1.0593e-13 8.00712e-14 -6.88524e-14 6.87789e-14 -4.42422e-15 -5.02839e-14 -6.30134e-14 -1.98907e-14 7.40277e-15 4.57546e-14 6.56077e-14 -1.30256e-13 -1.15061e-13 1.05332e-13 -1.43537e-13 -4.04067e-14 1.7807e-13 -2.46631e-13 8.3616e-14 4.95557e-14 6.9543e-15 2.92543e-14 3.06959e-14 -7.838e-14 -1.76629e-15 5.87073e-14 -2.54129e-13 1.34428e-13 -1.99016e-14 5.52576e-15 -5.98926e-14 -5.03406e-14 8.97084e-14 1.08547e-13 4.0199e-14 8.64463e-14 -2.83511e-13 -3.88338e-14 2.2889e-13 5.83873e-14 2.1816e-14 -5.35996e-14 4.5879e-14 8.55216e-14 6.9989e-14 -1.6997e-13 -1.19826e-13 1.40023e-13 4.03365e-14 -3.33834e-14 -2.00369e-13 6.71884e-14 3.6172e-13 -1.07344e-13 1.3809e-13 0
				</DataArray>
				<DataArray Name="VitesseY" type="Float32" format="ascii">