<?xml version="1.0"?>
<VTKFile type="PolyData">
	<PolyData>
		<Piece NumberOfPoints="1206" NumberOfPolys="1000">
			<Points>
				<DataArray type="Float32" NumberOfComponents="3" format="ascii">
 0 0 0 0.02 0 0 0.04 0 0 0.06 0 0 0.08 0 0 0.1 0 0 0 0.005 0 0.02 0.005 0 0.04 0.005 0 0.06 0.005 0 0.08 0.005 0 0.1 0.005 0 0 0.01 0 0.02 0.01 0 0.04 0.01 0 0.06 0.01 0 0.08 0.01 0 0.1 0.01 0 0 0.015 0 0.02 0.015 0 0.04 0.015 0 0.06 0.015 0 0.08 0.015 0 0.1 0.015 0 0 0.02 0 0.02 0.02 0 0.04 0.02 0 0.06 0.02 0 0.08 0.02 0 0.1 0.02 0 0 0.025 0 0.02 0.025 0 0.04 0.025 0 0.06 0.025 0 0.08 0.025 0 0.1 0.025 0 0 0.03 0 0.02 0.03 0 0.04 0.03 0 0.06 0.03 0 0.08 0.03 0 0.1 0.03 0 0 0.035 0 0.02 0.035 0 0.04 0.035 0 0.06 0.035 0 0.08 0.035 0 0.1 0.035 0 0 0.04 0 0.02 0.04 0 0.04 0.04 0 0.06 0.04 0 0.08 0.04 0 0.1 0.04 0 0 0.045 0 0.02 0.045 0 0.04 0.045 0 0.06 0.045 0 0.08 0.045 0 0.1 0.045 0 0 0.05 0 0.02 0.05 0 0.04 0.05 0 0.06 0.05 0 0.08 0.05 0 0.1 0.05 0 0 0.055 0 0.02 0.055 0 0.04 0.055 0 0.06 0.055 0 0.08 0.055 0 0.1 0.055 0 0 0.06 0 0.02 0.06 0 0.04 0.06 0 0.06 0.06 0 0.08 0.06 0 0.1 0.06 0 0 0.065 0 0.02 0.065 0 0.04 0.065 0 0.06 0.065 0 0.08 0.065 0 0.1 0.065 0 0 0.07 0 0.02 0.07 0 0.04 0.07 0 0.06 0.07 0 0.08 0.07 0 0.1 0.07 0 0 0.075 0 0.02 0.075 0 0.04 0.075 0 0.06 0.075 0 0.08 0.075 0 0.1 0.075 0 0 0.08 0 0.02 0.08 0 0.04 0.08 0 0.06 0.08 0 0.08 0.08 0 0.1 0.08 0 0 0.085 0 0.02 0.085 0 0.04 0.085 0 0.06 0.085 0 0.08 0.085 0 0.1 0.085 0 0 0.09 0 0.02 0.09 0 0.04 0.09 0 0.06 0.09 0 0.08 0.09 0 0.1 0.09 0 0 0.095 0 0.02 0.095 0 0.04 0.095 0 0.06 0.095 0 0.08 0.095 0 0.1 0.095 0 0 0.1 0 0.02 0.1 0 0.04 0.1 0 0.06 0.1 0 0.08 0.1 0 0.1 0.1 0 0 0.105 0 0.02 0.105 0 0.04 0.105 0 0.06 0.105 0 0.08 0.105 0 0.1 0.105 0 0 0.11 0 0.02 0.11 0 0.04 0.11 0 0.06 0.11 0 0.08 0.11 0 0.1 0.11 0 0 0.115 0 0.02 0.115 0 0.04 0.115 0 0.06 0.115 0 0.08 0.115 0 0.1 0.115 0 0 0.12 0 0.02 0.12 0 0.04 0.12 0 0.06 0.12 0 0.08 0.12 0 0.1 0.12 0 0 0.125 0 0.02 0.125 0 0.04 0.125 0 0.06 0.125 0 0.08 0.125 0 0.1 0.125 0 0 0.13 0 0.02 0.13 0 0.04 0.13 0 0.06 0.13 0 0.08 0.13 0 0.1 0.13 0 0 0.135 0 0.02 0.135 0 0.04 0.135 0 0.06 0.135 0 0.08 0.135 0 0.1 0.135 0 0 0.14 0 0.02 0.14 0 0.04 0.14 0 0.06 0.14 0 0.08 0.14 0 0.1 0.14 0 0 0.145 0 0.02 0.145 0 0.04 0.145 0 0.06 0.145 0 0.08 0.145 0 0.1 0.145 0 0 0.15 0 0.02 0.15 0 0.04 0.15 0 0.06 0.15 0 0.08 0.15 0 0.1 0.15 0 0 0.155 0 0.02 0.155 0 0.04 0.155 0 0.06 0.155 0 0.08 0.155 0 0.1 0.155 0 0 0.16 0 0.02 0.16 0 0.04 0.16 0 0.06 0.16 0 0.08 0.16 0 0.1 0.16 0 0 0.165 0 0.02 0.165 0 0.04 0.165 0 0.06 0.165 0 0.08 0.165 0 0.1 0.165 0 0 0.17 0 0.02 0.17 0 0.04 0.17 0 0.06 0.17 0 0.08 0.17 0 0.1 0.17 0 0 0.175 0 0.02 0.175 0 0.04 0.175 0 0.06 0.175 0 0.08 0.175 0 0.1 0.175 0 0 0.18 0 0.02 0.18 0 0.04 0.18 0 0.06 0.18 0 0.08 0.18 0 0.1 0.18 0 0 0.185 0 0.02 0.185 0 0.04 0.185 0 0.06 0.185 0 0.08 0.185 0 0.1 0.185 0 0 0.19 0 0.02 0.19 0 0.04 0.19 0 0.06 0.19 0 0.08 0.19 0 0.1 0.19 0 0 0.195 0 0.02 0.195 0 0.04 0.195 0 0.06 0.195 0 0.08 0.195 0 0.1 0.195 0 0 0.2 0 0.02 0.2 0 0.04 0.2 0 0.06 0.2 0 0.08 0.2 0 0.1 0.2 0 0 0.205 0 0.02 0.205 0 0.04 0.205 0 0.06 0.205 0 0.08 0.205 0 0.1 0.205 0 0 0.21 0 0.02 0.21 0 0.04 0.21 0 0.06 0.21 0 0.08 0.21 0 0.1 0.21 0 0 0.215 0 0.02 0.215 0 0.04 0.215 0 0.06 0.215 0 0.08 0.215 0 0.1 0.215 0 0 0.22 0 0.02 0.22 0 0.04 0.22 0 0.06 0.22 0 0.08 0.22 0 0.1 0.22 0 0 0.225 0 0.02 0.225 0 0.04 0.225 0 0.06 0.225 0 0.08 0.225 0 0.1 0.225 0 0 0.23 0 0.02 0.23 0 0.04 0.23 0 0.06 0.23 0 0.08 0.23 0 0.1 0.23 0 0 0.235 0 0.02 0.235 0 0.04 0.235 0 0.06 0.235 0 0.08 0.235 0 0.1 0.235 0 0 0.24 0 0.02 0.24 0 0.04 0.24 0 0.06 0.24 0 0.08 0.24 0 0.1 0.24 0 0 0.245 0 0.02 0.245 0 0.04 0.245 0 0.06 0.245 0 0.08 0.245 0 0.1 0.245 0 0 0.25 0 0.02 0.25 0 0.04 0.25 0 0.06 0.25 0 0.08 0.25 0 0.1 0.25 0 0 0.255 0 0.02 0.255 0 0.04 0.255 0 0.06 0.255 0 0.08 0.255 0 0.1 0.255 0 0 0.26 0 0.02 0.26 0 0.04 0.26 0 0.06 0.26 0 0.08 0.26 0 0.1 0.26 0 0 0.265 0 0.02 0.265 0 0.04 0.265 0 0.06 0.265 0 0.08 0.265 0 0.1 0.265 0 0 0.27 0 0.02 0.27 0 0.04 0.27 0 0.06 0.27 0 0.08 0.27 0 0.1 0.27 0 0 0.275 0 0.02 0.275 0 0.04 0.275 0 0.06 0.275 0 0.08 0.275 0 0.1 0.275 0 0 0.28 0 0.02 0.28 0 0.04 0.28 0 0.06 0.28 0 0.08 0.28 0 0.1 0.28 0 0 0.285 0 0.02 0.285 0 0.04 0.285 0 0.06 0.285 0 0.08 0.285 0 0.1 0.285 0 0 0.29 0 0.02 0.29 0 0.04 0.29 0 0.06 0.29 0 0.08 0.29 0 0.1 0.29 0 0 0.295 0 0.02 0.295 0 0.04 0.295 0 0.06 0.295 0 0.08 0.295 0 0.1 0.295 0 0 0.3 0 0.02 0.3 0 0.04 0.3 0 0.06 0.3 0 0.08 0.3 0 0.1 0.3 0 0 0.305 0 0.02 0.305 0 0.04 0.305 0 0.06 0.305 0 0.08 0.305 0 0.1 0.305 0 0 0.31 0 0.02 0.31 0 0.04 0.31 0 0.06 0.31 0 0.08 0.31 0 0.1 0.31 0 0 0.315 0 0.02 0.315 0 0.04 0.315 0 0.06 0.315 0 0.08 0.315 0 0.1 0.315 0 0 0.32 0 0.02 0.32 0 0.04 0.32 0 0.06 0.32 0 0.08 0.32 0 0.1 0.32 0 0 0.325 0 0.02 0.325 0 0.04 0.325 0 0.06 0.325 0 0.08 0.325 0 0.1 0.325 0 0 0.33 0 0.02 0.33 0 0.04 0.33 0 0.06 0.33 0 0.08 0.33 0 0.1 0.33 0 0 0.335 0 0.02 0.335 0 0.04 0.335 0 0.06 0.335 0 0.08 0.335 0 0.1 0.335 0 0 0.34 0 0.02 0.34 0 0.04 0.34 0 0.06 0.34 0 0.08 0.34 0 0.1 0.34 0 0 0.345 0 0.02 0.345 0 0.04 0.345 0 0.06 0.345 0 0.08 0.345 0 0.1 0.345 0 0 0.35 0 0.02 0.35 0 0.04 0.35 0 0.06 0.35 0 0.08 0.35 0 0.1 0.35 0 0 0.355 0 0.02 0.355 0 0.04 0.355 0 0.06 0.355 0 0.08 0.355 0 0.1 0.355 0 0 0.36 0 0.02 0.36 0 0.04 0.36 0 0.06 0.36 0 0.08 0.36 0 0.1 0.36 0 0 0.365 0 0.02 0.365 0 0.04 0.365 0 0.06 0.365 0 0.08 0.365 0 0.1 0.365 0 0 0.37 0 0.02 0.37 0 0.04 0.37 0 0.06 0.37 0 0.08 0.37 0 0.1 0.37 0 0 0.375 0 0.02 0.375 0 0.04 0.375 0 0.06 0.375 0 0.08 0.375 0 0.1 0.375 0 0 0.38 0 0.02 0.38 0 0.04 0.38 0 0.06 0.38 0 0.08 0.38 0 0.1 0.38 0 0 0.385 0 0.02 0.385 0 0.04 0.385 0 0.06 0.385 0 0.08 0.385 0 0.1 0.385 0 0 0.39 0 0.02 0.39 0 0.04 0.39 0 0.06 0.39 0 0.08 0.39 0 0.1 0.39 0 0 0.395 0 0.02 0.395 0 0.04 0.395 0 0.06 0.395 0 0.08 0.395 0 0.1 0.395 0 0 0.4 0 0.02 0.4 0 0.04 0.4 0 0.06 0.4 0 0.08 0.4 0 0.1 0.4 0 0 0.405 0 0.02 0.405 0 0.04 0.405 0 0.06 0.405 0 0.08 0.405 0 0.1 0.405 0 0 0.41 0 0.02 0.41 0 0.04 0.41 0 0.06 0.41 0 0.08 0.41 0 0.1 0.41 0 0 0.415 0 0.02 0.415 0 0.04 0.415 0 0.06 0.415 0 0.08 0.415 0 0.1 0.415 0 0 0.420001 0 0.02 0.420001 0 0.04 0.420001 0 0.06 0.420001 0 0.08 0.420001 0 0.1 0.420001 0 0 0.425005 0 0.02 0.425005 0 0.04 0.425005 0 0.06 0.425005 0 0.08 0.425005 0 0.1 0.425005 0 0 0.430024 0 0.02 0.430024 0 0.04 0.430024 0 0.06 0.430024 0 0.08 0.430024 0 0.1 0.430024 0 0 0.435086 0 0.02 0.435086 0 0.04 0.435086 0 0.06 0.435086 0 0.08 0.435086 0 0.1 0.435086 0 0 0.440257 0 0.02 0.440257 0 0.04 0.440257 0 0.06 0.440257 0 0.08 0.440257 0 0.1 0.440257 0 0 0.445631 0 0.02 0.445631 0 0.04 0.445631 0 0.06 0.445631 0 0.08 0.445631 0 0.1 0.445631 0 0 0.451316 0 0.02 0.451316 0 0.04 0.451316 0 0.06 0.451316 0 0.08 0.451316 0 0.1 0.451316 0 0 0.457419 0 0.02 0.457419 0 0.04 0.457419 0 0.06 0.457419 0 0.08 0.457419 0 0.1 0.457419 0 0 0.464049 0 0.02 0.464049 0 0.04 0.464049 0 0.06 0.464049 0 0.08 0.464049 0 0.1 0.464049 0 0 0.471336 0 0.02 0.471336 0 0.04 0.471336 0 0.06 0.471336 0 0.08 0.471336 0 0.1 0.471336 0 0 0.479444 0 0.02 0.479444 0 0.04 0.479444 0 0.06 0.479444 0 0.08 0.479444 0 0.1 0.479444 0 0 0.488594 0 0.02 0.488594 0 0.04 0.488594 0 0.06 0.488594 0 0.08 0.488594 0 0.1 0.488594 0 0 0.49905 0 0.02 0.49905 0 0.04 0.49905 0 0.06 0.49905 0 0.08 0.49905 0 0.1 0.49905 0 0 0.510943 0 0.02 0.510943 0 0.04 0.510943 0 0.06 0.510943 0 0.08 0.510943 0 0.1 0.510943 0 0 0.523421 0 0.02 0.523421 0 0.04 0.523421 0 0.06 0.523421 0 0.08 0.523421 0 0.1 0.523421 0 0 0.535504 0 0.02 0.535504 0 0.04 0.535504 0 0.06 0.535504 0 0.08 0.535504 0 0.1 0.535504 0 0 0.547365 0 0.02 0.547365 0 0.04 0.547365 0 0.06 0.547365 0 0.08 0.547365 0 0.1 0.547365 0 0 0.549979 0 0.02 0.549979 0 0.04 0.549979 0 0.06 0.549979 0 0.08 0.549979 0 0.1 0.549979 0 0 0.55252 0 0.02 0.55252 0 0.04 0.55252 0 0.06 0.55252 0 0.08 0.55252 0 0.1 0.55252 0 0 0.555015 0 0.02 0.555015 0 0.04 0.555015 0 0.06 0.555015 0 0.08 0.555015 0 0.1 0.555015 0 0 0.557482 0 0.02 0.557482 0 0.04 0.557482 0 0.06 0.557482 0 0.08 0.557482 0 0.1 0.557482 0 0 0.559929 0 0.02 0.559929 0 0.04 0.559929 0 0.06 0.559929 0 0.08 0.559929 0 0.1 0.559929 0 0 0.562363 0 0.02 0.562363 0 0.04 0.562363 0 0.06 0.562363 0 0.08 0.562363 0 0.1 0.562363 0 0 0.564789 0 0.02 0.564789 0 0.04 0.564789 0 0.06 0.564789 0 0.08 0.564789 0 0.1 0.564789 0 0 0.567213 0 0.02 0.567213 0 0.04 0.567213 0 0.06 0.567213 0 0.08 0.567213 0 0.1 0.567213 0 0 0.569639 0 0.02 0.569639 0 0.04 0.569639 0 0.06 0.569639 0 0.08 0.569639 0 0.1 0.569639 0 0 0.572078 0 0.02 0.572078 0 0.04 0.572078 0 0.06 0.572078 0 0.08 0.572078 0 0.1 0.572078 0 0 0.574532 0 0.02 0.574532 0 0.04 0.574532 0 0.06 0.574532 0 0.08 0.574532 0 0.1 0.574532 0 0 0.577019 0 0.02 0.577019 0 0.04 0.577019 0 0.06 0.577019 0 0.08 0.577019 0 0.1 0.577019 0 0 0.579536 0 0.02 0.579536 0 0.04 0.579536 0 0.06 0.579536 0 0.08 0.579536 0 0.1 0.579536 0 0 0.582124 0 0.02 0.582124 0 0.04 0.582124 0 0.06 0.582124 0 0.08 0.582124 0 0.1 0.582124 0 0 0.584775 0 0.02 0.584775 0 0.04 0.584775 0 0.06 0.584775 0 0.08 0.584775 0 0.1 0.584775 0 0 0.587576 0 0.02 0.587576 0 0.04 0.587576 0 0.06 0.587576 0 0.08 0.587576 0 0.1 0.587576 0 0 0.590542 0 0.02 0.590542 0 0.04 0.590542 0 0.06 0.590542 0 0.08 0.590542 0 0.1 0.590542 0 0 0.593795 0 0.02 0.593795 0 0.04 0.593795 0 0.06 0.593795 0 0.08 0.593795 0 0.1 0.593795 0 0 0.597371 0 0.02 0.597371 0 0.04 0.597371 0 0.06 0.597371 0 0.08 0.597371 0 0.1 0.597371 0 0 0.601327 0 0.02 0.601327 0 0.04 0.601327 0 0.06 0.601327 0 0.08 0.601327 0 0.1 0.601327 0 0 0.605647 0 0.02 0.605647 0 0.04 0.605647 0 0.06 0.605647 0 0.08 0.605647 0 0.1 0.605647 0 0 0.61027 0 0.02 0.61027 0 0.04 0.61027 0 0.06 0.61027 0 0.08 0.61027 0 0.1 0.61027 0 0 0.615098 0 0.02 0.615098 0 0.04 0.615098 0 0.06 0.615098 0 0.08 0.615098 0 0.1 0.615098 0 0 0.620032 0 0.02 0.620032 0 0.04 0.620032 0 0.06 0.620032 0 0.08 0.620032 0 0.1 0.620032 0 0 0.62501 0 0.02 0.62501 0 0.04 0.62501 0 0.06 0.62501 0 0.08 0.62501 0 0.1 0.62501 0 0 0.630003 0 0.02 0.630003 0 0.04 0.630003 
[...]
			<PointData Scalars="VitesseX">
				<DataArray Name="VitesseX" type="Float32" format="ascii">
 0 1.73182e-16 -2.79683e-15 -4.02248e-15 -4.41406e-15 0 0 -2.83317e-16 -2.41132e-15 -3.91155e-15 -4.95303e-15 0 0 -1.26749e-15 -1.74618e-15 -3.51217e-15 -6.57115e-15 0 0 -2.2747e-15 -6.54051e-16 -4.31658e-15 -7.38608e-15 0 0 -1.89527e-15 -9.86987e-16 -4.74371e-15 -8.15836e-15 0 0 -1.65197e-15 -1.2123e-15 -4.25938e-15 -9.19609e-15 0 0 -1.96258e-15 3.29184e-16 -5.68048e-15 -9.52828e-15 0 0 -1.01383e-15 -1.32088e-15 -4.32251e-15 -1.22474e-14 0 0 7.04048e-16 -4.26025e-15 -2.80105e-15 -1.25399e-14 0 0 4.25698e-16 -3.20452e-15 -4.26684e-15 -1.11871e-14 0 0 2.88422e-17 -2.72097e-15 -5.73912e-15 -1.04519e-14 0 0 2.5468e-16 -4.38919e-15 -5.92671e-15 -1.17942e-14 0 0 -1.55507e-15 -3.468e-15 -8.63229e-15 -1.13613e-14 0 0 -8.22902e-16 -5.68141e-15 -8.50252e-15 -1.29352e-14 0 0 -3.55174e-15 -6.31542e-15 -5.53642e-15 -1.57117e-14 0 0 -8.49725e-15 -2.22027e-15 -6.88115e-15 -1.11491e-14 0 0 -5.75607e-15 -3.60962e-15 -5.53574e-15 -8.06418e-15 0 0 -5.23742e-15 -6.48318e-15 -3.6751e-15 -7.04361e-15 0 0 -8.21381e-15 -8.80606e-15 4.9615e-16 -1.22318e-14 0 0 -1.03958e-14 -7.30783e-15 7.88425e-16 -1.34836e-14 0 0 -9.63075e-15 -7.65023e-15 -5.94153e-16 -9.6805e-15 0 0 -5.74758e-15 -1.24452e-14 4.37741e-15 -1.28811e-14 0 0 -8.11357e-15 -8.33603e-15 2.40921e-15 -1.25362e-14 0 0 -9.00355e-15 -4.31026e-15 -1.27531e-15 -9.87425e-15 0 0 -6.343e-15 -6.90992e-15 -3.13771e-15 -7.17948e-15 0 0 -3.30587e-15 -1.11781e-14 -6.99663e-15 -1.02063e-14 0 0 -2.34611e-15 -1.58119e-14 -5.2642e-15 -1.56953e-14 0 0 -5.65595e-15 -1.66288e-14 -9.97009e-15 -4.57524e-15 0 0 -5.34481e-15 -1.22844e-14 -2.04703e-14 5.38647e-15 0 0 -2.34302e-15 -1.35607e-14 -2.00103e-14 2.48138e-15 0 0 -1.34084e-17 -1.82944e-14 -1.68871e-14 -2.99812e-15 0 0 -4.91521e-15 -1.44491e-14 -1.84343e-14 -1.07053e-14 0 0 -6.16877e-15 -1.91126e-14 -1.89136e-14 -9.3299e-15 0 0 -8.10436e-15 -2.00063e-14 -2.02181e-14 -4.27035e-15 0 0 -1.67716e-14 -1.12157e-14 -2.11993e-14 -6.68222e-15 0 0 -1.34234e-14 -1.75869e-14 -1.74204e-14 -6.55644e-15 0 0 -1.17305e-14 -2.10227e-14 -9.3716e-15 -1.17419e-14 0 0 -1.16582e-14 -1.71764e-14 -1.03013e-14 -1.56283e-14 0 0 -1.04947e-14 -1.0642e-14 -2.41322e-14 -5.04414e-15 0 0 -8.44736e-15 -1.0357e-14 -2.68438e-14 3.62279e-15 0 0 -7.52061e-15 -1.89398e-14 -7.49928e-15 -1.11567e-14 0 0 -1.218e-14 -1.93773e-14 6.40344e-15 -2.36972e-14 0 0 -1.56992e-14 -1.03689e-14 -6.52195e-15 -1.18146e-14 0 0 -1.68071e-14 -1.92377e-15 -2.16167e-14 6.72999e-15 0 0 -2.01763e-14 -1.37366e-15 -2.50378e-14 2.17009e-14 0 0 -2.03792e-14 -1.07211e-14 -1.3271e-14 1.25406e-14 0 0 -1.57882e-14 -2.41015e-14 -3.18923e-15 4.36805e-15 0 0 -2.22005e-14 -2.01756e-14 -9.55072e-15 6.96806e-15 0 0 -2.08904e-14 -1.64017e-14 -2.24141e-14 1.36133e-14 0 0 -1.84656e-14 -1.78876e-14 -2.89893e-14 1.08831e-14 0 0 -1.25003e-14 -2.69476e-14 -2.09859e-14 -3.84509e-15 0 0 -6.68848e-15 -3.56243e-14 -8.045e-15 -1.22124e-14 0 0 -6.83047e-15 -2.23846e-14 -2.38014e-14 -2.55401e-15 0 0 -7.0107e-15 -3.72562e-15 -4.39421e-14 4.58637e-15 0 0 -9.32487e-15 5.81959e-15 -3.65413e-14 -1.07487e-14 0 0 -3.90301e-15 -1.66757e-15 -3.03822e-14 -1.04918e-14 0 0 -8.39265e-15 -7.45513e-15 -2.53226e-14 -8.13153e-15 0 0 -7.47576e-15 -1.32459e-14 -2.97904e-14 -8.05388e-15 0 0 -1.4959e-14 -1.56736e-14 -3.05452e-14 -9.12145e-15 0 0 -2.23665e-14 -1.3629e-14 -2.80202e-14 -3.51468e-15 0 0 -1.08726e-14 -4.04664e-14 -1.29963e-14 4.91066e-15 0 0 -7.6183e-15 -5.48495e-14 -1.26828e-15 -3.68676e-16 0 0 -7.00208e-15 -4.86225e-14 -1.64168e-14 -1.1092e-15 0 0 -1.79818e-14 -4.15997e-14 -2.62855e-14 -8.08638e-15 0 0 -2.47595e-14 -3.07774e-14 -3.36826e-14 -2.7845e-14 0 0 -9.46566e-15 -3.19735e-14 -4.17586e-14 -3.10395e-14 0 0 -1.09151e-14 -2.01703e-14 -4.46674e-14 -3.58175e-14 0 0 -2.79189e-14 -1.2215e-14 -4.09247e-14 -3.61289e-14 0 0 -1.89562e-14 -4.11798e-14 -2.18284e-14 -2.84328e-14 0 0 -1.16552e-14 -4.44781e-14 -2.50892e-14 -3.69083e-14 0 0 -2.15045e-14 -2.16787e-14 -4.68285e-14 -2.43499e-14 0 0 -2.49665e-14 -2.28516e-14 -4.68089e-14 1.18448e-15 0 0 -2.18328e-14 -3.08461e-14 -3.64742e-14 -1.14357e-14 0 0 -2.16329e-14 -1.93183e-14 -3.98133e-14 -3.17024e-14 0 0 -1.2902e-14 -1.09958e-14 -4.87584e-14 -3.29153e-14 0 0 -1.16972e-14 -6.28829e-15 -4.68618e-14 -3.45107e-14 0 0 -1.25953e-14 2.27022e-15 -3.25457e-14 -4.22556e-14 0 0 -3.07667e-15 6.04471e-15 -2.98314e-14 -2.32504e-14 0 0 1.78184e-14 1.89493e-15 -2.95956e-14 -1.49378e-14 0 0 3.59534e-14 2.5525e-15 -2.44266e-14 -2.30297e-14 0 0 2.88477e-14 -2.85328e-16 -2.96073e-14 -6.31337e-15 0 0 1.02581e-14 5.43626e-16 -3.53195e-14 1.84447e-14 0 0 8.80815e-15 2.90347e-16 -3.73975e-14 3.89689e-14 0 0 2.0245e-14 -1.09959e-14 -1.17447e-14 2.22638e-14 0 0 1.52589e-14 -1.86734e-14 1.13627e-14 2.91997e-15 0 0 -1.56896e-15 -8.17654e-15 -7.07094e-16 -1.9078e-15 0 0 -1.33461e-14 9.35555e-15 -1.87425e-14 -4.89457e-15 0 0 -7.28157e-16 -9.30918e-15 -2.59348e-14 -1.18099e-14 0 0 -2.06208e-15 -2.04342e-14 -2.42612e-14 -2.68568e-15 0 0 -1.09542e-14 -2.19859e-14 -1.03838e-14 1.25607e-14 0 0 -1.55221e-14 -8.67195e-15 7.18377e-16 1.62892e-15 0 0 -4.78844e-15 6.00442e-15 5.3133e-15 8.25282e-16 0 0 7.96086e-15 -1.26314e-14 6.09624e-15 2.21532e-15 0 0 -5.55817e-15 -4.85799e-15 -1.25542e-15 3.89734e-15 0 0 -6.10516e-15 7.18032e-15 -1.24418e-15 2.30341e-15 0 0 -1.16189e-14 6.17967e-15 -8.81594e-15 -3.0608e-16 0 0 -4.46042e-15 -9.36777e-15 -2.94898e-15 -4.04953e-15 0 0 -8.13265e-15 -2.36029e-14 -3.88347e-15 -5.91213e-15 0 0 -4.37683e-14 -6.34074e-14 -5.37364e-14 -3.73163e-14 0 0 -9.83034e-14 -1.7088e-13 -1.71295e-13 -1.10877e-13 0 0 -1.54314e-13 -2.57081e-13 -2.50255e-13 -1.55165e-13 0 0 -2.35667e-13 -3.97761e-13 -3.81804e-13 -2.63864e-13 0 0 -2.39718e-13 -3.36125e-13 -3.42952e-13 -2.66939e-13 0 0 -2.21848e-13 -2.68575e-13 -2.58759e-13 -2.97627e-13 0 0 -1.82801e-13 -2.26428e-13 -1.81253e-13 -2.58227e-13 0 0 -1.52716e-13 -1.82469e-13 -1.1999e-13 -2.28125e-13 0 0 -6.95072e-14 -2.17196e-13 -5.1606e-14 -2.25997e-13 0 0 -9.67944e-15 -2.63979e-13 -2.802e-14 -1.38175e-13 0 0 -5.48343e-14 -2.05815e-13 -8.87695e-14 -1.40548e-13 0 0 -1.60606e-13 -1.743e-13 -2.50402e-13 -1.79759e-13 0 0 -2.06002e-13 -2.90966e-13 -3.83899e-13 -2.32744e-13 0 0 -1.98028e-13 -5.33683e-13 -3.03957e-13 -4.02773e-13 0 0 -2.36821e-13 -6.47254e-13 -3.58689e-13 -4.68938e-13 0 0 -3.04882e-13 -6.27459e-13 -4.33747e-13 -4.20525e-13 0 0 -3.41247e-13 -6.37814e-13 -5.07366e-13 -3.25623e-13 0 0 -3.08226e-13 -5.96872e-13 -5.88834e-13 -2.4535e-13 0 0 -3.02788e-13 -5.73283e-13 -5.81373e-13 -2.91143e-13 0 0 -2.79213e-13 -5.14085e-13 -4.79247e-13 -3.21418e-13 0 0 -2.44739e-13 -4.55422e-13 -4.15279e-13 -2.49328e-13 0 0 -2.09518e-13 -3.45442e-13 -3.15659e-13 -1.7246e-13 0 0 -1.50935e-13 -2.2326e-13 -2.14383e-13 -2.08021e-13 0 0 -7.31731e-14 -1.29519e-13 -1.40386e-13 -1.31261e-13 0 0 -3.41904e-14 -7.03042e-14 -4.77656e-14 -7.44831e-14 0 0 -3.64097e-15 -2.0351e-14 -4.25396e-14 -4.1366e-14 0 0 1.32489e-14 -6.24348e-15 -3.6192e-14 -9.05576e-15 0 0 6.10812e-15 -9.41099e-16 -2.23338e-15 -3.93434e-14 0 0 1.11427e-14 2.58968e-15 -2.9263e-14 -3.37746e-14 0 0 7.54179e-15 5.0668e-16 -2.57188e-14 -3.90912e-14 0 0 4.25088e-15 6.16689e-15 -3.95499e-14 -3.48577e-14 0 0 3.79416e-16 2.01268e-14 -5.80712e-14 -3.17814e-14 0 0 -9.93612e-15 1.8807e-14 -5.01919e-14 -5.10055e-14 0 0 -4.2025e-15 -1.42633e-16 -6.03511e-14 -4.7227e-14 0 0 3.69413e-15 -4.13233e-15 -6.98358e-14 -3.41883e-14 0 0 -8.11859e-15 1.22929e-14 -8.25138e-14 -3.80908e-14 0 0 -1.75982e-14 -1.02585e-14 -6.94577e-14 -3.11227e-14 0 0 -1.83193e-14 -2.22138e-14 -4.92475e-14 -2.71678e-14 0 0 -2.29117e-14 -4.4117e-14 -3.58494e-14 -1.82555e-14 0 0 -1.93932e-14 -7.01271e-14 -3.92546e-14 -2.49405e-14 0 0 -2.22713e-14 -6.11241e-14 -4.22958e-14 -5.86459e-14 0 0 -3.75083e-14 -5.54182e-14 -6.85038e-14 -5.49185e-14 0 0 -5.03844e-14 -4.41437e-14 -1.12143e-13 -6.49946e-14 0 0 -4.42639e-14 -6.14633e-14 -1.3116e-13 -8.95785e-14 0 0 -2.96111e-14 -9.10057e-14 -1.19451e-13 -1.1681e-13 0 0 -2.70866e-14 -1.05042e-13 -1.06171e-13 -1.03965e-13 0 0 -3.11945e-14 -9.21619e-14 -1.04993e-13 -1.06641e-13 0 0 -3.12906e-14 -8.65349e-14 -9.37365e-14 -1.33263e-13 0 0 -2.62233e-14 -9.29006e-14 -1.04682e-13 -8.82358e-14 0 0 -5.29086e-14 -8.39495e-14 -7.76785e-14 -9.90543e-14 0 0 -7.26343e-14 -9.44216e-14 -6.1824e-14 -9.7419e-14 0 0 -4.9154e-14 -1.14804e-13 -6.52781e-14 -6.8845e-14 0 0 -6.14943e-14 -1.07448e-13 -6.6248e-14 -6.25044e-14 0 0 -7.28887e-14 -1.02704e-13 -7.71248e-14 -6.00559e-14 0 0 -7.76664e-14 -1.02967e-13 -8.9716e-14 -6.79703e-14 0 0 -8.97705e-14 -1.0923e-13 -8.4079e-14 -8.90495e-14 0 0 -8.46542e-14 -1.04236e-13 -9.33281e-14 -9.68609e-14 0 0 -7.58297e-14 -1.16487e-13 -1.05016e-13 -7.34787e-14 0 0 -6.77587e-14 -1.21059e-13 -1.07797e-13 -7.152e-14 0 0 -6.39656e-14 -1.01266e-13 -1.23796e-13 -8.45469e-14 0 0 -6.13006e-14 -1.04536e-13 -1.33577e-13 -6.01989e-14 0 0 -6.27746e-14 -8.48796e-14 -1.54217e-13 -3.55559e-14 0 0 -6.53913e-14 -6.88101e-14 -1.25129e-13 -8.50765e-14 0 0 -5.33429e-14 -1.00493e-13 -7.6995e-14 -1.37898e-13 0 0 -4.9596e-14 -1.38024e-13 -5.106e-14 -1.41214e-13 0 0 -5.98845e-14 -1.42627e-13 -4.94007e-14 -1.23577e-13 0 0 -5.45183e-14 -1.07934e-13 -8.36458e-14 -1.2444e-13 0 0 -7.74373e-14 -7.48071e-14 -9.76655e-14 -1.29769e-13 0 0 -9.69846e-14 -7.79869e-14 -9.5995e-14 -1.44679e-13 0 0 -7.6872e-14 -8.55517e-14 -1.15456e-13 -1.23136e-13 0 0 -7.05647e-14 -7.51316e-14 -1.46819e-13 -4.33513e-14 0 0 -6.28744e-14 -7.9203e-14 -1.29687e-13 -4.16444e-14 0 0 -4.95728e-14 -8.8551e-14 -9.64781e-14 -8.05641e-14 0 0 -6.10176e-14 -8.2381e-14 -9.1943e-14 -5.6465e-14 0 0 -7.68725e-14 -7.27904e-14 -1.12762e-13 -3.12541e-14 0 0 -1.128e-13 -4.57811e-14 -1.21469e-13 -5.72951e-14 0 0 -8.71784e-14 -9.31539e-14 -1.03936e-13 -5.42683e-14 0 0 -3.89401e-14 -1.39899e-13 -7.28415e-14 -8.91208e-14 0 0 -7.73459e-14 -8.09743e-14 -1.0101e-13 -1.12649e-13 0 0 -7.04432e-14 -8.69864e-14 -1.41874e-13 -8.74768e-14 0 0 -4.52533e-14 -1.10491e-13 -1.23636e-13 -1.05376e-13 0 0 -7.63488e-14 -8.60804e-14 -1.09185e-13 -9.86975e-14 0 0 -8.37286e-14 -8.80239e-14 -8.30422e-14 -9.49354e-14 0 0 -7.12961e-14 -9.87926e-14 -8.75491e-14 -6.8473e-14 0 0 -7.74382e-14 -9.6748e-14 -8.41743e-14 -7.04488e-14 0 0 -4.94342e-14 -1.17172e-13 -7.3343e-14 -9.85297e-14 0 0 -5.30933e-14 -8.92e-14 -1.16492e-13 -6.06377e-14 0 0 -8.26052e-14 -5.49899e-14 -1.21036e-13 -3.38301e-14 0 0 -8.61227e-14 -5.13203e-14 -1.09561e-13 -4.30022e-14 0 0 -9.63976e-14 -5.83076e-14 -6.45968e-14 -8.66543e-14 0 0 -9.69881e-14 -9.91129e-14 -4.07181e-14 -8.16451e-14 0 0 -6.8965e-14 -1.26794e-13 -8.43108e-14 -1.6145e-14 0 0 -4.67303e-14 -1.32221e-13 -7.94489e-14 -3.67758e-14 0 0 -4.22354e-14 -1.18944e-13 -7.5854e-14 -8.57433e-14 0 0 -5.27759e-14 -8.68493e-14 -5.64669e-14 -1.37709e-13 0 0 -7.61837e-14 -5.33327e-14 -1.94809e-14 -1.654e-13 0 0 -7.36423e-14 -6.77148e-14 -2.89761e-14 -9.49981e-14 0 0 -6.56879e-14 -1.00649e-13 -4.26382e-14 -2.39518e-14 0 0 -3.95872e-14 -1.2529e-13 -6.51244e-14 8.14971e-15 0 0 -4.06665e-14 -1.07006e-13 -8.74554e-14 -2.04022e-14 0 0 -6.22547e-14 -7.93599e-14 -7.62099e-14 -7.9952e-14 0 0 -6.00971e-14 -8.23726e-14 -7.37838e-14 -6.02331e-14 0 0 -5.48048e-14 -9.3203e-14 -6.9849e-14 -3.12216e-14 0
				</DataArray>
				<DataArray Name="VitesseY" type="Float32" format="ascii">