<?xml version="1.0"?>
<VTKFile type="PolyData">
	<PolyData>
		<Piece NumberOfPoints="1206" NumberOfPolys="1000">
			<Points>
				<DataArray type="Float32" NumberOfComponents="3" format="ascii">
 0 0 0 0.02 0 0 0.04 0 0 0.06 0 0 0.08 0 0 0.1 0 0 0 0.005 0 0.02 0.005 0 0.04 0.005 0 0.06 0.005 0 0.08 0.005 0 0.1 0.005 0 0 0.01 0 0.02 0.01 0 0.04 0.01 0 0.06 0.01 0 0.08 0.01 0 0.1 0.01 0 0 0.015 0 0.02 0.015 0 0.04 0.015 0 0.06 0.015 0 0.08 0.015 0 0.1 0.015 0 0 0.02 0 0.02 0.02 0 0.04 0.02 0 0.06 0.02 0 0.08 0.02 0 0.1 0.02 0 0 0.025 0 0.02 0.025 0 0.04 0.025 0 0.06 0.025 0 0.08 0.025 0 0.1 0.025 0 0 0.03 0 0.02 0.03 0 0.04 0.03 0 0.06 0.03 0 0.08 0.03 0 0.1 0.03 0 0 0.035 0 0.02 0.035 0 0.04 0.035 0 0.06 0.035 0 0.08 0.035 0 0.1 0.035 0 0 0.04 0 0.02 0.04 0 0.04 0.04 0 0.06 0.04 0 0.08 0.04 0 0.1 0.04 0 0 0.045 0 0.02 0.045 0 0.04 0.045 0 0.06 0.045 0 0.08 0.045 0 0.1 0.045 0 0 0.05 0 0.02 0.05 0 0.04 0.05 0 0.06 0.05 0 0.08 0.05 0 0.1 0.05 0 0 0.055 0 0.02 0.055 0 0.04 0.055 0 0.06 0.055 0 0.08 0.055 0 0.1 0.055 0 0 0.06 0 0.02 0.06 0 0.04 0.06 0 0.06 0.06 0 0.08 0.06 0 0.1 0.06 0 0 0.065 0 0.02 0.065 0 0.04 0.065 0 0.06 0.065 0 0.08 0.065 0 0.1 0.065 0 0 0.07 0 0.02 0.07 0 0.04 0.07 0 0.06 0.07 0 0.08 0.07 0 0.1 0.07 0 0 0.075 0 0.02 0.075 0 0.04 0.075 0 0.06 0.075 0 0.08 0.075 0 0.1 0.075 0 0 0.08 0 0.02 0.08 0 0.04 0.08 0 0.06 0.08 0 0.08 0.08 0 0.1 0.08 0 0 0.085 0 0.02 0.085 0 0.04 0.085 0 0.06 0.085 0 0.08 0.085 0 0.1 0.085 0 0 0.09 0 0.02 0.09 0 0.04 0.09 0 0.06 0.09 0 0.08 0.09 0 0.1 0.09 0 0 0.095 0 0.02 0.095 0 0.04 0.095 0 0.06 0.095 0 0.08 0.095 0 0.1 0.095 0 0 0.1 0 0.02 0.1 0 0.04 0.1 0 0.06 0.1 0 0.08 0.1 0 0.1 0.1 0 0 0.105 0 0.02 0.105 0 0.04 0.105 0 0.06 0.105 0 0.08 0.105 0 0.1 0.105 0 0 0.11 0 0.02 0.11 0 0.04 0.11 0 0.06 0.11 0 0.08 0.11 0 0.1 0.11 0 0 0.115 0 0.02 0.115 0 0.04 0.115 0 0.06 0.115 0 0.08 0.115 0 0.1 0.115 0 0 0.12 0 0.02 0.12 0 0.04 0.12 0 0.06 0.12 0 0.08 0.12 0 0.1 0.12 0 0 0.125 0 0.02 0.125 0 0.04 0.125 0 0.06 0.125 0 0.08 0.125 0 0.1 0.125 0 0 0.13 0 0.02 0.13 0 0.04 0.13 0 0.06 0.13 0 0.08 0.13 0 0.1 0.13 0 0 0.135 0 0.02 0.135 0 0.04 0.135 0 0.06 0.135 0 0.08 0.135 0 0.1 0.135 0 0 0.14 0 0.02 0.14 0 0.04 0.14 0 0.06 0.14 0 0.08 0.14 0 0.1 0.14 0 0 0.145 0 0.02 0.145 0 0.04 0.145 0 0.06 0.145 0 0.08 0.145 0 0.1 0.145 0 0 0.15 0 0.02 0.15 0 0.04 0.15 0 0.06 0.15 0 0.08 0.15 0 0.1 0.15 0 0 0.155 0 0.02 0.155 0 0.04 0.155 0 0.06 0.155 0 0.08 0.155 0 0.1 0.155 0 0 0.16 0 0.02 0.16 0 0.04 0.16 0 0.06 0.16 0 0.08 0.16 0 0.1 0.16 0 0 0.165 0 0.02 0.165 0 0.04 0.165 0 0.06 0.165 0 0.08 0.165 0 0.1 0.165 0 0 0.17 0 0.02 0.17 0 0.04 0.17 0 0.06 0.17 0 0.08 0.17 0 0.1 0.17 0 0 0.175 0 0.02 0.175 0 0.04 0.175 0 0.06 0.175 0 0.08 0.175 0 0.1 0.175 0 0 0.18 0 0.02 0.18 0 0.04 0.18 0 0.06 0.18 0 0.08 0.18 0 0.1 0.18 0 0 0.185 0 0.02 0.185 0 0.04 0.185 0 0.06 0.185 0 0.08 0.185 0 0.1 0.185 0 0 0.19 0 0.02 0.19 0 0.04 0.19 0 0.06 0.19 0 0.08 0.19 0 0.1 0.19 0 0 0.195 0 0.02 0.195 0 0.04 0.195 0 0.06 0.195 0 0.08 0.195 0 0.1 0.195 0 0 0.2 0 0.02 0.2 0 0.04 0.2 0 0.06 0.2 0 0.08 0.2 0 0.1 0.2 0 0 0.205 0 0.02 0.205 0 0.04 0.205 0 0.06 0.205 0 0.08 0.205 0 0.1 0.205 0 0 0.21 0 0.02 0.21 0 0.04 0.21 0 0.06 0.21 0 0.08 0.21 0 0.1 0.21 0 0 0.215 0 0.02 0.215 0 0.04 0.215 0 0.06 0.215 0 0.08 0.215 0 0.1 0.215 0 0 0.22 0 0.02 0.22 0 0.04 0.22 0 0.06 0.22 0 0.08 0.22 0 0.1 0.22 0 0 0.225 0 0.02 0.225 0 0.04 0.225 0 0.06 0.225 0 0.08 0.225 0 0.1 0.225 0 0 0.23 0 0.02 0.23 0 0.04 0.23 0 0.06 0.23 0 0.08 0.23 0 0.1 0.23 0 0 0.235 0 0.02 0.235 0 0.04 0.235 0 0.06 0.235 0 0.08 0.235 0 0.1 0.235 0 0 0.24 0 0.02 0.24 0 0.04 0.24 0 0.06 0.24 0 0.08 0.24 0 0.1 0.24 0 0 0.245 0 0.02 0.245 0 0.04 0.245 0 0.06 0.245 0 0.08 0.245 0 0.1 0.245 0 0 0.25 0 0.02 0.25 0 0.04 0.25 0 0.06 0.25 0 0.08 0.25 0 0.1 0.25 0 0 0.255 0 0.02 0.255 0 0.04 0.255 0 0.06 0.255 0 0.08 0.255 0 0.1 0.255 0 0 0.26 0 0.02 0.26 0 0.04 0.26 0 0.06 0.26 0 0.08 0.26 0 0.1 0.26 0 0 0.265 0 0.02 0.265 0 0.04 0.265 0 0.06 0.265 0 0.08 0.265 0 0.1 0.265 0 0 0.27 0 0.02 0.27 0 0.04 0.27 0 0.06 0.27 0 0.08 0.27 0 0.1 0.27 0 0 0.275 0 0.02 0.275 0 0.04 0.275 0 0.06 0.275 0 0.08 0.275 0 0.1 0.275 0 0 0.28 0 0.02 0.28 0 0.04 0.28 0 0.06 0.28 0 0.08 0.28 0 0.1 0.28 0 0 0.285 0 0.02 0.285 0 0.04 0.285 0 0.06 0.285 0 0.08 0.285 0 0.1 0.285 0 0 0.29 0 0.02 0.29 0 0.04 0.29 0 0.06 0.29 0 0.08 0.29 0 0.1 0.29 0 0 0.295 0 0.02 0.295 0 0.04 0.295 0 0.06 0.295 0 0.08 0.295 0 0.1 0.295 0 0 0.3 0 0.02 0.3 0 0.04 0.3 0 0.06 0.3 0 0.08 0.3 0 0.1 0.3 0 0 0.305 0 0.02 0.305 0 0.04 0.305 0 0.06 0.305 0 0.08 0.305 0 0.1 0.305 0 0 0.31 0 0.02 0.31 0 0.04 0.31 0 0.06 0.31 0 0.08 0.31 0 0.1 0.31 0 0 0.315 0 0.02 0.315 0 0.04 0.315 0 0.06 0.315 0 0.08 0.315 0 0.1 0.315 0 0 0.32 0 0.02 0.32 0 0.04 0.32 0 0.06 0.32 0 0.08 0.32 0 0.1 0.32 0 0 0.325 0 0.02 0.325 0 0.04 0.325 0 0.06 0.325 0 0.08 0.325 0 0.1 0.325 0 0 0.330002 0 0.02 0.330002 0 0.04 0.330002 0 0.06 0.330002 0 0.08 0.330002 0 0.1 0.330002 0 0 0.335006 0 0.02 0.335006 0 0.04 0.335006 0 0.06 0.335006 0 0.08 0.335006 0 0.1 0.335006 0 0 0.340018 0 0.02 0.340018 0 0.04 0.340018 0 0.06 0.340018 0 0.08 0.340018 0 0.1 0.340018 0 0 0.345047 0 0.02 0.345047 0 0.04 0.345047 0 0.06 0.345047 0 0.08 0.345047 0 0.1 0.345047 0 0 0.350112 0 0.02 0.350112 0 0.04 0.350112 0 0.06 0.350112 0 0.08 0.350112 0 0.1 0.350112 0 0 0.355237 0 0.02 0.355237 0 0.04 0.355237 0 0.06 0.355237 0 0.08 0.355237 0 0.1 0.355237 0 0 0.360451 0 0.02 0.360451 0 0.04 0.360451 0 0.06 0.360451 0 0.08 0.360451 0 0.1 0.360451 0 0 0.365781 0 0.02 0.365781 0 0.04 0.365781 0 0.06 0.365781 0 0.08 0.365781 0 0.1 0.365781 0 0 0.37125 0 0.02 0.37125 0 0.04 0.37125 0 0.06 0.37125 0 0.08 0.37125 0 0.1 0.37125 0 0 0.376878 0 0.02 0.376878 0 0.04 0.376878 0 0.06 0.376878 0 0.08 0.376878 0 0.1 0.376878 0 0 0.382682 0 0.02 0.382682 0 0.04 0.382682 0 0.06 0.382682 0 0.08 0.382682 0 0.1 0.382682 0 0 0.388678 0 0.02 0.388678 0 0.04 0.388678 0 0.06 0.388678 0 0.08 0.388678 0 0.1 0.388678 0 0 0.394884 0 0.02 0.394884 0 0.04 0.394884 0 0.06 0.394884 0 0.08 0.394884 0 0.1 0.394884 0 0 0.401319 0 0.02 0.401319 0 0.04 0.401319 0 0.06 0.401319 0 0.08 0.401319 0 0.1 0.401319 0 0 0.408003 0 0.02 0.408003 0 0.04 0.408003 0 0.06 0.408003 0 0.08 0.408003 0 0.1 0.408003 0 0 0.41496 0 0.02 0.41496 0 0.04 0.41496 0 0.06 0.41496 0 0.08 0.41496 0 0.1 0.41496 0 0 0.422216 0 0.02 0.422216 0 0.04 0.422216 0 0.06 0.422216 0 0.08 0.422216 0 0.1 0.422216 0 0 0.429801 0 0.02 0.429801 0 0.04 0.429801 0 0.06 0.429801 0 0.08 0.429801 0 0.1 0.429801 0 0 0.437749 0 0.02 0.437749 0 0.04 0.437749 0 0.06 0.437749 0 0.08 0.437749 0 0.1 0.437749 0 0 0.446099 0 0.02 0.446099 0 0.04 0.446099 0 0.06 0.446099 0 0.08 0.446099 0 0.1 0.446099 0 0 0.454899 0 0.02 0.454899 0 0.04 0.454899 0 0.06 0.454899 0 0.08 0.454899 0 0.1 0.454899 0 0 0.464199 0 0.02 0.464199 0 0.04 0.464199 0 0.06 0.464199 0 0.08 0.464199 0 0.1 0.464199 0 0 0.474059 0 0.02 0.474059 0 0.04 0.474059 0 0.06 0.474059 0 0.08 0.474059 0 0.1 0.474059 0 0 0.48454 0 0.02 0.48454 0 0.04 0.48454 0 0.06 0.48454 0 0.08 0.48454 0 0.1 0.48454 0 0 0.495691 0 0.02 0.495691 0 0.04 0.495691 0 0.06 0.495691 0 0.08 0.495691 0 0.1 0.495691 0 0 0.507495 0 0.02 0.507495 0 0.04 0.507495 0 0.06 0.507495 0 0.08 0.507495 0 0.1 0.507495 0 0 0.519708 0 0.02 0.519708 0 0.04 0.519708 0 0.06 0.519708 0 0.08 0.519708 0 0.1 0.519708 0 0 0.531858 0 0.02 0.531858 0 0.04 0.531858 0 0.06 0.531858 0 0.08 0.531858 0 0.1 0.531858 0 0 0.543866 0 0.02 0.543866 0 0.04 0.543866 0 0.06 0.543866 0 0.08 0.543866 0 0.1 0.543866 0 0 0.555746 0 0.02 0.555746 0 0.04 0.555746 0 0.06 0.555746 0 0.08 0.555746 0 0.1 0.555746 0 0 0.567546 0 0.02 0.567546 0 0.04 0.567546 0 0.06 0.567546 0 0.08 0.567546 0 0.1 0.567546 0 0 0.579306 0 0.02 0.579306 0 0.04 0.579306 0 0.06 0.579306 0 0.08 0.579306 0 0.1 0.579306 0 0 0.591051 0 0.02 0.591051 0 0.04 0.591051 0 0.06 0.591051 0 0.08 0.591051 0 0.1 0.591051 0 0 0.602793 0 0.02 0.602793 0 0.04 0.602793 0 0.06 0.602793 0 0.08 0.602793 0 0.1 0.602793 0 0 0.614544 0 0.02 0.614544 0 0.04 0.614544 0 0.06 0.614544 0 0.08 0.614544 0 0.1 0.614544 0 0 0.617154 0 0.02 0.617154 0 0.04 0.617154 0 0.06 0.617154 0 0.08 0.617154 0 0.1 0.617154 0 0 0.61969 0 0.02 0.61969 0 0.04 0.61969 0 0.06 0.61969 0 0.08 0.61969 0 0.1 0.61969 0 0 0.622181 0 0.02 0.622181 0 0.04 0.622181 0 0.06 0.622181 0 0.08 0.622181 0 0.1 0.622181 0 0 0.624642 0 0.02 0.624642 0 0.04 0.624642 0 0.06 0.624642 0 0.08 0.624642 0 0.1 0.624642 0 0 0.627081 0 0.02 0.627081 0 0.04 0.627081 0 0.06 0.627081 0 0.08 0.627081 0 0.1 0.627081 0 0 0.629505 0 0.02 0.629505 0 0.04 0.629505 0 0.06 0.629505 0 0.08 0.629505 0 0.1 0.629505 0 0 0.631919 0 0.02 0.631919 0 0.04 0.631919 0 0.06 0.631919 0 0.08 0.631919 0 0.1 0.631919 0 0 0.634333 0 0.02 0.634333 0 0.04 0.634333 0 0.06 0.634333 0 0.08 0.634333 0 0.1 0.634333 0 0 0.636747 0 0.02 0.636747 0 0.04 0.636747 0 0.06 0.636747 0 0.08 0.636747 0 0.1 0.636747 0 0 0.639146 0 0.02 0.639146 0 0.04 0.639146 0 0.06 0.639146 0 0.08 0.639146 0 0.1 0.639146 0 0 0.641535 0 0.02 0.641535 0 0.04 0.641535 0 0.06 0.641535 0 0.08 0.641535 0 0.1 0.641535 0 0 0.643917 0 0.02 0.643917 0 0.04 0.643917 0 0.06 0.643917 0 0.08 0.643917 0 0.1 0.643917 0 0 0.646296 0 0.02 0.646296 0 0.04 0.646296 0 0.06 0.646296 0 0.08 0.646296 0 0.1 0.646296 0 0 0.648673 0 0.02 0.648673 0 0.04 0.648673 0 0.06 0.648673 0 0.08 0.648673 0 0.1 0.648673 0 0 0.651047 0 0.02 0.651047 0 0.04 0.651047 0 0.06 0.651047 0 0.08 0.651047 0 0.1 0.651047 0 0 0.653418 0 0.02 0.653418 0 0.04 0.653418 0 0.06 0.653418 0 0.08 0.653418 0 0.1 0.653418 0 0 0.655788 0 0.02 0.655788 0 0.04 0.655788 0 0.06 0.655788 0 0.08 0.655788 0 0.1 0.655788 0 0 0.658156 0 0.02 0.658156 0 0.04 0.658156 0 0.06 0.658156 0 0.08 0.658156 0 0.1 0.658156 0 0 0.660521 0 0.02 0.660521 0 0.04 0.660521 0 0.06 0.660521 0 0.08 0.660521 0 0.1 0.660521 0 0 0.662884 0 0.02 0.662884 0 0.04 0.662884 0 0.06 0.662884 0 0.08 0.662884 0 0.1 0.662884 0 0 0.665247 0 0.02 0.665247 0 0.04 0.665247 0 0.06 0.665247 0 0.08 0.665247 0 0.1 0.665247 0 0 0.667611 0 0.02 0.667611 
[...]
			<PointData Scalars="VitesseX">
				<DataArray Name="VitesseX" type="Float32" format="ascii">
 0 2.27351e-15 2.40922e-15 -2.3147e-15 1.16063e-14 0 0 2.28515e-15 2.62031e-15 -2.56166e-15 1.17167e-14 0 0 2.15648e-15 2.42856e-15 -2.47959e-15 1.17476e-14 0 0 1.71249e-15 2.26755e-15 -2.51802e-15 1.20866e-14 0 0 1.15957e-15 2.1207e-15 -2.7958e-15 1.28882e-14 0 0 2.00197e-15 8.53569e-16 -1.53738e-15 1.18187e-14 0 0 1.66475e-15 2.41379e-15 -1.1677e-15 1.06656e-14 0 0 1.59315e-15 1.8159e-15 2.6083e-16 1.06975e-14 0 0 2.6516e-15 -2.02137e-15 3.59657e-15 9.94602e-15 0 0 2.36396e-15 -2.4068e-15 6.77181e-15 8.02249e-15 0 0 -8.98657e-17 3.94282e-16 7.05926e-15 8.57603e-15 0 0 -3.02395e-15 5.87002e-15 3.60162e-15 6.37597e-15 0 0 -4.50054e-15 1.0915e-14 1.24353e-15 -7.8741e-16 0 0 1.9004e-16 6.53921e-15 4.94256e-15 -5.88113e-15 0 0 2.72908e-15 5.05861e-15 4.99517e-15 -6.90765e-15 0 0 4.03688e-15 4.12787e-15 2.82151e-15 -7.15496e-15 0 0 3.84665e-15 3.44162e-15 -2.92183e-15 -3.46814e-15 0 0 5.51753e-16 4.49171e-15 -5.16389e-15 2.16732e-15 0 0 4.60836e-15 -2.38086e-15 2.90876e-15 -1.46838e-16 0 0 5.77147e-15 -5.22628e-15 5.36874e-15 -1.50472e-15 0 0 2.50351e-15 5.03461e-16 1.68099e-15 4.40676e-15 0 0 1.15098e-15 5.46614e-15 9.17192e-16 7.79062e-15 0 0 2.9703e-15 4.42397e-15 5.7653e-15 4.13501e-15 0 0 9.16621e-15 1.43225e-15 1.03997e-14 -6.3808e-15 0 0 3.77252e-15 1.22145e-14 8.29287e-15 -1.2303e-14 0 0 2.07157e-15 1.83796e-14 -1.21475e-15 -2.2407e-15 0 0 1.11666e-14 2.70616e-15 9.27013e-16 9.018e-16 0 0 6.5867e-15 2.39037e-16 6.01021e-15 -6.5556e-15 0 0 4.46778e-15 5.69634e-15 -9.0337e-17 -2.73955e-15 0 0 7.55938e-15 4.53893e-16 -2.30943e-15 6.66914e-15 0 0 2.62847e-15 -2.02537e-15 4.01686e-15 1.03729e-14 0 0 -2.53245e-15 1.10151e-15 1.01741e-14 6.24861e-15 0 0 -6.86354e-15 1.21577e-14 7.10062e-15 -3.22418e-15 0 0 -8.08502e-15 1.02728e-14 1.27414e-14 -5.0385e-15 0 0 -9.73173e-15 6.73238e-15 2.61095e-15 9.83532e-15 0 0 -1.0385e-14 1.08325e-14 -1.46405e-14 7.35474e-15 0 0 -8.15977e-15 5.38973e-15 -7.6019e-15 -1.00563e-14 0 0 -7.37993e-15 -6.61184e-15 6.95818e-15 -1.5356e-14 0 0 -9.94261e-15 -5.93252e-15 3.8216e-15 -1.13311e-14 0 0 -1.03495e-14 6.8763e-16 -7.53557e-15 -6.49575e-15 0 0 -8.66719e-15 2.21747e-15 -8.32984e-15 -1.90497e-15 0 0 3.33026e-15 -5.04594e-15 -1.18961e-14 5.98515e-15 0 0 1.28992e-14 -1.45988e-14 -2.03673e-14 9.51922e-15 0 0 8.78324e-16 -1.23468e-14 -8.35018e-15 -7.87052e-16 0 0 -8.10033e-15 -5.15426e-15 7.63927e-15 -1.08244e-14 0 0 -5.26774e-15 -3.16859e-15 1.43816e-14 -1.76644e-14 0 0 -2.41163e-15 -3.34141e-15 3.38902e-15 -5.19243e-16 0 0 -2.32935e-15 2.98127e-15 -2.10257e-14 2.6919e-14 0 0 3.35399e-15 1.45071e-15 -2.97948e-14 3.67505e-14 0 0 4.78219e-15 -1.39796e-15 -2.7737e-14 3.73924e-14 0 0 6.34433e-15 -4.30796e-15 -5.72178e-15 1.36373e-14 0 0 2.05289e-14 -9.85921e-15 1.11229e-14 1.197e-14 0 0 2.75309e-14 -3.68274e-15 1.82147e-14 1.25958e-14 0 0 6.55545e-15 2.27068e-14 3.13364e-14 -1.13958e-14 0 0 7.09897e-15 3.45333e-14 3.19697e-14 -2.26827e-14 0 0 4.32157e-14 2.22037e-14 4.51545e-15 -1.86617e-14 0 0 2.83923e-14 1.02672e-14 -1.3541e-14 -7.51954e-15 0 0 -8.19242e-15 8.57554e-15 -2.12936e-14 1.22333e-14 0 0 4.04547e-15 -2.55847e-14 4.93124e-15 1.86124e-14 0 0 1.27308e-14 -3.10232e-14 -4.77937e-15 2.14914e-14 0 0 -1.82205e-14 -9.11326e-15 -2.37059e-14 1.45243e-14 0 0 -2.77317e-14 -6.26232e-15 -3.45218e-14 -1.69246e-15 0 0 3.62038e-15 -2.1741e-14 -6.05219e-14 -3.03985e-15 0 0 -4.04541e-15 -3.41212e-14 -3.69322e-14 -6.8321e-15 0 0 -1.12391e-14 -1.61946e-14 -2.46944e-14 -1.89042e-14 0 0 5.2372e-16 -6.39415e-15 -1.7566e-14 -4.09288e-14 0 0 -8.10286e-15 3.03104e-15 -1.46198e-14 -3.9473e-14 0 0 -5.36726e-15 -2.10679e-15 -2.14231e-14 -8.37988e-15 0 0 6.45149e-15 -1.42018e-14 -1.53399e-14 -7.1918e-15 0 0 6.67736e-15 -7.55557e-15 8.24218e-15 -4.62053e-14 0 0 3.36968e-15 -1.34473e-14 5.81395e-15 -3.70279e-14 0 0 -1.64712e-14 -6.68398e-15 -2.58282e-14 -1.31808e-15 0 0 -2.14286e-14 -2.69798e-14 -6.96751e-15 -1.04274e-14 0 0 -2.12076e-14 -1.43668e-14 -2.5502e-16 -4.69727e-15 0 0 -2.77163e-14 2.59483e-14 -3.1654e-14 9.11394e-15 0 0 -5.33773e-15 -4.333e-15 -2.3096e-14 6.68919e-15 0 0 8.09769e-15 -2.14931e-14 7.02676e-15 -4.19682e-15 0 0 -2.76922e-14 -1.09123e-14 3.91601e-14 -4.06494e-14 0 0 -5.79927e-14 6.30915e-15 1.4784e-14 -3.01999e-14 0 0 -2.71365e-14 8.72971e-15 -7.51631e-15 -5.41533e-15 0 0 6.33207e-15 -1.60376e-14 7.5329e-15 -4.81371e-15 0 0 -7.11799e-15 -9.49126e-15 -2.31146e-14 -2.19022e-15 0 0 -6.89393e-15 -7.90516e-17 -2.4828e-14 -3.29436e-15 0 0 -7.68204e-15 4.82098e-15 -2.71258e-14 1.36014e-14 0 0 -1.96594e-14 -2.25648e-15 -1.66034e-14 5.42929e-15 0 0 -6.53003e-15 -1.82253e-14 6.75648e-15 5.60628e-15 0 0 7.20337e-15 -3.93586e-15 -7.21314e-15 1.03823e-14 0 0 2.3399e-14 -9.10068e-15 1.66888e-14 -2.14354e-14 0 0 -6.20591e-15 1.52875e-14 2.12549e-14 -2.83993e-14 0 0 -2.87569e-15 -3.29354e-15 2.43613e-14 -5.12582e-15 0 0 7.21004e-15 5.37415e-15 1.48765e-14 3.89902e-14 0 0 3.61566e-14 7.98618e-14 2.74258e-14 7.29502e-14 0 0 1.04667e-13 1.1509e-13 1.19565e-13 9.78827e-14 0 0 1.06744e-13 1.38684e-13 1.52261e-13 9.77951e-14 0 0 3.55992e-14 3.98533e-14 4.57284e-14 2.14712e-14 0 0 -1.2587e-13 -2.18863e-13 -2.01884e-13 -1.26927e-13 0 0 -3.35501e-13 -5.37882e-13 -5.3028e-13 -3.19594e-13 0 0 -5.12875e-13 -8.32309e-13 -8.25682e-13 -5.21139e-13 0 0 -6.40226e-13 -1.03884e-12 -1.04256e-12 -6.44126e-13 0 0 -7.38551e-13 -1.20965e-12 -1.21165e-12 -7.48905e-13 0 0 -8.68389e-13 -1.43454e-12 -1.44979e-12 -8.81683e-13 0 0 -1.51684e-12 -2.49953e-12 -2.46093e-12 -1.49399e-12 0 0 -1.48962e-12 -2.46693e-12 -2.44219e-12 -1.50907e-12 0 0 -1.51812e-12 -2.49445e-12 -2.45991e-12 -1.58336e-12 0 0 -1.55174e-12 -2.55976e-12 -2.53117e-12 -1.56704e-12 0 0 -1.60015e-12 -2.61165e-12 -2.63905e-12 -1.57103e-12 0 0 -1.6219e-12 -2.60521e-12 -2.63191e-12 -1.63045e-12 0 0 -1.43755e-12 -2.37211e-12 -2.30911e-12 -1.5203e-12 0 0 -9.25527e-13 -1.59891e-12 -1.54486e-12 -1.05735e-12 0 0 -3.12963e-13 -6.21357e-13 -5.83878e-13 -4.6259e-13 0 0 2.14346e-13 2.73916e-13 2.73163e-13 8.59216e-14 0 0 5.71433e-13 8.76877e-13 8.20166e-13 5.1824e-13 0 0 6.86597e-13 1.04827e-12 1.01504e-12 6.87239e-13 0 0 6.46811e-13 1.06166e-12 9.79503e-13 5.92668e-13 0 0 5.82883e-13 8.97146e-13 8.11092e-13 5.41237e-13 0 0 4.7339e-13 6.5974e-13 6.14059e-13 4.05707e-13 0 0 3.02635e-13 4.76091e-13 3.59476e-13 2.53507e-13 0 0 1.45283e-13 2.49918e-13 9.83271e-14 1.57635e-13 0 0 -2.53563e-14 5.99785e-14 -1.21105e-13 7.84345e-14 0 0 -1.45766e-13 -1.20505e-13 -3.07821e-13 -6.3667e-14 0 0 -2.14661e-13 -3.60636e-13 -4.03491e-13 -2.26708e-13 0 0 -2.97749e-13 -5.64238e-13 -5.59646e-13 -3.15117e-13 0 0 -4.03404e-13 -7.00746e-13 -7.70814e-13 -4.0406e-13 0 0 -5.03417e-13 -8.59295e-13 -8.87158e-13 -4.87393e-13 0 0 -5.84396e-13 -9.81123e-13 -9.67228e-13 -6.32385e-13 0 0 -6.80243e-13 -1.04904e-12 -1.06363e-12 -6.97509e-13 0 0 -7.46604e-13 -1.12545e-12 -1.15217e-12 -7.51194e-13 0 0 -7.92829e-13 -1.2302e-12 -1.22849e-12 -8.33509e-13 0 0 -8.54631e-13 -1.30616e-12 -1.33422e-12 -9.12581e-13 0 0 -8.9939e-13 -1.41891e-12 -1.40978e-12 -9.82257e-13 0 0 -9.00531e-13 -1.55411e-12 -1.42994e-12 -1.02779e-12 0 0 -8.99756e-13 -1.61706e-12 -1.49927e-12 -1.01141e-12 0 0 -9.43343e-13 -1.57955e-12 -1.62049e-12 -9.95434e-13 0 0 -9.91449e-13 -1.5352e-12 -1.70148e-12 -9.99102e-13 0 0 -1.02497e-12 -1.52428e-12 -1.7235e-12 -9.92427e-13 0 0 -1.01342e-12 -1.5398e-12 -1.69093e-12 -1.01917e-12 0 0 -9.57548e-13 -1.56047e-12 -1.57309e-12 -1.02005e-12 0 0 -9.19064e-13 -1.5175e-12 -1.5328e-12 -8.65617e-13 0 0 -8.31955e-13 -1.44806e-12 -1.45105e-12 -7.41699e-13 0 0 -8.17777e-13 -1.39439e-12 -1.29528e-12 -7.13997e-13 0 0 -7.84583e-13 -1.30042e-12 -1.12361e-12 -6.40954e-13 0 0 -7.22553e-13 -1.10743e-12 -9.63155e-13 -5.36582e-13 0 0 -6.0715e-13 -9.00807e-13 -7.76756e-13 -5.11051e-13 0 0 -3.85981e-13 -6.75669e-13 -6.29593e-13 -4.01356e-13 0 0 -2.61914e-13 -4.24748e-13 -4.77884e-13 -2.29769e-13 0 0 -1.58168e-13 -2.493e-13 -2.63937e-13 -1.94041e-13 0 0 -7.43705e-14 -1.27041e-13 -1.4726e-13 -1.17248e-13 0 0 -3.84132e-14 -5.59647e-14 -6.74006e-14 -4.57663e-14 0 0 -2.23943e-14 -3.27528e-14 -5.72162e-14 -3.00239e-14 0 0 -2.0114e-14 -2.61257e-14 -4.42861e-14 -2.79678e-14 0 0 -2.09498e-14 -3.6556e-14 -2.33947e-14 -4.40468e-14 0 0 -2.49883e-14 -2.65933e-14 -5.04027e-14 -4.24075e-14 0 0 -3.10434e-14 -1.47708e-14 -4.46331e-14 -3.09189e-14 0 0 -3.10729e-14 -2.17085e-14 -3.18059e-14 -1.1418e-14 0 0 -1.47508e-14 -4.2458e-14 -2.15023e-14 -1.43853e-14 0 0 -1.1374e-14 -3.9103e-14 -1.73056e-14 -2.10837e-14 0 0 -3.2398e-14 -1.04255e-14 -3.01051e-14 -2.70531e-14 0 0 -4.1747e-14 -1.10311e-15 -5.99715e-14 9.53548e-15 0 0 -3.28111e-14 -1.35214e-14 -5.08456e-14 4.25455e-15 0 0 -1.43881e-14 -3.27126e-14 -2.24679e-14 -2.31858e-14 0 0 -3.23737e-14 -5.14777e-15 -4.60032e-14 -3.21804e-15 0 0 -3.8774e-14 -7.57418e-15 -2.17321e-14 -4.28636e-14 0 0 -2.28128e-14 -4.38569e-14 2.5138e-14 -4.43928e-14 0 0 -3.1497e-14 -4.07514e-14 4.7776e-14 -3.41087e-14 0 0 -3.37508e-14 -2.17092e-14 2.57278e-14 1.14425e-14 0 0 -2.36964e-14 -2.01294e-14 -1.02023e-14 6.23159e-14 0 0 -1.48208e-14 -2.91246e-14 -1.72058e-15 6.55406e-14 0 0 -1.09735e-14 -2.08398e-14 1.498e-14 4.18795e-14 0 0 -2.5726e-14 8.52333e-16 3.56013e-14 1.8984e-14 0 0 -3.05537e-14 1.2514e-14 8.98638e-14 -6.94238e-14 0 0 -1.40012e-14 4.20629e-14 7.56147e-14 -9.19534e-14 0 0 -5.62478e-15 6.57422e-14 2.25591e-14 -1.96567e-14 0 0 4.9293e-15 3.46295e-14 7.25862e-14 -4.75456e-14 0 0 -3.92546e-16 4.55709e-14 5.67793e-14 -1.37996e-14 0 0 3.73618e-14 1.0276e-14 4.56465e-14 7.47845e-15 0 0 8.18716e-14 -5.79246e-15 3.20255e-14 5.13773e-14 0 0 2.38091e-14 1.10158e-13 -4.34374e-14 9.3129e-14 0 0 3.64066e-14 6.95304e-14 -1.87378e-14 3.45315e-14 0 0 4.0166e-14 8.17675e-15 4.11762e-14 -1.31606e-14 0 0 3.37934e-14 6.84156e-15 5.01769e-14 -3.17829e-14 0 0 8.7811e-15 3.32848e-14 -7.2331e-15 -1.39598e-14 0 0 -4.57393e-14 4.95728e-14 -9.29209e-15 -4.28436e-14 0 0 -3.41121e-14 -2.17613e-14 5.09933e-14 -6.2615e-14 0 0 -3.64685e-14 -7.72275e-15 -2.30015e-14 7.39197e-15 0 0 -2.6279e-14 1.10327e-14 -1.35304e-13 1.40175e-13 0 0 -4.6309e-14 -2.99078e-14 -9.30411e-14 2.01531e-13 0 0 -2.92849e-14 -6.53562e-14 3.02301e-14 1.03933e-13 0 0 -2.86699e-14 -3.54769e-14 9.15181e-14 -3.41148e-14 0 0 -7.31915e-14 1.23363e-14 7.61625e-14 -8.10369e-14 0 0 -4.80756e-14 -5.65668e-15 8.917e-14 -1.13121e-13 0 0 1.89961e-14 -7.52297e-14 1.13364e-13 -9.78953e-14 0 0 2.21374e-14 -3.51844e-14 1.72338e-14 -7.99994e-15 0 0 -4.91905e-15 2.14733e-14 1.88125e-14 -6.63538e-14 0 0 2.15291e-14 -2.73035e-14 7.34383e-14 -7.46805e-14 0 0 3.43008e-14 -2.7642e-14 5.34563e-14 -4.73172e-16 0 0 1.82136e-14 2.23836e-14 6.45953e-14 -2.02737e-14 0 0 -1.65269e-14 9.36033e-14 4.42119e-14 -7.00536e-14 0 0 -1.98708e-15 1.14091e-13 -5.3676e-15 -6.03243e-14 0 0 1.74962e-14 8.04587e-14 -1.50464e-14 -3.13482e-14 0 0 -1.21159e-14 7.32042e-14 -3.65335e-15 -2.91861e-14 0 0 -1.71653e-14 7.15262e-14 -1.71311e-14 -4.39902e-15 0
				</DataArray>
				<DataArray Name="VitesseY" type="Float32" format="ascii">