<?xml version="1.0"?>
<VTKFile type="PolyData">
	<PolyData>
		<Piece NumberOfPoints="1206" NumberOfPolys="1000">
			<Points>
				<DataArray type="Float32" NumberOfComponents="3" format="ascii">
 0 0 0 0.02 0 0 0.04 0 0 0.06 0 0 0.08 0 0 0.1 0 0 0 0.005 0 0.02 0.005 0 0.04 0.005 0 0.06 0.005 0 0.08 0.005 0 0.1 0.005 0 0 0.01 0 0.02 0.01 0 0.04 0.01 0 0.06 0.01 0 0.08 0.01 0 0.1 0.01 0 0 0.015 0 0.02 0.015 0 0.04 0.015 0 0.06 0.015 0 0.08 0.015 0 0.1 0.015 0 0 0.02 0 0.02 0.02 0 0.04 0.02 0 0.06 0.02 0 0.08 0.02 0 0.1 0.02 0 0 0.025 0 0.02 0.025 0 0.04 0.025 0 0.06 0.025 0 0.08 0.025 0 0.1 0.025 0 0 0.03 0 0.02 0.03 0 0.04 0.03 0 0.06 0.03 0 0.08 0.03 0 0.1 0.03 0 0 0.035 0 0.02 0.035 0 0.04 0.035 0 0.06 0.035 0 0.08 0.035 0 0.1 0.035 0 0 0.04 0 0.02 0.04 0 0.04 0.04 0 0.06 0.04 0 0.08 0.04 0 0.1 0.04 0 0 0.045 0 0.02 0.045 0 0.04 0.045 0 0.06 0.045 0 0.08 0.045 0 0.1 0.045 0 0 0.05 0 0.02 0.05 0 0.04 0.05 0 0.06 0.05 0 0.08 0.05 0 0.1 0.05 0 0 0.055 0 0.02 0.055 0 0.04 0.055 0 0.06 0.055 0 0.08 0.055 0 0.1 0.055 0 0 0.06 0 0.02 0.06 0 0.04 0.06 0 0.06 0.06 0 0.08 0.06 0 0.1 0.06 0 0 0.065 0 0.02 0.065 0 0.04 0.065 0 0.06 0.065 0 0.08 0.065 0 0.1 0.065 0 0 0.07 0 0.02 0.07 0 0.04 0.07 0 0.06 0.07 0 0.08 0.07 0 0.1 0.07 0 0 0.075 0 0.02 0.075 0 0.04 0.075 0 0.06 0.075 0 0.08 0.075 0 0.1 0.075 0 0 0.08 0 0.02 0.08 0 0.04 0.08 0 0.06 0.08 0 0.08 0.08 0 0.1 0.08 0 0 0.085 0 0.02 0.085 0 0.04 0.085 0 0.06 0.085 0 0.08 0.085 0 0.1 0.085 0 0 0.09 0 0.02 0.09 0 0.04 0.09 0 0.06 0.09 0 0.08 0.09 0 0.1 0.09 0 0 0.095 0 0.02 0.095 0 0.04 0.095 0 0.06 0.095 0 0.08 0.095 0 0.1 0.095 0 0 0.1 0 0.02 0.1 0 0.04 0.1 0 0.06 0.1 0 0.08 0.1 0 0.1 0.1 0 0 0.105 0 0.02 0.105 0 0.04 0.105 0 0.06 0.105 0 0.08 0.105 0 0.1 0.105 0 0 0.11 0 0.02 0.11 0 0.04 0.11 0 0.06 0.11 0 0.08 0.11 0 0.1 0.11 0 0 0.115 0 0.02 0.115 0 0.04 0.115 0 0.06 0.115 0 0.08 0.115 0 0.1 0.115 0 0 0.12 0 0.02 0.12 0 0.04 0.12 0 0.06 0.12 0 0.08 0.12 0 0.1 0.12 0 0 0.125 0 0.02 0.125 0 0.04 0.125 0 0.06 0.125 0 0.08 0.125 0 0.1 0.125 0 0 0.13 0 0.02 0.13 0 0.04 0.13 0 0.06 0.13 0 0.08 0.13 0 0.1 0.13 0 0 0.135 0 0.02 0.135 0 0.04 0.135 0 0.06 0.135 0 0.08 0.135 0 0.1 0.135 0 0 0.14 0 0.02 0.14 0 0.04 0.14 0 0.06 0.14 0 0.08 0.14 0 0.1 0.14 0 0 0.145 0 0.02 0.145 0 0.04 0.145 0 0.06 0.145 0 0.08 0.145 0 0.1 0.145 0 0 0.15 0 0.02 0.15 0 0.04 0.15 0 0.06 0.15 0 0.08 0.15 0 0.1 0.15 0 0 0.155 0 0.02 0.155 0 0.04 0.155 0 0.06 0.155 0 0.08 0.155 0 0.1 0.155 0 0 0.16 0 0.02 0.16 0 0.04 0.16 0 0.06 0.16 0 0.08 0.16 0 0.1 0.16 0 0 0.165 0 0.02 0.165 0 0.04 0.165 0 0.06 0.165 0 0.08 0.165 0 0.1 0.165 0 0 0.17 0 0.02 0.17 0 0.04 0.17 0 0.06 0.17 0 0.08 0.17 0 0.1 0.17 0 0 0.175 0 0.02 0.175 0 0.04 0.175 0 0.06 0.175 0 0.08 0.175 0 0.1 0.175 0 0 0.18 0 0.02 0.18 0 0.04 0.18 0 0.06 0.18 0 0.08 0.18 0 0.1 0.18 0 0 0.185 0 0.02 0.185 0 0.04 0.185 0 0.06 0.185 0 0.08 0.185 0 0.1 0.185 0 0 0.19 0 0.02 0.19 0 0.04 0.19 0 0.06 0.19 0 0.08 0.19 0 0.1 0.19 0 0 0.195 0 0.02 0.195 0 0.04 0.195 0 0.06 0.195 0 0.08 0.195 0 0.1 0.195 0 0 0.2 0 0.02 0.2 0 0.04 0.2 0 0.06 0.2 0 0.08 0.2 0 0.1 0.2 0 0 0.205 0 0.02 0.205 0 0.04 0.205 0 0.06 0.205 0 0.08 0.205 0 0.1 0.205 0 0 0.21 0 0.02 0.21 0 0.04 0.21 0 0.06 0.21 0 0.08 0.21 0 0.1 0.21 0 0 0.215 0 0.02 0.215 0 0.04 0.215 0 0.06 0.215 0 0.08 0.215 0 0.1 0.215 0 0 0.22 0 0.02 0.22 0 0.04 0.22 0 0.06 0.22 0 0.08 0.22 0 0.1 0.22 0 0 0.225 0 0.02 0.225 0 0.04 0.225 0 0.06 0.225 0 0.08 0.225 0 0.1 0.225 0 0 0.23 0 0.02 0.23 0 0.04 0.23 0 0.06 0.23 0 0.08 0.23 0 0.1 0.23 0 0 0.235 0 0.02 0.235 0 0.04 0.235 0 0.06 0.235 0 0.08 0.235 0 0.1 0.235 0 0 0.24 0 0.02 0.24 0 0.04 0.24 0 0.06 0.24 0 0.08 0.24 0 0.1 0.24 0 0 0.245 0 0.02 0.245 0 0.04 0.245 0 0.06 0.245 0 0.08 0.245 0 0.1 0.245 0 0 0.25 0 0.02 0.25 0 0.04 0.25 0 0.06 0.25 0 0.08 0.25 0 0.1 0.25 0 0 0.255 0 0.02 0.255 0 0.04 0.255 0 0.06 0.255 0 0.08 0.255 0 0.1 0.255 0 0 0.26 0 0.02 0.26 0 0.04 0.26 0 0.06 0.26 0 0.08 0.26 0 0.1 0.26 0 0 0.265 0 0.02 0.265 0 0.04 0.265 0 0.06 0.265 0 0.08 0.265 0 0.1 0.265 0 0 0.27 0 0.02 0.27 0 0.04 0.27 0 0.06 0.27 0 0.08 0.27 0 0.1 0.27 0 0 0.275 0 0.02 0.275 0 0.04 0.275 0 0.06 0.275 0 0.08 0.275 0 0.1 0.275 0 0 0.28 0 0.02 0.28 0 0.04 0.28 0 0.06 0.28 0 0.08 0.28 0 0.1 0.28 0 0 0.285 0 0.02 0.285 0 0.04 0.285 0 0.06 0.285 0 0.08 0.285 0 0.1 0.285 0 0 0.290001 0 0.02 0.290001 0 0.04 0.290001 0 0.06 0.290001 0 0.08 0.290001 0 0.1 0.290001 0 0 0.295004 0 0.02 0.295004 0 0.04 0.295004 0 0.06 0.295004 0 0.08 0.295004 0 0.1 0.295004 0 0 0.30001 0 0.02 0.30001 0 0.04 0.30001 0 0.06 0.30001 0 0.08 0.30001 0 0.1 0.30001 0 0 0.305027 0 0.02 0.305027 0 0.04 0.305027 0 0.06 0.305027 0 0.08 0.305027 0 0.1 0.305027 0 0 0.310064 0 0.02 0.310064 0 0.04 0.310064 0 0.06 0.310064 0 0.08 0.310064 0 0.1 0.310064 0 0 0.315137 0 0.02 0.315137 0 0.04 0.315137 0 0.06 0.315137 0 0.08 0.315137 0 0.1 0.315137 0 0 0.320266 0 0.02 0.320266 0 0.04 0.320266 0 0.06 0.320266 0 0.08 0.320266 0 0.1 0.320266 0 0 0.325471 0 0.02 0.325471 0 0.04 0.325471 0 0.06 0.325471 0 0.08 0.325471 0 0.1 0.325471 0 0 0.330772 0 0.02 0.330772 0 0.04 0.330772 0 0.06 0.330772 0 0.08 0.330772 0 0.1 0.330772 0 0 0.336184 0 0.02 0.336184 0 0.04 0.336184 0 0.06 0.336184 0 0.08 0.336184 0 0.1 0.336184 0 0 0.34172 0 0.02 0.34172 0 0.04 0.34172 0 0.06 0.34172 0 0.08 0.34172 0 0.1 0.34172 0 0 0.34739 0 0.02 0.34739 0 0.04 0.34739 0 0.06 0.34739 0 0.08 0.34739 0 0.1 0.34739 0 0 0.353207 0 0.02 0.353207 0 0.04 0.353207 0 0.06 0.353207 0 0.08 0.353207 0 0.1 0.353207 0 0 0.359178 0 0.02 0.359178 0 0.04 0.359178 0 0.06 0.359178 0 0.08 0.359178 0 0.1 0.359178 0 0 0.365317 0 0.02 0.365317 0 0.04 0.365317 0 0.06 0.365317 0 0.08 0.365317 0 0.1 0.365317 0 0 0.371634 0 0.02 0.371634 0 0.04 0.371634 0 0.06 0.371634 0 0.08 0.371634 0 0.1 0.371634 0 0 0.378142 0 0.02 0.378142 0 0.04 0.378142 0 0.06 0.378142 0 0.08 0.378142 0 0.1 0.378142 0 0 0.384855 0 0.02 0.384855 0 0.04 0.384855 0 0.06 0.384855 0 0.08 0.384855 0 0.1 0.384855 0 0 0.391788 0 0.02 0.391788 0 0.04 0.391788 0 0.06 0.391788 0 0.08 0.391788 0 0.1 0.391788 0 0 0.398957 0 0.02 0.398957 0 0.04 0.398957 0 0.06 0.398957 0 0.08 0.398957 0 0.1 0.398957 0 0 0.406382 0 0.02 0.406382 0 0.04 0.406382 0 0.06 0.406382 0 0.08 0.406382 0 0.1 0.406382 0 0 0.414084 0 0.02 0.414084 0 0.04 0.414084 0 0.06 0.414084 0 0.08 0.414084 0 0.1 0.414084 0 0 0.422085 0 0.02 0.422085 0 0.04 0.422085 0 0.06 0.422085 0 0.08 0.422085 0 0.1 0.422085 0 0 0.430412 0 0.02 0.430412 0 0.04 0.430412 0 0.06 0.430412 0 0.08 0.430412 0 0.1 0.430412 0 0 0.439095 0 0.02 0.439095 0 0.04 0.439095 0 0.06 0.439095 0 0.08 0.439095 0 0.1 0.439095 0 0 0.448168 0 0.02 0.448168 0 0.04 0.448168 0 0.06 0.448168 0 0.08 0.448168 0 0.1 0.448168 0 0 0.457667 0 0.02 0.457667 0 0.04 0.457667 0 0.06 0.457667 0 0.08 0.457667 0 0.1 0.457667 0 0 0.467633 0 0.02 0.467633 0 0.04 0.467633 0 0.06 0.467633 0 0.08 0.467633 0 0.1 0.467633 0 0 0.478108 0 0.02 0.478108 0 0.04 0.478108 0 0.06 0.478108 0 0.08 0.478108 0 0.1 0.478108 0 0 0.489128 0 0.02 0.489128 0 0.04 0.489128 0 0.06 0.489128 0 0.08 0.489128 0 0.1 0.489128 0 0 0.500699 0 0.02 0.500699 0 0.04 0.500699 0 0.06 0.500699 0 0.08 0.500699 0 0.1 0.500699 0 0 0.512729 0 0.02 0.512729 0 0.04 0.512729 0 0.06 0.512729 0 0.08 0.512729 0 0.1 0.512729 0 0 0.524892 0 0.02 0.524892 0 0.04 0.524892 0 0.06 0.524892 0 0.08 0.524892 0 0.1 0.524892 0 0 0.536948 0 0.02 0.536948 0 0.04 0.536948 0 0.06 0.536948 0 0.08 0.536948 0 0.1 0.536948 0 0 0.548892 0 0.02 0.548892 0 0.04 0.548892 0 0.06 0.548892 0 0.08 0.548892 0 0.1 0.548892 0 0 0.560738 0 0.02 0.560738 0 0.04 0.560738 0 0.06 0.560738 0 0.08 0.560738 0 0.1 0.560738 0 0 0.572521 0 0.02 0.572521 0 0.04 0.572521 0 0.06 0.572521 0 0.08 0.572521 0 0.1 0.572521 0 0 0.584271 0 0.02 0.584271 0 0.04 0.584271 0 0.06 0.584271 0 0.08 0.584271 0 0.1 0.584271 0 0 0.596007 0 0.02 0.596007 0 0.04 0.596007 0 0.06 0.596007 0 0.08 0.596007 0 0.1 0.596007 0 0 0.607738 0 0.02 0.607738 0 0.04 0.607738 0 0.06 0.607738 0 0.08 0.607738 0 0.1 0.607738 0 0 0.619466 0 0.02 0.619466 0 0.04 0.619466 0 0.06 0.619466 0 0.08 0.619466 0 0.1 0.619466 0 0 0.631195 0 0.02 0.631195 0 0.04 0.631195 0 0.06 0.631195 0 0.08 0.631195 0 0.1 0.631195 0 0 0.642938 0 0.02 0.642938 0 0.04 0.642938 0 0.06 0.642938 0 0.08 0.642938 0 0.1 0.642938 0 0 0.645546 0 0.02 0.645546 0 0.04 0.645546 0 0.06 0.645546 0 0.08 0.645546 0 0.1 0.645546 0 0 0.64808 0 0.02 0.64808 0 0.04 0.64808 0 0.06 0.64808 0 0.08 0.64808 0 0.1 0.64808 0 0 0.650569 0 0.02 0.650569 0 0.04 0.650569 0 0.06 0.650569 0 0.08 0.650569 0 0.1 0.650569 0 0 0.653028 0 0.02 0.653028 0 0.04 0.653028 0 0.06 0.653028 0 0.08 0.653028 0 0.1 0.653028 0 0 0.655465 0 0.02 0.655465 0 0.04 0.655465 0 0.06 0.655465 0 0.08 0.655465 0 0.1 0.655465 0 0 0.657886 0 0.02 0.657886 0 0.04 0.657886 0 0.06 0.657886 0 0.08 0.657886 0 0.1 0.657886 0 0 0.660296 0 0.02 0.660296 0 0.04 0.660296 0 0.06 0.660296 0 0.08 0.660296 0 0.1 0.660296 0 0 0.662699 0 0.02 0.662699 0 0.04 0.662699 0 0.06 0.662699 0 0.08 0.662699 0 0.1 0.662699 0 0 0.6651 0 0.02 0.6651 0 0.04 0.6651 0 0.06 0.6651 0 0.08 0.6651 0 0.1 0.6651 0 0 0.667502 0 0.02 0.667502 0 0.04 0.667502 0 0.06 0.667502 0 0.08 0.667502 0 0.1 0.667502 0 0 0.669907 0 0.02 0.669907 0 0.04 0.669907 0 0.06 0.669907 0 0.08 0.669907 0 0.1 0.669907 0 0 0.672313 0 0.02 0.672313 0 0.04 0.672313 0 0.06 0.672313 0 0.08 0.672313 0 0.1 0.672313 0 0 0.674716 0 0.02 0.674716 0 0.04 0.674716 0 0.06 0.674716 0 0.08 0.674716 0 0.1 0.674716 0 0 0.677114 0 0.02 0.677114 0 0.04 0.677114 0 0.06 0.677114 0 0.08 0.677114 0 0.1 0.677114 0 0 0.679504 0 0.02 0.679504 0 0.04 0.679504 0 0.06 0.679504 0 0.08 0.679504 0 0.1 0.679504 0 0 0.68189 0 0.02 0.68189 0 0.04 0.68189 0 0.06 0.68189 0 0.08 0.68189 0 0.1 0.68189 0 0 0.684271 0 0.02 0.684271 0 0.04 0.684271 0 0.06 0.684271 0 0.08 0.684271 0 0.1 0.684271 0 0 0.686649 0 0.02 0.686649 0 0.04 0.686649 0 0.06 0.686649 0 0.08 0.686649 0 0.1 0.686649 0 0 0.689025 0 0.02 0.689025 0 0.04 0.689025 0 0.06 0.689025 0 0.08 0.689025 0 0.1 0.689025 0 0 0.6914 0 0.02 0.6914 0 0.04 0.6914 0 0.06 0.6914 0 0.
[...]
			<PointData Scalars="VitesseX">
				<DataArray Name="VitesseX" type="Float32" format="ascii">
 0 -2.90914e-15 -4.62623e-15 -5.33868e-15 -3.60924e-15 0 0 -2.64025e-15 -4.59447e-15 -4.39962e-15 -4.20355e-15 0 0 -2.06979e-15 -3.96878e-15 -2.24078e-15 -5.90778e-15 0 0 -1.1501e-15 -2.85385e-15 3.0462e-16 -7.38434e-15 0 0 -5.08241e-16 -7.36786e-16 2.20968e-15 -7.38258e-15 0 0 -5.67279e-16 2.21525e-15 3.42446e-15 -5.27776e-15 0 0 1.88301e-16 4.82078e-15 4.9304e-15 -3.43887e-15 0 0 3.4761e-15 4.1242e-15 6.83668e-15 6.23224e-16 0 0 6.45465e-15 3.95109e-15 8.66222e-15 3.74376e-15 0 0 8.46866e-15 4.25113e-15 1.08934e-14 4.01478e-15 0 0 7.38636e-15 6.71351e-15 8.30603e-15 7.41885e-15 0 0 6.83157e-15 9.03988e-15 2.38384e-15 1.06913e-14 0 0 1.04857e-14 6.67704e-15 1.70965e-15 1.02658e-14 0 0 1.14049e-14 7.07687e-15 1.83999e-15 7.89457e-15 0 0 7.77184e-15 1.22579e-14 -5.18694e-16 3.37577e-15 0 0 5.56325e-15 1.25996e-14 1.45253e-15 3.6601e-16 0 0 7.13901e-15 9.32191e-15 1.80423e-15 1.07081e-15 0 0 7.30113e-15 8.7785e-15 1.47292e-15 2.07448e-15 0 0 7.10938e-15 5.06124e-15 1.49168e-15 7.95537e-15 0 0 8.44129e-15 -7.32154e-16 1.25128e-15 1.04899e-14 0 0 6.27899e-15 1.71457e-15 2.7047e-15 5.21204e-15 0 0 1.07688e-15 6.87327e-15 9.08153e-16 3.48183e-15 0 0 -1.11272e-15 5.56614e-15 7.58508e-15 2.55528e-15 0 0 7.67039e-16 2.31857e-15 1.8138e-14 -7.77578e-16 0 0 2.25862e-15 2.88041e-15 1.95471e-14 -1.40358e-15 0 0 -1.18089e-15 9.28783e-15 1.38414e-14 2.27277e-15 0 0 -3.33082e-15 1.20463e-14 6.59357e-15 1.04888e-14 0 0 -3.455e-16 8.41001e-15 6.41672e-15 1.48914e-14 0 0 6.80107e-16 8.24924e-15 2.66828e-15 1.63338e-14 0 0 1.54758e-15 1.25522e-14 -3.86981e-15 1.4759e-14 0 0 6.20208e-15 9.34391e-15 5.0583e-15 6.514e-15 0 0 6.71173e-15 8.39555e-15 7.54939e-15 7.18747e-15 0 0 5.73831e-15 8.21454e-15 4.41621e-15 1.4381e-14 0 0 1.08874e-14 -2.49888e-17 9.7937e-15 1.73178e-14 0 0 8.84507e-15 5.82755e-15 7.5045e-15 2.00471e-14 0 0 4.35946e-15 1.05661e-14 1.22499e-14 2.04695e-14 0 0 9.48107e-15 3.63522e-15 2.02701e-14 2.38288e-14 0 0 1.30561e-14 1.47457e-15 2.11839e-14 2.28012e-14 0 0 1.00114e-14 5.56926e-15 1.51161e-14 2.81833e-14 0 0 1.29013e-14 6.71367e-15 1.13702e-14 2.31931e-14 0 0 1.16775e-14 1.27858e-14 1.57739e-14 7.80036e-15 0 0 -2.74273e-15 3.15913e-14 7.52525e-15 1.65966e-14 0 0 -1.18877e-15 2.78587e-14 1.01424e-14 2.24873e-14 0 0 7.46626e-15 1.22494e-14 2.71038e-14 1.35462e-14 0 0 1.581e-14 7.23116e-15 3.38369e-14 1.32251e-14 0 0 2.05247e-14 2.03331e-14 3.12999e-14 1.70852e-14 0 0 1.91979e-14 3.86609e-14 3.92775e-14 1.6089e-14 0 0 2.01791e-14 5.81587e-14 5.29552e-14 2.69625e-14 0 0 3.35099e-14 6.99691e-14 5.72492e-14 3.43012e-14 0 0 5.22867e-14 6.93083e-14 6.5156e-14 3.11868e-14 0 0 4.31777e-14 7.8583e-14 7.15824e-14 2.82695e-14 0 0 3.87964e-14 8.6115e-14 6.90174e-14 2.65473e-14 0 0 6.18678e-14 7.79836e-14 6.08202e-14 4.28912e-14 0 0 5.24478e-14 7.37959e-14 6.04528e-14 5.76221e-14 0 0 2.94242e-14 7.90706e-14 5.04684e-14 7.28832e-14 0 0 1.7769e-14 8.3567e-14 4.16193e-14 7.06476e-14 0 0 1.50391e-14 6.27658e-14 5.26418e-14 5.18304e-14 0 0 1.98561e-14 3.48732e-14 6.30953e-14 4.86417e-14 0 0 9.41572e-15 2.99155e-14 6.44565e-14 4.28337e-14 0 0 -1.7862e-14 4.74363e-14 4.24504e-14 2.88716e-14 0 0 -1.32681e-14 4.76394e-14 4.58787e-14 1.68257e-16 0 0 1.07605e-14 1.7754e-14 5.62193e-14 -1.02461e-14 0 0 1.08097e-14 6.17209e-15 2.86325e-14 5.96545e-15 0 0 2.11724e-14 1.95969e-14 1.38981e-14 -9.13941e-15 0 0 2.883e-14 2.43833e-14 6.4965e-15 -1.57765e-14 0 0 2.89868e-14 2.14005e-14 -2.92362e-15 -1.98645e-14 0 0 3.66812e-14 2.72966e-14 -1.36295e-14 -3.10902e-14 0 0 1.97108e-14 2.53839e-14 -9.16244e-15 -2.18172e-14 0 0 1.87967e-14 1.32415e-14 -5.52661e-17 -2.36156e-14 0 0 3.14825e-14 1.01587e-14 -1.36053e-14 -1.62078e-14 0 0 2.7775e-14 1.78214e-14 -1.81279e-14 4.81522e-15 0 0 3.06315e-14 5.96703e-15 -3.26623e-15 5.28546e-15 0 0 3.34759e-14 -2.60523e-15 1.43285e-14 -1.56127e-14 0 0 2.99102e-14 7.7864e-15 4.9513e-15 -8.63787e-15 0 0 1.32268e-14 -1.23742e-15 8.21808e-15 -5.35692e-15 0 0 1.43884e-14 -2.03373e-14 1.65283e-14 -2.10505e-14 0 0 2.59707e-14 -2.86481e-15 1.08328e-14 -3.40136e-14 0 0 1.47641e-14 3.06934e-14 1.30654e-14 -5.31047e-14 0 0 2.333e-14 1.19446e-14 8.84283e-15 -6.18488e-14 0 0 8.36508e-15 5.09953e-15 -8.20036e-15 -3.19802e-14 0 0 -1.32355e-14 2.49359e-14 -2.14266e-14 2.99909e-15 0 0 -6.08266e-15 1.65809e-14 -2.18136e-14 1.28159e-14 0 0 -1.25298e-14 7.6286e-15 8.51305e-16 -6.43247e-15 0 0 -3.68622e-15 1.7798e-14 1.91823e-14 -3.30524e-14 0 0 1.01672e-14 2.39241e-14 1.22874e-14 -2.09671e-14 0 0 2.23044e-16 1.06416e-14 6.1162e-15 -2.28292e-14 0 0 -2.42805e-14 -9.69679e-15 3.48265e-15 -1.59048e-14 0 0 -1.9106e-14 -6.96802e-15 -6.05621e-15 7.7841e-15 0 0 4.63392e-15 6.99761e-15 -1.00395e-14 1.50895e-14 0 0 2.3823e-15 -2.18884e-15 4.47213e-15 1.27259e-14 0 0 -5.90669e-15 -6.04802e-15 2.81828e-15 7.18255e-15 0 0 1.43857e-15 1.4612e-15 -3.78906e-15 1.54809e-14 0 0 1.79494e-14 1.23557e-14 1.70516e-14 1.08717e-14 0 0 2.7921e-14 2.60654e-14 4.70877e-14 1.84799e-14 0 0 3.42668e-14 5.37693e-14 6.39946e-14 3.97776e-14 0 0 4.55141e-14 7.43623e-14 6.50419e-14 5.61262e-14 0 0 4.88999e-14 7.86131e-14 6.82712e-14 5.12044e-14 0 0 4.42091e-14 5.94329e-14 8.01026e-14 3.82628e-14 0 0 3.76735e-14 4.99252e-14 6.70002e-14 3.90522e-14 0 0 3.94175e-14 6.69007e-14 5.1335e-14 3.67631e-14 0 0 5.24595e-14 7.07538e-14 9.09438e-14 4.51681e-14 0 0 8.65687e-14 1.14327e-13 1.5345e-13 4.97828e-14 0 0 8.47515e-14 1.14943e-13 1.31573e-13 4.35396e-14 0 0 8.01349e-14 8.28724e-14 2.00379e-13 1.80357e-14 0 0 9.25775e-14 1.05922e-13 1.74719e-13 3.17686e-14 0 0 1.03278e-13 1.23382e-13 1.33525e-13 3.64801e-14 0 0 8.75275e-14 1.20186e-13 1.67735e-13 6.88205e-14 0 0 8.21044e-14 1.19345e-13 1.50124e-13 5.43838e-14 0 0 3.51118e-14 1.0221e-13 7.20199e-14 5.72823e-14 0 0 -4.08392e-15 -3.20646e-15 9.26063e-15 3.94347e-14 0 0 -4.06061e-14 -1.1255e-13 -6.78873e-14 -7.43438e-14 0 0 -1.01432e-13 -2.01638e-13 -1.65322e-13 -9.78082e-14 0 0 -1.30915e-13 -2.63351e-13 -2.15564e-13 -1.46796e-13 0 0 -1.39581e-13 -2.57839e-13 -2.23109e-13 -1.68307e-13 0 0 -1.33292e-13 -2.6632e-13 -1.99631e-13 -1.54261e-13 0 0 -9.17472e-14 -2.99263e-13 -1.37875e-13 -1.33048e-13 0 0 -7.87937e-14 -2.72526e-13 -1.02923e-13 -8.38788e-14 0 0 -8.53546e-14 -1.89542e-13 -1.37953e-13 -2.06538e-14 0 0 -8.83293e-14 -1.45154e-13 -1.34145e-13 -2.76079e-14 0 0 -8.79796e-14 -1.30374e-13 -8.92794e-14 -5.43364e-14 0 0 -6.83822e-14 -9.61043e-14 -9.52013e-14 2.30515e-14 0 0 -6.20327e-14 -8.77501e-14 -2.85369e-14 -1.32157e-14 0 0 -6.76774e-14 -6.18244e-14 7.56026e-15 -3.74399e-14 0 0 -6.25427e-14 -2.67933e-14 2.73959e-15 5.25771e-14 0 0 -4.19192e-14 -4.23328e-14 2.37282e-14 4.08217e-14 0 0 -2.58076e-14 -5.31728e-14 6.35598e-14 -4.05113e-15 0 0 -2.31288e-14 -3.36993e-14 8.91832e-14 1.26486e-14 0 0 -3.06069e-14 -6.82867e-15 7.69128e-14 1.50109e-15 0 0 -4.36732e-14 2.03537e-14 8.70975e-14 1.87917e-14 0 0 -3.89194e-14 3.31872e-14 7.42247e-14 5.15365e-14 0 0 -2.34465e-14 4.90649e-14 5.45201e-14 3.72582e-14 0 0 9.82358e-16 5.69952e-14 5.1773e-14 8.36279e-14 0 0 1.35905e-14 7.11737e-14 2.14007e-14 1.2613e-13 0 0 5.61352e-15 9.89644e-14 4.3042e-14 1.6696e-13 0 0 3.42053e-14 1.12414e-13 6.23997e-14 2.09858e-13 0 0 8.39904e-14 1.06807e-13 4.71331e-14 2.58569e-13 0 0 1.27e-13 7.37371e-14 6.89084e-14 2.98691e-13 0 0 9.81966e-14 1.20757e-13 2.09092e-14 3.19791e-13 0 0 -2.32524e-14 3.16551e-13 -1.32277e-13 3.43121e-13 0 0 -5.90798e-14 3.67258e-13 -1.27264e-13 3.02023e-13 0 0 5.10744e-15 2.60884e-13 -3.34256e-15 2.92778e-13 0 0 1.13743e-13 1.0189e-13 1.72271e-13 1.71549e-13 0 0 1.66539e-13 4.32188e-14 2.70957e-13 5.54105e-14 0 0 1.22312e-13 1.4288e-13 2.07092e-13 1.04695e-13 0 0 5.35052e-14 2.75162e-13 9.59681e-14 1.91034e-13 0 0 4.75598e-14 2.86294e-13 1.00247e-13 2.3618e-13 0 0 1.0012e-13 2.13729e-13 1.53485e-13 2.89895e-13 0 0 8.77285e-14 2.51018e-13 1.41564e-13 2.64168e-13 0 0 1.0627e-13 2.53305e-13 1.17199e-13 2.23351e-13 0 0 1.53697e-13 2.32851e-13 6.83107e-14 2.64503e-13 0 0 1.26763e-13 2.43258e-13 1.36047e-13 1.98211e-13 0 0 9.92647e-14 1.84423e-13 2.53302e-13 1.42961e-13 0 0 1.29767e-13 2.0904e-13 1.9152e-13 9.82685e-14 0 0 1.33361e-13 2.52636e-13 1.45055e-13 1.49668e-13 0 0 1.29327e-13 2.25983e-13 1.60443e-13 1.62605e-13 0 0 1.17606e-13 2.25488e-13 1.29939e-13 8.50236e-14 0 0 1.04503e-13 2.1683e-13 1.42711e-13 8.55919e-14 0 0 1.3017e-13 1.69511e-13 1.72744e-13 6.43745e-14 0 0 1.31715e-13 1.53629e-13 1.94119e-13 2.61484e-14 0 0 1.28208e-13 1.6379e-13 1.959e-13 3.89891e-14 0 0 1.20186e-13 2.03493e-13 1.84252e-13 9.01341e-14 0 0 1.10629e-13 2.41347e-13 1.50933e-13 1.1674e-13 0 0 1.16141e-13 2.49068e-13 1.66743e-13 1.10733e-13 0 0 1.13725e-13 2.5697e-13 1.93778e-13 1.16478e-13 0 0 1.17618e-13 2.6323e-13 2.06606e-13 1.32354e-13 0 0 1.28983e-13 2.72346e-13 1.99047e-13 1.40551e-13 0 0 1.281e-13 2.59308e-13 2.49035e-13 9.18369e-14 0 0 1.31082e-13 2.63538e-13 2.51368e-13 8.79106e-14 0 0 1.42195e-13 2.63479e-13 2.11822e-13 1.83121e-13 0 0 1.46974e-13 2.54186e-13 2.28602e-13 1.82177e-13 0 0 1.5379e-13 2.55287e-13 2.50462e-13 1.21457e-13 0 0 1.52638e-13 2.45755e-13 2.64219e-13 1.16551e-13 0 0 1.38429e-13 2.49476e-13 2.524e-13 1.05385e-13 0 0 1.26853e-13 2.62534e-13 2.29637e-13 1.04005e-13 0 0 1.3634e-13 2.47149e-13 2.0457e-13 1.56863e-13 0 0 1.42263e-13 2.11812e-13 2.13081e-13 1.24594e-13 0 0 1.45715e-13 1.5805e-13 2.13824e-13 1.00968e-13 0 0 1.54481e-13 1.28858e-13 1.90023e-13 1.01298e-13 0 0 1.41257e-13 1.46316e-13 1.45226e-13 1.0387e-13 0 0 1.23336e-13 1.27164e-13 1.42995e-13 9.19381e-14 0 0 9.66509e-14 1.2049e-13 1.19544e-13 8.27198e-14 0 0 7.23801e-14 1.32474e-13 1.21474e-13 1.38439e-14 0 0 8.15723e-14 9.15025e-14 2.06436e-13 -1.05676e-13 0 0 6.96292e-14 1.02705e-13 1.38775e-13 -3.14026e-14 0 0 5.30314e-14 9.88434e-14 8.58903e-14 3.40268e-14 0 0 4.6605e-14 5.69318e-14 9.45359e-14 3.84665e-14 0 0 2.59929e-15 9.54261e-14 4.59433e-14 9.08045e-14 0 0 1.11099e-14 8.54113e-14 8.53962e-14 6.92023e-14 0 0 4.66055e-14 6.64082e-14 9.6589e-14 4.1381e-14 0 0 2.28455e-14 1.28217e-13 3.31731e-14 6.977e-14 0 0 3.23266e-14 1.30559e-13 2.27326e-15 9.98171e-14 0 0 5.80465e-15 1.48171e-13 -2.41576e-14 1.18535e-13 0 0 -3.26957e-16 1.5823e-13 -1.73669e-14 9.49072e-14 0 0 2.39798e-14 1.34576e-13 1.00699e-16 7.61384e-14 0 0 3.58382e-14 1.03954e-13 3.9674e-14 9.92793e-14 0 0 4.93652e-14 9.04952e-14 5.10086e-14 9.79738e-14 0 0 3.21725e-14 1.29836e-13 -6.02161e-16 1.10297e-13 0 0 3.71814e-14 1.16335e-13 -7.10977e-15 1.27158e-13 0 0 4.7152e-14 6.03713e-14 8.89486e-14 3.81279e-14 0 0 3.42899e-14 6.5282e-14 1.23171e-13 -5.34172e-15 0 0 1.36337e-14 1.05555e-13 7.23506e-14 3.1095e-14 0
				</DataArray>
				<DataArray Name="VitesseY" type="Float32" format="ascii">