<?xml version="1.0"?>
<VTKFile type="PolyData">
	<PolyData>
		<Piece NumberOfPoints="1206" NumberOfPolys="1000">
			<Points>
				<DataArray type="Float32" NumberOfComponents="3" format="ascii">
 0 0 0 0.02 0 0 0.04 0 0 0.06 0 0 0.08 0 0 0.1 0 0 0 0.005 0 0.02 0.005 0 0.04 0.005 0 0.06 0.005 0 0.08 0.005 0 0.1 0.005 0 0 0.01 0 0.02 0.01 0 0.04 0.01 0 0.06 0.01 0 0.08 0.01 0 0.1 0.01 0 0 0.015 0 0.02 0.015 0 0.04 0.015 0 0.06 0.015 0 0.08 0.015 0 0.1 0.015 0 0 0.02 0 0.02 0.02 0 0.04 0.02 0 0.06 0.02 0 0.08 0.02 0 0.1 0.02 0 0 0.025 0 0.02 0.025 0 0.04 0.025 0 0.06 0.025 0 0.08 0.025 0 0.1 0.025 0 0 0.03 0 0.02 0.03 0 0.04 0.03 0 0.06 0.03 0 0.08 0.03 0 0.1 0.03 0 0 0.035 0 0.02 0.035 0 0.04 0.035 0 0.06 0.035 0 0.08 0.035 0 0.1 0.035 0 0 0.04 0 0.02 0.04 0 0.04 0.04 0 0.06 0.04 0 0.08 0.04 0 0.1 0.04 0 0 0.045 0 0.02 0.045 0 0.04 0.045 0 0.06 0.045 0 0.08 0.045 0 0.1 0.045 0 0 0.05 0 0.02 0.05 0 0.04 0.05 0 0.06 0.05 0 0.08 0.05 0 0.1 0.05 0 0 0.055 0 0.02 0.055 0 0.04 0.055 0 0.06 0.055 0 0.08 0.055 0 0.1 0.055 0 0 0.06 0 0.02 0.06 0 0.04 0.06 0 0.06 0.06 0 0.08 0.06 0 0.1 0.06 0 0 0.065 0 0.02 0.065 0 0.04 0.065 0 0.06 0.065 0 0.08 0.065 0 0.1 0.065 0 0 0.07 0 0.02 0.07 0 0.04 0.07 0 0.06 0.07 0 0.08 0.07 0 0.1 0.07 0 0 0.075 0 0.02 0.075 0 0.04 0.075 0 0.06 0.075 0 0.08 0.075 0 0.1 0.075 0 0 0.08 0 0.02 0.08 0 0.04 0.08 0 0.06 0.08 0 0.08 0.08 0 0.1 0.08 0 0 0.085 0 0.02 0.085 0 0.04 0.085 0 0.06 0.085 0 0.08 0.085 0 0.1 0.085 0 0 0.09 0 0.02 0.09 0 0.04 0.09 0 0.06 0.09 0 0.08 0.09 0 0.1 0.09 0 0 0.095 0 0.02 0.095 0 0.04 0.095 0 0.06 0.095 0 0.08 0.095 0 0.1 0.095 0 0 0.1 0 0.02 0.1 0 0.04 0.1 0 0.06 0.1 0 0.08 0.1 0 0.1 0.1 0 0 0.105 0 0.02 0.105 0 0.04 0.105 0 0.06 0.105 0 0.08 0.105 0 0.1 0.105 0 0 0.11 0 0.02 0.11 0 0.04 0.11 0 0.06 0.11 0 0.08 0.11 0 0.1 0.11 0 0 0.115 0 0.02 0.115 0 0.04 0.115 0 0.06 0.115 0 0.08 0.115 0 0.1 0.115 0 0 0.12 0 0.02 0.12 0 0.04 0.12 0 0.06 0.12 0 0.08 0.12 0 0.1 0.12 0 0 0.125 0 0.02 0.125 0 0.04 0.125 0 0.06 0.125 0 0.08 0.125 0 0.1 0.125 0 0 0.13 0 0.02 0.13 0 0.04 0.13 0 0.06 0.13 0 0.08 0.13 0 0.1 0.13 0 0 0.135 0 0.02 0.135 0 0.04 0.135 0 0.06 0.135 0 0.08 0.135 0 0.1 0.135 0 0 0.14 0 0.02 0.14 0 0.04 0.14 0 0.06 0.14 0 0.08 0.14 0 0.1 0.14 0 0 0.145 0 0.02 0.145 0 0.04 0.145 0 0.06 0.145 0 0.08 0.145 0 0.1 0.145 0 0 0.15 0 0.02 0.15 0 0.04 0.15 0 0.06 0.15 0 0.08 0.15 0 0.1 0.15 0 0 0.155 0 0.02 0.155 0 0.04 0.155 0 0.06 0.155 0 0.08 0.155 0 0.1 0.155 0 0 0.16 0 0.02 0.16 0 0.04 0.16 0 0.06 0.16 0 0.08 0.16 0 0.1 0.16 0 0 0.165 0 0.02 0.165 0 0.04 0.165 0 0.06 0.165 0 0.08 0.165 0 0.1 0.165 0 0 0.17 0 0.02 0.17 0 0.04 0.17 0 0.06 0.17 0 0.08 0.17 0 0.1 0.17 0 0 0.175 0 0.02 0.175 0 0.04 0.175 0 0.06 0.175 0 0.08 0.175 0 0.1 0.175 0 0 0.18 0 0.02 0.18 0 0.04 0.18 0 0.06 0.18 0 0.08 0.18 0 0.1 0.18 0 0 0.185 0 0.02 0.185 0 0.04 0.185 0 0.06 0.185 0 0.08 0.185 0 0.1 0.185 0 0 0.19 0 0.02 0.19 0 0.04 0.19 0 0.06 0.19 0 0.08 0.19 0 0.1 0.19 0 0 0.195 0 0.02 0.195 0 0.04 0.195 0 0.06 0.195 0 0.08 0.195 0 0.1 0.195 0 0 0.2 0 0.02 0.2 0 0.04 0.2 0 0.06 0.2 0 0.08 0.2 0 0.1 0.2 0 0 0.205 0 0.02 0.205 0 0.04 0.205 0 0.06 0.205 0 0.08 0.205 0 0.1 0.205 0 0 0.21 0 0.02 0.21 0 0.04 0.21 0 0.06 0.21 0 0.08 0.21 0 0.1 0.21 0 0 0.215 0 0.02 0.215 0 0.04 0.215 0 0.06 0.215 0 0.08 0.215 0 0.1 0.215 0 0 0.22 0 0.02 0.22 0 0.04 0.22 0 0.06 0.22 0 0.08 0.22 0 0.1 0.22 0 0 0.225 0 0.02 0.225 0 0.04 0.225 0 0.06 0.225 0 0.08 0.225 0 0.1 0.225 0 0 0.23 0 0.02 0.23 0 0.04 0.23 0 0.06 0.23 0 0.08 0.23 0 0.1 0.23 0 0 0.235 0 0.02 0.235 0 0.04 0.235 0 0.06 0.235 0 0.08 0.235 0 0.1 0.235 0 0 0.24 0 0.02 0.24 0 0.04 0.24 0 0.06 0.24 0 0.08 0.24 0 0.1 0.24 0 0 0.245 0 0.02 0.245 0 0.04 0.245 0 0.06 0.245 0 0.08 0.245 0 0.1 0.245 0 0 0.25 0 0.02 0.25 0 0.04 0.25 0 0.06 0.25 0 0.08 0.25 0 0.1 0.25 0 0 0.255 0 0.02 0.255 0 0.04 0.255 0 0.06 0.255 0 0.08 0.255 0 0.1 0.255 0 0 0.26 0 0.02 0.26 0 0.04 0.26 0 0.06 0.26 0 0.08 0.26 0 0.1 0.26 0 0 0.265 0 0.02 0.265 0 0.04 0.265 0 0.06 0.265 0 0.08 0.265 0 0.1 0.265 0 0 0.27 0 0.02 0.27 0 0.04 0.27 0 0.06 0.27 0 0.08 0.27 0 0.1 0.27 0 0 0.275 0 0.02 0.275 0 0.04 0.275 0 0.06 0.275 0 0.08 0.275 0 0.1 0.275 0 0 0.28 0 0.02 0.28 0 0.04 0.28 0 0.06 0.28 0 0.08 0.28 0 0.1 0.28 0 0 0.285 0 0.02 0.285 0 0.04 0.285 0 0.06 0.285 0 0.08 0.285 0 0.1 0.285 0 0 0.29 0 0.02 0.29 0 0.04 0.29 0 0.06 0.29 0 0.08 0.29 0 0.1 0.29 0 0 0.295 0 0.02 0.295 0 0.04 0.295 0 0.06 0.295 0 0.08 0.295 0 0.1 0.295 0 0 0.3 0 0.02 0.3 0 0.04 0.3 0 0.06 0.3 0 0.08 0.3 0 0.1 0.3 0 0 0.305 0 0.02 0.305 0 0.04 0.305 0 0.06 0.305 0 0.08 0.305 0 0.1 0.305 0 0 0.31 0 0.02 0.31 0 0.04 0.31 0 0.06 0.31 0 0.08 0.31 0 0.1 0.31 0 0 0.315 0 0.02 0.315 0 0.04 0.315 0 0.06 0.315 0 0.08 0.315 0 0.1 0.315 0 0 0.32 0 0.02 0.32 0 0.04 0.32 0 0.06 0.32 0 0.08 0.32 0 0.1 0.32 0 0 0.325 0 0.02 0.325 0 0.04 0.325 0 0.06 0.325 0 0.08 0.325 0 0.1 0.325 0 0 0.33 0 0.02 0.33 0 0.04 0.33 0 0.06 0.33 0 0.08 0.33 0 0.1 0.33 0 0 0.335 0 0.02 0.335 0 0.04 0.335 0 0.06 0.335 0 0.08 0.335 0 0.1 0.335 0 0 0.34 0 0.02 0.34 0 0.04 0.34 0 0.06 0.34 0 0.08 0.34 0 0.1 0.34 0 0 0.345 0 0.02 0.345 0 0.04 0.345 0 0.06 0.345 0 0.08 0.345 0 0.1 0.345 0 0 0.35 0 0.02 0.35 0 0.04 0.35 0 0.06 0.35 0 0.08 0.35 0 0.1 0.35 0 0 0.355 0 0.02 0.355 0 0.04 0.355 0 0.06 0.355 0 0.08 0.355 0 0.1 0.355 0 0 0.36 0 0.02 0.36 0 0.04 0.36 0 0.06 0.36 0 0.08 0.36 0 0.1 0.36 0 0 0.365 0 0.02 0.365 0 0.04 0.365 0 0.06 0.365 0 0.08 0.365 0 0.1 0.365 0 0 0.37 0 0.02 0.37 0 0.04 0.37 0 0.06 0.37 0 0.08 0.37 0 0.1 0.37 0 0 0.375 0 0.02 0.375 0 0.04 0.375 0 0.06 0.375 0 0.08 0.375 0 0.1 0.375 0 0 0.38 0 0.02 0.38 0 0.04 0.38 0 0.06 0.38 0 0.08 0.38 0 0.1 0.38 0 0 0.385 0 0.02 0.385 0 0.04 0.385 0 0.06 0.385 0 0.08 0.385 0 0.1 0.385 0 0 0.39 0 0.02 0.39 0 0.04 0.39 0 0.06 0.39 0 0.08 0.39 0 0.1 0.39 0 0 0.395 0 0.02 0.395 0 0.04 0.395 0 0.06 0.395 0 0.08 0.395 0 0.1 0.395 0 0 0.4 0 0.02 0.4 0 0.04 0.4 0 0.06 0.4 0 0.08 0.4 0 0.1 0.4 0 0 0.405 0 0.02 0.405 0 0.04 0.405 0 0.06 0.405 0 0.08 0.405 0 0.1 0.405 0 0 0.41 0 0.02 0.41 0 0.04 0.41 0 0.06 0.41 0 0.08 0.41 0 0.1 0.41 0 0 0.415 0 0.02 0.415 0 0.04 0.415 0 0.06 0.415 0 0.08 0.415 0 0.1 0.415 0 0 0.42 0 0.02 0.42 0 0.04 0.42 0 0.06 0.42 0 0.08 0.42 0 0.1 0.42 0 0 0.425 0 0.02 0.425 0 0.04 0.425 0 0.06 0.425 0 0.08 0.425 0 0.1 0.425 0 0 0.43 0 0.02 0.43 0 0.04 0.43 0 0.06 0.43 0 0.08 0.43 0 0.1 0.43 0 0 0.435002 0 0.02 0.435002 0 0.04 0.435002 0 0.06 0.435002 0 0.08 0.435002 0 0.1 0.435002 0 0 0.44001 0 0.02 0.44001 0 0.04 0.44001 0 0.06 0.44001 0 0.08 0.44001 0 0.1 0.44001 0 0 0.445046 0 0.02 0.445046 0 0.04 0.445046 0 0.06 0.445046 0 0.08 0.445046 0 0.1 0.445046 0 0 0.450167 0 0.02 0.450167 0 0.04 0.450167 0 0.06 0.450167 0 0.08 0.450167 0 0.1 0.450167 0 0 0.455484 0 0.02 0.455484 0 0.04 0.455484 0 0.06 0.455484 0 0.08 0.455484 0 0.1 0.455484 0 0 0.461144 0 0.02 0.461144 0 0.04 0.461144 0 0.06 0.461144 0 0.08 0.461144 0 0.1 0.461144 0 0 0.467308 0 0.02 0.467308 0 0.04 0.467308 0 0.06 0.467308 0 0.08 0.467308 0 0.1 0.467308 0 0 0.474149 0 0.02 0.474149 0 0.04 0.474149 0 0.06 0.474149 0 0.08 0.474149 0 0.1 0.474149 0 0 0.481882 0 0.02 0.481882 0 0.04 0.481882 0 0.06 0.481882 0 0.08 0.481882 0 0.1 0.481882 0 0 0.490802 0 0.02 0.490802 0 0.04 0.490802 0 0.06 0.490802 0 0.08 0.490802 0 0.1 0.490802 0 0 0.501285 0 0.02 0.501285 0 0.04 0.501285 0 0.06 0.501285 0 0.08 0.501285 0 0.1 0.501285 0 0 0.513457 0 0.02 0.513457 0 0.04 0.513457 0 0.06 0.513457 0 0.08 0.513457 0 0.1 0.513457 0 0 0.525905 0 0.02 0.525905 0 0.04 0.525905 0 0.06 0.525905 0 0.08 0.525905 0 0.1 0.525905 0 0 0.537917 0 0.02 0.537917 0 0.04 0.537917 0 0.06 0.537917 0 0.08 0.537917 0 0.1 0.537917 0 0 0.540555 0 0.02 0.540555 0 0.04 0.540555 0 0.06 0.540555 0 0.08 0.540555 0 0.1 0.540555 0 0 0.543117 0 0.02 0.543117 0 0.04 0.543117 0 0.06 0.543117 0 0.08 0.543117 0 0.1 0.543117 0 0 0.545633 0 0.02 0.545633 0 0.04 0.545633 0 0.06 0.545633 0 0.08 0.545633 0 0.1 0.545633 0 0 0.548119 0 0.02 0.548119 0 0.04 0.548119 0 0.06 0.548119 0 0.08 0.548119 0 0.1 0.548119 0 0 0.550585 0 0.02 0.550585 0 0.04 0.550585 0 0.06 0.550585 0 0.08 0.550585 0 0.1 0.550585 0 0 0.553039 0 0.02 0.553039 0 0.04 0.553039 0 0.06 0.553039 0 0.08 0.553039 0 0.1 0.553039 0 0 0.555489 0 0.02 0.555489 0 0.04 0.555489 0 0.06 0.555489 0 0.08 0.555489 0 0.1 0.555489 0 0 0.557942 0 0.02 0.557942 0 0.04 0.557942 0 0.06 0.557942 0 0.08 0.557942 0 0.1 0.557942 0 0 0.560418 0 0.02 0.560418 0 0.04 0.560418 0 0.06 0.560418 0 0.08 0.560418 0 0.1 0.560418 0 0 0.562929 0 0.02 0.562929 0 0.04 0.562929 0 0.06 0.562929 0 0.08 0.562929 0 0.1 0.562929 0 0 0.5655 0 0.02 0.5655 0 0.04 0.5655 0 0.06 0.5655 0 0.08 0.5655 0 0.1 0.5655 0 0 0.568203 0 0.02 0.568203 0 0.04 0.568203 0 0.06 0.568203 0 0.08 0.568203 0 0.1 0.568203 0 0 0.571086 0 0.02 0.571086 0 0.04 0.571086 0 0.06 0.571086 0 0.08 0.571086 0 0.1 0.571086 0 0 0.574237 0 0.02 0.574237 0 0.04 0.574237 0 0.06 0.574237 0 0.08 0.574237 0 0.1 0.574237 0 0 0.57771 0 0.02 0.57771 0 0.04 0.57771 0 0.06 0.57771 0 0.08 0.57771 0 0.1 0.57771 0 0 0.581557 0 0.02 0.581557 0 0.04 0.581557 0 0.06 0.581557 0 0.08 0.581557 0 0.1 0.581557 0 0 0.585779 0 0.02 0.585779 0 0.04 0.585779 0 0.06 0.585779 0 0.08 0.585779 0 0.1 0.585779 0 0 0.590332 0 0.02 0.590332 0 0.04 0.590332 0 0.06 0.590332 0 0.08 0.590332 0 0.1 0.590332 0 0 0.595119 0 0.02 0.595119 0 0.04 0.595119 0 0.06 0.595119 0 0.08 0.595119 0 0.1 0.595119 0 0 0.600038 0 0.02 0.600038 0 0.04 0.600038 0 0.06 0.600038 0 0.08 0.600038 0 0.1 0.600038 0 0 0.605011 0 0.02 0.605011 0 0.04 0.605011 0 0.06 0.605011 0 0.08 0.605011 0 0.1 0.605011 0 0 0.610003 0 0.02 0.610003 0 0.04 0.610003 0 0.06 0.610003 0 0.08 0.610003 0 0.1 0.610003 0 0 0.615001 0 0.02 0.615001 0 0.04 0.615001 0 0.06 0.615001 0 0.08 0.615001 0 0.1 0.615001 0 0 0.62 0 0.02 0.62 0 0.04 0.62 0 0.06 0.62 0 0.08 0.62 0 0.1 0.62 0 0 0.625 0 0.02 0.625 0 0.04 0.625 0 0.06 0.625 0 0.08 0.625 0 0.1 0.625 0 0 0.63 0 0.02 0.63 0 0.04 0.63 0 0.06 0.63 0 0.08 0.63 0 0.1 0.63 0 0 0.635 0 0.02 0.635 0 0.04 0.635 0 0.06 0.635 0 0.08 0.635 0 0.1 0.635 0 0 0.64 0 
[...]
			<PointData Scalars="VitesseX">
				<DataArray Name="VitesseX" type="Float32" format="ascii">
 0 3.79614e-16 -1.14486e-15 2.23695e-15 -1.65295e-15 0 0 5.33979e-16 -1.10547e-15 2.18957e-15 -1.45885e-15 0 0 1.13411e-17 -7.13524e-16 2.238e-15 -1.39333e-15 0 0 -1.11198e-15 4.62263e-16 1.37994e-15 -9.56193e-16 0 0 -7.51228e-16 -2.15847e-16 1.9448e-15 -9.43665e-16 0 0 -9.40055e-16 -2.36664e-16 1.33588e-15 2.07989e-16 0 0 -1.76598e-15 1.03699e-15 -5.2384e-16 1.13085e-15 0 0 -1.0274e-15 9.50256e-16 1.18813e-15 2.03063e-16 0 0 1.26729e-15 -1.99581e-15 4.41909e-15 1.05275e-15 0 0 1.28172e-15 -3.40548e-15 4.62467e-15 4.23262e-15 0 0 -6.22366e-16 -4.66058e-16 3.33109e-15 6.26197e-15 0 0 1.11245e-15 -1.879e-15 5.2649e-15 6.1864e-15 0 0 -2.49192e-16 6.79462e-17 2.53078e-15 8.65421e-15 0 0 -3.65069e-15 4.73781e-15 -1.8005e-15 7.54126e-15 0 0 6.35465e-16 -1.21583e-15 1.23211e-15 5.31028e-15 0 0 2.36688e-15 -3.21502e-16 -2.04343e-15 8.66029e-15 0 0 1.52581e-15 1.68979e-15 -2.94376e-15 9.4886e-15 0 0 1.95027e-16 -1.96957e-15 6.13142e-15 5.55738e-15 0 0 -9.56075e-16 -1.47261e-15 8.99898e-15 2.00228e-15 0 0 1.45593e-15 1.46097e-15 4.09796e-15 5.39759e-16 0 0 -1.60946e-15 9.64937e-15 -2.74062e-15 1.74908e-16 0 0 5.85672e-16 4.86615e-15 1.29478e-15 -2.8185e-15 0 0 3.64089e-15 -3.54978e-15 3.60732e-15 5.09184e-16 0 0 9.43161e-18 -1.40825e-15 9.12375e-16 5.42181e-15 0 0 -1.0878e-15 1.01566e-15 6.02271e-17 6.06208e-15 0 0 -1.5449e-15 5.72663e-15 -6.42431e-15 7.78804e-15 0 0 3.6947e-15 7.47831e-16 -4.51662e-15 5.94451e-15 0 0 4.17258e-15 -1.67825e-15 -2.12592e-15 1.69395e-15 0 0 2.49227e-15 -2.33681e-15 4.4152e-15 -5.8338e-15 0 0 1.84156e-16 -1.81162e-15 6.10814e-15 -6.02603e-15 0 0 7.76739e-16 8.05537e-16 7.76888e-16 -5.15532e-15 0 0 -1.81234e-15 6.73183e-15 -3.16604e-15 -5.19314e-17 0 0 -4.88058e-15 9.82986e-15 -7.68959e-15 4.13608e-15 0 0 4.25128e-16 3.38351e-15 -2.73514e-15 -4.24582e-15 0 0 1.97928e-15 4.28195e-15 -5.89927e-16 -4.76836e-15 0 0 5.50367e-15 -3.43622e-15 3.49361e-15 -1.00389e-15 0 0 1.58128e-15 -4.25723e-15 1.40422e-15 -1.66256e-15 0 0 -1.65093e-15 1.8097e-16 -7.43008e-16 -3.02762e-15 0 0 -2.38143e-15 -1.62113e-15 2.7021e-15 -1.47598e-15 0 0 1.61655e-15 -5.30465e-15 3.87154e-15 -8.96531e-16 0 0 -1.239e-15 1.58048e-15 2.64529e-16 8.34642e-15 0 0 -3.5242e-15 -2.19905e-16 3.92058e-15 1.05837e-14 0 0 1.40907e-15 -1.42457e-15 2.61231e-15 7.50974e-15 0 0 3.29323e-15 4.39647e-15 -1.79014e-15 9.89358e-15 0 0 1.6842e-15 1.2282e-14 -7.56836e-15 8.82121e-15 0 0 1.64514e-15 8.2079e-15 -3.22579e-16 -1.01725e-15 0 0 6.93219e-15 -1.09385e-14 1.7239e-14 -1.1687e-14 0 0 1.06317e-14 -1.31369e-14 1.91101e-14 -1.56406e-14 0 0 1.20446e-14 -3.65812e-15 9.19372e-15 -4.31544e-15 0 0 -5.93612e-16 1.41815e-14 5.50639e-15 -4.10371e-15 0 0 -6.03314e-15 1.73736e-14 1.02846e-14 -1.56135e-14 0 0 5.25814e-16 1.49911e-14 -1.20483e-14 1.08574e-14 0 0 7.96171e-15 7.17892e-15 -6.15916e-15 8.2266e-15 0 0 5.2293e-15 -2.91754e-16 5.23033e-15 4.81447e-15 0 0 1.42259e-15 -3.59934e-15 5.2508e-15 8.41115e-15 0 0 6.36945e-15 -4.93335e-15 1.99325e-14 -1.8542e-14 0 0 6.16854e-15 1.12324e-14 1.23133e-14 -2.01364e-14 0 0 1.77139e-14 4.15286e-15 2.28466e-14 -2.61576e-14 0 0 1.03711e-14 -1.47699e-15 2.39442e-14 -1.78948e-14 0 0 7.12852e-15 -5.74928e-15 6.04603e-15 4.71388e-15 0 0 1.50792e-14 -1.05702e-14 -2.90898e-15 3.98602e-15 0 0 9.96869e-15 -8.14452e-15 1.64211e-15 -4.48373e-15 0 0 1.08848e-14 -1.15786e-14 2.2655e-14 -2.3164e-14 0 0 7.57787e-15 5.81015e-15 1.88615e-14 -3.32934e-14 0 0 9.07031e-15 1.33938e-14 -2.40496e-15 -1.58231e-14 0 0 6.37676e-15 1.85447e-14 -2.04059e-14 -5.19319e-16 0 0 6.29795e-15 1.3062e-14 -1.29495e-14 -8.91246e-15 0 0 5.20752e-15 -1.93646e-15 5.49442e-15 -1.13264e-14 0 0 -6.48756e-15 3.71947e-15 1.2329e-14 -8.41297e-15 0 0 -2.92497e-15 3.03707e-15 -2.46263e-16 3.65839e-15 0 0 9.81839e-15 -1.22251e-14 -3.83311e-15 1.61458e-14 0 0 -3.84396e-15 -6.24004e-15 1.2354e-14 8.12741e-15 0 0 -1.41339e-14 8.56671e-15 1.73641e-14 2.04422e-15 0 0 3.2479e-16 1.22499e-14 2.10328e-14 -7.35537e-16 0 0 2.1693e-14 -2.28162e-16 1.51441e-14 5.81556e-15 0 0 3.45169e-14 -1.61329e-14 8.51034e-15 8.4042e-15 0 0 2.3445e-14 1.04602e-15 7.56639e-15 -5.5073e-15 0 0 1.71802e-14 1.0664e-14 -5.97546e-15 1.12809e-14 0 0 1.29312e-14 -4.1456e-16 -2.35025e-15 2.34832e-14 0 0 1.60004e-14 -8.3332e-15 -2.67566e-15 2.1759e-14 0 0 1.21241e-14 -7.76325e-15 -1.25413e-14 2.02011e-14 0 0 9.08663e-15 -1.0904e-14 -3.63709e-15 5.3458e-15 0 0 1.41199e-15 7.49236e-15 6.38087e-15 -7.72225e-15 0 0 -7.82247e-15 1.12892e-14 2.04185e-14 -3.35916e-14 0 0 -1.09027e-14 5.33598e-15 2.74771e-14 -2.13425e-14 0 0 -9.73387e-15 1.90434e-14 2.29915e-14 3.46741e-15 0 0 6.74004e-15 7.22238e-15 5.43439e-15 1.95567e-14 0 0 1.33311e-15 1.03999e-14 -8.33172e-15 2.98075e-14 0 0 -1.32188e-14 1.77227e-14 -6.71142e-15 1.83511e-14 0 0 1.62195e-14 -1.69039e-15 -1.13044e-14 9.62325e-15 0 0 2.63067e-14 -1.11089e-14 -1.57513e-14 2.27048e-15 0 0 -6.21815e-16 -1.09739e-15 -1.06688e-14 5.53293e-15 0 0 9.71312e-15 8.73417e-16 4.82507e-15 -1.12927e-15 0 0 -9.1177e-15 8.65658e-15 -3.75842e-15 -3.77816e-15 0 0 4.64905e-15 -5.80236e-15 -2.09504e-14 2.51721e-15 0 0 4.90273e-15 -5.02794e-15 -9.28269e-15 -2.81348e-15 0 0 8.01513e-15 9.86757e-15 -6.89404e-15 -5.06649e-15 0 0 1.72014e-14 1.36714e-14 -3.52857e-15 8.01958e-15 0 0 8.23023e-14 1.71753e-13 1.38737e-13 1.02378e-13 0 0 5.25453e-13 8.70181e-13 8.38817e-13 5.21793e-13 0 0 1.15486e-12 1.82503e-12 1.80213e-12 1.13379e-12 0 0 3.29106e-12 5.24704e-12 5.22146e-12 3.22385e-12 0 0 3.25148e-12 5.22262e-12 5.15659e-12 3.19514e-12 0 0 3.00008e-12 4.86933e-12 4.83343e-12 2.94139e-12 0 0 2.64244e-12 4.25541e-12 4.26657e-12 2.50377e-12 0 0 2.22889e-12 3.51196e-12 3.57473e-12 2.08759e-12 0 0 1.86505e-12 2.93277e-12 2.98925e-12 1.80188e-12 0 0 1.79736e-12 2.81297e-12 2.90871e-12 1.72295e-12 0 0 2.20259e-12 3.492e-12 3.61768e-12 2.12429e-12 0 0 2.8798e-12 4.66504e-12 4.71176e-12 2.79339e-12 0 0 3.5478e-12 5.74951e-12 5.75393e-12 3.46737e-12 0 0 4.0383e-12 6.53607e-12 6.53865e-12 3.93237e-12 0 0 4.2371e-12 6.94105e-12 6.8522e-12 4.17877e-12 0 0 4.08384e-12 6.67414e-12 6.54089e-12 4.02349e-12 0 0 3.69964e-12 5.98319e-12 5.91114e-12 3.61549e-12 0 0 2.94512e-12 4.79035e-12 4.72675e-12 2.9205e-12 0 0 2.0932e-12 3.44782e-12 3.3372e-12 2.03928e-12 0 0 1.21839e-12 1.99618e-12 1.97399e-12 1.1878e-12 0 0 5.54039e-13 9.00232e-13 9.44368e-13 5.55113e-13 0 0 1.939e-13 3.18402e-13 3.08711e-13 1.99163e-13 0 0 5.89108e-14 7.10186e-14 6.86785e-14 7.49159e-14 0 0 5.64137e-15 2.34716e-14 2.05524e-15 3.45399e-14 0 0 -7.1276e-16 1.34235e-14 -2.70064e-15 1.15034e-14 0 0 2.07217e-14 -1.44327e-14 2.77194e-14 -1.72099e-14 0 0 1.07074e-14 9.1209e-15 2.62498e-15 -1.2645e-14 0 0 -7.08068e-15 3.16339e-14 -2.00792e-14 2.03187e-14 0 0 -7.40842e-15 2.04155e-14 -8.0922e-15 2.61451e-14 0 0 1.03147e-14 -7.71363e-15 2.51917e-14 -2.47804e-15 0 0 2.20016e-14 -2.9058e-14 4.35601e-14 -1.89286e-14 0 0 9.50107e-15 -5.39443e-15 1.90584e-14 1.01947e-15 0 0 4.29369e-15 1.04721e-14 1.24245e-14 1.43179e-14 0 0 1.20409e-14 5.60455e-15 5.70028e-15 2.24273e-14 0 0 2.04197e-14 2.22351e-15 2.68364e-14 1.83011e-14 0 0 2.29051e-14 -1.58952e-15 6.50513e-14 -9.08294e-15 0 0 1.4595e-14 1.73364e-14 4.8876e-14 -3.80131e-15 0 0 2.73175e-14 3.10028e-15 9.74332e-14 -4.24501e-14 0 0 2.40334e-14 -5.75703e-15 1.03134e-13 -5.68327e-14 0 0 1.49899e-14 2.80484e-14 2.75458e-14 -2.75364e-14 0 0 3.86597e-14 8.91684e-15 2.06395e-14 -3.14255e-14 0 0 5.23693e-14 -1.31808e-14 1.43979e-14 -1.477e-14 0 0 2.23717e-14 1.87033e-14 1.30377e-14 1.85608e-15 0 0 1.50782e-14 3.68947e-14 5.61648e-16 1.90649e-14 0 0 3.69687e-14 2.67986e-14 1.84022e-15 9.89618e-15 0 0 1.65368e-14 2.81419e-14 4.49999e-14 -5.38963e-14 0 0 1.56687e-14 1.69868e-14 4.88183e-14 -5.30803e-14 0 0 8.37622e-15 3.62674e-14 -6.87519e-15 -6.35957e-15 0 0 -2.03356e-15 6.15175e-14 -2.82135e-14 -1.74498e-14 0 0 7.00526e-15 5.36197e-14 -3.15886e-14 -1.53146e-14 0 0 1.65805e-14 3.87467e-14 -3.56843e-14 5.23921e-15 0 0 2.73072e-14 -1.38027e-15 6.78565e-15 1.55477e-15 0 0 1.48481e-14 -1.64864e-15 2.12446e-14 -1.02101e-14 0 0 2.62552e-14 -9.244e-15 1.18792e-14 8.84153e-15 0 0 1.42611e-14 4.47504e-15 1.58461e-14 2.68575e-14 0 0 1.08255e-14 2.5712e-14 4.22156e-14 6.06432e-16 0 0 2.61549e-14 4.32513e-14 1.8329e-14 4.47769e-15 0 0 2.76164e-14 6.62618e-14 -2.68096e-14 1.81884e-14 0 0 2.54176e-14 8.25577e-14 -5.63132e-14 9.69478e-15 0 0 -5.17827e-16 8.89709e-14 -3.24754e-14 -7.11896e-15 0 0 -6.34109e-15 4.13542e-14 2.94002e-14 -7.82559e-15 0 0 9.63287e-15 2.80102e-14 2.15194e-14 2.07569e-14 0 0 2.17378e-14 4.19157e-14 2.86531e-14 5.18746e-14 0 0 3.32537e-14 3.62088e-14 4.69811e-14 4.68714e-14 0 0 3.47238e-14 9.56615e-15 5.14294e-14 -4.86148e-15 0 0 3.20296e-15 2.89691e-14 1.9777e-14 1.89628e-14 0 0 2.21762e-14 -4.02655e-14 1.03238e-13 -3.34377e-14 0 0 2.97565e-14 -8.44187e-14 1.18674e-13 -4.86984e-14 0 0 1.84671e-14 -4.92432e-14 5.06504e-14 8.32704e-15 0 0 3.71231e-14 -4.8801e-14 6.21067e-14 7.91709e-15 0 0 4.68144e-14 -1.34335e-14 1.98142e-14 2.70891e-14 0 0 4.87132e-14 1.32326e-14 -1.78991e-14 8.30772e-15 0 0 3.1729e-14 2.91977e-14 -3.76362e-15 -2.7172e-14 0 0 2.46711e-14 2.20566e-14 2.73091e-14 -1.43849e-14 0 0 3.11164e-14 -8.73121e-15 9.29985e-14 -3.02744e-14 0 0 2.87901e-14 -7.50051e-15 1.17649e-13 -3.93474e-14 0 0 2.01379e-14 3.75861e-14 9.47035e-15 2.87628e-14 0 0 4.04017e-14 1.51195e-14 -1.87988e-14 5.69062e-14 0 0 2.96644e-14 -6.23764e-15 1.93098e-14 6.45789e-14 0 0 -9.71626e-16 1.12198e-14 2.39981e-14 4.88619e-14 0 0 4.24068e-15 -5.83803e-15 2.71015e-14 2.4684e-14 0 0 -7.41997e-16 4.84312e-15 1.57284e-14 1.12765e-14 0 0 6.90188e-15 1.68882e-14 3.41418e-14 -1.60678e-14 0 0 2.75586e-15 3.72114e-14 2.10873e-14 -1.23027e-14 0 0 -2.43027e-15 2.93814e-14 6.59149e-15 3.93974e-16 0 0 1.65528e-14 6.27795e-17 1.14345e-14 6.61136e-16 0 0 7.25172e-15 1.78764e-14 1.25061e-15 -2.36605e-15 0 0 6.55711e-15 -8.56746e-15 3.6137e-14 -1.4159e-14 0 0 2.06691e-14 -1.9129e-14 1.21674e-14 1.08163e-14 0 0 1.25239e-14 2.32783e-14 -5.61647e-14 7.48891e-14 0 0 9.00491e-15 5.06918e-16 -1.72859e-14 6.25724e-14 0 0 2.56959e-15 1.60712e-14 2.60638e-15 3.54772e-14 0 0 -1.59368e-15 2.94935e-14 -2.04776e-14 8.44307e-14 0 0 2.077e-15 8.26356e-15 3.99521e-15 8.27439e-14 0 0 -1.28959e-14 3.61538e-14 3.46243e-14 4.2182e-14 0 0 -3.21848e-15 3.3307e-14 4.38824e-14 3.18989e-14 0 0 3.85989e-14 -1.3175e-14 3.75953e-14 3.0696e-14 0 0 4.56621e-15 5.69526e-15 3.94156e-14 -7.65653e-15 0 0 -1.97218e-14 1.9142e-14 5.61155e-14 -5.12711e-14 0 0 -6.86918e-15 2.66344e-14 6.98454e-16 -2.48092e-14 0 0 -7.91237e-15 3.67661e-14 -2.52482e-14 -1.31371e-14 0 0 1.3707e-15 -3.26306e-15 4.72611e-14 -5.08278e-14 0 0 -6.64595e-15 -5.64582e-15 6.70675e-14 -6.37845e-14 0
				</DataArray>
				<DataArray Name="VitesseY" type="Float32" format="ascii">