<?xml version="1.0"?>
<VTKFile type="PolyData">
	<PolyData>
		<Piece NumberOfPoints="1206" NumberOfPolys="1000">
			<Points>
				<DataArray type="Float32" NumberOfComponents="3" format="ascii">
 0 0 0 0.02 0 0 0.04 0 0 0.06 0 0 0.08 0 0 0.1 0 0 0 0.005 0 0.02 0.005 0 0.04 0.005 0 0.06 0.005 0 0.08 0.005 0 0.1 0.005 0 0 0.01 0 0.02 0.01 0 0.04 0.01 0 0.06 0.01 0 0.08 0.01 0 0.1 0.01 0 0 0.015 0 0.02 0.015 0 0.04 0.015 0 0.06 0.015 0 0.08 0.015 0 0.1 0.015 0 0 0.02 0 0.02 0.02 0 0.04 0.02 0 0.06 0.02 0 0.08 0.02 0 0.1 0.02 0 0 0.025 0 0.02 0.025 0 0.04 0.025 0 0.06 0.025 0 0.08 0.025 0 0.1 0.025 0 0 0.03 0 0.02 0.03 0 0.04 0.03 0 0.06 0.03 0 0.08 0.03 0 0.1 0.03 0 0 0.035 0 0.02 0.035 0 0.04 0.035 0 0.06 0.035 0 0.08 0.035 0 0.1 0.035 0 0 0.04 0 0.02 0.04 0 0.04 0.04 0 0.06 0.04 0 0.08 0.04 0 0.1 0.04 0 0 0.045 0 0.02 0.045 0 0.04 0.045 0 0.06 0.045 0 0.08 0.045 0 0.1 0.045 0 0 0.05 0 0.02 0.05 0 0.04 0.05 0 0.06 0.05 0 0.08 0.05 0 0.1 0.05 0 0 0.055 0 0.02 0.055 0 0.04 0.055 0 0.06 0.055 0 0.08 0.055 0 0.1 0.055 0 0 0.06 0 0.02 0.06 0 0.04 0.06 0 0.06 0.06 0 0.08 0.06 0 0.1 0.06 0 0 0.065 0 0.02 0.065 0 0.04 0.065 0 0.06 0.065 0 0.08 0.065 0 0.1 0.065 0 0 0.07 0 0.02 0.07 0 0.04 0.07 0 0.06 0.07 0 0.08 0.07 0 0.1 0.07 0 0 0.075 0 0.02 0.075 0 0.04 0.075 0 0.06 0.075 0 0.08 0.075 0 0.1 0.075 0 0 0.08 0 0.02 0.08 0 0.04 0.08 0 0.06 0.08 0 0.08 0.08 0 0.1 0.08 0 0 0.085 0 0.02 0.085 0 0.04 0.085 0 0.06 0.085 0 0.08 0.085 0 0.1 0.085 0 0 0.09 0 0.02 0.09 0 0.04 0.09 0 0.06 0.09 0 0.08 0.09 0 0.1 0.09 0 0 0.095 0 0.02 0.095 0 0.04 0.095 0 0.06 0.095 0 0.08 0.095 0 0.1 0.095 0 0 0.1 0 0.02 0.1 0 0.04 0.1 0 0.06 0.1 0 0.08 0.1 0 0.1 0.1 0 0 0.105 0 0.02 0.105 0 0.04 0.105 0 0.06 0.105 0 0.08 0.105 0 0.1 0.105 0 0 0.11 0 0.02 0.11 0 0.04 0.11 0 0.06 0.11 0 0.08 0.11 0 0.1 0.11 0 0 0.115 0 0.02 0.115 0 0.04 0.115 0 0.06 0.115 0 0.08 0.115 0 0.1 0.115 0 0 0.12 0 0.02 0.12 0 0.04 0.12 0 0.06 0.12 0 0.08 0.12 0 0.1 0.12 0 0 0.125 0 0.02 0.125 0 0.04 0.125 0 0.06 0.125 0 0.08 0.125 0 0.1 0.125 0 0 0.13 0 0.02 0.13 0 0.04 0.13 0 0.06 0.13 0 0.08 0.13 0 0.1 0.13 0 0 0.135 0 0.02 0.135 0 0.04 0.135 0 0.06 0.135 0 0.08 0.135 0 0.1 0.135 0 0 0.14 0 0.02 0.14 0 0.04 0.14 0 0.06 0.14 0 0.08 0.14 0 0.1 0.14 0 0 0.145 0 0.02 0.145 0 0.04 0.145 0 0.06 0.145 0 0.08 0.145 0 0.1 0.145 0 0 0.15 0 0.02 0.15 0 0.04 0.15 0 0.06 0.15 0 0.08 0.15 0 0.1 0.15 0 0 0.155 0 0.02 0.155 0 0.04 0.155 0 0.06 0.155 0 0.08 0.155 0 0.1 0.155 0 0 0.16 0 0.02 0.16 0 0.04 0.16 0 0.06 0.16 0 0.08 0.16 0 0.1 0.16 0 0 0.165 0 0.02 0.165 0 0.04 0.165 0 0.06 0.165 0 0.08 0.165 0 0.1 0.165 0 0 0.17 0 0.02 0.17 0 0.04 0.17 0 0.06 0.17 0 0.08 0.17 0 0.1 0.17 0 0 0.175 0 0.02 0.175 0 0.04 0.175 0 0.06 0.175 0 0.08 0.175 0 0.1 0.175 0 0 0.18 0 0.02 0.18 0 0.04 0.18 0 0.06 0.18 0 0.08 0.18 0 0.1 0.18 0 0 0.185 0 0.02 0.185 0 0.04 0.185 0 0.06 0.185 0 0.08 0.185 0 0.1 0.185 0 0 0.19 0 0.02 0.19 0 0.04 0.19 0 0.06 0.19 0 0.08 0.19 0 0.1 0.19 0 0 0.195 0 0.02 0.195 0 0.04 0.195 0 0.06 0.195 0 0.08 0.195 0 0.1 0.195 0 0 0.2 0 0.02 0.2 0 0.04 0.2 0 0.06 0.2 0 0.08 0.2 0 0.1 0.2 0 0 0.205 0 0.02 0.205 0 0.04 0.205 0 0.06 0.205 0 0.08 0.205 0 0.1 0.205 0 0 0.21 0 0.02 0.21 0 0.04 0.21 0 0.06 0.21 0 0.08 0.21 0 0.1 0.21 0 0 0.215 0 0.02 0.215 0 0.04 0.215 0 0.06 0.215 0 0.08 0.215 0 0.1 0.215 0 0 0.22 0 0.02 0.22 0 0.04 0.22 0 0.06 0.22 0 0.08 0.22 0 0.1 0.22 0 0 0.225 0 0.02 0.225 0 0.04 0.225 0 0.06 0.225 0 0.08 0.225 0 0.1 0.225 0 0 0.23 0 0.02 0.23 0 0.04 0.23 0 0.06 0.23 0 0.08 0.23 0 0.1 0.23 0 0 0.235 0 0.02 0.235 0 0.04 0.235 0 0.06 0.235 0 0.08 0.235 0 0.1 0.235 0 0 0.24 0 0.02 0.24 0 0.04 0.24 0 0.06 0.24 0 0.08 0.24 0 0.1 0.24 0 0 0.245 0 0.02 0.245 0 0.04 0.245 0 0.06 0.245 0 0.08 0.245 0 0.1 0.245 0 0 0.25 0 0.02 0.25 0 0.04 0.25 0 0.06 0.25 0 0.08 0.25 0 0.1 0.25 0 0 0.255 0 0.02 0.255 0 0.04 0.255 0 0.06 0.255 0 0.08 0.255 0 0.1 0.255 0 0 0.26 0 0.02 0.26 0 0.04 0.26 0 0.06 0.26 0 0.08 0.26 0 0.1 0.26 0 0 0.265 0 0.02 0.265 0 0.04 0.265 0 0.06 0.265 0 0.08 0.265 0 0.1 0.265 0 0 0.27 0 0.02 0.27 0 0.04 0.27 0 0.06 0.27 0 0.08 0.27 0 0.1 0.27 0 0 0.275 0 0.02 0.275 0 0.04 0.275 0 0.06 0.275 0 0.08 0.275 0 0.1 0.275 0 0 0.28 0 0.02 0.28 0 0.04 0.28 0 0.06 0.28 0 0.08 0.28 0 0.1 0.28 0 0 0.285 0 0.02 0.285 0 0.04 0.285 0 0.06 0.285 0 0.08 0.285 0 0.1 0.285 0 0 0.29 0 0.02 0.29 0 0.04 0.29 0 0.06 0.29 0 0.08 0.29 0 0.1 0.29 0 0 0.295 0 0.02 0.295 0 0.04 0.295 0 0.06 0.295 0 0.08 0.295 0 0.1 0.295 0 0 0.3 0 0.02 0.3 0 0.04 0.3 0 0.06 0.3 0 0.08 0.3 0 0.1 0.3 0 0 0.305 0 0.02 0.305 0 0.04 0.305 0 0.06 0.305 0 0.08 0.305 0 0.1 0.305 0 0 0.31 0 0.02 0.31 0 0.04 0.31 0 0.06 0.31 0 0.08 0.31 0 0.1 0.31 0 0 0.315 0 0.02 0.315 0 0.04 0.315 0 0.06 0.315 0 0.08 0.315 0 0.1 0.315 0 0 0.32 0 0.02 0.32 0 0.04 0.32 0 0.06 0.32 0 0.08 0.32 0 0.1 0.32 0 0 0.325 0 0.02 0.325 0 0.04 0.325 0 0.06 0.325 0 0.08 0.325 0 0.1 0.325 0 0 0.33 0 0.02 0.33 0 0.04 0.33 0 0.06 0.33 0 0.08 0.33 0 0.1 0.33 0 0 0.335 0 0.02 0.335 0 0.04 0.335 0 0.06 0.335 0 0.08 0.335 0 0.1 0.335 0 0 0.34 0 0.02 0.34 0 0.04 0.34 0 0.06 0.34 0 0.08 0.34 0 0.1 0.34 0 0 0.345 0 0.02 0.345 0 0.04 0.345 0 0.06 0.345 0 0.08 0.345 0 0.1 0.345 0 0 0.35 0 0.02 0.35 0 0.04 0.35 0 0.06 0.35 0 0.08 0.35 0 0.1 0.35 0 0 0.355 0 0.02 0.355 0 0.04 0.355 0 0.06 0.355 0 0.08 0.355 0 0.1 0.355 0 0 0.36 0 0.02 0.36 0 0.04 0.36 0 0.06 0.36 0 0.08 0.36 0 0.1 0.36 0 0 0.365 0 0.02 0.365 0 0.04 0.365 0 0.06 0.365 0 0.08 0.365 0 0.1 0.365 0 0 0.37 0 0.02 0.37 0 0.04 0.37 0 0.06 0.37 0 0.08 0.37 0 0.1 0.37 0 0 0.375 0 0.02 0.375 0 0.04 0.375 0 0.06 0.375 0 0.08 0.375 0 0.1 0.375 0 0 0.38 0 0.02 0.38 0 0.04 0.38 0 0.06 0.38 0 0.08 0.38 0 0.1 0.38 0 0 0.385 0 0.02 0.385 0 0.04 0.385 0 0.06 0.385 0 0.08 0.385 0 0.1 0.385 0 0 0.39 0 0.02 0.39 0 0.04 0.39 0 0.06 0.39 0 0.08 0.39 0 0.1 0.39 0 0 0.395 0 0.02 0.395 0 0.04 0.395 0 0.06 0.395 0 0.08 0.395 0 0.1 0.395 0 0 0.4 0 0.02 0.4 0 0.04 0.4 0 0.06 0.4 0 0.08 0.4 0 0.1 0.4 0 0 0.405 0 0.02 0.405 0 0.04 0.405 0 0.06 0.405 0 0.08 0.405 0 0.1 0.405 0 0 0.41 0 0.02 0.41 0 0.04 0.41 0 0.06 0.41 0 0.08 0.41 0 0.1 0.41 0 0 0.415 0 0.02 0.415 0 0.04 0.415 0 0.06 0.415 0 0.08 0.415 0 0.1 0.415 0 0 0.42 0 0.02 0.42 0 0.04 0.42 0 0.06 0.42 0 0.08 0.42 0 0.1 0.42 0 0 0.425 0 0.02 0.425 0 0.04 0.425 0 0.06 0.425 0 0.08 0.425 0 0.1 0.425 0 0 0.43 0 0.02 0.43 0 0.04 0.43 0 0.06 0.43 0 0.08 0.43 0 0.1 0.43 0 0 0.435 0 0.02 0.435 0 0.04 0.435 0 0.06 0.435 0 0.08 0.435 0 0.1 0.435 0 0 0.44 0 0.02 0.44 0 0.04 0.44 0 0.06 0.44 0 0.08 0.44 0 0.1 0.44 0 0 0.445 0 0.02 0.445 0 0.04 0.445 0 0.06 0.445 0 0.08 0.445 0 0.1 0.445 0 0 0.450003 0 0.02 0.450003 0 0.04 0.450003 0 0.06 0.450003 0 0.08 0.450003 0 0.1 0.450003 0 0 0.455017 0 0.02 0.455017 0 0.04 0.455017 0 0.06 0.455017 0 0.08 0.455017 0 0.1 0.455017 0 0 0.460086 0 0.02 0.460086 0 0.04 0.460086 0 0.06 0.460086 0 0.08 0.460086 0 0.1 0.460086 0 0 0.465322 0 0.02 0.465322 0 0.04 0.465322 0 0.06 0.465322 0 0.08 0.465322 0 0.1 0.465322 0 0 0.470927 0 0.02 0.470927 0 0.04 0.470927 0 0.06 0.470927 0 0.08 0.470927 0 0.1 0.470927 0 0 0.477161 0 0.02 0.477161 0 0.04 0.477161 0 0.06 0.477161 0 0.08 0.477161 0 0.1 0.477161 0 0 0.484334 0 0.02 0.484334 0 0.04 0.484334 0 0.06 0.484334 0 0.08 0.484334 0 0.1 0.484334 0 0 0.492873 0 0.02 0.492873 0 0.04 0.492873 0 0.06 0.492873 0 0.08 0.492873 0 0.1 0.492873 0 0 0.503369 0 0.02 0.503369 0 0.04 0.503369 0 0.06 0.503369 0 0.08 0.503369 0 0.1 0.503369 0 0 0.515888 0 0.02 0.515888 0 0.04 0.515888 0 0.06 0.515888 0 0.08 0.515888 0 0.1 0.515888 0 0 0.528222 0 0.02 0.528222 0 0.04 0.528222 0 0.06 0.528222 0 0.08 0.528222 0 0.1 0.528222 0 0 0.530888 0 0.02 0.530888 0 0.04 0.530888 0 0.06 0.530888 0 0.08 0.530888 0 0.1 0.530888 0 0 0.533487 0 0.02 0.533487 0 0.04 0.533487 0 0.06 0.533487 0 0.08 0.533487 0 0.1 0.533487 0 0 0.536048 0 0.02 0.536048 0 0.04 0.536048 0 0.06 0.536048 0 0.08 0.536048 0 0.1 0.536048 0 0 0.538584 0 0.02 0.538584 0 0.04 0.538584 0 0.06 0.538584 0 0.08 0.538584 0 0.1 0.538584 0 0 0.541084 0 0.02 0.541084 0 0.04 0.541084 0 0.06 0.541084 0 0.08 0.541084 0 0.1 0.541084 0 0 0.543538 0 0.02 0.543538 0 0.04 0.543538 0 0.06 0.543538 0 0.08 0.543538 0 0.1 0.543538 0 0 0.546042 0 0.02 0.546042 0 0.04 0.546042 0 0.06 0.546042 0 0.08 0.546042 0 0.1 0.546042 0 0 0.548693 0 0.02 0.548693 0 0.04 0.548693 0 0.06 0.548693 0 0.08 0.548693 0 0.1 0.548693 0 0 0.55146 0 0.02 0.55146 0 0.04 0.55146 0 0.06 0.55146 0 0.08 0.55146 0 0.1 0.55146 0 0 0.554535 0 0.02 0.554535 0 0.04 0.554535 0 0.06 0.554535 0 0.08 0.554535 0 0.1 0.554535 0 0 0.55792 0 0.02 0.55792 0 0.04 0.55792 0 0.06 0.55792 0 0.08 0.55792 0 0.1 0.55792 0 0 0.561661 0 0.02 0.561661 0 0.04 0.561661 0 0.06 0.561661 0 0.08 0.561661 0 0.1 0.561661 0 0 0.565821 0 0.02 0.565821 0 0.04 0.565821 0 0.06 0.565821 0 0.08 0.565821 0 0.1 0.565821 0 0 0.570337 0 0.02 0.570337 0 0.04 0.570337 0 0.06 0.570337 0 0.08 0.570337 0 0.1 0.570337 0 0 0.575114 0 0.02 0.575114 0 0.04 0.575114 0 0.06 0.575114 0 0.08 0.575114 0 0.1 0.575114 0 0 0.580032 0 0.02 0.580032 0 0.04 0.580032 0 0.06 0.580032 0 0.08 0.580032 0 0.1 0.580032 0 0 0.585008 0 0.02 0.585008 0 0.04 0.585008 0 0.06 0.585008 0 0.08 0.585008 0 0.1 0.585008 0 0 0.590002 0 0.02 0.590002 0 0.04 0.590002 0 0.06 0.590002 0 0.08 0.590002 0 0.1 0.590002 0 0 0.595 0 0.02 0.595 0 0.04 0.595 0 0.06 0.595 0 0.08 0.595 0 0.1 0.595 0 0 0.6 0 0.02 0.6 0 0.04 0.6 0 0.06 0.6 0 0.08 0.6 0 0.1 0.6 0 0 0.605 0 0.02 0.605 0 0.04 0.605 0 0.06 0.605 0 0.08 0.605 0 0.1 0.605 0 0 0.61 0 0.02 0.61 0 0.04 0.61 0 0.06 0.61 0 0.08 0.61 0 0.1 0.61 0 0 0.615 0 0.02 0.615 0 0.04 0.615 0 0.06 0.615 0 0.08 0.615 0 0.1 0.615 0 0 0.62 0 0.02 0.62 0 0.04 0.62 0 0.06 0.62 0 0.08 0.62 0 0.1 0.62 0 0 0.625 0 0.02 0.625 0 0.04 0.625 0 0.06 0.625 0 0.08 0.625 0 0.1 0.625 0 0 0.63 0 0.02 0.63 0 0.04 0.63 0 0.06 0.63 0 0.08 0.63 0 0.1 0.63 0 0 0.635 0 0.02 0.635 0 0.04 0.635 0 0.06 0.635 0 0.08 0.635 0 0.1 0.635 0 0 0.64 0 0.02 0.64 0 0.04 0.64 0 0.06 0.64 0 0.08 0.64 0 0.1 0.64 0 0 0.645 0 0.02 0.645 0 0.04 0.645 0 0.06 0.645 0 0.08 0.645 0 0.1 0.645 0 0 0.65 0 0.02 0.65 0 0.
[...]
			<PointData Scalars="VitesseX">
				<DataArray Name="VitesseX" type="Float32" format="ascii">
 0 2.65531e-16 -8.74008e-16 1.78573e-15 -1.2441e-15 0 0 2.39323e-16 -8.20288e-16 1.72175e-15 -1.27079e-15 0 0 7.97269e-16 -1.30251e-15 1.65372e-15 -9.65418e-16 0 0 2.65943e-16 -6.96741e-16 1.47696e-15 -1.01813e-15 0 0 -9.36087e-16 -1.87237e-16 1.93731e-15 -8.07724e-16 0 0 -1.3557e-15 7.44147e-16 1.24305e-15 9.63343e-18 0 0 -2.14822e-15 2.11261e-15 -5.33044e-16 1.05687e-15 0 0 3.87317e-16 -1.7681e-15 1.92491e-15 -4.76172e-16 0 0 1.61379e-15 -3.007e-15 3.76355e-15 -2.31172e-15 0 0 7.19114e-16 -7.48531e-16 2.05718e-15 -7.06614e-16 0 0 -1.04273e-15 1.46684e-15 -2.623e-16 3.49227e-15 0 0 5.64473e-17 -1.72067e-15 2.37929e-15 4.48309e-15 0 0 1.43713e-15 -4.52298e-15 5.08639e-15 3.48732e-15 0 0 -3.24712e-15 3.23699e-15 9.84941e-16 4.75673e-15 0 0 -1.33635e-16 7.53125e-16 2.62941e-15 3.02172e-15 0 0 3.02455e-15 -2.67296e-15 1.84889e-15 3.27739e-15 0 0 5.2967e-16 7.94834e-19 1.47853e-16 5.92943e-15 0 0 5.24655e-18 1.453e-15 3.23819e-15 5.15989e-15 0 0 -2.80838e-16 4.7873e-15 -1.58897e-16 4.86591e-15 0 0 -8.62179e-17 1.724e-15 4.75255e-16 5.64723e-15 0 0 7.58255e-16 6.58502e-16 7.04706e-17 8.30759e-15 0 0 1.00128e-15 -2.94866e-16 1.5196e-15 7.44429e-15 0 0 9.96529e-16 -4.12963e-15 8.00897e-15 -1.36012e-15 0 0 -2.69686e-15 2.01931e-15 2.67715e-15 -1.00497e-15 0 0 -3.59696e-15 6.74026e-15 -5.2801e-15 7.05332e-15 0 0 -8.39979e-16 5.79157e-15 -6.78804e-15 8.53409e-15 0 0 -4.35436e-15 4.41722e-15 -2.75867e-15 6.01133e-15 0 0 -9.10397e-17 -5.23362e-15 8.67518e-16 5.80481e-15 0 0 2.80229e-16 -2.21764e-15 4.31418e-16 1.32371e-15 0 0 -7.25035e-15 1.24215e-14 -2.42619e-15 -7.27275e-15 0 0 -1.04147e-15 6.80218e-15 1.24523e-15 -8.13291e-15 0 0 3.45626e-15 7.03447e-16 2.46208e-15 -4.73424e-15 0 0 -2.17733e-15 2.39815e-15 2.77278e-15 -5.99592e-15 0 0 -2.76147e-15 -1.62784e-15 9.84213e-15 -7.88873e-15 0 0 4.81332e-15 -3.62374e-15 5.27826e-15 4.80884e-16 0 0 5.43103e-15 -1.60657e-15 -7.48916e-18 4.029e-15 0 0 -2.59044e-16 2.90942e-15 -4.76716e-15 1.00389e-15 0 0 5.1483e-15 -6.11144e-15 -3.71889e-15 1.565e-15 0 0 -1.58197e-16 -4.64372e-15 3.35763e-15 -1.1727e-15 0 0 -8.52281e-15 1.30355e-15 6.79976e-15 -2.13532e-16 0 0 3.10666e-17 -3.9825e-15 4.41602e-15 5.49469e-15 0 0 -9.79127e-16 -7.22403e-16 3.05601e-15 1.12892e-15 0 0 -2.17244e-15 -2.55952e-15 6.12783e-15 -5.89053e-16 0 0 -3.59561e-17 6.29904e-16 1.81042e-15 2.04784e-15 0 0 -3.21548e-15 6.9374e-15 -3.68595e-15 1.16959e-14 0 0 3.58172e-15 -3.18741e-15 1.3852e-14 -2.49367e-15 0 0 3.59183e-15 -3.02204e-15 2.80308e-14 -1.95105e-14 0 0 -8.55478e-17 -1.57556e-15 2.7752e-14 -1.68491e-14 0 0 1.62808e-15 -8.12896e-15 3.6173e-14 -2.75236e-14 0 0 9.95057e-16 5.84984e-16 2.47251e-14 -1.94526e-14 0 0 1.26626e-15 3.66961e-15 5.33352e-15 -3.76135e-15 0 0 -2.08004e-15 8.0696e-15 -9.42922e-15 5.19599e-15 0 0 3.34289e-15 -4.57445e-16 -1.14337e-15 5.51555e-15 0 0 3.91127e-15 3.73178e-15 5.87835e-15 -3.42802e-15 0 0 -1.54979e-16 1.35695e-14 -8.47554e-15 1.90799e-15 0 0 -7.96165e-18 1.81884e-14 -2.5685e-14 2.17901e-14 0 0 3.93882e-15 2.13637e-14 -1.36003e-14 8.85053e-15 0 0 9.73051e-15 5.08317e-15 1.8699e-14 -2.36622e-14 0 0 1.73652e-15 1.14338e-14 7.75372e-15 -1.42434e-14 0 0 5.07158e-15 1.5415e-14 -2.27615e-15 -7.0998e-15 0 0 1.38558e-14 1.06254e-14 5.70525e-16 -1.00422e-14 0 0 9.77184e-15 1.19038e-14 -6.02176e-15 -4.12037e-15 0 0 6.27931e-15 2.36283e-14 -1.6144e-14 -9.1163e-15 0 0 4.30418e-15 2.79045e-14 -2.99996e-14 -1.60236e-15 0 0 6.24761e-15 1.22118e-14 -1.76411e-14 -5.01758e-15 0 0 4.87832e-15 8.09758e-15 -6.60752e-15 -8.5833e-15 0 0 1.27605e-15 7.27228e-15 -2.44912e-15 -1.57252e-15 0 0 1.34307e-16 2.73143e-15 3.88528e-15 -2.76881e-15 0 0 1.13305e-15 1.45144e-15 -1.17662e-16 5.91875e-15 0 0 4.70213e-15 -8.2177e-15 3.37557e-15 6.69322e-15 0 0 2.27018e-15 -8.39645e-15 3.02502e-15 -8.59642e-15 0 0 -2.15188e-15 1.03549e-14 -1.7505e-14 -9.41841e-16 0 0 2.04831e-15 9.354e-15 -1.57878e-14 5.16251e-15 0 0 -2.84879e-15 5.90723e-15 8.84067e-16 3.06652e-15 0 0 -5.61014e-17 6.67493e-15 1.07607e-14 -4.93171e-15 0 0 8.36532e-15 1.5885e-15 1.59601e-14 5.50196e-15 0 0 1.03917e-14 8.57758e-15 -9.99941e-16 3.57269e-14 0 0 1.06092e-14 2.32758e-14 -1.67556e-14 1.93253e-14 0 0 4.76048e-15 2.82943e-14 -1.04069e-14 -1.69272e-15 0 0 1.04348e-14 1.63251e-14 7.63912e-15 -1.64881e-14 0 0 1.31566e-14 1.08643e-15 2.3868e-14 -3.66187e-14 0 0 4.05809e-15 1.96522e-15 1.30013e-14 -1.62649e-14 0 0 1.30406e-14 -1.76136e-14 1.09533e-14 2.28185e-14 0 0 1.42112e-14 -2.12574e-14 1.97557e-14 3.0581e-14 0 0 -2.36302e-15 1.06513e-14 8.12589e-16 2.28305e-14 0 0 9.94663e-15 -1.46578e-15 1.06097e-14 1.52931e-14 0 0 1.86575e-14 -3.2882e-15 2.14523e-14 6.19392e-15 0 0 4.60224e-15 1.69002e-14 -3.4939e-15 1.43698e-14 0 0 1.32296e-14 1.08788e-15 -5.56679e-15 1.58249e-14 0 0 -3.00904e-15 6.47409e-15 6.06297e-15 4.42133e-15 0 0 -3.11392e-15 -6.43195e-16 1.06013e-14 -3.76707e-15 0 0 2.27656e-14 -1.44412e-14 1.09345e-14 -1.34378e-14 0 0 -1.24404e-14 1.96675e-14 -1.15459e-14 -5.57105e-15 0 0 -5.1928e-16 1.40034e-14 -2.03036e-14 5.97403e-15 0 0 4.39435e-15 -3.29005e-15 -1.06896e-15 4.66727e-15 0 0 -1.29905e-14 9.64801e-15 -4.03133e-15 -7.28131e-15 0 0 1.00954e-14 1.82399e-15 -1.69096e-14 -8.46511e-15 0 0 1.01221e-14 5.9764e-15 -4.67503e-15 1.78559e-14 0 0 -1.97784e-15 2.19791e-14 -6.54766e-17 2.67174e-14 0 0 3.95944e-14 5.44467e-14 4.99345e-14 4.26825e-14 0 0 1.28204e-13 1.48013e-13 1.61555e-13 1.16855e-13 0 0 5.21146e-13 8.09544e-13 8.42508e-13 4.84777e-13 0 0 7.95981e-13 1.23623e-12 1.28823e-12 7.60485e-13 0 0 1.23158e-12 1.96827e-12 2.04483e-12 1.18707e-12 0 0 1.74916e-12 2.89171e-12 2.86825e-12 1.78249e-12 0 0 2.47058e-12 4.06043e-12 4.04036e-12 2.48509e-12 0 0 3.52011e-12 5.78529e-12 5.70433e-12 3.43039e-12 0 0 4.74267e-12 7.75228e-12 7.62148e-12 4.5213e-12 0 0 6.65699e-12 1.0761e-11 1.06208e-11 6.3218e-12 0 0 7.64986e-12 1.23786e-11 1.22906e-11 7.37546e-12 0 0 7.63414e-12 1.2374e-11 1.23832e-11 7.41133e-12 0 0 4.97128e-12 7.99978e-12 8.01e-12 4.8307e-12 0 0 1.57652e-12 2.50483e-12 2.5055e-12 1.52979e-12 0 0 6.41281e-13 1.01122e-12 1.04526e-12 6.05381e-13 0 0 1.14171e-13 1.63653e-13 1.67749e-13 9.57484e-14 0 0 2.24941e-14 4.53055e-14 2.71011e-14 -1.6311e-15 0 0 8.63374e-15 1.19916e-14 2.20498e-15 7.13411e-15 0 0 2.71815e-15 5.89391e-15 -3.91442e-15 2.97983e-14 0 0 2.2653e-15 -1.01322e-14 3.30052e-14 -4.99273e-15 0 0 -5.32139e-15 6.66119e-15 1.63754e-14 -7.91624e-15 0 0 -2.01286e-15 7.47278e-15 -6.40922e-16 7.73027e-15 0 0 1.03033e-14 -4.07117e-15 1.1673e-15 3.03979e-15 0 0 6.55608e-15 9.88955e-15 -1.90961e-14 1.88739e-14 0 0 4.45864e-15 9.26884e-15 -4.28675e-15 1.42519e-15 0 0 1.04366e-14 7.52082e-15 1.34327e-14 -1.8438e-14 0 0 1.21721e-14 1.04039e-14 1.36197e-14 -9.46976e-15 0 0 1.57606e-14 8.14511e-15 2.78905e-15 3.76834e-15 0 0 1.18256e-14 1.34306e-14 6.69599e-15 -7.3303e-15 0 0 2.0659e-14 8.46948e-16 1.9673e-14 -9.02993e-15 0 0 2.34608e-14 1.68417e-14 -1.60789e-14 1.73152e-14 0 0 1.93349e-14 2.60803e-14 4.8082e-15 -6.75332e-15 0 0 1.83703e-14 3.55378e-14 2.07071e-14 -4.28485e-14 0 0 6.88588e-15 5.31007e-14 5.65143e-15 -5.54748e-14 0 0 2.11769e-14 4.33604e-14 3.41952e-14 -1.01999e-13 0 0 2.52132e-14 3.59438e-14 2.4477e-14 -8.12548e-14 0 0 2.06175e-14 2.76105e-14 -7.32172e-15 -1.65031e-14 0 0 2.70572e-14 2.83604e-14 -1.40936e-14 -2.59899e-14 0 0 4.2187e-14 1.40265e-14 -2.63821e-14 -7.07582e-15 0 0 3.00028e-14 2.6623e-14 -4.23633e-14 2.10525e-14 0 0 2.09948e-14 2.53713e-14 -5.57234e-15 -1.1992e-14 0 0 3.02418e-14 1.80473e-14 1.34225e-14 -2.27447e-14 0 0 1.88494e-14 3.69633e-14 5.70766e-15 -1.86113e-14 0 0 2.11429e-14 1.34435e-14 2.03797e-14 -1.65931e-14 0 0 8.2946e-15 1.58827e-14 1.05409e-14 2.12046e-14 0 0 2.90145e-15 9.38182e-15 1.62187e-14 4.11656e-14 0 0 1.56072e-14 3.03633e-16 2.21177e-14 2.33887e-14 0 0 1.18076e-14 2.66825e-14 -5.71883e-15 1.45053e-14 0 0 6.52292e-15 3.98418e-14 -1.57126e-14 1.71738e-14 0 0 1.26618e-14 2.78601e-14 -8.97776e-15 1.36309e-14 0 0 1.66229e-14 1.75903e-16 9.54445e-15 5.46264e-16 0 0 8.86793e-15 9.53221e-15 -7.48639e-15 1.18605e-14 0 0 7.22873e-15 7.93468e-15 -9.518e-15 1.08974e-14 0 0 1.36848e-14 6.61583e-15 6.05515e-15 -1.24903e-14 0 0 1.57328e-14 1.15087e-14 4.46611e-15 2.41442e-15 0 0 1.71279e-14 2.26689e-14 -2.05239e-15 2.95434e-14 0 0 3.02514e-14 3.79962e-14 -5.60443e-15 1.97394e-14 0 0 3.64062e-14 2.37031e-14 1.16792e-14 -9.45728e-15 0 0 3.44054e-14 2.33621e-14 -1.23059e-14 -6.71457e-16 0 0 6.32435e-15 3.30567e-14 -1.72685e-15 -1.63881e-14 0 0 9.89172e-15 2.50778e-14 5.93595e-14 -7.27725e-14 0 0 3.56617e-14 3.65217e-14 6.582e-14 -6.69768e-14 0 0 3.18865e-14 4.26343e-14 6.66426e-14 -5.75978e-14 0 0 1.80161e-14 4.50667e-14 3.24066e-14 -1.89261e-14 0 0 1.21678e-14 1.45275e-14 6.42197e-15 3.5822e-14 0 0 3.4616e-14 -2.71492e-14 2.54237e-14 1.48533e-14 0 0 6.03366e-14 -3.12056e-14 5.50909e-14 -6.20012e-14 0 0 4.43022e-14 -3.29105e-16 5.96876e-14 -7.10646e-14 0 0 4.32348e-14 2.13495e-14 2.13148e-14 -2.12871e-14 0 0 6.07662e-14 1.27988e-14 9.55367e-15 -6.9419e-15 0 0 5.12803e-14 3.90461e-14 -1.71672e-14 2.76201e-14 0 0 2.73355e-14 5.83222e-14 -1.86603e-14 2.97471e-14 0 0 2.19414e-14 2.99417e-14 -5.49193e-15 2.51233e-14 0 0 4.85805e-14 -1.42235e-14 3.11883e-15 3.54427e-14 0 0 4.24447e-14 3.60211e-15 2.47284e-15 3.56402e-14 0 0 1.15486e-14 3.52395e-14 -1.03657e-14 3.09387e-14 0 0 1.35546e-14 1.02883e-14 -4.13551e-15 3.5541e-14 0 0 2.25439e-14 -6.5553e-15 9.60257e-15 1.8791e-14 0 0 6.29031e-15 1.23791e-14 -1.63083e-14 3.17909e-15 0 0 8.31334e-15 3.93109e-15 -9.94488e-15 -1.55915e-14 0 0 -8.92264e-16 9.54021e-15 6.74862e-15 1.19177e-14 0 0 3.87837e-16 4.395e-15 -5.87665e-15 4.33251e-14 0 0 -8.42633e-15 7.38173e-15 1.74385e-15 9.84968e-15 0 0 -5.38619e-15 1.26149e-14 1.96849e-14 -1.37992e-14 0 0 1.11591e-14 -1.58204e-14 1.83471e-14 -7.66348e-15 0 0 -4.49596e-15 4.04221e-15 -5.96737e-15 5.73571e-15 0 0 -1.18211e-14 1.84425e-14 2.09619e-14 -2.20447e-14 0 0 -1.35914e-14 4.77725e-15 1.69686e-14 -9.04387e-15 0 0 1.15318e-14 -5.96149e-15 -5.50769e-15 3.36717e-15 0 0 1.44876e-14 -4.63075e-15 9.79094e-15 -1.40886e-14 0 0 5.85525e-15 3.66496e-15 -1.03557e-14 8.12902e-15 0 0 6.68246e-15 8.97985e-15 -5.46325e-15 -1.18986e-14 0 0 -3.32821e-15 2.08045e-15 6.33798e-14 -8.26766e-15 0 0 -1.94996e-15 9.61912e-15 5.23817e-14 4.9886e-15 0 0 1.22688e-14 1.8665e-14 3.10705e-14 -3.33308e-14 0 0 1.99834e-14 -1.9281e-14 6.59993e-14 -1.37598e-14 0 0 1.12052e-14 -2.73636e-14 4.49468e-14 1.26661e-14 0 0 -7.00055e-15 1.41969e-14 1.37572e-14 2.05048e-15 0 0 -1.84696e-14 3.18407e-14 -4.46875e-16 -2.78892e-16 0 0 1.13562e-14 -2.13088e-14 3.01602e-14 -9.19586e-15 0 0 1.9337e-14 -2.45697e-14 4.9759e-14 -2.97324e-14 0 0 0 1.8301e-14 2.76321e-14 -2.96396e-14 0
				</DataArray>
				<DataArray Name="VitesseY" type="Float32" format="ascii">