<?xml version="1.0"?>
<VTKFile type="PolyData">
	<PolyData>
		<Piece NumberOfPoints="1206" NumberOfPolys="1000">
			<Points>
				<DataArray type="Float32" NumberOfComponents="3" format="ascii">
 0 0 0 0.02 0 0 0.04 0 0 0.06 0 0 0.08 0 0 0.1 0 0 0 0.005 0 0.02 0.005 0 0.04 0.005 0 0.06 0.005 0 0.08 0.005 0 0.1 0.005 0 0 0.01 0 0.02 0.01 0 0.04 0.01 0 0.06 0.01 0 0.08 0.01 0 0.1 0.01 0 0 0.015 0 0.02 0.015 0 0.04 0.015 0 0.06 0.015 0 0.08 0.015 0 0.1 0.015 0 0 0.02 0 0.02 0.02 0 0.04 0.02 0 0.06 0.02 0 0.08 0.02 0 0.1 0.02 0 0 0.025 0 0.02 0.025 0 0.04 0.025 0 0.06 0.025 0 0.08 0.025 0 0.1 0.025 0 0 0.03 0 0.02 0.03 0 0.04 0.03 0 0.06 0.03 0 0.08 0.03 0 0.1 0.03 0 0 0.035 0 0.02 0.035 0 0.04 0.035 0 0.06 0.035 0 0.08 0.035 0 0.1 0.035 0 0 0.04 0 0.02 0.04 0 0.04 0.04 0 0.06 0.04 0 0.08 0.04 0 0.1 0.04 0 0 0.045 0 0.02 0.045 0 0.04 0.045 0 0.06 0.045 0 0.08 0.045 0 0.1 0.045 0 0 0.05 0 0.02 0.05 0 0.04 0.05 0 0.06 0.05 0 0.08 0.05 0 0.1 0.05 0 0 0.055 0 0.02 0.055 0 0.04 0.055 0 0.06 0.055 0 0.08 0.055 0 0.1 0.055 0 0 0.06 0 0.02 0.06 0 0.04 0.06 0 0.06 0.06 0 0.08 0.06 0 0.1 0.06 0 0 0.065 0 0.02 0.065 0 0.04 0.065 0 0.06 0.065 0 0.08 0.065 0 0.1 0.065 0 0 0.07 0 0.02 0.07 0 0.04 0.07 0 0.06 0.07 0 0.08 0.07 0 0.1 0.07 0 0 0.075 0 0.02 0.075 0 0.04 0.075 0 0.06 0.075 0 0.08 0.075 0 0.1 0.075 0 0 0.08 0 0.02 0.08 0 0.04 0.08 0 0.06 0.08 0 0.08 0.08 0 0.1 0.08 0 0 0.085 0 0.02 0.085 0 0.04 0.085 0 0.06 0.085 0 0.08 0.085 0 0.1 0.085 0 0 0.09 0 0.02 0.09 0 0.04 0.09 0 0.06 0.09 0 0.08 0.09 0 0.1 0.09 0 0 0.095 0 0.02 0.095 0 0.04 0.095 0 0.06 0.095 0 0.08 0.095 0 0.1 0.095 0 0 0.1 0 0.02 0.1 0 0.04 0.1 0 0.06 0.1 0 0.08 0.1 0 0.1 0.1 0 0 0.105 0 0.02 0.105 0 0.04 0.105 0 0.06 0.105 0 0.08 0.105 0 0.1 0.105 0 0 0.11 0 0.02 0.11 0 0.04 0.11 0 0.06 0.11 0 0.08 0.11 0 0.1 0.11 0 0 0.115 0 0.02 0.115 0 0.04 0.115 0 0.06 0.115 0 0.08 0.115 0 0.1 0.115 0 0 0.12 0 0.02 0.12 0 0.04 0.12 0 0.06 0.12 0 0.08 0.12 0 0.1 0.12 0 0 0.125 0 0.02 0.125 0 0.04 0.125 0 0.06 0.125 0 0.08 0.125 0 0.1 0.125 0 0 0.13 0 0.02 0.13 0 0.04 0.13 0 0.06 0.13 0 0.08 0.13 0 0.1 0.13 0 0 0.135 0 0.02 0.135 0 0.04 0.135 0 0.06 0.135 0 0.08 0.135 0 0.1 0.135 0 0 0.14 0 0.02 0.14 0 0.04 0.14 0 0.06 0.14 0 0.08 0.14 0 0.1 0.14 0 0 0.145 0 0.02 0.145 0 0.04 0.145 0 0.06 0.145 0 0.08 0.145 0 0.1 0.145 0 0 0.15 0 0.02 0.15 0 0.04 0.15 0 0.06 0.15 0 0.08 0.15 0 0.1 0.15 0 0 0.155 0 0.02 0.155 0 0.04 0.155 0 0.06 0.155 0 0.08 0.155 0 0.1 0.155 0 0 0.16 0 0.02 0.16 0 0.04 0.16 0 0.06 0.16 0 0.08 0.16 0 0.1 0.16 0 0 0.165 0 0.02 0.165 0 0.04 0.165 0 0.06 0.165 0 0.08 0.165 0 0.1 0.165 0 0 0.17 0 0.02 0.17 0 0.04 0.17 0 0.06 0.17 0 0.08 0.17 0 0.1 0.17 0 0 0.175 0 0.02 0.175 0 0.04 0.175 0 0.06 0.175 0 0.08 0.175 0 0.1 0.175 0 0 0.18 0 0.02 0.18 0 0.04 0.18 0 0.06 0.18 0 0.08 0.18 0 0.1 0.18 0 0 0.185 0 0.02 0.185 0 0.04 0.185 0 0.06 0.185 0 0.08 0.185 0 0.1 0.185 0 0 0.19 0 0.02 0.19 0 0.04 0.19 0 0.06 0.19 0 0.08 0.19 0 0.1 0.19 0 0 0.195 0 0.02 0.195 0 0.04 0.195 0 0.06 0.195 0 0.08 0.195 0 0.1 0.195 0 0 0.2 0 0.02 0.2 0 0.04 0.2 0 0.06 0.2 0 0.08 0.2 0 0.1 0.2 0 0 0.205 0 0.02 0.205 0 0.04 0.205 0 0.06 0.205 0 0.08 0.205 0 0.1 0.205 0 0 0.21 0 0.02 0.21 0 0.04 0.21 0 0.06 0.21 0 0.08 0.21 0 0.1 0.21 0 0 0.215 0 0.02 0.215 0 0.04 0.215 0 0.06 0.215 0 0.08 0.215 0 0.1 0.215 0 0 0.22 0 0.02 0.22 0 0.04 0.22 0 0.06 0.22 0 0.08 0.22 0 0.1 0.22 0 0 0.225 0 0.02 0.225 0 0.04 0.225 0 0.06 0.225 0 0.08 0.225 0 0.1 0.225 0 0 0.23 0 0.02 0.23 0 0.04 0.23 0 0.06 0.23 0 0.08 0.23 0 0.1 0.23 0 0 0.235 0 0.02 0.235 0 0.04 0.235 0 0.06 0.235 0 0.08 0.235 0 0.1 0.235 0 0 0.24 0 0.02 0.24 0 0.04 0.24 0 0.06 0.24 0 0.08 0.24 0 0.1 0.24 0 0 0.245 0 0.02 0.245 0 0.04 0.245 0 0.06 0.245 0 0.08 0.245 0 0.1 0.245 0 0 0.25 0 0.02 0.25 0 0.04 0.25 0 0.06 0.25 0 0.08 0.25 0 0.1 0.25 0 0 0.255 0 0.02 0.255 0 0.04 0.255 0 0.06 0.255 0 0.08 0.255 0 0.1 0.255 0 0 0.26 0 0.02 0.26 0 0.04 0.26 0 0.06 0.26 0 0.08 0.26 0 0.1 0.26 0 0 0.265 0 0.02 0.265 0 0.04 0.265 0 0.06 0.265 0 0.08 0.265 0 0.1 0.265 0 0 0.27 0 0.02 0.27 0 0.04 0.27 0 0.06 0.27 0 0.08 0.27 0 0.1 0.27 0 0 0.275 0 0.02 0.275 0 0.04 0.275 0 0.06 0.275 0 0.08 0.275 0 0.1 0.275 0 0 0.28 0 0.02 0.28 0 0.04 0.28 0 0.06 0.28 0 0.08 0.28 0 0.1 0.28 0 0 0.285 0 0.02 0.285 0 0.04 0.285 0 0.06 0.285 0 0.08 0.285 0 0.1 0.285 0 0 0.29 0 0.02 0.29 0 0.04 0.29 0 0.06 0.29 0 0.08 0.29 0 0.1 0.29 0 0 0.295 0 0.02 0.295 0 0.04 0.295 0 0.06 0.295 0 0.08 0.295 0 0.1 0.295 0 0 0.3 0 0.02 0.3 0 0.04 0.3 0 0.06 0.3 0 0.08 0.3 0 0.1 0.3 0 0 0.305 0 0.02 0.305 0 0.04 0.305 0 0.06 0.305 0 0.08 0.305 0 0.1 0.305 0 0 0.31 0 0.02 0.31 0 0.04 0.31 0 0.06 0.31 0 0.08 0.31 0 0.1 0.31 0 0 0.315001 0 0.02 0.315001 0 0.04 0.315001 0 0.06 0.315001 0 0.08 0.315001 0 0.1 0.315001 0 0 0.320003 0 0.02 0.320003 0 0.04 0.320003 0 0.06 0.320003 0 0.08 0.320003 0 0.1 0.320003 0 0 0.32501 0 0.02 0.32501 0 0.04 0.32501 0 0.06 0.32501 0 0.08 0.32501 0 0.1 0.32501 0 0 0.330028 0 0.02 0.330028 0 0.04 0.330028 0 0.06 0.330028 0 0.08 0.330028 0 0.1 0.330028 0 0 0.335069 0 0.02 0.335069 0 0.04 0.335069 0 0.06 0.335069 0 0.08 0.335069 0 0.1 0.335069 0 0 0.340152 0 0.02 0.340152 0 0.04 0.340152 0 0.06 0.340152 0 0.08 0.340152 0 0.1 0.340152 0 0 0.345301 0 0.02 0.345301 0 0.04 0.345301 0 0.06 0.345301 0 0.08 0.345301 0 0.1 0.345301 0 0 0.350543 0 0.02 0.350543 0 0.04 0.350543 0 0.06 0.350543 0 0.08 0.350543 0 0.1 0.350543 0 0 0.355899 0 0.02 0.355899 0 0.04 0.355899 0 0.06 0.355899 0 0.08 0.355899 0 0.1 0.355899 0 0 0.361389 0 0.02 0.361389 0 0.04 0.361389 0 0.06 0.361389 0 0.08 0.361389 0 0.1 0.361389 0 0 0.367029 0 0.02 0.367029 0 0.04 0.367029 0 0.06 0.367029 0 0.08 0.367029 0 0.1 0.367029 0 0 0.372834 0 0.02 0.372834 0 0.04 0.372834 0 0.06 0.372834 0 0.08 0.372834 0 0.1 0.372834 0 0 0.378817 0 0.02 0.378817 0 0.04 0.378817 0 0.06 0.378817 0 0.08 0.378817 0 0.1 0.378817 0 0 0.384992 0 0.02 0.384992 0 0.04 0.384992 0 0.06 0.384992 0 0.08 0.384992 0 0.1 0.384992 0 0 0.391377 0 0.02 0.391377 0 0.04 0.391377 0 0.06 0.391377 0 0.08 0.391377 0 0.1 0.391377 0 0 0.397988 0 0.02 0.397988 0 0.04 0.397988 0 0.06 0.397988 0 0.08 0.397988 0 0.1 0.397988 0 0 0.404844 0 0.02 0.404844 0 0.04 0.404844 0 0.06 0.404844 0 0.08 0.404844 0 0.1 0.404844 0 0 0.411967 0 0.02 0.411967 0 0.04 0.411967 0 0.06 0.411967 0 0.08 0.411967 0 0.1 0.411967 0 0 0.419381 0 0.02 0.419381 0 0.04 0.419381 0 0.06 0.419381 0 0.08 0.419381 0 0.1 0.419381 0 0 0.427114 0 0.02 0.427114 0 0.04 0.427114 0 0.06 0.427114 0 0.08 0.427114 0 0.1 0.427114 0 0 0.435197 0 0.02 0.435197 0 0.04 0.435197 0 0.06 0.435197 0 0.08 0.435197 0 0.1 0.435197 0 0 0.443666 0 0.02 0.443666 0 0.04 0.443666 0 0.06 0.443666 0 0.08 0.443666 0 0.1 0.443666 0 0 0.452562 0 0.02 0.452562 0 0.04 0.452562 0 0.06 0.452562 0 0.08 0.452562 0 0.1 0.452562 0 0 0.46193 0 0.02 0.46193 0 0.04 0.46193 0 0.06 0.46193 0 0.08 0.46193 0 0.1 0.46193 0 0 0.471824 0 0.02 0.471824 0 0.04 0.471824 0 0.06 0.471824 0 0.08 0.471824 0 0.1 0.471824 0 0 0.482296 0 0.02 0.482296 0 0.04 0.482296 0 0.06 0.482296 0 0.08 0.482296 0 0.1 0.482296 0 0 0.493389 0 0.02 0.493389 0 0.04 0.493389 0 0.06 0.493389 0 0.08 0.493389 0 0.1 0.493389 0 0 0.505101 0 0.02 0.505101 0 0.04 0.505101 0 0.06 0.505101 0 0.08 0.505101 0 0.1 0.505101 0 0 0.517252 0 0.02 0.517252 0 0.04 0.517252 0 0.06 0.517252 0 0.08 0.517252 0 0.1 0.517252 0 0 0.529406 0 0.02 0.529406 0 0.04 0.529406 0 0.06 0.529406 0 0.08 0.529406 0 0.1 0.529406 0 0 0.541427 0 0.02 0.541427 0 0.04 0.541427 0 0.06 0.541427 0 0.08 0.541427 0 0.1 0.541427 0 0 0.553322 0 0.02 0.553322 0 0.04 0.553322 0 0.06 0.553322 0 0.08 0.553322 0 0.1 0.553322 0 0 0.565129 0 0.02 0.565129 0 0.04 0.565129 0 0.06 0.565129 0 0.08 0.565129 0 0.1 0.565129 0 0 0.576888 0 0.02 0.576888 0 0.04 0.576888 0 0.06 0.576888 0 0.08 0.576888 0 0.1 0.576888 0 0 0.58863 0 0.02 0.58863 0 0.04 0.58863 0 0.06 0.58863 0 0.08 0.58863 0 0.1 0.58863 0 0 0.600364 0 0.02 0.600364 0 0.04 0.600364 0 0.06 0.600364 0 0.08 0.600364 0 0.1 0.600364 0 0 0.612098 0 0.02 0.612098 0 0.04 0.612098 0 0.06 0.612098 0 0.08 0.612098 0 0.1 0.612098 0 0 0.623844 0 0.02 0.623844 0 0.04 0.623844 0 0.06 0.623844 0 0.08 0.623844 0 0.1 0.623844 0 0 0.626452 0 0.02 0.626452 0 0.04 0.626452 0 0.06 0.626452 0 0.08 0.626452 0 0.1 0.626452 0 0 0.628987 0 0.02 0.628987 0 0.04 0.628987 0 0.06 0.628987 0 0.08 0.628987 0 0.1 0.628987 0 0 0.631476 0 0.02 0.631476 0 0.04 0.631476 0 0.06 0.631476 0 0.08 0.631476 0 0.1 0.631476 0 0 0.633935 0 0.02 0.633935 0 0.04 0.633935 0 0.06 0.633935 0 0.08 0.633935 0 0.1 0.633935 0 0 0.636373 0 0.02 0.636373 0 0.04 0.636373 0 0.06 0.636373 0 0.08 0.636373 0 0.1 0.636373 0 0 0.638794 0 0.02 0.638794 0 0.04 0.638794 0 0.06 0.638794 0 0.08 0.638794 0 0.1 0.638794 0 0 0.641204 0 0.02 0.641204 0 0.04 0.641204 0 0.06 0.641204 0 0.08 0.641204 0 0.1 0.641204 0 0 0.643608 0 0.02 0.643608 0 0.04 0.643608 0 0.06 0.643608 0 0.08 0.643608 0 0.1 0.643608 0 0 0.646009 0 0.02 0.646009 0 0.04 0.646009 0 0.06 0.646009 0 0.08 0.646009 0 0.1 0.646009 0 0 0.648412 0 0.02 0.648412 0 0.04 0.648412 0 0.06 0.648412 0 0.08 0.648412 0 0.1 0.648412 0 0 0.650817 0 0.02 0.650817 0 0.04 0.650817 0 0.06 0.650817 0 0.08 0.650817 0 0.1 0.650817 0 0 0.653224 0 0.02 0.653224 0 0.04 0.653224 0 0.06 0.653224 0 0.08 0.653224 0 0.1 0.653224 0 0 0.655627 0 0.02 0.655627 0 0.04 0.655627 0 0.06 0.655627 0 0.08 0.655627 0 0.1 0.655627 0 0 0.658025 0 0.02 0.658025 0 0.04 0.658025 0 0.06 0.658025 0 0.08 0.658025 0 0.1 0.658025 0 0 0.660417 0 0.02 0.660417 0 0.04 0.660417 0 0.06 0.660417 0 0.08 0.660417 0 0.1 0.660417 0 0 0.662803 0 0.02 0.662803 0 0.04 0.662803 0 0.06 0.662803 0 0.08 0.662803 0 0.1 0.662803 0 0 0.665184 0 0.02 0.665184 0 0.04 0.665184 0 0.06 0.665184 0 0.08 0.665184 0 0.1 0.665184 0 0 0.667563 0 0.02 0.667563 0 0.04 0.667563 0 0.06 0.667563 0 0.08 0.667563 0 0.1 0.667563 0 0 0.66994 0 0.02 0.66994 0 0.04 0.66994 0 0.06 0.66994 0 0.08 0.66994 0 0.1 0.66994 0 0 0.672315 0 0.02 0.672315 0 0.04 0.672315 0 0.06 0.672315 0 0.08 0.672315 0 0.1 0.672315 0 0 0.674688 0 0.02 0.674688 0 0.04 0.674688 0 0.06 0.674688 
[...]
			<PointData Scalars="VitesseX">
				<DataArray Name="VitesseX" type="Float32" format="ascii">
 0 9.77772e-16 2.47467e-15 -5.91271e-15 -8.59259e-15 0 0 1.08198e-15 2.02174e-15 -5.97594e-15 -8.21988e-15 0 0 1.77008e-15 -4.6773e-16 -4.9182e-15 -8.14068e-15 0 0 2.27799e-15 -2.98548e-15 -3.88339e-15 -8.51604e-15 0 0 1.98818e-15 -4.95535e-15 -3.9006e-15 -8.05305e-15 0 0 8.91605e-16 -5.968e-15 -3.7492e-15 -7.77162e-15 0 0 -1.53633e-15 -5.66345e-15 -1.66914e-15 -1.05985e-14 0 0 -3.01311e-15 -5.52227e-15 -3.01962e-16 -1.19807e-14 0 0 -2.66973e-15 -3.77301e-15 -1.69776e-15 -1.25423e-14 0 0 -1.92155e-15 -2.37426e-15 -2.93477e-15 -1.26079e-14 0 0 -7.80573e-16 -2.67183e-15 -9.41917e-17 -1.13637e-14 0 0 7.30528e-16 -1.348e-15 3.03261e-15 -1.14865e-14 0 0 1.48619e-15 3.17343e-15 2.89247e-15 -8.6861e-15 0 0 2.48072e-15 4.26504e-15 6.62989e-15 -5.47871e-15 0 0 2.34604e-15 4.32656e-15 1.1704e-14 -3.87811e-15 0 0 2.7795e-15 6.36011e-15 1.07955e-14 1.48838e-15 0 0 5.01188e-15 1.96197e-15 1.36157e-14 3.15318e-15 0 0 6.0352e-15 5.05646e-16 1.44939e-14 2.65572e-15 0 0 4.33991e-15 6.94132e-15 5.7007e-15 4.89021e-15 0 0 2.7968e-15 9.62517e-15 1.00367e-16 6.70236e-15 0 0 3.0204e-15 9.58972e-15 -4.68556e-15 1.16683e-14 0 0 2.29306e-15 4.3983e-15 -5.96211e-15 1.06577e-14 0 0 4.30579e-15 -2.35382e-15 -3.16955e-15 9.10568e-15 0 0 4.64484e-15 -1.4652e-15 -1.60989e-17 6.56372e-15 0 0 9.66551e-17 4.36743e-15 4.35234e-16 1.965e-16 0 0 -7.40574e-16 5.61978e-15 5.71827e-16 -7.01239e-15 0 0 -1.51675e-15 3.30093e-15 4.22211e-15 -1.60266e-14 0 0 -2.98088e-15 1.66221e-15 5.18846e-15 -1.32563e-14 0 0 -1.38347e-15 -4.02238e-16 5.27979e-15 -6.24197e-15 0 0 1.16829e-16 -1.34043e-16 5.86346e-15 -6.75596e-15 0 0 -2.80024e-16 1.97723e-15 5.78808e-15 -7.34321e-15 0 0 -3.13688e-16 3.3462e-15 7.35247e-15 -5.48147e-15 0 0 3.22573e-15 1.05037e-14 -9.34105e-16 4.25888e-15 0 0 5.00068e-15 8.7482e-15 -3.21523e-15 2.05704e-14 0 0 1.01673e-14 -6.52323e-15 1.62293e-14 1.85941e-14 0 0 6.78039e-15 1.26255e-15 2.07235e-14 -1.20498e-16 0 0 -3.14675e-15 1.46886e-14 1.04242e-14 -3.50482e-15 0 0 -3.03239e-15 1.11913e-14 9.72565e-15 -2.80584e-15 0 0 -1.28426e-15 7.09326e-15 1.39066e-14 -6.85207e-15 0 0 -1.8692e-15 3.97634e-15 1.36241e-14 1.9875e-15 0 0 -4.97826e-15 -2.3339e-15 2.01291e-14 4.76743e-15 0 0 1.4942e-15 -1.71124e-14 2.78374e-14 8.84917e-15 0 0 5.25564e-15 -1.1262e-14 1.34361e-14 2.39288e-14 0 0 1.58684e-15 3.88024e-15 1.38284e-15 2.89329e-14 0 0 -2.43304e-16 4.57296e-15 7.3889e-15 1.89466e-14 0 0 1.52049e-15 -3.01988e-16 1.69967e-14 1.24503e-14 0 0 6.50901e-15 -2.09362e-15 1.78062e-14 1.22166e-14 0 0 1.49937e-14 -3.15548e-15 1.60453e-14 -4.55568e-17 0 0 1.64999e-14 3.50855e-15 1.18753e-14 -7.96053e-15 0 0 1.11905e-14 2.10489e-14 2.6377e-15 1.16295e-15 0 0 1.14419e-14 2.68003e-14 1.14267e-14 1.18029e-14 0 0 1.99413e-14 3.82237e-14 3.44071e-14 1.04283e-14 0 0 3.53822e-14 6.37751e-14 4.17781e-14 1.15569e-14 0 0 4.47347e-14 7.56059e-14 5.7123e-14 4.73329e-15 0 0 6.31757e-14 6.14686e-14 8.24539e-14 -1.03275e-16 0 0 7.72098e-14 5.93885e-14 8.89689e-14 3.96554e-15 0 0 7.64291e-14 7.77223e-14 7.99214e-14 2.12521e-14 0 0 6.52051e-14 9.34299e-14 7.19737e-14 4.31712e-14 0 0 5.67259e-14 9.09716e-14 7.44886e-14 4.81079e-14 0 0 7.48817e-14 6.59269e-14 7.53547e-14 5.62829e-14 0 0 6.96865e-14 6.35487e-14 5.96782e-14 7.34598e-14 0 0 4.27668e-14 7.03817e-14 5.21838e-14 8.35989e-14 0 0 2.06109e-14 6.25719e-14 6.58723e-14 7.49537e-14 0 0 1.22429e-14 4.94721e-14 7.30779e-14 5.5876e-14 0 0 2.61305e-14 2.61361e-14 7.40882e-14 5.33991e-14 0 0 8.46966e-15 2.43194e-14 7.30742e-14 4.80719e-14 0 0 5.63035e-15 1.49333e-14 6.55944e-14 4.7561e-14 0 0 1.21206e-14 1.74932e-14 4.65635e-14 5.73899e-14 0 0 1.35022e-14 3.75153e-14 2.437e-14 4.46485e-14 0 0 2.44683e-14 2.77305e-14 2.31755e-14 1.64568e-14 0 0 2.10238e-14 1.85985e-14 3.03485e-14 1.20229e-15 0 0 2.06971e-14 3.00125e-14 4.02485e-15 1.94722e-14 0 0 1.74302e-14 3.39818e-14 -1.08644e-14 2.36576e-14 0 0 2.8163e-14 1.63142e-14 1.54587e-14 -3.45923e-16 0 0 4.07943e-14 2.25857e-14 1.88514e-14 -1.77831e-14 0 0 4.42853e-14 3.1569e-14 8.74762e-15 -1.45551e-14 0 0 3.58486e-14 1.75005e-14 3.11654e-14 -1.34972e-15 0 0 1.70429e-14 1.94025e-14 1.09112e-14 3.97823e-14 0 0 1.27544e-14 1.44098e-14 9.03833e-15 3.78463e-14 0 0 2.27829e-14 1.65134e-14 2.68156e-14 2.11319e-14 0 0 1.39344e-14 2.32462e-14 1.87804e-14 1.83508e-14 0 0 1.35242e-14 -4.39655e-16 5.44608e-14 -2.09553e-14 0 0 8.39279e-15 1.15584e-14 3.98131e-14 -2.2867e-14 0 0 -5.52509e-15 1.5565e-14 2.14187e-14 -4.58977e-15 0 0 -5.30266e-15 1.37115e-14 8.13751e-15 9.80857e-15 0 0 6.86671e-15 1.42176e-14 7.35396e-15 2.5581e-14 0 0 4.18295e-14 -6.44645e-15 2.60863e-14 2.43339e-14 0 0 2.3042e-14 -1.5341e-15 1.30138e-14 1.0417e-14 0 0 -2.07235e-14 1.32711e-15 1.26562e-14 -8.10532e-15 0 0 -1.31256e-14 -5.81692e-15 2.59216e-14 -4.55934e-16 0 0 -4.32637e-15 1.38496e-14 1.66506e-14 9.67195e-15 0 0 6.19075e-16 1.64158e-14 -9.4604e-15 -3.08917e-15 0 0 2.65697e-16 -5.29463e-15 -1.37631e-14 1.75185e-15 0 0 -2.65874e-15 2.04597e-15 3.04979e-15 2.78611e-14 0 0 1.35227e-14 3.12464e-14 3.17386e-14 3.12317e-14 0 0 2.86953e-14 6.45657e-14 5.19378e-14 3.95108e-14 0 0 4.9223e-14 8.7412e-14 6.90353e-14 5.4617e-14 0 0 5.90719e-14 1.00488e-13 8.51047e-14 5.16495e-14 0 0 6.3717e-14 1.03126e-13 9.41909e-14 6.36257e-14 0 0 7.18938e-14 9.9884e-14 1.05396e-13 7.51675e-14 0 0 7.83156e-14 1.11634e-13 1.39077e-13 8.6037e-14 0 0 1.13875e-13 2.05666e-13 1.95191e-13 1.37336e-13 0 0 1.12684e-13 2.24226e-13 1.81425e-13 1.02782e-13 0 0 1.2747e-13 2.09697e-13 2.03483e-13 8.4296e-14 0 0 1.37104e-13 2.00209e-13 1.94562e-13 1.33652e-13 0 0 1.59744e-13 2.34447e-13 1.38683e-13 1.54404e-13 0 0 1.521e-13 2.39085e-13 1.84918e-13 1.08131e-13 0 0 1.37442e-13 2.20142e-13 2.14937e-13 5.64143e-14 0 0 1.17396e-13 1.9404e-13 1.37838e-13 7.36734e-14 0 0 6.88207e-14 1.21047e-13 6.70691e-14 6.02369e-14 0 0 1.45956e-14 1.76581e-14 -4.97231e-14 -5.30393e-15 0 0 -4.80168e-14 -6.92093e-14 -1.27255e-13 -6.28866e-14 0 0 -7.84366e-14 -9.76932e-14 -1.74258e-13 -9.17714e-14 0 0 -8.79991e-14 -1.02593e-13 -2.19443e-13 -1.05792e-13 0 0 -8.73397e-14 -1.22816e-13 -1.91385e-13 -5.24687e-14 0 0 -9.92356e-14 -1.13065e-13 -1.43959e-13 -1.44643e-14 0 0 -8.29912e-14 -6.84345e-14 -1.28979e-13 -5.29104e-15 0 0 -5.55311e-14 -6.31338e-14 -8.43257e-14 1.33574e-14 0 0 -3.38184e-14 -8.76707e-14 -2.00203e-14 -1.07292e-14 0 0 -1.13169e-14 -7.18634e-14 9.88865e-15 2.4098e-16 0 0 8.7246e-15 -2.42151e-14 -6.59204e-15 3.51323e-14 0 0 4.70482e-14 -3.47017e-14 1.43195e-14 4.90276e-14 0 0 9.0073e-14 -2.82635e-14 4.97056e-14 4.97622e-14 0 0 8.33073e-14 3.4747e-14 6.02115e-14 2.71364e-14 0 0 8.7319e-14 7.75437e-14 9.48154e-16 8.07117e-14 0 0 7.63166e-14 9.5585e-14 3.97604e-14 1.43543e-13 0 0 4.85974e-14 1.60173e-13 8.09609e-14 1.17039e-13 0 0 7.78816e-14 1.47748e-13 9.1841e-14 1.2287e-13 0 0 9.80606e-14 1.21293e-13 1.45977e-13 1.58239e-13 0 0 9.84439e-14 1.60218e-13 1.01651e-13 2.39416e-13 0 0 1.19142e-13 1.60989e-13 1.18133e-13 2.71525e-13 0 0 1.81874e-13 6.96232e-14 2.32595e-13 1.64111e-13 0 0 1.63907e-13 7.09046e-14 2.68417e-13 1.7519e-13 0 0 1.13023e-13 1.54957e-13 1.86722e-13 2.56638e-13 0 0 1.03498e-13 1.45168e-13 1.84167e-13 1.83945e-13 0 0 9.34805e-14 1.27553e-13 2.74616e-13 6.93101e-14 0 0 6.6828e-14 1.24885e-13 3.88377e-13 -1.19334e-13 0 0 5.63805e-14 1.12428e-13 4.55834e-13 -2.22947e-13 0 0 8.94964e-14 7.30808e-14 4.51918e-13 -1.78105e-13 0 0 1.22753e-13 7.17107e-14 3.74284e-13 -5.66879e-14 0 0 1.08927e-13 1.82982e-13 2.16637e-13 5.75882e-14 0 0 1.11981e-13 2.42113e-13 1.37401e-13 3.99219e-14 0 0 1.68643e-13 1.00897e-13 2.53668e-13 3.26032e-14 0 0 1.50169e-13 4.26199e-14 2.93431e-13 9.23533e-14 0 0 1.14799e-13 1.11245e-13 2.01541e-13 1.15525e-13 0 0 1.01374e-13 1.2316e-13 1.3104e-13 1.55252e-13 0 0 7.07103e-14 1.50467e-13 1.01418e-13 1.73932e-13 0 0 5.70326e-14 1.83949e-13 8.60633e-14 1.63046e-13 0 0 7.12489e-14 1.42673e-13 7.35451e-14 1.56819e-13 0 0 7.76846e-14 1.01098e-13 1.32719e-13 8.95417e-14 0 0 7.47249e-14 1.01805e-13 1.7438e-13 1.00358e-13 0 0 6.88148e-14 1.37159e-13 1.60117e-13 1.07053e-13 0 0 7.64053e-14 1.59989e-13 1.59416e-13 1.10631e-13 0 0 6.9355e-14 1.61629e-13 1.90072e-13 9.26989e-14 0 0 6.42009e-14 1.65945e-13 2.32544e-13 6.91711e-14 0 0 5.87829e-14 1.7403e-13 2.33126e-13 1.07343e-13 0 0 5.93234e-14 1.89295e-13 2.2509e-13 9.94003e-14 0 0 6.78446e-14 1.89578e-13 2.41434e-13 7.80787e-14 0 0 7.67304e-14 1.70072e-13 2.68585e-13 8.14604e-14 0 0 8.4513e-14 1.72269e-13 2.63119e-13 7.2856e-14 0 0 8.07398e-14 1.6941e-13 2.60605e-13 1.02293e-13 0 0 6.79341e-14 1.56354e-13 2.79745e-13 1.19272e-13 0 0 6.91763e-14 1.76977e-13 2.579e-13 1.14593e-13 0 0 9.00454e-14 1.65516e-13 2.49243e-13 1.43748e-13 0 0 9.77178e-14 1.51585e-13 2.44707e-13 1.64957e-13 0 0 9.25708e-14 1.77291e-13 2.19639e-13 1.73926e-13 0 0 9.75722e-14 1.71864e-13 2.37229e-13 1.37948e-13 0 0 1.11215e-13 1.29034e-13 2.96285e-13 8.1579e-14 0 0 8.89525e-14 1.313e-13 2.82183e-13 8.68674e-14 0 0 5.2461e-14 1.63786e-13 2.27352e-13 1.27964e-13 0 0 4.88691e-14 1.52596e-13 2.18625e-13 1.37121e-13 0 0 5.5053e-14 1.38153e-13 1.84422e-13 1.21841e-13 0 0 5.51885e-14 1.29665e-13 1.41173e-13 1.21729e-13 0 0 7.92024e-14 7.84507e-14 1.39973e-13 1.19062e-13 0 0 6.5448e-14 5.68616e-14 1.53493e-13 8.11458e-14 0 0 1.56e-14 9.33658e-14 8.95566e-14 8.3997e-14 0 0 1.10145e-14 9.85925e-14 5.74011e-14 7.77974e-14 0 0 7.45096e-15 1.11339e-13 5.89435e-14 6.9095e-14 0 0 1.26066e-14 9.88494e-14 9.25092e-14 5.67632e-14 0 0 7.30596e-17 1.03621e-13 9.6925e-14 5.14605e-14 0 0 4.47973e-15 8.05986e-14 7.81456e-14 6.85581e-14 0 0 3.91569e-14 1.46785e-14 8.08262e-14 9.87106e-14 0 0 1.85053e-14 3.6443e-14 2.65085e-14 1.60893e-13 0 0 7.15352e-15 4.0061e-14 4.15156e-14 1.44719e-13 0 0 -1.06161e-14 4.7522e-14 7.96283e-14 9.19218e-14 0 0 -4.07274e-14 8.68228e-14 9.00748e-14 3.65332e-14 0 0 -1.96346e-14 7.60062e-14 8.98808e-14 2.12063e-14 0 0 5.78764e-15 5.63076e-14 6.62306e-14 8.66313e-14 0 0 1.24916e-14 6.49841e-14 4.75893e-14 1.36825e-13 0 0 1.08289e-14 4.70626e-14 7.67575e-14 1.25909e-13 0 0 2.364e-15 4.3354e-14 8.45954e-14 1.08043e-13 0 0 2.68373e-14 3.69622e-14 7.77543e-14 7.5248e-14 0 0 2.61248e-14 5.69678e-14 8.59759e-14 4.8749e-14 0 0 2.09298e-14 6.93977e-14 7.90974e-14 3.6644e-14 0 0 4.16685e-14 3.49578e-14 6.90906e-14 3.81556e-14 0 0 2.66321e-14 3.29635e-14 8.70843e-14 4.1695e-14 0 0 2.24179e-14 5.13505e-14 9.32851e-14 4.75521e-14 0 0 1.16404e-14 7.36865e-14 7.89174e-14 2.25451e-14 0 0 4.66391e-15 5.59261e-14 1.05717e-13 -4.21686e-15 0 0 2.38992e-14 5.10033e-14 9.02704e-14 2.40171e-14 0 0 2.88596e-14 7.44594e-14 5.58882e-14 4.24602e-14 0
				</DataArray>
				<DataArray Name="VitesseY" type="Float32" format="ascii">