<?xml version="1.0"?>
<VTKFile type="PolyData">
	<PolyData>
		<Piece NumberOfPoints="1206" NumberOfPolys="1000">
			<Points>
				<DataArray type="Float32" NumberOfComponents="3" format="ascii">
 0 0 0 0.02 0 0 0.04 0 0 0.06 0 0 0.08 0 0 0.1 0 0 0 0.005 0 0.02 0.005 0 0.04 0.005 0 0.06 0.005 0 0.08 0.005 0 0.1 0.005 0 0 0.01 0 0.02 0.01 0 0.04 0.01 0 0.06 0.01 0 0.08 0.01 0 0.1 0.01 0 0 0.015 0 0.02 0.015 0 0.04 0.015 0 0.06 0.015 0 0.08 0.015 0 0.1 0.015 0 0 0.02 0 0.02 0.02 0 0.04 0.02 0 0.06 0.02 0 0.08 0.02 0 0.1 0.02 0 0 0.025 0 0.02 0.025 0 0.04 0.025 0 0.06 0.025 0 0.08 0.025 0 0.1 0.025 0 0 0.03 0 0.02 0.03 0 0.04 0.03 0 0.06 0.03 0 0.08 0.03 0 0.1 0.03 0 0 0.035 0 0.02 0.035 0 0.04 0.035 0 0.06 0.035 0 0.08 0.035 0 0.1 0.035 0 0 0.04 0 0.02 0.04 0 0.04 0.04 0 0.06 0.04 0 0.08 0.04 0 0.1 0.04 0 0 0.045 0 0.02 0.045 0 0.04 0.045 0 0.06 0.045 0 0.08 0.045 0 0.1 0.045 0 0 0.05 0 0.02 0.05 0 0.04 0.05 0 0.06 0.05 0 0.08 0.05 0 0.1 0.05 0 0 0.055 0 0.02 0.055 0 0.04 0.055 0 0.06 0.055 0 0.08 0.055 0 0.1 0.055 0 0 0.06 0 0.02 0.06 0 0.04 0.06 0 0.06 0.06 0 0.08 0.06 0 0.1 0.06 0 0 0.065 0 0.02 0.065 0 0.04 0.065 0 0.06 0.065 0 0.08 0.065 0 0.1 0.065 0 0 0.07 0 0.02 0.07 0 0.04 0.07 0 0.06 0.07 0 0.08 0.07 0 0.1 0.07 0 0 0.075 0 0.02 0.075 0 0.04 0.075 0 0.06 0.075 0 0.08 0.075 0 0.1 0.075 0 0 0.08 0 0.02 0.08 0 0.04 0.08 0 0.06 0.08 0 0.08 0.08 0 0.1 0.08 0 0 0.085 0 0.02 0.085 0 0.04 0.085 0 0.06 0.085 0 0.08 0.085 0 0.1 0.085 0 0 0.09 0 0.02 0.09 0 0.04 0.09 0 0.06 0.09 0 0.08 0.09 0 0.1 0.09 0 0 0.095 0 0.02 0.095 0 0.04 0.095 0 0.06 0.095 0 0.08 0.095 0 0.1 0.095 0 0 0.1 0 0.02 0.1 0 0.04 0.1 0 0.06 0.1 0 0.08 0.1 0 0.1 0.1 0 0 0.105 0 0.02 0.105 0 0.04 0.105 0 0.06 0.105 0 0.08 0.105 0 0.1 0.105 0 0 0.11 0 0.02 0.11 0 0.04 0.11 0 0.06 0.11 0 0.08 0.11 0 0.1 0.11 0 0 0.115 0 0.02 0.115 0 0.04 0.115 0 0.06 0.115 0 0.08 0.115 0 0.1 0.115 0 0 0.12 0 0.02 0.12 0 0.04 0.12 0 0.06 0.12 0 0.08 0.12 0 0.1 0.12 0 0 0.125 0 0.02 0.125 0 0.04 0.125 0 0.06 0.125 0 0.08 0.125 0 0.1 0.125 0 0 0.13 0 0.02 0.13 0 0.04 0.13 0 0.06 0.13 0 0.08 0.13 0 0.1 0.13 0 0 0.135 0 0.02 0.135 0 0.04 0.135 0 0.06 0.135 0 0.08 0.135 0 0.1 0.135 0 0 0.14 0 0.02 0.14 0 0.04 0.14 0 0.06 0.14 0 0.08 0.14 0 0.1 0.14 0 0 0.145 0 0.02 0.145 0 0.04 0.145 0 0.06 0.145 0 0.08 0.145 0 0.1 0.145 0 0 0.15 0 0.02 0.15 0 0.04 0.15 0 0.06 0.15 0 0.08 0.15 0 0.1 0.15 0 0 0.155 0 0.02 0.155 0 0.04 0.155 0 0.06 0.155 0 0.08 0.155 0 0.1 0.155 0 0 0.16 0 0.02 0.16 0 0.04 0.16 0 0.06 0.16 0 0.08 0.16 0 0.1 0.16 0 0 0.165 0 0.02 0.165 0 0.04 0.165 0 0.06 0.165 0 0.08 0.165 0 0.1 0.165 0 0 0.17 0 0.02 0.17 0 0.04 0.17 0 0.06 0.17 0 0.08 0.17 0 0.1 0.17 0 0 0.175 0 0.02 0.175 0 0.04 0.175 0 0.06 0.175 0 0.08 0.175 0 0.1 0.175 0 0 0.18 0 0.02 0.18 0 0.04 0.18 0 0.06 0.18 0 0.08 0.18 0 0.1 0.18 0 0 0.185 0 0.02 0.185 0 0.04 0.185 0 0.06 0.185 0 0.08 0.185 0 0.1 0.185 0 0 0.19 0 0.02 0.19 0 0.04 0.19 0 0.06 0.19 0 0.08 0.19 0 0.1 0.19 0 0 0.195 0 0.02 0.195 0 0.04 0.195 0 0.06 0.195 0 0.08 0.195 0 0.1 0.195 0 0 0.2 0 0.02 0.2 0 0.04 0.2 0 0.06 0.2 0 0.08 0.2 0 0.1 0.2 0 0 0.205 0 0.02 0.205 0 0.04 0.205 0 0.06 0.205 0 0.08 0.205 0 0.1 0.205 0 0 0.21 0 0.02 0.21 0 0.04 0.21 0 0.06 0.21 0 0.08 0.21 0 0.1 0.21 0 0 0.215 0 0.02 0.215 0 0.04 0.215 0 0.06 0.215 0 0.08 0.215 0 0.1 0.215 0 0 0.22 0 0.02 0.22 0 0.04 0.22 0 0.06 0.22 0 0.08 0.22 0 0.1 0.22 0 0 0.225 0 0.02 0.225 0 0.04 0.225 0 0.06 0.225 0 0.08 0.225 0 0.1 0.225 0 0 0.23 0 0.02 0.23 0 0.04 0.23 0 0.06 0.23 0 0.08 0.23 0 0.1 0.23 0 0 0.235 0 0.02 0.235 0 0.04 0.235 0 0.06 0.235 0 0.08 0.235 0 0.1 0.235 0 0 0.24 0 0.02 0.24 0 0.04 0.24 0 0.06 0.24 0 0.08 0.24 0 0.1 0.24 0 0 0.245 0 0.02 0.245 0 0.04 0.245 0 0.06 0.245 0 0.08 0.245 0 0.1 0.245 0 0 0.25 0 0.02 0.25 0 0.04 0.25 0 0.06 0.25 0 0.08 0.25 0 0.1 0.25 0 0 0.255 0 0.02 0.255 0 0.04 0.255 0 0.06 0.255 0 0.08 0.255 0 0.1 0.255 0 0 0.26 0 0.02 0.26 0 0.04 0.26 0 0.06 0.26 0 0.08 0.26 0 0.1 0.26 0 0 0.265 0 0.02 0.265 0 0.04 0.265 0 0.06 0.265 0 0.08 0.265 0 0.1 0.265 0 0 0.27 0 0.02 0.27 0 0.04 0.27 0 0.06 0.27 0 0.08 0.27 0 0.1 0.27 0 0 0.275 0 0.02 0.275 0 0.04 0.275 0 0.06 0.275 0 0.08 0.275 0 0.1 0.275 0 0 0.28 0 0.02 0.28 0 0.04 0.28 0 0.06 0.28 0 0.08 0.28 0 0.1 0.28 0 0 0.285 0 0.02 0.285 0 0.04 0.285 0 0.06 0.285 0 0.08 0.285 0 0.1 0.285 0 0 0.29 0 0.02 0.29 0 0.04 0.29 0 0.06 0.29 0 0.08 0.29 0 0.1 0.29 0 0 0.295 0 0.02 0.295 0 0.04 0.295 0 0.06 0.295 0 0.08 0.295 0 0.1 0.295 0 0 0.3 0 0.02 0.3 0 0.04 0.3 0 0.06 0.3 0 0.08 0.3 0 0.1 0.3 0 0 0.305 0 0.02 0.305 0 0.04 0.305 0 0.06 0.305 0 0.08 0.305 0 0.1 0.305 0 0 0.31 0 0.02 0.31 0 0.04 0.31 0 0.06 0.31 0 0.08 0.31 0 0.1 0.31 0 0 0.315 0 0.02 0.315 0 0.04 0.315 0 0.06 0.315 0 0.08 0.315 0 0.1 0.315 0 0 0.32 0 0.02 0.32 0 0.04 0.32 0 0.06 0.32 0 0.08 0.32 0 0.1 0.32 0 0 0.325 0 0.02 0.325 0 0.04 0.325 0 0.06 0.325 0 0.08 0.325 0 0.1 0.325 0 0 0.33 0 0.02 0.33 0 0.04 0.33 0 0.06 0.33 0 0.08 0.33 0 0.1 0.33 0 0 0.335 0 0.02 0.335 0 0.04 0.335 0 0.06 0.335 0 0.08 0.335 0 0.1 0.335 0 0 0.34 0 0.02 0.34 0 0.04 0.34 0 0.06 0.34 0 0.08 0.34 0 0.1 0.34 0 0 0.345 0 0.02 0.345 0 0.04 0.345 0 0.06 0.345 0 0.08 0.345 0 0.1 0.345 0 0 0.35 0 0.02 0.35 0 0.04 0.35 0 0.06 0.35 0 0.08 0.35 0 0.1 0.35 0 0 0.355 0 0.02 0.355 0 0.04 0.355 0 0.06 0.355 0 0.08 0.355 0 0.1 0.355 0 0 0.36 0 0.02 0.36 0 0.04 0.36 0 0.06 0.36 0 0.08 0.36 0 0.1 0.36 0 0 0.365 0 0.02 0.365 0 0.04 0.365 0 0.06 0.365 0 0.08 0.365 0 0.1 0.365 0 0 0.37 0 0.02 0.37 0 0.04 0.37 0 0.06 0.37 0 0.08 0.37 0 0.1 0.37 0 0 0.375 0 0.02 0.375 0 0.04 0.375 0 0.06 0.375 0 0.08 0.375 0 0.1 0.375 0 0 0.38 0 0.02 0.38 0 0.04 0.38 0 0.06 0.38 0 0.08 0.38 0 0.1 0.38 0 0 0.385 0 0.02 0.385 0 0.04 0.385 0 0.06 0.385 0 0.08 0.385 0 0.1 0.385 0 0 0.39 0 0.02 0.39 0 0.04 0.39 0 0.06 0.39 0 0.08 0.39 0 0.1 0.39 0 0 0.395002 0 0.02 0.395002 0 0.04 0.395002 0 0.06 0.395002 0 0.08 0.395002 0 0.1 0.395002 0 0 0.400007 0 0.02 0.400007 0 0.04 0.400007 0 0.06 0.400007 0 0.08 0.400007 0 0.1 0.400007 0 0 0.405027 0 0.02 0.405027 0 0.04 0.405027 0 0.06 0.405027 0 0.08 0.405027 0 0.1 0.405027 0 0 0.410083 0 0.02 0.410083 0 0.04 0.410083 0 0.06 0.410083 0 0.08 0.410083 0 0.1 0.410083 0 0 0.415219 0 0.02 0.415219 0 0.04 0.415219 0 0.06 0.415219 0 0.08 0.415219 0 0.1 0.415219 0 0 0.420492 0 0.02 0.420492 0 0.04 0.420492 0 0.06 0.420492 0 0.08 0.420492 0 0.1 0.420492 0 0 0.425968 0 0.02 0.425968 0 0.04 0.425968 0 0.06 0.425968 0 0.08 0.425968 0 0.1 0.425968 0 0 0.431704 0 0.02 0.431704 0 0.04 0.431704 0 0.06 0.431704 0 0.08 0.431704 0 0.1 0.431704 0 0 0.437752 0 0.02 0.437752 0 0.04 0.437752 0 0.06 0.437752 0 0.08 0.437752 0 0.1 0.437752 0 0 0.444169 0 0.02 0.444169 0 0.04 0.444169 0 0.06 0.444169 0 0.08 0.444169 0 0.1 0.444169 0 0 0.451013 0 0.02 0.451013 0 0.04 0.451013 0 0.06 0.451013 0 0.08 0.451013 0 0.1 0.451013 0 0 0.458358 0 0.02 0.458358 0 0.04 0.458358 0 0.06 0.458358 0 0.08 0.458358 0 0.1 0.458358 0 0 0.466292 0 0.02 0.466292 0 0.04 0.466292 0 0.06 0.466292 0 0.08 0.466292 0 0.1 0.466292 0 0 0.474927 0 0.02 0.474927 0 0.04 0.474927 0 0.06 0.474927 0 0.08 0.474927 0 0.1 0.474927 0 0 0.484397 0 0.02 0.484397 0 0.04 0.484397 0 0.06 0.484397 0 0.08 0.484397 0 0.1 0.484397 0 0 0.494855 0 0.02 0.494855 0 0.04 0.494855 0 0.06 0.494855 0 0.08 0.494855 0 0.1 0.494855 0 0 0.506398 0 0.02 0.506398 0 0.04 0.506398 0 0.06 0.506398 0 0.08 0.506398 0 0.1 0.506398 0 0 0.518725 0 0.02 0.518725 0 0.04 0.518725 0 0.06 0.518725 0 0.08 0.518725 0 0.1 0.518725 0 0 0.530947 0 0.02 0.530947 0 0.04 0.530947 0 0.06 0.530947 0 0.08 0.530947 0 0.1 0.530947 0 0 0.542915 0 0.02 0.542915 0 0.04 0.542915 0 0.06 0.542915 0 0.08 0.542915 0 0.1 0.542915 0 0 0.554722 0 0.02 0.554722 0 0.04 0.554722 0 0.06 0.554722 0 0.08 0.554722 0 0.1 0.554722 0 0 0.566496 0 0.02 0.566496 0 0.04 0.566496 0 0.06 0.566496 0 0.08 0.566496 0 0.1 0.566496 0 0 0.569111 0 0.02 0.569111 0 0.04 0.569111 0 0.06 0.569111 0 0.08 0.569111 0 0.1 0.569111 0 0 0.571653 0 0.02 0.571653 0 0.04 0.571653 0 0.06 0.571653 0 0.08 0.571653 0 0.1 0.571653 0 0 0.574149 0 0.02 0.574149 0 0.04 0.574149 0 0.06 0.574149 0 0.08 0.574149 0 0.1 0.574149 0 0 0.576615 0 0.02 0.576615 0 0.04 0.576615 0 0.06 0.576615 0 0.08 0.576615 0 0.1 0.576615 0 0 0.579059 0 0.02 0.579059 0 0.04 0.579059 0 0.06 0.579059 0 0.08 0.579059 0 0.1 0.579059 0 0 0.581487 0 0.02 0.581487 0 0.04 0.581487 0 0.06 0.581487 0 0.08 0.581487 0 0.1 0.581487 0 0 0.583903 0 0.02 0.583903 0 0.04 0.583903 0 0.06 0.583903 0 0.08 0.583903 0 0.1 0.583903 0 0 0.586312 0 0.02 0.586312 0 0.04 0.586312 0 0.06 0.586312 0 0.08 0.586312 0 0.1 0.586312 0 0 0.58872 0 0.02 0.58872 0 0.04 0.58872 0 0.06 0.58872 0 0.08 0.58872 0 0.1 0.58872 0 0 0.591128 0 0.02 0.591128 0 0.04 0.591128 0 0.06 0.591128 0 0.08 0.591128 0 0.1 0.591128 0 0 0.59354 0 0.02 0.59354 0 0.04 0.59354 0 0.06 0.59354 0 0.08 0.59354 0 0.1 0.59354 0 0 0.595954 0 0.02 0.595954 0 0.04 0.595954 0 0.06 0.595954 0 0.08 0.595954 0 0.1 0.595954 0 0 0.598366 0 0.02 0.598366 0 0.04 0.598366 0 0.06 0.598366 0 0.08 0.598366 0 0.1 0.598366 0 0 0.600774 0 0.02 0.600774 0 0.04 0.600774 0 0.06 0.600774 0 0.08 0.600774 0 0.1 0.600774 0 0 0.603179 0 0.02 0.603179 0 0.04 0.603179 0 0.06 0.603179 0 0.08 0.603179 0 0.1 0.603179 0 0 0.605585 0 0.02 0.605585 0 0.04 0.605585 0 0.06 0.605585 0 0.08 0.605585 0 0.1 0.605585 0 0 0.607995 0 0.02 0.607995 0 0.04 0.607995 0 0.06 0.607995 0 0.08 0.607995 0 0.1 0.607995 0 0 0.610421 0 0.02 0.610421 0 0.04 0.610421 0 0.06 0.610421 0 0.08 0.610421 0 0.1 0.610421 0 0 0.612866 0 0.02 0.612866 0 0.04 0.612866 0 0.06 0.612866 0 0.08 0.612866 0 0.1 0.612866 0 0 0.615358 0 0.02 0.615358 0 0.04 0.615358 0 0.06 0.615358 0 0.08 0.615358 0 0.1 0.615358 0 0 0.617894 0 0.02 0.617894 0 0.04 0.617894 0 0.06 0.617894 0 0.08 0.617894 0 0.1 0.617894 0 0 0.620531 0 0.02 0.620531 0 0.04 0.620531 0 0.06 0.620531 0 0.08 0.620531 0 0.1 0.620531 0 0 0.623265 0 0.02 0.623265 0 0.04 0.623265 0 0.06 0.623265 0 0.08 0.623265 0 0.1 0.623265 0 0 0.626202 0 0.02 0.626202 0 0.04 0.626202 0 0.06 0.626202 0 0.08 0.626202 0 0.1 0.626202 0 0 0.629366 0 0.
[...]
			<PointData Scalars="VitesseX">
				<DataArray Name="VitesseX" type="Float32" format="ascii">
 0 -3.26826e-15 -3.21193e-15 -6.7283e-15 -1.24469e-14 0 0 -3.08606e-15 -3.56202e-15 -6.28229e-15 -1.292e-14 0 0 -3.13927e-15 -4.00734e-15 -6.34934e-15 -1.24522e-14 0 0 -2.68509e-15 -5.34782e-15 -5.85993e-15 -1.27014e-14 0 0 -2.6852e-15 -5.88105e-15 -5.77096e-15 -1.28467e-14 0 0 -3.73389e-15 -6.09423e-15 -6.55505e-15 -1.24599e-14 0 0 -4.13429e-15 -7.1896e-15 -5.99902e-15 -1.22968e-14 0 0 -5.04054e-15 -7.88055e-15 -5.781e-15 -1.12557e-14 0 0 -6.24264e-15 -8.13131e-15 -5.76661e-15 -1.02665e-14 0 0 -5.97138e-15 -7.66844e-15 -4.06909e-15 -1.01153e-14 0 0 -6.08694e-15 -6.17277e-15 -2.4515e-15 -9.66629e-15 0 0 -6.64589e-15 -5.06677e-15 -2.8199e-15 -9.55454e-15 0 0 -4.66797e-15 -7.27121e-15 -2.35363e-15 -9.0941e-15 0 0 -4.1375e-15 -6.00693e-15 -4.1101e-15 -5.11583e-15 0 0 -4.28868e-15 -5.10627e-15 -4.71924e-15 -1.53049e-15 0 0 -3.06025e-15 -6.04462e-15 -2.07525e-15 -1.36261e-15 0 0 -3.99689e-15 -2.93931e-15 -3.76421e-15 3.51147e-16 0 0 -5.35075e-15 -2.24872e-15 -5.67667e-15 5.71755e-16 0 0 -4.82572e-15 -3.33686e-15 -7.64526e-15 -3.69937e-15 0 0 -4.76554e-15 -3.03942e-15 -1.2496e-14 -8.27181e-15 0 0 -4.93632e-15 -5.94801e-15 -1.39557e-14 -1.27676e-14 0 0 -9.11273e-15 -6.28345e-15 -1.74463e-14 -1.0169e-14 0 0 -1.01507e-14 -9.31311e-15 -1.82145e-14 -4.3403e-15 0 0 -8.26958e-15 -1.40601e-14 -1.58472e-14 -7.92835e-15 0 0 -1.12264e-14 -1.43826e-14 -1.86579e-14 -1.26637e-14 0 0 -8.93237e-15 -1.86412e-14 -2.33509e-14 -1.11099e-14 0 0 -7.86997e-15 -1.77902e-14 -3.10147e-14 -9.22261e-15 0 0 -1.02712e-14 -1.54909e-14 -2.92465e-14 -1.29365e-14 0 0 -8.6767e-15 -1.87025e-14 -2.17794e-14 -1.73014e-14 0 0 -1.19696e-14 -1.38775e-14 -1.92546e-14 -2.11106e-14 0 0 -1.58262e-14 -9.54903e-15 -1.73717e-14 -2.19739e-14 0 0 -1.15e-14 -1.22222e-14 -1.43719e-14 -2.04166e-14 0 0 -4.37016e-15 -1.79756e-14 -8.41834e-15 -2.07846e-14 0 0 -5.24888e-15 -1.82519e-14 -2.72609e-15 -1.96972e-14 0 0 -9.85906e-15 -1.06775e-14 1.4319e-15 -2.00014e-14 0 0 -7.9873e-15 -4.23913e-15 -4.35714e-15 -1.56647e-14 0 0 -1.00892e-15 -6.48758e-15 -8.94562e-15 -2.08238e-15 0 0 1.46302e-16 -9.18177e-15 -4.0318e-15 2.94919e-15 0 0 -8.15694e-16 -4.02797e-15 -1.75861e-15 2.17131e-16 0 0 2.85627e-15 -1.88472e-15 -7.40296e-15 1.21323e-15 0 0 1.73245e-15 -5.87368e-16 -1.9972e-14 1.83056e-15 0 0 -3.43022e-15 -2.34251e-16 -2.20608e-14 -1.39646e-15 0 0 -4.43712e-15 -6.49822e-15 -1.47757e-14 -1.2091e-14 0 0 -1.35896e-16 -1.44276e-14 -8.14995e-15 -2.31061e-14 0 0 1.67929e-15 -2.2317e-14 4.81426e-15 -3.43461e-14 0 0 -4.1653e-15 -9.73851e-15 -6.4923e-15 -2.95597e-14 0 0 -6.59971e-15 -1.73522e-15 -2.17293e-14 -1.7375e-14 0 0 -5.22307e-16 -1.49137e-14 -1.89644e-14 -1.33704e-14 0 0 -1.11443e-15 -1.85036e-14 -1.88733e-14 -9.69724e-15 0 0 -2.37363e-15 -2.22021e-14 -1.53102e-14 -1.67111e-14 0 0 -4.16503e-15 -2.31419e-14 -2.77332e-14 -1.46803e-14 0 0 -1.59354e-14 -1.01792e-14 -3.99336e-14 -1.31515e-14 0 0 -1.53647e-14 -2.29407e-14 -2.49738e-14 -1.83511e-14 0 0 -3.18175e-15 -3.99203e-14 -1.77476e-14 -2.28678e-14 0 0 9.28778e-16 -3.3214e-14 -2.59371e-14 -3.1473e-14 0 0 -3.97279e-15 -2.52339e-14 -3.50821e-14 -2.77315e-14 0 0 -4.17801e-15 -2.70853e-14 -3.50437e-14 -2.46188e-14 0 0 -1.05833e-14 -2.41426e-14 -3.72704e-14 -3.10042e-14 0 0 -8.45269e-15 -2.98464e-14 -4.03467e-14 -3.96796e-14 0 0 -5.78649e-15 -4.45272e-14 -3.70232e-14 -4.10117e-14 0 0 -1.63721e-14 -2.20246e-14 -5.47083e-14 -4.37144e-14 0 0 -1.49326e-14 -4.8315e-15 -5.50151e-14 -5.25417e-14 0 0 -1.6511e-14 -2.62438e-15 -4.86983e-14 -4.07779e-14 0 0 -1.4869e-14 -1.70609e-15 -5.68237e-14 -1.89943e-14 0 0 1.15322e-15 -1.94672e-14 -5.32473e-14 -4.30581e-15 0 0 -1.01136e-14 -2.51131e-14 -5.23825e-14 1.2879e-14 0 0 -2.47677e-14 -1.80317e-14 -4.70224e-14 1.31628e-14 0 0 -3.32349e-15 -2.72287e-14 -3.31768e-14 -1.07773e-14 0 0 3.62097e-15 -2.44373e-14 -2.89455e-14 -2.97411e-14 0 0 4.53288e-15 -1.09581e-16 -2.77243e-14 -3.26146e-14 0 0 2.30128e-14 1.90766e-14 -1.90559e-14 -3.1832e-14 0 0 3.26571e-14 2.08896e-14 -7.64189e-15 -2.88449e-14 0 0 3.09539e-14 2.87467e-14 -5.13533e-15 -2.4697e-14 0 0 3.43915e-14 4.11763e-14 -6.79335e-15 -2.88647e-14 0 0 3.63554e-14 4.67212e-14 -2.18125e-14 -1.09341e-14 0 0 4.2369e-14 4.59324e-14 -2.9877e-14 1.20181e-14 0 0 4.65158e-14 3.72914e-14 -2.03647e-14 2.51286e-14 0 0 3.30514e-14 1.98945e-14 7.10986e-15 1.60117e-14 0 0 1.57551e-14 3.39045e-14 1.04252e-14 -7.97482e-16 0 0 1.95739e-14 3.06954e-14 8.08832e-15 -1.58972e-14 0 0 2.05193e-14 1.08207e-14 2.83278e-14 -2.70056e-14 0 0 8.28796e-15 -7.03417e-16 3.59875e-14 -1.27348e-14 0 0 4.31184e-16 2.74405e-15 3.2129e-14 -2.79815e-15 0 0 -9.99149e-16 2.85112e-14 1.13044e-14 -1.76578e-14 0 0 5.65757e-15 2.52258e-14 -1.80844e-14 3.55766e-15 0 0 9.69405e-15 1.10345e-14 -1.14779e-14 1.54342e-14 0 0 1.03946e-14 -1.41969e-14 2.34433e-14 -3.84434e-15 0 0 6.24411e-15 -3.97364e-15 1.45019e-14 9.60211e-15 0 0 -4.12988e-15 1.69506e-14 1.93722e-14 -5.49518e-15 0 0 7.25807e-16 1.54401e-14 2.11122e-14 -1.18398e-14 0 0 1.07701e-14 8.94342e-16 -7.42427e-15 -4.45396e-15 0 0 -5.02452e-16 3.37021e-15 -1.43605e-14 -1.94298e-15 0 0 -5.93415e-15 4.81133e-15 -4.23814e-16 6.9258e-15 0 0 5.95594e-15 -5.37911e-15 -8.61799e-15 1.70875e-14 0 0 -4.42136e-15 -2.96292e-15 -1.30685e-14 3.24259e-15 0 0 -1.00474e-14 -3.04049e-15 -2.26339e-14 2.1863e-15 0 0 -2.37096e-14 -3.81464e-14 -3.63949e-14 -1.96473e-14 0 0 -6.1792e-14 -7.64879e-14 -8.4538e-14 -5.71137e-14 0 0 -6.74058e-14 -8.80221e-14 -1.11594e-13 -4.72727e-14 0 0 -2.70596e-14 -3.03809e-14 -4.23322e-14 -1.7787e-14 0 0 1.50102e-14 2.95929e-14 2.22378e-14 3.22482e-14 0 0 1.18416e-13 2.87993e-14 1.45117e-14 2.00223e-13 0 0 9.21593e-14 7.79274e-14 2.79431e-14 1.72103e-13 0 0 8.36049e-14 1.06363e-13 6.27742e-14 2.06865e-13 0 0 8.15797e-14 1.12232e-13 7.07922e-14 2.19318e-13 0 0 4.38262e-14 1.98462e-13 4.31731e-14 2.35519e-13 0 0 3.33174e-14 2.20706e-13 5.25649e-14 2.34746e-13 0 0 5.76745e-14 1.49306e-13 1.03507e-13 1.54667e-13 0 0 2.20893e-14 1.04365e-13 8.37671e-14 1.15505e-13 0 0 -5.33012e-14 6.76229e-14 -4.84177e-14 7.17381e-14 0 0 -1.32293e-13 -2.67603e-14 -2.30713e-13 1.0386e-14 0 0 -1.99928e-13 -1.18734e-13 -3.08872e-13 -1.07278e-13 0 0 -2.01792e-13 -1.69156e-13 -3.53858e-13 -2.40504e-13 0 0 -2.42291e-13 -1.17751e-13 -4.9881e-13 -1.85416e-13 0 0 -2.38245e-13 -1.21135e-13 -5.25763e-13 -1.5784e-13 0 0 -1.57514e-13 -2.61825e-13 -3.70639e-13 -2.78493e-13 0 0 -1.56698e-13 -3.272e-13 -2.42192e-13 -3.13556e-13 0 0 -2.09474e-13 -2.84216e-13 -2.26084e-13 -2.57564e-13 0 0 -2.28834e-13 -2.21589e-13 -2.39272e-13 -2.3604e-13 0 0 -2.0328e-13 -1.87692e-13 -2.7525e-13 -1.53643e-13 0 0 -1.85345e-13 -1.85063e-13 -3.3562e-13 -3.9122e-14 0 0 -1.47976e-13 -1.88455e-13 -3.10337e-13 -2.73008e-16 0 0 -1.38525e-13 -2.02069e-13 -3.03464e-13 -1.36357e-14 0 0 -1.506e-13 -1.80622e-13 -2.11936e-13 -7.32179e-14 0 0 -1.10458e-13 -1.94832e-13 -1.49085e-13 -1.36574e-13 0 0 -6.79199e-14 -2.27121e-13 -1.39002e-13 -1.8324e-13 0 0 -7.14421e-14 -1.5301e-13 -1.16299e-13 -1.69125e-13 0 0 -5.07404e-14 -9.52937e-14 -9.67841e-14 -1.12388e-13 0 0 -3.34076e-14 -6.49264e-14 -9.1331e-14 -8.84044e-14 0 0 -1.70624e-14 -2.91875e-14 -6.85145e-14 -4.0852e-14 0 0 1.72169e-14 -2.50147e-14 -2.67903e-14 -2.57023e-14 0 0 2.77823e-14 -5.76992e-15 -1.80923e-14 -2.13781e-14 0 0 2.1849e-14 1.8945e-14 -4.14697e-14 1.97134e-15 0 0 2.34952e-14 3.52235e-14 -4.69247e-14 6.26048e-15 0 0 2.42418e-14 2.14089e-14 -1.33864e-14 -1.43708e-14 0 0 3.69759e-14 1.22792e-14 -7.8812e-15 -3.67877e-14 0 0 3.91778e-14 2.77016e-14 -3.64558e-14 -2.19772e-14 0 0 2.52939e-14 5.20424e-14 -5.38971e-14 -3.86273e-14 0 0 2.4996e-14 5.05861e-14 -3.58385e-14 -8.5887e-14 0 0 3.11189e-14 2.80206e-14 -2.28183e-14 -5.87899e-14 0 0 2.81811e-14 1.35151e-14 -1.81642e-14 -3.29203e-14 0 0 2.1907e-14 1.66806e-14 -3.1359e-14 -3.44892e-14 0 0 1.2756e-14 3.23716e-14 -4.66068e-14 -2.00999e-14 0 0 3.12313e-15 1.72257e-14 -2.78736e-14 -2.58375e-14 0 0 -1.38566e-15 -1.20534e-14 -3.11088e-14 1.04673e-14 0 0 -2.15766e-15 -1.47489e-14 -6.78251e-14 2.42363e-14 0 0 6.25052e-15 -4.62183e-14 -5.12939e-14 -3.16235e-14 0 0 4.36308e-15 -7.3354e-14 -4.23983e-14 -4.90692e-14 0 0 -1.60602e-14 -3.83741e-14 -1.03182e-13 -7.61537e-14 0 0 -2.68169e-14 -2.73171e-14 -1.40625e-13 -1.08091e-13 0 0 -5.07119e-14 -2.31348e-14 -1.6899e-13 -9.23106e-14 0 0 -5.1137e-14 -4.66063e-14 -1.46896e-13 -1.31704e-13 0 0 -2.18726e-14 -8.302e-14 -1.13691e-13 -1.64284e-13 0 0 -2.92211e-14 -5.26018e-14 -1.56806e-13 -1.15914e-13 0 0 -3.48268e-14 -4.62233e-14 -1.53014e-13 -1.17817e-13 0 0 -4.38386e-14 -3.85645e-14 -1.42567e-13 -1.33947e-13 0 0 -6.32801e-14 -3.18885e-14 -1.25102e-13 -1.47803e-13 0 0 -5.95021e-14 -5.15797e-14 -6.34546e-14 -2.14234e-13 0 0 -6.2375e-14 -3.99841e-14 -4.16085e-14 -2.49103e-13 0 0 -4.24184e-14 -9.39762e-14 -2.18663e-14 -1.9334e-13 0 0 -2.29509e-14 -1.53786e-13 -2.42576e-14 -1.64305e-13 0 0 -2.96049e-14 -1.0982e-13 -1.04217e-13 -1.48987e-13 0 0 -1.00424e-14 -7.63669e-14 -1.46269e-13 -1.59072e-13 0 0 -1.37545e-14 -6.18871e-14 -1.34688e-13 -1.71583e-13 0 0 -3.93225e-14 -4.28696e-14 -1.26886e-13 -1.44878e-13 0 0 -1.91726e-14 -7.52291e-14 -1.149e-13 -1.35175e-13 0 0 1.27077e-14 -9.22443e-14 -1.15585e-13 -1.47183e-13 0 0 1.47142e-14 -7.37218e-14 -1.15118e-13 -1.8192e-13 0 0 -2.77968e-14 -4.51189e-14 -1.25831e-13 -1.70834e-13 0 0 -4.61634e-14 -4.68686e-14 -1.50341e-13 -1.22874e-13 0 0 -3.74606e-14 -7.50982e-14 -1.44726e-13 -1.03694e-13 0 0 -4.44773e-14 -6.20304e-14 -1.38249e-13 -1.05662e-13 0 0 -4.45742e-14 -6.68348e-14 -1.34395e-13 -9.10726e-14 0 0 -2.48644e-14 -1.1501e-13 -8.72903e-14 -1.27953e-13 0 0 -4.89338e-14 -7.89471e-14 -1.29402e-13 -9.24383e-14 0 0 -7.61976e-14 -2.60864e-14 -1.71903e-13 -4.27462e-14 0 0 -1.78334e-14 -8.4807e-14 -1.18562e-13 -7.93444e-14 0 0 -1.17013e-14 -1.15777e-13 -6.30967e-14 -1.45049e-13 0 0 -4.49136e-14 -7.87703e-14 -6.04148e-14 -1.81057e-13 0 0 -2.0963e-14 -6.44148e-14 -1.306e-13 -1.49548e-13 0 0 -1.57017e-14 -6.99471e-14 -1.20928e-13 -1.91169e-13 0 0 -4.71071e-14 -5.28952e-14 -1.14038e-13 -1.97296e-13 0 0 -3.10994e-14 -5.22678e-14 -1.62484e-13 -1.12605e-13 0 0 -1.39131e-14 -5.21855e-14 -1.61939e-13 -8.72009e-14 0 0 -2.75226e-14 -4.84871e-14 -1.20104e-13 -1.17645e-13 0 0 1.44785e-15 -1.00259e-13 -9.14913e-14 -9.73163e-14 0 0 1.80533e-14 -1.15119e-13 -1.65367e-13 -1.71594e-14 0 0 6.69563e-17 -1.12855e-13 -1.87662e-13 1.12482e-15 0 0 1.2594e-15 -1.08032e-13 -1.17457e-13 -8.22838e-14 0 0 -3.04666e-14 -5.89833e-14 -8.58122e-14 -1.01901e-13 0 0 -4.0791e-14 -4.7184e-14 -1.05711e-13 -3.86442e-14 0 0 -3.14084e-14 -6.25511e-14 -1.02064e-13 -3.16192e-15 0 0 -2.13411e-14 -7.93594e-14 -1.05044e-13 3.08934e-14 0 0 -1.39757e-14 -8.80789e-14 -1.28884e-13 4.86597e-14 0 0 -1.91766e-14 -8.88452e-14 -1.2565e-13 -9.22051e-15 0 0 -3.28956e-14 -7.81265e-14 -1.03529e-13 -1.02895e-13 0 0 -6.56845e-14 -5.50513e-14 -7.30562e-14 -1.50005e-13 0 0 -5.99002e-14 -7.10424e-14 -8.68158e-14 -9.34265e-14 0 0 -2.97321e-14 -1.31682e-13 -7.65741e-14 -1.23176e-14 0 0 -5.57625e-14 -1.07228e-13 -7.90285e-14 1.20756e-15 0 0 -9.58455e-14 -5.05636e-14 -1.07215e-13 -2.71453e-15 0
				</DataArray>
				<DataArray Name="VitesseY" type="Float32" format="ascii">