<?xml version="1.0"?>
<VTKFile type="PolyData">
	<PolyData>
		<Piece NumberOfPoints="1206" NumberOfPolys="1000">
			<Points>
				<DataArray type="Float32" NumberOfComponents="3" format="ascii">
 0 0 0 0.02 0 0 0.04 0 0 0.06 0 0 0.08 0 0 0.1 0 0 0 0.005 0 0.02 0.005 0 0.04 0.005 0 0.06 0.005 0 0.08 0.005 0 0.1 0.005 0 0 0.01 0 0.02 0.01 0 0.04 0.01 0 0.06 0.01 0 0.08 0.01 0 0.1 0.01 0 0 0.015 0 0.02 0.015 0 0.04 0.015 0 0.06 0.015 0 0.08 0.015 0 0.1 0.015 0 0 0.02 0 0.02 0.02 0 0.04 0.02 0 0.06 0.02 0 0.08 0.02 0 0.1 0.02 0 0 0.025 0 0.02 0.025 0 0.04 0.025 0 0.06 0.025 0 0.08 0.025 0 0.1 0.025 0 0 0.03 0 0.02 0.03 0 0.04 0.03 0 0.06 0.03 0 0.08 0.03 0 0.1 0.03 0 0 0.035 0 0.02 0.035 0 0.04 0.035 0 0.06 0.035 0 0.08 0.035 0 0.1 0.035 0 0 0.04 0 0.02 0.04 0 0.04 0.04 0 0.06 0.04 0 0.08 0.04 0 0.1 0.04 0 0 0.045 0 0.02 0.045 0 0.04 0.045 0 0.06 0.045 0 0.08 0.045 0 0.1 0.045 0 0 0.05 0 0.02 0.05 0 0.04 0.05 0 0.06 0.05 0 0.08 0.05 0 0.1 0.05 0 0 0.055 0 0.02 0.055 0 0.04 0.055 0 0.06 0.055 0 0.08 0.055 0 0.1 0.055 0 0 0.06 0 0.02 0.06 0 0.04 0.06 0 0.06 0.06 0 0.08 0.06 0 0.1 0.06 0 0 0.065 0 0.02 0.065 0 0.04 0.065 0 0.06 0.065 0 0.08 0.065 0 0.1 0.065 0 0 0.07 0 0.02 0.07 0 0.04 0.07 0 0.06 0.07 0 0.08 0.07 0 0.1 0.07 0 0 0.075 0 0.02 0.075 0 0.04 0.075 0 0.06 0.075 0 0.08 0.075 0 0.1 0.075 0 0 0.08 0 0.02 0.08 0 0.04 0.08 0 0.06 0.08 0 0.08 0.08 0 0.1 0.08 0 0 0.085 0 0.02 0.085 0 0.04 0.085 0 0.06 0.085 0 0.08 0.085 0 0.1 0.085 0 0 0.09 0 0.02 0.09 0 0.04 0.09 0 0.06 0.09 0 0.08 0.09 0 0.1 0.09 0 0 0.095 0 0.02 0.095 0 0.04 0.095 0 0.06 0.095 0 0.08 0.095 0 0.1 0.095 0 0 0.1 0 0.02 0.1 0 0.04 0.1 0 0.06 0.1 0 0.08 0.1 0 0.1 0.1 0 0 0.105 0 0.02 0.105 0 0.04 0.105 0 0.06 0.105 0 0.08 0.105 0 0.1 0.105 0 0 0.11 0 0.02 0.11 0 0.04 0.11 0 0.06 0.11 0 0.08 0.11 0 0.1 0.11 0 0 0.115 0 0.02 0.115 0 0.04 0.115 0 0.06 0.115 0 0.08 0.115 0 0.1 0.115 0 0 0.12 0 0.02 0.12 0 0.04 0.12 0 0.06 0.12 0 0.08 0.12 0 0.1 0.12 0 0 0.125 0 0.02 0.125 0 0.04 0.125 0 0.06 0.125 0 0.08 0.125 0 0.1 0.125 0 0 0.13 0 0.02 0.13 0 0.04 0.13 0 0.06 0.13 0 0.08 0.13 0 0.1 0.13 0 0 0.135 0 0.02 0.135 0 0.04 0.135 0 0.06 0.135 0 0.08 0.135 0 0.1 0.135 0 0 0.14 0 0.02 0.14 0 0.04 0.14 0 0.06 0.14 0 0.08 0.14 0 0.1 0.14 0 0 0.145 0 0.02 0.145 0 0.04 0.145 0 0.06 0.145 0 0.08 0.145 0 0.1 0.145 0 0 0.15 0 0.02 0.15 0 0.04 0.15 0 0.06 0.15 0 0.08 0.15 0 0.1 0.15 0 0 0.155 0 0.02 0.155 0 0.04 0.155 0 0.06 0.155 0 0.08 0.155 0 0.1 0.155 0 0 0.16 0 0.02 0.16 0 0.04 0.16 0 0.06 0.16 0 0.08 0.16 0 0.1 0.16 0 0 0.165 0 0.02 0.165 0 0.04 0.165 0 0.06 0.165 0 0.08 0.165 0 0.1 0.165 0 0 0.17 0 0.02 0.17 0 0.04 0.17 0 0.06 0.17 0 0.08 0.17 0 0.1 0.17 0 0 0.175 0 0.02 0.175 0 0.04 0.175 0 0.06 0.175 0 0.08 0.175 0 0.1 0.175 0 0 0.18 0 0.02 0.18 0 0.04 0.18 0 0.06 0.18 0 0.08 0.18 0 0.1 0.18 0 0 0.185 0 0.02 0.185 0 0.04 0.185 0 0.06 0.185 0 0.08 0.185 0 0.1 0.185 0 0 0.19 0 0.02 0.19 0 0.04 0.19 0 0.06 0.19 0 0.08 0.19 0 0.1 0.19 0 0 0.195 0 0.02 0.195 0 0.04 0.195 0 0.06 0.195 0 0.08 0.195 0 0.1 0.195 0 0 0.2 0 0.02 0.2 0 0.04 0.2 0 0.06 0.2 0 0.08 0.2 0 0.1 0.2 0 0 0.205 0 0.02 0.205 0 0.04 0.205 0 0.06 0.205 0 0.08 0.205 0 0.1 0.205 0 0 0.21 0 0.02 0.21 0 0.04 0.21 0 0.06 0.21 0 0.08 0.21 0 0.1 0.21 0 0 0.215 0 0.02 0.215 0 0.04 0.215 0 0.06 0.215 0 0.08 0.215 0 0.1 0.215 0 0 0.22 0 0.02 0.22 0 0.04 0.22 0 0.06 0.22 0 0.08 0.22 0 0.1 0.22 0 0 0.225 0 0.02 0.225 0 0.04 0.225 0 0.06 0.225 0 0.08 0.225 0 0.1 0.225 0 0 0.23 0 0.02 0.23 0 0.04 0.23 0 0.06 0.23 0 0.08 0.23 0 0.1 0.23 0 0 0.235 0 0.02 0.235 0 0.04 0.235 0 0.06 0.235 0 0.08 0.235 0 0.1 0.235 0 0 0.24 0 0.02 0.24 0 0.04 0.24 0 0.06 0.24 0 0.08 0.24 0 0.1 0.24 0 0 0.245 0 0.02 0.245 0 0.04 0.245 0 0.06 0.245 0 0.08 0.245 0 0.1 0.245 0 0 0.25 0 0.02 0.25 0 0.04 0.25 0 0.06 0.25 0 0.08 0.25 0 0.1 0.25 0 0 0.255 0 0.02 0.255 0 0.04 0.255 0 0.06 0.255 0 0.08 0.255 0 0.1 0.255 0 0 0.26 0 0.02 0.26 0 0.04 0.26 0 0.06 0.26 0 0.08 0.26 0 0.1 0.26 0 0 0.265 0 0.02 0.265 0 0.04 0.265 0 0.06 0.265 0 0.08 0.265 0 0.1 0.265 0 0 0.27 0 0.02 0.27 0 0.04 0.27 0 0.06 0.27 0 0.08 0.27 0 0.1 0.27 0 0 0.275 0 0.02 0.275 0 0.04 0.275 0 0.06 0.275 0 0.08 0.275 0 0.1 0.275 0 0 0.28 0 0.02 0.28 0 0.04 0.28 0 0.06 0.28 0 0.08 0.28 0 0.1 0.28 0 0 0.285 0 0.02 0.285 0 0.04 0.285 0 0.06 0.285 0 0.08 0.285 0 0.1 0.285 0 0 0.29 0 0.02 0.29 0 0.04 0.29 0 0.06 0.29 0 0.08 0.29 0 0.1 0.29 0 0 0.295 0 0.02 0.295 0 0.04 0.295 0 0.06 0.295 0 0.08 0.295 0 0.1 0.295 0 0 0.3 0 0.02 0.3 0 0.04 0.3 0 0.06 0.3 0 0.08 0.3 0 0.1 0.3 0 0 0.305 0 0.02 0.305 0 0.04 0.305 0 0.06 0.305 0 0.08 0.305 0 0.1 0.305 0 0 0.31 0 0.02 0.31 0 0.04 0.31 0 0.06 0.31 0 0.08 0.31 0 0.1 0.31 0 0 0.315 0 0.02 0.315 0 0.04 0.315 0 0.06 0.315 0 0.08 0.315 0 0.1 0.315 0 0 0.32 0 0.02 0.32 0 0.04 0.32 0 0.06 0.32 0 0.08 0.32 0 0.1 0.32 0 0 0.325 0 0.02 0.325 0 0.04 0.325 0 0.06 0.325 0 0.08 0.325 0 0.1 0.325 0 0 0.330002 0 0.02 0.330002 0 0.04 0.330002 0 0.06 0.330002 0 0.08 0.330002 0 0.1 0.330002 0 0 0.335006 0 0.02 0.335006 0 0.04 0.335006 0 0.06 0.335006 0 0.08 0.335006 0 0.1 0.335006 0 0 0.340017 0 0.02 0.340017 0 0.04 0.340017 0 0.06 0.340017 0 0.08 0.340017 0 0.1 0.340017 0 0 0.345045 0 0.02 0.345045 0 0.04 0.345045 0 0.06 0.345045 0 0.08 0.345045 0 0.1 0.345045 0 0 0.350108 0 0.02 0.350108 0 0.04 0.350108 0 0.06 0.350108 0 0.08 0.350108 0 0.1 0.350108 0 0 0.35523 0 0.02 0.35523 0 0.04 0.35523 0 0.06 0.35523 0 0.08 0.35523 0 0.1 0.35523 0 0 0.36044 0 0.02 0.36044 0 0.04 0.36044 0 0.06 0.36044 0 0.08 0.36044 0 0.1 0.36044 0 0 0.365765 0 0.02 0.365765 0 0.04 0.365765 0 0.06 0.365765 0 0.08 0.365765 0 0.1 0.365765 0 0 0.371228 0 0.02 0.371228 0 0.04 0.371228 0 0.06 0.371228 0 0.08 0.371228 0 0.1 0.371228 0 0 0.37685 0 0.02 0.37685 0 0.04 0.37685 0 0.06 0.37685 0 0.08 0.37685 0 0.1 0.37685 0 0 0.382647 0 0.02 0.382647 0 0.04 0.382647 0 0.06 0.382647 0 0.08 0.382647 0 0.1 0.382647 0 0 0.388637 0 0.02 0.388637 0 0.04 0.388637 0 0.06 0.388637 0 0.08 0.388637 0 0.1 0.388637 0 0 0.394836 0 0.02 0.394836 0 0.04 0.394836 0 0.06 0.394836 0 0.08 0.394836 0 0.1 0.394836 0 0 0.401263 0 0.02 0.401263 0 0.04 0.401263 0 0.06 0.401263 0 0.08 0.401263 0 0.1 0.401263 0 0 0.407939 0 0.02 0.407939 0 0.04 0.407939 0 0.06 0.407939 0 0.08 0.407939 0 0.1 0.407939 0 0 0.414888 0 0.02 0.414888 0 0.04 0.414888 0 0.06 0.414888 0 0.08 0.414888 0 0.1 0.414888 0 0 0.422135 0 0.02 0.422135 0 0.04 0.422135 0 0.06 0.422135 0 0.08 0.422135 0 0.1 0.422135 0 0 0.429711 0 0.02 0.429711 0 0.04 0.429711 0 0.06 0.429711 0 0.08 0.429711 0 0.1 0.429711 0 0 0.43765 0 0.02 0.43765 0 0.04 0.43765 0 0.06 0.43765 0 0.08 0.43765 0 0.1 0.43765 0 0 0.445991 0 0.02 0.445991 0 0.04 0.445991 0 0.06 0.445991 0 0.08 0.445991 0 0.1 0.445991 0 0 0.45478 0 0.02 0.45478 0 0.04 0.45478 0 0.06 0.45478 0 0.08 0.45478 0 0.1 0.45478 0 0 0.46407 0 0.02 0.46407 0 0.04 0.46407 0 0.06 0.46407 0 0.08 0.46407 0 0.1 0.46407 0 0 0.47392 0 0.02 0.47392 0 0.04 0.47392 0 0.06 0.47392 0 0.08 0.47392 0 0.1 0.47392 0 0 0.484389 0 0.02 0.484389 0 0.04 0.484389 0 0.06 0.484389 0 0.08 0.484389 0 0.1 0.484389 0 0 0.495529 0 0.02 0.495529 0 0.04 0.495529 0 0.06 0.495529 0 0.08 0.495529 0 0.1 0.495529 0 0 0.507323 0 0.02 0.507323 0 0.04 0.507323 0 0.06 0.507323 0 0.08 0.507323 0 0.1 0.507323 0 0 0.519526 0 0.02 0.519526 0 0.04 0.519526 0 0.06 0.519526 0 0.08 0.519526 0 0.1 0.519526 0 0 0.531665 0 0.02 0.531665 0 0.04 0.531665 0 0.06 0.531665 0 0.08 0.531665 0 0.1 0.531665 0 0 0.543662 0 0.02 0.543662 0 0.04 0.543662 0 0.06 0.543662 0 0.08 0.543662 0 0.1 0.543662 0 0 0.555529 0 0.02 0.555529 0 0.04 0.555529 0 0.06 0.555529 0 0.08 0.555529 0 0.1 0.555529 0 0 0.567317 0 0.02 0.567317 0 0.04 0.567317 0 0.06 0.567317 0 0.08 0.567317 0 0.1 0.567317 0 0 0.57907 0 0.02 0.57907 0 0.04 0.57907 0 0.06 0.57907 0 0.08 0.57907 0 0.1 0.57907 0 0 0.59081 0 0.02 0.59081 0 0.04 0.59081 0 0.06 0.59081 0 0.08 0.59081 0 0.1 0.59081 0 0 0.602547 0 0.02 0.602547 0 0.04 0.602547 0 0.06 0.602547 0 0.08 0.602547 0 0.1 0.602547 0 0 0.614295 0 0.02 0.614295 0 0.04 0.614295 0 0.06 0.614295 0 0.08 0.614295 0 0.1 0.614295 0 0 0.616904 0 0.02 0.616904 0 0.04 0.616904 0 0.06 0.616904 0 0.08 0.616904 0 0.1 0.616904 0 0 0.619439 0 0.02 0.619439 0 0.04 0.619439 0 0.06 0.619439 0 0.08 0.619439 0 0.1 0.619439 0 0 0.621929 0 0.02 0.621929 0 0.04 0.621929 0 0.06 0.621929 0 0.08 0.621929 0 0.1 0.621929 0 0 0.624388 0 0.02 0.624388 0 0.04 0.624388 0 0.06 0.624388 0 0.08 0.624388 0 0.1 0.624388 0 0 0.626825 0 0.02 0.626825 0 0.04 0.626825 0 0.06 0.626825 0 0.08 0.626825 0 0.1 0.626825 0 0 0.629247 0 0.02 0.629247 0 0.04 0.629247 0 0.06 0.629247 0 0.08 0.629247 0 0.1 0.629247 0 0 0.631658 0 0.02 0.631658 0 0.04 0.631658 0 0.06 0.631658 0 0.08 0.631658 0 0.1 0.631658 0 0 0.634062 0 0.02 0.634062 0 0.04 0.634062 0 0.06 0.634062 0 0.08 0.634062 0 0.1 0.634062 0 0 0.636463 0 0.02 0.636463 0 0.04 0.636463 0 0.06 0.636463 0 0.08 0.636463 0 0.1 0.636463 0 0 0.638866 0 0.02 0.638866 0 0.04 0.638866 0 0.06 0.638866 0 0.08 0.638866 0 0.1 0.638866 0 0 0.641272 0 0.02 0.641272 0 0.04 0.641272 0 0.06 0.641272 0 0.08 0.641272 0 0.1 0.641272 0 0 0.643679 0 0.02 0.643679 0 0.04 0.643679 0 0.06 0.643679 0 0.08 0.643679 0 0.1 0.643679 0 0 0.646083 0 0.02 0.646083 0 0.04 0.646083 0 0.06 0.646083 0 0.08 0.646083 0 0.1 0.646083 0 0 0.648481 0 0.02 0.648481 0 0.04 0.648481 0 0.06 0.648481 0 0.08 0.648481 0 0.1 0.648481 0 0 0.650873 0 0.02 0.650873 0 0.04 0.650873 0 0.06 0.650873 0 0.08 0.650873 0 0.1 0.650873 0 0 0.653259 0 0.02 0.653259 0 0.04 0.653259 0 0.06 0.653259 0 0.08 0.653259 0 0.1 0.653259 0 0 0.655641 0 0.02 0.655641 0 0.04 0.655641 0 0.06 0.655641 0 0.08 0.655641 0 0.1 0.655641 0 0 0.65802 0 0.02 0.65802 0 0.04 0.65802 0 0.06 0.65802 0 0.08 0.65802 0 0.1 0.65802 0 0 0.660397 0 0.02 0.660397 0 0.04 0.660397 0 0.06 0.660397 0 0.08 0.660397 0 0.1 0.660397 0 0 0.662773 0 0.02 0.662773 0 0.04 0.662773 0 0.06 0.662773 0 0.08 0.662773 0 0.1 0.662773 0 0 0.665147 0 0.02 0.665147 0 0.04 0.665147 0 0.06 0.665147 0 0.08 0.665147 0 0.1 0.665147 0 0 0.66752 0 0.02 0.66752 0 0.04 0.66752 0 0.06 0.66752 0 0.08 0
[...]
			<PointData Scalars="VitesseX">
				<DataArray Name="VitesseX" type="Float32" format="ascii">
 0 3.26969e-15 3.17116e-15 -3.56903e-15 -1.09786e-14 0 0 3.0774e-15 2.78648e-15 -3.94991e-15 -1.08177e-14 0 0 2.98664e-15 1.25002e-15 -4.94642e-15 -1.04726e-14 0 0 3.0098e-15 -1.41597e-15 -6.07882e-15 -8.88318e-15 0 0 3.48945e-15 -4.95773e-15 -5.99011e-15 -8.28139e-15 0 0 2.67997e-15 -6.27863e-15 -5.57984e-15 -9.81421e-15 0 0 1.64955e-16 -5.97873e-15 -6.40588e-15 -1.02056e-14 0 0 -2.9496e-15 -5.43045e-15 -7.24123e-15 -1.07265e-14 0 0 -5.07224e-15 -4.19651e-15 -8.49115e-15 -1.11257e-14 0 0 -5.08169e-15 -4.65443e-15 -7.6433e-15 -1.28669e-14 0 0 -6.29851e-15 -3.40605e-15 -6.19575e-15 -1.35708e-14 0 0 -5.52637e-15 -4.61877e-15 -4.71142e-15 -1.17053e-14 0 0 -3.82949e-15 -6.01069e-15 -4.57626e-15 -9.16398e-15 0 0 -1.97368e-15 -6.52164e-15 -2.74498e-15 -8.07656e-15 0 0 -1.93895e-15 -3.53055e-15 -5.48663e-16 -6.17226e-15 0 0 -4.52462e-15 1.76218e-15 8.58244e-16 -4.08838e-15 0 0 -3.06871e-15 5.47676e-16 6.86926e-15 -6.0945e-15 0 0 -2.58894e-15 2.39751e-15 9.02504e-15 -5.21765e-15 0 0 -2.94537e-15 6.77435e-15 3.31431e-15 4.11861e-15 0 0 -2.31635e-16 6.19896e-15 -2.9977e-16 1.18889e-14 0 0 3.92036e-16 5.87404e-15 7.07763e-16 8.32234e-15 0 0 1.71434e-15 4.56049e-15 -1.59017e-15 5.0972e-15 0 0 2.85636e-15 3.7477e-15 -6.48517e-15 1.09927e-14 0 0 2.67756e-15 2.91636e-15 -4.8349e-15 9.84128e-15 0 0 3.8874e-15 -2.51659e-16 -4.30123e-15 8.99613e-16 0 0 5.31862e-15 -1.19462e-15 -5.26175e-15 -9.88431e-16 0 0 5.8038e-15 -7.60553e-16 -5.47523e-15 -1.23716e-15 0 0 1.93937e-15 3.05281e-15 -4.0922e-15 -4.69525e-15 0 0 -4.93225e-17 5.59366e-15 4.35246e-15 -1.62326e-14 0 0 1.92358e-16 1.44491e-15 1.14872e-14 -2.22625e-14 0 0 -2.24243e-15 3.01047e-15 6.77825e-15 -1.32394e-14 0 0 -5.6334e-16 1.04538e-15 7.27453e-15 -9.9756e-15 0 0 9.97204e-16 -2.59104e-15 1.19542e-14 -6.57515e-15 0 0 -3.93171e-15 7.02804e-15 3.56931e-16 5.31429e-16 0 0 -2.70412e-15 6.27983e-15 6.11648e-16 -5.019e-15 0 0 5.63512e-16 -1.18746e-15 2.43541e-15 -2.97461e-16 0 0 -3.35155e-15 -2.52718e-15 3.22857e-15 4.36127e-15 0 0 -6.51271e-15 -3.42406e-15 3.86646e-15 7.33402e-15 0 0 -6.59776e-15 -1.07926e-14 6.34627e-15 8.13527e-15 0 0 -4.61072e-15 -1.53636e-14 1.42124e-14 -9.37773e-15 0 0 -4.95932e-15 -8.12007e-15 8.93526e-15 -2.10252e-14 0 0 -6.67566e-15 -7.98e-15 1.20454e-14 -2.49136e-14 0 0 -7.37344e-15 -1.06925e-14 1.62715e-14 -1.62908e-14 0 0 -4.80881e-15 -1.06948e-14 1.17154e-14 6.05829e-15 0 0 -3.28108e-15 -7.69881e-15 3.04772e-15 1.96218e-14 0 0 -9.42377e-15 8.15004e-15 -8.37899e-15 2.29661e-14 0 0 -1.06687e-14 1.40747e-14 -8.02472e-16 1.63768e-14 0 0 -2.43108e-15 5.39131e-15 1.50024e-14 6.92202e-15 0 0 8.43108e-15 1.06158e-15 1.40941e-14 6.53202e-15 0 0 9.0822e-15 1.46162e-15 7.05012e-15 1.27775e-14 0 0 4.62022e-15 2.80565e-15 5.78881e-15 1.40808e-14 0 0 6.76876e-15 4.65695e-15 6.9534e-15 1.47158e-14 0 0 1.46679e-14 1.40158e-15 2.25676e-14 1.21877e-14 0 0 2.38509e-14 1.11424e-14 3.1147e-14 1.13951e-14 0 0 2.85896e-14 4.20153e-14 3.74245e-14 7.82199e-15 0 0 4.78709e-14 5.39482e-14 5.01515e-14 5.20117e-15 0 0 5.54555e-14 6.69284e-14 4.43845e-14 1.38425e-14 0 0 6.36093e-14 7.56096e-14 4.78968e-14 1.83344e-14 0 0 7.54047e-14 7.83188e-14 5.30611e-14 3.10008e-14 0 0 6.51536e-14 7.34425e-14 7.41614e-14 3.62178e-14 0 0 5.81769e-14 6.70242e-14 7.71736e-14 5.96608e-14 0 0 5.49817e-14 7.42997e-14 5.90198e-14 7.4433e-14 0 0 4.68269e-14 6.98097e-14 5.82952e-14 7.04452e-14 0 0 3.38634e-14 6.45131e-14 6.38511e-14 7.76657e-14 0 0 1.79678e-14 5.25243e-14 8.95855e-14 6.66327e-14 0 0 1.13662e-14 5.51824e-14 6.97375e-14 7.97586e-14 0 0 1.50524e-14 5.61456e-14 5.7716e-14 7.33412e-14 0 0 1.88387e-14 1.95127e-14 7.92292e-14 5.35143e-14 0 0 -7.17268e-16 2.10084e-14 6.13891e-14 5.67429e-14 0 0 -1.16683e-14 3.92653e-14 4.65535e-14 4.58588e-14 0 0 6.96582e-15 2.76366e-14 5.30325e-14 2.2753e-14 0 0 -5.22882e-16 3.38435e-14 4.85032e-14 1.50366e-15 0 0 -6.62518e-15 4.92039e-14 2.98866e-14 7.50332e-15 0 0 1.22392e-14 4.37276e-14 1.76098e-14 1.51898e-14 0 0 1.4557e-14 3.78645e-14 5.10675e-15 2.64108e-14 0 0 3.35287e-15 4.31911e-14 -1.54032e-16 4.33479e-14 0 0 3.37564e-15 3.9236e-14 5.93078e-15 4.64703e-14 0 0 1.60172e-14 2.73818e-14 1.82289e-14 4.97165e-14 0 0 2.15431e-14 2.93004e-14 6.05732e-15 5.78826e-14 0 0 8.0195e-15 1.58146e-14 1.87802e-14 3.1801e-14 0 0 8.42592e-15 8.42624e-15 6.12324e-14 5.11665e-15 0 0 3.28571e-14 6.79397e-15 5.37002e-14 1.47625e-14 0 0 2.0144e-14 2.32156e-14 1.87175e-14 1.22842e-14 0 0 1.7093e-14 1.32307e-14 3.12104e-15 2.2544e-14 0 0 -1.20911e-14 -7.41042e-16 2.24185e-14 4.52556e-14 0 0 2.11825e-15 1.37281e-14 1.53334e-14 4.06196e-14 0 0 5.08319e-14 1.44055e-14 1.0282e-15 1.84099e-14 0 0 1.54743e-14 8.86793e-15 2.07237e-14 1.56267e-14 0 0 -5.17511e-15 9.85017e-15 2.54911e-14 4.33791e-15 0 0 1.72729e-15 7.06046e-15 1.88093e-14 -6.77991e-15 0 0 4.65307e-15 8.46205e-15 6.00511e-15 8.72244e-15 0 0 -7.66158e-15 8.81668e-16 1.52648e-14 4.32801e-15 0 0 -1.28915e-14 -1.82048e-14 1.58189e-14 1.1248e-15 0 0 -8.6861e-15 -1.25423e-14 7.6506e-15 -6.94978e-15 0 0 6.19282e-15 1.37366e-14 2.2662e-15 -4.61132e-16 0 0 1.39729e-14 3.70864e-14 1.42967e-14 2.96224e-14 0 0 3.4164e-14 6.06691e-14 6.21883e-14 3.34711e-14 0 0 6.60525e-14 9.27768e-14 8.99955e-14 3.80044e-14 0 0 7.89369e-14 1.08947e-13 1.10465e-13 5.5919e-14 0 0 8.4403e-14 1.18575e-13 1.22476e-13 6.61806e-14 0 0 8.53856e-14 1.35383e-13 1.48307e-13 9.18885e-14 0 0 1.14383e-13 2.48394e-13 2.02505e-13 2.03497e-13 0 0 1.01937e-13 2.68123e-13 2.05065e-13 1.61387e-13 0 0 1.22654e-13 2.50827e-13 2.13663e-13 1.6805e-13 0 0 1.34483e-13 2.30436e-13 2.4047e-13 1.41596e-13 0 0 1.32742e-13 2.48131e-13 2.08886e-13 1.90288e-13 0 0 1.34825e-13 2.56179e-13 2.07515e-13 2.3105e-13 0 0 1.25567e-13 2.73264e-13 1.87638e-13 1.67754e-13 0 0 1.11086e-13 2.69237e-13 9.87648e-14 1.35436e-13 0 0 6.57798e-14 1.68284e-13 7.46724e-14 6.82926e-14 0 0 5.70206e-15 4.57144e-14 1.76042e-14 -4.68317e-14 0 0 -3.90478e-14 -2.48769e-14 -7.64541e-14 -9.12224e-14 0 0 -5.33621e-14 -7.43814e-14 -1.19237e-13 -1.13231e-13 0 0 -6.51813e-14 -8.19783e-14 -1.10707e-13 -1.30491e-13 0 0 -6.69426e-14 -4.14714e-14 -1.39046e-13 -8.70971e-14 0 0 -6.11541e-14 7.18776e-15 -1.90475e-13 -2.57168e-14 0 0 -7.7757e-14 5.87996e-14 -1.71248e-13 1.95042e-14 0 0 -9.48986e-14 1.24285e-13 -1.63795e-13 -1.50199e-15 0 0 -7.35716e-14 1.30288e-13 -1.47867e-13 2.11116e-14 0 0 -2.33077e-14 8.36152e-14 -6.67006e-14 8.55007e-14 0 0 2.81656e-15 8.67798e-14 2.96938e-15 7.43286e-14 0 0 -4.80242e-15 1.10715e-13 3.75871e-14 9.21753e-14 0 0 -2.18204e-14 1.83665e-13 -1.50851e-14 1.38045e-13 0 0 8.47157e-15 1.77604e-13 2.09081e-14 1.00652e-13 0 0 1.08802e-13 8.02725e-14 1.08321e-13 5.40806e-14 0 0 1.66391e-13 5.44619e-14 1.24713e-13 7.739e-14 0 0 1.77273e-13 8.90387e-14 1.18034e-13 9.64655e-14 0 0 1.52392e-13 1.49181e-13 1.27123e-13 6.23154e-14 0 0 1.55744e-13 1.24834e-13 1.95047e-13 1.70113e-14 0 0 1.87651e-13 2.71665e-14 3.5628e-13 -1.01081e-13 0 0 1.43724e-13 5.62811e-14 4.02083e-13 -1.67858e-13 0 0 6.77683e-14 1.89436e-13 2.89402e-13 -8.41639e-14 0 0 6.18612e-14 2.56078e-13 2.28413e-13 -1.20146e-14 0 0 1.0515e-13 2.76382e-13 1.97541e-13 -2.84352e-14 0 0 1.09905e-13 3.06543e-13 1.31084e-13 7.05008e-15 0 0 1.4229e-13 2.74596e-13 8.78905e-14 1.23752e-13 0 0 1.76363e-13 1.88138e-13 1.44467e-13 1.65441e-13 0 0 1.72844e-13 1.42849e-13 1.86683e-13 1.84953e-13 0 0 1.37868e-13 2.05712e-13 8.46224e-14 2.58903e-13 0 0 9.74821e-14 2.42351e-13 1.6528e-14 2.04031e-13 0 0 1.24433e-13 1.56999e-13 5.24784e-14 6.8656e-14 0 0 1.32396e-13 9.63543e-14 1.33325e-13 8.31957e-14 0 0 9.94019e-14 9.1435e-14 1.47543e-13 1.06524e-13 0 0 8.6724e-14 9.11043e-14 1.80501e-13 3.95475e-14 0 0 6.69406e-14 9.3246e-14 1.58149e-13 9.76817e-14 0 0 6.08899e-14 1.1724e-13 4.33311e-14 1.35918e-13 0 0 5.19981e-14 1.10972e-13 9.00754e-14 9.26903e-14 0 0 5.48342e-14 1.06272e-13 1.12114e-13 1.20081e-13 0 0 5.82648e-14 1.26232e-13 9.69065e-14 1.44125e-13 0 0 5.32956e-14 1.24871e-13 1.4195e-13 9.88857e-14 0 0 5.27077e-14 1.14336e-13 1.68522e-13 8.50431e-14 0 0 5.70476e-14 1.07911e-13 1.89787e-13 1.08555e-13 0 0 6.51677e-14 1.12586e-13 1.96485e-13 1.08087e-13 0 0 6.35923e-14 1.26927e-13 1.86745e-13 1.26667e-13 0 0 6.25163e-14 1.42304e-13 1.82363e-13 1.37972e-13 0 0 5.64867e-14 1.67873e-13 1.72753e-13 1.21501e-13 0 0 4.77459e-14 1.66006e-13 1.78914e-13 1.42002e-13 0 0 5.25542e-14 1.42747e-13 2.21423e-13 1.58521e-13 0 0 5.82684e-14 1.40234e-13 2.455e-13 1.11054e-13 0 0 5.83845e-14 1.30956e-13 2.13206e-13 1.41698e-13 0 0 7.12694e-14 1.06859e-13 2.20807e-13 1.4923e-13 0 0 6.70662e-14 1.1343e-13 2.34711e-13 1.13326e-13 0 0 6.52889e-14 8.08912e-14 2.50046e-13 1.11586e-13 0 0 5.87326e-14 5.86195e-14 2.72994e-13 7.74259e-14 0 0 4.99046e-14 7.68201e-14 2.50246e-13 4.23865e-14 0 0 7.24539e-14 5.39182e-14 2.23432e-13 9.75051e-14 0 0 8.35717e-14 4.98474e-14 1.61747e-13 1.71499e-13 0 0 8.16409e-14 3.86516e-14 1.73043e-13 1.36674e-13 0 0 4.98879e-14 5.92012e-14 1.7072e-13 9.29919e-14 0 0 1.35266e-14 9.19266e-14 1.26619e-13 8.32844e-14 0 0 9.14664e-15 7.67531e-14 1.11779e-13 7.57067e-14 0 0 1.56477e-14 4.36478e-14 4.75547e-14 1.23208e-13 0 0 1.45137e-14 8.91518e-15 3.95407e-14 1.33264e-13 0 0 1.1467e-14 -1.08609e-14 9.64423e-14 5.07355e-14 0 0 3.13602e-15 1.72238e-14 7.98856e-14 4.6116e-14 0 0 -2.06221e-14 6.37223e-14 6.13402e-14 6.79145e-14 0 0 -2.13962e-14 8.15863e-14 5.19872e-14 1.05485e-13 0 0 -1.42608e-14 9.3928e-14 3.22717e-14 8.77406e-14 0 0 -1.292e-14 1.06867e-13 6.77004e-15 1.84466e-14 0 0 -1.0316e-14 8.9814e-14 3.86498e-14 2.63931e-16 0 0 2.34715e-15 3.33766e-14 1.3377e-13 -1.44639e-14 0 0 5.27199e-15 2.57819e-14 1.01732e-13 5.3064e-14 0 0 -6.58797e-15 4.20145e-14 6.82522e-14 1.16189e-13 0 0 -6.73924e-15 3.36875e-14 1.21749e-13 5.75486e-14 0 0 -3.24219e-14 7.73083e-14 1.01425e-13 2.17197e-14 0 0 -5.57898e-15 8.4133e-14 3.38384e-14 9.84304e-14 0 0 4.43407e-14 2.15569e-14 5.29079e-14 1.13015e-13 0 0 2.55624e-14 3.44175e-14 4.85461e-14 9.36053e-14 0 0 -3.40401e-15 5.21051e-14 6.27475e-14 6.99133e-14 0 0 -8.32754e-15 1.7458e-14 1.28753e-13 4.21714e-14 0 0 -9.6764e-15 -8.94966e-15 1.42163e-13 6.03649e-14 0 0 1.01441e-14 -2.19067e-14 1.38593e-13 1.50722e-14 0 0 2.15329e-14 -2.00864e-14 1.28164e-13 -3.50079e-14 0 0 2.93044e-15 -1.78001e-14 1.07247e-13 -1.54731e-14 0 0 -1.03142e-14 1.97552e-14 7.16305e-14 5.46865e-15 0 0 -9.65298e-15 7.40702e-14 3.32765e-14 -9.09404e-15 0 0 3.04702e-14 4.89571e-14 3.74268e-14 -5.16825e-14 0 0 5.61161e-14 1.99037e-14 3.02978e-14 -2.45223e-14 0 0 3.5824e-14 2.78082e-14 1.29966e-14 4.80058e-14 0 0 1.596e-14 2.18079e-14 4.20199e-14 5.25793e-14 0 0 1.10978e-14 1.11894e-14 6.70709e-14 3.85298e-14 0
				</DataArray>
				<DataArray Name="VitesseY" type="Float32" format="ascii">