<?xml version="1.0"?>
<VTKFile type="PolyData">
	<PolyData>
		<Piece NumberOfPoints="1206" NumberOfPolys="1000">
			<Points>
				<DataArray type="Float32" NumberOfComponents="3" format="ascii">
 0 0 0 0.02 0 0 0.04 0 0 0.06 0 0 0.08 0 0 0.1 0 0 0 0.005 0 0.02 0.005 0 0.04 0.005 0 0.06 0.005 0 0.08 0.005 0 0.1 0.005 0 0 0.01 0 0.02 0.01 0 0.04 0.01 0 0.06 0.01 0 0.08 0.01 0 0.1 0.01 0 0 0.015 0 0.02 0.015 0 0.04 0.015 0 0.06 0.015 0 0.08 0.015 0 0.1 0.015 0 0 0.02 0 0.02 0.02 0 0.04 0.02 0 0.06 0.02 0 0.08 0.02 0 0.1 0.02 0 0 0.025 0 0.02 0.025 0 0.04 0.025 0 0.06 0.025 0 0.08 0.025 0 0.1 0.025 0 0 0.03 0 0.02 0.03 0 0.04 0.03 0 0.06 0.03 0 0.08 0.03 0 0.1 0.03 0 0 0.035 0 0.02 0.035 0 0.04 0.035 0 0.06 0.035 0 0.08 0.035 0 0.1 0.035 0 0 0.04 0 0.02 0.04 0 0.04 0.04 0 0.06 0.04 0 0.08 0.04 0 0.1 0.04 0 0 0.045 0 0.02 0.045 0 0.04 0.045 0 0.06 0.045 0 0.08 0.045 0 0.1 0.045 0 0 0.05 0 0.02 0.05 0 0.04 0.05 0 0.06 0.05 0 0.08 0.05 0 0.1 0.05 0 0 0.055 0 0.02 0.055 0 0.04 0.055 0 0.06 0.055 0 0.08 0.055 0 0.1 0.055 0 0 0.06 0 0.02 0.06 0 0.04 0.06 0 0.06 0.06 0 0.08 0.06 0 0.1 0.06 0 0 0.065 0 0.02 0.065 0 0.04 0.065 0 0.06 0.065 0 0.08 0.065 0 0.1 0.065 0 0 0.07 0 0.02 0.07 0 0.04 0.07 0 0.06 0.07 0 0.08 0.07 0 0.1 0.07 0 0 0.075 0 0.02 0.075 0 0.04 0.075 0 0.06 0.075 0 0.08 0.075 0 0.1 0.075 0 0 0.08 0 0.02 0.08 0 0.04 0.08 0 0.06 0.08 0 0.08 0.08 0 0.1 0.08 0 0 0.085 0 0.02 0.085 0 0.04 0.085 0 0.06 0.085 0 0.08 0.085 0 0.1 0.085 0 0 0.09 0 0.02 0.09 0 0.04 0.09 0 0.06 0.09 0 0.08 0.09 0 0.1 0.09 0 0 0.095 0 0.02 0.095 0 0.04 0.095 0 0.06 0.095 0 0.08 0.095 0 0.1 0.095 0 0 0.1 0 0.02 0.1 0 0.04 0.1 0 0.06 0.1 0 0.08 0.1 0 0.1 0.1 0 0 0.105 0 0.02 0.105 0 0.04 0.105 0 0.06 0.105 0 0.08 0.105 0 0.1 0.105 0 0 0.11 0 0.02 0.11 0 0.04 0.11 0 0.06 0.11 0 0.08 0.11 0 0.1 0.11 0 0 0.115 0 0.02 0.115 0 0.04 0.115 0 0.06 0.115 0 0.08 0.115 0 0.1 0.115 0 0 0.12 0 0.02 0.12 0 0.04 0.12 0 0.06 0.12 0 0.08 0.12 0 0.1 0.12 0 0 0.125 0 0.02 0.125 0 0.04 0.125 0 0.06 0.125 0 0.08 0.125 0 0.1 0.125 0 0 0.13 0 0.02 0.13 0 0.04 0.13 0 0.06 0.13 0 0.08 0.13 0 0.1 0.13 0 0 0.135 0 0.02 0.135 0 0.04 0.135 0 0.06 0.135 0 0.08 0.135 0 0.1 0.135 0 0 0.14 0 0.02 0.14 0 0.04 0.14 0 0.06 0.14 0 0.08 0.14 0 0.1 0.14 0 0 0.145 0 0.02 0.145 0 0.04 0.145 0 0.06 0.145 0 0.08 0.145 0 0.1 0.145 0 0 0.15 0 0.02 0.15 0 0.04 0.15 0 0.06 0.15 0 0.08 0.15 0 0.1 0.15 0 0 0.155 0 0.02 0.155 0 0.04 0.155 0 0.06 0.155 0 0.08 0.155 0 0.1 0.155 0 0 0.16 0 0.02 0.16 0 0.04 0.16 0 0.06 0.16 0 0.08 0.16 0 0.1 0.16 0 0 0.165 0 0.02 0.165 0 0.04 0.165 0 0.06 0.165 0 0.08 0.165 0 0.1 0.165 0 0 0.17 0 0.02 0.17 0 0.04 0.17 0 0.06 0.17 0 0.08 0.17 0 0.1 0.17 0 0 0.175 0 0.02 0.175 0 0.04 0.175 0 0.06 0.175 0 0.08 0.175 0 0.1 0.175 0 0 0.18 0 0.02 0.18 0 0.04 0.18 0 0.06 0.18 0 0.08 0.18 0 0.1 0.18 0 0 0.185 0 0.02 0.185 0 0.04 0.185 0 0.06 0.185 0 0.08 0.185 0 0.1 0.185 0 0 0.19 0 0.02 0.19 0 0.04 0.19 0 0.06 0.19 0 0.08 0.19 0 0.1 0.19 0 0 0.195 0 0.02 0.195 0 0.04 0.195 0 0.06 0.195 0 0.08 0.195 0 0.1 0.195 0 0 0.2 0 0.02 0.2 0 0.04 0.2 0 0.06 0.2 0 0.08 0.2 0 0.1 0.2 0 0 0.205 0 0.02 0.205 0 0.04 0.205 0 0.06 0.205 0 0.08 0.205 0 0.1 0.205 0 0 0.21 0 0.02 0.21 0 0.04 0.21 0 0.06 0.21 0 0.08 0.21 0 0.1 0.21 0 0 0.215 0 0.02 0.215 0 0.04 0.215 0 0.06 0.215 0 0.08 0.215 0 0.1 0.215 0 0 0.22 0 0.02 0.22 0 0.04 0.22 0 0.06 0.22 0 0.08 0.22 0 0.1 0.22 0 0 0.225 0 0.02 0.225 0 0.04 0.225 0 0.06 0.225 0 0.08 0.225 0 0.1 0.225 0 0 0.23 0 0.02 0.23 0 0.04 0.23 0 0.06 0.23 0 0.08 0.23 0 0.1 0.23 0 0 0.235 0 0.02 0.235 0 0.04 0.235 0 0.06 0.235 0 0.08 0.235 0 0.1 0.235 0 0 0.24 0 0.02 0.24 0 0.04 0.24 0 0.06 0.24 0 0.08 0.24 0 0.1 0.24 0 0 0.245 0 0.02 0.245 0 0.04 0.245 0 0.06 0.245 0 0.08 0.245 0 0.1 0.245 0 0 0.25 0 0.02 0.25 0 0.04 0.25 0 0.06 0.25 0 0.08 0.25 0 0.1 0.25 0 0 0.255 0 0.02 0.255 0 0.04 0.255 0 0.06 0.255 0 0.08 0.255 0 0.1 0.255 0 0 0.26 0 0.02 0.26 0 0.04 0.26 0 0.06 0.26 0 0.08 0.26 0 0.1 0.26 0 0 0.265 0 0.02 0.265 0 0.04 0.265 0 0.06 0.265 0 0.08 0.265 0 0.1 0.265 0 0 0.27 0 0.02 0.27 0 0.04 0.27 0 0.06 0.27 0 0.08 0.27 0 0.1 0.27 0 0 0.275 0 0.02 0.275 0 0.04 0.275 0 0.06 0.275 0 0.08 0.275 0 0.1 0.275 0 0 0.28 0 0.02 0.28 0 0.04 0.28 0 0.06 0.28 0 0.08 0.28 0 0.1 0.28 0 0 0.285 0 0.02 0.285 0 0.04 0.285 0 0.06 0.285 0 0.08 0.285 0 0.1 0.285 0 0 0.29 0 0.02 0.29 0 0.04 0.29 0 0.06 0.29 0 0.08 0.29 0 0.1 0.29 0 0 0.295 0 0.02 0.295 0 0.04 0.295 0 0.06 0.295 0 0.08 0.295 0 0.1 0.295 0 0 0.3 0 0.02 0.3 0 0.04 0.3 0 0.06 0.3 0 0.08 0.3 0 0.1 0.3 0 0 0.305 0 0.02 0.305 0 0.04 0.305 0 0.06 0.305 0 0.08 0.305 0 0.1 0.305 0 0 0.31 0 0.02 0.31 0 0.04 0.31 0 0.06 0.31 0 0.08 0.31 0 0.1 0.31 0 0 0.315 0 0.02 0.315 0 0.04 0.315 0 0.06 0.315 0 0.08 0.315 0 0.1 0.315 0 0 0.32 0 0.02 0.32 0 0.04 0.32 0 0.06 0.32 0 0.08 0.32 0 0.1 0.32 0 0 0.325 0 0.02 0.325 0 0.04 0.325 0 0.06 0.325 0 0.08 0.325 0 0.1 0.325 0 0 0.33 0 0.02 0.33 0 0.04 0.33 0 0.06 0.33 0 0.08 0.33 0 0.1 0.33 0 0 0.335 0 0.02 0.335 0 0.04 0.335 0 0.06 0.335 0 0.08 0.335 0 0.1 0.335 0 0 0.34 0 0.02 0.34 0 0.04 0.34 0 0.06 0.34 0 0.08 0.34 0 0.1 0.34 0 0 0.345 0 0.02 0.345 0 0.04 0.345 0 0.06 0.345 0 0.08 0.345 0 0.1 0.345 0 0 0.35 0 0.02 0.35 0 0.04 0.35 0 0.06 0.35 0 0.08 0.35 0 0.1 0.35 0 0 0.355 0 0.02 0.355 0 0.04 0.355 0 0.06 0.355 0 0.08 0.355 0 0.1 0.355 0 0 0.36 0 0.02 0.36 0 0.04 0.36 0 0.06 0.36 0 0.08 0.36 0 0.1 0.36 0 0 0.365 0 0.02 0.365 0 0.04 0.365 0 0.06 0.365 0 0.08 0.365 0 0.1 0.365 0 0 0.37 0 0.02 0.37 0 0.04 0.37 0 0.06 0.37 0 0.08 0.37 0 0.1 0.37 0 0 0.375 0 0.02 0.375 0 0.04 0.375 0 0.06 0.375 0 0.08 0.375 0 0.1 0.375 0 0 0.38 0 0.02 0.38 0 0.04 0.38 0 0.06 0.38 0 0.08 0.38 0 0.1 0.38 0 0 0.385 0 0.02 0.385 0 0.04 0.385 0 0.06 0.385 0 0.08 0.385 0 0.1 0.385 0 0 0.39 0 0.02 0.39 0 0.04 0.39 0 0.06 0.39 0 0.08 0.39 0 0.1 0.39 0 0 0.395 0 0.02 0.395 0 0.04 0.395 0 0.06 0.395 0 0.08 0.395 0 0.1 0.395 0 0 0.4 0 0.02 0.4 0 0.04 0.4 0 0.06 0.4 0 0.08 0.4 0 0.1 0.4 0 0 0.405 0 0.02 0.405 0 0.04 0.405 0 0.06 0.405 0 0.08 0.405 0 0.1 0.405 0 0 0.41 0 0.02 0.41 0 0.04 0.41 0 0.06 0.41 0 0.08 0.41 0 0.1 0.41 0 0 0.415 0 0.02 0.415 0 0.04 0.415 0 0.06 0.415 0 0.08 0.415 0 0.1 0.415 0 0 0.42 0 0.02 0.42 0 0.04 0.42 0 0.06 0.42 0 0.08 0.42 0 0.1 0.42 0 0 0.425 0 0.02 0.425 0 0.04 0.425 0 0.06 0.425 0 0.08 0.425 0 0.1 0.425 0 0 0.43 0 0.02 0.43 0 0.04 0.43 0 0.06 0.43 0 0.08 0.43 0 0.1 0.43 0 0 0.435002 0 0.02 0.435002 0 0.04 0.435002 0 0.06 0.435002 0 0.08 0.435002 0 0.1 0.435002 0 0 0.440009 0 0.02 0.440009 0 0.04 0.440009 0 0.06 0.440009 0 0.08 0.440009 0 0.1 0.440009 0 0 0.445043 0 0.02 0.445043 0 0.04 0.445043 0 0.06 0.445043 0 0.08 0.445043 0 0.1 0.445043 0 0 0.45016 0 0.02 0.45016 0 0.04 0.45016 0 0.06 0.45016 0 0.08 0.45016 0 0.1 0.45016 0 0 0.455468 0 0.02 0.455468 0 0.04 0.455468 0 0.06 0.455468 0 0.08 0.455468 0 0.1 0.455468 0 0 0.461116 0 0.02 0.461116 0 0.04 0.461116 0 0.06 0.461116 0 0.08 0.461116 0 0.1 0.461116 0 0 0.467264 0 0.02 0.467264 0 0.04 0.467264 0 0.06 0.467264 0 0.08 0.467264 0 0.1 0.467264 0 0 0.474086 0 0.02 0.474086 0 0.04 0.474086 0 0.06 0.474086 0 0.08 0.474086 0 0.1 0.474086 0 0 0.481799 0 0.02 0.481799 0 0.04 0.481799 0 0.06 0.481799 0 0.08 0.481799 0 0.1 0.481799 0 0 0.490695 0 0.02 0.490695 0 0.04 0.490695 0 0.06 0.490695 0 0.08 0.490695 0 0.1 0.490695 0 0 0.501155 0 0.02 0.501155 0 0.04 0.501155 0 0.06 0.501155 0 0.08 0.501155 0 0.1 0.501155 0 0 0.513313 0 0.02 0.513313 0 0.04 0.513313 0 0.06 0.513313 0 0.08 0.513313 0 0.1 0.513313 0 0 0.525768 0 0.02 0.525768 0 0.04 0.525768 0 0.06 0.525768 0 0.08 0.525768 0 0.1 0.525768 0 0 0.537777 0 0.02 0.537777 0 0.04 0.537777 0 0.06 0.537777 0 0.08 0.537777 0 0.1 0.537777 0 0 0.540409 0 0.02 0.540409 0 0.04 0.540409 0 0.06 0.540409 0 0.08 0.540409 0 0.1 0.540409 0 0 0.542965 0 0.02 0.542965 0 0.04 0.542965 0 0.06 0.542965 0 0.08 0.542965 0 0.1 0.542965 0 0 0.545476 0 0.02 0.545476 0 0.04 0.545476 0 0.06 0.545476 0 0.08 0.545476 0 0.1 0.545476 0 0 0.547957 0 0.02 0.547957 0 0.04 0.547957 0 0.06 0.547957 0 0.08 0.547957 0 0.1 0.547957 0 0 0.550419 0 0.02 0.550419 0 0.04 0.550419 0 0.06 0.550419 0 0.08 0.550419 0 0.1 0.550419 0 0 0.552867 0 0.02 0.552867 0 0.04 0.552867 0 0.06 0.552867 0 0.08 0.552867 0 0.1 0.552867 0 0 0.555313 0 0.02 0.555313 0 0.04 0.555313 0 0.06 0.555313 0 0.08 0.555313 0 0.1 0.555313 0 0 0.557763 0 0.02 0.557763 0 0.04 0.557763 0 0.06 0.557763 0 0.08 0.557763 0 0.1 0.557763 0 0 0.560245 0 0.02 0.560245 0 0.04 0.560245 0 0.06 0.560245 0 0.08 0.560245 0 0.1 0.560245 0 0 0.562772 0 0.02 0.562772 0 0.04 0.562772 0 0.06 0.562772 0 0.08 0.562772 0 0.1 0.562772 0 0 0.565404 0 0.02 0.565404 0 0.04 0.565404 0 0.06 0.565404 0 0.08 0.565404 0 0.1 0.565404 0 0 0.56813 0 0.02 0.56813 0 0.04 0.56813 0 0.06 0.56813 0 0.08 0.56813 0 0.1 0.56813 0 0 0.571053 0 0.02 0.571053 0 0.04 0.571053 0 0.06 0.571053 0 0.08 0.571053 0 0.1 0.571053 0 0 0.57418 0 0.02 0.57418 0 0.04 0.57418 0 0.06 0.57418 0 0.08 0.57418 0 0.1 0.57418 0 0 0.577656 0 0.02 0.577656 0 0.04 0.577656 0 0.06 0.577656 0 0.08 0.577656 0 0.1 0.577656 0 0 0.581498 0 0.02 0.581498 0 0.04 0.581498 0 0.06 0.581498 0 0.08 0.581498 0 0.1 0.581498 0 0 0.585736 0 0.02 0.585736 0 0.04 0.585736 0 0.06 0.585736 0 0.08 0.585736 0 0.1 0.585736 0 0 0.590306 0 0.02 0.590306 0 0.04 0.590306 0 0.06 0.590306 0 0.08 0.590306 0 0.1 0.590306 0 0 0.595108 0 0.02 0.595108 0 0.04 0.595108 0 0.06 0.595108 0 0.08 0.595108 0 0.1 0.595108 0 0 0.600033 0 0.02 0.600033 0 0.04 0.600033 0 0.06 0.600033 0 0.08 0.600033 0 0.1 0.600033 0 0 0.60501 0 0.02 0.60501 0 0.04 0.60501 0 0.06 0.60501 0 0.08 0.60501 0 0.1 0.60501 0 0 0.610003 0 0.02 0.610003 0 0.04 0.610003 0 0.06 0.610003 0 0.08 0.610003 0 0.1 0.610003 0 0 0.615001 0 0.02 0.615001 0 0.04 0.615001 0 0.06 0.615001 0 0.08 0.615001 0 0.1 0.615001 0 0 0.62 0 0.02 0.62 0 0.04 0.62 0 0.06 0.62 0 0.08 0.62 0 0.1 0.62 0 0 0.625 0 0.02 0.625 0 0.04 0.625 0 0.06 0.625 0 0.08 0.625 0 0.1 0.625 0 0 0.63 0 0.02 0.63 0 0.04 0.63 0 0.06 0.63 0 0.08 0.63 0 0.1 0.63 0 0 0.635 0 0.02 0.635 0 0.04 0.635 0 0.06 0.635 0 0.08 0.635 0 0.1 0.635 0 0 0.64 0 
[...]
			<PointData Scalars="VitesseX">
				<DataArray Name="VitesseX" type="Float32" format="ascii">
 0 3.09764e-16 -2.37625e-15 -2.89805e-15 -3.42263e-15 0 0 4.78843e-16 -2.39472e-15 -2.97611e-15 -3.20619e-15 0 0 2.03154e-16 -1.87877e-15 -2.87713e-15 -3.13645e-15 0 0 -1.12481e-15 -3.77948e-16 -3.30605e-15 -3.34643e-15 0 0 -2.45667e-15 4.82261e-16 -2.89272e-15 -4.25142e-15 0 0 -2.30776e-15 7.43609e-17 -2.74314e-15 -5.064e-15 0 0 -1.45961e-15 2.51076e-16 -5.04513e-15 -4.60648e-15 0 0 6.10195e-17 -2.15633e-15 -2.62865e-15 -6.24622e-15 0 0 1.3524e-16 -4.3848e-15 1.95036e-15 -9.39084e-15 0 0 -9.11574e-16 -1.11642e-15 -5.71869e-16 -9.5749e-15 0 0 -6.06188e-16 1.84628e-15 -3.30918e-15 -1.00477e-14 0 0 2.37153e-15 -1.70994e-15 -6.40058e-16 -1.07142e-14 0 0 2.35363e-15 -2.4673e-15 -5.5828e-16 -8.29548e-15 0 0 1.87075e-16 -4.11399e-15 1.73768e-15 -1.19302e-14 0 0 -4.01447e-15 -1.70597e-15 -1.52184e-15 -1.11631e-14 0 0 -4.57337e-15 -6.42959e-16 -8.3967e-15 -6.75942e-15 0 0 -1.33704e-15 -9.70684e-15 -3.1276e-15 -1.30629e-14 0 0 -5.4317e-15 -8.30852e-15 -2.05469e-15 -1.55314e-14 0 0 -4.84458e-15 -9.19447e-15 -3.50956e-15 -1.19208e-14 0 0 -2.41294e-15 -1.16237e-14 -2.33868e-15 -9.52395e-15 0 0 -3.89487e-15 -7.43678e-15 -5.46495e-15 -7.87533e-15 0 0 -3.77899e-15 -1.07987e-14 -2.45452e-15 -9.02316e-15 0 0 -4.95641e-15 -9.57758e-15 -4.16926e-15 -8.49679e-15 0 0 -5.67014e-15 -6.82128e-15 -6.48417e-15 -7.60994e-15 0 0 -6.24567e-15 -6.722e-15 -2.20377e-15 -1.38576e-14 0 0 -8.92923e-15 -2.10094e-15 -7.29941e-15 -9.57888e-15 0 0 -4.04249e-15 -2.86685e-15 -1.51148e-14 4.05028e-15 0 0 -1.56707e-16 -4.45588e-15 -1.1115e-14 4.52817e-15 0 0 -4.4261e-15 -1.8371e-15 -4.23959e-15 3.65408e-15 0 0 -9.37383e-15 3.14237e-17 -5.76022e-15 1.07804e-14 0 0 -6.2156e-15 -6.20973e-15 -2.98632e-15 5.61163e-15 0 0 -9.02064e-15 -4.76832e-15 -3.40005e-15 1.94163e-15 0 0 -1.05238e-14 -2.51059e-15 -1.03793e-14 2.40598e-15 0 0 -6.67726e-16 -1.16533e-14 -1.16312e-14 -9.81561e-15 0 0 -5.85694e-15 -9.74549e-15 -1.87502e-14 -1.41606e-14 0 0 -1.35919e-14 -5.00401e-15 -2.37883e-14 -1.89477e-14 0 0 -1.3465e-14 -9.95171e-15 -2.51615e-14 -1.3344e-14 0 0 -1.334e-14 -1.72021e-14 -2.01678e-14 -1.66626e-15 0 0 -1.31342e-14 -2.2996e-14 -5.68704e-15 -6.84663e-15 0 0 -1.79099e-14 -1.97952e-14 -1.84556e-16 -1.45368e-14 0 0 -2.30632e-14 -1.20111e-14 -4.70065e-15 -1.06955e-14 0 0 -2.15522e-14 -1.25284e-14 -9.72877e-15 -1.55679e-15 0 0 -1.66316e-14 -1.17124e-14 -1.19327e-14 -3.72761e-15 0 0 -1.3736e-14 -1.64126e-14 -1.69309e-14 2.74078e-16 0 0 -1.99617e-14 -1.07974e-14 -2.99002e-14 8.61758e-15 0 0 -2.26715e-14 -7.61497e-15 -2.70544e-14 1.50988e-15 0 0 -1.86133e-14 -1.69121e-14 -1.4225e-14 -1.07128e-14 0 0 -1.69611e-14 -2.12225e-14 -1.64528e-14 -2.75611e-15 0 0 -1.71571e-14 -2.49321e-14 -1.89984e-14 4.12256e-15 0 0 -1.19824e-14 -2.73591e-14 -1.60993e-14 -1.04382e-14 0 0 -1.48224e-14 -9.597e-15 -3.39501e-14 -1.35501e-14 0 0 -1.47855e-14 -1.02204e-14 -3.64749e-14 -5.1628e-15 0 0 -5.3651e-15 -2.7243e-14 -1.57556e-14 -8.61604e-15 0 0 -1.13279e-14 -1.69642e-14 -1.85225e-14 -7.0339e-15 0 0 -1.42051e-14 -1.35609e-14 -1.01121e-14 -1.18596e-14 0 0 -8.1446e-15 -1.43574e-14 6.96535e-15 -2.4074e-14 0 0 -1.61568e-14 -9.39543e-15 -2.3325e-15 -6.02076e-15 0 0 -1.79505e-14 -2.71264e-14 7.6286e-15 -2.18648e-15 0 0 -2.04573e-14 -2.34989e-14 -3.3228e-15 2.11534e-15 0 0 -2.7309e-14 -1.13944e-14 -2.09355e-14 6.88138e-15 0 0 -2.12364e-14 -2.06393e-14 -1.61003e-14 -1.20516e-15 0 0 -1.95783e-14 -2.63723e-14 -3.1893e-14 7.45055e-15 0 0 -1.64559e-14 -4.25871e-14 -2.77554e-14 8.07249e-15 0 0 -2.33625e-14 -3.50652e-14 -1.95675e-14 4.90556e-15 0 0 -2.90371e-14 -2.68687e-14 -1.98471e-14 8.12841e-15 0 0 -2.15704e-14 -3.2557e-14 -1.10882e-14 -2.48315e-15 0 0 -1.72665e-14 -3.84338e-14 -2.02033e-14 -7.22062e-15 0 0 -1.75079e-14 -3.62715e-14 -2.79792e-14 -9.88409e-15 0 0 -3.22699e-14 -8.37599e-15 -4.31407e-14 -9.56246e-15 0 0 -2.61386e-14 -2.12824e-14 -4.82258e-14 1.85614e-15 0 0 -1.59144e-14 -3.89562e-14 -3.19235e-14 -1.67961e-14 0 0 -2.46925e-14 -2.69497e-14 -4.85745e-14 -1.62648e-14 0 0 -2.65633e-14 -3.30764e-14 -4.75552e-14 -3.70116e-15 0 0 -3.09836e-14 -3.95964e-14 -3.38966e-14 7.29092e-15 0 0 -2.77279e-14 -5.40313e-14 -1.16865e-14 6.04898e-15 0 0 -2.1319e-14 -5.80831e-14 -1.44348e-16 -8.33017e-15 0 0 -2.11693e-14 -5.80915e-14 -5.98182e-15 -6.06059e-15 0 0 -3.12418e-14 -3.64986e-14 -1.89127e-14 -1.98894e-14 0 0 -2.16713e-14 -3.11679e-14 -2.32959e-14 -4.05832e-14 0 0 -1.00054e-14 -2.82124e-14 -3.66506e-14 -1.88624e-14 0 0 -3.30941e-15 -4.35043e-15 -5.89139e-14 2.00646e-14 0 0 1.03672e-14 -9.37002e-15 -4.46385e-14 1.93022e-14 0 0 -3.93002e-15 -1.04646e-14 -1.40267e-14 -4.72741e-15 0 0 -1.62683e-14 -1.0417e-14 -7.97281e-16 -1.42113e-14 0 0 3.40329e-15 -2.47771e-14 1.47375e-16 -2.59362e-14 0 0 1.23308e-14 -2.39683e-14 -6.21531e-15 -2.57839e-14 0 0 1.48388e-15 -1.80199e-14 -2.50781e-14 1.46784e-15 0 0 -5.97647e-15 -1.68563e-14 -2.09197e-14 1.5625e-14 0 0 -1.88517e-14 -3.72464e-15 -1.44612e-14 1.15025e-14 0 0 -1.56574e-14 -2.91502e-15 -1.07927e-14 2.2405e-15 0 0 -3.10984e-15 -8.12167e-15 -6.72328e-15 7.48504e-16 0 0 2.82761e-15 -2.02365e-14 -1.21172e-14 -4.64326e-15 0 0 -6.60007e-15 -1.07132e-14 -2.39505e-15 -1.34596e-14 0 0 -1.62208e-14 3.89101e-15 5.06604e-15 -8.29495e-15 0 0 5.857e-15 -5.27048e-15 6.57551e-15 -5.47883e-16 0 0 1.80566e-16 1.01216e-15 5.88978e-15 -3.91457e-15 0 0 -6.12599e-15 -1.10646e-15 -2.85385e-15 -9.45358e-15 0 0 -3.95812e-15 -1.27248e-14 3.80956e-15 -9.5593e-15 0 0 -1.39957e-14 -1.95881e-14 8.59593e-15 -2.80212e-14 0 0 -3.12995e-14 -5.50819e-14 -3.89935e-14 -4.58795e-14 0 0 -7.86423e-14 -1.22708e-13 -1.05917e-13 -6.34106e-14 0 0 -2.71467e-13 -4.83858e-13 -4.45781e-13 -3.09368e-13 0 0 -3.04807e-13 -5.26883e-13 -5.02277e-13 -3.59021e-13 0 0 -3.52214e-13 -5.4551e-13 -5.47917e-13 -3.6619e-13 0 0 -3.29994e-13 -5.72798e-13 -5.45898e-13 -3.18255e-13 0 0 -3.04214e-13 -5.14648e-13 -5.21285e-13 -3.44493e-13 0 0 -2.86605e-13 -4.52569e-13 -3.86229e-13 -4.25103e-13 0 0 -2.84287e-13 -3.63249e-13 -3.05495e-13 -3.7532e-13 0 0 -2.54867e-13 -3.91922e-13 -3.19587e-13 -2.95821e-13 0 0 -2.22494e-13 -5.60205e-13 -4.15747e-13 -2.43966e-13 0 0 -2.89866e-13 -6.54144e-13 -6.01722e-13 -2.90629e-13 0 0 -4.18201e-13 -7.1957e-13 -8.72765e-13 -3.46444e-13 0 0 -4.71228e-13 -7.01933e-13 -9.94261e-13 -2.58133e-13 0 0 -4.93172e-13 -7.9941e-13 -9.63631e-13 -3.34327e-13 0 0 -4.49782e-13 -7.39509e-13 -7.39752e-13 -3.69753e-13 0 0 -3.55751e-13 -5.91071e-13 -5.66833e-13 -3.17472e-13 0 0 -2.22685e-13 -4.22151e-13 -4.07772e-13 -2.08371e-13 0 0 -1.30919e-13 -2.07039e-13 -2.04579e-13 -9.70467e-14 0 0 -5.3045e-14 -5.39858e-14 -8.14127e-14 -5.20016e-14 0 0 -9.59548e-15 -1.75188e-14 -2.74072e-14 -1.56553e-14 0 0 -3.32184e-15 -9.13941e-15 -2.04449e-14 7.71445e-15 0 0 -1.23196e-14 -9.29665e-15 1.68295e-14 -4.09422e-14 0 0 -1.7139e-15 -8.95019e-15 2.93708e-15 -3.62106e-14 0 0 6.55579e-15 -1.03539e-14 -1.97291e-14 -2.49075e-15 0 0 1.02165e-14 -9.58505e-15 -2.64665e-14 -6.977e-15 0 0 1.57285e-14 -1.99124e-14 -1.87185e-14 -2.08098e-14 0 0 1.19148e-16 -1.09435e-14 -2.00077e-14 -1.16804e-14 0 0 -1.75343e-14 1.49867e-14 -6.1433e-14 1.03966e-14 0 0 -1.78004e-14 6.3997e-15 -4.05025e-14 -1.46708e-14 0 0 -2.736e-14 -1.66156e-15 -1.3784e-14 -4.51659e-14 0 0 -3.04845e-14 -4.71792e-15 -2.7021e-14 -3.77674e-14 0 0 -3.13987e-14 -1.32894e-14 -3.75335e-14 -4.14823e-14 0 0 -3.65773e-14 -2.75477e-14 -5.61922e-14 -5.19289e-14 0 0 -3.32246e-14 -5.30929e-14 -7.25042e-14 -2.55386e-14 0 0 -4.36626e-14 -5.23368e-14 -6.34374e-14 -5.74993e-14 0 0 -5.04174e-14 -5.23368e-14 -8.20949e-14 -6.10429e-14 0 0 -3.94603e-14 -9.94607e-14 -6.96561e-14 -3.06188e-14 0 0 -5.93511e-14 -1.21647e-13 -3.29461e-14 -2.20518e-14 0 0 -7.26111e-14 -9.84194e-14 -5.74461e-14 1.62813e-15 0 0 -7.08956e-14 -7.95208e-14 -8.33253e-14 2.65705e-14 0 0 -5.51312e-14 -1.04089e-13 -5.9163e-14 2.09677e-14 0 0 -2.24696e-14 -1.15283e-13 -5.11154e-14 -3.25591e-14 0 0 -3.77909e-14 -7.63143e-14 -8.83568e-14 -4.88122e-14 0 0 -5.89249e-14 -6.13317e-14 -1.07738e-13 -6.41267e-14 0 0 -5.96703e-14 -5.66813e-14 -1.12485e-13 -9.60293e-14 0 0 -5.32898e-14 -5.77078e-14 -1.18945e-13 -8.44941e-14 0 0 -3.01001e-14 -9.15887e-14 -9.39459e-14 -7.54416e-14 0 0 -4.92169e-14 -7.29135e-14 -8.458e-14 -7.14114e-14 0 0 -7.53209e-14 -6.08337e-14 -8.54453e-14 -4.86461e-14 0 0 -6.10779e-14 -9.84966e-14 -6.67555e-14 -4.79516e-14 0 0 -6.56403e-14 -8.87388e-14 -8.08126e-14 -5.40156e-14 0 0 -6.48496e-14 -1.165e-13 -5.59457e-14 -3.14788e-14 0 0 -7.11919e-14 -1.38462e-13 -4.03678e-14 1.38948e-14 0 0 -8.05759e-14 -1.16931e-13 -4.58525e-14 5.55627e-15 0 0 -8.74583e-14 -1.1112e-13 -4.13019e-14 -1.83826e-14 0 0 -6.95039e-14 -1.32366e-13 -5.6459e-14 -1.37869e-14 0 0 -3.90284e-14 -1.51453e-13 -8.53941e-14 -3.61572e-14 0 0 -3.58266e-14 -1.55338e-13 -9.47214e-14 -4.34526e-14 0 0 -6.30402e-14 -1.32209e-13 -7.6653e-14 -5.75971e-14 0 0 -9.55787e-14 -7.71201e-14 -8.31924e-14 -7.94808e-14 0 0 -7.71492e-14 -8.54917e-14 -1.05867e-13 -2.79783e-14 0 0 -5.19556e-14 -1.20446e-13 -1.07927e-13 2.59692e-15 0 0 -5.83474e-14 -8.63352e-14 -1.0223e-13 -5.09937e-14 0 0 -5.22357e-14 -9.35385e-14 -8.24015e-14 -4.9886e-14 0 0 -3.14394e-14 -1.63589e-13 -4.48403e-14 -1.17014e-14 0 0 -6.04663e-14 -1.61609e-13 -4.63062e-14 -3.12171e-15 0 0 -1.02856e-13 -1.17565e-13 -5.63074e-14 -1.52672e-14 0 0 -1.11334e-13 -9.04643e-14 -7.22442e-14 -1.72662e-14 0 0 -7.66713e-14 -1.16843e-13 -6.55249e-14 -2.84559e-14 0 0 -6.38937e-14 -1.14458e-13 -6.02347e-14 -7.5065e-14 0 0 -5.22814e-14 -1.3559e-13 -4.34942e-14 -6.94367e-14 0 0 -4.13271e-14 -1.35533e-13 -5.99905e-14 -2.2825e-14 0 0 -5.67994e-14 -1.09827e-13 -1.07865e-13 3.29448e-14 0 0 -6.80676e-14 -9.99506e-14 -1.30876e-13 3.61109e-14 0 0 -7.85242e-14 -9.1239e-14 -9.27584e-14 -6.3877e-14 0 0 -7.39543e-14 -1.19297e-13 -6.91661e-14 -8.62426e-14 0 0 -8.67312e-14 -8.70317e-14 -1.40032e-13 -2.43535e-14 0 0 -7.99265e-14 -1.0129e-13 -1.4069e-13 9.96182e-16 0 0 -6.50066e-14 -1.47232e-13 -9.93667e-14 -2.49798e-16 0 0 -8.19084e-14 -9.97479e-14 -1.31897e-13 -1.45452e-15 0 0 -8.6464e-14 -7.56169e-14 -1.26219e-13 -2.44769e-14 0 0 -8.56145e-14 -1.35083e-13 -5.28713e-14 -2.32858e-14 0 0 -8.48456e-14 -1.71787e-13 -4.44654e-14 1.66526e-14 0 0 -7.46978e-14 -1.74086e-13 -4.69946e-14 2.91977e-14 0 0 -8.57635e-14 -1.16818e-13 -9.14093e-14 3.28103e-14 0 0 -8.31503e-14 -7.67368e-14 -1.25013e-13 1.15997e-14 0 0 -7.49682e-14 -9.97843e-14 -6.53415e-14 -5.35833e-14 0 0 -1.24857e-13 -7.97368e-14 -2.32258e-14 -8.89042e-14 0 0 -1.23246e-13 -9.42313e-14 -7.52622e-15 -5.49905e-14 0 0 -9.96665e-14 -1.01633e-13 -2.72301e-14 -2.9694e-14 0 0 -7.90474e-14 -9.31443e-14 -5.13221e-14 -2.54865e-14 0 0 -4.80474e-14 -1.20515e-13 -1.91079e-14 -6.16279e-14 0 0 -7.47619e-14 -8.48775e-14 -4.49577e-14 -3.42563e-14 0 0 -8.27611e-14 -5.78341e-14 -6.45183e-14 9.26013e-16 0 0 -6.21085e-14 -7.62e-14 -3.51881e-14 -3.04445e-14 0 0 -5.65173e-14 -6.6775e-14 -7.44879e-14 -2.47272e-14 0 0 -5.77957e-14 -6.94924e-14 -7.51878e-14 -4.8472e-14 0 0 -5.7804e-14 -8.36265e-14 -5.10913e-14 -6.53252e-14 0 0 -8.7003e-14 -5.1239e-14 -7.6764e-14 -5.79402e-14 0 0 -6.92386e-14 -6.13488e-14 -7.99845e-14 -6.86876e-14 0 0 -2.26844e-14 -1.01314e-13 -6.83722e-14 -7.60241e-14 0
				</DataArray>
				<DataArray Name="VitesseY" type="Float32" format="ascii">