<?xml version="1.0"?>
<VTKFile type="PolyData">
	<PolyData>
		<Piece NumberOfPoints="1206" NumberOfPolys="1000">
			<Points>
				<DataArray type="Float32" NumberOfComponents="3" format="ascii">
 0 0 0 0.02 0 0 0.04 0 0 0.06 0 0 0.08 0 0 0.1 0 0 0 0.005 0 0.02 0.005 0 0.04 0.005 0 0.06 0.005 0 0.08 0.005 0 0.1 0.005 0 0 0.01 0 0.02 0.01 0 0.04 0.01 0 0.06 0.01 0 0.08 0.01 0 0.1 0.01 0 0 0.015 0 0.02 0.015 0 0.04 0.015 0 0.06 0.015 0 0.08 0.015 0 0.1 0.015 0 0 0.02 0 0.02 0.02 0 0.04 0.02 0 0.06 0.02 0 0.08 0.02 0 0.1 0.02 0 0 0.025 0 0.02 0.025 0 0.04 0.025 0 0.06 0.025 0 0.08 0.025 0 0.1 0.025 0 0 0.03 0 0.02 0.03 0 0.04 0.03 0 0.06 0.03 0 0.08 0.03 0 0.1 0.03 0 0 0.035 0 0.02 0.035 0 0.04 0.035 0 0.06 0.035 0 0.08 0.035 0 0.1 0.035 0 0 0.04 0 0.02 0.04 0 0.04 0.04 0 0.06 0.04 0 0.08 0.04 0 0.1 0.04 0 0 0.045 0 0.02 0.045 0 0.04 0.045 0 0.06 0.045 0 0.08 0.045 0 0.1 0.045 0 0 0.05 0 0.02 0.05 0 0.04 0.05 0 0.06 0.05 0 0.08 0.05 0 0.1 0.05 0 0 0.055 0 0.02 0.055 0 0.04 0.055 0 0.06 0.055 0 0.08 0.055 0 0.1 0.055 0 0 0.06 0 0.02 0.06 0 0.04 0.06 0 0.06 0.06 0 0.08 0.06 0 0.1 0.06 0 0 0.065 0 0.02 0.065 0 0.04 0.065 0 0.06 0.065 0 0.08 0.065 0 0.1 0.065 0 0 0.07 0 0.02 0.07 0 0.04 0.07 0 0.06 0.07 0 0.08 0.07 0 0.1 0.07 0 0 0.075 0 0.02 0.075 0 0.04 0.075 0 0.06 0.075 0 0.08 0.075 0 0.1 0.075 0 0 0.08 0 0.02 0.08 0 0.04 0.08 0 0.06 0.08 0 0.08 0.08 0 0.1 0.08 0 0 0.085 0 0.02 0.085 0 0.04 0.085 0 0.06 0.085 0 0.08 0.085 0 0.1 0.085 0 0 0.09 0 0.02 0.09 0 0.04 0.09 0 0.06 0.09 0 0.08 0.09 0 0.1 0.09 0 0 0.095 0 0.02 0.095 0 0.04 0.095 0 0.06 0.095 0 0.08 0.095 0 0.1 0.095 0 0 0.1 0 0.02 0.1 0 0.04 0.1 0 0.06 0.1 0 0.08 0.1 0 0.1 0.1 0 0 0.105 0 0.02 0.105 0 0.04 0.105 0 0.06 0.105 0 0.08 0.105 0 0.1 0.105 0 0 0.11 0 0.02 0.11 0 0.04 0.11 0 0.06 0.11 0 0.08 0.11 0 0.1 0.11 0 0 0.115 0 0.02 0.115 0 0.04 0.115 0 0.06 0.115 0 0.08 0.115 0 0.1 0.115 0 0 0.12 0 0.02 0.12 0 0.04 0.12 0 0.06 0.12 0 0.08 0.12 0 0.1 0.12 0 0 0.125 0 0.02 0.125 0 0.04 0.125 0 0.06 0.125 0 0.08 0.125 0 0.1 0.125 0 0 0.13 0 0.02 0.13 0 0.04 0.13 0 0.06 0.13 0 0.08 0.13 0 0.1 0.13 0 0 0.135 0 0.02 0.135 0 0.04 0.135 0 0.06 0.135 0 0.08 0.135 0 0.1 0.135 0 0 0.14 0 0.02 0.14 0 0.04 0.14 0 0.06 0.14 0 0.08 0.14 0 0.1 0.14 0 0 0.145 0 0.02 0.145 0 0.04 0.145 0 0.06 0.145 0 0.08 0.145 0 0.1 0.145 0 0 0.15 0 0.02 0.15 0 0.04 0.15 0 0.06 0.15 0 0.08 0.15 0 0.1 0.15 0 0 0.155 0 0.02 0.155 0 0.04 0.155 0 0.06 0.155 0 0.08 0.155 0 0.1 0.155 0 0 0.16 0 0.02 0.16 0 0.04 0.16 0 0.06 0.16 0 0.08 0.16 0 0.1 0.16 0 0 0.165 0 0.02 0.165 0 0.04 0.165 0 0.06 0.165 0 0.08 0.165 0 0.1 0.165 0 0 0.17 0 0.02 0.17 0 0.04 0.17 0 0.06 0.17 0 0.08 0.17 0 0.1 0.17 0 0 0.175 0 0.02 0.175 0 0.04 0.175 0 0.06 0.175 0 0.08 0.175 0 0.1 0.175 0 0 0.18 0 0.02 0.18 0 0.04 0.18 0 0.06 0.18 0 0.08 0.18 0 0.1 0.18 0 0 0.185 0 0.02 0.185 0 0.04 0.185 0 0.06 0.185 0 0.08 0.185 0 0.1 0.185 0 0 0.19 0 0.02 0.19 0 0.04 0.19 0 0.06 0.19 0 0.08 0.19 0 0.1 0.19 0 0 0.195 0 0.02 0.195 0 0.04 0.195 0 0.06 0.195 0 0.08 0.195 0 0.1 0.195 0 0 0.2 0 0.02 0.2 0 0.04 0.2 0 0.06 0.2 0 0.08 0.2 0 0.1 0.2 0 0 0.205 0 0.02 0.205 0 0.04 0.205 0 0.06 0.205 0 0.08 0.205 0 0.1 0.205 0 0 0.21 0 0.02 0.21 0 0.04 0.21 0 0.06 0.21 0 0.08 0.21 0 0.1 0.21 0 0 0.215 0 0.02 0.215 0 0.04 0.215 0 0.06 0.215 0 0.08 0.215 0 0.1 0.215 0 0 0.22 0 0.02 0.22 0 0.04 0.22 0 0.06 0.22 0 0.08 0.22 0 0.1 0.22 0 0 0.225 0 0.02 0.225 0 0.04 0.225 0 0.06 0.225 0 0.08 0.225 0 0.1 0.225 0 0 0.23 0 0.02 0.23 0 0.04 0.23 0 0.06 0.23 0 0.08 0.23 0 0.1 0.23 0 0 0.235 0 0.02 0.235 0 0.04 0.235 0 0.06 0.235 0 0.08 0.235 0 0.1 0.235 0 0 0.24 0 0.02 0.24 0 0.04 0.24 0 0.06 0.24 0 0.08 0.24 0 0.1 0.24 0 0 0.245 0 0.02 0.245 0 0.04 0.245 0 0.06 0.245 0 0.08 0.245 0 0.1 0.245 0 0 0.25 0 0.02 0.25 0 0.04 0.25 0 0.06 0.25 0 0.08 0.25 0 0.1 0.25 0 0 0.255 0 0.02 0.255 0 0.04 0.255 0 0.06 0.255 0 0.08 0.255 0 0.1 0.255 0 0 0.26 0 0.02 0.26 0 0.04 0.26 0 0.06 0.26 0 0.08 0.26 0 0.1 0.26 0 0 0.265 0 0.02 0.265 0 0.04 0.265 0 0.06 0.265 0 0.08 0.265 0 0.1 0.265 0 0 0.27 0 0.02 0.27 0 0.04 0.27 0 0.06 0.27 0 0.08 0.27 0 0.1 0.27 0 0 0.275 0 0.02 0.275 0 0.04 0.275 0 0.06 0.275 0 0.08 0.275 0 0.1 0.275 0 0 0.28 0 0.02 0.28 0 0.04 0.28 0 0.06 0.28 0 0.08 0.28 0 0.1 0.28 0 0 0.285 0 0.02 0.285 0 0.04 0.285 0 0.06 0.285 0 0.08 0.285 0 0.1 0.285 0 0 0.29 0 0.02 0.29 0 0.04 0.29 0 0.06 0.29 0 0.08 0.29 0 0.1 0.29 0 0 0.295 0 0.02 0.295 0 0.04 0.295 0 0.06 0.295 0 0.08 0.295 0 0.1 0.295 0 0 0.3 0 0.02 0.3 0 0.04 0.3 0 0.06 0.3 0 0.08 0.3 0 0.1 0.3 0 0 0.305 0 0.02 0.305 0 0.04 0.305 0 0.06 0.305 0 0.08 0.305 0 0.1 0.305 0 0 0.31 0 0.02 0.31 0 0.04 0.31 0 0.06 0.31 0 0.08 0.31 0 0.1 0.31 0 0 0.315 0 0.02 0.315 0 0.04 0.315 0 0.06 0.315 0 0.08 0.315 0 0.1 0.315 0 0 0.32 0 0.02 0.32 0 0.04 0.32 0 0.06 0.32 0 0.08 0.32 0 0.1 0.32 0 0 0.325 0 0.02 0.325 0 0.04 0.325 0 0.06 0.325 0 0.08 0.325 0 0.1 0.325 0 0 0.33 0 0.02 0.33 0 0.04 0.33 0 0.06 0.33 0 0.08 0.33 0 0.1 0.33 0 0 0.335 0 0.02 0.335 0 0.04 0.335 0 0.06 0.335 0 0.08 0.335 0 0.1 0.335 0 0 0.340001 0 0.02 0.340001 0 0.04 0.340001 0 0.06 0.340001 0 0.08 0.340001 0 0.1 0.340001 0 0 0.345003 0 0.02 0.345003 0 0.04 0.345003 0 0.06 0.345003 0 0.08 0.345003 0 0.1 0.345003 0 0 0.35001 0 0.02 0.35001 0 0.04 0.35001 0 0.06 0.35001 0 0.08 0.35001 0 0.1 0.35001 0 0 0.355029 0 0.02 0.355029 0 0.04 0.355029 0 0.06 0.355029 0 0.08 0.355029 0 0.1 0.355029 0 0 0.360076 0 0.02 0.360076 0 0.04 0.360076 0 0.06 0.360076 0 0.08 0.360076 0 0.1 0.360076 0 0 0.365175 0 0.02 0.365175 0 0.04 0.365175 0 0.06 0.365175 0 0.08 0.365175 0 0.1 0.365175 0 0 0.370356 0 0.02 0.370356 0 0.04 0.370356 0 0.06 0.370356 0 0.08 0.370356 0 0.1 0.370356 0 0 0.375652 0 0.02 0.375652 0 0.04 0.375652 0 0.06 0.375652 0 0.08 0.375652 0 0.1 0.375652 0 0 0.381091 0 0.02 0.381091 0 0.04 0.381091 0 0.06 0.381091 0 0.08 0.381091 0 0.1 0.381091 0 0 0.386699 0 0.02 0.386699 0 0.04 0.386699 0 0.06 0.386699 0 0.08 0.386699 0 0.1 0.386699 0 0 0.392495 0 0.02 0.392495 0 0.04 0.392495 0 0.06 0.392495 0 0.08 0.392495 0 0.1 0.392495 0 0 0.398499 0 0.02 0.398499 0 0.04 0.398499 0 0.06 0.398499 0 0.08 0.398499 0 0.1 0.398499 0 0 0.404734 0 0.02 0.404734 0 0.04 0.404734 0 0.06 0.404734 0 0.08 0.404734 0 0.1 0.404734 0 0 0.411221 0 0.02 0.411221 0 0.04 0.411221 0 0.06 0.411221 0 0.08 0.411221 0 0.1 0.411221 0 0 0.417985 0 0.02 0.417985 0 0.04 0.417985 0 0.06 0.417985 0 0.08 0.417985 0 0.1 0.417985 0 0 0.425055 0 0.02 0.425055 0 0.04 0.425055 0 0.06 0.425055 0 0.08 0.425055 0 0.1 0.425055 0 0 0.432464 0 0.02 0.432464 0 0.04 0.432464 0 0.06 0.432464 0 0.08 0.432464 0 0.1 0.432464 0 0 0.44025 0 0.02 0.44025 0 0.04 0.44025 0 0.06 0.44025 0 0.08 0.44025 0 0.1 0.44025 0 0 0.448456 0 0.02 0.448456 0 0.04 0.448456 0 0.06 0.448456 0 0.08 0.448456 0 0.1 0.448456 0 0 0.457135 0 0.02 0.457135 0 0.04 0.457135 0 0.06 0.457135 0 0.08 0.457135 0 0.1 0.457135 0 0 0.466345 0 0.02 0.466345 0 0.04 0.466345 0 0.06 0.466345 0 0.08 0.466345 0 0.1 0.466345 0 0 0.476155 0 0.02 0.476155 0 0.04 0.476155 0 0.06 0.476155 0 0.08 0.476155 0 0.1 0.476155 0 0 0.486635 0 0.02 0.486635 0 0.04 0.486635 0 0.06 0.486635 0 0.08 0.486635 0 0.1 0.486635 0 0 0.49784 0 0.02 0.49784 0 0.04 0.49784 0 0.06 0.49784 0 0.08 0.49784 0 0.1 0.49784 0 0 0.509736 0 0.02 0.509736 0 0.04 0.509736 0 0.06 0.509736 0 0.08 0.509736 0 0.1 0.509736 0 0 0.521988 0 0.02 0.521988 0 0.04 0.521988 0 0.06 0.521988 0 0.08 0.521988 0 0.1 0.521988 0 0 0.534119 0 0.02 0.534119 0 0.04 0.534119 0 0.06 0.534119 0 0.08 0.534119 0 0.1 0.534119 0 0 0.546097 0 0.02 0.546097 0 0.04 0.546097 0 0.06 0.546097 0 0.08 0.546097 0 0.1 0.546097 0 0 0.55795 0 0.02 0.55795 0 0.04 0.55795 0 0.06 0.55795 0 0.08 0.55795 0 0.1 0.55795 0 0 0.569733 0 0.02 0.569733 0 0.04 0.569733 0 0.06 0.569733 0 0.08 0.569733 0 0.1 0.569733 0 0 0.581488 0 0.02 0.581488 0 0.04 0.581488 0 0.06 0.581488 0 0.08 0.581488 0 0.1 0.581488 0 0 0.593235 0 0.02 0.593235 0 0.04 0.593235 0 0.06 0.593235 0 0.08 0.593235 0 0.1 0.593235 0 0 0.604991 0 0.02 0.604991 0 0.04 0.604991 0 0.06 0.604991 0 0.08 0.604991 0 0.1 0.604991 0 0 0.607602 0 0.02 0.607602 0 0.04 0.607602 0 0.06 0.607602 0 0.08 0.607602 0 0.1 0.607602 0 0 0.61014 0 0.02 0.61014 0 0.04 0.61014 0 0.06 0.61014 0 0.08 0.61014 0 0.1 0.61014 0 0 0.612631 0 0.02 0.612631 0 0.04 0.612631 0 0.06 0.612631 0 0.08 0.612631 0 0.1 0.612631 0 0 0.615092 0 0.02 0.615092 0 0.04 0.615092 0 0.06 0.615092 0 0.08 0.615092 0 0.1 0.615092 0 0 0.617532 0 0.02 0.617532 0 0.04 0.617532 0 0.06 0.617532 0 0.08 0.617532 0 0.1 0.617532 0 0 0.619956 0 0.02 0.619956 0 0.04 0.619956 0 0.06 0.619956 0 0.08 0.619956 0 0.1 0.619956 0 0 0.622371 0 0.02 0.622371 0 0.04 0.622371 0 0.06 0.622371 0 0.08 0.622371 0 0.1 0.622371 0 0 0.624784 0 0.02 0.624784 0 0.04 0.624784 0 0.06 0.624784 0 0.08 0.624784 0 0.1 0.624784 0 0 0.627197 0 0.02 0.627197 0 0.04 0.627197 0 0.06 0.627197 0 0.08 0.627197 0 0.1 0.627197 0 0 0.629596 0 0.02 0.629596 0 0.04 0.629596 0 0.06 0.629596 0 0.08 0.629596 0 0.1 0.629596 0 0 0.631983 0 0.02 0.631983 0 0.04 0.631983 0 0.06 0.631983 0 0.08 0.631983 0 0.1 0.631983 0 0 0.634365 0 0.02 0.634365 0 0.04 0.634365 0 0.06 0.634365 0 0.08 0.634365 0 0.1 0.634365 0 0 0.636744 0 0.02 0.636744 0 0.04 0.636744 0 0.06 0.636744 0 0.08 0.636744 0 0.1 0.636744 0 0 0.639121 0 0.02 0.639121 0 0.04 0.639121 0 0.06 0.639121 0 0.08 0.639121 0 0.1 0.639121 0 0 0.641495 0 0.02 0.641495 0 0.04 0.641495 0 0.06 0.641495 0 0.08 0.641495 0 0.1 0.641495 0 0 0.643868 0 0.02 0.643868 0 0.04 0.643868 0 0.06 0.643868 0 0.08 0.643868 0 0.1 0.643868 0 0 0.64624 0 0.02 0.64624 0 0.04 0.64624 0 0.06 0.64624 0 0.08 0.64624 0 0.1 0.64624 0 0 0.64861 0 0.02 0.64861 0 0.04 0.64861 0 0.06 0.64861 0 0.08 0.64861 0 0.1 0.64861 0 0 0.650976 0 0.02 0.650976 0 0.04 0.650976 0 0.06 0.650976 0 0.08 0.650976 0 0.1 0.650976 0 0 0.653341 0 0.02 0.653341 0 0.04 0.653341 0 0.06 0.653341 0 0.08 0.653341 0 0.1 0.653341 0 0 0.655705 0 0.02 0.655705 0 0.04 0.655705 0 0.06 0.655705 0 0.08 0.655705 0 0.1 0.655705 0 0 0.65807 0 0.02 0.65807 0 0.04 0.65807 0 0.06 0.65807 0 0.08 0.65807 0 0.1 0.65807 0 0
[...]
			<PointData Scalars="VitesseX">
				<DataArray Name="VitesseX" type="Float32" format="ascii">
 0 1.08265e-15 1.7456e-15 1.02422e-18 1.21051e-14 0 0 3.29513e-16 2.71204e-15 -6.90694e-16 1.22743e-14 0 0 2.36141e-16 3.13455e-15 -1.30525e-15 1.25619e-14 0 0 1.41359e-15 1.75694e-15 -3.27054e-16 1.18911e-14 0 0 1.44673e-15 1.18649e-15 8.24465e-17 1.11889e-14 0 0 1.70306e-15 -4.50143e-16 1.26343e-15 1.08041e-14 0 0 1.61526e-15 -4.47961e-16 3.71776e-16 1.18093e-14 0 0 1.70376e-15 6.55796e-16 -4.00532e-16 9.97497e-15 0 0 1.72673e-15 -5.37988e-17 3.00541e-15 5.50298e-15 0 0 1.2827e-16 1.16557e-15 4.46077e-15 4.46413e-15 0 0 -6.68764e-16 3.54073e-15 3.10804e-15 5.80359e-15 0 0 -1.6422e-15 5.82275e-15 1.01999e-15 8.91309e-15 0 0 -2.20329e-15 5.90884e-15 -1.1021e-15 9.67014e-15 0 0 -1.5915e-15 5.18308e-15 2.39125e-16 4.49847e-15 0 0 -1.3163e-15 7.91052e-15 2.25412e-15 -6.45209e-16 0 0 1.63173e-15 5.82884e-15 6.1123e-15 -6.64364e-15 0 0 1.51428e-15 3.88119e-15 1.14719e-14 -1.40604e-14 0 0 3.74768e-15 2.64894e-15 8.16828e-15 -1.25787e-14 0 0 4.21931e-15 7.84961e-16 1.51645e-15 -2.25315e-15 0 0 6.49099e-15 -4.48672e-15 2.07916e-15 3.50881e-16 0 0 5.81795e-15 2.17184e-15 -4.8778e-15 4.26562e-15 0 0 -1.10468e-15 1.45521e-14 -1.01042e-14 5.31523e-15 0 0 3.15883e-15 5.87089e-15 -3.28851e-16 -2.07912e-15 0 0 2.26586e-15 1.82818e-15 1.12712e-14 -3.25217e-15 0 0 1.32942e-15 7.39551e-15 8.45192e-15 3.7165e-16 0 0 7.28553e-15 7.60615e-15 2.02133e-15 -4.87317e-16 0 0 5.15989e-15 1.22381e-14 2.99778e-15 -3.40742e-15 0 0 -8.12564e-16 1.86239e-14 1.97173e-15 2.68367e-15 0 0 2.64377e-15 1.32197e-14 5.85721e-16 9.56929e-15 0 0 7.13331e-15 4.02196e-15 2.10307e-15 7.57256e-15 0 0 7.82681e-15 1.92173e-15 1.54841e-15 7.21457e-16 0 0 5.3863e-15 2.3071e-15 1.35218e-15 -3.26162e-15 0 0 1.7233e-15 -4.99865e-15 1.60484e-14 -7.87594e-15 0 0 -2.73362e-16 -2.87416e-15 2.06763e-14 -1.33299e-14 0 0 -5.90017e-16 -3.76171e-17 2.25359e-14 -1.77069e-14 0 0 1.73066e-15 -2.71462e-15 2.21693e-14 -9.73414e-15 0 0 1.27465e-15 -5.13603e-15 8.56513e-15 4.80549e-15 0 0 2.20265e-15 -9.78696e-15 5.21787e-15 5.12677e-15 0 0 -5.64649e-15 -7.34656e-16 3.34895e-15 3.85644e-15 0 0 -7.74822e-15 4.43686e-15 -3.04317e-15 6.64284e-15 0 0 5.64477e-15 -5.32734e-15 -4.9587e-15 4.57114e-15 0 0 4.64168e-15 -7.14149e-15 6.97297e-16 -4.00126e-15 0 0 1.84468e-15 -3.70676e-15 7.7302e-15 -1.62552e-14 0 0 9.23127e-16 3.91173e-16 -1.08562e-15 -5.08029e-15 0 0 -3.36445e-15 6.54635e-16 -1.50323e-14 1.45588e-14 0 0 -2.24627e-15 -5.07892e-15 -2.12665e-14 1.27794e-14 0 0 4.24995e-15 -8.56915e-16 -2.55489e-14 1.00241e-16 0 0 5.7547e-15 1.26858e-14 -4.01118e-14 5.13742e-16 0 0 9.04371e-15 8.37179e-15 -4.06046e-14 1.66321e-14 0 0 9.7353e-15 1.01637e-14 -3.73126e-14 3.33416e-14 0 0 -6.75459e-16 1.86553e-14 -3.88185e-14 3.70155e-14 0 0 -5.58648e-15 4.11267e-15 -6.65626e-15 1.74353e-14 0 0 2.19273e-17 -9.91649e-16 1.17525e-14 1.29866e-14 0 0 1.25133e-14 1.16985e-14 -3.7069e-15 2.16645e-14 0 0 1.83798e-14 1.04133e-14 1.48296e-14 -5.85591e-16 0 0 1.91371e-14 2.9037e-15 4.37999e-14 -2.00023e-14 0 0 3.64984e-14 1.599e-14 1.68353e-14 -6.34065e-16 0 0 3.28786e-14 3.56322e-14 -3.50213e-15 6.02778e-16 0 0 1.04219e-14 3.90788e-14 3.47094e-15 -1.72594e-14 0 0 2.19364e-15 1.35252e-14 1.33787e-14 -1.97963e-14 0 0 1.94267e-14 -8.0359e-15 -3.59109e-15 -7.37243e-15 0 0 2.54182e-14 -1.76969e-14 -1.4756e-14 -3.14967e-15 0 0 -3.3883e-15 -1.76437e-14 -3.56273e-15 -2.19884e-14 0 0 7.53871e-16 -1.67531e-14 -1.97424e-14 -3.64126e-14 0 0 -3.78891e-15 -7.51985e-15 -4.73099e-14 -8.87363e-15 0 0 -7.87565e-15 -2.15017e-14 -3.58055e-14 1.73433e-14 0 0 1.86946e-15 -3.34175e-14 -1.37768e-14 4.07009e-15 0 0 -7.87318e-15 -1.91422e-15 -1.06857e-14 -1.92286e-14 0 0 -1.58051e-14 1.33378e-14 -1.11767e-14 -3.84445e-14 0 0 -1.31944e-14 3.68041e-15 -1.71591e-14 -2.81278e-14 0 0 -9.27733e-15 2.94771e-15 -5.95629e-15 -3.56408e-14 0 0 -1.96603e-14 1.47793e-14 -1.92945e-14 -1.69516e-14 0 0 -9.36796e-15 -8.48744e-15 -1.47007e-14 7.92834e-15 0 0 -7.14929e-15 -4.35765e-14 6.76014e-15 -3.01959e-16 0 0 -2.07613e-14 -3.90454e-14 -5.72681e-15 1.51091e-14 0 0 -1.6695e-14 -6.57343e-15 -2.98342e-14 2.72562e-14 0 0 -1.85755e-15 -1.84855e-14 -1.7407e-14 -2.73433e-15 0 0 4.29937e-15 -2.35666e-14 -1.85351e-15 -3.05196e-14 0 0 -1.11425e-14 5.15699e-17 8.70833e-15 -3.61924e-14 0 0 -1.30015e-14 -9.29729e-15 -3.15794e-15 -1.73382e-14 0 0 -1.50123e-14 1.46355e-15 -3.66135e-14 8.87783e-15 0 0 -2.15758e-14 1.8208e-14 -3.27665e-14 3.76611e-14 0 0 -8.54582e-15 -6.38891e-16 -1.31201e-14 3.31392e-14 0 0 -7.17457e-16 8.47727e-16 -2.47601e-14 1.19977e-14 0 0 -5.9197e-15 -3.13227e-15 -1.79455e-14 -4.62859e-15 0 0 -3.45171e-14 -1.25526e-15 -5.68407e-15 -1.52848e-14 0 0 -4.21509e-14 1.53547e-14 -2.19363e-14 2.15274e-15 0 0 4.61118e-15 -1.38761e-14 -1.00371e-14 -2.35536e-15 0 0 3.3526e-16 1.00966e-14 -3.21026e-15 -8.63024e-16 0 0 6.8239e-15 -1.81289e-15 7.22695e-15 1.65818e-14 0 0 1.48849e-14 -4.98287e-15 6.27107e-16 2.50294e-14 0 0 1.49203e-14 2.3911e-14 -3.48395e-15 3.13374e-14 0 0 6.32603e-14 7.23776e-14 6.51062e-14 7.05657e-14 0 0 1.21106e-13 1.82551e-13 1.86959e-13 1.04245e-13 0 0 1.46218e-13 2.05808e-13 2.30229e-13 1.33947e-13 0 0 5.56853e-14 7.59455e-14 8.7528e-14 6.68837e-14 0 0 -1.51185e-13 -2.29021e-13 -2.2206e-13 -1.31264e-13 0 0 -3.83717e-13 -6.17756e-13 -6.23988e-13 -3.64053e-13 0 0 -5.87864e-13 -9.55866e-13 -9.66963e-13 -5.79756e-13 0 0 -7.60743e-13 -1.22506e-12 -1.21923e-12 -7.60017e-13 0 0 -9.1612e-13 -1.49075e-12 -1.50291e-12 -9.1446e-13 0 0 -1.55992e-12 -2.58834e-12 -2.59258e-12 -1.57818e-12 0 0 -1.54867e-12 -2.55909e-12 -2.5631e-12 -1.59628e-12 0 0 -1.57899e-12 -2.61184e-12 -2.58147e-12 -1.66019e-12 0 0 -1.64796e-12 -2.67119e-12 -2.6902e-12 -1.63646e-12 0 0 -1.70686e-12 -2.72722e-12 -2.80502e-12 -1.65425e-12 0 0 -1.71575e-12 -2.70821e-12 -2.83266e-12 -1.66803e-12 0 0 -1.54219e-12 -2.4399e-12 -2.48892e-12 -1.52144e-12 0 0 -1.06573e-12 -1.64593e-12 -1.68995e-12 -1.04041e-12 0 0 -4.28328e-13 -6.57267e-13 -7.40793e-13 -4.67265e-13 0 0 1.36215e-13 1.86989e-13 1.27143e-13 3.07966e-14 0 0 5.00529e-13 7.50135e-13 6.94057e-13 3.81862e-13 0 0 6.13608e-13 9.42418e-13 8.83896e-13 4.80286e-13 0 0 5.69104e-13 9.01372e-13 8.45554e-13 4.0468e-13 0 0 4.51495e-13 7.39851e-13 6.47969e-13 3.41765e-13 0 0 2.66003e-13 5.50005e-13 3.82547e-13 2.31979e-13 0 0 1.27066e-13 3.12781e-13 1.95863e-13 9.22148e-14 0 0 3.41213e-14 8.96041e-14 -3.07516e-15 -4.26771e-14 0 0 -8.2802e-14 -1.26056e-13 -2.15634e-13 -1.6533e-13 0 0 -2.07219e-13 -3.22717e-13 -3.91173e-13 -2.09567e-13 0 0 -3.38691e-13 -4.64052e-13 -5.05637e-13 -3.31103e-13 0 0 -4.26089e-13 -6.57319e-13 -5.97182e-13 -5.36099e-13 0 0 -4.93359e-13 -8.4512e-13 -7.36104e-13 -6.70037e-13 0 0 -5.64114e-13 -9.24421e-13 -8.93737e-13 -6.70668e-13 0 0 -6.36506e-13 -9.59502e-13 -1.04598e-12 -6.45873e-13 0 0 -6.9861e-13 -1.01e-12 -1.15435e-12 -6.39147e-13 0 0 -7.32843e-13 -1.03946e-12 -1.24308e-12 -6.25098e-13 0 0 -7.52292e-13 -1.08306e-12 -1.30007e-12 -6.78934e-13 0 0 -7.6586e-13 -1.11747e-12 -1.3035e-12 -7.43466e-13 0 0 -7.62282e-13 -1.12866e-12 -1.30284e-12 -7.31297e-13 0 0 -7.41805e-13 -1.16439e-12 -1.28768e-12 -7.37886e-13 0 0 -7.25898e-13 -1.19661e-12 -1.20147e-12 -7.43472e-13 0 0 -6.70464e-13 -1.17888e-12 -1.11686e-12 -7.34901e-13 0 0 -6.14812e-13 -1.13233e-12 -1.06466e-12 -7.03823e-13 0 0 -5.62454e-13 -1.01404e-12 -9.86413e-13 -5.21692e-13 0 0 -5.12239e-13 -8.90042e-13 -9.12477e-13 -4.49605e-13 0 0 -4.6701e-13 -7.65351e-13 -7.3241e-13 -4.75456e-13 0 0 -3.79831e-13 -6.48922e-13 -5.81806e-13 -4.26046e-13 0 0 -2.69821e-13 -5.15628e-13 -4.56553e-13 -2.99388e-13 0 0 -1.88132e-13 -3.56275e-13 -3.23469e-13 -2.47332e-13 0 0 -9.15972e-14 -1.83454e-13 -1.94021e-13 -1.80881e-13 0 0 -3.8802e-14 -7.02625e-14 -1.09479e-13 -7.37222e-14 0 0 -2.79946e-15 2.21653e-14 -3.46234e-14 -2.05803e-15 0 0 5.94644e-15 4.86522e-14 -1.56377e-14 2.18587e-14 0 0 -5.69524e-16 2.94907e-14 -1.5686e-14 1.78801e-14 0 0 -4.22655e-16 1.99364e-15 -1.25078e-14 3.06926e-14 0 0 -1.00658e-14 -1.57163e-14 -2.19359e-14 -4.10511e-16 0 0 -2.38525e-14 -2.66123e-14 -1.20673e-14 -3.48508e-15 0 0 -2.58472e-14 -2.61922e-14 -3.56086e-14 1.30803e-14 0 0 -3.70778e-14 -2.663e-14 -3.55123e-14 -1.19537e-14 0 0 -4.35493e-14 -2.08431e-14 -3.14958e-14 -2.49146e-14 0 0 -3.72625e-14 -1.10321e-14 -5.57752e-14 -2.06008e-14 0 0 -3.54872e-14 -1.57414e-14 -4.34574e-14 -3.47527e-14 0 0 -3.22486e-14 -1.62696e-14 -3.73486e-14 -2.57783e-14 0 0 -3.52892e-14 -8.51221e-15 -3.66664e-14 -1.40722e-14 0 0 -3.96537e-14 -7.69556e-15 -7.4223e-15 -1.43839e-14 0 0 -2.52254e-14 -3.21695e-14 2.75139e-14 2.34473e-15 0 0 -2.54308e-14 -2.96168e-14 1.30287e-14 2.37111e-14 0 0 -3.64309e-14 6.38135e-15 -3.50185e-14 3.28469e-14 0 0 -3.39162e-14 3.75962e-15 -3.43097e-14 5.78871e-14 0 0 -3.45493e-14 -2.01434e-14 5.52557e-15 5.69366e-14 0 0 -3.6499e-14 2.14315e-15 1.42645e-14 9.79142e-15 0 0 -5.1109e-14 3.95239e-14 7.55196e-16 -4.11364e-14 0 0 -4.22495e-14 7.65335e-15 7.11851e-15 -7.0722e-15 0 0 -1.05029e-14 -2.86055e-14 5.13555e-14 7.55087e-15 0 0 1.18176e-14 -4.50218e-14 8.92826e-14 8.14165e-15 0 0 1.08454e-14 -3.11003e-14 6.60253e-14 1.31884e-13 0 0 3.23643e-14 -1.89105e-14 3.52498e-14 1.57617e-13 0 0 3.46552e-14 1.04223e-14 -2.98413e-14 1.29656e-13 0 0 8.76203e-15 3.9256e-14 -8.99122e-14 1.80552e-13 0 0 8.25195e-15 -1.52175e-16 -3.33776e-15 1.28523e-13 0 0 -9.15774e-15 1.90509e-14 4.36719e-14 -2.75137e-15 0 0 -7.79273e-16 5.64197e-14 6.74244e-15 -4.23028e-14 0 0 -1.31489e-14 9.66378e-14 1.1803e-14 -3.31329e-14 0 0 -7.36523e-15 9.41172e-14 4.4757e-14 -1.71301e-14 0 0 8.78957e-16 7.26725e-14 5.87775e-14 -4.72727e-17 0 0 -4.21385e-14 1.05807e-13 2.06727e-14 3.43882e-14 0 0 -5.47737e-14 9.09602e-14 1.55261e-14 5.34049e-14 0 0 -1.23535e-14 2.89331e-14 4.6699e-14 2.24943e-14 0 0 -2.28459e-14 3.53886e-14 3.74927e-14 -2.58407e-14 0 0 -4.23633e-14 5.13695e-14 2.88001e-14 -7.00872e-14 0 0 -6.2133e-14 2.62906e-14 4.09951e-14 -5.30602e-14 0 0 -7.0295e-14 -8.0441e-15 6.31953e-14 -3.4687e-14 0 0 -5.42959e-14 -8.46097e-15 4.10447e-14 -6.49498e-15 0 0 -3.89566e-14 8.56783e-16 1.08894e-14 1.09568e-14 0 0 4.85046e-14 -4.92671e-14 3.01788e-14 -4.56173e-15 0 0 1.14714e-14 8.23083e-15 -1.36324e-14 3.39329e-14 0 0 -3.42291e-14 6.64849e-14 -4.09446e-14 2.16603e-14 0 0 2.56599e-14 2.42627e-15 2.40599e-14 -2.73314e-14 0 0 2.05738e-14 -3.07667e-14 8.0296e-14 -2.85631e-14 0 0 -6.95006e-15 -2.96391e-14 9.03105e-14 -4.83181e-14 0 0 2.39538e-14 -5.89548e-14 9.84984e-14 -7.7106e-14 0 0 1.0517e-14 2.66334e-15 4.59227e-15 1.52322e-14 0 0 -1.72395e-14 5.23978e-14 -3.69925e-14 4.2099e-14 0 0 1.14024e-14 -4.71061e-15 8.25171e-14 -4.6822e-14 0 0 2.95039e-15 1.84001e-14 8.91193e-14 -4.35868e-14 0 0 -8.21399e-15 8.00086e-14 -2.54099e-15 3.60936e-14 0 0 -2.57403e-14 1.03893e-13 -2.64916e-14 1.04515e-13 0 0 -3.22694e-14 8.71167e-14 3.83833e-14 3.39118e-14 0 0 -1.9151e-14 6.95337e-14 7.22843e-14 -2.96244e-14 0 0 -2.99852e-14 8.25777e-14 5.90838e-14 -1.61117e-14 0
				</DataArray>
				<DataArray Name="VitesseY" type="Float32" format="ascii">