<?xml version="1.0"?>
<VTKFile type="PolyData">
	<PolyData>
		<Piece NumberOfPoints="1206" NumberOfPolys="1000">
			<Points>
				<DataArray type="Float32" NumberOfComponents="3" format="ascii">
 0 0 0 0.02 0 0 0.04 0 0 0.06 0 0 0.08 0 0 0.1 0 0 0 0.005 0 0.02 0.005 0 0.04 0.005 0 0.06 0.005 0 0.08 0.005 0 0.1 0.005 0 0 0.01 0 0.02 0.01 0 0.04 0.01 0 0.06 0.01 0 0.08 0.01 0 0.1 0.01 0 0 0.015 0 0.02 0.015 0 0.04 0.015 0 0.06 0.015 0 0.08 0.015 0 0.1 0.015 0 0 0.02 0 0.02 0.02 0 0.04 0.02 0 0.06 0.02 0 0.08 0.02 0 0.1 0.02 0 0 0.025 0 0.02 0.025 0 0.04 0.025 0 0.06 0.025 0 0.08 0.025 0 0.1 0.025 0 0 0.03 0 0.02 0.03 0 0.04 0.03 0 0.06 0.03 0 0.08 0.03 0 0.1 0.03 0 0 0.035 0 0.02 0.035 0 0.04 0.035 0 0.06 0.035 0 0.08 0.035 0 0.1 0.035 0 0 0.04 0 0.02 0.04 0 0.04 0.04 0 0.06 0.04 0 0.08 0.04 0 0.1 0.04 0 0 0.045 0 0.02 0.045 0 0.04 0.045 0 0.06 0.045 0 0.08 0.045 0 0.1 0.045 0 0 0.05 0 0.02 0.05 0 0.04 0.05 0 0.06 0.05 0 0.08 0.05 0 0.1 0.05 0 0 0.055 0 0.02 0.055 0 0.04 0.055 0 0.06 0.055 0 0.08 0.055 0 0.1 0.055 0 0 0.06 0 0.02 0.06 0 0.04 0.06 0 0.06 0.06 0 0.08 0.06 0 0.1 0.06 0 0 0.065 0 0.02 0.065 0 0.04 0.065 0 0.06 0.065 0 0.08 0.065 0 0.1 0.065 0 0 0.07 0 0.02 0.07 0 0.04 0.07 0 0.06 0.07 0 0.08 0.07 0 0.1 0.07 0 0 0.075 0 0.02 0.075 0 0.04 0.075 0 0.06 0.075 0 0.08 0.075 0 0.1 0.075 0 0 0.08 0 0.02 0.08 0 0.04 0.08 0 0.06 0.08 0 0.08 0.08 0 0.1 0.08 0 0 0.085 0 0.02 0.085 0 0.04 0.085 0 0.06 0.085 0 0.08 0.085 0 0.1 0.085 0 0 0.09 0 0.02 0.09 0 0.04 0.09 0 0.06 0.09 0 0.08 0.09 0 0.1 0.09 0 0 0.095 0 0.02 0.095 0 0.04 0.095 0 0.06 0.095 0 0.08 0.095 0 0.1 0.095 0 0 0.1 0 0.02 0.1 0 0.04 0.1 0 0.06 0.1 0 0.08 0.1 0 0.1 0.1 0 0 0.105 0 0.02 0.105 0 0.04 0.105 0 0.06 0.105 0 0.08 0.105 0 0.1 0.105 0 0 0.11 0 0.02 0.11 0 0.04 0.11 0 0.06 0.11 0 0.08 0.11 0 0.1 0.11 0 0 0.115 0 0.02 0.115 0 0.04 0.115 0 0.06 0.115 0 0.08 0.115 0 0.1 0.115 0 0 0.12 0 0.02 0.12 0 0.04 0.12 0 0.06 0.12 0 0.08 0.12 0 0.1 0.12 0 0 0.125 0 0.02 0.125 0 0.04 0.125 0 0.06 0.125 0 0.08 0.125 0 0.1 0.125 0 0 0.13 0 0.02 0.13 0 0.04 0.13 0 0.06 0.13 0 0.08 0.13 0 0.1 0.13 0 0 0.135 0 0.02 0.135 0 0.04 0.135 0 0.06 0.135 0 0.08 0.135 0 0.1 0.135 0 0 0.14 0 0.02 0.14 0 0.04 0.14 0 0.06 0.14 0 0.08 0.14 0 0.1 0.14 0 0 0.145 0 0.02 0.145 0 0.04 0.145 0 0.06 0.145 0 0.08 0.145 0 0.1 0.145 0 0 0.15 0 0.02 0.15 0 0.04 0.15 0 0.06 0.15 0 0.08 0.15 0 0.1 0.15 0 0 0.155 0 0.02 0.155 0 0.04 0.155 0 0.06 0.155 0 0.08 0.155 0 0.1 0.155 0 0 0.16 0 0.02 0.16 0 0.04 0.16 0 0.06 0.16 0 0.08 0.16 0 0.1 0.16 0 0 0.165 0 0.02 0.165 0 0.04 0.165 0 0.06 0.165 0 0.08 0.165 0 0.1 0.165 0 0 0.17 0 0.02 0.17 0 0.04 0.17 0 0.06 0.17 0 0.08 0.17 0 0.1 0.17 0 0 0.175 0 0.02 0.175 0 0.04 0.175 0 0.06 0.175 0 0.08 0.175 0 0.1 0.175 0 0 0.18 0 0.02 0.18 0 0.04 0.18 0 0.06 0.18 0 0.08 0.18 0 0.1 0.18 0 0 0.185 0 0.02 0.185 0 0.04 0.185 0 0.06 0.185 0 0.08 0.185 0 0.1 0.185 0 0 0.19 0 0.02 0.19 0 0.04 0.19 0 0.06 0.19 0 0.08 0.19 0 0.1 0.19 0 0 0.195 0 0.02 0.195 0 0.04 0.195 0 0.06 0.195 0 0.08 0.195 0 0.1 0.195 0 0 0.2 0 0.02 0.2 0 0.04 0.2 0 0.06 0.2 0 0.08 0.2 0 0.1 0.2 0 0 0.205 0 0.02 0.205 0 0.04 0.205 0 0.06 0.205 0 0.08 0.205 0 0.1 0.205 0 0 0.21 0 0.02 0.21 0 0.04 0.21 0 0.06 0.21 0 0.08 0.21 0 0.1 0.21 0 0 0.215 0 0.02 0.215 0 0.04 0.215 0 0.06 0.215 0 0.08 0.215 0 0.1 0.215 0 0 0.22 0 0.02 0.22 0 0.04 0.22 0 0.06 0.22 0 0.08 0.22 0 0.1 0.22 0 0 0.225 0 0.02 0.225 0 0.04 0.225 0 0.06 0.225 0 0.08 0.225 0 0.1 0.225 0 0 0.23 0 0.02 0.23 0 0.04 0.23 0 0.06 0.23 0 0.08 0.23 0 0.1 0.23 0 0 0.235 0 0.02 0.235 0 0.04 0.235 0 0.06 0.235 0 0.08 0.235 0 0.1 0.235 0 0 0.24 0 0.02 0.24 0 0.04 0.24 0 0.06 0.24 0 0.08 0.24 0 0.1 0.24 0 0 0.245 0 0.02 0.245 0 0.04 0.245 0 0.06 0.245 0 0.08 0.245 0 0.1 0.245 0 0 0.25 0 0.02 0.25 0 0.04 0.25 0 0.06 0.25 0 0.08 0.25 0 0.1 0.25 0 0 0.255 0 0.02 0.255 0 0.04 0.255 0 0.06 0.255 0 0.08 0.255 0 0.1 0.255 0 0 0.26 0 0.02 0.26 0 0.04 0.26 0 0.06 0.26 0 0.08 0.26 0 0.1 0.26 0 0 0.265 0 0.02 0.265 0 0.04 0.265 0 0.06 0.265 0 0.08 0.265 0 0.1 0.265 0 0 0.27 0 0.02 0.27 0 0.04 0.27 0 0.06 0.27 0 0.08 0.27 0 0.1 0.27 0 0 0.275 0 0.02 0.275 0 0.04 0.275 0 0.06 0.275 0 0.08 0.275 0 0.1 0.275 0 0 0.28 0 0.02 0.28 0 0.04 0.28 0 0.06 0.28 0 0.08 0.28 0 0.1 0.28 0 0 0.285 0 0.02 0.285 0 0.04 0.285 0 0.06 0.285 0 0.08 0.285 0 0.1 0.285 0 0 0.29 0 0.02 0.29 0 0.04 0.29 0 0.06 0.29 0 0.08 0.29 0 0.1 0.29 0 0 0.295 0 0.02 0.295 0 0.04 0.295 0 0.06 0.295 0 0.08 0.295 0 0.1 0.295 0 0 0.3 0 0.02 0.3 0 0.04 0.3 0 0.06 0.3 0 0.08 0.3 0 0.1 0.3 0 0 0.305 0 0.02 0.305 0 0.04 0.305 0 0.06 0.305 0 0.08 0.305 0 0.1 0.305 0 0 0.31 0 0.02 0.31 0 0.04 0.31 0 0.06 0.31 0 0.08 0.31 0 0.1 0.31 0 0 0.315001 0 0.02 0.315001 0 0.04 0.315001 0 0.06 0.315001 0 0.08 0.315001 0 0.1 0.315001 0 0 0.320003 0 0.02 0.320003 0 0.04 0.320003 0 0.06 0.320003 0 0.08 0.320003 0 0.1 0.320003 0 0 0.325011 0 0.02 0.325011 0 0.04 0.325011 0 0.06 0.325011 0 0.08 0.325011 0 0.1 0.325011 0 0 0.330029 0 0.02 0.330029 0 0.04 0.330029 0 0.06 0.330029 0 0.08 0.330029 0 0.1 0.330029 0 0 0.335071 0 0.02 0.335071 0 0.04 0.335071 0 0.06 0.335071 0 0.08 0.335071 0 0.1 0.335071 0 0 0.340157 0 0.02 0.340157 0 0.04 0.340157 0 0.06 0.340157 0 0.08 0.340157 0 0.1 0.340157 0 0 0.345309 0 0.02 0.345309 0 0.04 0.345309 0 0.06 0.345309 0 0.08 0.345309 0 0.1 0.345309 0 0 0.350555 0 0.02 0.350555 0 0.04 0.350555 0 0.06 0.350555 0 0.08 0.350555 0 0.1 0.350555 0 0 0.355916 0 0.02 0.355916 0 0.04 0.355916 0 0.06 0.355916 0 0.08 0.355916 0 0.1 0.355916 0 0 0.361412 0 0.02 0.361412 0 0.04 0.361412 0 0.06 0.361412 0 0.08 0.361412 0 0.1 0.361412 0 0 0.367058 0 0.02 0.367058 0 0.04 0.367058 0 0.06 0.367058 0 0.08 0.367058 0 0.1 0.367058 0 0 0.372869 0 0.02 0.372869 0 0.04 0.372869 0 0.06 0.372869 0 0.08 0.372869 0 0.1 0.372869 0 0 0.378858 0 0.02 0.378858 0 0.04 0.378858 0 0.06 0.378858 0 0.08 0.378858 0 0.1 0.378858 0 0 0.38504 0 0.02 0.38504 0 0.04 0.38504 0 0.06 0.38504 0 0.08 0.38504 0 0.1 0.38504 0 0 0.391432 0 0.02 0.391432 0 0.04 0.391432 0 0.06 0.391432 0 0.08 0.391432 0 0.1 0.391432 0 0 0.39805 0 0.02 0.39805 0 0.04 0.39805 0 0.06 0.39805 0 0.08 0.39805 0 0.1 0.39805 0 0 0.404913 0 0.02 0.404913 0 0.04 0.404913 0 0.06 0.404913 0 0.08 0.404913 0 0.1 0.404913 0 0 0.412044 0 0.02 0.412044 0 0.04 0.412044 0 0.06 0.412044 0 0.08 0.412044 0 0.1 0.412044 0 0 0.419466 0 0.02 0.419466 0 0.04 0.419466 0 0.06 0.419466 0 0.08 0.419466 0 0.1 0.419466 0 0 0.427208 0 0.02 0.427208 0 0.04 0.427208 0 0.06 0.427208 0 0.08 0.427208 0 0.1 0.427208 0 0 0.435299 0 0.02 0.435299 0 0.04 0.435299 0 0.06 0.435299 0 0.08 0.435299 0 0.1 0.435299 0 0 0.443777 0 0.02 0.443777 0 0.04 0.443777 0 0.06 0.443777 0 0.08 0.443777 0 0.1 0.443777 0 0 0.452682 0 0.02 0.452682 0 0.04 0.452682 0 0.06 0.452682 0 0.08 0.452682 0 0.1 0.452682 0 0 0.462061 0 0.02 0.462061 0 0.04 0.462061 0 0.06 0.462061 0 0.08 0.462061 0 0.1 0.462061 0 0 0.471965 0 0.02 0.471965 0 0.04 0.471965 0 0.06 0.471965 0 0.08 0.471965 0 0.1 0.471965 0 0 0.482447 0 0.02 0.482447 0 0.04 0.482447 0 0.06 0.482447 0 0.08 0.482447 0 0.1 0.482447 0 0 0.493551 0 0.02 0.493551 0 0.04 0.493551 0 0.06 0.493551 0 0.08 0.493551 0 0.1 0.493551 0 0 0.505272 0 0.02 0.505272 0 0.04 0.505272 0 0.06 0.505272 0 0.08 0.505272 0 0.1 0.505272 0 0 0.517433 0 0.02 0.517433 0 0.04 0.517433 0 0.06 0.517433 0 0.08 0.517433 0 0.1 0.517433 0 0 0.529598 0 0.02 0.529598 0 0.04 0.529598 0 0.06 0.529598 0 0.08 0.529598 0 0.1 0.529598 0 0 0.54163 0 0.02 0.54163 0 0.04 0.54163 0 0.06 0.54163 0 0.08 0.54163 0 0.1 0.54163 0 0 0.553537 0 0.02 0.553537 0 0.04 0.553537 0 0.06 0.553537 0 0.08 0.553537 0 0.1 0.553537 0 0 0.565355 0 0.02 0.565355 0 0.04 0.565355 0 0.06 0.565355 0 0.08 0.565355 0 0.1 0.565355 0 0 0.577124 0 0.02 0.577124 0 0.04 0.577124 0 0.06 0.577124 0 0.08 0.577124 0 0.1 0.577124 0 0 0.588871 0 0.02 0.588871 0 0.04 0.588871 0 0.06 0.588871 0 0.08 0.588871 0 0.1 0.588871 0 0 0.60061 0 0.02 0.60061 0 0.04 0.60061 0 0.06 0.60061 0 0.08 0.60061 0 0.1 0.60061 0 0 0.612347 0 0.02 0.612347 0 0.04 0.612347 0 0.06 0.612347 0 0.08 0.612347 0 0.1 0.612347 0 0 0.624095 0 0.02 0.624095 0 0.04 0.624095 0 0.06 0.624095 0 0.08 0.624095 0 0.1 0.624095 0 0 0.626705 0 0.02 0.626705 0 0.04 0.626705 0 0.06 0.626705 0 0.08 0.626705 0 0.1 0.626705 0 0 0.629241 0 0.02 0.629241 0 0.04 0.629241 0 0.06 0.629241 0 0.08 0.629241 0 0.1 0.629241 0 0 0.631733 0 0.02 0.631733 0 0.04 0.631733 0 0.06 0.631733 0 0.08 0.631733 0 0.1 0.631733 0 0 0.634194 0 0.02 0.634194 0 0.04 0.634194 0 0.06 0.634194 0 0.08 0.634194 0 0.1 0.634194 0 0 0.636634 0 0.02 0.636634 0 0.04 0.636634 0 0.06 0.636634 0 0.08 0.636634 0 0.1 0.636634 0 0 0.639058 0 0.02 0.639058 0 0.04 0.639058 0 0.06 0.639058 0 0.08 0.639058 0 0.1 0.639058 0 0 0.641474 0 0.02 0.641474 0 0.04 0.641474 0 0.06 0.641474 0 0.08 0.641474 0 0.1 0.641474 0 0 0.643887 0 0.02 0.643887 0 0.04 0.643887 0 0.06 0.643887 0 0.08 0.643887 0 0.1 0.643887 0 0 0.6463 0 0.02 0.6463 0 0.04 0.6463 0 0.06 0.6463 0 0.08 0.6463 0 0.1 0.6463 0 0 0.648699 0 0.02 0.648699 0 0.04 0.648699 0 0.06 0.648699 0 0.08 0.648699 0 0.1 0.648699 0 0 0.651086 0 0.02 0.651086 0 0.04 0.651086 0 0.06 0.651086 0 0.08 0.651086 0 0.1 0.651086 0 0 0.653467 0 0.02 0.653467 0 0.04 0.653467 0 0.06 0.653467 0 0.08 0.653467 0 0.1 0.653467 0 0 0.655845 0 0.02 0.655845 0 0.04 0.655845 0 0.06 0.655845 0 0.08 0.655845 0 0.1 0.655845 0 0 0.658221 0 0.02 0.658221 0 0.04 0.658221 0 0.06 0.658221 0 0.08 0.658221 0 0.1 0.658221 0 0 0.660594 0 0.02 0.660594 0 0.04 0.660594 0 0.06 0.660594 0 0.08 0.660594 0 0.1 0.660594 0 0 0.662964 0 0.02 0.662964 0 0.04 0.662964 0 0.06 0.662964 0 0.08 0.662964 0 0.1 0.662964 0 0 0.665334 0 0.02 0.665334 0 0.04 0.665334 0 0.06 0.665334 0 0.08 0.665334 0 0.1 0.665334 0 0 0.667702 0 0.02 0.667702 0 0.04 0.667702 0 0.06 0.667702 0 0.08 0.667702 0 0.1 0.667702 0 0 0.670067 0 0.02 0.670067 0 0.04 0.670067 0 0.06 0.670067 0 0.08 0.670067 0 0.1 0.670067 0 0 0.672431 0 0.02 0.672431 0 0.04 0.672431 0 0.06 0.672431 0 0.08 0.672431 0 0.1 0.672431 0 0 0.674793 0 0.02 0.674793 0 0.04 0.674793 0 0.06 0.674793 0 0.08 0.674
[...]
			<PointData Scalars="VitesseX">
				<DataArray Name="VitesseX" type="Float32" format="ascii">
 0 3.14416e-15 3.18575e-15 -5.04438e-15 1.07733e-14 0 0 3.23339e-15 2.62269e-15 -4.40419e-15 1.04836e-14 0 0 3.15647e-15 2.29448e-15 -3.2349e-15 9.43912e-15 0 0 2.33844e-15 3.89363e-15 -3.73452e-15 9.6652e-15 0 0 1.87263e-15 4.18204e-15 -2.98884e-15 1.07755e-14 0 0 2.04199e-15 2.91017e-15 -2.92558e-16 9.9952e-15 0 0 9.04691e-16 3.40205e-15 2.16048e-16 9.99736e-15 0 0 8.09504e-16 2.28174e-15 8.06857e-16 1.18107e-14 0 0 3.10572e-15 -1.87332e-15 3.1687e-15 1.24497e-14 0 0 4.423e-15 -4.12734e-15 5.36739e-15 9.41025e-15 0 0 1.39954e-15 1.29552e-15 5.12041e-15 6.35638e-15 0 0 -3.13303e-16 5.00234e-15 6.42256e-15 2.01297e-15 0 0 7.21361e-16 3.33308e-15 1.05899e-14 -4.1005e-15 0 0 2.75513e-15 1.32894e-15 1.00462e-14 -6.56506e-15 0 0 3.94545e-15 -1.40561e-15 4.79008e-15 -2.00754e-15 0 0 3.94967e-15 -1.41414e-15 3.35841e-16 4.96123e-15 0 0 3.57824e-15 7.14246e-16 -2.79892e-15 6.4804e-15 0 0 -7.40292e-16 5.44267e-15 -4.35529e-15 7.94853e-15 0 0 -4.83993e-16 3.88949e-16 5.88321e-15 5.53832e-15 0 0 6.20578e-16 -1.12732e-15 9.29513e-15 2.9041e-15 0 0 1.76685e-15 2.38167e-15 5.97931e-15 -3.15004e-15 0 0 8.0855e-15 -6.46545e-16 5.79758e-15 -1.008e-14 0 0 7.29126e-15 4.04469e-15 1.23089e-15 -9.3609e-15 0 0 3.02889e-15 6.51567e-15 3.17712e-16 -3.94818e-15 0 0 2.83854e-15 7.51595e-15 -5.59096e-15 5.30161e-15 0 0 3.78204e-16 7.7024e-15 -1.73067e-15 -2.44788e-15 0 0 7.31187e-15 -1.79314e-15 3.35125e-15 -7.26768e-15 0 0 1.35825e-14 -1.04463e-14 4.42637e-15 6.63844e-16 0 0 6.69403e-15 -6.52358e-15 9.18147e-15 1.14067e-15 0 0 -1.77417e-15 5.43792e-15 6.51583e-15 -3.18739e-16 0 0 -5.81048e-15 8.23907e-15 7.17489e-15 1.92543e-15 0 0 -1.78584e-15 -5.56632e-15 1.6338e-14 7.89572e-15 0 0 -5.72486e-15 -2.50045e-15 1.10661e-15 2.3524e-14 0 0 -3.11296e-15 4.8308e-15 -1.90595e-14 2.45645e-14 0 0 -6.39201e-15 9.35006e-15 -1.79216e-14 7.95774e-15 0 0 -9.3632e-15 9.67464e-15 -1.02364e-14 -5.32851e-15 0 0 -5.00611e-15 -7.81573e-16 -1.52153e-16 -1.14268e-14 0 0 -4.16012e-15 -3.22003e-15 -5.91576e-15 -1.01545e-14 0 0 -1.44685e-15 -8.31467e-15 -2.19174e-15 -1.44233e-14 0 0 -6.25926e-15 -1.38534e-14 3.59179e-15 -1.09928e-14 0 0 -8.92324e-15 -1.04175e-14 -5.41444e-15 -7.42877e-15 0 0 -1.51772e-14 2.77782e-15 -1.12618e-14 -9.31263e-15 0 0 -9.51965e-15 1.45458e-15 -1.0773e-14 -7.68527e-15 0 0 5.8455e-15 -8.81752e-15 -1.24077e-14 1.96523e-15 0 0 2.97485e-15 -3.30786e-15 -1.15146e-14 4.96916e-15 0 0 -6.11256e-16 -7.46875e-15 1.94455e-15 9.89628e-16 0 0 -2.37559e-15 -1.41376e-14 2.24739e-14 -1.32844e-15 0 0 -6.83106e-15 -1.20648e-14 3.91714e-14 5.09943e-16 0 0 -2.46448e-15 1.36056e-16 2.26648e-14 1.52968e-14 0 0 1.02106e-14 8.6564e-15 1.56839e-14 8.06425e-15 0 0 3.78378e-14 -2.28904e-14 4.44096e-14 -1.85859e-14 0 0 4.00883e-14 -2.41906e-14 4.20753e-14 -3.33153e-14 0 0 1.03834e-14 1.34517e-15 3.1239e-14 -3.70661e-14 0 0 1.037e-14 3.57107e-15 1.22636e-14 -2.55506e-14 0 0 1.8987e-14 -4.02383e-15 -1.55723e-14 3.51641e-15 0 0 -2.24551e-14 -1.16434e-15 -1.16451e-14 1.84378e-14 0 0 -3.18873e-14 1.04909e-17 -5.64079e-15 1.10609e-14 0 0 1.76403e-15 -2.39088e-14 -1.76374e-14 1.38582e-14 0 0 9.80387e-15 -5.27733e-14 -2.45801e-14 7.99702e-15 0 0 -2.37637e-14 -4.02626e-14 -2.74117e-14 -1.41668e-15 0 0 -2.98323e-14 -1.99026e-14 -4.36695e-14 4.12254e-15 0 0 -2.20121e-14 -1.67663e-14 -4.29703e-14 1.65027e-14 0 0 -3.48064e-14 -4.49469e-15 -2.40274e-14 1.7444e-14 0 0 -5.37422e-15 -3.36308e-15 -2.44604e-14 2.23045e-15 0 0 3.69126e-15 -2.457e-14 2.46429e-15 -3.51717e-14 0 0 -1.30331e-14 -1.92747e-14 1.24812e-14 -5.10077e-14 0 0 -1.04782e-14 1.92187e-16 -1.76798e-14 -3.00278e-14 0 0 3.38396e-15 -2.37513e-15 -2.76783e-14 -3.20874e-14 0 0 1.22285e-14 -1.72602e-14 -1.42412e-14 -2.2861e-14 0 0 1.02533e-14 -4.79877e-14 1.30184e-15 7.27894e-15 0 0 -7.16498e-15 -3.80252e-14 -9.92008e-15 4.72603e-15 0 0 -4.97945e-15 -1.88482e-14 2.38815e-15 -1.54395e-14 0 0 5.50366e-15 3.36447e-15 5.26883e-15 -2.48912e-14 0 0 -8.39251e-15 2.94667e-14 -3.70272e-14 -1.3256e-14 0 0 -1.38575e-14 2.47858e-14 -3.50763e-14 -3.77192e-15 0 0 -7.76287e-15 -2.5292e-16 1.89328e-14 -2.95975e-14 0 0 -3.34103e-14 -4.68273e-15 2.8281e-14 -2.32917e-14 0 0 -2.70074e-14 -1.04956e-14 1.95302e-14 1.39302e-15 0 0 -1.13253e-14 5.8849e-15 1.09751e-16 1.35841e-14 0 0 -3.27673e-14 1.05358e-14 -5.00053e-15 -1.44799e-15 0 0 -5.21506e-15 -3.54505e-14 2.67614e-14 -3.20758e-14 0 0 1.686e-14 -2.09927e-14 1.37149e-14 -3.1465e-14 0 0 -3.04693e-15 -1.13275e-14 -1.12515e-14 -3.034e-14 0 0 -2.44196e-14 -1.32345e-14 -4.32625e-15 -2.08422e-14 0 0 -1.18791e-14 -2.88e-15 3.21912e-15 1.0004e-14 0 0 3.11458e-14 -2.08626e-14 1.40537e-15 2.03671e-14 0 0 4.3203e-14 -1.87282e-14 8.47777e-15 1.41639e-14 0 0 1.73058e-14 9.54344e-16 3.73132e-14 -2.1518e-14 0 0 -8.71292e-15 1.35438e-14 2.74018e-14 -2.96949e-14 0 0 5.77142e-16 1.04555e-14 3.44316e-14 -1.75668e-14 0 0 1.95697e-14 4.39137e-14 4.55058e-14 3.84908e-14 0 0 4.51714e-14 1.04438e-13 8.20708e-14 7.27601e-14 0 0 7.38421e-14 9.07268e-14 1.2322e-13 5.71549e-14 0 0 1.88194e-14 5.07753e-15 1.88556e-14 1.60833e-14 0 0 -1.15734e-13 -1.84179e-13 -1.90214e-13 -1.17421e-13 0 0 -2.79707e-13 -4.59152e-13 -4.5847e-13 -2.88495e-13 0 0 -4.40952e-13 -7.12931e-13 -7.17809e-13 -4.45918e-13 0 0 -5.47454e-13 -8.95931e-13 -8.81984e-13 -5.67791e-13 0 0 -6.1216e-13 -9.89412e-13 -9.85064e-13 -6.22029e-13 0 0 -6.7501e-13 -1.09317e-12 -1.09393e-12 -6.81149e-13 0 0 -7.89909e-13 -1.28716e-12 -1.30051e-12 -7.93852e-13 0 0 -1.39871e-12 -2.22952e-12 -2.25412e-12 -1.43208e-12 0 0 -1.3943e-12 -2.20597e-12 -2.24763e-12 -1.4043e-12 0 0 -1.42905e-12 -2.25938e-12 -2.24539e-12 -1.46341e-12 0 0 -1.44421e-12 -2.31852e-12 -2.29742e-12 -1.49575e-12 0 0 -1.44435e-12 -2.40244e-12 -2.33842e-12 -1.49066e-12 0 0 -1.42616e-12 -2.38131e-12 -2.27517e-12 -1.46283e-12 0 0 -1.25302e-12 -2.03546e-12 -1.97928e-12 -1.26754e-12 0 0 -7.47506e-13 -1.20543e-12 -1.19329e-12 -7.46861e-13 0 0 -1.20462e-13 -2.28474e-13 -1.85465e-13 -1.38925e-13 0 0 4.43197e-13 6.29821e-13 6.65825e-13 4.30471e-13 0 0 8.12168e-13 1.229e-12 1.25443e-12 7.76532e-13 0 0 9.25364e-13 1.42796e-12 1.44545e-12 8.84351e-13 0 0 8.91648e-13 1.41947e-12 1.37174e-12 8.67951e-13 0 0 7.77504e-13 1.27008e-12 1.215e-12 7.91927e-13 0 0 6.45823e-13 1.01675e-12 1.00348e-12 6.69487e-13 0 0 5.09784e-13 7.31643e-13 7.87408e-13 4.96873e-13 0 0 3.64612e-13 4.80963e-13 5.29412e-13 3.56656e-13 0 0 2.34786e-13 2.77962e-13 3.11755e-13 2.24535e-13 0 0 1.04818e-13 7.96581e-14 1.29641e-13 8.84103e-14 0 0 -4.38538e-14 -5.65809e-14 -1.04819e-13 -2.33117e-14 0 0 -1.66747e-13 -1.81423e-13 -3.0245e-13 -1.08752e-13 0 0 -2.5758e-13 -3.54366e-13 -4.53121e-13 -1.92527e-13 0 0 -3.4835e-13 -5.20621e-13 -5.9484e-13 -3.18204e-13 0 0 -4.19565e-13 -6.46412e-13 -7.13266e-13 -4.20472e-13 0 0 -4.61288e-13 -8.20844e-13 -8.2202e-13 -4.88891e-13 0 0 -5.03153e-13 -1.00728e-12 -8.98488e-13 -5.68994e-13 0 0 -5.72192e-13 -1.12435e-12 -9.56465e-13 -6.40998e-13 0 0 -6.60273e-13 -1.23966e-12 -1.0676e-12 -7.80065e-13 0 0 -7.64898e-13 -1.31517e-12 -1.26717e-12 -8.35574e-13 0 0 -8.67762e-13 -1.3707e-12 -1.44949e-12 -8.62574e-13 0 0 -9.45921e-13 -1.41533e-12 -1.57541e-12 -8.98867e-13 0 0 -9.92307e-13 -1.48674e-12 -1.5902e-12 -9.80366e-13 0 0 -1.01801e-12 -1.61693e-12 -1.55823e-12 -1.04434e-12 0 0 -1.03746e-12 -1.7209e-12 -1.59553e-12 -1.04625e-12 0 0 -1.04985e-12 -1.76071e-12 -1.68425e-12 -1.093e-12 0 0 -1.09037e-12 -1.74722e-12 -1.73559e-12 -1.07316e-12 0 0 -1.09761e-12 -1.76529e-12 -1.75049e-12 -1.08519e-12 0 0 -1.08488e-12 -1.79304e-12 -1.74728e-12 -1.13334e-12 0 0 -1.08931e-12 -1.79775e-12 -1.71987e-12 -1.1414e-12 0 0 -1.06474e-12 -1.77524e-12 -1.72822e-12 -1.13544e-12 0 0 -1.01045e-12 -1.75503e-12 -1.67333e-12 -1.09795e-12 0 0 -9.89594e-13 -1.72551e-12 -1.64068e-12 -1.02452e-12 0 0 -9.79661e-13 -1.62981e-12 -1.63162e-12 -9.62267e-13 0 0 -8.63313e-13 -1.38493e-12 -1.49901e-12 -9.54544e-13 0 0 -7.91807e-13 -1.22655e-12 -1.31243e-12 -8.54164e-13 0 0 -6.183e-13 -9.96547e-13 -9.69079e-13 -6.32181e-13 0 0 -4.53942e-13 -7.79479e-13 -7.73584e-13 -4.63795e-13 0 0 -3.20971e-13 -5.10074e-13 -5.60274e-13 -2.62466e-13 0 0 -1.78933e-13 -2.9613e-13 -3.65215e-13 -1.92638e-13 0 0 -9.33542e-14 -1.65814e-13 -2.24436e-13 -1.29901e-13 0 0 -5.01326e-14 -9.47188e-14 -8.05156e-14 -9.20514e-14 0 0 -2.08451e-14 -5.22922e-14 -3.12363e-14 -4.85926e-14 0 0 -2.69027e-14 -1.40056e-14 -7.18772e-14 -6.14143e-15 0 0 -2.81265e-14 -3.3215e-14 -4.44544e-14 -1.40738e-14 0 0 -1.21829e-14 -6.64896e-14 -1.00098e-14 -2.58639e-14 0 0 -1.66191e-14 -4.77663e-14 -4.31488e-14 -2.81658e-14 0 0 -2.36033e-14 -2.76104e-14 -4.41693e-14 -5.27215e-14 0 0 -1.3111e-14 -3.3399e-14 -3.14754e-14 -8.27998e-14 0 0 -9.35203e-15 -4.70661e-14 -4.33119e-14 -3.16282e-14 0 0 -2.76729e-14 -3.01228e-14 -4.32399e-14 -2.71555e-14 0 0 -3.1292e-14 -3.397e-14 -9.32728e-15 -5.20948e-14 0 0 -1.8903e-14 -4.42459e-14 -3.43013e-15 -4.05899e-14 0 0 -1.18046e-14 -5.73636e-14 -1.38238e-14 -7.7551e-15 0 0 -2.60465e-14 -2.97053e-14 -5.33409e-14 5.10089e-14 0 0 -3.52007e-14 -1.04281e-14 -5.2488e-14 2.20798e-14 0 0 -2.20435e-14 -3.92727e-14 -4.9505e-15 -3.69046e-14 0 0 -5.5653e-14 1.69908e-14 -2.87575e-14 -3.64682e-14 0 0 -5.27609e-14 2.03496e-15 4.04158e-14 -9.80631e-14 0 0 2.87439e-15 -5.54175e-14 8.90636e-14 -1.02075e-13 0 0 -2.42768e-14 7.23615e-15 3.64199e-14 -3.66969e-14 0 0 -4.42349e-14 5.13396e-14 1.56817e-14 -8.74698e-15 0 0 -4.55653e-15 1.52807e-14 2.34491e-14 2.52837e-15 0 0 3.76124e-14 -2.15619e-14 5.7569e-14 -1.55569e-14 0 0 7.24933e-14 -3.58106e-14 3.67899e-14 4.84943e-14 0 0 5.57747e-14 -2.09076e-14 5.98114e-15 6.69757e-14 0 0 5.39056e-14 -1.86696e-14 7.42217e-15 1.01037e-14 0 0 5.75763e-14 -3.76835e-15 1.12652e-15 -3.38309e-15 0 0 5.52931e-14 3.41538e-15 1.80452e-15 1.05914e-14 0 0 4.91761e-14 -7.81133e-15 -9.03891e-15 3.59878e-14 0 0 2.77647e-14 -3.24656e-14 1.83674e-14 1.76197e-15 0 0 4.85883e-14 -6.44155e-14 5.07132e-15 1.75871e-14 0 0 6.39985e-14 -5.3786e-14 -3.67994e-14 8.60809e-14 0 0 3.88159e-14 -4.9277e-14 -1.29198e-14 1.18175e-13 0 0 -2.06874e-14 -5.59633e-16 -2.87248e-14 1.12111e-13 0 0 -4.20746e-14 4.92091e-14 -6.48211e-14 8.62863e-14 0 0 -1.36892e-14 -3.05109e-14 2.62728e-14 6.3175e-14 0 0 3.74368e-15 -1.2658e-13 1.357e-13 2.05811e-14 0 0 -4.43644e-14 -6.44242e-14 1.02638e-13 -1.05102e-14 0 0 -7.34923e-14 2.15225e-14 4.73135e-14 -2.9814e-14 0 0 -1.57993e-14 2.55325e-14 -1.68698e-14 2.48318e-14 0 0 -5.28442e-14 8.38454e-14 -8.50368e-14 7.81583e-14 0 0 -3.61465e-14 1.96187e-14 -1.31632e-14 2.73048e-14 0 0 1.89165e-14 -3.652e-14 3.45483e-14 -2.63006e-14 0 0 6.74776e-16 2.8626e-14 8.09194e-15 -7.36294e-15 0 0 2.48293e-14 2.32172e-15 4.55093e-14 3.10421e-15 0 0 3.34732e-14 -2.36724e-14 6.62568e-14 -3.63318e-14 0 0 2.8552e-14 -5.74491e-15 5.94877e-14 -8.06778e-14 0 0 3.31943e-14 3.09622e-14 7.35508e-15 -6.79454e-14 0 0 3.61001e-14 4.87478e-14 -4.18518e-14 -4.62297e-14 0 0 3.5287e-14 4.9562e-14 -3.76442e-14 -6.20785e-14 0
				</DataArray>
				<DataArray Name="VitesseY" type="Float32" format="ascii">