<?xml version="1.0"?>
<VTKFile type="PolyData">
	<PolyData>
		<Piece NumberOfPoints="1206" NumberOfPolys="1000">
			<Points>
				<DataArray type="Float32" NumberOfComponents="3" format="ascii">
 0 0 0 0.02 0 0 0.04 0 0 0.06 0 0 0.08 0 0 0.1 0 0 0 0.005 0 0.02 0.005 0 0.04 0.005 0 0.06 0.005 0 0.08 0.005 0 0.1 0.005 0 0 0.01 0 0.02 0.01 0 0.04 0.01 0 0.06 0.01 0 0.08 0.01 0 0.1 0.01 0 0 0.015 0 0.02 0.015 0 0.04 0.015 0 0.06 0.015 0 0.08 0.015 0 0.1 0.015 0 0 0.02 0 0.02 0.02 0 0.04 0.02 0 0.06 0.02 0 0.08 0.02 0 0.1 0.02 0 0 0.025 0 0.02 0.025 0 0.04 0.025 0 0.06 0.025 0 0.08 0.025 0 0.1 0.025 0 0 0.03 0 0.02 0.03 0 0.04 0.03 0 0.06 0.03 0 0.08 0.03 0 0.1 0.03 0 0 0.035 0 0.02 0.035 0 0.04 0.035 0 0.06 0.035 0 0.08 0.035 0 0.1 0.035 0 0 0.04 0 0.02 0.04 0 0.04 0.04 0 0.06 0.04 0 0.08 0.04 0 0.1 0.04 0 0 0.045 0 0.02 0.045 0 0.04 0.045 0 0.06 0.045 0 0.08 0.045 0 0.1 0.045 0 0 0.05 0 0.02 0.05 0 0.04 0.05 0 0.06 0.05 0 0.08 0.05 0 0.1 0.05 0 0 0.055 0 0.02 0.055 0 0.04 0.055 0 0.06 0.055 0 0.08 0.055 0 0.1 0.055 0 0 0.06 0 0.02 0.06 0 0.04 0.06 0 0.06 0.06 0 0.08 0.06 0 0.1 0.06 0 0 0.065 0 0.02 0.065 0 0.04 0.065 0 0.06 0.065 0 0.08 0.065 0 0.1 0.065 0 0 0.07 0 0.02 0.07 0 0.04 0.07 0 0.06 0.07 0 0.08 0.07 0 0.1 0.07 0 0 0.075 0 0.02 0.075 0 0.04 0.075 0 0.06 0.075 0 0.08 0.075 0 0.1 0.075 0 0 0.08 0 0.02 0.08 0 0.04 0.08 0 0.06 0.08 0 0.08 0.08 0 0.1 0.08 0 0 0.085 0 0.02 0.085 0 0.04 0.085 0 0.06 0.085 0 0.08 0.085 0 0.1 0.085 0 0 0.09 0 0.02 0.09 0 0.04 0.09 0 0.06 0.09 0 0.08 0.09 0 0.1 0.09 0 0 0.095 0 0.02 0.095 0 0.04 0.095 0 0.06 0.095 0 0.08 0.095 0 0.1 0.095 0 0 0.1 0 0.02 0.1 0 0.04 0.1 0 0.06 0.1 0 0.08 0.1 0 0.1 0.1 0 0 0.105 0 0.02 0.105 0 0.04 0.105 0 0.06 0.105 0 0.08 0.105 0 0.1 0.105 0 0 0.11 0 0.02 0.11 0 0.04 0.11 0 0.06 0.11 0 0.08 0.11 0 0.1 0.11 0 0 0.115 0 0.02 0.115 0 0.04 0.115 0 0.06 0.115 0 0.08 0.115 0 0.1 0.115 0 0 0.12 0 0.02 0.12 0 0.04 0.12 0 0.06 0.12 0 0.08 0.12 0 0.1 0.12 0 0 0.125 0 0.02 0.125 0 0.04 0.125 0 0.06 0.125 0 0.08 0.125 0 0.1 0.125 0 0 0.13 0 0.02 0.13 0 0.04 0.13 0 0.06 0.13 0 0.08 0.13 0 0.1 0.13 0 0 0.135 0 0.02 0.135 0 0.04 0.135 0 0.06 0.135 0 0.08 0.135 0 0.1 0.135 0 0 0.14 0 0.02 0.14 0 0.04 0.14 0 0.06 0.14 0 0.08 0.14 0 0.1 0.14 0 0 0.145 0 0.02 0.145 0 0.04 0.145 0 0.06 0.145 0 0.08 0.145 0 0.1 0.145 0 0 0.15 0 0.02 0.15 0 0.04 0.15 0 0.06 0.15 0 0.08 0.15 0 0.1 0.15 0 0 0.155 0 0.02 0.155 0 0.04 0.155 0 0.06 0.155 0 0.08 0.155 0 0.1 0.155 0 0 0.16 0 0.02 0.16 0 0.04 0.16 0 0.06 0.16 0 0.08 0.16 0 0.1 0.16 0 0 0.165 0 0.02 0.165 0 0.04 0.165 0 0.06 0.165 0 0.08 0.165 0 0.1 0.165 0 0 0.17 0 0.02 0.17 0 0.04 0.17 0 0.06 0.17 0 0.08 0.17 0 0.1 0.17 0 0 0.175 0 0.02 0.175 0 0.04 0.175 0 0.06 0.175 0 0.08 0.175 0 0.1 0.175 0 0 0.18 0 0.02 0.18 0 0.04 0.18 0 0.06 0.18 0 0.08 0.18 0 0.1 0.18 0 0 0.185 0 0.02 0.185 0 0.04 0.185 0 0.06 0.185 0 0.08 0.185 0 0.1 0.185 0 0 0.19 0 0.02 0.19 0 0.04 0.19 0 0.06 0.19 0 0.08 0.19 0 0.1 0.19 0 0 0.195 0 0.02 0.195 0 0.04 0.195 0 0.06 0.195 0 0.08 0.195 0 0.1 0.195 0 0 0.2 0 0.02 0.2 0 0.04 0.2 0 0.06 0.2 0 0.08 0.2 0 0.1 0.2 0 0 0.205 0 0.02 0.205 0 0.04 0.205 0 0.06 0.205 0 0.08 0.205 0 0.1 0.205 0 0 0.21 0 0.02 0.21 0 0.04 0.21 0 0.06 0.21 0 0.08 0.21 0 0.1 0.21 0 0 0.215 0 0.02 0.215 0 0.04 0.215 0 0.06 0.215 0 0.08 0.215 0 0.1 0.215 0 0 0.22 0 0.02 0.22 0 0.04 0.22 0 0.06 0.22 0 0.08 0.22 0 0.1 0.22 0 0 0.225 0 0.02 0.225 0 0.04 0.225 0 0.06 0.225 0 0.08 0.225 0 0.1 0.225 0 0 0.23 0 0.02 0.23 0 0.04 0.23 0 0.06 0.23 0 0.08 0.23 0 0.1 0.23 0 0 0.235 0 0.02 0.235 0 0.04 0.235 0 0.06 0.235 0 0.08 0.235 0 0.1 0.235 0 0 0.24 0 0.02 0.24 0 0.04 0.24 0 0.06 0.24 0 0.08 0.24 0 0.1 0.24 0 0 0.245 0 0.02 0.245 0 0.04 0.245 0 0.06 0.245 0 0.08 0.245 0 0.1 0.245 0 0 0.25 0 0.02 0.25 0 0.04 0.25 0 0.06 0.25 0 0.08 0.25 0 0.1 0.25 0 0 0.255 0 0.02 0.255 0 0.04 0.255 0 0.06 0.255 0 0.08 0.255 0 0.1 0.255 0 0 0.26 0 0.02 0.26 0 0.04 0.26 0 0.06 0.26 0 0.08 0.26 0 0.1 0.26 0 0 0.265001 0 0.02 0.265001 0 0.04 0.265001 0 0.06 0.265001 0 0.08 0.265001 0 0.1 0.265001 0 0 0.270004 0 0.02 0.270004 0 0.04 0.270004 0 0.06 0.270004 0 0.08 0.270004 0 0.1 0.270004 0 0 0.27501 0 0.02 0.27501 0 0.04 0.27501 0 0.06 0.27501 0 0.08 0.27501 0 0.1 0.27501 0 0 0.280026 0 0.02 0.280026 0 0.04 0.280026 0 0.06 0.280026 0 0.08 0.280026 0 0.1 0.280026 0 0 0.28506 0 0.02 0.28506 0 0.04 0.28506 0 0.06 0.28506 0 0.08 0.28506 0 0.1 0.28506 0 0 0.290125 0 0.02 0.290125 0 0.04 0.290125 0 0.06 0.290125 0 0.08 0.290125 0 0.1 0.290125 0 0 0.295237 0 0.02 0.295237 0 0.04 0.295237 0 0.06 0.295237 0 0.08 0.295237 0 0.1 0.295237 0 0 0.300415 0 0.02 0.300415 0 0.04 0.300415 0 0.06 0.300415 0 0.08 0.300415 0 0.1 0.300415 0 0 0.305674 0 0.02 0.305674 0 0.04 0.305674 0 0.06 0.305674 0 0.08 0.305674 0 0.1 0.305674 0 0 0.311027 0 0.02 0.311027 0 0.04 0.311027 0 0.06 0.311027 0 0.08 0.311027 0 0.1 0.311027 0 0 0.316486 0 0.02 0.316486 0 0.04 0.316486 0 0.06 0.316486 0 0.08 0.316486 0 0.1 0.316486 0 0 0.322058 0 0.02 0.322058 0 0.04 0.322058 0 0.06 0.322058 0 0.08 0.322058 0 0.1 0.322058 0 0 0.327753 0 0.02 0.327753 0 0.04 0.327753 0 0.06 0.327753 0 0.08 0.327753 0 0.1 0.327753 0 0 0.333578 0 0.02 0.333578 0 0.04 0.333578 0 0.06 0.333578 0 0.08 0.333578 0 0.1 0.333578 0 0 0.339542 0 0.02 0.339542 0 0.04 0.339542 0 0.06 0.339542 0 0.08 0.339542 0 0.1 0.339542 0 0 0.345652 0 0.02 0.345652 0 0.04 0.345652 0 0.06 0.345652 0 0.08 0.345652 0 0.1 0.345652 0 0 0.351918 0 0.02 0.351918 0 0.04 0.351918 0 0.06 0.351918 0 0.08 0.351918 0 0.1 0.351918 0 0 0.358349 0 0.02 0.358349 0 0.04 0.358349 0 0.06 0.358349 0 0.08 0.358349 0 0.1 0.358349 0 0 0.364956 0 0.02 0.364956 0 0.04 0.364956 0 0.06 0.364956 0 0.08 0.364956 0 0.1 0.364956 0 0 0.37175 0 0.02 0.37175 0 0.04 0.37175 0 0.06 0.37175 0 0.08 0.37175 0 0.1 0.37175 0 0 0.378743 0 0.02 0.378743 0 0.04 0.378743 0 0.06 0.378743 0 0.08 0.378743 0 0.1 0.378743 0 0 0.385949 0 0.02 0.385949 0 0.04 0.385949 0 0.06 0.385949 0 0.08 0.385949 0 0.1 0.385949 0 0 0.393382 0 0.02 0.393382 0 0.04 0.393382 0 0.06 0.393382 0 0.08 0.393382 0 0.1 0.393382 0 0 0.401059 0 0.02 0.401059 0 0.04 0.401059 0 0.06 0.401059 0 0.08 0.401059 0 0.1 0.401059 0 0 0.408999 0 0.02 0.408999 0 0.04 0.408999 0 0.06 0.408999 0 0.08 0.408999 0 0.1 0.408999 0 0 0.41722 0 0.02 0.41722 0 0.04 0.41722 0 0.06 0.41722 0 0.08 0.41722 0 0.1 0.41722 0 0 0.425747 0 0.02 0.425747 0 0.04 0.425747 0 0.06 0.425747 0 0.08 0.425747 0 0.1 0.425747 0 0 0.434603 0 0.02 0.434603 0 0.04 0.434603 0 0.06 0.434603 0 0.08 0.434603 0 0.1 0.434603 0 0 0.443818 0 0.02 0.443818 0 0.04 0.443818 0 0.06 0.443818 0 0.08 0.443818 0 0.1 0.443818 0 0 0.45342 0 0.02 0.45342 0 0.04 0.45342 0 0.06 0.45342 0 0.08 0.45342 0 0.1 0.45342 0 0 0.463443 0 0.02 0.463443 0 0.04 0.463443 0 0.06 0.463443 0 0.08 0.463443 0 0.1 0.463443 0 0 0.473921 0 0.02 0.473921 0 0.04 0.473921 0 0.06 0.473921 0 0.08 0.473921 0 0.1 0.473921 0 0 0.484883 0 0.02 0.484883 0 0.04 0.484883 0 0.06 0.484883 0 0.08 0.484883 0 0.1 0.484883 0 0 0.496341 0 0.02 0.496341 0 0.04 0.496341 0 0.06 0.496341 0 0.08 0.496341 0 0.1 0.496341 0 0 0.508246 0 0.02 0.508246 0 0.04 0.508246 0 0.06 0.508246 0 0.08 0.508246 0 0.1 0.508246 0 0 0.520385 0 0.02 0.520385 0 0.04 0.520385 0 0.06 0.520385 0 0.08 0.520385 0 0.1 0.520385 0 0 0.532464 0 0.02 0.532464 0 0.04 0.532464 0 0.06 0.532464 0 0.08 0.532464 0 0.1 0.532464 0 0 0.544446 0 0.02 0.544446 0 0.04 0.544446 0 0.06 0.544446 0 0.08 0.544446 0 0.1 0.544446 0 0 0.556332 0 0.02 0.556332 0 0.04 0.556332 0 0.06 0.556332 0 0.08 0.556332 0 0.1 0.556332 0 0 0.568144 0 0.02 0.568144 0 0.04 0.568144 0 0.06 0.568144 0 0.08 0.568144 0 0.1 0.568144 0 0 0.57991 0 0.02 0.57991 0 0.04 0.57991 0 0.06 0.57991 0 0.08 0.57991 0 0.1 0.57991 0 0 0.591652 0 0.02 0.591652 0 0.04 0.591652 0 0.06 0.591652 0 0.08 0.591652 0 0.1 0.591652 0 0 0.603384 0 0.02 0.603384 0 0.04 0.603384 0 0.06 0.603384 0 0.08 0.603384 0 0.1 0.603384 0 0 0.615111 0 0.02 0.615111 0 0.04 0.615111 0 0.06 0.615111 0 0.08 0.615111 0 0.1 0.615111 0 0 0.626837 0 0.02 0.626837 0 0.04 0.626837 0 0.06 0.626837 0 0.08 0.626837 0 0.1 0.626837 0 0 0.638562 0 0.02 0.638562 0 0.04 0.638562 0 0.06 0.638562 0 0.08 0.638562 0 0.1 0.638562 0 0 0.650289 0 0.02 0.650289 0 0.04 0.650289 0 0.06 0.650289 0 0.08 0.650289 0 0.1 0.650289 0 0 0.66203 0 0.02 0.66203 0 0.04 0.66203 0 0.06 0.66203 0 0.08 0.66203 0 0.1 0.66203 0 0 0.664638 0 0.02 0.664638 0 0.04 0.664638 0 0.06 0.664638 0 0.08 0.664638 0 0.1 0.664638 0 0 0.667172 0 0.02 0.667172 0 0.04 0.667172 0 0.06 0.667172 0 0.08 0.667172 0 0.1 0.667172 0 0 0.66966 0 0.02 0.66966 0 0.04 0.66966 0 0.06 0.66966 0 0.08 0.66966 0 0.1 0.66966 0 0 0.672119 0 0.02 0.672119 0 0.04 0.672119 0 0.06 0.672119 0 0.08 0.672119 0 0.1 0.672119 0 0 0.674555 0 0.02 0.674555 0 0.04 0.674555 0 0.06 0.674555 0 0.08 0.674555 0 0.1 0.674555 0 0 0.676976 0 0.02 0.676976 0 0.04 0.676976 0 0.06 0.676976 0 0.08 0.676976 0 0.1 0.676976 0 0 0.679386 0 0.02 0.679386 0 0.04 0.679386 0 0.06 0.679386 0 0.08 0.679386 0 0.1 0.679386 0 0 0.681788 0 0.02 0.681788 0 0.04 0.681788 0 0.06 0.681788 0 0.08 0.681788 0 0.1 0.681788 0 0 0.684189 0 0.02 0.684189 0 0.04 0.684189 0 0.06 0.684189 0 0.08 0.684189 0 0.1 0.684189 0 0 0.686591 0 0.02 0.686591 0 0.04 0.686591 0 0.06 0.686591 0 0.08 0.686591 0 0.1 0.686591 0 0 0.688996 0 0.02 0.688996 0 0.04 0.688996 0 0.06 0.688996 0 0.08 0.688996 0 0.1 0.688996 0 0 0.691401 0 0.02 0.691401 0 0.04 0.691401 0 0.06 0.691401 0 0.08 0.691401 0 0.1 0.691401 0 0 0.693804 0 0.02 0.693804 0 0.04 0.693804 0 0.06 0.693804 0 0.08 0.693804 0 0.1 0.693804 0 0 0.696202 0 0.02 0.696202 0 0.04 0.696202 0 0.06 0.696202 0 0.08 0.696202 0 0.1 0.696202 0 0 0.698592 0 0.02 0.698592 0 0.04 0.698592 0 0.06 0.698592 0 0.08 0.698592 0 0.1 0.698592 0 0 0.700977 0 0.02 0.700977 0 0.04 0.700977 0 0.06 0.700977 0 0.08 0.700977 0 0.1 0.700977 0 0 0.703358 0 0.02 0.703358 0 0.04 0.703358 0 0.06 0.703358 0 0.08 0.703358 0 0.1 0.703358 0 0 0.705736 0 0.02 0.705736 0 0.04 0.705736 0 0.06 0.705736 0 0.08 0.705736 0 0.1 0.705736 0 0 0.708112 0 0.02 0.708112 0 0.04 0.708112 0 0.06 0
[...]
			<PointData Scalars="VitesseX">
				<DataArray Name="VitesseX" type="Float32" format="ascii">
 0 -4.37278e-17 1.17516e-15 7.91571e-15 -1.09199e-15 0 0 -1.08889e-16 1.56451e-15 7.67616e-15 -4.04159e-16 0 0 1.22267e-17 1.9032e-15 7.79537e-15 9.07597e-16 0 0 1.3907e-16 3.12879e-15 7.29653e-15 3.71274e-15 0 0 1.21146e-15 5.01298e-15 4.56946e-15 7.36803e-15 0 0 2.01359e-15 6.35111e-15 2.69538e-15 1.03409e-14 0 0 2.91272e-15 6.26532e-15 2.12626e-15 1.23187e-14 0 0 4.21718e-15 7.03221e-15 2.51833e-16 1.2932e-14 0 0 3.60803e-15 1.04891e-14 -1.87502e-15 1.30083e-14 0 0 2.86717e-15 1.19466e-14 -2.50479e-15 1.27525e-14 0 0 4.4574e-15 8.13234e-15 1.38671e-15 8.81891e-15 0 0 6.36106e-15 2.18939e-15 6.82522e-15 4.58187e-15 0 0 4.27722e-15 2.92953e-15 4.32796e-15 8.90136e-15 0 0 2.24397e-15 5.3619e-15 -8.04312e-16 1.47688e-14 0 0 3.32086e-15 2.24525e-15 1.8057e-15 1.34237e-14 0 0 2.7686e-15 2.39635e-15 3.70147e-15 1.00282e-14 0 0 1.42706e-15 4.21913e-15 4.04289e-16 8.65331e-15 0 0 2.1584e-15 3.29689e-15 1.86811e-15 7.90187e-15 0 0 2.2371e-15 5.61401e-15 4.19953e-15 6.70828e-15 0 0 1.64686e-15 6.59393e-15 8.55148e-15 1.98021e-15 0 0 3.1805e-15 5.24353e-15 1.39456e-14 -5.52526e-15 0 0 3.75406e-15 6.92034e-15 1.3636e-14 -5.25563e-15 0 0 3.38074e-15 8.37059e-15 7.5829e-15 7.98245e-15 0 0 2.82086e-15 9.00026e-15 3.50005e-16 1.69184e-14 0 0 7.13538e-15 8.02821e-15 2.94002e-15 1.38625e-14 0 0 1.00881e-14 7.6055e-15 8.29669e-15 1.60962e-14 0 0 8.8111e-15 7.71492e-15 1.06428e-14 2.11736e-14 0 0 7.44636e-15 7.73478e-15 1.34841e-14 2.3713e-14 0 0 8.90714e-15 2.35368e-15 2.31996e-14 1.53501e-14 0 0 8.44055e-15 1.04095e-15 2.92903e-14 4.41959e-15 0 0 2.6378e-15 7.06635e-15 2.57968e-14 1.08487e-15 0 0 2.93102e-15 3.49723e-15 2.91843e-14 -1.09319e-15 0 0 4.3338e-15 3.98431e-15 2.03088e-14 8.27818e-15 0 0 5.65491e-15 8.68448e-15 1.08223e-14 8.28615e-15 0 0 5.90876e-15 7.6956e-15 1.60824e-14 1.71578e-15 0 0 3.84432e-15 6.5666e-15 2.0844e-14 1.81568e-15 0 0 4.30643e-16 6.82577e-15 2.60734e-14 1.42722e-15 0 0 -5.09875e-15 2.38809e-14 1.25848e-14 7.85956e-15 0 0 2.40547e-15 2.56042e-14 1.35021e-14 7.16458e-15 0 0 1.37714e-14 2.77837e-14 1.56497e-14 7.64673e-15 0 0 2.42702e-14 4.25013e-14 1.52516e-14 1.43314e-14 0 0 4.46049e-14 3.55552e-14 4.29196e-14 1.85326e-14 0 0 5.11726e-14 4.16117e-14 5.80198e-14 2.31359e-14 0 0 4.18239e-14 6.58859e-14 6.90036e-14 2.87219e-14 0 0 3.63531e-14 8.7215e-14 7.23162e-14 3.34873e-14 0 0 4.67438e-14 8.96722e-14 6.2315e-14 2.52537e-14 0 0 5.09696e-14 7.89007e-14 5.81654e-14 3.23037e-14 0 0 4.18166e-14 6.20393e-14 6.72099e-14 4.83406e-14 0 0 3.4647e-14 5.60917e-14 7.20751e-14 4.60477e-14 0 0 2.74716e-14 5.10668e-14 5.45718e-14 5.64985e-14 0 0 2.18404e-14 2.70802e-14 5.02682e-14 5.96701e-14 0 0 1.47654e-14 5.0258e-15 4.64778e-14 5.29164e-14 0 0 1.09997e-15 1.74767e-15 2.78078e-14 5.02012e-14 0 0 -1.95297e-14 1.04174e-15 4.14111e-14 2.37478e-14 0 0 -8.26517e-15 -1.0214e-14 3.43169e-14 1.64027e-14 0 0 -2.42411e-15 -1.58084e-14 1.10234e-14 5.93805e-15 0 0 -1.79654e-14 -4.64313e-15 -1.31062e-15 -1.43324e-14 0 0 -1.94585e-14 3.07085e-15 -1.7523e-14 -1.45609e-14 0 0 -1.33935e-14 -7.63364e-15 -3.02373e-14 -1.44578e-14 0 0 7.45846e-15 -3.06932e-14 -1.76745e-14 -2.03807e-14 0 0 2.1352e-14 -2.17938e-14 -2.88603e-14 -2.39483e-14 0 0 1.6744e-15 4.98084e-15 -5.47873e-14 -2.87519e-14 0 0 -6.31246e-15 -1.05516e-14 -4.66595e-14 -2.70502e-14 0 0 -7.15347e-17 -7.38651e-15 -4.51431e-14 -3.23577e-14 0 0 -1.53668e-14 2.36115e-16 -2.56485e-14 -3.7564e-14 0 0 -1.53238e-14 -6.8623e-15 -3.24477e-14 -1.12173e-14 0 0 1.51319e-17 -3.7851e-15 -3.96001e-14 -2.31734e-14 0 0 1.42416e-14 -2.00971e-14 -6.53471e-15 -3.15806e-14 0 0 2.68829e-16 -1.3343e-14 -1.37901e-14 -9.16178e-15 0 0 -1.46661e-14 3.92733e-15 -2.71235e-14 -1.03333e-14 0 0 -1.09046e-14 -1.9729e-15 4.5048e-16 -3.48921e-14 0 0 -2.88228e-14 -1.43851e-14 2.00579e-14 -3.97231e-14 0 0 -3.64501e-14 -9.49827e-15 -9.15651e-15 -1.50957e-14 0 0 -2.83696e-14 7.54627e-15 -2.70014e-14 -1.27235e-14 0 0 -2.12811e-14 1.40732e-14 -2.4691e-14 1.42848e-14 0 0 -2.86139e-14 2.00219e-14 -3.89299e-14 1.94331e-14 0 0 -4.25519e-14 1.69403e-14 -5.92647e-14 5.64259e-15 0 0 -1.31336e-14 -2.84956e-14 -3.85811e-14 1.25582e-14 0 0 -1.7595e-14 -1.49552e-14 -3.6417e-14 7.0295e-15 0 0 -1.38856e-14 -4.13117e-15 -3.12773e-14 -2.82172e-14 0 0 9.43788e-15 -2.05465e-14 -1.36617e-15 -5.33506e-14 0 0 -1.45546e-15 1.24993e-14 -4.13784e-14 -1.23462e-14 0 0 2.01848e-14 5.5295e-15 -3.93974e-14 1.66993e-15 0 0 2.02531e-14 -1.87505e-14 -2.92953e-14 1.92111e-14 0 0 -1.35415e-14 -3.20397e-14 -1.23802e-14 -2.83557e-15 0 0 -1.59031e-14 -2.15372e-14 -8.62961e-15 -2.19755e-14 0 0 -1.41502e-14 1.63386e-14 -2.83813e-14 -2.38186e-14 0 0 -1.71908e-14 3.0446e-15 -9.5933e-15 -1.54453e-14 0 0 9.32257e-16 -2.44e-14 7.9365e-16 9.17483e-15 0 0 8.44809e-15 -1.0829e-14 3.0454e-16 3.41756e-15 0 0 1.40036e-14 5.49524e-15 1.00275e-14 2.16653e-15 0 0 1.83008e-14 2.15674e-14 2.7858e-14 4.91459e-15 0 0 2.25087e-14 3.07205e-14 4.09856e-14 1.43658e-14 0 0 2.10643e-14 3.99724e-14 4.5555e-14 2.03079e-14 0 0 2.75245e-14 4.42006e-14 4.41872e-14 2.37936e-14 0 0 2.52068e-14 3.54661e-14 4.36466e-14 2.13249e-14 0 0 1.47415e-14 2.84687e-14 3.67512e-14 6.70905e-15 0 0 1.00798e-14 1.78038e-14 2.4394e-14 1.11983e-15 0 0 8.26815e-15 1.08737e-14 1.88846e-14 1.05298e-14 0 0 1.12404e-14 1.55365e-14 2.30497e-14 9.91076e-15 0 0 4.67549e-15 2.84073e-14 4.13485e-14 2.2138e-14 0 0 1.1154e-14 7.47757e-14 5.6237e-14 1.55103e-14 0 0 2.80647e-14 6.47583e-14 3.85747e-14 3.90544e-14 0 0 2.88571e-14 7.6685e-14 1.49251e-14 8.15517e-14 0 0 2.38367e-14 7.54788e-14 1.74575e-14 1.10639e-13 0 0 4.16664e-14 6.22005e-14 5.37889e-14 7.0693e-14 0 0 5.50865e-14 5.77753e-14 9.57002e-14 2.92476e-15 0 0 2.6256e-14 6.21975e-14 5.20362e-14 9.25142e-14 0 0 -1.43292e-14 5.39327e-14 2.83283e-14 6.14213e-14 0 0 -5.20369e-14 -4.65413e-14 -5.9077e-15 -7.1131e-14 0 0 -1.1349e-13 -1.73815e-13 -1.17954e-13 -1.48214e-13 0 0 -1.66041e-13 -2.38319e-13 -2.25176e-13 -1.54865e-13 0 0 -1.8982e-13 -2.60838e-13 -3.22064e-13 -1.83999e-13 0 0 -2.12285e-13 -2.81071e-13 -3.11136e-13 -1.44239e-13 0 0 -2.00364e-13 -2.8631e-13 -3.19283e-13 -1.34371e-13 0 0 -1.89139e-13 -2.5493e-13 -2.91707e-13 -1.87841e-13 0 0 -1.83437e-13 -2.46284e-13 -2.15502e-13 -1.78406e-13 0 0 -1.74884e-13 -2.10644e-13 -2.25284e-13 -1.50984e-13 0 0 -1.52648e-13 -1.65455e-13 -2.20184e-13 -1.21611e-13 0 0 -1.29457e-13 -1.58299e-13 -2.12148e-13 -9.2553e-14 0 0 -1.22941e-13 -1.40279e-13 -1.46532e-13 -1.03912e-13 0 0 -9.48839e-14 -1.21942e-13 -1.33556e-13 -9.83323e-14 0 0 -8.0286e-14 -7.34282e-14 -1.80581e-13 -5.46777e-14 0 0 -6.83736e-14 -6.64265e-14 -1.15273e-13 -5.14845e-14 0 0 -5.26083e-14 -6.75268e-14 -8.2957e-14 -3.27616e-14 0 0 -4.25003e-14 -2.34015e-14 -1.06229e-13 8.14516e-15 0 0 -2.19135e-14 -4.34532e-14 -7.49037e-14 4.17992e-15 0 0 1.52631e-14 -7.93988e-14 -1.54523e-14 -5.0669e-14 0 0 4.65962e-15 -3.31934e-14 -1.13319e-14 -1.1315e-14 0 0 -9.10691e-15 -5.84416e-15 -3.15846e-14 9.4294e-15 0 0 -4.57331e-15 -3.28253e-14 -3.81837e-15 -3.98521e-14 0 0 -1.27403e-14 -7.2191e-16 7.2924e-15 -5.86016e-14 0 0 -7.12805e-15 1.39571e-14 4.78282e-14 -6.7862e-14 0 0 -2.29935e-14 7.71323e-15 5.29564e-14 -8.76447e-14 0 0 -2.0964e-14 2.57962e-14 8.76931e-14 -1.02122e-13 0 0 -1.48375e-14 2.54506e-14 1.20695e-13 -1.09569e-13 0 0 1.5252e-14 1.02139e-14 7.83324e-14 -1.33031e-13 0 0 7.38416e-14 -4.52944e-14 1.42719e-13 -1.46624e-13 0 0 9.21635e-14 -7.23148e-14 1.63687e-13 -1.74944e-13 0 0 9.17209e-14 -9.1059e-14 1.40669e-13 -1.08404e-13 0 0 6.16764e-14 -5.11682e-14 1.33874e-13 -2.313e-14 0 0 4.28923e-14 -2.29156e-14 1.17654e-13 -3.32441e-14 0 0 2.89303e-14 1.04254e-14 7.41757e-14 -1.11726e-14 0 0 -5.82953e-15 6.51513e-14 -1.45091e-14 6.90478e-14 0 0 -2.28318e-14 9.54692e-14 -8.63558e-14 3.72618e-14 0 0 2.58423e-14 2.69727e-14 -3.22657e-16 -1.42028e-13 0 0 1.3027e-13 -1.426e-13 1.24101e-13 -1.31128e-13 0 0 1.37572e-13 -1.43621e-13 1.18373e-13 -3.18327e-14 0 0 8.31509e-14 1.11086e-14 7.95299e-15 -4.20638e-16 0 0 3.97805e-14 1.18932e-13 -6.48783e-14 4.23958e-14 0 0 2.80321e-14 7.03035e-14 1.93992e-14 3.00164e-14 0 0 3.34741e-14 6.45888e-14 1.15106e-14 2.21191e-14 0 0 1.19512e-14 1.06743e-13 -3.96855e-14 5.46812e-14 0 0 5.59681e-14 4.01482e-14 2.3702e-14 1.05893e-13 0 0 1.32051e-13 -2.60562e-14 6.23549e-14 8.28996e-14 0 0 1.55134e-13 -8.26577e-15 -5.45267e-14 1.27212e-13 0 0 1.40961e-13 3.0021e-14 -1.04066e-13 1.672e-13 0 0 1.34738e-13 -3.19843e-14 -6.88471e-15 -1.34895e-15 0 0 1.26426e-13 -6.38482e-14 3.88046e-14 -5.93017e-14 0 0 5.37831e-14 7.59777e-14 -5.85047e-14 -9.13079e-14 0 0 1.49839e-14 1.06364e-13 -3.15281e-14 -7.75623e-14 0 0 3.96567e-14 4.34442e-14 6.66824e-14 -1.7551e-15 0 0 5.96913e-14 5.05134e-14 9.71321e-14 -6.86514e-15 0 0 7.3902e-14 1.13797e-13 1.32738e-13 3.25862e-14 0 0 8.57729e-14 1.66985e-13 1.30242e-13 2.45588e-14 0 0 1.36307e-13 1.46191e-13 1.21039e-13 4.11439e-14 0 0 1.47608e-13 1.45616e-13 1.28135e-13 9.14981e-14 0 0 1.37959e-13 1.59078e-13 1.51283e-13 6.749e-14 0 0 1.41643e-13 1.87745e-13 1.24297e-13 8.27043e-14 0 0 1.31488e-13 2.12998e-13 1.33351e-13 9.7014e-14 0 0 1.42362e-13 1.98959e-13 1.43691e-13 9.96232e-14 0 0 1.51729e-13 1.91652e-13 1.62137e-13 1.01787e-13 0 0 1.54424e-13 1.91075e-13 1.80373e-13 1.17193e-13 0 0 1.48418e-13 2.07355e-13 1.77329e-13 9.10165e-14 0 0 1.45003e-13 2.04234e-13 2.02274e-13 7.18855e-14 0 0 1.38629e-13 2.03712e-13 2.07829e-13 1.09208e-13 0 0 1.44941e-13 2.14747e-13 1.88642e-13 1.29351e-13 0 0 1.40391e-13 2.13078e-13 1.90098e-13 1.42049e-13 0 0 1.27089e-13 2.21672e-13 1.73919e-13 1.43274e-13 0 0 1.32924e-13 2.04425e-13 1.85902e-13 1.43939e-13 0 0 1.37349e-13 1.9905e-13 2.10958e-13 9.01604e-14 0 0 1.32115e-13 2.17896e-13 1.63717e-13 5.73397e-14 0 0 1.23361e-13 2.12153e-13 1.51219e-13 7.18924e-14 0 0 1.2444e-13 1.79991e-13 1.83782e-13 4.34558e-14 0 0 1.15352e-13 1.9368e-13 1.66809e-13 2.89596e-14 0 0 1.25749e-13 2.00829e-13 1.29133e-13 3.61594e-14 0 0 1.48763e-13 1.44387e-13 1.69809e-13 -6.49085e-15 0 0 1.54382e-13 1.19227e-13 1.40107e-13 -7.28197e-15 0 0 1.37534e-13 1.2504e-13 1.07813e-13 -1.8279e-14 0 0 1.23592e-13 8.52032e-14 1.56966e-13 -7.81613e-14 0 0 1.14718e-13 5.45831e-14 1.33655e-13 -7.07766e-14 0 0 1.2221e-13 2.16784e-14 1.21551e-13 -2.16296e-14 0 0 1.0875e-13 3.44955e-14 9.92115e-14 4.50036e-14 0 0 8.3618e-14 6.2656e-14 9.13285e-14 3.36393e-14 0 0 6.42242e-14 4.97201e-14 1.19924e-13 -1.53609e-14 0 0 4.56705e-14 6.67312e-14 1.10951e-13 -3.67018e-14 0 0 8.3758e-14 3.94418e-14 9.79808e-14 -3.29417e-14 0 0 8.79026e-14 1.71349e-14 7.326e-14 7.09688e-15 0 0 4.89866e-14 8.60732e-14 -1.05655e-14 4.28654e-14 0 0 5.64099e-14 9.66344e-14 -3.97481e-14 5.83913e-14 0 0 7.7327e-14 5.4843e-14 -1.47825e-14 6.21338e-14 0
				</DataArray>
				<DataArray Name="VitesseY" type="Float32" format="ascii">