<?xml version="1.0"?>
<VTKFile type="PolyData">
	<PolyData>
		<Piece NumberOfPoints="1206" NumberOfPolys="1000">
			<Points>
				<DataArray type="Float32" NumberOfComponents="3" format="ascii">
 0 0 0 0.02 0 0 0.04 0 0 0.06 0 0 0.08 0 0 0.1 0 0 0 0.005 0 0.02 0.005 0 0.04 0.005 0 0.06 0.005 0 0.08 0.005 0 0.1 0.005 0 0 0.01 0 0.02 0.01 0 0.04 0.01 0 0.06 0.01 0 0.08 0.01 0 0.1 0.01 0 0 0.015 0 0.02 0.015 0 0.04 0.015 0 0.06 0.015 0 0.08 0.015 0 0.1 0.015 0 0 0.02 0 0.02 0.02 0 0.04 0.02 0 0.06 0.02 0 0.08 0.02 0 0.1 0.02 0 0 0.025 0 0.02 0.025 0 0.04 0.025 0 0.06 0.025 0 0.08 0.025 0 0.1 0.025 0 0 0.03 0 0.02 0.03 0 0.04 0.03 0 0.06 0.03 0 0.08 0.03 0 0.1 0.03 0 0 0.035 0 0.02 0.035 0 0.04 0.035 0 0.06 0.035 0 0.08 0.035 0 0.1 0.035 0 0 0.04 0 0.02 0.04 0 0.04 0.04 0 0.06 0.04 0 0.08 0.04 0 0.1 0.04 0 0 0.045 0 0.02 0.045 0 0.04 0.045 0 0.06 0.045 0 0.08 0.045 0 0.1 0.045 0 0 0.05 0 0.02 0.05 0 0.04 0.05 0 0.06 0.05 0 0.08 0.05 0 0.1 0.05 0 0 0.055 0 0.02 0.055 0 0.04 0.055 0 0.06 0.055 0 0.08 0.055 0 0.1 0.055 0 0 0.06 0 0.02 0.06 0 0.04 0.06 0 0.06 0.06 0 0.08 0.06 0 0.1 0.06 0 0 0.065 0 0.02 0.065 0 0.04 0.065 0 0.06 0.065 0 0.08 0.065 0 0.1 0.065 0 0 0.07 0 0.02 0.07 0 0.04 0.07 0 0.06 0.07 0 0.08 0.07 0 0.1 0.07 0 0 0.075 0 0.02 0.075 0 0.04 0.075 0 0.06 0.075 0 0.08 0.075 0 0.1 0.075 0 0 0.08 0 0.02 0.08 0 0.04 0.08 0 0.06 0.08 0 0.08 0.08 0 0.1 0.08 0 0 0.085 0 0.02 0.085 0 0.04 0.085 0 0.06 0.085 0 0.08 0.085 0 0.1 0.085 0 0 0.09 0 0.02 0.09 0 0.04 0.09 0 0.06 0.09 0 0.08 0.09 0 0.1 0.09 0 0 0.095 0 0.02 0.095 0 0.04 0.095 0 0.06 0.095 0 0.08 0.095 0 0.1 0.095 0 0 0.1 0 0.02 0.1 0 0.04 0.1 0 0.06 0.1 0 0.08 0.1 0 0.1 0.1 0 0 0.105 0 0.02 0.105 0 0.04 0.105 0 0.06 0.105 0 0.08 0.105 0 0.1 0.105 0 0 0.11 0 0.02 0.11 0 0.04 0.11 0 0.06 0.11 0 0.08 0.11 0 0.1 0.11 0 0 0.115 0 0.02 0.115 0 0.04 0.115 0 0.06 0.115 0 0.08 0.115 0 0.1 0.115 0 0 0.12 0 0.02 0.12 0 0.04 0.12 0 0.06 0.12 0 0.08 0.12 0 0.1 0.12 0 0 0.125 0 0.02 0.125 0 0.04 0.125 0 0.06 0.125 0 0.08 0.125 0 0.1 0.125 0 0 0.13 0 0.02 0.13 0 0.04 0.13 0 0.06 0.13 0 0.08 0.13 0 0.1 0.13 0 0 0.135 0 0.02 0.135 0 0.04 0.135 0 0.06 0.135 0 0.08 0.135 0 0.1 0.135 0 0 0.14 0 0.02 0.14 0 0.04 0.14 0 0.06 0.14 0 0.08 0.14 0 0.1 0.14 0 0 0.145 0 0.02 0.145 0 0.04 0.145 0 0.06 0.145 0 0.08 0.145 0 0.1 0.145 0 0 0.15 0 0.02 0.15 0 0.04 0.15 0 0.06 0.15 0 0.08 0.15 0 0.1 0.15 0 0 0.155 0 0.02 0.155 0 0.04 0.155 0 0.06 0.155 0 0.08 0.155 0 0.1 0.155 0 0 0.16 0 0.02 0.16 0 0.04 0.16 0 0.06 0.16 0 0.08 0.16 0 0.1 0.16 0 0 0.165 0 0.02 0.165 0 0.04 0.165 0 0.06 0.165 0 0.08 0.165 0 0.1 0.165 0 0 0.17 0 0.02 0.17 0 0.04 0.17 0 0.06 0.17 0 0.08 0.17 0 0.1 0.17 0 0 0.175 0 0.02 0.175 0 0.04 0.175 0 0.06 0.175 0 0.08 0.175 0 0.1 0.175 0 0 0.18 0 0.02 0.18 0 0.04 0.18 0 0.06 0.18 0 0.08 0.18 0 0.1 0.18 0 0 0.185 0 0.02 0.185 0 0.04 0.185 0 0.06 0.185 0 0.08 0.185 0 0.1 0.185 0 0 0.19 0 0.02 0.19 0 0.04 0.19 0 0.06 0.19 0 0.08 0.19 0 0.1 0.19 0 0 0.195 0 0.02 0.195 0 0.04 0.195 0 0.06 0.195 0 0.08 0.195 0 0.1 0.195 0 0 0.2 0 0.02 0.2 0 0.04 0.2 0 0.06 0.2 0 0.08 0.2 0 0.1 0.2 0 0 0.205 0 0.02 0.205 0 0.04 0.205 0 0.06 0.205 0 0.08 0.205 0 0.1 0.205 0 0 0.21 0 0.02 0.21 0 0.04 0.21 0 0.06 0.21 0 0.08 0.21 0 0.1 0.21 0 0 0.215 0 0.02 0.215 0 0.04 0.215 0 0.06 0.215 0 0.08 0.215 0 0.1 0.215 0 0 0.22 0 0.02 0.22 0 0.04 0.22 0 0.06 0.22 0 0.08 0.22 0 0.1 0.22 0 0 0.225 0 0.02 0.225 0 0.04 0.225 0 0.06 0.225 0 0.08 0.225 0 0.1 0.225 0 0 0.23 0 0.02 0.23 0 0.04 0.23 0 0.06 0.23 0 0.08 0.23 0 0.1 0.23 0 0 0.235 0 0.02 0.235 0 0.04 0.235 0 0.06 0.235 0 0.08 0.235 0 0.1 0.235 0 0 0.240001 0 0.02 0.240001 0 0.04 0.240001 0 0.06 0.240001 0 0.08 0.240001 0 0.1 0.240001 0 0 0.245004 0 0.02 0.245004 0 0.04 0.245004 0 0.06 0.245004 0 0.08 0.245004 0 0.1 0.245004 0 0 0.250011 0 0.02 0.250011 0 0.04 0.250011 0 0.06 0.250011 0 0.08 0.250011 0 0.1 0.250011 0 0 0.255026 0 0.02 0.255026 0 0.04 0.255026 0 0.06 0.255026 0 0.08 0.255026 0 0.1 0.255026 0 0 0.260058 0 0.02 0.260058 0 0.04 0.260058 0 0.06 0.260058 0 0.08 0.260058 0 0.1 0.260058 0 0 0.265118 0 0.02 0.265118 0 0.04 0.265118 0 0.06 0.265118 0 0.08 0.265118 0 0.1 0.265118 0 0 0.270219 0 0.02 0.270219 0 0.04 0.270219 0 0.06 0.270219 0 0.08 0.270219 0 0.1 0.270219 0 0 0.275378 0 0.02 0.275378 0 0.04 0.275378 0 0.06 0.275378 0 0.08 0.275378 0 0.1 0.275378 0 0 0.280607 0 0.02 0.280607 0 0.04 0.280607 0 0.06 0.280607 0 0.08 0.280607 0 0.1 0.280607 0 0 0.285918 0 0.02 0.285918 0 0.04 0.285918 0 0.06 0.285918 0 0.08 0.285918 0 0.1 0.285918 0 0 0.291321 0 0.02 0.291321 0 0.04 0.291321 0 0.06 0.291321 0 0.08 0.291321 0 0.1 0.291321 0 0 0.296822 0 0.02 0.296822 0 0.04 0.296822 0 0.06 0.296822 0 0.08 0.296822 0 0.1 0.296822 0 0 0.302429 0 0.02 0.302429 0 0.04 0.302429 0 0.06 0.302429 0 0.08 0.302429 0 0.1 0.302429 0 0 0.308148 0 0.02 0.308148 0 0.04 0.308148 0 0.06 0.308148 0 0.08 0.308148 0 0.1 0.308148 0 0 0.313985 0 0.02 0.313985 0 0.04 0.313985 0 0.06 0.313985 0 0.08 0.313985 0 0.1 0.313985 0 0 0.319946 0 0.02 0.319946 0 0.04 0.319946 0 0.06 0.319946 0 0.08 0.319946 0 0.1 0.319946 0 0 0.326039 0 0.02 0.326039 0 0.04 0.326039 0 0.06 0.326039 0 0.08 0.326039 0 0.1 0.326039 0 0 0.332269 0 0.02 0.332269 0 0.04 0.332269 0 0.06 0.332269 0 0.08 0.332269 0 0.1 0.332269 0 0 0.338646 0 0.02 0.338646 0 0.04 0.338646 0 0.06 0.338646 0 0.08 0.338646 0 0.1 0.338646 0 0 0.345176 0 0.02 0.345176 0 0.04 0.345176 0 0.06 0.345176 0 0.08 0.345176 0 0.1 0.345176 0 0 0.351869 0 0.02 0.351869 0 0.04 0.351869 0 0.06 0.351869 0 0.08 0.351869 0 0.1 0.351869 0 0 0.358734 0 0.02 0.358734 0 0.04 0.358734 0 0.06 0.358734 0 0.08 0.358734 0 0.1 0.358734 0 0 0.36578 0 0.02 0.36578 0 0.04 0.36578 0 0.06 0.36578 0 0.08 0.36578 0 0.1 0.36578 0 0 0.373021 0 0.02 0.373021 0 0.04 0.373021 0 0.06 0.373021 0 0.08 0.373021 0 0.1 0.373021 0 0 0.380466 0 0.02 0.380466 0 0.04 0.380466 0 0.06 0.380466 0 0.08 0.380466 0 0.1 0.380466 0 0 0.38813 0 0.02 0.38813 0 0.04 0.38813 0 0.06 0.38813 0 0.08 0.38813 0 0.1 0.38813 0 0 0.396027 0 0.02 0.396027 0 0.04 0.396027 0 0.06 0.396027 0 0.08 0.396027 0 0.1 0.396027 0 0 0.404173 0 0.02 0.404173 0 0.04 0.404173 0 0.06 0.404173 0 0.08 0.404173 0 0.1 0.404173 0 0 0.412586 0 0.02 0.412586 0 0.04 0.412586 0 0.06 0.412586 0 0.08 0.412586 0 0.1 0.412586 0 0 0.421284 0 0.02 0.421284 0 0.04 0.421284 0 0.06 0.421284 0 0.08 0.421284 0 0.1 0.421284 0 0 0.43029 0 0.02 0.43029 0 0.04 0.43029 0 0.06 0.43029 0 0.08 0.43029 0 0.1 0.43029 0 0 0.439627 0 0.02 0.439627 0 0.04 0.439627 0 0.06 0.439627 0 0.08 0.439627 0 0.1 0.439627 0 0 0.44932 0 0.02 0.44932 0 0.04 0.44932 0 0.06 0.44932 0 0.08 0.44932 0 0.1 0.44932 0 0 0.459396 0 0.02 0.459396 0 0.04 0.459396 0 0.06 0.459396 0 0.08 0.459396 0 0.1 0.459396 0 0 0.469884 0 0.02 0.469884 0 0.04 0.469884 0 0.06 0.469884 0 0.08 0.469884 0 0.1 0.469884 0 0 0.480808 0 0.02 0.480808 0 0.04 0.480808 0 0.06 0.480808 0 0.08 0.480808 0 0.1 0.480808 0 0 0.492181 0 0.02 0.492181 0 0.04 0.492181 0 0.06 0.492181 0 0.08 0.492181 0 0.1 0.492181 0 0 0.503979 0 0.02 0.503979 0 0.04 0.503979 0 0.06 0.503979 0 0.08 0.503979 0 0.1 0.503979 0 0 0.516071 0 0.02 0.516071 0 0.04 0.516071 0 0.06 0.516071 0 0.08 0.516071 0 0.1 0.516071 0 0 0.528176 0 0.02 0.528176 0 0.04 0.528176 0 0.06 0.528176 0 0.08 0.528176 0 0.1 0.528176 0 0 0.540197 0 0.02 0.540197 0 0.04 0.540197 0 0.06 0.540197 0 0.08 0.540197 0 0.1 0.540197 0 0 0.552128 0 0.02 0.552128 0 0.04 0.552128 0 0.06 0.552128 0 0.08 0.552128 0 0.1 0.552128 0 0 0.563981 0 0.02 0.563981 0 0.04 0.563981 0 0.06 0.563981 0 0.08 0.563981 0 0.1 0.563981 0 0 0.575777 0 0.02 0.575777 0 0.04 0.575777 0 0.06 0.575777 0 0.08 0.575777 0 0.1 0.575777 0 0 0.587538 0 0.02 0.587538 0 0.04 0.587538 0 0.06 0.587538 0 0.08 0.587538 0 0.1 0.587538 0 0 0.59928 0 0.02 0.59928 0 0.04 0.59928 0 0.06 0.59928 0 0.08 0.59928 0 0.1 0.59928 0 0 0.611013 0 0.02 0.611013 0 0.04 0.611013 0 0.06 0.611013 0 0.08 0.611013 0 0.1 0.611013 0 0 0.622742 0 0.02 0.622742 0 0.04 0.622742 0 0.06 0.622742 0 0.08 0.622742 0 0.1 0.622742 0 0 0.634469 0 0.02 0.634469 0 0.04 0.634469 0 0.06 0.634469 0 0.08 0.634469 0 0.1 0.634469 0 0 0.646197 0 0.02 0.646197 0 0.04 0.646197 0 0.06 0.646197 0 0.08 0.646197 0 0.1 0.646197 0 0 0.657924 0 0.02 0.657924 0 0.04 0.657924 0 0.06 0.657924 0 0.08 0.657924 0 0.1 0.657924 0 0 0.669653 0 0.02 0.669653 0 0.04 0.669653 0 0.06 0.669653 0 0.08 0.669653 0 0.1 0.669653 0 0 0.681396 0 0.02 0.681396 0 0.04 0.681396 0 0.06 0.681396 0 0.08 0.681396 0 0.1 0.681396 0 0 0.684005 0 0.02 0.684005 0 0.04 0.684005 0 0.06 0.684005 0 0.08 0.684005 0 0.1 0.684005 0 0 0.686541 0 0.02 0.686541 0 0.04 0.686541 0 0.06 0.686541 0 0.08 0.686541 0 0.1 0.686541 0 0 0.689031 0 0.02 0.689031 0 0.04 0.689031 0 0.06 0.689031 0 0.08 0.689031 0 0.1 0.689031 0 0 0.691491 0 0.02 0.691491 0 0.04 0.691491 0 0.06 0.691491 0 0.08 0.691491 0 0.1 0.691491 0 0 0.69393 0 0.02 0.69393 0 0.04 0.69393 0 0.06 0.69393 0 0.08 0.69393 0 0.1 0.69393 0 0 0.696353 0 0.02 0.696353 0 0.04 0.696353 0 0.06 0.696353 0 0.08 0.696353 0 0.1 0.696353 0 0 0.698767 0 0.02 0.698767 0 0.04 0.698767 0 0.06 0.698767 0 0.08 0.698767 0 0.1 0.698767 0 0 0.70118 0 0.02 0.70118 0 0.04 0.70118 0 0.06 0.70118 0 0.08 0.70118 0 0.1 0.70118 0 0 0.703593 0 0.02 0.703593 0 0.04 0.703593 0 0.06 0.703593 0 0.08 0.703593 0 0.1 0.703593 0 0 0.705991 0 0.02 0.705991 0 0.04 0.705991 0 0.06 0.705991 0 0.08 0.705991 0 0.1 0.705991 0 0 0.708377 0 0.02 0.708377 0 0.04 0.708377 0 0.06 0.708377 0 0.08 0.708377 0 0.1 0.708377 0 0 0.710758 0 0.02 0.710758 0 0.04 0.710758 0 0.06 0.710758 0 0.08 0.710758 0 0.1 0.710758 0 0 0.713135 0 0.02 0.713135 0 0.04 0.713135 0 0.06 0.713135 0 0.08 0.713135 0 0.1 0.713135 0 0 0.715511 0 0.02 0.715511 0 0.04 0.715511 0 0.06 0.715511 0 0.08 0.715511 0 0.1 0.715511 0 0 0.717883 0 0.02 0.717883 0 0.04 0.717883 0 0.06 0.717883 0 0.08 0.717883 0 0.1 0.717883 0 0 0.720252 0 0.02 0.720252 0 0.04 0.720252 0 0.06 0.720252 0 0.08 0.720252 0 0.1 0.720252 0 0 0.722621 0 0.02 0.722621 0 0.04 0.722621 0 0.06 0.722621 0 0.08 0.722621 0 0.1 0.722621 0 0 0.724988 0 0.02 0.724988 0 
[...]
			<PointData Scalars="VitesseX">
				<DataArray Name="VitesseX" type="Float32" format="ascii">
 0 -1.13265e-15 4.9553e-15 -9.08173e-16 -1.71863e-15 0 0 -1.4668e-15 4.21136e-15 6.42212e-16 -2.35199e-15 0 0 -1.70827e-15 1.95691e-15 3.5356e-15 -2.48618e-15 0 0 -1.47457e-15 -4.4572e-16 4.12318e-15 2.3852e-16 0 0 -1.06977e-15 -6.61482e-16 1.63424e-15 4.62629e-15 0 0 5.03395e-16 -1.07642e-15 6.69583e-16 6.45147e-15 0 0 2.11869e-15 -1.49057e-15 7.12896e-16 6.76542e-15 0 0 2.23562e-15 -1.00406e-15 1.21111e-15 4.63549e-15 0 0 8.47122e-16 8.45708e-16 1.32597e-15 9.24584e-16 0 0 -1.46873e-15 4.24225e-15 -2.83958e-15 2.64213e-15 0 0 -3.48202e-15 6.47292e-15 -5.48659e-15 3.46104e-15 0 0 -1.78229e-15 2.76557e-15 -3.26724e-16 -8.0742e-16 0 0 -1.76249e-16 -3.91633e-15 5.52686e-15 -3.97753e-15 0 0 1.48209e-15 -7.03111e-15 4.30838e-15 -1.10702e-15 0 0 1.5851e-15 -6.97554e-15 5.65204e-15 -2.71936e-15 0 0 -2.4811e-15 -5.19976e-15 8.05131e-15 -8.8609e-15 0 0 -4.72807e-15 -4.61749e-15 4.7721e-15 -7.19124e-15 0 0 -7.64073e-15 6.93839e-16 -6.32988e-15 4.00965e-15 0 0 -8.06555e-15 2.88541e-15 -1.08383e-14 8.16565e-15 0 0 -6.78717e-15 -1.19523e-15 -5.10258e-15 -2.95549e-15 0 0 -7.99327e-15 -1.42118e-15 -2.66869e-15 -1.28945e-14 0 0 -2.09315e-15 -9.46181e-15 4.29232e-15 -1.93767e-14 0 0 -2.87411e-15 -6.20543e-15 -9.76991e-16 -1.68934e-14 0 0 -5.63626e-15 -1.5359e-15 -8.05502e-15 -1.03395e-14 0 0 -6.02564e-15 -3.24328e-15 -6.36148e-15 -7.71571e-15 0 0 -4.04032e-15 -9.29095e-15 1.43191e-15 -8.30735e-15 0 0 -3.73596e-16 -1.93302e-14 1.50879e-14 -6.97137e-15 0 0 -1.98585e-15 -1.19584e-14 1.19976e-14 5.72212e-15 0 0 5.52772e-15 -9.69956e-15 5.80249e-15 1.42166e-14 0 0 6.16499e-15 -3.84898e-15 4.05863e-15 1.30592e-14 0 0 3.79269e-15 1.45963e-15 4.83486e-15 1.57515e-14 0 0 8.30445e-15 -3.89321e-15 2.01465e-14 7.27666e-15 0 0 9.76284e-15 4.16771e-16 2.13464e-14 1.25405e-14 0 0 3.92017e-15 1.58096e-14 1.58392e-14 9.23561e-15 0 0 -1.33116e-15 1.60505e-14 3.76871e-14 -1.59651e-14 0 0 5.3144e-15 -2.3618e-15 3.99748e-14 -1.25642e-14 0 0 1.67156e-14 -6.36385e-15 1.49089e-14 -2.14034e-14 0 0 1.067e-14 1.04249e-14 1.5667e-15 -4.86697e-14 0 0 3.0957e-15 1.30334e-14 -5.84991e-15 -4.72216e-14 0 0 -1.06749e-15 -5.17355e-15 -4.78993e-15 -3.61573e-14 0 0 -1.02567e-14 -2.70434e-14 7.85156e-15 -3.18608e-14 0 0 -1.7873e-14 -2.78312e-14 -5.55924e-15 -1.80715e-14 0 0 -1.71028e-14 -2.82768e-14 -2.88519e-14 -3.42927e-15 0 0 -2.42072e-14 -3.67316e-14 -3.07712e-14 -2.40658e-15 0 0 -3.66809e-14 -2.00006e-14 -3.31086e-14 1.1621e-14 0 0 -2.64875e-14 -3.92663e-14 -1.17002e-14 4.94726e-15 0 0 5.01786e-15 -7.1749e-14 1.27239e-14 -2.32856e-14 0 0 1.79547e-14 -5.69337e-14 2.09705e-14 -5.01652e-14 0 0 1.32635e-14 -3.11226e-14 4.98911e-14 -8.15627e-14 0 0 3.21948e-14 -2.23545e-14 4.96395e-14 -6.36014e-14 0 0 1.83001e-14 -2.25747e-15 9.71625e-15 -2.57351e-14 0 0 -8.48615e-15 5.01226e-15 1.33603e-14 -3.45725e-14 0 0 5.12757e-15 -1.38912e-14 1.92956e-14 -2.18423e-14 0 0 4.4831e-14 -1.82175e-14 -1.40507e-14 1.86636e-14 0 0 3.69421e-14 1.12494e-14 -3.15001e-14 1.31932e-14 0 0 -4.42687e-15 1.04415e-14 -4.81174e-15 6.36285e-15 0 0 4.07781e-15 -1.44504e-14 4.1636e-15 1.35927e-14 0 0 2.8349e-14 -1.75925e-14 -4.78134e-15 9.02419e-15 0 0 1.09256e-14 4.60895e-15 -1.77719e-14 1.22505e-14 0 0 1.10486e-14 1.11248e-14 -2.42892e-14 2.63422e-14 0 0 6.22508e-15 1.42766e-14 1.13286e-14 6.82949e-15 0 0 8.73669e-15 2.27552e-14 3.45025e-14 -1.06298e-14 0 0 3.55326e-14 3.70191e-14 -8.27234e-15 -1.63925e-15 0 0 3.23753e-14 3.07761e-14 -1.41609e-14 -2.01809e-14 0 0 1.49015e-14 -4.14031e-15 2.40996e-14 -3.38591e-14 0 0 -9.27708e-15 1.00751e-14 1.37992e-14 -1.27352e-14 0 0 -3.39086e-15 1.07172e-14 3.20661e-15 1.8563e-14 0 0 1.89183e-14 -6.58391e-15 9.3165e-15 2.09914e-14 0 0 1.27723e-14 -3.78893e-16 1.6722e-14 1.59174e-15 0 0 8.50355e-15 1.86428e-14 1.69113e-14 -1.06692e-14 0 0 1.53272e-15 2.5496e-14 4.77696e-15 -2.28601e-14 0 0 3.17777e-14 -7.82217e-15 9.16065e-15 -1.46505e-14 0 0 2.84919e-14 -6.76506e-15 3.33701e-15 6.71697e-15 0 0 -2.88464e-14 2.88419e-14 -6.99197e-15 2.48402e-14 0 0 -3.67036e-14 3.86271e-14 1.55407e-14 3.09894e-15 0 0 -2.15797e-14 1.4286e-14 3.51646e-14 -5.08829e-14 0 0 -1.29951e-14 -6.13441e-15 2.71492e-14 -3.27799e-14 0 0 -1.45868e-14 -6.89083e-15 2.54088e-14 1.80553e-14 0 0 -1.46484e-14 1.23414e-14 1.53869e-14 3.38554e-14 0 0 -4.94767e-15 2.05109e-14 2.70436e-14 5.77794e-15 0 0 2.00182e-14 -1.0495e-16 4.64553e-14 -2.9721e-14 0 0 3.89428e-14 1.45243e-14 1.40732e-14 -6.27053e-15 0 0 2.55586e-14 1.34415e-14 1.65052e-14 -2.43218e-15 0 0 -1.11325e-14 2.6691e-14 2.26392e-14 7.0141e-15 0 0 -7.2602e-15 1.59326e-14 2.23224e-14 1.5403e-14 0 0 2.99418e-14 4.20147e-15 2.93491e-14 1.11695e-14 0 0 2.97195e-14 1.06427e-14 2.3633e-14 5.26395e-15 0 0 -9.63048e-15 -2.75526e-14 3.68573e-15 -3.65755e-14 0 0 -5.142e-14 -7.74967e-14 -6.17392e-14 -6.31976e-14 0 0 -9.72647e-14 -1.39119e-13 -1.57641e-13 -8.78576e-14 0 0 -1.39293e-13 -2.16984e-13 -2.28688e-13 -1.27795e-13 0 0 -1.64709e-13 -2.80225e-13 -2.55103e-13 -1.75598e-13 0 0 -1.65527e-13 -2.61016e-13 -2.788e-13 -1.67024e-13 0 0 -1.27666e-13 -2.16785e-13 -2.22409e-13 -1.34425e-13 0 0 -7.81882e-14 -1.34811e-13 -1.296e-13 -8.57936e-14 0 0 -1.57233e-14 -2.5705e-14 -4.22977e-14 -1.19347e-14 0 0 3.52678e-14 7.17514e-14 5.6774e-14 6.38758e-14 0 0 7.8621e-14 1.45457e-13 1.50238e-13 1.00935e-13 0 0 9.97051e-14 1.72508e-13 1.87479e-13 9.31355e-14 0 0 5.99013e-14 9.6998e-14 1.06696e-13 3.59719e-14 0 0 1.66895e-14 -1.21348e-14 -1.67514e-15 -2.53749e-15 0 0 -1.00625e-13 -1.90153e-13 -1.95441e-13 -7.98428e-14 0 0 -1.14819e-13 -2.12495e-13 -1.92545e-13 -9.68885e-14 0 0 -1.28093e-13 -2.60097e-13 -2.47226e-13 -9.75382e-14 0 0 -1.36846e-13 -3.26797e-13 -3.42166e-13 -1.51312e-13 0 0 -1.97643e-13 -4.0208e-13 -3.78258e-13 -2.22904e-13 0 0 -2.43462e-13 -4.03045e-13 -4.12222e-13 -1.94994e-13 0 0 -6.74443e-14 -1.42408e-13 -1.38072e-13 -4.48748e-14 0 0 4.22618e-13 6.70822e-13 6.05599e-13 4.25076e-13 0 0 1.03243e-12 1.64589e-12 1.5901e-12 1.00673e-12 0 0 1.54768e-12 2.49376e-12 2.47554e-12 1.53102e-12 0 0 1.8943e-12 3.07828e-12 3.0445e-12 1.83836e-12 0 0 2.03676e-12 3.26259e-12 3.25456e-12 1.93245e-12 0 0 2.00818e-12 3.22255e-12 3.2312e-12 1.93383e-12 0 0 1.90333e-12 3.07458e-12 3.05611e-12 1.88924e-12 0 0 1.79228e-12 2.85992e-12 2.8263e-12 1.77004e-12 0 0 1.67055e-12 2.65638e-12 2.63318e-12 1.59389e-12 0 0 1.53876e-12 2.44495e-12 2.37527e-12 1.47274e-12 0 0 1.40554e-12 2.21934e-12 2.21555e-12 1.34873e-12 0 0 1.28312e-12 2.04947e-12 2.04829e-12 1.26574e-12 0 0 1.19829e-12 1.89153e-12 1.88357e-12 1.17502e-12 0 0 1.12169e-12 1.76227e-12 1.77847e-12 1.04797e-12 0 0 1.0244e-12 1.66169e-12 1.6508e-12 1.00138e-12 0 0 9.31832e-13 1.57249e-12 1.56405e-12 9.36613e-13 0 0 8.77484e-13 1.44659e-12 1.45829e-12 8.85017e-13 0 0 8.15049e-13 1.29297e-12 1.3556e-12 8.67377e-13 0 0 7.58672e-13 1.2182e-12 1.31029e-12 7.69923e-13 0 0 7.07678e-13 1.17776e-12 1.20483e-12 7.03435e-13 0 0 6.77609e-13 1.1093e-12 1.10457e-12 6.62034e-13 0 0 6.70733e-13 1.00953e-12 1.06605e-12 6.22397e-13 0 0 6.28306e-13 9.5385e-13 9.835e-13 5.43228e-13 0 0 5.76413e-13 9.41187e-13 8.98783e-13 4.56989e-13 0 0 5.43791e-13 8.76791e-13 8.67308e-13 4.42891e-13 0 0 5.15341e-13 8.00777e-13 8.312e-13 4.43701e-13 0 0 4.61342e-13 7.83432e-13 7.44864e-13 4.82718e-13 0 0 4.27176e-13 7.58897e-13 6.91446e-13 4.72142e-13 0 0 4.13764e-13 6.98152e-13 6.76316e-13 3.85274e-13 0 0 4.02218e-13 6.59095e-13 6.37845e-13 3.87895e-13 0 0 3.80478e-13 6.17644e-13 5.96113e-13 4.25897e-13 0 0 3.38155e-13 5.64852e-13 5.5382e-13 3.64168e-13 0 0 2.81113e-13 5.39933e-13 5.1692e-13 3.31546e-13 0 0 2.62194e-13 5.01287e-13 4.70719e-13 3.70605e-13 0 0 2.41812e-13 4.83938e-13 4.04832e-13 3.98001e-13 0 0 2.33074e-13 4.13879e-13 3.66204e-13 3.62441e-13 0 0 2.28732e-13 3.23777e-13 3.25802e-13 2.97135e-13 0 0 1.87277e-13 2.68192e-13 3.25574e-13 2.40786e-13 0 0 1.23683e-13 2.5896e-13 3.24966e-13 1.08271e-13 0 0 8.32021e-14 2.58518e-13 2.46733e-13 8.84136e-14 0 0 5.71689e-14 1.95883e-13 1.33633e-13 1.80913e-13 0 0 2.17081e-14 1.62338e-13 5.06972e-14 1.85807e-13 0 0 -1.00714e-14 9.12371e-14 5.4102e-14 1.17098e-13 0 0 -4.02627e-14 2.01791e-17 2.23014e-14 3.6663e-14 0 0 -3.00298e-14 -8.91946e-14 -2.93614e-14 1.76401e-14 0 0 -9.0434e-14 -1.27663e-13 -7.05202e-14 8.17816e-15 0 0 -1.71261e-13 -1.16483e-13 -2.03655e-13 2.82618e-14 0 0 -1.52615e-13 -2.41023e-13 -2.35288e-13 4.30869e-14 0 0 -1.68162e-13 -3.45424e-13 -2.17511e-13 1.47167e-14 0 0 -2.13311e-13 -3.74434e-13 -2.60449e-13 -2.61445e-14 0 0 -2.7616e-13 -3.64619e-13 -3.32309e-13 -1.02125e-13 0 0 -3.41016e-13 -3.78214e-13 -3.94189e-13 -2.00721e-13 0 0 -3.49126e-13 -4.78427e-13 -4.42588e-13 -2.26293e-13 0 0 -3.60812e-13 -5.62301e-13 -4.82046e-13 -2.50036e-13 0 0 -3.64415e-13 -6.85104e-13 -5.05317e-13 -2.91441e-13 0 0 -3.91009e-13 -7.74983e-13 -6.09079e-13 -3.55374e-13 0 0 -4.79237e-13 -6.95586e-13 -7.19651e-13 -4.78494e-13 0 0 -4.97493e-13 -7.07863e-13 -7.7e-13 -4.75225e-13 0 0 -4.81635e-13 -6.73582e-13 -6.70717e-13 -4.95693e-13 0 0 -4.68876e-13 -6.10884e-13 -6.82134e-13 -4.3799e-13 0 0 -4.04332e-13 -5.3776e-13 -6.10688e-13 -2.62434e-13 0 0 -3.64802e-13 -4.53736e-13 -5.09736e-13 -2.8933e-13 0 0 -2.5575e-13 -3.82708e-13 -4.36363e-13 -2.49724e-13 0 0 -1.65695e-13 -2.92638e-13 -3.14877e-13 -2.04734e-13 0 0 -1.25599e-13 -1.76898e-13 -1.87766e-13 -1.89298e-13 0 0 -7.82493e-14 -1.10827e-13 -1.20656e-13 -1.09512e-13 0 0 -4.12979e-14 -7.41978e-14 -1.26325e-13 -3.10113e-14 0 0 -2.77332e-14 -6.54563e-14 -8.97454e-14 -8.87249e-14 0 0 -3.11804e-14 -5.15396e-14 -8.12467e-14 -7.52435e-14 0 0 -3.41706e-14 -5.42613e-14 -8.62905e-14 -3.59582e-14 0 0 -1.98491e-14 -7.52971e-14 -8.8273e-14 -5.63457e-14 0 0 -1.61877e-14 -8.12524e-14 -9.72904e-14 -4.64861e-14 0 0 -3.75864e-15 -1.15529e-13 -6.59315e-14 -4.44115e-14 0 0 -1.73315e-14 -1.02736e-13 -4.42397e-14 -8.0635e-14 0 0 -5.48687e-14 -6.34401e-14 -9.4614e-14 -7.95489e-14 0 0 -5.60149e-14 -6.45212e-14 -1.06836e-13 -6.44349e-14 0 0 -4.70139e-14 -8.4811e-14 -6.50269e-14 -8.45444e-14 0 0 -6.66241e-14 -7.68029e-14 -4.81373e-14 -1.05086e-13 0 0 -6.1536e-14 -8.50746e-14 -1.73756e-14 -1.36029e-13 0 0 -5.01086e-14 -8.99661e-14 -4.46138e-14 -1.00242e-13 0 0 -5.49245e-14 -7.32938e-14 -5.60348e-14 -6.87091e-14 0 0 -4.98572e-14 -5.99387e-14 -3.91052e-14 -6.52458e-14 0 0 -6.5383e-14 -1.111e-14 -5.98846e-14 -2.94206e-14 0 0 -9.03523e-14 7.95845e-15 -3.30923e-14 -4.40623e-14 0 0 -7.26525e-14 -2.21726e-14 1.73991e-14 -6.93529e-14 0 0 -2.70354e-14 -6.15445e-14 4.36848e-14 -7.0717e-14 0 0 -3.3264e-14 -3.87971e-14 4.2671e-14 -5.48739e-14 0 0 -2.27533e-14 -4.19938e-14 9.35566e-14 -7.61724e-14 0 0 -5.58306e-15 -5.03384e-14 1.12214e-13 -9.49303e-14 0 0 -1.62947e-14 -6.90176e-15 2.23039e-14 -1.33715e-15 0 0 8.5912e-15 -4.47378e-14 -3.96221e-15 1.36064e-14 0 0 -2.27369e-14 -6.39031e-14 -1.65651e-14 -7.18075e-15 0 0 -7.31546e-14 -3.59046e-14 -5.39786e-14 2.31136e-14 0
				</DataArray>
				<DataArray Name="VitesseY" type="Float32" format="ascii">