<?xml version="1.0"?>
<VTKFile type="PolyData">
	<PolyData>
		<Piece NumberOfPoints="1206" NumberOfPolys="1000">
			<Points>
				<DataArray type="Float32" NumberOfComponents="3" format="ascii">
 0 0 0 0.02 0 0 0.04 0 0 0.06 0 0 0.08 0 0 0.1 0 0 0 0.005 0 0.02 0.005 0 0.04 0.005 0 0.06 0.005 0 0.08 0.005 0 0.1 0.005 0 0 0.01 0 0.02 0.01 0 0.04 0.01 0 0.06 0.01 0 0.08 0.01 0 0.1 0.01 0 0 0.015 0 0.02 0.015 0 0.04 0.015 0 0.06 0.015 0 0.08 0.015 0 0.1 0.015 0 0 0.02 0 0.02 0.02 0 0.04 0.02 0 0.06 0.02 0 0.08 0.02 0 0.1 0.02 0 0 0.025 0 0.02 0.025 0 0.04 0.025 0 0.06 0.025 0 0.08 0.025 0 0.1 0.025 0 0 0.03 0 0.02 0.03 0 0.04 0.03 0 0.06 0.03 0 0.08 0.03 0 0.1 0.03 0 0 0.035 0 0.02 0.035 0 0.04 0.035 0 0.06 0.035 0 0.08 0.035 0 0.1 0.035 0 0 0.04 0 0.02 0.04 0 0.04 0.04 0 0.06 0.04 0 0.08 0.04 0 0.1 0.04 0 0 0.045 0 0.02 0.045 0 0.04 0.045 0 0.06 0.045 0 0.08 0.045 0 0.1 0.045 0 0 0.05 0 0.02 0.05 0 0.04 0.05 0 0.06 0.05 0 0.08 0.05 0 0.1 0.05 0 0 0.055 0 0.02 0.055 0 0.04 0.055 0 0.06 0.055 0 0.08 0.055 0 0.1 0.055 0 0 0.06 0 0.02 0.06 0 0.04 0.06 0 0.06 0.06 0 0.08 0.06 0 0.1 0.06 0 0 0.065 0 0.02 0.065 0 0.04 0.065 0 0.06 0.065 0 0.08 0.065 0 0.1 0.065 0 0 0.07 0 0.02 0.07 0 0.04 0.07 0 0.06 0.07 0 0.08 0.07 0 0.1 0.07 0 0 0.075 0 0.02 0.075 0 0.04 0.075 0 0.06 0.075 0 0.08 0.075 0 0.1 0.075 0 0 0.08 0 0.02 0.08 0 0.04 0.08 0 0.06 0.08 0 0.08 0.08 0 0.1 0.08 0 0 0.085 0 0.02 0.085 0 0.04 0.085 0 0.06 0.085 0 0.08 0.085 0 0.1 0.085 0 0 0.09 0 0.02 0.09 0 0.04 0.09 0 0.06 0.09 0 0.08 0.09 0 0.1 0.09 0 0 0.095 0 0.02 0.095 0 0.04 0.095 0 0.06 0.095 0 0.08 0.095 0 0.1 0.095 0 0 0.1 0 0.02 0.1 0 0.04 0.1 0 0.06 0.1 0 0.08 0.1 0 0.1 0.1 0 0 0.105 0 0.02 0.105 0 0.04 0.105 0 0.06 0.105 0 0.08 0.105 0 0.1 0.105 0 0 0.11 0 0.02 0.11 0 0.04 0.11 0 0.06 0.11 0 0.08 0.11 0 0.1 0.11 0 0 0.115 0 0.02 0.115 0 0.04 0.115 0 0.06 0.115 0 0.08 0.115 0 0.1 0.115 0 0 0.12 0 0.02 0.12 0 0.04 0.12 0 0.06 0.12 0 0.08 0.12 0 0.1 0.12 0 0 0.125 0 0.02 0.125 0 0.04 0.125 0 0.06 0.125 0 0.08 0.125 0 0.1 0.125 0 0 0.13 0 0.02 0.13 0 0.04 0.13 0 0.06 0.13 0 0.08 0.13 0 0.1 0.13 0 0 0.135 0 0.02 0.135 0 0.04 0.135 0 0.06 0.135 0 0.08 0.135 0 0.1 0.135 0 0 0.14 0 0.02 0.14 0 0.04 0.14 0 0.06 0.14 0 0.08 0.14 0 0.1 0.14 0 0 0.145 0 0.02 0.145 0 0.04 0.145 0 0.06 0.145 0 0.08 0.145 0 0.1 0.145 0 0 0.15 0 0.02 0.15 0 0.04 0.15 0 0.06 0.15 0 0.08 0.15 0 0.1 0.15 0 0 0.155 0 0.02 0.155 0 0.04 0.155 0 0.06 0.155 0 0.08 0.155 0 0.1 0.155 0 0 0.16 0 0.02 0.16 0 0.04 0.16 0 0.06 0.16 0 0.08 0.16 0 0.1 0.16 0 0 0.165 0 0.02 0.165 0 0.04 0.165 0 0.06 0.165 0 0.08 0.165 0 0.1 0.165 0 0 0.17 0 0.02 0.17 0 0.04 0.17 0 0.06 0.17 0 0.08 0.17 0 0.1 0.17 0 0 0.175 0 0.02 0.175 0 0.04 0.175 0 0.06 0.175 0 0.08 0.175 0 0.1 0.175 0 0 0.18 0 0.02 0.18 0 0.04 0.18 0 0.06 0.18 0 0.08 0.18 0 0.1 0.18 0 0 0.185 0 0.02 0.185 0 0.04 0.185 0 0.06 0.185 0 0.08 0.185 0 0.1 0.185 0 0 0.19 0 0.02 0.19 0 0.04 0.19 0 0.06 0.19 0 0.08 0.19 0 0.1 0.19 0 0 0.195 0 0.02 0.195 0 0.04 0.195 0 0.06 0.195 0 0.08 0.195 0 0.1 0.195 0 0 0.2 0 0.02 0.2 0 0.04 0.2 0 0.06 0.2 0 0.08 0.2 0 0.1 0.2 0 0 0.205 0 0.02 0.205 0 0.04 0.205 0 0.06 0.205 0 0.08 0.205 0 0.1 0.205 0 0 0.21 0 0.02 0.21 0 0.04 0.21 0 0.06 0.21 0 0.08 0.21 0 0.1 0.21 0 0 0.215 0 0.02 0.215 0 0.04 0.215 0 0.06 0.215 0 0.08 0.215 0 0.1 0.215 0 0 0.22 0 0.02 0.22 0 0.04 0.22 0 0.06 0.22 0 0.08 0.22 0 0.1 0.22 0 0 0.225 0 0.02 0.225 0 0.04 0.225 0 0.06 0.225 0 0.08 0.225 0 0.1 0.225 0 0 0.23 0 0.02 0.23 0 0.04 0.23 0 0.06 0.23 0 0.08 0.23 0 0.1 0.23 0 0 0.235 0 0.02 0.235 0 0.04 0.235 0 0.06 0.235 0 0.08 0.235 0 0.1 0.235 0 0 0.24 0 0.02 0.24 0 0.04 0.24 0 0.06 0.24 0 0.08 0.24 0 0.1 0.24 0 0 0.245 0 0.02 0.245 0 0.04 0.245 0 0.06 0.245 0 0.08 0.245 0 0.1 0.245 0 0 0.25 0 0.02 0.25 0 0.04 0.25 0 0.06 0.25 0 0.08 0.25 0 0.1 0.25 0 0 0.255 0 0.02 0.255 0 0.04 0.255 0 0.06 0.255 0 0.08 0.255 0 0.1 0.255 0 0 0.26 0 0.02 0.26 0 0.04 0.26 0 0.06 0.26 0 0.08 0.26 0 0.1 0.26 0 0 0.265 0 0.02 0.265 0 0.04 0.265 0 0.06 0.265 0 0.08 0.265 0 0.1 0.265 0 0 0.27 0 0.02 0.27 0 0.04 0.27 0 0.06 0.27 0 0.08 0.27 0 0.1 0.27 0 0 0.275 0 0.02 0.275 0 0.04 0.275 0 0.06 0.275 0 0.08 0.275 0 0.1 0.275 0 0 0.28 0 0.02 0.28 0 0.04 0.28 0 0.06 0.28 0 0.08 0.28 0 0.1 0.28 0 0 0.285 0 0.02 0.285 0 0.04 0.285 0 0.06 0.285 0 0.08 0.285 0 0.1 0.285 0 0 0.29 0 0.02 0.29 0 0.04 0.29 0 0.06 0.29 0 0.08 0.29 0 0.1 0.29 0 0 0.295 0 0.02 0.295 0 0.04 0.295 0 0.06 0.295 0 0.08 0.295 0 0.1 0.295 0 0 0.3 0 0.02 0.3 0 0.04 0.3 0 0.06 0.3 0 0.08 0.3 0 0.1 0.3 0 0 0.305 0 0.02 0.305 0 0.04 0.305 0 0.06 0.305 0 0.08 0.305 0 0.1 0.305 0 0 0.31 0 0.02 0.31 0 0.04 0.31 0 0.06 0.31 0 0.08 0.31 0 0.1 0.31 0 0 0.315 0 0.02 0.315 0 0.04 0.315 0 0.06 0.315 0 0.08 0.315 0 0.1 0.315 0 0 0.32 0 0.02 0.32 0 0.04 0.32 0 0.06 0.32 0 0.08 0.32 0 0.1 0.32 0 0 0.325 0 0.02 0.325 0 0.04 0.325 0 0.06 0.325 0 0.08 0.325 0 0.1 0.325 0 0 0.33 0 0.02 0.33 0 0.04 0.33 0 0.06 0.33 0 0.08 0.33 0 0.1 0.33 0 0 0.335 0 0.02 0.335 0 0.04 0.335 0 0.06 0.335 0 0.08 0.335 0 0.1 0.335 0 0 0.34 0 0.02 0.34 0 0.04 0.34 0 0.06 0.34 0 0.08 0.34 0 0.1 0.34 0 0 0.345 0 0.02 0.345 0 0.04 0.345 0 0.06 0.345 0 0.08 0.345 0 0.1 0.345 0 0 0.35 0 0.02 0.35 0 0.04 0.35 0 0.06 0.35 0 0.08 0.35 0 0.1 0.35 0 0 0.355 0 0.02 0.355 0 0.04 0.355 0 0.06 0.355 0 0.08 0.355 0 0.1 0.355 0 0 0.36 0 0.02 0.36 0 0.04 0.36 0 0.06 0.36 0 0.08 0.36 0 0.1 0.36 0 0 0.365 0 0.02 0.365 0 0.04 0.365 0 0.06 0.365 0 0.08 0.365 0 0.1 0.365 0 0 0.37 0 0.02 0.37 0 0.04 0.37 0 0.06 0.37 0 0.08 0.37 0 0.1 0.37 0 0 0.375 0 0.02 0.375 0 0.04 0.375 0 0.06 0.375 0 0.08 0.375 0 0.1 0.375 0 0 0.38 0 0.02 0.38 0 0.04 0.38 0 0.06 0.38 0 0.08 0.38 0 0.1 0.38 0 0 0.385 0 0.02 0.385 0 0.04 0.385 0 0.06 0.385 0 0.08 0.385 0 0.1 0.385 0 0 0.39 0 0.02 0.39 0 0.04 0.39 0 0.06 0.39 0 0.08 0.39 0 0.1 0.39 0 0 0.395 0 0.02 0.395 0 0.04 0.395 0 0.06 0.395 0 0.08 0.395 0 0.1 0.395 0 0 0.4 0 0.02 0.4 0 0.04 0.4 0 0.06 0.4 0 0.08 0.4 0 0.1 0.4 0 0 0.405 0 0.02 0.405 0 0.04 0.405 0 0.06 0.405 0 0.08 0.405 0 0.1 0.405 0 0 0.41 0 0.02 0.41 0 0.04 0.41 0 0.06 0.41 0 0.08 0.41 0 0.1 0.41 0 0 0.415 0 0.02 0.415 0 0.04 0.415 0 0.06 0.415 0 0.08 0.415 0 0.1 0.415 0 0 0.42 0 0.02 0.42 0 0.04 0.42 0 0.06 0.42 0 0.08 0.42 0 0.1 0.42 0 0 0.425 0 0.02 0.425 0 0.04 0.425 0 0.06 0.425 0 0.08 0.425 0 0.1 0.425 0 0 0.43 0 0.02 0.43 0 0.04 0.43 0 0.06 0.43 0 0.08 0.43 0 0.1 0.43 0 0 0.435 0 0.02 0.435 0 0.04 0.435 0 0.06 0.435 0 0.08 0.435 0 0.1 0.435 0 0 0.44 0 0.02 0.44 0 0.04 0.44 0 0.06 0.44 0 0.08 0.44 0 0.1 0.44 0 0 0.445 0 0.02 0.445 0 0.04 0.445 0 0.06 0.445 0 0.08 0.445 0 0.1 0.445 0 0 0.45 0 0.02 0.45 0 0.04 0.45 0 0.06 0.45 0 0.08 0.45 0 0.1 0.45 0 0 0.455 0 0.02 0.455 0 0.04 0.455 0 0.06 0.455 0 0.08 0.455 0 0.1 0.455 0 0 0.46 0 0.02 0.46 0 0.04 0.46 0 0.06 0.46 0 0.08 0.46 0 0.1 0.46 0 0 0.465004 0 0.02 0.465004 0 0.04 0.465004 0 0.06 0.465004 0 0.08 0.465004 0 0.1 0.465004 0 0 0.470029 0 0.02 0.470029 0 0.04 0.470029 0 0.06 0.470029 0 0.08 0.470029 0 0.1 0.470029 0 0 0.475169 0 0.02 0.475169 0 0.04 0.475169 0 0.06 0.475169 0 0.08 0.475169 0 0.1 0.475169 0 0 0.480681 0 0.02 0.480681 0 0.04 0.480681 0 0.06 0.480681 0 0.08 0.480681 0 0.1 0.480681 0 0 0.487032 0 0.02 0.487032 0 0.04 0.487032 0 0.06 0.487032 0 0.08 0.487032 0 0.1 0.487032 0 0 0.494923 0 0.02 0.494923 0 0.04 0.494923 0 0.06 0.494923 0 0.08 0.494923 0 0.1 0.494923 0 0 0.505464 0 0.02 0.505464 0 0.04 0.505464 0 0.06 0.505464 0 0.08 0.505464 0 0.1 0.505464 0 0 0.518579 0 0.02 0.518579 0 0.04 0.518579 0 0.06 0.518579 0 0.08 0.518579 0 0.1 0.518579 0 0 0.521238 0 0.02 0.521238 0 0.04 0.521238 0 0.06 0.521238 0 0.08 0.521238 0 0.1 0.521238 0 0 0.523743 0 0.02 0.523743 0 0.04 0.523743 0 0.06 0.523743 0 0.08 0.523743 0 0.1 0.523743 0 0 0.526224 0 0.02 0.526224 0 0.04 0.526224 0 0.06 0.526224 0 0.08 0.526224 0 0.1 0.526224 0 0 0.528776 0 0.02 0.528776 0 0.04 0.528776 0 0.06 0.528776 0 0.08 0.528776 0 0.1 0.528776 0 0 0.53149 0 0.02 0.53149 0 0.04 0.53149 0 0.06 0.53149 0 0.08 0.53149 0 0.1 0.53149 0 0 0.534462 0 0.02 0.534462 0 0.04 0.534462 0 0.06 0.534462 0 0.08 0.534462 0 0.1 0.534462 0 0 0.537783 0 0.02 0.537783 0 0.04 0.537783 0 0.06 0.537783 0 0.08 0.537783 0 0.1 0.537783 0 0 0.541522 0 0.02 0.541522 0 0.04 0.541522 0 0.06 0.541522 0 0.08 0.541522 0 0.1 0.541522 0 0 0.545697 0 0.02 0.545697 0 0.04 0.545697 0 0.06 0.545697 0 0.08 0.545697 0 0.1 0.545697 0 0 0.550254 0 0.02 0.550254 0 0.04 0.550254 0 0.06 0.550254 0 0.08 0.550254 0 0.1 0.550254 0 0 0.555072 0 0.02 0.555072 0 0.04 0.555072 0 0.06 0.555072 0 0.08 0.555072 0 0.1 0.555072 0 0 0.560017 0 0.02 0.560017 0 0.04 0.560017 0 0.06 0.560017 0 0.08 0.560017 0 0.1 0.560017 0 0 0.565003 0 0.02 0.565003 0 0.04 0.565003 0 0.06 0.565003 0 0.08 0.565003 0 0.1 0.565003 0 0 0.570001 0 0.02 0.570001 0 0.04 0.570001 0 0.06 0.570001 0 0.08 0.570001 0 0.1 0.570001 0 0 0.575 0 0.02 0.575 0 0.04 0.575 0 0.06 0.575 0 0.08 0.575 0 0.1 0.575 0 0 0.58 0 0.02 0.58 0 0.04 0.58 0 0.06 0.58 0 0.08 0.58 0 0.1 0.58 0 0 0.585 0 0.02 0.585 0 0.04 0.585 0 0.06 0.585 0 0.08 0.585 0 0.1 0.585 0 0 0.59 0 0.02 0.59 0 0.04 0.59 0 0.06 0.59 0 0.08 0.59 0 0.1 0.59 0 0 0.595 0 0.02 0.595 0 0.04 0.595 0 0.06 0.595 0 0.08 0.595 0 0.1 0.595 0 0 0.6 0 0.02 0.6 0 0.04 0.6 0 0.06 0.6 0 0.08 0.6 0 0.1 0.6 0 0 0.605 0 0.02 0.605 0 0.04 0.605 0 0.06 0.605 0 0.08 0.605 0 0.1 0.605 0 0 0.61 0 0.02 0.61 0 0.04 0.61 0 0.06 0.61 0 0.08 0.61 0 0.1 0.61 0 0 0.615 0 0.02 0.615 0 0.04 0.615 0 0.06 0.615 0 0.08 0.615 0 0.1 0.615 0 0 0.62 0 0.02 0.62 0 0.04 0.62 0 0.06 0.62 0 0.08 0.62 0 0.1 0.62 0 0 0.625 0 0.02 0.625 0 0.04 0.625 0 0.06 0.625 0 0.08 0.625 0 0.1 0.625 0 0 0.63 0 0.02 0.63 0 0.04 0.63 0 0.06 0.63 0 0.08 0.63 0 0.1 0.63 0 0 0.635 0 0.02 0.635 0 0.04 0.635 0 0.06 0.635 0 0.08 0.635 0 0.1 0.635 0 0 0.64 0 0.02 0.64 0 0.04 0.64 0 0.06 0.64 0 0.08 0.64 0 0.1 0.64 0 0 0.645 0 0.02 0.645 0 0.04 0.645 0 0.06 0.645 0 0.08 0.645 0 0.1 0.645 0 0 0.65 0 0.02 0.65 0 0.04 0.65 0 0.06 0.65 0 0.08 0.65 0 0.1 0.65 0 0 0.655 0 0.02 0.655 0 0.04 0.655 0 0.06 0.655 0 0.08 0.655 0 0.1 0.655 0 0 0.66 0 0.02 0.66 0 0.04
[...]
			<PointData Scalars="VitesseX">
				<DataArray Name="VitesseX" type="Float32" format="ascii">
 0 3.61807e-16 -8.81536e-16 -9.8506e-17 -6.31981e-16 0 0 3.3971e-16 -8.2625e-16 -1.62092e-16 -7.29698e-16 0 0 -1.03409e-17 -3.7607e-16 -5.37635e-16 -9.75307e-16 0 0 2.24317e-16 -6.1025e-16 -6.72436e-16 -1.43051e-15 0 0 2.1953e-16 2.14083e-16 -1.88522e-15 -1.06462e-15 0 0 -7.74884e-16 1.30858e-15 -2.91099e-15 -7.91208e-16 0 0 -1.22773e-15 5.24058e-16 -7.90582e-16 -2.99999e-15 0 0 6.71102e-16 -2.29463e-15 1.10205e-15 -4.75043e-15 0 0 8.42253e-16 -2.02317e-15 3.6294e-16 -5.61759e-15 0 0 -1.20893e-15 5.06905e-16 -1.78944e-16 -5.29558e-15 0 0 -1.54526e-15 5.61651e-16 -5.62073e-16 -3.70885e-15 0 0 -1.77334e-15 -4.53067e-16 3.25133e-16 -4.90037e-15 0 0 6.49808e-16 -4.04615e-15 2.17763e-15 -6.36761e-15 0 0 -2.39518e-15 2.8747e-15 -4.62717e-15 -4.23099e-15 0 0 -1.40872e-15 1.64879e-15 -2.87978e-15 -6.63105e-15 0 0 2.99869e-15 -6.2755e-15 3.92337e-15 -1.15758e-14 0 0 -1.73259e-15 1.1817e-15 -1.58412e-15 -9.23649e-15 0 0 1.13628e-15 1.04218e-15 -5.10582e-15 -5.66175e-15 0 0 3.23711e-16 1.87182e-15 -6.05589e-15 -5.39796e-15 0 0 -1.43932e-15 1.69474e-15 -5.33192e-15 -5.87324e-15 0 0 2.13451e-15 -4.71046e-15 -8.25487e-16 -5.35053e-15 0 0 -1.21321e-15 -1.49947e-15 -1.21302e-15 -2.1534e-15 0 0 -2.69376e-15 1.84445e-15 -5.31309e-15 -9.74003e-16 0 0 -2.25016e-15 1.91859e-15 -4.7807e-15 -3.48143e-15 0 0 -1.16264e-15 -2.51415e-15 2.34419e-17 -4.2437e-15 0 0 -2.06452e-15 -4.32916e-15 -2.06386e-15 2.7116e-15 0 0 -4.85665e-15 -3.28007e-15 -2.65516e-15 7.84186e-15 0 0 -5.32423e-15 -9.21053e-15 5.56314e-15 7.18129e-15 0 0 -2.76432e-15 -1.55336e-14 8.73488e-15 8.81006e-15 0 0 -2.07327e-15 -1.07442e-14 1.54559e-15 6.76311e-15 0 0 -3.13186e-15 -1.97123e-15 -2.7566e-15 -2.75881e-15 0 0 -2.39538e-15 -8.05944e-15 6.10017e-15 -7.01629e-15 0 0 -5.53352e-15 -1.01019e-14 6.39463e-15 -2.40742e-15 0 0 -9.52469e-15 -4.04183e-15 -1.47905e-15 2.86212e-15 0 0 -6.39895e-15 -1.26057e-14 4.2234e-15 5.92932e-15 0 0 -7.11571e-15 -1.43072e-14 7.04176e-15 5.40571e-15 0 0 -8.27342e-15 -9.3774e-15 5.32124e-15 2.01712e-15 0 0 -3.24246e-15 -9.23548e-15 1.71771e-15 5.42546e-15 0 0 -2.34909e-15 -1.2299e-14 -1.59855e-15 5.25462e-15 0 0 -3.84496e-15 -1.17515e-14 -1.99209e-15 -6.86693e-15 0 0 -6.08057e-15 -7.78292e-15 -5.9064e-15 -1.71771e-14 0 0 -3.15983e-15 -8.5648e-15 -1.12564e-14 -1.88513e-14 0 0 -3.20512e-15 -6.0255e-15 -1.00722e-14 -1.88239e-14 0 0 -6.11563e-15 -5.31105e-15 -8.7182e-15 -1.58634e-14 0 0 -3.23515e-15 -6.48968e-15 -1.32083e-14 -9.86281e-15 0 0 -3.45222e-15 -8.92943e-15 -7.55884e-15 -1.13334e-14 0 0 -4.46486e-15 -7.95407e-15 -5.31693e-15 -8.48763e-15 0 0 -3.05352e-15 -5.72887e-15 -5.2931e-15 -8.73798e-15 0 0 -5.10672e-16 -4.57522e-15 -1.01116e-14 -8.93025e-15 0 0 -1.61728e-15 -5.76552e-15 -1.08368e-14 -9.9181e-15 0 0 -6.32869e-15 -9.79695e-15 -2.80856e-15 -1.44695e-14 0 0 -1.05365e-14 -8.07703e-15 -5.88837e-15 -3.8369e-15 0 0 -1.47359e-14 -7.64741e-15 -2.7354e-15 1.22236e-14 0 0 -1.06662e-14 -1.82363e-14 -2.37156e-15 2.24697e-14 0 0 -1.07054e-14 -1.96294e-14 -1.14244e-14 2.62436e-14 0 0 -1.322e-14 -1.95075e-14 -7.15806e-15 1.95729e-14 0 0 -5.17129e-15 -2.4166e-14 -4.81389e-15 6.70349e-15 0 0 -1.12256e-14 -1.55432e-14 -1.24654e-14 8.1568e-15 0 0 -1.85659e-14 -1.8483e-14 -4.25242e-15 1.16043e-14 0 0 -1.50481e-14 -2.82368e-14 6.67642e-15 6.36965e-15 0 0 -1.59193e-14 -1.83208e-14 4.98797e-15 2.87249e-15 0 0 -1.88131e-14 -9.07497e-15 6.354e-15 8.37213e-16 0 0 -2.1997e-14 -8.18625e-15 7.00324e-15 6.66355e-15 0 0 -1.86257e-14 -1.39252e-14 5.41181e-15 7.92795e-15 0 0 -1.74764e-14 -1.64768e-14 -1.90656e-16 1.40345e-14 0 0 -2.69515e-14 -1.32536e-14 -1.87265e-15 1.12644e-14 0 0 -2.58291e-14 -1.86738e-14 5.89884e-15 -8.35657e-16 0 0 -1.99426e-14 -2.56475e-14 4.62409e-15 1.08834e-14 0 0 -1.81964e-14 -2.40863e-14 -1.03717e-14 2.03834e-14 0 0 -1.86436e-14 -2.042e-14 -1.66885e-14 1.946e-14 0 0 -2.6545e-14 -1.90893e-14 -7.54745e-15 9.66167e-15 0 0 -1.91766e-14 -2.78539e-14 -1.0547e-14 7.13798e-15 0 0 -1.46175e-14 -3.65675e-14 -1.30521e-14 2.90331e-16 0 0 -1.80204e-14 -3.41722e-14 -4.3794e-15 -2.51383e-14 0 0 -1.25669e-14 -3.80555e-14 1.53025e-14 -4.35302e-14 0 0 -1.81018e-14 -2.71621e-14 2.59206e-16 -3.44712e-14 0 0 -1.98955e-14 -2.57475e-14 -2.28296e-14 -1.28994e-14 0 0 -2.30314e-14 -4.04083e-14 5.40017e-16 -5.18963e-15 0 0 -2.40287e-14 -3.00995e-14 -6.4285e-15 7.68394e-16 0 0 -2.8995e-14 -2.6053e-14 -1.03993e-15 -1.0816e-14 0 0 -3.37309e-14 -2.34628e-14 -4.08228e-15 -1.41507e-14 0 0 -2.49725e-14 -2.25461e-14 -1.32696e-14 -1.00673e-14 0 0 -2.67064e-14 -2.74655e-14 8.00694e-15 -2.12566e-14 0 0 -1.9392e-14 -2.2362e-14 -9.75399e-16 -1.0611e-14 0 0 -1.15754e-14 -1.6262e-14 -1.68826e-14 -1.97269e-15 0 0 -1.77559e-14 -9.89741e-15 -1.8495e-14 -2.2958e-14 0 0 -2.00432e-14 -9.00648e-15 -7.05176e-15 -3.33971e-14 0 0 -5.77985e-15 -1.64482e-14 -7.42101e-15 -2.58139e-14 0 0 -1.25088e-15 -1.90906e-14 -1.11746e-14 -1.44708e-14 0 0 -2.69804e-15 -7.72963e-15 -8.92228e-15 -7.48313e-15 0 0 -4.94018e-15 -5.03418e-16 -2.22263e-15 -1.55832e-14 0 0 -6.35084e-15 -6.19742e-15 1.83164e-15 -1.55515e-14 0 0 2.2442e-15 -1.13211e-14 -9.60514e-15 -1.13371e-14 0 0 3.56604e-16 -8.43256e-15 -1.01833e-14 -1.01638e-14 0 0 -1.72246e-15 -2.56562e-15 -9.46649e-15 -1.11051e-14 0 0 9.1766e-16 -1.28417e-14 -2.66045e-15 -9.39163e-15 0 0 -6.67456e-15 -1.14738e-15 5.58516e-15 -3.52497e-15 0 0 8.58782e-16 5.38586e-15 1.73435e-15 -8.8075e-15 0 0 2.56911e-15 -7.5566e-15 3.56394e-15 -4.39905e-15 0 0 -9.96207e-17 -4.13464e-15 -3.01153e-15 -7.09717e-15 0 0 -1.74306e-15 -5.4269e-16 2.3475e-15 -6.76918e-15 0 0 -1.24361e-15 3.24028e-14 -1.9673e-14 6.43814e-15 0 0 -4.46458e-15 -5.25757e-14 -1.55361e-14 -6.68714e-14 0 0 6.96458e-14 5.0782e-14 7.37747e-14 1.76982e-14 0 0 -3.78679e-14 -3.63011e-14 -5.06353e-14 -2.87512e-14 0 0 -2.3549e-14 -9.27607e-15 -1.1656e-14 -1.13074e-14 0 0 4.66136e-14 5.29581e-14 6.79718e-14 -1.10159e-14 0 0 -2.44166e-14 -8.87271e-14 -4.14158e-14 -4.04382e-14 0 0 2.45249e-14 2.55504e-14 -1.94633e-14 4.53719e-14 0 0 3.6757e-15 -1.36652e-14 -2.8107e-14 -1.462e-14 0 0 1.52432e-15 -1.94075e-14 7.68442e-15 1.52068e-14 0 0 -4.0098e-15 -1.31509e-16 7.16903e-15 -2.20206e-15 0 0 -7.7311e-15 -1.44181e-14 9.02689e-15 6.45496e-15 0 0 -7.95089e-15 -7.28948e-15 1.46753e-15 5.56536e-15 0 0 -5.78651e-15 4.16657e-15 -5.14126e-15 -7.79138e-15 0 0 -4.68736e-15 -4.00391e-15 -7.30271e-15 7.56084e-15 0 0 1.31248e-15 -8.96835e-15 -1.13559e-14 2.15365e-14 0 0 -5.2079e-16 -5.49456e-15 -1.79919e-15 3.2578e-15 0 0 -1.3986e-14 5.32456e-15 3.60428e-15 -1.63235e-14 0 0 -1.29965e-14 -3.8092e-15 -2.18871e-15 -2.32724e-15 0 0 -1.16297e-14 -2.17345e-14 1.20529e-15 2.27174e-16 0 0 -1.64478e-14 -2.93924e-14 7.05245e-15 -3.89986e-15 0 0 -1.66314e-14 -1.67656e-14 -1.22502e-14 2.33686e-14 0 0 -3.24994e-14 -7.15099e-15 8.28624e-16 2.43472e-15 0 0 -4.81657e-14 -2.22337e-14 1.57318e-14 4.94086e-15 0 0 -5.08763e-14 -3.27496e-14 1.11152e-14 1.18854e-14 0 0 -3.25613e-14 -5.19552e-14 1.64914e-14 -1.96544e-14 0 0 -1.43527e-14 -5.55218e-14 3.06335e-15 -1.35851e-14 0 0 -2.81682e-14 -5.00931e-14 2.37735e-15 1.36315e-14 0 0 -3.19906e-14 -6.69636e-14 -1.03892e-14 3.91785e-14 0 0 -2.38076e-14 -6.2846e-14 -1.70406e-14 1.95908e-14 0 0 -3.17357e-14 -5.78572e-14 4.18874e-15 4.66984e-15 0 0 -3.35775e-14 -3.6215e-14 -7.7218e-15 1.87448e-14 0 0 -2.79363e-14 -3.69909e-14 -5.88647e-15 3.13639e-14 0 0 -3.30147e-14 -7.19789e-14 1.95956e-14 2.80317e-14 0 0 -4.20932e-14 -5.29948e-14 1.79918e-14 4.14884e-15 0 0 -4.8613e-14 -3.21137e-14 -7.83994e-16 -2.81553e-14 0 0 -3.81471e-14 -4.84464e-14 -2.19302e-14 -3.20511e-14 0 0 -2.9657e-14 -4.82984e-14 -3.31931e-14 -4.09098e-14 0 0 -1.98779e-14 -5.62891e-14 -2.67655e-14 -4.6659e-14 0 0 -2.00973e-14 -6.52093e-14 -9.4303e-15 -2.32893e-14 0 0 -4.1585e-14 -4.76512e-14 1.49698e-15 -1.53843e-14 0 0 -6.10989e-14 -4.69146e-14 6.73949e-15 -4.29502e-15 0 0 -5.69933e-14 -6.36365e-14 2.68953e-14 -5.6427e-15 0 0 -4.50085e-14 -5.44467e-14 1.15286e-14 -1.04857e-15 0 0 -4.69016e-14 -5.18444e-14 -2.07192e-15 -3.70119e-15 0 0 -5.82585e-14 -5.82647e-14 -2.23335e-15 4.48633e-15 0 0 -3.88444e-14 -5.51102e-14 -2.39494e-14 9.65292e-15 0 0 -1.30888e-14 -6.62042e-14 -1.92343e-14 -2.32906e-15 0 0 -3.74428e-14 -6.67893e-14 -9.29275e-15 -1.14224e-14 0 0 -4.9676e-14 -7.98297e-14 1.55948e-14 -3.48079e-14 0 0 -4.73131e-14 -5.65574e-14 -1.37915e-14 -2.45004e-14 0 0 -2.72925e-14 -3.76368e-14 -5.36101e-14 -1.63479e-14 0 0 -2.67424e-14 -4.16248e-14 -5.91674e-14 -1.76914e-14 0 0 -3.81512e-14 -4.32063e-14 -6.14846e-14 -1.77867e-14 0 0 -4.36408e-14 -4.83022e-14 -5.7505e-14 -6.89589e-15 0 0 -5.12333e-14 -3.08534e-14 -6.35529e-14 -1.27701e-14 0 0 -6.18794e-14 -1.64627e-14 -6.53429e-14 -2.66624e-14 0 0 -6.25228e-14 -4.446e-14 -3.71329e-14 -5.42608e-15 0 0 -5.11968e-14 -5.54248e-14 -1.92197e-14 2.00603e-15 0 0 -3.50373e-14 -5.95047e-14 -1.74135e-14 -1.88907e-14 0 0 -4.99316e-14 -4.00691e-14 -7.55145e-14 2.74529e-14 0 0 -5.72402e-14 -2.81908e-14 -1.20655e-13 5.13979e-14 0 0 -5.31945e-14 -4.68165e-14 -7.41091e-14 -1.35811e-14 0 0 -8.54352e-14 -2.28324e-14 -5.13993e-14 -2.86027e-14 0 0 -6.55699e-14 -4.06905e-14 -5.00177e-14 -9.72402e-15 0 0 -3.56438e-14 -7.76771e-14 -3.76488e-14 -1.01414e-14 0 0 -4.57425e-14 -8.38573e-14 -3.23779e-14 -8.20708e-15 0 0 -6.68503e-14 -7.16333e-14 -2.89792e-14 -6.80119e-16 0 0 -6.41897e-14 -5.21233e-14 -6.10269e-14 1.20206e-14 0 0 -6.73444e-14 -4.3286e-14 -1.02743e-13 5.72551e-15 0 0 -7.52075e-14 -5.11387e-14 -5.87241e-14 -5.23395e-14 0 0 -6.39562e-14 -6.22724e-14 -2.70892e-14 -6.0233e-14 0 0 -4.78376e-14 -9.61916e-14 -1.52461e-14 -3.78815e-14 0 0 -3.91771e-14 -7.70078e-14 -6.25132e-14 2.32743e-14 0 0 -4.14487e-14 -4.59119e-14 -1.09714e-13 8.12309e-14 0 0 -4.98094e-14 -6.65312e-14 -5.13786e-14 3.74344e-14 0 0 -5.29991e-14 -5.69732e-14 -4.57969e-14 2.28489e-14 0 0 -5.16774e-14 -4.83866e-14 -5.13271e-14 2.44123e-14 0 0 -5.01811e-14 -6.93965e-14 -2.66021e-14 9.23635e-15 0 0 -5.02392e-14 -8.08468e-14 -4.76308e-14 3.1821e-14 0 0 -4.43081e-14 -6.69833e-14 -7.67902e-14 2.00517e-14 0 0 -4.21145e-14 -4.72285e-14 -1.10944e-13 3.96332e-15 0 0 -6.5625e-14 -4.76031e-14 -7.65105e-14 8.42645e-15 0 0 -6.65777e-14 -7.41058e-14 -2.1345e-15 -6.01988e-15 0 0 -6.65899e-14 -7.20016e-14 -7.66638e-16 -3.41719e-15 0 0 -7.13102e-14 -4.33539e-14 -6.91811e-14 3.45459e-14 0 0 -4.48889e-14 -6.24354e-14 -1.0336e-13 6.81005e-14 0 0 -4.3342e-14 -6.94459e-14 -7.05826e-14 5.6028e-14 0 0 -4.89415e-14 -7.16449e-14 -5.36947e-14 6.15374e-14 0 0 -4.73295e-14 -4.97585e-14 -8.98039e-14 6.9349e-14 0 0 -4.15129e-14 -1.4366e-14 -9.57405e-14 4.54042e-15 0 0 -1.95399e-14 -4.20124e-14 -3.70838e-14 -4.26172e-14 0 0 -2.91692e-14 -4.70702e-14 -4.85955e-14 -3.40593e-15 0 0 -5.01705e-14 -3.59076e-14 -8.51138e-14 2.64426e-14 0 0 -3.60864e-14 -5.67314e-14 -6.9455e-14 -1.93476e-14 0 0 -2.56466e-14 -4.85284e-14 -7.41193e-14 -5.38117e-14 0 0 -1.58653e-14 -2.76444e-14 -1.0173e-13 -3.15655e-15 0 0 -1.4769e-14 -4.1067e-14 -7.11261e-14 5.71818e-15 0 0 -2.1858e-14 -4.6078e-14 -3.37904e-14 -2.21097e-14 0 0 -1.6471e-14 -3.7636e-14 -4.18631e-14 -1.06127e-14 0
				</DataArray>
				<DataArray Name="VitesseY" type="Float32" format="ascii">