<?xml version="1.0"?>
<VTKFile type="PolyData">
	<PolyData>
		<Piece NumberOfPoints="1206" NumberOfPolys="1000">
			<Points>
				<DataArray type="Float32" NumberOfComponents="3" format="ascii">
 0 0 0 0.02 0 0 0.04 0 0 0.06 0 0 0.08 0 0 0.1 0 0 0 0.005 0 0.02 0.005 0 0.04 0.005 0 0.06 0.005 0 0.08 0.005 0 0.1 0.005 0 0 0.01 0 0.02 0.01 0 0.04 0.01 0 0.06 0.01 0 0.08 0.01 0 0.1 0.01 0 0 0.015 0 0.02 0.015 0 0.04 0.015 0 0.06 0.015 0 0.08 0.015 0 0.1 0.015 0 0 0.02 0 0.02 0.02 0 0.04 0.02 0 0.06 0.02 0 0.08 0.02 0 0.1 0.02 0 0 0.025 0 0.02 0.025 0 0.04 0.025 0 0.06 0.025 0 0.08 0.025 0 0.1 0.025 0 0 0.03 0 0.02 0.03 0 0.04 0.03 0 0.06 0.03 0 0.08 0.03 0 0.1 0.03 0 0 0.035 0 0.02 0.035 0 0.04 0.035 0 0.06 0.035 0 0.08 0.035 0 0.1 0.035 0 0 0.04 0 0.02 0.04 0 0.04 0.04 0 0.06 0.04 0 0.08 0.04 0 0.1 0.04 0 0 0.045 0 0.02 0.045 0 0.04 0.045 0 0.06 0.045 0 0.08 0.045 0 0.1 0.045 0 0 0.05 0 0.02 0.05 0 0.04 0.05 0 0.06 0.05 0 0.08 0.05 0 0.1 0.05 0 0 0.055 0 0.02 0.055 0 0.04 0.055 0 0.06 0.055 0 0.08 0.055 0 0.1 0.055 0 0 0.06 0 0.02 0.06 0 0.04 0.06 0 0.06 0.06 0 0.08 0.06 0 0.1 0.06 0 0 0.065 0 0.02 0.065 0 0.04 0.065 0 0.06 0.065 0 0.08 0.065 0 0.1 0.065 0 0 0.07 0 0.02 0.07 0 0.04 0.07 0 0.06 0.07 0 0.08 0.07 0 0.1 0.07 0 0 0.075 0 0.02 0.075 0 0.04 0.075 0 0.06 0.075 0 0.08 0.075 0 0.1 0.075 0 0 0.08 0 0.02 0.08 0 0.04 0.08 0 0.06 0.08 0 0.08 0.08 0 0.1 0.08 0 0 0.085 0 0.02 0.085 0 0.04 0.085 0 0.06 0.085 0 0.08 0.085 0 0.1 0.085 0 0 0.09 0 0.02 0.09 0 0.04 0.09 0 0.06 0.09 0 0.08 0.09 0 0.1 0.09 0 0 0.095 0 0.02 0.095 0 0.04 0.095 0 0.06 0.095 0 0.08 0.095 0 0.1 0.095 0 0 0.1 0 0.02 0.1 0 0.04 0.1 0 0.06 0.1 0 0.08 0.1 0 0.1 0.1 0 0 0.105 0 0.02 0.105 0 0.04 0.105 0 0.06 0.105 0 0.08 0.105 0 0.1 0.105 0 0 0.11 0 0.02 0.11 0 0.04 0.11 0 0.06 0.11 0 0.08 0.11 0 0.1 0.11 0 0 0.115 0 0.02 0.115 0 0.04 0.115 0 0.06 0.115 0 0.08 0.115 0 0.1 0.115 0 0 0.12 0 0.02 0.12 0 0.04 0.12 0 0.06 0.12 0 0.08 0.12 0 0.1 0.12 0 0 0.125 0 0.02 0.125 0 0.04 0.125 0 0.06 0.125 0 0.08 0.125 0 0.1 0.125 0 0 0.13 0 0.02 0.13 0 0.04 0.13 0 0.06 0.13 0 0.08 0.13 0 0.1 0.13 0 0 0.135 0 0.02 0.135 0 0.04 0.135 0 0.06 0.135 0 0.08 0.135 0 0.1 0.135 0 0 0.14 0 0.02 0.14 0 0.04 0.14 0 0.06 0.14 0 0.08 0.14 0 0.1 0.14 0 0 0.145 0 0.02 0.145 0 0.04 0.145 0 0.06 0.145 0 0.08 0.145 0 0.1 0.145 0 0 0.15 0 0.02 0.15 0 0.04 0.15 0 0.06 0.15 0 0.08 0.15 0 0.1 0.15 0 0 0.155 0 0.02 0.155 0 0.04 0.155 0 0.06 0.155 0 0.08 0.155 0 0.1 0.155 0 0 0.16 0 0.02 0.16 0 0.04 0.16 0 0.06 0.16 0 0.08 0.16 0 0.1 0.16 0 0 0.165 0 0.02 0.165 0 0.04 0.165 0 0.06 0.165 0 0.08 0.165 0 0.1 0.165 0 0 0.17 0 0.02 0.17 0 0.04 0.17 0 0.06 0.17 0 0.08 0.17 0 0.1 0.17 0 0 0.175 0 0.02 0.175 0 0.04 0.175 0 0.06 0.175 0 0.08 0.175 0 0.1 0.175 0 0 0.18 0 0.02 0.18 0 0.04 0.18 0 0.06 0.18 0 0.08 0.18 0 0.1 0.18 0 0 0.185 0 0.02 0.185 0 0.04 0.185 0 0.06 0.185 0 0.08 0.185 0 0.1 0.185 0 0 0.19 0 0.02 0.19 0 0.04 0.19 0 0.06 0.19 0 0.08 0.19 0 0.1 0.19 0 0 0.195 0 0.02 0.195 0 0.04 0.195 0 0.06 0.195 0 0.08 0.195 0 0.1 0.195 0 0 0.2 0 0.02 0.2 0 0.04 0.2 0 0.06 0.2 0 0.08 0.2 0 0.1 0.2 0 0 0.205 0 0.02 0.205 0 0.04 0.205 0 0.06 0.205 0 0.08 0.205 0 0.1 0.205 0 0 0.21 0 0.02 0.21 0 0.04 0.21 0 0.06 0.21 0 0.08 0.21 0 0.1 0.21 0 0 0.215 0 0.02 0.215 0 0.04 0.215 0 0.06 0.215 0 0.08 0.215 0 0.1 0.215 0 0 0.22 0 0.02 0.22 0 0.04 0.22 0 0.06 0.22 0 0.08 0.22 0 0.1 0.22 0 0 0.225 0 0.02 0.225 0 0.04 0.225 0 0.06 0.225 0 0.08 0.225 0 0.1 0.225 0 0 0.23 0 0.02 0.23 0 0.04 0.23 0 0.06 0.23 0 0.08 0.23 0 0.1 0.23 0 0 0.235 0 0.02 0.235 0 0.04 0.235 0 0.06 0.235 0 0.08 0.235 0 0.1 0.235 0 0 0.24 0 0.02 0.24 0 0.04 0.24 0 0.06 0.24 0 0.08 0.24 0 0.1 0.24 0 0 0.245 0 0.02 0.245 0 0.04 0.245 0 0.06 0.245 0 0.08 0.245 0 0.1 0.245 0 0 0.25 0 0.02 0.25 0 0.04 0.25 0 0.06 0.25 0 0.08 0.25 0 0.1 0.25 0 0 0.255 0 0.02 0.255 0 0.04 0.255 0 0.06 0.255 0 0.08 0.255 0 0.1 0.255 0 0 0.26 0 0.02 0.26 0 0.04 0.26 0 0.06 0.26 0 0.08 0.26 0 0.1 0.26 0 0 0.265 0 0.02 0.265 0 0.04 0.265 0 0.06 0.265 0 0.08 0.265 0 0.1 0.265 0 0 0.27 0 0.02 0.27 0 0.04 0.27 0 0.06 0.27 0 0.08 0.27 0 0.1 0.27 0 0 0.275 0 0.02 0.275 0 0.04 0.275 0 0.06 0.275 0 0.08 0.275 0 0.1 0.275 0 0 0.28 0 0.02 0.28 0 0.04 0.28 0 0.06 0.28 0 0.08 0.28 0 0.1 0.28 0 0 0.285 0 0.02 0.285 0 0.04 0.285 0 0.06 0.285 0 0.08 0.285 0 0.1 0.285 0 0 0.29 0 0.02 0.29 0 0.04 0.29 0 0.06 0.29 0 0.08 0.29 0 0.1 0.29 0 0 0.295 0 0.02 0.295 0 0.04 0.295 0 0.06 0.295 0 0.08 0.295 0 0.1 0.295 0 0 0.3 0 0.02 0.3 0 0.04 0.3 0 0.06 0.3 0 0.08 0.3 0 0.1 0.3 0 0 0.305 0 0.02 0.305 0 0.04 0.305 0 0.06 0.305 0 0.08 0.305 0 0.1 0.305 0 0 0.31 0 0.02 0.31 0 0.04 0.31 0 0.06 0.31 0 0.08 0.31 0 0.1 0.31 0 0 0.315 0 0.02 0.315 0 0.04 0.315 0 0.06 0.315 0 0.08 0.315 0 0.1 0.315 0 0 0.32 0 0.02 0.32 0 0.04 0.32 0 0.06 0.32 0 0.08 0.32 0 0.1 0.32 0 0 0.325 0 0.02 0.325 0 0.04 0.325 0 0.06 0.325 0 0.08 0.325 0 0.1 0.325 0 0 0.33 0 0.02 0.33 0 0.04 0.33 0 0.06 0.33 0 0.08 0.33 0 0.1 0.33 0 0 0.335 0 0.02 0.335 0 0.04 0.335 0 0.06 0.335 0 0.08 0.335 0 0.1 0.335 0 0 0.34 0 0.02 0.34 0 0.04 0.34 0 0.06 0.34 0 0.08 0.34 0 0.1 0.34 0 0 0.345 0 0.02 0.345 0 0.04 0.345 0 0.06 0.345 0 0.08 0.345 0 0.1 0.345 0 0 0.35 0 0.02 0.35 0 0.04 0.35 0 0.06 0.35 0 0.08 0.35 0 0.1 0.35 0 0 0.355 0 0.02 0.355 0 0.04 0.355 0 0.06 0.355 0 0.08 0.355 0 0.1 0.355 0 0 0.36 0 0.02 0.36 0 0.04 0.36 0 0.06 0.36 0 0.08 0.36 0 0.1 0.36 0 0 0.365001 0 0.02 0.365001 0 0.04 0.365001 0 0.06 0.365001 0 0.08 0.365001 0 0.1 0.365001 0 0 0.370002 0 0.02 0.370002 0 0.04 0.370002 0 0.06 0.370002 0 0.08 0.370002 0 0.1 0.370002 0 0 0.375009 0 0.02 0.375009 0 0.04 0.375009 0 0.06 0.375009 0 0.08 0.375009 0 0.1 0.375009 0 0 0.380028 0 0.02 0.380028 0 0.04 0.380028 0 0.06 0.380028 0 0.08 0.380028 0 0.1 0.380028 0 0 0.385078 0 0.02 0.385078 0 0.04 0.385078 0 0.06 0.385078 0 0.08 0.385078 0 0.1 0.385078 0 0 0.390191 0 0.02 0.390191 0 0.04 0.390191 0 0.06 0.390191 0 0.08 0.390191 0 0.1 0.390191 0 0 0.395407 0 0.02 0.395407 0 0.04 0.395407 0 0.06 0.395407 0 0.08 0.395407 0 0.1 0.395407 0 0 0.400769 0 0.02 0.400769 0 0.04 0.400769 0 0.06 0.400769 0 0.08 0.400769 0 0.1 0.400769 0 0 0.406317 0 0.02 0.406317 0 0.04 0.406317 0 0.06 0.406317 0 0.08 0.406317 0 0.1 0.406317 0 0 0.412084 0 0.02 0.412084 0 0.04 0.412084 0 0.06 0.412084 0 0.08 0.412084 0 0.1 0.412084 0 0 0.418102 0 0.02 0.418102 0 0.04 0.418102 0 0.06 0.418102 0 0.08 0.418102 0 0.1 0.418102 0 0 0.424402 0 0.02 0.424402 0 0.04 0.424402 0 0.06 0.424402 0 0.08 0.424402 0 0.1 0.424402 0 0 0.43102 0 0.02 0.43102 0 0.04 0.43102 0 0.06 0.43102 0 0.08 0.43102 0 0.1 0.43102 0 0 0.437994 0 0.02 0.437994 0 0.04 0.437994 0 0.06 0.437994 0 0.08 0.437994 0 0.1 0.437994 0 0 0.445372 0 0.02 0.445372 0 0.04 0.445372 0 0.06 0.445372 0 0.08 0.445372 0 0.1 0.445372 0 0 0.45321 0 0.02 0.45321 0 0.04 0.45321 0 0.06 0.45321 0 0.08 0.45321 0 0.1 0.45321 0 0 0.461574 0 0.02 0.461574 0 0.04 0.461574 0 0.06 0.461574 0 0.08 0.461574 0 0.1 0.461574 0 0 0.470542 0 0.02 0.470542 0 0.04 0.470542 0 0.06 0.470542 0 0.08 0.470542 0 0.1 0.470542 0 0 0.480208 0 0.02 0.480208 0 0.04 0.480208 0 0.06 0.480208 0 0.08 0.480208 0 0.1 0.480208 0 0 0.490671 0 0.02 0.490671 0 0.04 0.490671 0 0.06 0.490671 0 0.08 0.490671 0 0.1 0.490671 0 0 0.502004 0 0.02 0.502004 0 0.04 0.502004 0 0.06 0.502004 0 0.08 0.502004 0 0.1 0.502004 0 0 0.514104 0 0.02 0.514104 0 0.04 0.514104 0 0.06 0.514104 0 0.08 0.514104 0 0.1 0.514104 0 0 0.526374 0 0.02 0.526374 0 0.04 0.526374 0 0.06 0.526374 0 0.08 0.526374 0 0.1 0.526374 0 0 0.538438 0 0.02 0.538438 0 0.04 0.538438 0 0.06 0.538438 0 0.08 0.538438 0 0.1 0.538438 0 0 0.550327 0 0.02 0.550327 0 0.04 0.550327 0 0.06 0.550327 0 0.08 0.550327 0 0.1 0.550327 0 0 0.562115 0 0.02 0.562115 0 0.04 0.562115 0 0.06 0.562115 0 0.08 0.562115 0 0.1 0.562115 0 0 0.573872 0 0.02 0.573872 0 0.04 0.573872 0 0.06 0.573872 0 0.08 0.573872 0 0.1 0.573872 0 0 0.585636 0 0.02 0.585636 0 0.04 0.585636 0 0.06 0.585636 0 0.08 0.585636 0 0.1 0.585636 0 0 0.588247 0 0.02 0.588247 0 0.04 0.588247 0 0.06 0.588247 0 0.08 0.588247 0 0.1 0.588247 0 0 0.590784 0 0.02 0.590784 0 0.04 0.590784 0 0.06 0.590784 0 0.08 0.590784 0 0.1 0.590784 0 0 0.593276 0 0.02 0.593276 0 0.04 0.593276 0 0.06 0.593276 0 0.08 0.593276 0 0.1 0.593276 0 0 0.595737 0 0.02 0.595737 0 0.04 0.595737 0 0.06 0.595737 0 0.08 0.595737 0 0.1 0.595737 0 0 0.598177 0 0.02 0.598177 0 0.04 0.598177 0 0.06 0.598177 0 0.08 0.598177 0 0.1 0.598177 0 0 0.6006 0 0.02 0.6006 0 0.04 0.6006 0 0.06 0.6006 0 0.08 0.6006 0 0.1 0.6006 0 0 0.603013 0 0.02 0.603013 0 0.04 0.603013 0 0.06 0.603013 0 0.08 0.603013 0 0.1 0.603013 0 0 0.605418 0 0.02 0.605418 0 0.04 0.605418 0 0.06 0.605418 0 0.08 0.605418 0 0.1 0.605418 0 0 0.607822 0 0.02 0.607822 0 0.04 0.607822 0 0.06 0.607822 0 0.08 0.607822 0 0.1 0.607822 0 0 0.610227 0 0.02 0.610227 0 0.04 0.610227 0 0.06 0.610227 0 0.08 0.610227 0 0.1 0.610227 0 0 0.612635 0 0.02 0.612635 0 0.04 0.612635 0 0.06 0.612635 0 0.08 0.612635 0 0.1 0.612635 0 0 0.615044 0 0.02 0.615044 0 0.04 0.615044 0 0.06 0.615044 0 0.08 0.615044 0 0.1 0.615044 0 0 0.61745 0 0.02 0.61745 0 0.04 0.61745 0 0.06 0.61745 0 0.08 0.61745 0 0.1 0.61745 0 0 0.619851 0 0.02 0.619851 0 0.04 0.619851 0 0.06 0.619851 0 0.08 0.619851 0 0.1 0.619851 0 0 0.622245 0 0.02 0.622245 0 0.04 0.622245 0 0.06 0.622245 0 0.08 0.622245 0 0.1 0.622245 0 0 0.624634 0 0.02 0.624634 0 0.04 0.624634 0 0.06 0.624634 0 0.08 0.624634 0 0.1 0.624634 0 0 0.627019 0 0.02 0.627019 0 0.04 0.627019 0 0.06 0.627019 0 0.08 0.627019 0 0.1 0.627019 0 0 0.629402 0 0.02 0.629402 0 0.04 0.629402 0 0.06 0.629402 0 0.08 0.629402 0 0.1 0.629402 0 0 0.631782 0 0.02 0.631782 0 0.04 0.631782 0 0.06 0.631782 0 0.08 0.631782 0 0.1 0.631782 0 0 0.634163 0 0.02 0.634163 0 0.04 0.634163 0 0.06 0.634163 0 0.08 0.634163 0 0.1 0.634163 0 0 0.636544 0 0.02 0.636544 0 0.04 0.636544 0 0.06 0.636544 0 0.08 0.636544 0 0.1 0.636544 0 0 0.638928 0 0.02 0.638928 0 0.04 0.638928 0 0.06 0.638928 0 0.08 0.638928 0 0.1 0.638928 0 0 0.641315 0 0.02 0.641315 0 0.04 0.641315 0 0.06 0.641315 0 0.08 0.641315 0 0.1 0.641315 0
[...]
			<PointData Scalars="VitesseX">
				<DataArray Name="VitesseX" type="Float32" format="ascii">
 0 -4.38472e-15 -6.79915e-15 -6.43121e-15 -1.26072e-14 0 0 -4.69247e-15 -6.26358e-15 -6.42843e-15 -1.25475e-14 0 0 -4.77865e-15 -5.66083e-15 -5.96798e-15 -1.21412e-14 0 0 -4.02596e-15 -5.49563e-15 -4.68547e-15 -1.17047e-14 0 0 -3.25205e-15 -4.49975e-15 -4.69558e-15 -1.06884e-14 0 0 -2.02305e-15 -3.86468e-15 -5.6577e-15 -8.6787e-15 0 0 -1.5774e-15 -3.46778e-15 -4.16759e-15 -9.12436e-15 0 0 -2.1129e-15 -2.77985e-15 -2.25794e-15 -1.10207e-14 0 0 -1.01544e-15 -3.8685e-15 -1.90262e-15 -9.90638e-15 0 0 -4.07529e-16 -4.50057e-15 -2.73052e-15 -8.54979e-15 0 0 -1.27832e-15 -4.13226e-15 -3.63122e-15 -8.87553e-15 0 0 1.11374e-16 -7.35154e-15 -2.21393e-15 -1.0124e-14 0 0 -1.78113e-15 -6.547e-15 -5.25741e-15 -9.66902e-15 0 0 -3.51668e-15 -4.47091e-15 -1.01792e-14 -1.08435e-14 0 0 -2.66044e-15 -9.24e-15 -6.40649e-15 -1.76919e-14 0 0 -1.53233e-15 -1.26412e-14 -5.54462e-15 -2.07221e-14 0 0 -2.66196e-16 -1.12198e-14 -1.09718e-14 -1.63746e-14 0 0 -3.1576e-15 -1.1759e-14 -1.11218e-14 -1.11429e-14 0 0 -4.58744e-15 -1.27996e-14 -1.08704e-14 -1.1911e-14 0 0 -2.88207e-15 -1.39332e-14 -1.49102e-14 -1.28273e-14 0 0 -5.16093e-15 -9.70333e-15 -1.92455e-14 -1.30659e-14 0 0 -6.14362e-15 -8.73621e-15 -1.61253e-14 -1.28278e-14 0 0 -4.20817e-15 -1.36676e-14 -9.18513e-15 -9.2595e-15 0 0 -4.93773e-15 -1.59158e-14 -1.36912e-15 -6.01592e-15 0 0 -6.09145e-15 -1.64866e-14 2.28169e-15 -4.13414e-15 0 0 -7.86506e-15 -1.28272e-14 -3.23869e-15 -2.51282e-15 0 0 -9.19804e-15 -1.01923e-14 -6.27014e-15 -5.48176e-16 0 0 -1.06531e-14 -7.86136e-15 -4.30451e-15 -4.68344e-16 0 0 -1.04999e-14 -2.75812e-15 -4.7336e-15 -3.1438e-15 0 0 -7.49057e-15 -3.37289e-15 -2.62183e-15 -6.42318e-15 0 0 -7.14352e-15 -6.2793e-15 -4.2773e-15 2.38282e-15 0 0 -7.82158e-15 -3.85682e-15 -1.05086e-14 9.64088e-15 0 0 -4.66601e-15 1.45014e-15 -2.43312e-14 1.46269e-14 0 0 1.43768e-15 -8.57413e-16 -3.47835e-14 2.01191e-14 0 0 5.57369e-15 -8.87134e-15 -2.31011e-14 1.04994e-15 0 0 7.10991e-15 -1.31841e-14 -1.31172e-14 -2.09986e-14 0 0 2.7416e-15 -6.00344e-15 -2.18254e-14 -2.08197e-14 0 0 5.37527e-16 -6.25511e-15 -2.06735e-14 -2.14962e-14 0 0 -8.04373e-16 -1.13764e-14 -1.22115e-14 -3.01783e-14 0 0 -4.67131e-15 -9.11794e-15 -7.04156e-15 -3.62778e-14 0 0 1.09309e-15 -1.04525e-14 -1.21638e-14 -2.94281e-14 0 0 5.47896e-15 -8.15986e-15 -2.53502e-14 -1.78045e-14 0 0 1.67856e-15 -2.7379e-15 -2.79269e-14 -1.6322e-14 0 0 -2.47077e-16 -6.44475e-15 -2.89644e-14 -1.36297e-14 0 0 -3.99242e-15 -7.61467e-15 -2.46901e-14 -9.79387e-15 0 0 -4.1713e-15 -1.19329e-14 -9.4672e-15 -2.51992e-14 0 0 -4.34307e-15 -1.70658e-14 -4.98566e-15 -3.40279e-14 0 0 -9.00191e-15 -9.6127e-15 -1.89364e-14 -1.87557e-14 0 0 -1.0481e-14 -1.07886e-14 -1.63747e-14 -1.3129e-14 0 0 -8.63907e-15 -1.26867e-14 -1.23254e-14 -1.72935e-14 0 0 -6.65072e-15 -1.2433e-14 -2.13475e-14 -2.57505e-14 0 0 -7.06286e-15 -1.51629e-14 -2.29071e-14 -2.63854e-14 0 0 -1.20196e-14 -1.16005e-14 -2.2805e-14 -1.69411e-14 0 0 -2.28034e-14 -1.1059e-14 -2.12877e-14 -9.04816e-15 0 0 -2.03402e-14 -2.55846e-14 -1.57008e-14 -8.42169e-15 0 0 -1.70419e-14 -3.86062e-14 -1.32756e-14 -7.90565e-15 0 0 -2.4097e-14 -3.40462e-14 -7.98171e-15 -1.53025e-14 0 0 -2.1948e-14 -2.50189e-14 -1.18423e-15 -3.02662e-14 0 0 -1.67668e-14 -2.11831e-14 2.15395e-15 -2.89595e-14 0 0 -1.63085e-14 -1.79339e-14 2.04827e-15 -1.84259e-14 0 0 -1.53778e-14 -1.49182e-14 6.23142e-15 -2.13287e-14 0 0 -1.07222e-14 -8.39972e-15 3.98712e-15 -2.47433e-14 0 0 7.03043e-16 2.33421e-15 -8.36508e-16 -2.77606e-14 0 0 1.17688e-14 1.21099e-14 1.50378e-14 -3.9714e-14 0 0 1.97599e-14 2.957e-14 1.82223e-14 -3.34721e-14 0 0 3.01292e-14 3.55474e-14 2.3751e-14 -1.72329e-14 0 0 4.25705e-14 3.89514e-14 3.48936e-14 -2.19744e-15 0 0 4.22483e-14 5.96645e-14 2.55693e-14 1.69297e-15 0 0 3.83282e-14 5.77696e-14 2.75599e-14 8.85058e-15 0 0 4.31708e-14 3.7407e-14 4.82403e-14 2.51248e-14 0 0 4.28133e-14 3.20698e-14 5.41294e-14 3.95966e-14 0 0 2.56563e-14 3.88726e-14 4.3952e-14 5.13284e-14 0 0 1.98058e-14 3.42401e-14 4.36777e-14 4.71081e-14 0 0 2.73671e-14 1.62066e-14 5.47732e-14 3.78428e-14 0 0 2.22649e-14 -5.04745e-15 7.89358e-14 2.90861e-14 0 0 1.36898e-14 1.99151e-15 9.05201e-14 4.73157e-15 0 0 1.08499e-14 6.71333e-15 7.9351e-14 -1.32459e-15 0 0 -1.91069e-16 2.44306e-14 4.48628e-14 7.59851e-15 0 0 7.4754e-15 1.0034e-14 4.35452e-14 6.48166e-15 0 0 7.9562e-15 5.60499e-15 3.70806e-14 2.83033e-14 0 0 -1.7624e-14 4.24418e-14 7.92307e-15 3.7221e-14 0 0 8.74196e-16 3.40492e-14 5.27174e-15 3.56461e-14 0 0 1.74433e-14 2.37499e-14 3.18976e-14 -3.57069e-15 0 0 1.87419e-14 2.32885e-14 2.43951e-14 -1.86082e-14 0 0 6.49629e-15 1.024e-14 3.4501e-14 5.10684e-16 0 0 6.60648e-16 2.20142e-14 4.77347e-14 -6.01736e-15 0 0 1.46522e-14 4.42988e-14 1.6625e-14 1.43477e-15 0 0 6.55812e-15 2.41902e-14 1.7398e-14 9.02725e-15 0 0 1.62997e-14 5.67561e-15 5.85539e-15 1.63381e-14 0 0 1.49389e-14 1.2043e-14 1.14463e-15 2.77025e-14 0 0 3.62449e-15 1.65382e-14 2.27383e-14 1.27169e-14 0 0 1.93665e-14 6.16242e-15 1.22156e-14 -3.91083e-15 0 0 4.44151e-15 8.7769e-15 -1.68592e-14 -7.73978e-15 0 0 -1.36462e-14 -5.91927e-15 -6.04582e-15 -1.94732e-14 0 0 -2.76969e-15 -2.73102e-14 -8.03831e-15 -1.64101e-14 0 0 -1.59441e-14 -3.47436e-14 -3.20435e-14 -2.15488e-14 0 0 -2.05042e-14 -5.61839e-14 -2.68886e-14 -4.68193e-14 0 0 -1.16302e-14 -2.41812e-14 -2.31471e-14 -2.56408e-14 0 0 1.27357e-14 2.59358e-14 3.34119e-14 3.03089e-14 0 0 5.49508e-14 7.92058e-14 9.03052e-14 7.59443e-14 0 0 7.03261e-14 1.34558e-13 1.29132e-13 9.49917e-14 0 0 1.41962e-13 2.38191e-13 2.40321e-13 7.83173e-14 0 0 1.40379e-13 2.67694e-13 2.14504e-13 8.26576e-14 0 0 1.56973e-13 2.48975e-13 2.51827e-13 5.36153e-14 0 0 1.81976e-13 2.25999e-13 2.34087e-13 6.84909e-14 0 0 1.88618e-13 2.33529e-13 2.67519e-13 6.43854e-14 0 0 2.03443e-13 2.36157e-13 2.71054e-13 8.31777e-14 0 0 1.79698e-13 2.42754e-13 2.38043e-13 8.31376e-14 0 0 1.51607e-13 1.83443e-13 2.13718e-13 7.34109e-14 0 0 1.23575e-13 9.61437e-14 1.28126e-13 1.93299e-14 0 0 7.30807e-14 -4.66447e-15 6.63391e-14 -9.26875e-14 0 0 2.97281e-14 -1.29812e-13 -2.81747e-14 -7.15784e-14 0 0 -5.42291e-16 -1.80918e-13 -8.4738e-14 -7.67901e-14 0 0 -2.74525e-14 -1.55947e-13 -8.70891e-14 -9.60847e-14 0 0 -5.58795e-14 -1.41752e-13 -1.06127e-13 -1.49797e-14 0 0 -8.98301e-14 -1.23822e-13 -6.83116e-14 -8.16684e-15 0 0 -8.94048e-14 -1.09115e-13 -1.63515e-14 2.36785e-14 0 0 -7.82399e-14 -6.01694e-14 -5.56936e-14 1.55404e-14 0 0 -2.70614e-14 -7.92875e-14 -8.0935e-15 -8.12145e-14 0 0 7.67227e-14 -2.6603e-13 1.92219e-13 -1.07545e-13 0 0 9.97883e-14 -2.86178e-13 1.8705e-13 -1.5406e-14 0 0 3.66578e-14 -1.40015e-13 3.67325e-14 1.03668e-13 0 0 -9.33913e-15 -1.72489e-14 -5.87703e-14 1.30332e-13 0 0 -1.07557e-15 2.45902e-14 -1.23432e-13 1.71576e-13 0 0 4.63689e-14 -7.90148e-14 -3.46497e-14 1.19889e-13 0 0 3.41302e-14 -1.18615e-13 6.97253e-14 -2.70341e-14 0 0 -4.34905e-14 3.13709e-14 -8.44466e-14 -1.57091e-14 0 0 -5.71402e-14 7.70346e-14 -2.1063e-13 8.12811e-14 0 0 -8.33448e-15 -2.62073e-14 -1.17485e-13 3.79597e-14 0 0 1.86318e-14 -1.0623e-13 3.81947e-16 -8.7456e-14 0 0 -2.01321e-14 -5.39264e-14 -6.12436e-14 -5.29342e-14 0 0 -2.85554e-14 -4.58831e-14 -8.83181e-14 3.43332e-14 0 0 -2.89962e-14 -7.91021e-14 -6.43749e-14 -6.53508e-15 0 0 -3.4907e-14 -9.22962e-16 -1.01657e-13 -5.65808e-14 0 0 -2.34125e-14 1.73486e-14 -2.26726e-14 -7.94243e-14 0 0 -7.97896e-15 -6.63934e-15 2.22688e-14 -3.22132e-14 0 0 1.31814e-14 2.52524e-14 -1.24275e-14 2.76065e-14 0 0 2.69687e-14 3.49361e-14 3.41703e-14 1.99117e-14 0 0 3.31146e-14 2.66821e-14 8.12971e-14 1.87127e-14 0 0 3.74129e-14 4.11333e-14 5.56257e-14 4.61757e-14 0 0 4.45756e-14 4.05234e-14 4.96482e-14 6.35838e-14 0 0 4.09863e-14 3.93074e-14 6.85213e-14 6.00733e-14 0 0 3.50566e-14 3.97315e-14 8.18496e-14 3.60679e-14 0 0 3.17555e-14 3.68766e-14 8.08953e-14 1.91565e-14 0 0 3.27117e-14 4.79536e-14 6.49867e-14 2.31306e-14 0 0 4.1384e-14 4.43303e-14 4.55177e-14 1.6857e-14 0 0 3.7566e-14 4.13312e-14 2.89288e-14 3.43973e-14 0 0 3.06264e-14 4.71417e-14 2.51246e-14 3.75039e-14 0 0 4.23787e-14 3.4147e-14 3.47714e-14 2.15047e-14 0 0 5.69428e-14 1.02519e-14 3.82039e-14 3.2882e-14 0 0 5.814e-14 7.11432e-15 2.18796e-14 3.1694e-14 0 0 3.57015e-14 2.85393e-14 -5.35736e-15 5.04606e-14 0 0 3.54606e-14 1.96544e-14 -1.67708e-14 6.57566e-14 0 0 5.62475e-14 1.07924e-14 -3.375e-14 4.50418e-14 0 0 4.04366e-14 9.75676e-15 -2.89393e-14 1.60703e-14 0 0 2.62526e-14 -6.87819e-15 -2.34337e-14 4.69893e-15 0 0 3.17986e-14 -2.52166e-14 -5.60348e-14 3.05776e-14 0 0 3.07992e-14 -5.94019e-14 -6.7165e-14 6.16552e-14 0 0 4.3169e-14 -7.63905e-14 -9.82241e-14 8.03634e-14 0 0 2.94549e-14 -3.30648e-14 -1.39045e-13 7.12543e-14 0 0 8.59593e-15 -1.06105e-14 -1.75656e-13 6.03131e-14 0 0 -2.0367e-14 -2.11051e-14 -1.37939e-13 6.27109e-14 0 0 -6.27381e-14 6.93015e-15 -1.03109e-13 5.46035e-14 0 0 -3.19886e-14 -2.89338e-15 -1.2631e-13 1.77249e-14 0 0 7.90132e-15 -4.54668e-14 -1.12347e-13 -8.53187e-15 0 0 -2.16928e-14 -1.44891e-14 -1.47198e-13 -2.27282e-14 0 0 -3.87396e-14 -5.55141e-15 -1.41522e-13 -6.07644e-14 0 0 -4.52527e-14 -7.91576e-15 -1.31739e-13 -3.65572e-14 0 0 -4.28054e-14 -3.56165e-14 -1.03897e-13 -1.56941e-14 0 0 -1.18582e-14 -9.10573e-14 -4.168e-14 -7.82421e-14 0 0 8.72717e-15 -7.71507e-14 -7.52757e-14 -9.99359e-14 0 0 1.31136e-15 -4.66109e-14 -9.30716e-14 -8.65638e-14 0 0 -2.24684e-14 -1.24993e-14 -9.82978e-14 -7.99304e-14 0 0 -2.61521e-14 -1.88559e-14 -9.9008e-14 -7.33268e-14 0 0 -1.26201e-14 -5.36445e-14 -8.38028e-14 -5.05426e-14 0 0 -1.7054e-14 -5.40929e-14 -6.82466e-14 -3.65036e-14 0 0 -2.18215e-14 -8.46579e-14 -9.65608e-15 -5.78337e-14 0 0 -1.42284e-14 -7.04882e-14 -4.38244e-14 -2.91395e-14 0 0 1.61179e-14 -6.17253e-14 -7.56321e-14 -2.67737e-14 0 0 2.5956e-14 -5.74561e-14 -6.21634e-14 -1.86955e-14 0 0 -4.89439e-15 -8.46096e-15 -9.97078e-14 5.11447e-14 0 0 5.22389e-15 -3.72744e-14 -5.93452e-14 1.5836e-14 0 0 1.65487e-14 -8.00517e-14 -1.6262e-14 -2.24491e-14 0 0 -3.70341e-15 -5.98972e-14 -4.99269e-14 -1.25474e-14 0 0 7.79105e-15 -5.23179e-14 -5.96093e-14 -6.71027e-14 0 0 -1.19354e-14 -2.85382e-14 -6.11621e-14 -1.07233e-13 0 0 -2.46883e-14 -1.33407e-14 -5.74307e-14 -1.43662e-13 0 0 -1.00637e-14 -4.10644e-14 -5.86889e-14 -1.26952e-13 0 0 -2.04105e-15 -5.11855e-14 -9.95485e-14 -5.62336e-14 0 0 9.61904e-16 -2.55973e-14 -1.43812e-13 -3.26359e-14 0 0 -1.20129e-14 -3.99862e-14 -1.27705e-13 -3.05816e-14 0 0 -2.42533e-14 -2.62005e-14 -1.46998e-13 -2.23701e-14 0 0 -3.95223e-14 7.84254e-15 -1.41984e-13 -7.90103e-14 0 0 -2.29921e-14 -4.75687e-14 -7.88417e-14 -9.80373e-14 0 0 -1.7781e-14 -6.92884e-14 -7.17443e-14 -4.58662e-14 0 0 -3.89639e-14 -6.59738e-14 -5.00343e-14 -1.628e-14 0 0 -2.83533e-14 -7.65063e-14 -4.90965e-14 3.0257e-14 0 0 -3.3175e-14 -5.72549e-14 -5.97213e-14 8.52613e-15 0 0 -5.48751e-14 -2.5253e-14 -6.01375e-14 -4.33626e-14 0 0 -3.55625e-14 -3.96354e-14 -6.20235e-14 -6.0621e-14 0 0 -2.7722e-14 -5.01735e-14 -6.46723e-14 -6.3542e-14 0
				</DataArray>
				<DataArray Name="VitesseY" type="Float32" format="ascii">