<?xml version="1.0"?>
<VTKFile type="PolyData">
	<PolyData>
		<Piece NumberOfPoints="1206" NumberOfPolys="1000">
			<Points>
				<DataArray type="Float32" NumberOfComponents="3" format="ascii">
 0 0 0 0.02 0 0 0.04 0 0 0.06 0 0 0.08 0 0 0.1 0 0 0 0.005 0 0.02 0.005 0 0.04 0.005 0 0.06 0.005 0 0.08 0.005 0 0.1 0.005 0 0 0.01 0 0.02 0.01 0 0.04 0.01 0 0.06 0.01 0 0.08 0.01 0 0.1 0.01 0 0 0.015 0 0.02 0.015 0 0.04 0.015 0 0.06 0.015 0 0.08 0.015 0 0.1 0.015 0 0 0.02 0 0.02 0.02 0 0.04 0.02 0 0.06 0.02 0 0.08 0.02 0 0.1 0.02 0 0 0.025 0 0.02 0.025 0 0.04 0.025 0 0.06 0.025 0 0.08 0.025 0 0.1 0.025 0 0 0.03 0 0.02 0.03 0 0.04 0.03 0 0.06 0.03 0 0.08 0.03 0 0.1 0.03 0 0 0.035 0 0.02 0.035 0 0.04 0.035 0 0.06 0.035 0 0.08 0.035 0 0.1 0.035 0 0 0.04 0 0.02 0.04 0 0.04 0.04 0 0.06 0.04 0 0.08 0.04 0 0.1 0.04 0 0 0.045 0 0.02 0.045 0 0.04 0.045 0 0.06 0.045 0 0.08 0.045 0 0.1 0.045 0 0 0.05 0 0.02 0.05 0 0.04 0.05 0 0.06 0.05 0 0.08 0.05 0 0.1 0.05 0 0 0.055 0 0.02 0.055 0 0.04 0.055 0 0.06 0.055 0 0.08 0.055 0 0.1 0.055 0 0 0.06 0 0.02 0.06 0 0.04 0.06 0 0.06 0.06 0 0.08 0.06 0 0.1 0.06 0 0 0.065 0 0.02 0.065 0 0.04 0.065 0 0.06 0.065 0 0.08 0.065 0 0.1 0.065 0 0 0.07 0 0.02 0.07 0 0.04 0.07 0 0.06 0.07 0 0.08 0.07 0 0.1 0.07 0 0 0.075 0 0.02 0.075 0 0.04 0.075 0 0.06 0.075 0 0.08 0.075 0 0.1 0.075 0 0 0.08 0 0.02 0.08 0 0.04 0.08 0 0.06 0.08 0 0.08 0.08 0 0.1 0.08 0 0 0.085 0 0.02 0.085 0 0.04 0.085 0 0.06 0.085 0 0.08 0.085 0 0.1 0.085 0 0 0.09 0 0.02 0.09 0 0.04 0.09 0 0.06 0.09 0 0.08 0.09 0 0.1 0.09 0 0 0.095 0 0.02 0.095 0 0.04 0.095 0 0.06 0.095 0 0.08 0.095 0 0.1 0.095 0 0 0.1 0 0.02 0.1 0 0.04 0.1 0 0.06 0.1 0 0.08 0.1 0 0.1 0.1 0 0 0.105 0 0.02 0.105 0 0.04 0.105 0 0.06 0.105 0 0.08 0.105 0 0.1 0.105 0 0 0.11 0 0.02 0.11 0 0.04 0.11 0 0.06 0.11 0 0.08 0.11 0 0.1 0.11 0 0 0.115 0 0.02 0.115 0 0.04 0.115 0 0.06 0.115 0 0.08 0.115 0 0.1 0.115 0 0 0.12 0 0.02 0.12 0 0.04 0.12 0 0.06 0.12 0 0.08 0.12 0 0.1 0.12 0 0 0.125 0 0.02 0.125 0 0.04 0.125 0 0.06 0.125 0 0.08 0.125 0 0.1 0.125 0 0 0.13 0 0.02 0.13 0 0.04 0.13 0 0.06 0.13 0 0.08 0.13 0 0.1 0.13 0 0 0.135 0 0.02 0.135 0 0.04 0.135 0 0.06 0.135 0 0.08 0.135 0 0.1 0.135 0 0 0.14 0 0.02 0.14 0 0.04 0.14 0 0.06 0.14 0 0.08 0.14 0 0.1 0.14 0 0 0.145 0 0.02 0.145 0 0.04 0.145 0 0.06 0.145 0 0.08 0.145 0 0.1 0.145 0 0 0.15 0 0.02 0.15 0 0.04 0.15 0 0.06 0.15 0 0.08 0.15 0 0.1 0.15 0 0 0.155 0 0.02 0.155 0 0.04 0.155 0 0.06 0.155 0 0.08 0.155 0 0.1 0.155 0 0 0.16 0 0.02 0.16 0 0.04 0.16 0 0.06 0.16 0 0.08 0.16 0 0.1 0.16 0 0 0.165 0 0.02 0.165 0 0.04 0.165 0 0.06 0.165 0 0.08 0.165 0 0.1 0.165 0 0 0.17 0 0.02 0.17 0 0.04 0.17 0 0.06 0.17 0 0.08 0.17 0 0.1 0.17 0 0 0.175 0 0.02 0.175 0 0.04 0.175 0 0.06 0.175 0 0.08 0.175 0 0.1 0.175 0 0 0.18 0 0.02 0.18 0 0.04 0.18 0 0.06 0.18 0 0.08 0.18 0 0.1 0.18 0 0 0.185 0 0.02 0.185 0 0.04 0.185 0 0.06 0.185 0 0.08 0.185 0 0.1 0.185 0 0 0.19 0 0.02 0.19 0 0.04 0.19 0 0.06 0.19 0 0.08 0.19 0 0.1 0.19 0 0 0.195 0 0.02 0.195 0 0.04 0.195 0 0.06 0.195 0 0.08 0.195 0 0.1 0.195 0 0 0.2 0 0.02 0.2 0 0.04 0.2 0 0.06 0.2 0 0.08 0.2 0 0.1 0.2 0 0 0.205 0 0.02 0.205 0 0.04 0.205 0 0.06 0.205 0 0.08 0.205 0 0.1 0.205 0 0 0.21 0 0.02 0.21 0 0.04 0.21 0 0.06 0.21 0 0.08 0.21 0 0.1 0.21 0 0 0.215 0 0.02 0.215 0 0.04 0.215 0 0.06 0.215 0 0.08 0.215 0 0.1 0.215 0 0 0.22 0 0.02 0.22 0 0.04 0.22 0 0.06 0.22 0 0.08 0.22 0 0.1 0.22 0 0 0.225 0 0.02 0.225 0 0.04 0.225 0 0.06 0.225 0 0.08 0.225 0 0.1 0.225 0 0 0.23 0 0.02 0.23 0 0.04 0.23 0 0.06 0.23 0 0.08 0.23 0 0.1 0.23 0 0 0.235 0 0.02 0.235 0 0.04 0.235 0 0.06 0.235 0 0.08 0.235 0 0.1 0.235 0 0 0.24 0 0.02 0.24 0 0.04 0.24 0 0.06 0.24 0 0.08 0.24 0 0.1 0.24 0 0 0.245 0 0.02 0.245 0 0.04 0.245 0 0.06 0.245 0 0.08 0.245 0 0.1 0.245 0 0 0.25 0 0.02 0.25 0 0.04 0.25 0 0.06 0.25 0 0.08 0.25 0 0.1 0.25 0 0 0.255 0 0.02 0.255 0 0.04 0.255 0 0.06 0.255 0 0.08 0.255 0 0.1 0.255 0 0 0.26 0 0.02 0.26 0 0.04 0.26 0 0.06 0.26 0 0.08 0.26 0 0.1 0.26 0 0 0.265 0 0.02 0.265 0 0.04 0.265 0 0.06 0.265 0 0.08 0.265 0 0.1 0.265 0 0 0.27 0 0.02 0.27 0 0.04 0.27 0 0.06 0.27 0 0.08 0.27 0 0.1 0.27 0 0 0.275 0 0.02 0.275 0 0.04 0.275 0 0.06 0.275 0 0.08 0.275 0 0.1 0.275 0 0 0.28 0 0.02 0.28 0 0.04 0.28 0 0.06 0.28 0 0.08 0.28 0 0.1 0.28 0 0 0.285 0 0.02 0.285 0 0.04 0.285 0 0.06 0.285 0 0.08 0.285 0 0.1 0.285 0 0 0.290001 0 0.02 0.290001 0 0.04 0.290001 0 0.06 0.290001 0 0.08 0.290001 0 0.1 0.290001 0 0 0.295004 0 0.02 0.295004 0 0.04 0.295004 0 0.06 0.295004 0 0.08 0.295004 0 0.1 0.295004 0 0 0.300011 0 0.02 0.300011 0 0.04 0.300011 0 0.06 0.300011 0 0.08 0.300011 0 0.1 0.300011 0 0 0.305028 0 0.02 0.305028 0 0.04 0.305028 0 0.06 0.305028 0 0.08 0.305028 0 0.1 0.305028 0 0 0.310066 0 0.02 0.310066 0 0.04 0.310066 0 0.06 0.310066 0 0.08 0.310066 0 0.1 0.310066 0 0 0.315141 0 0.02 0.315141 0 0.04 0.315141 0 0.06 0.315141 0 0.08 0.315141 0 0.1 0.315141 0 0 0.320273 0 0.02 0.320273 0 0.04 0.320273 0 0.06 0.320273 0 0.08 0.320273 0 0.1 0.320273 0 0 0.325482 0 0.02 0.325482 0 0.04 0.325482 0 0.06 0.325482 0 0.08 0.325482 0 0.1 0.325482 0 0 0.330787 0 0.02 0.330787 0 0.04 0.330787 0 0.06 0.330787 0 0.08 0.330787 0 0.1 0.330787 0 0 0.336203 0 0.02 0.336203 0 0.04 0.336203 0 0.06 0.336203 0 0.08 0.336203 0 0.1 0.336203 0 0 0.341744 0 0.02 0.341744 0 0.04 0.341744 0 0.06 0.341744 0 0.08 0.341744 0 0.1 0.341744 0 0 0.34742 0 0.02 0.34742 0 0.04 0.34742 0 0.06 0.34742 0 0.08 0.34742 0 0.1 0.34742 0 0 0.353242 0 0.02 0.353242 0 0.04 0.353242 0 0.06 0.353242 0 0.08 0.353242 0 0.1 0.353242 0 0 0.359219 0 0.02 0.359219 0 0.04 0.359219 0 0.06 0.359219 0 0.08 0.359219 0 0.1 0.359219 0 0 0.365364 0 0.02 0.365364 0 0.04 0.365364 0 0.06 0.365364 0 0.08 0.365364 0 0.1 0.365364 0 0 0.371687 0 0.02 0.371687 0 0.04 0.371687 0 0.06 0.371687 0 0.08 0.371687 0 0.1 0.371687 0 0 0.378201 0 0.02 0.378201 0 0.04 0.378201 0 0.06 0.378201 0 0.08 0.378201 0 0.1 0.378201 0 0 0.38492 0 0.02 0.38492 0 0.04 0.38492 0 0.06 0.38492 0 0.08 0.38492 0 0.1 0.38492 0 0 0.39186 0 0.02 0.39186 0 0.04 0.39186 0 0.06 0.39186 0 0.08 0.39186 0 0.1 0.39186 0 0 0.399036 0 0.02 0.399036 0 0.04 0.399036 0 0.06 0.399036 0 0.08 0.399036 0 0.1 0.399036 0 0 0.406468 0 0.02 0.406468 0 0.04 0.406468 0 0.06 0.406468 0 0.08 0.406468 0 0.1 0.406468 0 0 0.414177 0 0.02 0.414177 0 0.04 0.414177 0 0.06 0.414177 0 0.08 0.414177 0 0.1 0.414177 0 0 0.422186 0 0.02 0.422186 0 0.04 0.422186 0 0.06 0.422186 0 0.08 0.422186 0 0.1 0.422186 0 0 0.430521 0 0.02 0.430521 0 0.04 0.430521 0 0.06 0.430521 0 0.08 0.430521 0 0.1 0.430521 0 0 0.439212 0 0.02 0.439212 0 0.04 0.439212 0 0.06 0.439212 0 0.08 0.439212 0 0.1 0.439212 0 0 0.448293 0 0.02 0.448293 0 0.04 0.448293 0 0.06 0.448293 0 0.08 0.448293 0 0.1 0.448293 0 0 0.457801 0 0.02 0.457801 0 0.04 0.457801 0 0.06 0.457801 0 0.08 0.457801 0 0.1 0.457801 0 0 0.467776 0 0.02 0.467776 0 0.04 0.467776 0 0.06 0.467776 0 0.08 0.467776 0 0.1 0.467776 0 0 0.47826 0 0.02 0.47826 0 0.04 0.47826 0 0.06 0.47826 0 0.08 0.47826 0 0.1 0.47826 0 0 0.489289 0 0.02 0.489289 0 0.04 0.489289 0 0.06 0.489289 0 0.08 0.489289 0 0.1 0.489289 0 0 0.50087 0 0.02 0.50087 0 0.04 0.50087 0 0.06 0.50087 0 0.08 0.50087 0 0.1 0.50087 0 0 0.51291 0 0.02 0.51291 0 0.04 0.51291 0 0.06 0.51291 0 0.08 0.51291 0 0.1 0.51291 0 0 0.525083 0 0.02 0.525083 0 0.04 0.525083 0 0.06 0.525083 0 0.08 0.525083 0 0.1 0.525083 0 0 0.53715 0 0.02 0.53715 0 0.04 0.53715 0 0.06 0.53715 0 0.08 0.53715 0 0.1 0.53715 0 0 0.549106 0 0.02 0.549106 0 0.04 0.549106 0 0.06 0.549106 0 0.08 0.549106 0 0.1 0.549106 0 0 0.560963 0 0.02 0.560963 0 0.04 0.560963 0 0.06 0.560963 0 0.08 0.560963 0 0.1 0.560963 0 0 0.572756 0 0.02 0.572756 0 0.04 0.572756 0 0.06 0.572756 0 0.08 0.572756 0 0.1 0.572756 0 0 0.584513 0 0.02 0.584513 0 0.04 0.584513 0 0.06 0.584513 0 0.08 0.584513 0 0.1 0.584513 0 0 0.596254 0 0.02 0.596254 0 0.04 0.596254 0 0.06 0.596254 0 0.08 0.596254 0 0.1 0.596254 0 0 0.607988 0 0.02 0.607988 0 0.04 0.607988 0 0.06 0.607988 0 0.08 0.607988 0 0.1 0.607988 0 0 0.61972 0 0.02 0.61972 0 0.04 0.61972 0 0.06 0.61972 0 0.08 0.61972 0 0.1 0.61972 0 0 0.631452 0 0.02 0.631452 0 0.04 0.631452 0 0.06 0.631452 0 0.08 0.631452 0 0.1 0.631452 0 0 0.643201 0 0.02 0.643201 0 0.04 0.643201 0 0.06 0.643201 0 0.08 0.643201 0 0.1 0.643201 0 0 0.645811 0 0.02 0.645811 0 0.04 0.645811 0 0.06 0.645811 0 0.08 0.645811 0 0.1 0.645811 0 0 0.648348 0 0.02 0.648348 0 0.04 0.648348 0 0.06 0.648348 0 0.08 0.648348 0 0.1 0.648348 0 0 0.650839 0 0.02 0.650839 0 0.04 0.650839 0 0.06 0.650839 0 0.08 0.650839 0 0.1 0.650839 0 0 0.653299 0 0.02 0.653299 0 0.04 0.653299 0 0.06 0.653299 0 0.08 0.653299 0 0.1 0.653299 0 0 0.655738 0 0.02 0.655738 0 0.04 0.655738 0 0.06 0.655738 0 0.08 0.655738 0 0.1 0.655738 0 0 0.658161 0 0.02 0.658161 0 0.04 0.658161 0 0.06 0.658161 0 0.08 0.658161 0 0.1 0.658161 0 0 0.660576 0 0.02 0.660576 0 0.04 0.660576 0 0.06 0.660576 0 0.08 0.660576 0 0.1 0.660576 0 0 0.662988 0 0.02 0.662988 0 0.04 0.662988 0 0.06 0.662988 0 0.08 0.662988 0 0.1 0.662988 0 0 0.665401 0 0.02 0.665401 0 0.04 0.665401 0 0.06 0.665401 0 0.08 0.665401 0 0.1 0.665401 0 0 0.667799 0 0.02 0.667799 0 0.04 0.667799 0 0.06 0.667799 0 0.08 0.667799 0 0.1 0.667799 0 0 0.670185 0 0.02 0.670185 0 0.04 0.670185 0 0.06 0.670185 0 0.08 0.670185 0 0.1 0.670185 0 0 0.672566 0 0.02 0.672566 0 0.04 0.672566 0 0.06 0.672566 0 0.08 0.672566 0 0.1 0.672566 0 0 0.674943 0 0.02 0.674943 0 0.04 0.674943 0 0.06 0.674943 0 0.08 0.674943 0 0.1 0.674943 0 0 0.677319 0 0.02 0.677319 0 0.04 0.677319 0 0.06 0.677319 0 0.08 0.677319 0 0.1 0.677319 0 0 0.67969 0 0.02 0.67969 0 0.04 0.67969 0 0.06 0.67969 0 0.08 0.67969 0 0.1 0.67969 0 0 0.68206 0 0.02 0.68206 0 0.04 0.68206 0 0.06 0.68206 0 0.08 0.68206 0 0.1 0.68206 0 0 0.684429 0 0.02 0.684429 0 0.04 0.684429 0 0.06 0.684429 0 0.08 0.684429 0 0.1 0.684429 0 0 0.686795 0 0.02 0.686795 0 0.04 0.686795 0 0.06 0.686795 0 0.08 0.686795 0 0.1 0.686795 0 0 0.689159 0 0.02 0.689159 0 0.04 0.689159 0 0.06 0.689159 0 0.08 0.689159 0 0.1 0.689159 0 0 0.691522 0 0.02 0.691522 0 0.04 0.691522 0 0.06 0.691522 0 0.08 0.69152
[...]
			<PointData Scalars="VitesseX">
				<DataArray Name="VitesseX" type="Float32" format="ascii">
 0 2.16041e-15 6.70603e-15 -3.55785e-15 8.73577e-15 0 0 2.28261e-15 6.47239e-15 -3.57632e-15 8.93536e-15 0 0 2.05999e-15 6.32299e-15 -3.37369e-15 9.39179e-15 0 0 1.98557e-15 4.90101e-15 -1.76461e-15 9.23192e-15 0 0 1.62565e-15 4.34216e-15 -1.09649e-15 8.48175e-15 0 0 1.35473e-15 5.64666e-15 -1.36294e-15 7.37481e-15 0 0 3.088e-15 4.81362e-15 6.77505e-16 3.88034e-15 0 0 2.52247e-15 6.03459e-15 1.60042e-16 1.46017e-15 0 0 3.07016e-17 8.51738e-15 -1.18648e-15 3.4785e-16 0 0 -1.59845e-15 7.87583e-15 1.15294e-15 -7.0341e-16 0 0 1.47485e-16 2.03771e-15 4.70577e-15 1.81816e-15 0 0 3.5886e-15 -3.51088e-15 4.15466e-15 6.73569e-15 0 0 3.9458e-15 -4.20012e-15 2.0328e-15 9.76492e-15 0 0 2.33643e-15 3.93638e-16 -1.54691e-15 1.08842e-14 0 0 -4.61921e-16 2.30709e-15 5.64145e-16 8.42635e-15 0 0 -2.92865e-15 1.24977e-15 3.37701e-15 7.81895e-15 0 0 -3.80916e-15 5.00454e-15 -1.08975e-15 1.05798e-14 0 0 -1.31696e-16 6.65229e-15 -4.73442e-15 8.59578e-15 0 0 2.14921e-15 8.12328e-15 -6.31104e-15 4.22702e-15 0 0 -2.55094e-16 1.01898e-14 -6.72604e-15 7.08019e-16 0 0 -2.40762e-15 6.95199e-15 -6.19706e-15 4.83787e-16 0 0 3.03406e-16 -2.65528e-15 -9.06229e-17 -2.086e-15 0 0 2.13313e-15 -4.3339e-15 -8.99698e-16 -1.88086e-15 0 0 1.04253e-16 -1.79242e-15 -3.60156e-15 3.82704e-15 0 0 5.3484e-15 -8.50554e-15 1.13487e-15 4.08894e-15 0 0 6.48525e-15 -7.65026e-15 -1.44071e-16 8.33955e-16 0 0 -3.45717e-15 -1.08737e-15 -3.69394e-15 2.62761e-15 0 0 -1.05203e-14 -3.17626e-15 4.09036e-15 -4.98842e-16 0 0 -3.41063e-15 -9.6103e-15 4.61099e-15 -6.30756e-15 0 0 1.97427e-16 -6.45378e-15 -1.14139e-14 -1.71187e-15 0 0 -1.34649e-15 2.71969e-15 -2.12793e-14 -4.61878e-15 0 0 -1.02337e-16 1.03837e-14 -1.74766e-14 -1.56108e-14 0 0 8.30212e-17 1.16983e-15 -3.38918e-15 -1.82529e-14 0 0 4.77473e-15 -1.3405e-14 -1.93237e-16 -1.50568e-14 0 0 8.52382e-15 -2.15278e-14 8.67445e-15 -1.67588e-14 0 0 5.44752e-15 -2.06037e-14 8.6283e-15 -1.12398e-14 0 0 2.50763e-15 -1.02962e-14 -7.9475e-15 -1.67007e-15 0 0 -2.45211e-15 1.12331e-15 -1.53165e-14 5.48878e-15 0 0 -4.89735e-15 7.42574e-15 -1.67704e-14 2.0383e-14 0 0 -4.28114e-15 -2.33982e-15 3.60588e-15 1.53692e-14 0 0 -1.29421e-15 -9.93585e-15 2.85582e-14 -1.87724e-15 0 0 4.92841e-15 -3.77295e-15 2.98577e-14 -2.75714e-15 0 0 -7.54756e-15 1.26886e-14 1.91549e-14 -2.65104e-15 0 0 -9.51084e-15 9.30251e-15 1.6767e-14 6.58033e-15 0 0 -3.24308e-15 1.98128e-14 1.10718e-14 8.65449e-15 0 0 6.98401e-15 3.14444e-14 3.38937e-15 -5.2423e-15 0 0 1.02064e-14 2.19653e-14 1.04611e-14 -1.63927e-14 0 0 -2.13182e-15 1.7254e-14 8.84512e-15 -2.99039e-14 0 0 1.06891e-14 -7.60869e-15 7.69635e-15 -1.86213e-14 0 0 -9.62186e-15 -8.01285e-15 1.67565e-14 -2.09936e-14 0 0 -5.37408e-14 2.6699e-14 -1.65442e-14 -2.55956e-14 0 0 -3.83719e-14 1.24489e-14 -4.74225e-14 1.78282e-14 0 0 -3.47358e-14 -1.4308e-14 -2.6919e-14 3.57728e-14 0 0 -5.0026e-14 -1.63448e-14 -3.97218e-15 1.16467e-14 0 0 -2.85428e-14 -3.64673e-14 -2.34015e-14 1.20096e-14 0 0 -1.37493e-14 -5.78902e-14 -3.20223e-14 4.84978e-15 0 0 -3.15639e-14 -4.38547e-14 -1.58382e-14 -3.08258e-14 0 0 -3.34218e-14 -2.38735e-14 -9.65676e-15 -4.27546e-14 0 0 -3.8557e-14 -1.61558e-14 -1.03587e-14 -1.07562e-15 0 0 -4.11252e-14 -1.27894e-14 7.42691e-16 -2.20137e-15 0 0 -9.59341e-15 -1.41961e-14 1.53393e-14 -4.33728e-14 0 0 4.14223e-15 -1.79424e-14 1.42259e-14 -4.20472e-14 0 0 -8.00066e-15 -1.85151e-14 1.06174e-14 -2.60784e-14 0 0 -7.17983e-15 -2.59942e-14 1.58935e-15 -2.95698e-15 0 0 -1.78099e-14 -9.20537e-15 -2.05729e-14 1.72167e-14 0 0 -2.50823e-14 -6.01419e-15 -1.78076e-14 1.88871e-14 0 0 -2.39771e-14 -2.89412e-14 1.38782e-15 3.18093e-14 0 0 -1.0438e-14 -2.60761e-14 -8.29432e-16 3.74591e-14 0 0 2.16255e-15 -4.68279e-15 -5.03339e-15 1.89538e-14 0 0 -2.14416e-14 2.69097e-14 -8.22892e-15 -4.88884e-15 0 0 -7.24596e-15 6.40301e-15 -2.63818e-14 -1.86633e-14 0 0 1.92374e-14 -1.34132e-14 -2.03234e-14 2.36438e-16 0 0 7.22196e-15 1.21781e-14 -1.7472e-14 2.13742e-14 0 0 -4.4233e-15 -1.25639e-14 9.40956e-15 8.1433e-15 0 0 6.22024e-15 -3.06481e-14 4.12606e-14 -2.03389e-14 0 0 2.0943e-14 3.04344e-15 7.64451e-15 -1.2218e-14 0 0 2.58577e-14 1.14496e-14 -2.65758e-14 1.84342e-14 0 0 5.80303e-15 1.59015e-14 -3.30883e-14 1.30179e-14 0 0 1.39531e-14 -3.68001e-15 -7.64681e-15 -3.66602e-15 0 0 3.11921e-14 -1.29044e-14 -8.39498e-15 1.83411e-15 0 0 -5.10918e-15 6.02786e-15 -1.23171e-14 2.50787e-15 0 0 -2.18323e-14 -1.28314e-14 1.7862e-14 -8.5066e-15 0 0 -1.44441e-14 -3.60732e-15 1.6791e-14 -1.49158e-15 0 0 2.01141e-14 -5.80252e-15 2.21449e-14 -7.83191e-15 0 0 3.26555e-14 -1.94873e-15 3.05651e-16 -9.01183e-15 0 0 1.08454e-14 1.81179e-14 -6.48747e-16 3.87805e-15 0 0 6.61028e-15 1.05417e-14 1.93655e-14 6.97265e-15 0 0 -4.53792e-15 2.51931e-14 -1.69152e-15 2.5896e-14 0 0 2.05623e-14 3.412e-14 1.02117e-14 4.55477e-14 0 0 4.07894e-14 6.03614e-14 4.58171e-14 2.96297e-14 0 0 3.69153e-14 5.75413e-14 6.65267e-14 -8.94884e-16 0 0 -6.99155e-15 -1.16026e-14 1.86392e-14 -3.24626e-14 0 0 -1.00234e-13 -1.37215e-13 -1.21937e-13 -1.03027e-13 0 0 -2.11015e-13 -3.19834e-13 -3.21478e-13 -2.04703e-13 0 0 -3.20073e-13 -5.06184e-13 -5.15875e-13 -3.09144e-13 0 0 -3.87474e-13 -6.32705e-13 -6.32377e-13 -4.02309e-13 0 0 -4.18858e-13 -6.73249e-13 -6.84718e-13 -4.30267e-13 0 0 -4.12472e-13 -6.77549e-13 -6.8408e-13 -4.25647e-13 0 0 -4.15106e-13 -6.64429e-13 -6.77425e-13 -4.19292e-13 0 0 -4.45584e-13 -7.02341e-13 -7.03324e-13 -4.66923e-13 0 0 -5.09714e-13 -8.24071e-13 -8.14337e-13 -5.31716e-13 0 0 -8.51624e-13 -1.39266e-12 -1.37198e-12 -7.48593e-13 0 0 -8.13879e-13 -1.37211e-12 -1.34903e-12 -7.28426e-13 0 0 -8.50556e-13 -1.395e-12 -1.35038e-12 -7.97534e-13 0 0 -8.97544e-13 -1.42352e-12 -1.40209e-12 -8.08815e-13 0 0 -9.21773e-13 -1.46907e-12 -1.45774e-12 -8.08061e-13 0 0 -9.2458e-13 -1.45319e-12 -1.47386e-12 -7.92748e-13 0 0 -7.37006e-13 -1.16012e-12 -1.1527e-12 -6.46673e-13 0 0 -2.41012e-13 -3.25876e-13 -3.31615e-13 -1.91219e-13 0 0 3.79298e-13 6.87132e-13 6.37401e-13 4.26149e-13 0 0 9.36774e-13 1.53186e-12 1.50511e-12 9.75111e-13 0 0 1.29407e-12 2.09924e-12 2.09494e-12 1.33378e-12 0 0 1.42328e-12 2.344e-12 2.28424e-12 1.4427e-12 0 0 1.38561e-12 2.31093e-12 2.24099e-12 1.39027e-12 0 0 1.277e-12 2.14631e-12 2.13038e-12 1.31774e-12 0 0 1.15918e-12 1.9399e-12 1.91434e-12 1.16727e-12 0 0 1.0233e-12 1.66106e-12 1.67427e-12 1.02077e-12 0 0 8.67936e-13 1.41724e-12 1.49447e-12 9.0177e-13 0 0 7.23695e-13 1.2307e-12 1.21421e-12 7.44136e-13 0 0 5.87946e-13 1.03366e-12 9.79716e-13 6.00958e-13 0 0 4.67046e-13 8.13371e-13 8.71627e-13 4.92527e-13 0 0 4.01992e-13 6.08074e-13 7.3787e-13 3.7487e-13 0 0 3.15183e-13 4.68094e-13 5.74572e-13 3.79247e-13 0 0 2.18118e-13 3.54226e-13 4.19495e-13 2.77324e-13 0 0 1.32806e-13 2.51731e-13 3.1684e-13 1.57321e-13 0 0 4.71952e-14 1.35343e-13 2.2526e-13 1.52696e-13 0 0 -4.35509e-14 6.47815e-14 7.00993e-14 1.13392e-13 0 0 -1.34029e-13 -8.09482e-15 -9.25842e-14 5.80303e-14 0 0 -1.91333e-13 -1.62313e-13 -2.12487e-13 -8.46948e-14 0 0 -2.1825e-13 -3.43386e-13 -3.05514e-13 -1.77383e-13 0 0 -2.35339e-13 -4.84841e-13 -3.91266e-13 -2.79534e-13 0 0 -3.05849e-13 -5.74788e-13 -5.32386e-13 -3.67178e-13 0 0 -3.78327e-13 -6.48698e-13 -6.76755e-13 -4.06256e-13 0 0 -4.1758e-13 -7.27152e-13 -8.0909e-13 -4.3181e-13 0 0 -4.56551e-13 -8.2749e-13 -8.9749e-13 -5.25909e-13 0 0 -5.04747e-13 -9.42156e-13 -9.50438e-13 -6.12916e-13 0 0 -5.94932e-13 -1.00985e-12 -1.07774e-12 -6.51906e-13 0 0 -6.78746e-13 -1.06658e-12 -1.18126e-12 -7.20378e-13 0 0 -7.38986e-13 -1.1428e-12 -1.24267e-12 -7.69914e-13 0 0 -8.10245e-13 -1.20498e-12 -1.33019e-12 -8.01753e-13 0 0 -8.67157e-13 -1.33115e-12 -1.40069e-12 -8.39693e-13 0 0 -9.03085e-13 -1.43102e-12 -1.50547e-12 -8.77141e-13 0 0 -9.6202e-13 -1.49778e-12 -1.55741e-12 -9.02375e-13 0 0 -1.02298e-12 -1.56222e-12 -1.61607e-12 -9.50537e-13 0 0 -1.00641e-12 -1.63803e-12 -1.72402e-12 -1.01422e-12 0 0 -1.00342e-12 -1.69921e-12 -1.79342e-12 -1.06505e-12 0 0 -1.07772e-12 -1.68531e-12 -1.84607e-12 -1.11346e-12 0 0 -1.08985e-12 -1.67591e-12 -1.87985e-12 -1.17623e-12 0 0 -1.08742e-12 -1.67701e-12 -1.88811e-12 -1.20813e-12 0 0 -1.10735e-12 -1.72601e-12 -1.86174e-12 -1.16561e-12 0 0 -1.04199e-12 -1.69549e-12 -1.76366e-12 -1.16015e-12 0 0 -9.80227e-13 -1.60373e-12 -1.65221e-12 -1.09329e-12 0 0 -8.88408e-13 -1.41434e-12 -1.57417e-12 -1.01433e-12 0 0 -7.56983e-13 -1.28605e-12 -1.43352e-12 -9.44165e-13 0 0 -6.2838e-13 -1.06236e-12 -1.05973e-12 -6.70377e-13 0 0 -4.68085e-13 -7.9715e-13 -7.98719e-13 -5.50511e-13 0 0 -3.19526e-13 -5.32713e-13 -5.50743e-13 -3.58626e-13 0 0 -2.16071e-13 -2.90646e-13 -3.32524e-13 -1.70752e-13 0 0 -1.09896e-13 -1.33346e-13 -2.20995e-13 -1.40351e-13 0 0 -5.78375e-14 -6.60968e-14 -1.16782e-13 -9.94216e-14 0 0 -2.19617e-14 -5.5891e-14 -5.43853e-14 -8.00164e-14 0 0 -6.00237e-15 -4.39282e-14 -7.11776e-14 -4.11486e-14 0 0 -9.99188e-15 -3.46451e-14 -6.79959e-14 -5.33799e-14 0 0 -2.07432e-14 -3.45804e-14 -4.31404e-14 -8.78596e-14 0 0 -2.13703e-14 -3.9269e-14 -4.75043e-14 -9.2528e-14 0 0 -2.36894e-14 -1.29932e-14 -6.29238e-14 -1.10522e-13 0 0 -1.99502e-14 -2.14582e-14 -8.11066e-14 -5.62796e-14 0 0 -1.48387e-14 -4.08077e-14 -5.93012e-14 -4.03413e-14 0 0 -2.89113e-14 -3.28423e-14 -6.17993e-14 -5.92305e-14 0 0 -2.52093e-14 -2.98394e-14 -1.03604e-13 -7.50825e-15 0 0 -9.12752e-15 -4.98329e-14 -1.11098e-13 1.70661e-14 0 0 5.3529e-16 -8.12931e-14 -9.08692e-14 4.28015e-15 0 0 -1.63412e-14 -7.62796e-14 -7.21181e-14 -1.35322e-14 0 0 -4.20253e-14 -7.50469e-14 -4.68306e-14 -2.35095e-14 0 0 -5.82906e-14 -6.19135e-14 -5.21213e-14 -1.14952e-14 0 0 -5.78312e-14 -5.45599e-14 -6.15948e-14 -7.66364e-15 0 0 -3.56996e-14 -9.89348e-14 -3.0835e-14 1.33637e-14 0 0 -2.68811e-14 -9.80509e-14 -1.9387e-14 3.88301e-14 0 0 -2.72604e-14 -4.19564e-14 -5.39066e-14 5.46407e-14 0 0 -5.06385e-15 -2.34206e-14 -5.33873e-14 7.05099e-14 0 0 3.02175e-14 -3.28151e-14 -2.48299e-14 7.12724e-14 0 0 3.54365e-14 1.09044e-14 -4.82875e-14 1.14349e-13 0 0 -5.03623e-15 1.02108e-13 -7.19628e-14 1.12209e-13 0 0 -1.63372e-14 8.59726e-14 -4.49651e-14 5.17171e-14 0 0 3.25027e-14 -3.84853e-14 4.08995e-14 -3.97005e-14 0 0 3.19471e-14 -7.37855e-14 9.63908e-14 -1.47419e-13 0 0 -9.27429e-15 6.65801e-15 2.96801e-14 -7.28645e-14 0 0 -2.39872e-14 8.42627e-14 -7.32801e-14 6.01509e-14 0 0 7.3623e-15 4.45473e-14 -7.73235e-14 8.43377e-14 0 0 1.85719e-14 -2.56099e-14 -1.38095e-14 9.44498e-14 0 0 -2.79701e-14 2.3336e-14 -1.15768e-14 5.92174e-14 0 0 9.83106e-15 6.63731e-16 1.86074e-14 -3.4859e-14 0 0 2.0145e-15 1.27017e-14 -1.70724e-14 -2.7607e-14 0 0 -3.00826e-14 4.72007e-14 -7.92859e-14 3.11452e-14 0 0 -7.56182e-15 1.40163e-14 -9.35476e-14 5.68208e-14 0 0 3.85319e-15 2.01496e-14 -8.36897e-14 4.4363e-14 0 0 2.11876e-14 -1.16213e-14 -1.45988e-14 -3.53577e-14 0 0 3.70846e-14 -6.00097e-14 8.70633e-15 -8.80942e-14 0 0 6.4169e-14 -9.56734e-14 -6.13746e-15 -4.8778e-14 0 0 3.24868e-14 -8.09729e-14 -7.16313e-15 -8.45311e-15 0 0 -3.48934e-15 -6.38064e-14 4.61487e-15 -1.24222e-14 0
				</DataArray>
				<DataArray Name="VitesseY" type="Float32" format="ascii">