<?xml version="1.0"?>
<VTKFile type="PolyData">
	<PolyData>
		<Piece NumberOfPoints="1206" NumberOfPolys="1000">
			<Points>
				<DataArray type="Float32" NumberOfComponents="3" format="ascii">
 0 0 0 0.02 0 0 0.04 0 0 0.06 0 0 0.08 0 0 0.1 0 0 0 0.005 0 0.02 0.005 0 0.04 0.005 0 0.06 0.005 0 0.08 0.005 0 0.1 0.005 0 0 0.01 0 0.02 0.01 0 0.04 0.01 0 0.06 0.01 0 0.08 0.01 0 0.1 0.01 0 0 0.015 0 0.02 0.015 0 0.04 0.015 0 0.06 0.015 0 0.08 0.015 0 0.1 0.015 0 0 0.02 0 0.02 0.02 0 0.04 0.02 0 0.06 0.02 0 0.08 0.02 0 0.1 0.02 0 0 0.025 0 0.02 0.025 0 0.04 0.025 0 0.06 0.025 0 0.08 0.025 0 0.1 0.025 0 0 0.03 0 0.02 0.03 0 0.04 0.03 0 0.06 0.03 0 0.08 0.03 0 0.1 0.03 0 0 0.035 0 0.02 0.035 0 0.04 0.035 0 0.06 0.035 0 0.08 0.035 0 0.1 0.035 0 0 0.04 0 0.02 0.04 0 0.04 0.04 0 0.06 0.04 0 0.08 0.04 0 0.1 0.04 0 0 0.045 0 0.02 0.045 0 0.04 0.045 0 0.06 0.045 0 0.08 0.045 0 0.1 0.045 0 0 0.05 0 0.02 0.05 0 0.04 0.05 0 0.06 0.05 0 0.08 0.05 0 0.1 0.05 0 0 0.055 0 0.02 0.055 0 0.04 0.055 0 0.06 0.055 0 0.08 0.055 0 0.1 0.055 0 0 0.06 0 0.02 0.06 0 0.04 0.06 0 0.06 0.06 0 0.08 0.06 0 0.1 0.06 0 0 0.065 0 0.02 0.065 0 0.04 0.065 0 0.06 0.065 0 0.08 0.065 0 0.1 0.065 0 0 0.07 0 0.02 0.07 0 0.04 0.07 0 0.06 0.07 0 0.08 0.07 0 0.1 0.07 0 0 0.075 0 0.02 0.075 0 0.04 0.075 0 0.06 0.075 0 0.08 0.075 0 0.1 0.075 0 0 0.08 0 0.02 0.08 0 0.04 0.08 0 0.06 0.08 0 0.08 0.08 0 0.1 0.08 0 0 0.085 0 0.02 0.085 0 0.04 0.085 0 0.06 0.085 0 0.08 0.085 0 0.1 0.085 0 0 0.09 0 0.02 0.09 0 0.04 0.09 0 0.06 0.09 0 0.08 0.09 0 0.1 0.09 0 0 0.095 0 0.02 0.095 0 0.04 0.095 0 0.06 0.095 0 0.08 0.095 0 0.1 0.095 0 0 0.1 0 0.02 0.1 0 0.04 0.1 0 0.06 0.1 0 0.08 0.1 0 0.1 0.1 0 0 0.105 0 0.02 0.105 0 0.04 0.105 0 0.06 0.105 0 0.08 0.105 0 0.1 0.105 0 0 0.11 0 0.02 0.11 0 0.04 0.11 0 0.06 0.11 0 0.08 0.11 0 0.1 0.11 0 0 0.115 0 0.02 0.115 0 0.04 0.115 0 0.06 0.115 0 0.08 0.115 0 0.1 0.115 0 0 0.12 0 0.02 0.12 0 0.04 0.12 0 0.06 0.12 0 0.08 0.12 0 0.1 0.12 0 0 0.125 0 0.02 0.125 0 0.04 0.125 0 0.06 0.125 0 0.08 0.125 0 0.1 0.125 0 0 0.13 0 0.02 0.13 0 0.04 0.13 0 0.06 0.13 0 0.08 0.13 0 0.1 0.13 0 0 0.135 0 0.02 0.135 0 0.04 0.135 0 0.06 0.135 0 0.08 0.135 0 0.1 0.135 0 0 0.14 0 0.02 0.14 0 0.04 0.14 0 0.06 0.14 0 0.08 0.14 0 0.1 0.14 0 0 0.145 0 0.02 0.145 0 0.04 0.145 0 0.06 0.145 0 0.08 0.145 0 0.1 0.145 0 0 0.15 0 0.02 0.15 0 0.04 0.15 0 0.06 0.15 0 0.08 0.15 0 0.1 0.15 0 0 0.155 0 0.02 0.155 0 0.04 0.155 0 0.06 0.155 0 0.08 0.155 0 0.1 0.155 0 0 0.16 0 0.02 0.16 0 0.04 0.16 0 0.06 0.16 0 0.08 0.16 0 0.1 0.16 0 0 0.165 0 0.02 0.165 0 0.04 0.165 0 0.06 0.165 0 0.08 0.165 0 0.1 0.165 0 0 0.17 0 0.02 0.17 0 0.04 0.17 0 0.06 0.17 0 0.08 0.17 0 0.1 0.17 0 0 0.175 0 0.02 0.175 0 0.04 0.175 0 0.06 0.175 0 0.08 0.175 0 0.1 0.175 0 0 0.18 0 0.02 0.18 0 0.04 0.18 0 0.06 0.18 0 0.08 0.18 0 0.1 0.18 0 0 0.185 0 0.02 0.185 0 0.04 0.185 0 0.06 0.185 0 0.08 0.185 0 0.1 0.185 0 0 0.19 0 0.02 0.19 0 0.04 0.19 0 0.06 0.19 0 0.08 0.19 0 0.1 0.19 0 0 0.195 0 0.02 0.195 0 0.04 0.195 0 0.06 0.195 0 0.08 0.195 0 0.1 0.195 0 0 0.2 0 0.02 0.2 0 0.04 0.2 0 0.06 0.2 0 0.08 0.2 0 0.1 0.2 0 0 0.205 0 0.02 0.205 0 0.04 0.205 0 0.06 0.205 0 0.08 0.205 0 0.1 0.205 0 0 0.21 0 0.02 0.21 0 0.04 0.21 0 0.06 0.21 0 0.08 0.21 0 0.1 0.21 0 0 0.215 0 0.02 0.215 0 0.04 0.215 0 0.06 0.215 0 0.08 0.215 0 0.1 0.215 0 0 0.22 0 0.02 0.22 0 0.04 0.22 0 0.06 0.22 0 0.08 0.22 0 0.1 0.22 0 0 0.225 0 0.02 0.225 0 0.04 0.225 0 0.06 0.225 0 0.08 0.225 0 0.1 0.225 0 0 0.23 0 0.02 0.23 0 0.04 0.23 0 0.06 0.23 0 0.08 0.23 0 0.1 0.23 0 0 0.235 0 0.02 0.235 0 0.04 0.235 0 0.06 0.235 0 0.08 0.235 0 0.1 0.235 0 0 0.24 0 0.02 0.24 0 0.04 0.24 0 0.06 0.24 0 0.08 0.24 0 0.1 0.24 0 0 0.245 0 0.02 0.245 0 0.04 0.245 0 0.06 0.245 0 0.08 0.245 0 0.1 0.245 0 0 0.25 0 0.02 0.25 0 0.04 0.25 0 0.06 0.25 0 0.08 0.25 0 0.1 0.25 0 0 0.255 0 0.02 0.255 0 0.04 0.255 0 0.06 0.255 0 0.08 0.255 0 0.1 0.255 0 0 0.26 0 0.02 0.26 0 0.04 0.26 0 0.06 0.26 0 0.08 0.26 0 0.1 0.26 0 0 0.265 0 0.02 0.265 0 0.04 0.265 0 0.06 0.265 0 0.08 0.265 0 0.1 0.265 0 0 0.27 0 0.02 0.27 0 0.04 0.27 0 0.06 0.27 0 0.08 0.27 0 0.1 0.27 0 0 0.275001 0 0.02 0.275001 0 0.04 0.275001 0 0.06 0.275001 0 0.08 0.275001 0 0.1 0.275001 0 0 0.280002 0 0.02 0.280002 0 0.04 0.280002 0 0.06 0.280002 0 0.08 0.280002 0 0.1 0.280002 0 0 0.285006 0 0.02 0.285006 0 0.04 0.285006 0 0.06 0.285006 0 0.08 0.285006 0 0.1 0.285006 0 0 0.290017 0 0.02 0.290017 0 0.04 0.290017 0 0.06 0.290017 0 0.08 0.290017 0 0.1 0.290017 0 0 0.295041 0 0.02 0.295041 0 0.04 0.295041 0 0.06 0.295041 0 0.08 0.295041 0 0.1 0.295041 0 0 0.300091 0 0.02 0.300091 0 0.04 0.300091 0 0.06 0.300091 0 0.08 0.300091 0 0.1 0.300091 0 0 0.305183 0 0.02 0.305183 0 0.04 0.305183 0 0.06 0.305183 0 0.08 0.305183 0 0.1 0.305183 0 0 0.310336 0 0.02 0.310336 0 0.04 0.310336 0 0.06 0.310336 0 0.08 0.310336 0 0.1 0.310336 0 0 0.315569 0 0.02 0.315569 0 0.04 0.315569 0 0.06 0.315569 0 0.08 0.315569 0 0.1 0.315569 0 0 0.320897 0 0.02 0.320897 0 0.04 0.320897 0 0.06 0.320897 0 0.08 0.320897 0 0.1 0.320897 0 0 0.326333 0 0.02 0.326333 0 0.04 0.326333 0 0.06 0.326333 0 0.08 0.326333 0 0.1 0.326333 0 0 0.331888 0 0.02 0.331888 0 0.04 0.331888 0 0.06 0.331888 0 0.08 0.331888 0 0.1 0.331888 0 0 0.337572 0 0.02 0.337572 0 0.04 0.337572 0 0.06 0.337572 0 0.08 0.337572 0 0.1 0.337572 0 0 0.343393 0 0.02 0.343393 0 0.04 0.343393 0 0.06 0.343393 0 0.08 0.343393 0 0.1 0.343393 0 0 0.34936 0 0.02 0.34936 0 0.04 0.34936 0 0.06 0.34936 0 0.08 0.34936 0 0.1 0.34936 0 0 0.355484 0 0.02 0.355484 0 0.04 0.355484 0 0.06 0.355484 0 0.08 0.355484 0 0.1 0.355484 0 0 0.361773 0 0.02 0.361773 0 0.04 0.361773 0 0.06 0.361773 0 0.08 0.361773 0 0.1 0.361773 0 0 0.36824 0 0.02 0.36824 0 0.04 0.36824 0 0.06 0.36824 0 0.08 0.36824 0 0.1 0.36824 0 0 0.374897 0 0.02 0.374897 0 0.04 0.374897 0 0.06 0.374897 0 0.08 0.374897 0 0.1 0.374897 0 0 0.381755 0 0.02 0.381755 0 0.04 0.381755 0 0.06 0.381755 0 0.08 0.381755 0 0.1 0.381755 0 0 0.388829 0 0.02 0.388829 0 0.04 0.388829 0 0.06 0.388829 0 0.08 0.388829 0 0.1 0.388829 0 0 0.396136 0 0.02 0.396136 0 0.04 0.396136 0 0.06 0.396136 0 0.08 0.396136 0 0.1 0.396136 0 0 0.403693 0 0.02 0.403693 0 0.04 0.403693 0 0.06 0.403693 0 0.08 0.403693 0 0.1 0.403693 0 0 0.411518 0 0.02 0.411518 0 0.04 0.411518 0 0.06 0.411518 0 0.08 0.411518 0 0.1 0.411518 0 0 0.419635 0 0.02 0.419635 0 0.04 0.419635 0 0.06 0.419635 0 0.08 0.419635 0 0.1 0.419635 0 0 0.428067 0 0.02 0.428067 0 0.04 0.428067 0 0.06 0.428067 0 0.08 0.428067 0 0.1 0.428067 0 0 0.436841 0 0.02 0.436841 0 0.04 0.436841 0 0.06 0.436841 0 0.08 0.436841 0 0.1 0.436841 0 0 0.445988 0 0.02 0.445988 0 0.04 0.445988 0 0.06 0.445988 0 0.08 0.445988 0 0.1 0.445988 0 0 0.455542 0 0.02 0.455542 0 0.04 0.455542 0 0.06 0.455542 0 0.08 0.455542 0 0.1 0.455542 0 0 0.465538 0 0.02 0.465538 0 0.04 0.465538 0 0.06 0.465538 0 0.08 0.465538 0 0.1 0.465538 0 0 0.476014 0 0.02 0.476014 0 0.04 0.476014 0 0.06 0.476014 0 0.08 0.476014 0 0.1 0.476014 0 0 0.487004 0 0.02 0.487004 0 0.04 0.487004 0 0.06 0.487004 0 0.08 0.487004 0 0.1 0.487004 0 0 0.498515 0 0.02 0.498515 0 0.04 0.498515 0 0.06 0.498515 0 0.08 0.498515 0 0.1 0.498515 0 0 0.510482 0 0.02 0.510482 0 0.04 0.510482 0 0.06 0.510482 0 0.08 0.510482 0 0.1 0.510482 0 0 0.522638 0 0.02 0.522638 0 0.04 0.522638 0 0.06 0.522638 0 0.08 0.522638 0 0.1 0.522638 0 0 0.534706 0 0.02 0.534706 0 0.04 0.534706 0 0.06 0.534706 0 0.08 0.534706 0 0.1 0.534706 0 0 0.54667 0 0.02 0.54667 0 0.04 0.54667 0 0.06 0.54667 0 0.08 0.54667 0 0.1 0.54667 0 0 0.558537 0 0.02 0.558537 0 0.04 0.558537 0 0.06 0.558537 0 0.08 0.558537 0 0.1 0.558537 0 0 0.570334 0 0.02 0.570334 0 0.04 0.570334 0 0.06 0.570334 0 0.08 0.570334 0 0.1 0.570334 0 0 0.582091 0 0.02 0.582091 0 0.04 0.582091 0 0.06 0.582091 0 0.08 0.582091 0 0.1 0.582091 0 0 0.59383 0 0.02 0.59383 0 0.04 0.59383 0 0.06 0.59383 0 0.08 0.59383 0 0.1 0.59383 0 0 0.60556 0 0.02 0.60556 0 0.04 0.60556 0 0.06 0.60556 0 0.08 0.60556 0 0.1 0.60556 0 0 0.617288 0 0.02 0.617288 0 0.04 0.617288 0 0.06 0.617288 0 0.08 0.617288 0 0.1 0.617288 0 0 0.629014 0 0.02 0.629014 0 0.04 0.629014 0 0.06 0.629014 0 0.08 0.629014 0 0.1 0.629014 0 0 0.640742 0 0.02 0.640742 0 0.04 0.640742 0 0.06 0.640742 0 0.08 0.640742 0 0.1 0.640742 0 0 0.652484 0 0.02 0.652484 0 0.04 0.652484 0 0.06 0.652484 0 0.08 0.652484 0 0.1 0.652484 0 0 0.655092 0 0.02 0.655092 0 0.04 0.655092 0 0.06 0.655092 0 0.08 0.655092 0 0.1 0.655092 0 0 0.657626 0 0.02 0.657626 0 0.04 0.657626 0 0.06 0.657626 0 0.08 0.657626 0 0.1 0.657626 0 0 0.660115 0 0.02 0.660115 0 0.04 0.660115 0 0.06 0.660115 0 0.08 0.660115 0 0.1 0.660115 0 0 0.662573 0 0.02 0.662573 0 0.04 0.662573 0 0.06 0.662573 0 0.08 0.662573 0 0.1 0.662573 0 0 0.66501 0 0.02 0.66501 0 0.04 0.66501 0 0.06 0.66501 0 0.08 0.66501 0 0.1 0.66501 0 0 0.667431 0 0.02 0.667431 0 0.04 0.667431 0 0.06 0.667431 0 0.08 0.667431 0 0.1 0.667431 0 0 0.669841 0 0.02 0.669841 0 0.04 0.669841 0 0.06 0.669841 0 0.08 0.669841 0 0.1 0.669841 0 0 0.672244 0 0.02 0.672244 0 0.04 0.672244 0 0.06 0.672244 0 0.08 0.672244 0 0.1 0.672244 0 0 0.674644 0 0.02 0.674644 0 0.04 0.674644 0 0.06 0.674644 0 0.08 0.674644 0 0.1 0.674644 0 0 0.677047 0 0.02 0.677047 0 0.04 0.677047 0 0.06 0.677047 0 0.08 0.677047 0 0.1 0.677047 0 0 0.679451 0 0.02 0.679451 0 0.04 0.679451 0 0.06 0.679451 0 0.08 0.679451 0 0.1 0.679451 0 0 0.681857 0 0.02 0.681857 0 0.04 0.681857 0 0.06 0.681857 0 0.08 0.681857 0 0.1 0.681857 0 0 0.68426 0 0.02 0.68426 0 0.04 0.68426 0 0.06 0.68426 0 0.08 0.68426 0 0.1 0.68426 0 0 0.686658 0 0.02 0.686658 0 0.04 0.686658 0 0.06 0.686658 0 0.08 0.686658 0 0.1 0.686658 0 0 0.689048 0 0.02 0.689048 0 0.04 0.689048 0 0.06 0.689048 0 0.08 0.689048 0 0.1 0.689048 0 0 0.691434 0 0.02 0.691434 0 0.04 0.691434 0 0.06 0.691434 0 0.08 0.691434 0 0.1 0.691434 0 0 0.693815 0 0.02 0.693815 0 0.04 0.693815 0 0.06 0.693815 0 0.08 0.693815 0 0.1 0.693815 0 0 0.696193 0 0.02 0.696193 0 0.04 0.696193 0 0.06 0.696193 0 0.08 0.696193 0 0.1 0.696193 0 0 0.698569 0 0.02 0.698569 0 0.04 0.698569 0 0.06 0.698569 0 0.08 0.698569 0 0.1 0.6985
[...]
			<PointData Scalars="VitesseX">
				<DataArray Name="VitesseX" type="Float32" format="ascii">
 0 -2.24571e-15 -3.72753e-15 -1.18393e-15 -2.72465e-15 0 0 -1.95564e-15 -3.68166e-15 -2.13627e-17 -3.32366e-15 0 0 -1.46517e-15 -2.79953e-15 2.29981e-15 -4.21388e-15 0 0 -1.51947e-15 -2.83203e-17 4.04765e-15 -3.86009e-15 0 0 -3.41206e-16 2.28872e-15 6.64203e-15 -3.0749e-15 0 0 2.48173e-15 3.45747e-15 8.30619e-15 -1.13714e-15 0 0 3.97604e-15 6.2418e-15 6.37731e-15 3.79313e-15 0 0 3.98192e-15 9.51413e-15 4.14059e-15 7.50941e-15 0 0 5.39596e-15 9.90094e-15 3.15472e-15 7.73391e-15 0 0 7.07118e-15 9.51635e-15 1.80038e-15 8.45199e-15 0 0 6.33238e-15 1.20211e-14 -9.84653e-16 1.17125e-14 0 0 6.38223e-15 1.19783e-14 -1.55456e-15 1.32816e-14 0 0 7.69782e-15 9.23673e-15 5.30938e-16 1.08022e-14 0 0 8.56526e-15 8.01088e-15 -8.01993e-16 1.12353e-14 0 0 8.11535e-15 6.1434e-15 -3.09265e-16 1.04407e-14 0 0 7.35367e-15 5.24295e-15 2.87954e-16 7.75564e-15 0 0 6.22151e-15 6.94108e-15 -1.66829e-15 6.4795e-15 0 0 5.47078e-15 7.58331e-15 -5.03324e-16 3.2461e-15 0 0 3.9098e-15 5.4729e-15 3.48664e-15 3.17939e-15 0 0 1.3787e-15 4.78011e-15 9.66652e-15 2.52846e-15 0 0 6.82095e-16 5.35174e-15 1.39149e-14 -3.73094e-16 0 0 1.12387e-15 6.93215e-15 1.29725e-14 -1.50337e-15 0 0 2.56911e-15 1.01844e-14 1.37161e-14 -4.99897e-15 0 0 4.0819e-15 1.01458e-14 1.21199e-14 1.48333e-15 0 0 2.85382e-15 1.01642e-14 9.03079e-15 7.08002e-15 0 0 5.64411e-15 4.68839e-15 1.64435e-14 6.00625e-15 0 0 6.24677e-15 4.70833e-15 1.6049e-14 7.7007e-15 0 0 4.00694e-15 6.75366e-15 1.16138e-14 9.86127e-15 0 0 4.23497e-15 6.31311e-15 1.41633e-14 1.24306e-14 0 0 2.52149e-15 4.36055e-15 2.16656e-14 1.40578e-14 0 0 2.4872e-15 7.92191e-16 2.5051e-14 1.883e-14 0 0 2.52403e-15 2.89975e-15 2.53378e-14 1.37302e-14 0 0 2.8752e-15 -3.67941e-16 3.27585e-14 7.08555e-15 0 0 1.09567e-15 3.84518e-15 2.48248e-14 1.38877e-14 0 0 2.7681e-15 7.87909e-15 1.91078e-14 9.89325e-15 0 0 7.75659e-15 5.89142e-15 1.99429e-14 5.71401e-15 0 0 6.46496e-15 1.30646e-14 1.00784e-14 9.99072e-15 0 0 5.5325e-15 1.5788e-14 1.05429e-14 9.4217e-15 0 0 5.0052e-15 2.03697e-14 9.53799e-15 1.29872e-14 0 0 5.37062e-15 2.33115e-14 1.50405e-14 1.18083e-14 0 0 7.53907e-15 1.86699e-14 1.90959e-14 1.52064e-14 0 0 1.02131e-14 2.32491e-14 1.53337e-14 1.74482e-14 0 0 1.90909e-14 3.04725e-14 3.06785e-14 8.09847e-15 0 0 3.36864e-14 3.53452e-14 4.93715e-14 1.63702e-15 0 0 3.19397e-14 5.35146e-14 5.58412e-14 9.39961e-15 0 0 2.30137e-14 7.47357e-14 6.59425e-14 2.91636e-14 0 0 3.34831e-14 7.88042e-14 7.50119e-14 3.78557e-14 0 0 4.71756e-14 8.14665e-14 6.24107e-14 3.69378e-14 0 0 4.80447e-14 7.45074e-14 6.01642e-14 4.05545e-14 0 0 4.0039e-14 6.93601e-14 6.3949e-14 4.61685e-14 0 0 4.51681e-14 5.60259e-14 6.48751e-14 5.34146e-14 0 0 4.25183e-14 4.44006e-14 7.02385e-14 6.51259e-14 0 0 2.26776e-14 3.66901e-14 7.67313e-14 5.69152e-14 0 0 1.93109e-14 3.22223e-14 5.51641e-14 5.4211e-14 0 0 -3.15767e-15 5.25589e-14 2.29894e-14 5.43233e-14 0 0 -7.95258e-15 4.45462e-14 1.68859e-14 5.50238e-14 0 0 1.33959e-15 2.71539e-14 1.79945e-14 5.2381e-14 0 0 -7.3687e-15 1.88634e-14 2.9154e-14 1.34769e-14 0 0 -1.90466e-14 2.27587e-14 2.40877e-14 -8.07998e-15 0 0 -1.25687e-14 1.29914e-14 1.73784e-14 -1.02812e-14 0 0 -6.67393e-15 -8.62874e-15 1.74684e-14 -1.25127e-14 0 0 -3.47304e-15 -6.91602e-15 1.07499e-14 -2.15366e-14 0 0 5.07399e-15 1.92716e-14 -1.52832e-15 -4.34753e-14 0 0 8.414e-15 2.18791e-14 -2.58215e-14 -3.04852e-14 0 0 3.28039e-14 7.73595e-15 -3.72935e-14 -2.89984e-14 0 0 1.8814e-14 3.09666e-14 -4.4248e-14 -3.54391e-14 0 0 -1.68291e-16 2.54876e-14 -3.07851e-14 -1.97669e-14 0 0 2.8218e-14 -1.08256e-14 -9.3624e-15 -3.04466e-14 0 0 3.21433e-14 -4.5445e-15 -1.42841e-14 -2.67025e-14 0 0 5.73526e-15 2.09409e-14 -2.32512e-14 -1.33518e-14 0 0 -4.47983e-15 1.65651e-14 -1.26743e-14 -2.08944e-14 0 0 9.64134e-15 -7.30995e-16 1.56255e-14 -3.82432e-14 0 0 1.48007e-15 -4.7437e-15 2.07278e-14 -2.54069e-14 0 0 -2.38267e-14 2.75181e-15 -3.78635e-15 6.46854e-15 0 0 -4.52387e-15 4.5265e-15 -2.67846e-14 1.52922e-15 0 0 8.43385e-15 9.8564e-15 -2.29115e-14 1.389e-15 0 0 -2.58839e-14 2.56823e-14 -1.57049e-14 1.28326e-15 0 0 -1.14962e-14 -2.48109e-15 -1.30323e-14 -2.94654e-14 0 0 1.58063e-14 -6.72836e-15 -2.4419e-14 -4.61709e-14 0 0 7.16625e-16 1.76698e-14 -2.50689e-14 -5.21307e-14 0 0 -1.95454e-14 6.34776e-15 -1.41711e-14 -3.24388e-14 0 0 -1.10091e-14 1.53011e-14 -4.19523e-14 2.44499e-14 0 0 1.56948e-14 1.82391e-14 -2.92249e-14 -1.08729e-15 0 0 1.7984e-14 4.33973e-15 -6.85434e-15 -1.60865e-14 0 0 -1.02714e-14 -8.73997e-15 9.48553e-15 -8.76985e-15 0 0 -1.37611e-14 -6.01864e-15 3.5636e-15 -2.90613e-14 0 0 -1.9e-14 1.09277e-14 -1.87475e-14 -3.66917e-14 0 0 -3.55605e-14 -2.40742e-15 -7.59602e-15 -1.45591e-15 0 0 6.81726e-15 -1.36608e-15 -1.3318e-14 1.89904e-14 0 0 2.28927e-14 9.89329e-15 -1.40034e-14 -1.25777e-14 0 0 6.4918e-15 6.24803e-15 -4.17717e-15 -2.08928e-15 0 0 5.73462e-15 1.58226e-14 7.70657e-16 2.83072e-14 0 0 2.09725e-14 3.21532e-14 1.44922e-14 3.21065e-14 0 0 2.68516e-14 5.38843e-14 3.96735e-14 1.75931e-14 0 0 3.23965e-14 6.40949e-14 5.2775e-14 2.97151e-14 0 0 4.17957e-14 6.1231e-14 5.61233e-14 3.98043e-14 0 0 3.31584e-14 5.10285e-14 5.39437e-14 3.437e-14 0 0 2.17567e-14 3.63902e-14 5.0873e-14 3.04536e-14 0 0 1.85147e-14 4.16321e-14 3.6831e-14 2.80491e-14 0 0 2.10716e-14 5.20528e-14 2.41377e-14 3.83025e-14 0 0 2.15489e-14 5.60398e-14 5.35212e-14 5.13974e-14 0 0 5.40386e-14 7.15341e-14 8.4527e-14 2.21876e-14 0 0 4.17944e-14 6.26409e-14 9.0343e-14 6.20266e-14 0 0 3.6157e-14 6.46447e-14 9.9751e-14 8.00702e-14 0 0 5.01569e-14 9.42221e-14 7.45344e-14 1.92046e-14 0 0 4.09748e-14 1.11861e-13 8.80489e-14 7.27092e-14 0 0 5.57927e-14 8.04509e-14 1.0174e-13 1.09288e-13 0 0 3.99922e-14 8.57441e-14 7.94616e-14 4.70378e-14 0 0 2.45464e-14 6.90131e-14 1.48945e-14 8.98277e-14 0 0 -2.92877e-14 -1.75274e-14 -3.95463e-14 8.98489e-15 0 0 -8.69889e-14 -1.32829e-13 -1.18114e-13 -8.24888e-14 0 0 -1.33668e-13 -2.21442e-13 -1.7201e-13 -1.44725e-13 0 0 -1.68043e-13 -2.63378e-13 -2.03491e-13 -2.24611e-13 0 0 -1.55927e-13 -2.93641e-13 -2.65019e-13 -1.56299e-13 0 0 -1.62678e-13 -2.59326e-13 -2.73016e-13 -1.30692e-13 0 0 -1.69738e-13 -2.40942e-13 -2.11982e-13 -1.39586e-13 0 0 -1.78689e-13 -2.12171e-13 -1.68883e-13 -1.34313e-13 0 0 -1.73776e-13 -1.59063e-13 -1.86132e-13 -1.49715e-13 0 0 -1.4643e-13 -1.74904e-13 -1.5441e-13 -1.08943e-13 0 0 -1.2067e-13 -1.80536e-13 -1.15465e-13 -5.74647e-14 0 0 -1.16085e-13 -1.21845e-13 -1.26796e-13 -4.92557e-14 0 0 -1.04818e-13 -9.73161e-14 -1.37386e-13 -3.42182e-14 0 0 -9.68101e-14 -9.1037e-14 -1.1131e-13 -6.07005e-15 0 0 -9.83169e-14 -6.0827e-14 -7.70124e-14 -4.34262e-14 0 0 -7.05017e-14 -5.24987e-14 -1.11593e-14 -5.75266e-14 0 0 -4.91205e-14 -5.92163e-14 2.54248e-14 -5.78366e-14 0 0 -3.58947e-14 -5.29975e-14 -6.4568e-15 -5.3039e-14 0 0 -4.02254e-15 -5.67727e-14 3.60122e-14 -1.18127e-14 0 0 1.14914e-14 -5.34463e-14 7.95498e-14 -1.15648e-14 0 0 2.03603e-14 -5.74768e-14 7.68719e-14 3.26605e-15 0 0 4.71166e-14 -6.9191e-14 1.11716e-13 1.91185e-15 0 0 2.99134e-14 -3.41492e-14 1.17103e-13 1.01244e-14 0 0 8.50916e-15 2.21914e-14 4.54853e-14 2.34769e-14 0 0 -1.05088e-14 7.84356e-14 2.92753e-14 7.6285e-14 0 0 -1.48543e-14 1.00663e-13 -6.16003e-15 1.68105e-13 0 0 -6.48777e-15 1.38852e-13 -3.24256e-14 1.51979e-13 0 0 -3.24793e-15 1.38507e-13 5.56412e-14 4.67288e-14 0 0 4.55456e-14 6.38027e-14 1.3165e-13 1.62155e-14 0 0 9.04996e-14 9.66574e-15 2.07271e-13 -1.01038e-14 0 0 9.94334e-14 5.91947e-15 2.3233e-13 2.96605e-14 0 0 9.68721e-14 6.23145e-14 1.55873e-13 5.45042e-14 0 0 6.88084e-14 1.64348e-13 5.28016e-16 6.04039e-14 0 0 6.74781e-14 2.00037e-13 -6.86324e-14 8.22671e-14 0 0 9.13574e-14 1.51237e-13 1.14999e-14 3.98524e-14 0 0 1.14072e-13 9.87974e-14 8.08414e-14 6.38668e-14 0 0 8.32556e-14 1.43104e-13 3.97571e-14 1.14433e-13 0 0 -2.82354e-15 2.81611e-13 -8.21595e-14 1.53653e-13 0 0 -1.5332e-14 2.59444e-13 3.74237e-16 1.10316e-13 0 0 2.03422e-15 2.211e-13 7.64068e-14 1.16274e-13 0 0 4.98021e-14 1.41846e-13 1.41252e-13 1.39038e-13 0 0 1.00164e-13 3.97607e-14 1.86808e-13 1.92011e-13 0 0 1.23269e-13 6.46937e-14 1.02743e-13 2.15033e-13 0 0 1.35874e-13 9.70109e-14 8.73913e-14 7.70254e-14 0 0 1.36254e-13 6.71369e-14 1.7451e-13 6.23852e-14 0 0 7.56273e-14 8.02665e-14 1.97839e-13 7.55307e-14 0 0 2.88726e-14 1.4418e-13 1.7102e-13 -1.63093e-14 0 0 4.0362e-14 1.47405e-13 1.53026e-13 -6.87195e-14 0 0 5.7074e-14 1.58191e-13 1.45397e-13 -1.04178e-14 0 0 1.32041e-13 9.00181e-14 1.83299e-13 6.04571e-14 0 0 1.62352e-13 1.16294e-13 1.43679e-13 1.46049e-13 0 0 1.15691e-13 1.82204e-13 1.31959e-13 1.48378e-13 0 0 1.10881e-13 1.69982e-13 1.35398e-13 7.97709e-14 0 0 1.36993e-13 2.01182e-13 1.3478e-13 4.12398e-14 0 0 1.28657e-13 2.19937e-13 1.65882e-13 3.92404e-14 0 0 1.28511e-13 2.20118e-13 1.64517e-13 9.11282e-14 0 0 1.46347e-13 2.18417e-13 1.72493e-13 1.01301e-13 0 0 1.58108e-13 2.13992e-13 2.00702e-13 1.05816e-13 0 0 1.58057e-13 2.33087e-13 1.92135e-13 1.12363e-13 0 0 1.55796e-13 2.42582e-13 1.64346e-13 1.55276e-13 0 0 1.69913e-13 2.30169e-13 1.82538e-13 1.54489e-13 0 0 1.68316e-13 2.39277e-13 2.24571e-13 7.44058e-14 0 0 1.53278e-13 2.64512e-13 2.2618e-13 8.75422e-14 0 0 1.53577e-13 2.60976e-13 2.27504e-13 9.86428e-14 0 0 1.48469e-13 2.60894e-13 2.12794e-13 1.20649e-13 0 0 1.52879e-13 2.26778e-13 2.34985e-13 1.0936e-13 0 0 1.68646e-13 1.94311e-13 2.51702e-13 9.17113e-14 0 0 1.53709e-13 2.10933e-13 2.17835e-13 1.31856e-13 0 0 1.51954e-13 1.98807e-13 1.90007e-13 1.46676e-13 0 0 1.56037e-13 2.0364e-13 1.47706e-13 1.71353e-13 0 0 1.38786e-13 2.03004e-13 1.43287e-13 1.42051e-13 0 0 1.36712e-13 1.65235e-13 2.04101e-13 2.25927e-14 0 0 1.14055e-13 1.70218e-13 1.85953e-13 8.55185e-15 0 0 1.04849e-13 1.68449e-13 1.54021e-13 2.05151e-14 0 0 9.35719e-14 1.55023e-13 1.79705e-13 -2.07447e-14 0 0 8.14373e-14 1.4774e-13 1.62341e-13 -2.31069e-14 0 0 1.1101e-13 9.43079e-14 1.54213e-13 -2.07437e-15 0 0 1.20596e-13 5.58682e-14 1.48627e-13 2.70661e-14 0 0 1.06893e-13 3.5556e-14 1.57215e-13 3.34221e-15 0 0 1.0919e-13 1.16241e-14 1.34714e-13 2.28749e-14 0 0 9.68597e-14 3.38402e-14 9.10249e-14 4.04943e-14 0 0 4.33393e-14 1.26952e-13 2.89121e-14 4.3446e-14 0 0 5.06671e-14 1.39496e-13 6.14949e-15 6.56516e-14 0 0 7.24075e-14 9.57487e-14 4.27502e-14 6.03893e-14 0 0 5.31008e-14 9.96527e-14 6.50923e-14 3.7203e-14 0 0 3.90187e-14 9.95848e-14 6.25387e-14 4.11063e-14 0 0 2.54127e-14 1.00221e-13 5.18155e-14 4.60604e-14 0 0 2.08958e-14 1.16504e-13 6.8472e-14 -1.42571e-14 0 0 3.87977e-14 1.2197e-13 6.6509e-14 -3.10381e-14 0 0 7.36292e-14 7.92651e-14 5.97849e-14 3.70931e-14 0 0 6.20298e-14 7.04342e-14 7.4619e-14 5.21592e-14 0 0 3.29107e-14 9.72364e-14 7.62984e-14 3.12595e-14 0
				</DataArray>
				<DataArray Name="VitesseY" type="Float32" format="ascii">