<?xml version="1.0"?>
<VTKFile type="PolyData">
	<PolyData>
		<Piece NumberOfPoints="1206" NumberOfPolys="1000">
			<Points>
				<DataArray type="Float32" NumberOfComponents="3" format="ascii">
 0 0 0 0.02 0 0 0.04 0 0 0.06 0 0 0.08 0 0 0.1 0 0 0 0.005 0 0.02 0.005 0 0.04 0.005 0 0.06 0.005 0 0.08 0.005 0 0.1 0.005 0 0 0.01 0 0.02 0.01 0 0.04 0.01 0 0.06 0.01 0 0.08 0.01 0 0.1 0.01 0 0 0.015 0 0.02 0.015 0 0.04 0.015 0 0.06 0.015 0 0.08 0.015 0 0.1 0.015 0 0 0.02 0 0.02 0.02 0 0.04 0.02 0 0.06 0.02 0 0.08 0.02 0 0.1 0.02 0 0 0.025 0 0.02 0.025 0 0.04 0.025 0 0.06 0.025 0 0.08 0.025 0 0.1 0.025 0 0 0.03 0 0.02 0.03 0 0.04 0.03 0 0.06 0.03 0 0.08 0.03 0 0.1 0.03 0 0 0.035 0 0.02 0.035 0 0.04 0.035 0 0.06 0.035 0 0.08 0.035 0 0.1 0.035 0 0 0.04 0 0.02 0.04 0 0.04 0.04 0 0.06 0.04 0 0.08 0.04 0 0.1 0.04 0 0 0.045 0 0.02 0.045 0 0.04 0.045 0 0.06 0.045 0 0.08 0.045 0 0.1 0.045 0 0 0.05 0 0.02 0.05 0 0.04 0.05 0 0.06 0.05 0 0.08 0.05 0 0.1 0.05 0 0 0.055 0 0.02 0.055 0 0.04 0.055 0 0.06 0.055 0 0.08 0.055 0 0.1 0.055 0 0 0.06 0 0.02 0.06 0 0.04 0.06 0 0.06 0.06 0 0.08 0.06 0 0.1 0.06 0 0 0.065 0 0.02 0.065 0 0.04 0.065 0 0.06 0.065 0 0.08 0.065 0 0.1 0.065 0 0 0.07 0 0.02 0.07 0 0.04 0.07 0 0.06 0.07 0 0.08 0.07 0 0.1 0.07 0 0 0.075 0 0.02 0.075 0 0.04 0.075 0 0.06 0.075 0 0.08 0.075 0 0.1 0.075 0 0 0.08 0 0.02 0.08 0 0.04 0.08 0 0.06 0.08 0 0.08 0.08 0 0.1 0.08 0 0 0.085 0 0.02 0.085 0 0.04 0.085 0 0.06 0.085 0 0.08 0.085 0 0.1 0.085 0 0 0.09 0 0.02 0.09 0 0.04 0.09 0 0.06 0.09 0 0.08 0.09 0 0.1 0.09 0 0 0.095 0 0.02 0.095 0 0.04 0.095 0 0.06 0.095 0 0.08 0.095 0 0.1 0.095 0 0 0.1 0 0.02 0.1 0 0.04 0.1 0 0.06 0.1 0 0.08 0.1 0 0.1 0.1 0 0 0.105 0 0.02 0.105 0 0.04 0.105 0 0.06 0.105 0 0.08 0.105 0 0.1 0.105 0 0 0.11 0 0.02 0.11 0 0.04 0.11 0 0.06 0.11 0 0.08 0.11 0 0.1 0.11 0 0 0.115 0 0.02 0.115 0 0.04 0.115 0 0.06 0.115 0 0.08 0.115 0 0.1 0.115 0 0 0.12 0 0.02 0.12 0 0.04 0.12 0 0.06 0.12 0 0.08 0.12 0 0.1 0.12 0 0 0.125 0 0.02 0.125 0 0.04 0.125 0 0.06 0.125 0 0.08 0.125 0 0.1 0.125 0 0 0.13 0 0.02 0.13 0 0.04 0.13 0 0.06 0.13 0 0.08 0.13 0 0.1 0.13 0 0 0.135 0 0.02 0.135 0 0.04 0.135 0 0.06 0.135 0 0.08 0.135 0 0.1 0.135 0 0 0.14 0 0.02 0.14 0 0.04 0.14 0 0.06 0.14 0 0.08 0.14 0 0.1 0.14 0 0 0.145 0 0.02 0.145 0 0.04 0.145 0 0.06 0.145 0 0.08 0.145 0 0.1 0.145 0 0 0.15 0 0.02 0.15 0 0.04 0.15 0 0.06 0.15 0 0.08 0.15 0 0.1 0.15 0 0 0.155 0 0.02 0.155 0 0.04 0.155 0 0.06 0.155 0 0.08 0.155 0 0.1 0.155 0 0 0.16 0 0.02 0.16 0 0.04 0.16 0 0.06 0.16 0 0.08 0.16 0 0.1 0.16 0 0 0.165 0 0.02 0.165 0 0.04 0.165 0 0.06 0.165 0 0.08 0.165 0 0.1 0.165 0 0 0.17 0 0.02 0.17 0 0.04 0.17 0 0.06 0.17 0 0.08 0.17 0 0.1 0.17 0 0 0.175 0 0.02 0.175 0 0.04 0.175 0 0.06 0.175 0 0.08 0.175 0 0.1 0.175 0 0 0.18 0 0.02 0.18 0 0.04 0.18 0 0.06 0.18 0 0.08 0.18 0 0.1 0.18 0 0 0.185 0 0.02 0.185 0 0.04 0.185 0 0.06 0.185 0 0.08 0.185 0 0.1 0.185 0 0 0.19 0 0.02 0.19 0 0.04 0.19 0 0.06 0.19 0 0.08 0.19 0 0.1 0.19 0 0 0.195 0 0.02 0.195 0 0.04 0.195 0 0.06 0.195 0 0.08 0.195 0 0.1 0.195 0 0 0.2 0 0.02 0.2 0 0.04 0.2 0 0.06 0.2 0 0.08 0.2 0 0.1 0.2 0 0 0.205 0 0.02 0.205 0 0.04 0.205 0 0.06 0.205 0 0.08 0.205 0 0.1 0.205 0 0 0.21 0 0.02 0.21 0 0.04 0.21 0 0.06 0.21 0 0.08 0.21 0 0.1 0.21 0 0 0.215 0 0.02 0.215 0 0.04 0.215 0 0.06 0.215 0 0.08 0.215 0 0.1 0.215 0 0 0.22 0 0.02 0.22 0 0.04 0.22 0 0.06 0.22 0 0.08 0.22 0 0.1 0.22 0 0 0.225 0 0.02 0.225 0 0.04 0.225 0 0.06 0.225 0 0.08 0.225 0 0.1 0.225 0 0 0.23 0 0.02 0.23 0 0.04 0.23 0 0.06 0.23 0 0.08 0.23 0 0.1 0.23 0 0 0.235 0 0.02 0.235 0 0.04 0.235 0 0.06 0.235 0 0.08 0.235 0 0.1 0.235 0 0 0.24 0 0.02 0.24 0 0.04 0.24 0 0.06 0.24 0 0.08 0.24 0 0.1 0.24 0 0 0.245 0 0.02 0.245 0 0.04 0.245 0 0.06 0.245 0 0.08 0.245 0 0.1 0.245 0 0 0.25 0 0.02 0.25 0 0.04 0.25 0 0.06 0.25 0 0.08 0.25 0 0.1 0.25 0 0 0.255 0 0.02 0.255 0 0.04 0.255 0 0.06 0.255 0 0.08 0.255 0 0.1 0.255 0 0 0.26 0 0.02 0.26 0 0.04 0.26 0 0.06 0.26 0 0.08 0.26 0 0.1 0.26 0 0 0.265 0 0.02 0.265 0 0.04 0.265 0 0.06 0.265 0 0.08 0.265 0 0.1 0.265 0 0 0.27 0 0.02 0.27 0 0.04 0.27 0 0.06 0.27 0 0.08 0.27 0 0.1 0.27 0 0 0.275001 0 0.02 0.275001 0 0.04 0.275001 0 0.06 0.275001 0 0.08 0.275001 0 0.1 0.275001 0 0 0.280002 0 0.02 0.280002 0 0.04 0.280002 0 0.06 0.280002 0 0.08 0.280002 0 0.1 0.280002 0 0 0.285007 0 0.02 0.285007 0 0.04 0.285007 0 0.06 0.285007 0 0.08 0.285007 0 0.1 0.285007 0 0 0.290018 0 0.02 0.290018 0 0.04 0.290018 0 0.06 0.290018 0 0.08 0.290018 0 0.1 0.290018 0 0 0.295043 0 0.02 0.295043 0 0.04 0.295043 0 0.06 0.295043 0 0.08 0.295043 0 0.1 0.295043 0 0 0.300094 0 0.02 0.300094 0 0.04 0.300094 0 0.06 0.300094 0 0.08 0.300094 0 0.1 0.300094 0 0 0.305188 0 0.02 0.305188 0 0.04 0.305188 0 0.06 0.305188 0 0.08 0.305188 0 0.1 0.305188 0 0 0.310345 0 0.02 0.310345 0 0.04 0.310345 0 0.06 0.310345 0 0.08 0.310345 0 0.1 0.310345 0 0 0.315581 0 0.02 0.315581 0 0.04 0.315581 0 0.06 0.315581 0 0.08 0.315581 0 0.1 0.315581 0 0 0.320913 0 0.02 0.320913 0 0.04 0.320913 0 0.06 0.320913 0 0.08 0.320913 0 0.1 0.320913 0 0 0.326353 0 0.02 0.326353 0 0.04 0.326353 0 0.06 0.326353 0 0.08 0.326353 0 0.1 0.326353 0 0 0.331913 0 0.02 0.331913 0 0.04 0.331913 0 0.06 0.331913 0 0.08 0.331913 0 0.1 0.331913 0 0 0.337602 0 0.02 0.337602 0 0.04 0.337602 0 0.06 0.337602 0 0.08 0.337602 0 0.1 0.337602 0 0 0.343428 0 0.02 0.343428 0 0.04 0.343428 0 0.06 0.343428 0 0.08 0.343428 0 0.1 0.343428 0 0 0.3494 0 0.02 0.3494 0 0.04 0.3494 0 0.06 0.3494 0 0.08 0.3494 0 0.1 0.3494 0 0 0.35553 0 0.02 0.35553 0 0.04 0.35553 0 0.06 0.35553 0 0.08 0.35553 0 0.1 0.35553 0 0 0.361825 0 0.02 0.361825 0 0.04 0.361825 0 0.06 0.361825 0 0.08 0.361825 0 0.1 0.361825 0 0 0.368298 0 0.02 0.368298 0 0.04 0.368298 0 0.06 0.368298 0 0.08 0.368298 0 0.1 0.368298 0 0 0.37496 0 0.02 0.37496 0 0.04 0.37496 0 0.06 0.37496 0 0.08 0.37496 0 0.1 0.37496 0 0 0.381824 0 0.02 0.381824 0 0.04 0.381824 0 0.06 0.381824 0 0.08 0.381824 0 0.1 0.381824 0 0 0.388905 0 0.02 0.388905 0 0.04 0.388905 0 0.06 0.388905 0 0.08 0.388905 0 0.1 0.388905 0 0 0.396219 0 0.02 0.396219 0 0.04 0.396219 0 0.06 0.396219 0 0.08 0.396219 0 0.1 0.396219 0 0 0.403782 0 0.02 0.403782 0 0.04 0.403782 0 0.06 0.403782 0 0.08 0.403782 0 0.1 0.403782 0 0 0.411615 0 0.02 0.411615 0 0.04 0.411615 0 0.06 0.411615 0 0.08 0.411615 0 0.1 0.411615 0 0 0.419739 0 0.02 0.419739 0 0.04 0.419739 0 0.06 0.419739 0 0.08 0.419739 0 0.1 0.419739 0 0 0.428178 0 0.02 0.428178 0 0.04 0.428178 0 0.06 0.428178 0 0.08 0.428178 0 0.1 0.428178 0 0 0.43696 0 0.02 0.43696 0 0.04 0.43696 0 0.06 0.43696 0 0.08 0.43696 0 0.1 0.43696 0 0 0.446115 0 0.02 0.446115 0 0.04 0.446115 0 0.06 0.446115 0 0.08 0.446115 0 0.1 0.446115 0 0 0.455677 0 0.02 0.455677 0 0.04 0.455677 0 0.06 0.455677 0 0.08 0.455677 0 0.1 0.455677 0 0 0.465681 0 0.02 0.465681 0 0.04 0.465681 0 0.06 0.465681 0 0.08 0.465681 0 0.1 0.465681 0 0 0.476166 0 0.02 0.476166 0 0.04 0.476166 0 0.06 0.476166 0 0.08 0.476166 0 0.1 0.476166 0 0 0.487164 0 0.02 0.487164 0 0.04 0.487164 0 0.06 0.487164 0 0.08 0.487164 0 0.1 0.487164 0 0 0.498685 0 0.02 0.498685 0 0.04 0.498685 0 0.06 0.498685 0 0.08 0.498685 0 0.1 0.498685 0 0 0.510661 0 0.02 0.510661 0 0.04 0.510661 0 0.06 0.510661 0 0.08 0.510661 0 0.1 0.510661 0 0 0.522827 0 0.02 0.522827 0 0.04 0.522827 0 0.06 0.522827 0 0.08 0.522827 0 0.1 0.522827 0 0 0.534907 0 0.02 0.534907 0 0.04 0.534907 0 0.06 0.534907 0 0.08 0.534907 0 0.1 0.534907 0 0 0.546883 0 0.02 0.546883 0 0.04 0.546883 0 0.06 0.546883 0 0.08 0.546883 0 0.1 0.546883 0 0 0.55876 0 0.02 0.55876 0 0.04 0.55876 0 0.06 0.55876 0 0.08 0.55876 0 0.1 0.55876 0 0 0.570567 0 0.02 0.570567 0 0.04 0.570567 0 0.06 0.570567 0 0.08 0.570567 0 0.1 0.570567 0 0 0.582332 0 0.02 0.582332 0 0.04 0.582332 0 0.06 0.582332 0 0.08 0.582332 0 0.1 0.582332 0 0 0.594076 0 0.02 0.594076 0 0.04 0.594076 0 0.06 0.594076 0 0.08 0.594076 0 0.1 0.594076 0 0 0.605811 0 0.02 0.605811 0 0.04 0.605811 0 0.06 0.605811 0 0.08 0.605811 0 0.1 0.605811 0 0 0.617542 0 0.02 0.617542 0 0.04 0.617542 0 0.06 0.617542 0 0.08 0.617542 0 0.1 0.617542 0 0 0.629272 0 0.02 0.629272 0 0.04 0.629272 0 0.06 0.629272 0 0.08 0.629272 0 0.1 0.629272 0 0 0.641005 0 0.02 0.641005 0 0.04 0.641005 0 0.06 0.641005 0 0.08 0.641005 0 0.1 0.641005 0 0 0.652752 0 0.02 0.652752 0 0.04 0.652752 0 0.06 0.652752 0 0.08 0.652752 0 0.1 0.652752 0 0 0.655362 0 0.02 0.655362 0 0.04 0.655362 0 0.06 0.655362 0 0.08 0.655362 0 0.1 0.655362 0 0 0.657898 0 0.02 0.657898 0 0.04 0.657898 0 0.06 0.657898 0 0.08 0.657898 0 0.1 0.657898 0 0 0.660388 0 0.02 0.660388 0 0.04 0.660388 0 0.06 0.660388 0 0.08 0.660388 0 0.1 0.660388 0 0 0.662848 0 0.02 0.662848 0 0.04 0.662848 0 0.06 0.662848 0 0.08 0.662848 0 0.1 0.662848 0 0 0.665287 0 0.02 0.665287 0 0.04 0.665287 0 0.06 0.665287 0 0.08 0.665287 0 0.1 0.665287 0 0 0.66771 0 0.02 0.66771 0 0.04 0.66771 0 0.06 0.66771 0 0.08 0.66771 0 0.1 0.66771 0 0 0.670124 0 0.02 0.670124 0 0.04 0.670124 0 0.06 0.670124 0 0.08 0.670124 0 0.1 0.670124 0 0 0.672536 0 0.02 0.672536 0 0.04 0.672536 0 0.06 0.672536 0 0.08 0.672536 0 0.1 0.672536 0 0 0.674948 0 0.02 0.674948 0 0.04 0.674948 0 0.06 0.674948 0 0.08 0.674948 0 0.1 0.674948 0 0 0.677346 0 0.02 0.677346 0 0.04 0.677346 0 0.06 0.677346 0 0.08 0.677346 0 0.1 0.677346 0 0 0.679732 0 0.02 0.679732 0 0.04 0.679732 0 0.06 0.679732 0 0.08 0.679732 0 0.1 0.679732 0 0 0.682112 0 0.02 0.682112 0 0.04 0.682112 0 0.06 0.682112 0 0.08 0.682112 0 0.1 0.682112 0 0 0.684489 0 0.02 0.684489 0 0.04 0.684489 0 0.06 0.684489 0 0.08 0.684489 0 0.1 0.684489 0 0 0.686864 0 0.02 0.686864 0 0.04 0.686864 0 0.06 0.686864 0 0.08 0.686864 0 0.1 0.686864 0 0 0.689236 0 0.02 0.689236 0 0.04 0.689236 0 0.06 0.689236 0 0.08 0.689236 0 0.1 0.689236 0 0 0.691606 0 0.02 0.691606 0 0.04 0.691606 0 0.06 0.691606 0 0.08 0.691606 0 0.1 0.691606 0 0 0.693975 0 0.02 0.693975 0 0.04 0.693975 0 0.06 0.693975 0 0.08 0.693975 0 0.1 0.693975 0 0 0.696342 0 0.02 0.696342 0 0.04 0.696342 0 0.06 0.696342 0 0.08 0.696342 0 0.1 0.696342 0 0 0.698706 0 0.02 0.698706 0 0.04 0.698706 0 0.06 0.698706 0 0.08 0.698706 0 0.1 0.6987
[...]
			<PointData Scalars="VitesseX">
				<DataArray Name="VitesseX" type="Float32" format="ascii">
 0 3.47789e-15 4.04279e-15 1.74988e-15 7.7475e-15 0 0 2.66847e-15 4.73609e-15 9.0092e-16 8.1259e-15 0 0 2.08114e-15 5.92542e-15 -2.06545e-15 9.13277e-15 0 0 2.86071e-15 6.33617e-15 -3.96203e-15 8.29812e-15 0 0 3.27031e-15 6.20779e-15 -3.19534e-15 4.46361e-15 0 0 3.19699e-15 6.17372e-15 -1.88332e-15 -5.94314e-17 0 0 2.39869e-15 5.43476e-15 8.01821e-16 -3.59567e-15 0 0 8.85076e-16 5.14765e-15 1.59509e-15 -2.51353e-15 0 0 4.47023e-16 2.96778e-15 3.00367e-15 -9.75233e-17 0 0 2.08358e-15 -7.37311e-16 4.2257e-15 8.28303e-16 0 0 3.34259e-15 -2.73868e-15 4.23744e-15 4.13391e-15 0 0 2.04761e-15 -8.31478e-16 5.68309e-16 1.04637e-14 0 0 -3.21921e-16 3.69534e-15 -5.89609e-15 1.34831e-14 0 0 -1.77606e-15 5.40969e-15 -4.76282e-15 1.04393e-14 0 0 -2.22181e-15 7.5959e-15 -7.22077e-15 1.03623e-14 0 0 -2.16165e-15 8.48891e-15 -1.30803e-14 1.28328e-14 0 0 1.54782e-15 2.11599e-15 -5.63327e-15 8.38033e-15 0 0 2.77126e-15 -2.91985e-15 4.37735e-15 2.03284e-15 0 0 1.11119e-15 -3.56664e-15 2.84041e-15 1.04534e-15 0 0 4.36743e-15 -9.19626e-15 2.41897e-15 2.04128e-15 0 0 3.2062e-15 -7.82302e-15 -6.28135e-16 5.79731e-15 0 0 6.83399e-16 -3.57857e-15 -4.19868e-15 4.77707e-15 0 0 -8.94288e-16 -5.86883e-15 2.86202e-16 8.98172e-16 0 0 -2.04589e-15 -6.425e-15 -6.44403e-18 3.41253e-15 0 0 -8.05601e-16 -6.58615e-15 -7.02273e-16 1.47722e-15 0 0 -5.20522e-15 -3.3569e-15 -2.46749e-15 -1.50127e-16 0 0 -6.07313e-15 -5.67471e-16 -1.10998e-14 -2.32975e-16 0 0 -2.69759e-15 -4.8603e-15 -1.44921e-14 -2.6432e-15 0 0 -2.3433e-15 -6.9729e-15 -1.49909e-14 -2.30493e-15 0 0 -4.96612e-15 -1.95445e-15 -1.41145e-14 -6.32825e-15 0 0 -9.01482e-15 2.83831e-15 -5.48246e-15 -1.24883e-14 0 0 -9.25858e-15 4.86821e-15 -1.48125e-14 -9.61943e-16 0 0 2.19918e-15 -4.1328e-15 -1.99542e-14 3.94289e-15 0 0 9.20319e-15 -1.11558e-14 -7.1472e-15 -6.14629e-15 0 0 6.19271e-15 -1.17561e-14 -5.72973e-15 3.47701e-15 0 0 -3.91727e-15 9.84341e-16 -1.45487e-14 1.87022e-14 0 0 -8.04837e-15 3.72804e-15 -5.43611e-15 2.04123e-14 0 0 -7.02128e-15 4.00515e-15 -2.87591e-15 3.37461e-14 0 0 -1.3546e-14 1.56787e-14 -4.11502e-15 3.50787e-14 0 0 -6.18119e-15 1.01207e-14 1.65849e-14 1.13621e-14 0 0 1.57477e-15 1.28193e-14 2.27466e-14 1.02831e-14 0 0 7.73775e-15 2.04028e-14 1.4136e-14 1.99485e-14 0 0 1.60293e-14 2.50179e-14 1.2125e-14 5.97418e-15 0 0 1.86729e-14 2.66065e-14 1.71907e-14 -1.89864e-14 0 0 1.68038e-14 1.42177e-14 1.02969e-14 -2.07698e-14 0 0 -6.46565e-15 1.08782e-14 -1.07726e-14 -4.54363e-15 0 0 -2.31687e-14 2.58127e-14 -3.46853e-14 2.23233e-14 0 0 -2.20371e-14 2.69778e-14 -5.8233e-14 4.26309e-14 0 0 -3.40006e-14 1.69255e-14 -6.28177e-14 2.47924e-14 0 0 -2.14441e-14 -5.10028e-15 -6.13896e-14 2.06107e-14 0 0 -1.57824e-14 -2.76768e-14 -5.68492e-14 4.92111e-14 0 0 -5.56499e-14 -1.2755e-14 -4.01125e-14 3.03359e-14 0 0 -5.73858e-14 -1.09302e-14 -3.17816e-14 -9.97098e-15 0 0 -2.5444e-14 -3.04221e-14 -4.0339e-14 -5.8758e-15 0 0 -1.4471e-14 -3.05284e-14 -2.29378e-14 -1.02495e-14 0 0 -1.76422e-14 -1.86194e-14 1.16032e-14 -3.41707e-14 0 0 -1.71106e-14 -8.96922e-15 5.44975e-15 -1.94695e-14 0 0 -1.98204e-14 -7.68372e-15 -1.86659e-14 1.45114e-14 0 0 -3.99856e-15 -9.78119e-15 -2.0312e-14 -2.19404e-14 0 0 -1.41021e-14 -5.82334e-15 -2.18624e-15 -4.40376e-14 0 0 -3.21972e-14 -1.47371e-14 1.49868e-14 -1.31686e-14 0 0 -2.07417e-14 -1.79154e-14 1.06019e-14 -2.62246e-15 0 0 5.92708e-15 -2.69206e-14 2.94705e-15 1.31597e-15 0 0 2.3159e-14 -2.70828e-14 -1.09527e-14 9.58259e-15 0 0 -1.95527e-14 1.61169e-15 -3.60517e-14 2.67235e-14 0 0 -3.55507e-14 -1.09871e-14 -6.62093e-15 2.5952e-14 0 0 -1.15778e-15 -9.84709e-15 1.0473e-14 1.01191e-14 0 0 1.45372e-15 1.19496e-14 6.05077e-15 7.50503e-15 0 0 -1.27588e-14 1.14317e-14 5.09205e-15 1.05956e-14 0 0 -7.55723e-15 1.98122e-15 -5.97472e-15 1.31874e-14 0 0 -9.13334e-15 5.84548e-15 1.98043e-14 3.13724e-15 0 0 -1.44803e-14 1.7052e-14 -1.09888e-14 9.66374e-15 0 0 -1.06136e-14 -6.71368e-15 -1.60082e-14 1.41924e-14 0 0 1.03322e-14 -2.76035e-14 3.28478e-14 -8.64743e-15 0 0 2.08204e-14 -1.8961e-14 1.99657e-14 4.66739e-15 0 0 2.97876e-14 7.64394e-16 -3.65346e-14 4.32417e-14 0 0 4.11277e-14 -6.15769e-15 -4.12801e-14 3.55781e-14 0 0 5.50115e-15 9.03371e-15 -3.13856e-15 -8.92623e-15 0 0 1.99689e-14 9.68169e-15 -4.41278e-15 -2.71028e-14 0 0 3.43338e-14 -1.28734e-14 -1.24453e-14 -2.31068e-15 0 0 -1.2238e-14 1.90523e-14 -3.41787e-14 4.27063e-14 0 0 -1.00319e-14 2.32702e-14 -2.31608e-16 2.99994e-14 0 0 6.50448e-16 1.62961e-14 6.12699e-15 1.38515e-14 0 0 2.85126e-14 3.7563e-15 -6.21577e-16 9.81605e-15 0 0 2.51017e-14 1.76352e-14 9.72545e-15 -3.2737e-15 0 0 -2.08019e-14 3.13307e-14 8.68915e-15 -7.84074e-15 0 0 -2.05869e-14 2.48283e-14 1.21843e-14 -2.16338e-15 0 0 6.44416e-15 4.24588e-14 -1.03372e-14 4.5436e-14 0 0 4.1407e-14 4.18114e-14 1.95431e-14 6.25121e-14 0 0 3.08455e-14 4.33821e-14 2.85493e-14 4.58541e-14 0 0 -4.92957e-15 -1.21203e-14 -7.98407e-15 -1.67443e-14 0 0 -6.09355e-14 -1.35799e-13 -9.18087e-14 -1.02402e-13 0 0 -1.71191e-13 -2.69467e-13 -2.54279e-13 -1.746e-13 0 0 -2.70695e-13 -4.10363e-13 -4.13569e-13 -2.64632e-13 0 0 -3.14358e-13 -5.22649e-13 -5.28866e-13 -3.16118e-13 0 0 -3.34402e-13 -5.57292e-13 -5.6311e-13 -3.45017e-13 0 0 -3.32844e-13 -5.24217e-13 -5.43319e-13 -3.24908e-13 0 0 -2.95525e-13 -4.83141e-13 -4.93281e-13 -2.92629e-13 0 0 -2.77939e-13 -4.37844e-13 -4.49918e-13 -2.67067e-13 0 0 -2.72925e-13 -4.31805e-13 -4.25052e-13 -2.69835e-13 0 0 -3.03072e-13 -5.07515e-13 -4.89785e-13 -2.94243e-13 0 0 -5.75747e-13 -9.4311e-13 -8.91399e-13 -5.18745e-13 0 0 -5.85082e-13 -9.55093e-13 -8.81432e-13 -5.53499e-13 0 0 -6.20588e-13 -9.73841e-13 -9.42089e-13 -6.20311e-13 0 0 -6.55598e-13 -1.00458e-12 -1.0046e-12 -6.22641e-13 0 0 -6.95279e-13 -1.1126e-12 -1.0435e-12 -6.41878e-13 0 0 -6.82417e-13 -1.10452e-12 -1.02103e-12 -6.6216e-13 0 0 -4.89638e-13 -7.89613e-13 -7.35962e-13 -4.6923e-13 0 0 2.08093e-14 4.95331e-14 2.35612e-14 4.0638e-15 0 0 6.45619e-13 1.0738e-12 1.00295e-12 6.31478e-13 0 0 1.18439e-12 1.9081e-12 1.85651e-12 1.19774e-12 0 0 1.52338e-12 2.47713e-12 2.45883e-12 1.53955e-12 0 0 1.65066e-12 2.71609e-12 2.64785e-12 1.64046e-12 0 0 1.635e-12 2.664e-12 2.59294e-12 1.62447e-12 0 0 1.53007e-12 2.4926e-12 2.46682e-12 1.54951e-12 0 0 1.40455e-12 2.30462e-12 2.23406e-12 1.40754e-12 0 0 1.25643e-12 2.09163e-12 2.02679e-12 1.28217e-12 0 0 1.11012e-12 1.88904e-12 1.83064e-12 1.18261e-12 0 0 1.01582e-12 1.65418e-12 1.65272e-12 1.0888e-12 0 0 9.26638e-13 1.43239e-12 1.53945e-12 9.40229e-13 0 0 7.77869e-13 1.30477e-12 1.37334e-12 8.49359e-13 0 0 6.99835e-13 1.17237e-12 1.19606e-12 7.82827e-13 0 0 6.14813e-13 1.01433e-12 1.09053e-12 6.32224e-13 0 0 4.72377e-13 8.50176e-13 9.80281e-13 5.06795e-13 0 0 4.0553e-13 7.05534e-13 8.10731e-13 4.23292e-13 0 0 3.33035e-13 5.99321e-13 6.45768e-13 3.40443e-13 0 0 2.92009e-13 4.63156e-13 5.4753e-13 2.81072e-13 0 0 2.55572e-13 3.74479e-13 4.35027e-13 2.2629e-13 0 0 1.62495e-13 3.21854e-13 2.83318e-13 1.4878e-13 0 0 8.72813e-14 2.12414e-13 1.69337e-13 8.9263e-14 0 0 1.5385e-14 1.17805e-13 2.78093e-14 7.77896e-14 0 0 -2.2264e-14 7.8569e-15 -1.17808e-13 1.08582e-13 0 0 -4.96673e-14 -1.14397e-13 -1.91392e-13 2.10363e-14 0 0 -1.06642e-13 -1.79692e-13 -2.54089e-13 -1.3872e-13 0 0 -1.83243e-13 -2.87998e-13 -3.13727e-13 -1.19879e-13 0 0 -2.26721e-13 -3.86579e-13 -3.83485e-13 -1.56118e-13 0 0 -2.5064e-13 -4.64185e-13 -4.89557e-13 -1.68908e-13 0 0 -2.97692e-13 -6.05069e-13 -5.35767e-13 -1.62433e-13 0 0 -3.33186e-13 -7.21959e-13 -5.73115e-13 -2.68139e-13 0 0 -3.94651e-13 -7.82695e-13 -7.06148e-13 -3.24733e-13 0 0 -4.96005e-13 -7.97319e-13 -8.34719e-13 -3.6121e-13 0 0 -5.65542e-13 -8.38304e-13 -9.20931e-13 -4.2708e-13 0 0 -6.09124e-13 -9.22487e-13 -1.00836e-12 -5.24305e-13 0 0 -6.44382e-13 -1.04647e-12 -1.05309e-12 -6.26165e-13 0 0 -7.07257e-13 -1.13795e-12 -1.13212e-12 -6.63976e-13 0 0 -7.75493e-13 -1.21932e-12 -1.23635e-12 -7.49499e-13 0 0 -7.96803e-13 -1.34132e-12 -1.29911e-12 -8.82801e-13 0 0 -8.08512e-13 -1.42834e-12 -1.41432e-12 -8.39137e-13 0 0 -8.36079e-13 -1.46151e-12 -1.53996e-12 -8.07487e-13 0 0 -8.80082e-13 -1.48625e-12 -1.57668e-12 -8.90941e-13 0 0 -9.39009e-13 -1.47534e-12 -1.67264e-12 -9.21554e-13 0 0 -9.45282e-13 -1.50494e-12 -1.73709e-12 -9.10624e-13 0 0 -9.2743e-13 -1.60759e-12 -1.65123e-12 -1.04359e-12 0 0 -9.03399e-13 -1.60763e-12 -1.59169e-12 -1.09132e-12 0 0 -8.87896e-13 -1.58661e-12 -1.61386e-12 -1.12006e-12 0 0 -8.44743e-13 -1.45923e-12 -1.51017e-12 -9.7882e-13 0 0 -8.11412e-13 -1.32625e-12 -1.40814e-12 -8.72429e-13 0 0 -6.49003e-13 -1.11927e-12 -1.17829e-12 -7.97311e-13 0 0 -5.39869e-13 -9.35092e-13 -9.49995e-13 -6.63439e-13 0 0 -4.33913e-13 -6.28324e-13 -6.8363e-13 -5.08543e-13 0 0 -2.69773e-13 -4.49925e-13 -4.58153e-13 -2.92865e-13 0 0 -1.56719e-13 -2.87149e-13 -2.92708e-13 -1.57607e-13 0 0 -1.00311e-13 -1.17435e-13 -2.16765e-13 -7.20183e-14 0 0 -3.21064e-14 -8.33569e-14 -1.18312e-13 -3.66865e-14 0 0 -1.42819e-14 -7.63964e-14 -4.06665e-14 -8.03265e-14 0 0 -2.19818e-14 -5.15159e-14 -6.03589e-14 -5.58082e-14 0 0 -1.45574e-14 -5.86364e-14 -8.94799e-14 -2.21674e-14 0 0 -2.59687e-15 -6.90616e-14 -9.61077e-14 -1.85511e-14 0 0 -8.12813e-15 -5.3643e-14 -1.02434e-13 -3.9066e-14 0 0 -2.55555e-14 -5.4513e-14 -1.00769e-13 -3.28278e-14 0 0 -3.27581e-14 -7.74439e-14 -9.33764e-14 -1.71022e-14 0 0 -3.425e-14 -9.05827e-14 -6.98908e-14 -5.77737e-14 0 0 -5.13239e-14 -7.21506e-14 -8.08264e-14 -6.51175e-14 0 0 -7.25592e-14 -5.39014e-14 -9.06245e-14 -4.25868e-14 0 0 -7.92336e-14 -5.505e-14 -8.72883e-14 -3.8796e-14 0 0 -7.38335e-14 -5.65592e-14 -8.16086e-14 -4.56223e-14 0 0 -7.997e-14 -4.55636e-14 -8.84398e-14 3.30407e-16 0 0 -6.51633e-14 -6.3666e-14 -3.45627e-14 -1.98627e-14 0 0 -4.55018e-14 -6.21717e-14 -1.30216e-14 -5.05489e-14 0 0 -5.50957e-14 -2.82113e-14 -4.98796e-14 -1.68829e-14 0 0 -8.04258e-14 1.80054e-14 -7.4672e-14 1.49807e-14 0 0 -9.51796e-14 5.05859e-14 -7.83743e-14 -3.63226e-14 0 0 -5.76045e-14 -9.44994e-15 -5.75958e-15 -7.20812e-14 0 0 -1.06129e-14 -2.55756e-14 -2.72308e-14 -2.4536e-15 0 0 1.74915e-14 1.82865e-14 -8.86701e-14 5.74433e-14 0 0 5.89096e-14 7.98223e-15 -7.35787e-14 1.60493e-13 0 0 5.21613e-14 4.25111e-14 -3.76486e-14 1.47767e-13 0 0 2.0559e-14 9.16301e-14 -4.81918e-14 4.60583e-14 0 0 -1.94829e-14 1.09504e-13 -7.21692e-14 1.39428e-14 0 0 1.30112e-14 2.16092e-14 -1.40265e-14 1.33602e-14 0 0 6.30495e-14 -7.44889e-14 3.14195e-14 1.74841e-14 0 0 3.86954e-14 -6.8078e-14 3.04578e-14 -6.71075e-15 0 0 2.25448e-14 -4.57054e-14 -3.15284e-14 1.11276e-14 0 0 1.65538e-14 2.26802e-15 -1.31196e-13 5.07845e-14 0 0 9.37669e-15 1.5688e-14 -1.20428e-13 2.66592e-14 0 0 -3.61776e-14 1.80196e-14 -7.85241e-14 -1.29294e-14 0 0 -4.04232e-14 1.00487e-14 -7.81135e-14 3.48501e-15 0 0 3.9189e-15 -5.42567e-14 -3.58166e-14 1.41199e-14 0 0 -9.442e-15 -6.09878e-14 -3.51062e-15 2.4468e-15 0 0 -1.9174e-14 -7.00648e-14 -2.15165e-15 3.28576e-14 0 0 3.38497e-15 -1.16576e-13 5.12251e-15 5.77167e-14 0
				</DataArray>
				<DataArray Name="VitesseY" type="Float32" format="ascii">