<?xml version="1.0"?>
<VTKFile type="PolyData">
	<PolyData>
		<Piece NumberOfPoints="1206" NumberOfPolys="1000">
			<Points>
				<DataArray type="Float32" NumberOfComponents="3" format="ascii">
 0 0 0 0.02 0 0 0.04 0 0 0.06 0 0 0.08 0 0 0.1 0 0 0 0.005 0 0.02 0.005 0 0.04 0.005 0 0.06 0.005 0 0.08 0.005 0 0.1 0.005 0 0 0.01 0 0.02 0.01 0 0.04 0.01 0 0.06 0.01 0 0.08 0.01 0 0.1 0.01 0 0 0.015 0 0.02 0.015 0 0.04 0.015 0 0.06 0.015 0 0.08 0.015 0 0.1 0.015 0 0 0.02 0 0.02 0.02 0 0.04 0.02 0 0.06 0.02 0 0.08 0.02 0 0.1 0.02 0 0 0.025 0 0.02 0.025 0 0.04 0.025 0 0.06 0.025 0 0.08 0.025 0 0.1 0.025 0 0 0.03 0 0.02 0.03 0 0.04 0.03 0 0.06 0.03 0 0.08 0.03 0 0.1 0.03 0 0 0.035 0 0.02 0.035 0 0.04 0.035 0 0.06 0.035 0 0.08 0.035 0 0.1 0.035 0 0 0.04 0 0.02 0.04 0 0.04 0.04 0 0.06 0.04 0 0.08 0.04 0 0.1 0.04 0 0 0.045 0 0.02 0.045 0 0.04 0.045 0 0.06 0.045 0 0.08 0.045 0 0.1 0.045 0 0 0.05 0 0.02 0.05 0 0.04 0.05 0 0.06 0.05 0 0.08 0.05 0 0.1 0.05 0 0 0.055 0 0.02 0.055 0 0.04 0.055 0 0.06 0.055 0 0.08 0.055 0 0.1 0.055 0 0 0.06 0 0.02 0.06 0 0.04 0.06 0 0.06 0.06 0 0.08 0.06 0 0.1 0.06 0 0 0.065 0 0.02 0.065 0 0.04 0.065 0 0.06 0.065 0 0.08 0.065 0 0.1 0.065 0 0 0.07 0 0.02 0.07 0 0.04 0.07 0 0.06 0.07 0 0.08 0.07 0 0.1 0.07 0 0 0.075 0 0.02 0.075 0 0.04 0.075 0 0.06 0.075 0 0.08 0.075 0 0.1 0.075 0 0 0.08 0 0.02 0.08 0 0.04 0.08 0 0.06 0.08 0 0.08 0.08 0 0.1 0.08 0 0 0.085 0 0.02 0.085 0 0.04 0.085 0 0.06 0.085 0 0.08 0.085 0 0.1 0.085 0 0 0.09 0 0.02 0.09 0 0.04 0.09 0 0.06 0.09 0 0.08 0.09 0 0.1 0.09 0 0 0.095 0 0.02 0.095 0 0.04 0.095 0 0.06 0.095 0 0.08 0.095 0 0.1 0.095 0 0 0.1 0 0.02 0.1 0 0.04 0.1 0 0.06 0.1 0 0.08 0.1 0 0.1 0.1 0 0 0.105 0 0.02 0.105 0 0.04 0.105 0 0.06 0.105 0 0.08 0.105 0 0.1 0.105 0 0 0.11 0 0.02 0.11 0 0.04 0.11 0 0.06 0.11 0 0.08 0.11 0 0.1 0.11 0 0 0.115 0 0.02 0.115 0 0.04 0.115 0 0.06 0.115 0 0.08 0.115 0 0.1 0.115 0 0 0.12 0 0.02 0.12 0 0.04 0.12 0 0.06 0.12 0 0.08 0.12 0 0.1 0.12 0 0 0.125 0 0.02 0.125 0 0.04 0.125 0 0.06 0.125 0 0.08 0.125 0 0.1 0.125 0 0 0.13 0 0.02 0.13 0 0.04 0.13 0 0.06 0.13 0 0.08 0.13 0 0.1 0.13 0 0 0.135 0 0.02 0.135 0 0.04 0.135 0 0.06 0.135 0 0.08 0.135 0 0.1 0.135 0 0 0.14 0 0.02 0.14 0 0.04 0.14 0 0.06 0.14 0 0.08 0.14 0 0.1 0.14 0 0 0.145 0 0.02 0.145 0 0.04 0.145 0 0.06 0.145 0 0.08 0.145 0 0.1 0.145 0 0 0.15 0 0.02 0.15 0 0.04 0.15 0 0.06 0.15 0 0.08 0.15 0 0.1 0.15 0 0 0.155 0 0.02 0.155 0 0.04 0.155 0 0.06 0.155 0 0.08 0.155 0 0.1 0.155 0 0 0.16 0 0.02 0.16 0 0.04 0.16 0 0.06 0.16 0 0.08 0.16 0 0.1 0.16 0 0 0.165 0 0.02 0.165 0 0.04 0.165 0 0.06 0.165 0 0.08 0.165 0 0.1 0.165 0 0 0.17 0 0.02 0.17 0 0.04 0.17 0 0.06 0.17 0 0.08 0.17 0 0.1 0.17 0 0 0.175 0 0.02 0.175 0 0.04 0.175 0 0.06 0.175 0 0.08 0.175 0 0.1 0.175 0 0 0.18 0 0.02 0.18 0 0.04 0.18 0 0.06 0.18 0 0.08 0.18 0 0.1 0.18 0 0 0.185 0 0.02 0.185 0 0.04 0.185 0 0.06 0.185 0 0.08 0.185 0 0.1 0.185 0 0 0.19 0 0.02 0.19 0 0.04 0.19 0 0.06 0.19 0 0.08 0.19 0 0.1 0.19 0 0 0.195 0 0.02 0.195 0 0.04 0.195 0 0.06 0.195 0 0.08 0.195 0 0.1 0.195 0 0 0.2 0 0.02 0.2 0 0.04 0.2 0 0.06 0.2 0 0.08 0.2 0 0.1 0.2 0 0 0.205 0 0.02 0.205 0 0.04 0.205 0 0.06 0.205 0 0.08 0.205 0 0.1 0.205 0 0 0.21 0 0.02 0.21 0 0.04 0.21 0 0.06 0.21 0 0.08 0.21 0 0.1 0.21 0 0 0.215 0 0.02 0.215 0 0.04 0.215 0 0.06 0.215 0 0.08 0.215 0 0.1 0.215 0 0 0.22 0 0.02 0.22 0 0.04 0.22 0 0.06 0.22 0 0.08 0.22 0 0.1 0.22 0 0 0.225 0 0.02 0.225 0 0.04 0.225 0 0.06 0.225 0 0.08 0.225 0 0.1 0.225 0 0 0.23 0 0.02 0.23 0 0.04 0.23 0 0.06 0.23 0 0.08 0.23 0 0.1 0.23 0 0 0.235 0 0.02 0.235 0 0.04 0.235 0 0.06 0.235 0 0.08 0.235 0 0.1 0.235 0 0 0.240001 0 0.02 0.240001 0 0.04 0.240001 0 0.06 0.240001 0 0.08 0.240001 0 0.1 0.240001 0 0 0.245004 0 0.02 0.245004 0 0.04 0.245004 0 0.06 0.245004 0 0.08 0.245004 0 0.1 0.245004 0 0 0.25001 0 0.02 0.25001 0 0.04 0.25001 0 0.06 0.25001 0 0.08 0.25001 0 0.1 0.25001 0 0 0.255025 0 0.02 0.255025 0 0.04 0.255025 0 0.06 0.255025 0 0.08 0.255025 0 0.1 0.255025 0 0 0.260056 0 0.02 0.260056 0 0.04 0.260056 0 0.06 0.260056 0 0.08 0.260056 0 0.1 0.260056 0 0 0.265114 0 0.02 0.265114 0 0.04 0.265114 0 0.06 0.265114 0 0.08 0.265114 0 0.1 0.265114 0 0 0.270214 0 0.02 0.270214 0 0.04 0.270214 0 0.06 0.270214 0 0.08 0.270214 0 0.1 0.270214 0 0 0.27537 0 0.02 0.27537 0 0.04 0.27537 0 0.06 0.27537 0 0.08 0.27537 0 0.1 0.27537 0 0 0.280596 0 0.02 0.280596 0 0.04 0.280596 0 0.06 0.280596 0 0.08 0.280596 0 0.1 0.280596 0 0 0.285904 0 0.02 0.285904 0 0.04 0.285904 0 0.06 0.285904 0 0.08 0.285904 0 0.1 0.285904 0 0 0.291302 0 0.02 0.291302 0 0.04 0.291302 0 0.06 0.291302 0 0.08 0.291302 0 0.1 0.291302 0 0 0.2968 0 0.02 0.2968 0 0.04 0.2968 0 0.06 0.2968 0 0.08 0.2968 0 0.1 0.2968 0 0 0.302403 0 0.02 0.302403 0 0.04 0.302403 0 0.06 0.302403 0 0.08 0.302403 0 0.1 0.302403 0 0 0.308117 0 0.02 0.308117 0 0.04 0.308117 0 0.06 0.308117 0 0.08 0.308117 0 0.1 0.308117 0 0 0.31395 0 0.02 0.31395 0 0.04 0.31395 0 0.06 0.31395 0 0.08 0.31395 0 0.1 0.31395 0 0 0.319907 0 0.02 0.319907 0 0.04 0.319907 0 0.06 0.319907 0 0.08 0.319907 0 0.1 0.319907 0 0 0.325995 0 0.02 0.325995 0 0.04 0.325995 0 0.06 0.325995 0 0.08 0.325995 0 0.1 0.325995 0 0 0.332221 0 0.02 0.332221 0 0.04 0.332221 0 0.06 0.332221 0 0.08 0.332221 0 0.1 0.332221 0 0 0.338592 0 0.02 0.338592 0 0.04 0.338592 0 0.06 0.338592 0 0.08 0.338592 0 0.1 0.338592 0 0 0.345118 0 0.02 0.345118 0 0.04 0.345118 0 0.06 0.345118 0 0.08 0.345118 0 0.1 0.345118 0 0 0.351805 0 0.02 0.351805 0 0.04 0.351805 0 0.06 0.351805 0 0.08 0.351805 0 0.1 0.351805 0 0 0.358665 0 0.02 0.358665 0 0.04 0.358665 0 0.06 0.358665 0 0.08 0.358665 0 0.1 0.358665 0 0 0.365706 0 0.02 0.365706 0 0.04 0.365706 0 0.06 0.365706 0 0.08 0.365706 0 0.1 0.365706 0 0 0.372941 0 0.02 0.372941 0 0.04 0.372941 0 0.06 0.372941 0 0.08 0.372941 0 0.1 0.372941 0 0 0.380381 0 0.02 0.380381 0 0.04 0.380381 0 0.06 0.380381 0 0.08 0.380381 0 0.1 0.380381 0 0 0.388039 0 0.02 0.388039 0 0.04 0.388039 0 0.06 0.388039 0 0.08 0.388039 0 0.1 0.388039 0 0 0.39593 0 0.02 0.39593 0 0.04 0.39593 0 0.06 0.39593 0 0.08 0.39593 0 0.1 0.39593 0 0 0.40407 0 0.02 0.40407 0 0.04 0.40407 0 0.06 0.40407 0 0.08 0.40407 0 0.1 0.40407 0 0 0.412476 0 0.02 0.412476 0 0.04 0.412476 0 0.06 0.412476 0 0.08 0.412476 0 0.1 0.412476 0 0 0.421169 0 0.02 0.421169 0 0.04 0.421169 0 0.06 0.421169 0 0.08 0.421169 0 0.1 0.421169 0 0 0.430168 0 0.02 0.430168 0 0.04 0.430168 0 0.06 0.430168 0 0.08 0.430168 0 0.1 0.430168 0 0 0.439498 0 0.02 0.439498 0 0.04 0.439498 0 0.06 0.439498 0 0.08 0.439498 0 0.1 0.439498 0 0 0.449184 0 0.02 0.449184 0 0.04 0.449184 0 0.06 0.449184 0 0.08 0.449184 0 0.1 0.449184 0 0 0.459253 0 0.02 0.459253 0 0.04 0.459253 0 0.06 0.459253 0 0.08 0.459253 0 0.1 0.459253 0 0 0.469733 0 0.02 0.469733 0 0.04 0.469733 0 0.06 0.469733 0 0.08 0.469733 0 0.1 0.469733 0 0 0.48065 0 0.02 0.48065 0 0.04 0.48065 0 0.06 0.48065 0 0.08 0.48065 0 0.1 0.48065 0 0 0.492015 0 0.02 0.492015 0 0.04 0.492015 0 0.06 0.492015 0 0.08 0.492015 0 0.1 0.492015 0 0 0.503805 0 0.02 0.503805 0 0.04 0.503805 0 0.06 0.503805 0 0.08 0.503805 0 0.1 0.503805 0 0 0.515888 0 0.02 0.515888 0 0.04 0.515888 0 0.06 0.515888 0 0.08 0.515888 0 0.1 0.515888 0 0 0.527981 0 0.02 0.527981 0 0.04 0.527981 0 0.06 0.527981 0 0.08 0.527981 0 0.1 0.527981 0 0 0.539991 0 0.02 0.539991 0 0.04 0.539991 0 0.06 0.539991 0 0.08 0.539991 0 0.1 0.539991 0 0 0.551911 0 0.02 0.551911 0 0.04 0.551911 0 0.06 0.551911 0 0.08 0.551911 0 0.1 0.551911 0 0 0.563754 0 0.02 0.563754 0 0.04 0.563754 0 0.06 0.563754 0 0.08 0.563754 0 0.1 0.563754 0 0 0.575542 0 0.02 0.575542 0 0.04 0.575542 0 0.06 0.575542 0 0.08 0.575542 0 0.1 0.575542 0 0 0.587295 0 0.02 0.587295 0 0.04 0.587295 0 0.06 0.587295 0 0.08 0.587295 0 0.1 0.587295 0 0 0.599032 0 0.02 0.599032 0 0.04 0.599032 0 0.06 0.599032 0 0.08 0.599032 0 0.1 0.599032 0 0 0.61076 0 0.02 0.61076 0 0.04 0.61076 0 0.06 0.61076 0 0.08 0.61076 0 0.1 0.61076 0 0 0.622485 0 0.02 0.622485 0 0.04 0.622485 0 0.06 0.622485 0 0.08 0.622485 0 0.1 0.622485 0 0 0.634208 0 0.02 0.634208 0 0.04 0.634208 0 0.06 0.634208 0 0.08 0.634208 0 0.1 0.634208 0 0 0.645931 0 0.02 0.645931 0 0.04 0.645931 0 0.06 0.645931 0 0.08 0.645931 0 0.1 0.645931 0 0 0.657655 0 0.02 0.657655 0 0.04 0.657655 0 0.06 0.657655 0 0.08 0.657655 0 0.1 0.657655 0 0 0.669381 0 0.02 0.669381 0 0.04 0.669381 0 0.06 0.669381 0 0.08 0.669381 0 0.1 0.669381 0 0 0.681121 0 0.02 0.681121 0 0.04 0.681121 0 0.06 0.681121 0 0.08 0.681121 0 0.1 0.681121 0 0 0.683728 0 0.02 0.683728 0 0.04 0.683728 0 0.06 0.683728 0 0.08 0.683728 0 0.1 0.683728 0 0 0.686262 0 0.02 0.686262 0 0.04 0.686262 0 0.06 0.686262 0 0.08 0.686262 0 0.1 0.686262 0 0 0.688751 0 0.02 0.688751 0 0.04 0.688751 0 0.06 0.688751 0 0.08 0.688751 0 0.1 0.688751 0 0 0.691209 0 0.02 0.691209 0 0.04 0.691209 0 0.06 0.691209 0 0.08 0.691209 0 0.1 0.691209 0 0 0.693645 0 0.02 0.693645 0 0.04 0.693645 0 0.06 0.693645 0 0.08 0.693645 0 0.1 0.693645 0 0 0.696066 0 0.02 0.696066 0 0.04 0.696066 0 0.06 0.696066 0 0.08 0.696066 0 0.1 0.696066 0 0 0.698475 0 0.02 0.698475 0 0.04 0.698475 0 0.06 0.698475 0 0.08 0.698475 0 0.1 0.698475 0 0 0.700878 0 0.02 0.700878 0 0.04 0.700878 0 0.06 0.700878 0 0.08 0.700878 0 0.1 0.700878 0 0 0.703278 0 0.02 0.703278 0 0.04 0.703278 0 0.06 0.703278 0 0.08 0.703278 0 0.1 0.703278 0 0 0.70568 0 0.02 0.70568 0 0.04 0.70568 0 0.06 0.70568 0 0.08 0.70568 0 0.1 0.70568 0 0 0.708085 0 0.02 0.708085 0 0.04 0.708085 0 0.06 0.708085 0 0.08 0.708085 0 0.1 0.708085 0 0 0.71049 0 0.02 0.71049 0 0.04 0.71049 0 0.06 0.71049 0 0.08 0.71049 0 0.1 0.71049 0 0 0.712893 0 0.02 0.712893 0 0.04 0.712893 0 0.06 0.712893 0 0.08 0.712893 0 0.1 0.712893 0 0 0.71529 0 0.02 0.71529 0 0.04 0.71529 0 0.06 0.71529 0 0.08 0.71529 0 0.1 0.71529 0 0 0.71768 0 0.02 0.71768 0 0.04 0.71768 0 0.06 0.71768 0 0.08 0.71768 0 0.1 0.71768 0 0 0.720065 0 0.02 0.720065 0 0.04 0.720065 0 0.06 0.720065 0 0.08 0.720065 0 0.1 0.720065 0 0 0.722446 0 0.02 0.722446 0 0.04 0.722446 0 0.06 0.722446 0 0.08 0.722446 0 0.1 0.722446 0 0 0.724824 0 0.02 0.724824 0 0.04 0.724824 0 0.06 0.724824 0 0.08
[...]
			<PointData Scalars="VitesseX">
				<DataArray Name="VitesseX" type="Float32" format="ascii">
 0 7.56403e-15 1.26222e-14 8.32984e-15 1.44718e-14 0 0 7.24245e-15 1.23929e-14 7.68565e-15 1.41622e-14 0 0 7.03658e-15 1.05673e-14 6.8003e-15 1.38696e-14 0 0 6.50713e-15 8.01017e-15 7.22121e-15 1.15794e-14 0 0 5.4835e-15 6.04809e-15 7.50756e-15 9.72063e-15 0 0 3.61794e-15 5.33487e-15 5.81933e-15 1.04986e-14 0 0 1.79531e-15 3.35067e-15 5.35136e-15 1.09614e-14 0 0 1.13312e-15 -1.40358e-15 6.71154e-15 9.62685e-15 0 0 5.09833e-16 -4.50999e-15 7.3982e-15 9.02567e-15 0 0 3.54718e-16 -6.53178e-15 6.65089e-15 1.02024e-14 0 0 -3.29837e-16 -6.68803e-15 4.70846e-15 1.17006e-14 0 0 -2.08425e-15 -3.59524e-15 4.25407e-15 1.27143e-14 0 0 -3.78938e-15 -2.14464e-15 7.25439e-15 1.16843e-14 0 0 -4.09359e-15 -2.50227e-15 6.87651e-15 1.14141e-14 0 0 -2.77441e-15 -1.42218e-15 4.51816e-15 9.97963e-15 0 0 -2.48215e-15 -1.92029e-15 5.84917e-15 8.20279e-15 0 0 -3.30136e-15 2.99957e-16 3.84843e-15 1.08316e-14 0 0 -2.05011e-15 4.10378e-15 6.61487e-16 1.27665e-14 0 0 9.38554e-16 5.20708e-15 1.35306e-15 1.3222e-14 0 0 2.97365e-15 5.19191e-15 4.96151e-15 1.8113e-14 0 0 4.14068e-16 5.65292e-15 9.13692e-15 1.92576e-14 0 0 3.78369e-16 5.23128e-15 1.03471e-14 1.29642e-14 0 0 4.00184e-15 7.17541e-15 6.60432e-15 7.10518e-15 0 0 5.40395e-15 5.48559e-15 1.14513e-14 -1.55971e-15 0 0 6.81543e-15 2.75643e-15 7.24044e-15 3.64843e-15 0 0 8.37535e-15 5.85302e-15 -2.95247e-15 6.82544e-15 0 0 8.63922e-15 7.45617e-15 1.92713e-15 -6.32853e-15 0 0 5.74791e-15 1.32746e-14 2.82321e-16 -4.18226e-15 0 0 5.63097e-16 2.14625e-14 -2.09643e-15 3.07743e-15 0 0 -2.02258e-16 1.98206e-14 3.1708e-15 2.86466e-15 0 0 2.96729e-15 1.47141e-14 4.57997e-15 6.24602e-15 0 0 -1.27146e-16 2.17264e-14 -4.59202e-16 1.13466e-14 0 0 -3.04839e-15 2.81135e-14 1.5806e-15 5.33081e-15 0 0 4.74423e-15 2.79648e-14 8.17122e-15 -2.56303e-15 0 0 1.46054e-14 3.36402e-14 6.23761e-15 3.6827e-15 0 0 2.06146e-14 3.99309e-14 9.58047e-15 1.52199e-14 0 0 3.06123e-14 4.47726e-14 1.73858e-14 2.24036e-14 0 0 4.63371e-14 4.15217e-14 4.1917e-14 1.60531e-14 0 0 4.40296e-14 5.02671e-14 5.57774e-14 2.13687e-14 0 0 4.341e-14 5.33995e-14 5.78597e-14 3.69744e-14 0 0 4.17728e-14 4.7004e-14 7.06096e-14 3.21839e-14 0 0 2.91193e-14 5.68615e-14 5.22289e-14 3.01301e-14 0 0 2.89165e-14 6.16126e-14 2.94526e-14 3.30397e-14 0 0 3.03749e-14 4.66578e-14 2.18468e-14 4.48714e-14 0 0 2.95057e-14 2.13684e-14 2.80243e-14 4.64399e-14 0 0 2.12391e-14 1.43871e-14 2.83343e-14 3.21728e-14 0 0 2.4391e-15 5.15612e-18 2.13455e-14 2.6176e-14 0 0 -8.3888e-15 -1.39603e-14 1.43393e-14 2.1572e-14 0 0 -8.95294e-15 -7.76064e-15 3.45493e-15 6.24898e-16 0 0 -8.25738e-15 -9.33958e-15 2.91488e-15 -2.56595e-14 0 0 -2.01251e-14 -6.2045e-15 -1.62328e-14 -2.6231e-14 0 0 -2.84986e-14 -7.03489e-15 -3.63417e-14 -2.64526e-14 0 0 -1.5558e-14 -2.38819e-14 -3.72109e-14 -4.21579e-14 0 0 -1.96704e-14 -1.91711e-14 -4.08588e-14 -5.0551e-14 0 0 -1.19536e-14 -4.26338e-14 -4.11066e-14 -4.61987e-14 0 0 -2.62222e-15 -6.46241e-14 -4.38061e-14 -3.71977e-14 0 0 -9.48028e-16 -5.8578e-14 -4.78201e-14 -3.03768e-14 0 0 4.02344e-15 -5.28116e-14 -5.91073e-14 -3.84473e-14 0 0 1.39451e-15 -5.31536e-14 -5.88504e-14 -4.92475e-14 0 0 -2.91138e-14 -3.77953e-14 -6.38629e-14 -2.837e-14 0 0 -2.12671e-14 -3.7656e-14 -7.12893e-14 -6.9999e-15 0 0 -1.38257e-14 -5.55567e-14 -5.1544e-14 -1.35338e-14 0 0 -3.89729e-14 -5.27895e-14 -3.56156e-14 -1.73222e-14 0 0 -1.37163e-14 -5.87803e-14 -3.38016e-14 -1.03249e-14 0 0 -1.83174e-14 -4.80034e-14 -2.53874e-14 1.5475e-15 0 0 -3.74178e-14 -6.32337e-14 4.07365e-15 -3.45712e-15 0 0 -4.33235e-14 -6.74587e-14 1.21736e-15 -2.12463e-14 0 0 -5.1321e-14 -2.55855e-14 -3.40275e-14 3.51569e-15 0 0 -4.83141e-14 -2.98026e-14 -2.4708e-14 2.08492e-15 0 0 -4.14861e-14 -5.83226e-14 -7.35349e-15 -1.24624e-14 0 0 -2.24461e-14 -5.17908e-14 -2.73666e-14 9.69344e-15 0 0 -1.26574e-14 -1.42208e-14 -5.20021e-14 1.62648e-14 0 0 -1.92799e-14 -4.08258e-15 -4.24957e-14 5.83266e-16 0 0 -2.40056e-14 -4.98738e-14 -1.19433e-14 -2.31422e-14 0 0 -3.07004e-14 -5.88661e-14 -4.75181e-15 -4.00964e-14 0 0 -1.85911e-14 -4.67637e-14 -1.69845e-14 -1.91656e-14 0 0 -6.17139e-15 -6.42774e-14 -7.70229e-15 6.97922e-15 0 0 -2.49495e-14 -4.70988e-14 -3.37723e-15 -3.69901e-15 0 0 -3.38604e-14 -2.85242e-14 -2.62852e-14 1.79006e-14 0 0 -1.5595e-14 -4.57483e-14 -2.0235e-14 3.25232e-14 0 0 1.20686e-14 -5.60921e-14 -1.03499e-14 -1.01525e-15 0 0 -2.91123e-15 -3.62064e-14 1.57816e-15 -4.16901e-14 0 0 -2.26895e-14 -4.56102e-14 -1.44875e-14 -2.23952e-14 0 0 -2.3802e-14 -3.46522e-14 -4.62566e-14 4.42204e-15 0 0 2.62807e-15 -2.70138e-14 -3.5058e-14 -3.04385e-16 0 0 5.73455e-15 -2.96662e-14 -2.78115e-14 1.05834e-14 0 0 -6.96599e-15 -2.49065e-14 -1.49607e-14 1.58484e-14 0 0 1.08894e-14 -9.49833e-15 -5.91419e-15 -8.72936e-15 0 0 1.0348e-14 1.30309e-14 5.72053e-15 -3.02051e-14 0 0 3.37482e-15 7.98712e-15 5.6209e-15 7.77791e-15 0 0 5.11725e-15 1.26326e-14 7.67632e-15 1.83315e-14 0 0 9.96862e-15 1.7545e-14 1.68485e-14 1.20238e-14 0 0 1.56302e-14 2.13992e-14 2.00089e-14 6.15708e-15 0 0 7.70969e-15 1.59199e-14 1.61932e-14 3.18814e-15 0 0 8.57602e-17 9.95131e-15 3.6981e-16 1.20664e-14 0 0 -7.8886e-15 -4.75957e-15 -7.12838e-15 -2.5121e-15 0 0 -5.93879e-15 -2.07385e-14 -6.38569e-15 -2.37049e-14 0 0 -8.4927e-15 -1.64323e-14 -1.68173e-14 -2.45718e-14 0 0 -1.12691e-14 -1.14403e-14 -1.81157e-14 -1.24065e-14 0 0 1.34343e-15 -6.71662e-15 -1.11499e-14 -1.60576e-15 0 0 -2.6766e-15 1.47902e-14 -1.87578e-15 1.8236e-14 0 0 -9.24788e-15 5.13088e-14 3.51677e-14 -2.67303e-14 0 0 1.67748e-14 2.29343e-14 2.78943e-14 -3.12468e-14 0 0 2.22179e-14 2.54984e-14 2.76384e-14 3.14316e-14 0 0 2.87155e-14 2.56122e-14 5.26149e-14 8.74409e-15 0 0 3.11085e-14 4.47716e-14 5.01423e-14 8.86137e-15 0 0 4.46082e-14 6.86152e-14 3.1014e-15 1.37615e-14 0 0 4.8752e-14 4.52506e-14 2.31203e-14 4.16273e-15 0 0 1.45376e-14 1.35949e-14 1.83176e-14 -1.15781e-14 0 0 -3.70758e-14 -5.21851e-14 -9.48901e-14 -8.75707e-14 0 0 -8.60287e-14 -1.58914e-13 -1.97402e-13 -1.20103e-13 0 0 -1.45855e-13 -2.36443e-13 -3.11877e-13 -1.83828e-13 0 0 -1.97677e-13 -2.56201e-13 -4.00018e-13 -1.7637e-13 0 0 -1.80099e-13 -2.74961e-13 -3.73281e-13 -1.53477e-13 0 0 -1.51145e-13 -3.07018e-13 -3.23266e-13 -1.96069e-13 0 0 -1.39141e-13 -3.24191e-13 -2.88031e-13 -1.40418e-13 0 0 -1.23319e-13 -2.87338e-13 -2.5894e-13 -1.35716e-13 0 0 -1.26099e-13 -2.38813e-13 -2.31746e-13 -1.85725e-13 0 0 -1.10154e-13 -2.18857e-13 -2.2838e-13 -1.64534e-13 0 0 -7.94377e-14 -2.13493e-13 -1.77056e-13 -1.16162e-13 0 0 -6.49507e-14 -2.09885e-13 -1.4512e-13 -8.18987e-14 0 0 -5.72168e-14 -1.62794e-13 -1.81207e-13 -8.08256e-14 0 0 -6.85892e-14 -1.06554e-13 -1.57806e-13 -1.21376e-13 0 0 -4.99868e-14 -1.17036e-13 -8.93061e-14 -1.20274e-13 0 0 -3.27514e-14 -1.15993e-13 -1.07287e-13 -1.09465e-13 0 0 -6.31371e-14 -7.47069e-14 -1.23315e-13 -6.58661e-14 0 0 -5.78673e-14 -3.44046e-14 -1.59227e-13 -5.34116e-14 0 0 -5.07629e-14 -3.57722e-14 -1.46007e-13 -6.5336e-14 0 0 -5.77602e-14 -5.26492e-14 -7.99587e-14 -5.48993e-14 0 0 -3.37895e-14 -6.47643e-14 -1.03941e-13 -6.91104e-14 0 0 -2.7988e-14 -7.58042e-14 -1.10239e-13 -9.79758e-14 0 0 -3.34726e-14 -8.0626e-14 -9.66954e-14 -8.55396e-14 0 0 -4.16239e-14 -8.85621e-14 -8.9103e-14 -7.14831e-14 0 0 -1.82904e-14 -1.08469e-13 -6.17624e-14 -8.97194e-14 0 0 -1.43574e-14 -9.37703e-14 -9.84938e-14 -8.17357e-14 0 0 -5.08465e-14 -2.53935e-14 -1.62899e-13 -5.5807e-14 0 0 -6.23014e-14 -1.29043e-14 -1.86149e-13 -2.9111e-14 0 0 -5.3682e-14 -4.30128e-14 -1.68614e-13 -3.28584e-14 0 0 -5.62462e-14 -2.55706e-14 -1.70983e-13 -4.60148e-14 0 0 -5.99822e-14 -3.15288e-14 -1.74519e-13 -5.22467e-14 0 0 -3.04646e-14 -6.59268e-14 -1.25027e-13 -4.25852e-14 0 0 -1.5787e-14 -8.0577e-14 -9.31747e-14 -5.24529e-14 0 0 -2.44879e-14 -1.02941e-13 -4.94677e-14 -1.65073e-13 0 0 -1.22264e-14 -9.35744e-14 -9.04411e-14 -1.51778e-13 0 0 -3.20296e-14 -4.24959e-14 -1.3825e-13 -8.76382e-14 0 0 -8.91375e-14 -1.66563e-14 -1.402e-13 -8.1321e-14 0 0 -6.61688e-14 -5.7762e-15 -1.46467e-13 -5.6766e-14 0 0 -2.95607e-14 -6.42855e-14 -8.38732e-14 -4.70733e-14 0 0 1.06927e-14 -7.42175e-14 -6.03642e-14 -1.05413e-13 0 0 5.18644e-14 -7.00609e-14 -1.089e-13 -8.41361e-14 0 0 2.84941e-14 -7.75117e-14 -6.24355e-14 4.07973e-15 0 0 7.24892e-16 1.56273e-14 -1.04722e-13 6.15813e-14 0 0 -3.18491e-14 5.77808e-14 -1.41573e-13 1.1917e-13 0 0 -5.87144e-14 6.09717e-14 -2.01438e-14 -1.38625e-14 0 0 -3.12872e-14 2.26306e-14 2.32784e-14 -2.53618e-15 0 0 -1.01825e-13 1.00948e-13 -9.85946e-14 1.67273e-13 0 0 -1.38478e-13 1.56962e-13 -1.62165e-13 1.33441e-13 0 0 -4.18879e-14 3.94973e-14 -1.39438e-13 1.03568e-15 0 0 -2.86086e-14 4.39836e-14 -1.82569e-13 -5.52135e-14 0 0 -2.68114e-14 3.24284e-14 -1.94131e-13 -3.72908e-14 0 0 1.05029e-14 -3.51591e-14 -2.07985e-13 -4.40841e-14 0 0 -1.43699e-14 -3.51312e-14 -1.74671e-13 -1.16608e-13 0 0 -7.46074e-14 -4.28455e-14 -1.05209e-13 -1.44098e-13 0 0 -8.12372e-14 -5.52987e-14 2.00939e-14 -2.17293e-13 0 0 -5.73643e-14 -5.70717e-14 1.36961e-13 -3.06408e-13 0 0 -2.91592e-14 -7.585e-14 1.33514e-13 -1.7453e-13 0 0 -2.69546e-14 -5.44157e-14 3.51692e-14 -8.1921e-14 0 0 -2.00019e-14 -1.22237e-14 -8.52346e-14 -5.60121e-14 0 0 1.28234e-14 -4.60023e-14 -5.88189e-14 3.16808e-14 0 0 1.91622e-14 -1.81802e-14 -3.53439e-15 -2.61168e-14 0 0 1.63144e-14 -2.48449e-14 1.77885e-14 3.72894e-15 0 0 3.8335e-14 -7.59047e-15 7.3534e-14 1.25972e-14 0 0 5.66639e-14 4.65818e-14 1.10989e-13 -4.44441e-14 0 0 6.28294e-14 2.74156e-14 1.02181e-13 6.54122e-14 0 0 6.19977e-14 5.80522e-14 1.12554e-13 4.302e-14 0 0 6.30743e-14 1.13756e-13 1.16727e-13 1.1765e-14 0 0 7.61157e-14 1.21735e-13 1.14737e-13 4.07918e-14 0 0 7.8569e-14 1.19065e-13 1.23025e-13 4.36041e-14 0 0 8.42766e-14 1.39013e-13 1.39372e-13 5.74806e-14 0 0 9.85805e-14 1.46107e-13 1.54006e-13 5.58068e-14 0 0 1.0339e-13 1.67535e-13 1.11933e-13 1.154e-13 0 0 1.09252e-13 1.67947e-13 1.10112e-13 1.551e-13 0 0 1.19602e-13 1.68012e-13 1.33944e-13 1.01191e-13 0 0 1.1504e-13 1.88326e-13 1.17059e-13 8.8159e-14 0 0 1.23725e-13 1.72801e-13 1.1722e-13 1.39887e-13 0 0 1.17387e-13 1.85712e-13 1.11618e-13 1.32324e-13 0 0 1.02179e-13 2.06988e-13 1.24532e-13 6.09189e-14 0 0 1.06806e-13 1.80528e-13 1.37853e-13 7.70152e-14 0 0 1.10422e-13 1.69326e-13 1.16656e-13 8.3031e-14 0 0 1.20301e-13 1.73065e-13 1.09819e-13 6.73404e-14 0 0 1.34919e-13 1.41062e-13 1.13637e-13 6.11222e-14 0 0 1.07495e-13 1.4008e-13 1.17336e-13 1.06627e-15 0 0 8.45107e-14 1.27976e-13 1.11523e-13 6.13201e-15 0 0 8.54719e-14 9.42747e-14 8.90684e-14 1.07594e-14 0 0 8.80568e-14 7.95791e-14 5.49578e-14 8.48636e-15 0 0 1.00642e-13 3.71463e-14 5.4472e-14 -7.44749e-15 0 0 6.78304e-14 6.70765e-14 -1.97812e-15 1.64879e-14 0 0 3.08861e-14 8.62337e-14 -1.90703e-14 1.77183e-14 0 0 3.96054e-14 2.85992e-14 2.55181e-14 -7.60853e-15 0 0 4.13381e-14 1.85767e-14 3.72817e-14 -1.68705e-14 0 0 3.25289e-14 3.20384e-14 5.85837e-14 -6.05499e-14 0
				</DataArray>
				<DataArray Name="VitesseY" type="Float32" format="ascii">