<?xml version="1.0"?>
<VTKFile type="PolyData">
	<PolyData>
		<Piece NumberOfPoints="1206" NumberOfPolys="1000">
			<Points>
				<DataArray type="Float32" NumberOfComponents="3" format="ascii">
 0 0 0 0.02 0 0 0.04 0 0 0.06 0 0 0.08 0 0 0.1 0 0 0 0.005 0 0.02 0.005 0 0.04 0.005 0 0.06 0.005 0 0.08 0.005 0 0.1 0.005 0 0 0.01 0 0.02 0.01 0 0.04 0.01 0 0.06 0.01 0 0.08 0.01 0 0.1 0.01 0 0 0.015 0 0.02 0.015 0 0.04 0.015 0 0.06 0.015 0 0.08 0.015 0 0.1 0.015 0 0 0.02 0 0.02 0.02 0 0.04 0.02 0 0.06 0.02 0 0.08 0.02 0 0.1 0.02 0 0 0.025 0 0.02 0.025 0 0.04 0.025 0 0.06 0.025 0 0.08 0.025 0 0.1 0.025 0 0 0.03 0 0.02 0.03 0 0.04 0.03 0 0.06 0.03 0 0.08 0.03 0 0.1 0.03 0 0 0.035 0 0.02 0.035 0 0.04 0.035 0 0.06 0.035 0 0.08 0.035 0 0.1 0.035 0 0 0.04 0 0.02 0.04 0 0.04 0.04 0 0.06 0.04 0 0.08 0.04 0 0.1 0.04 0 0 0.045 0 0.02 0.045 0 0.04 0.045 0 0.06 0.045 0 0.08 0.045 0 0.1 0.045 0 0 0.05 0 0.02 0.05 0 0.04 0.05 0 0.06 0.05 0 0.08 0.05 0 0.1 0.05 0 0 0.055 0 0.02 0.055 0 0.04 0.055 0 0.06 0.055 0 0.08 0.055 0 0.1 0.055 0 0 0.06 0 0.02 0.06 0 0.04 0.06 0 0.06 0.06 0 0.08 0.06 0 0.1 0.06 0 0 0.065 0 0.02 0.065 0 0.04 0.065 0 0.06 0.065 0 0.08 0.065 0 0.1 0.065 0 0 0.07 0 0.02 0.07 0 0.04 0.07 0 0.06 0.07 0 0.08 0.07 0 0.1 0.07 0 0 0.075 0 0.02 0.075 0 0.04 0.075 0 0.06 0.075 0 0.08 0.075 0 0.1 0.075 0 0 0.08 0 0.02 0.08 0 0.04 0.08 0 0.06 0.08 0 0.08 0.08 0 0.1 0.08 0 0 0.085 0 0.02 0.085 0 0.04 0.085 0 0.06 0.085 0 0.08 0.085 0 0.1 0.085 0 0 0.09 0 0.02 0.09 0 0.04 0.09 0 0.06 0.09 0 0.08 0.09 0 0.1 0.09 0 0 0.095 0 0.02 0.095 0 0.04 0.095 0 0.06 0.095 0 0.08 0.095 0 0.1 0.095 0 0 0.1 0 0.02 0.1 0 0.04 0.1 0 0.06 0.1 0 0.08 0.1 0 0.1 0.1 0 0 0.105 0 0.02 0.105 0 0.04 0.105 0 0.06 0.105 0 0.08 0.105 0 0.1 0.105 0 0 0.11 0 0.02 0.11 0 0.04 0.11 0 0.06 0.11 0 0.08 0.11 0 0.1 0.11 0 0 0.115 0 0.02 0.115 0 0.04 0.115 0 0.06 0.115 0 0.08 0.115 0 0.1 0.115 0 0 0.12 0 0.02 0.12 0 0.04 0.12 0 0.06 0.12 0 0.08 0.12 0 0.1 0.12 0 0 0.125 0 0.02 0.125 0 0.04 0.125 0 0.06 0.125 0 0.08 0.125 0 0.1 0.125 0 0 0.13 0 0.02 0.13 0 0.04 0.13 0 0.06 0.13 0 0.08 0.13 0 0.1 0.13 0 0 0.135 0 0.02 0.135 0 0.04 0.135 0 0.06 0.135 0 0.08 0.135 0 0.1 0.135 0 0 0.14 0 0.02 0.14 0 0.04 0.14 0 0.06 0.14 0 0.08 0.14 0 0.1 0.14 0 0 0.145 0 0.02 0.145 0 0.04 0.145 0 0.06 0.145 0 0.08 0.145 0 0.1 0.145 0 0 0.15 0 0.02 0.15 0 0.04 0.15 0 0.06 0.15 0 0.08 0.15 0 0.1 0.15 0 0 0.155 0 0.02 0.155 0 0.04 0.155 0 0.06 0.155 0 0.08 0.155 0 0.1 0.155 0 0 0.16 0 0.02 0.16 0 0.04 0.16 0 0.06 0.16 0 0.08 0.16 0 0.1 0.16 0 0 0.165 0 0.02 0.165 0 0.04 0.165 0 0.06 0.165 0 0.08 0.165 0 0.1 0.165 0 0 0.17 0 0.02 0.17 0 0.04 0.17 0 0.06 0.17 0 0.08 0.17 0 0.1 0.17 0 0 0.175 0 0.02 0.175 0 0.04 0.175 0 0.06 0.175 0 0.08 0.175 0 0.1 0.175 0 0 0.18 0 0.02 0.18 0 0.04 0.18 0 0.06 0.18 0 0.08 0.18 0 0.1 0.18 0 0 0.185 0 0.02 0.185 0 0.04 0.185 0 0.06 0.185 0 0.08 0.185 0 0.1 0.185 0 0 0.19 0 0.02 0.19 0 0.04 0.19 0 0.06 0.19 0 0.08 0.19 0 0.1 0.19 0 0 0.195 0 0.02 0.195 0 0.04 0.195 0 0.06 0.195 0 0.08 0.195 0 0.1 0.195 0 0 0.2 0 0.02 0.2 0 0.04 0.2 0 0.06 0.2 0 0.08 0.2 0 0.1 0.2 0 0 0.205 0 0.02 0.205 0 0.04 0.205 0 0.06 0.205 0 0.08 0.205 0 0.1 0.205 0 0 0.21 0 0.02 0.21 0 0.04 0.21 0 0.06 0.21 0 0.08 0.21 0 0.1 0.21 0 0 0.215 0 0.02 0.215 0 0.04 0.215 0 0.06 0.215 0 0.08 0.215 0 0.1 0.215 0 0 0.22 0 0.02 0.22 0 0.04 0.22 0 0.06 0.22 0 0.08 0.22 0 0.1 0.22 0 0 0.225 0 0.02 0.225 0 0.04 0.225 0 0.06 0.225 0 0.08 0.225 0 0.1 0.225 0 0 0.23 0 0.02 0.23 0 0.04 0.23 0 0.06 0.23 0 0.08 0.23 0 0.1 0.23 0 0 0.235 0 0.02 0.235 0 0.04 0.235 0 0.06 0.235 0 0.08 0.235 0 0.1 0.235 0 0 0.24 0 0.02 0.24 0 0.04 0.24 0 0.06 0.24 0 0.08 0.24 0 0.1 0.24 0 0 0.245 0 0.02 0.245 0 0.04 0.245 0 0.06 0.245 0 0.08 0.245 0 0.1 0.245 0 0 0.25 0 0.02 0.25 0 0.04 0.25 0 0.06 0.25 0 0.08 0.25 0 0.1 0.25 0 0 0.255 0 0.02 0.255 0 0.04 0.255 0 0.06 0.255 0 0.08 0.255 0 0.1 0.255 0 0 0.26 0 0.02 0.26 0 0.04 0.26 0 0.06 0.26 0 0.08 0.26 0 0.1 0.26 0 0 0.265 0 0.02 0.265 0 0.04 0.265 0 0.06 0.265 0 0.08 0.265 0 0.1 0.265 0 0 0.27 0 0.02 0.27 0 0.04 0.27 0 0.06 0.27 0 0.08 0.27 0 0.1 0.27 0 0 0.275 0 0.02 0.275 0 0.04 0.275 0 0.06 0.275 0 0.08 0.275 0 0.1 0.275 0 0 0.28 0 0.02 0.28 0 0.04 0.28 0 0.06 0.28 0 0.08 0.28 0 0.1 0.28 0 0 0.285 0 0.02 0.285 0 0.04 0.285 0 0.06 0.285 0 0.08 0.285 0 0.1 0.285 0 0 0.29 0 0.02 0.29 0 0.04 0.29 0 0.06 0.29 0 0.08 0.29 0 0.1 0.29 0 0 0.295 0 0.02 0.295 0 0.04 0.295 0 0.06 0.295 0 0.08 0.295 0 0.1 0.295 0 0 0.3 0 0.02 0.3 0 0.04 0.3 0 0.06 0.3 0 0.08 0.3 0 0.1 0.3 0 0 0.305 0 0.02 0.305 0 0.04 0.305 0 0.06 0.305 0 0.08 0.305 0 0.1 0.305 0 0 0.31 0 0.02 0.31 0 0.04 0.31 0 0.06 0.31 0 0.08 0.31 0 0.1 0.31 0 0 0.315 0 0.02 0.315 0 0.04 0.315 0 0.06 0.315 0 0.08 0.315 0 0.1 0.315 0 0 0.32 0 0.02 0.32 0 0.04 0.32 0 0.06 0.32 0 0.08 0.32 0 0.1 0.32 0 0 0.325 0 0.02 0.325 0 0.04 0.325 0 0.06 0.325 0 0.08 0.325 0 0.1 0.325 0 0 0.33 0 0.02 0.33 0 0.04 0.33 0 0.06 0.33 0 0.08 0.33 0 0.1 0.33 0 0 0.335 0 0.02 0.335 0 0.04 0.335 0 0.06 0.335 0 0.08 0.335 0 0.1 0.335 0 0 0.34 0 0.02 0.34 0 0.04 0.34 0 0.06 0.34 0 0.08 0.34 0 0.1 0.34 0 0 0.345 0 0.02 0.345 0 0.04 0.345 0 0.06 0.345 0 0.08 0.345 0 0.1 0.345 0 0 0.35 0 0.02 0.35 0 0.04 0.35 0 0.06 0.35 0 0.08 0.35 0 0.1 0.35 0 0 0.355 0 0.02 0.355 0 0.04 0.355 0 0.06 0.355 0 0.08 0.355 0 0.1 0.355 0 0 0.36 0 0.02 0.36 0 0.04 0.36 0 0.06 0.36 0 0.08 0.36 0 0.1 0.36 0 0 0.365 0 0.02 0.365 0 0.04 0.365 0 0.06 0.365 0 0.08 0.365 0 0.1 0.365 0 0 0.37 0 0.02 0.37 0 0.04 0.37 0 0.06 0.37 0 0.08 0.37 0 0.1 0.37 0 0 0.375 0 0.02 0.375 0 0.04 0.375 0 0.06 0.375 0 0.08 0.375 0 0.1 0.375 0 0 0.38 0 0.02 0.38 0 0.04 0.38 0 0.06 0.38 0 0.08 0.38 0 0.1 0.38 0 0 0.385 0 0.02 0.385 0 0.04 0.385 0 0.06 0.385 0 0.08 0.385 0 0.1 0.385 0 0 0.39 0 0.02 0.39 0 0.04 0.39 0 0.06 0.39 0 0.08 0.39 0 0.1 0.39 0 0 0.395 0 0.02 0.395 0 0.04 0.395 0 0.06 0.395 0 0.08 0.395 0 0.1 0.395 0 0 0.4 0 0.02 0.4 0 0.04 0.4 0 0.06 0.4 0 0.08 0.4 0 0.1 0.4 0 0 0.405 0 0.02 0.405 0 0.04 0.405 0 0.06 0.405 0 0.08 0.405 0 0.1 0.405 0 0 0.41 0 0.02 0.41 0 0.04 0.41 0 0.06 0.41 0 0.08 0.41 0 0.1 0.41 0 0 0.415 0 0.02 0.415 0 0.04 0.415 0 0.06 0.415 0 0.08 0.415 0 0.1 0.415 0 0 0.42 0 0.02 0.42 0 0.04 0.42 0 0.06 0.42 0 0.08 0.42 0 0.1 0.42 0 0 0.425 0 0.02 0.425 0 0.04 0.425 0 0.06 0.425 0 0.08 0.425 0 0.1 0.425 0 0 0.43 0 0.02 0.43 0 0.04 0.43 0 0.06 0.43 0 0.08 0.43 0 0.1 0.43 0 0 0.435 0 0.02 0.435 0 0.04 0.435 0 0.06 0.435 0 0.08 0.435 0 0.1 0.435 0 0 0.44 0 0.02 0.44 0 0.04 0.44 0 0.06 0.44 0 0.08 0.44 0 0.1 0.44 0 0 0.445 0 0.02 0.445 0 0.04 0.445 0 0.06 0.445 0 0.08 0.445 0 0.1 0.445 0 0 0.45 0 0.02 0.45 0 0.04 0.45 0 0.06 0.45 0 0.08 0.45 0 0.1 0.45 0 0 0.455 0 0.02 0.455 0 0.04 0.455 0 0.06 0.455 0 0.08 0.455 0 0.1 0.455 0 0 0.46 0 0.02 0.46 0 0.04 0.46 0 0.06 0.46 0 0.08 0.46 0 0.1 0.46 0 0 0.465004 0 0.02 0.465004 0 0.04 0.465004 0 0.06 0.465004 0 0.08 0.465004 0 0.1 0.465004 0 0 0.470032 0 0.02 0.470032 0 0.04 0.470032 0 0.06 0.470032 0 0.08 0.470032 0 0.1 0.470032 0 0 0.475179 0 0.02 0.475179 0 0.04 0.475179 0 0.06 0.475179 0 0.08 0.475179 0 0.1 0.475179 0 0 0.48071 0 0.02 0.48071 0 0.04 0.48071 0 0.06 0.48071 0 0.08 0.48071 0 0.1 0.48071 0 0 0.487093 0 0.02 0.487093 0 0.04 0.487093 0 0.06 0.487093 0 0.08 0.487093 0 0.1 0.487093 0 0 0.495028 0 0.02 0.495028 0 0.04 0.495028 0 0.06 0.495028 0 0.08 0.495028 0 0.1 0.495028 0 0 0.505614 0 0.02 0.505614 0 0.04 0.505614 0 0.06 0.505614 0 0.08 0.505614 0 0.1 0.505614 0 0 0.518717 0 0.02 0.518717 0 0.04 0.518717 0 0.06 0.518717 0 0.08 0.518717 0 0.1 0.518717 0 0 0.521384 0 0.02 0.521384 0 0.04 0.521384 0 0.06 0.521384 0 0.08 0.521384 0 0.1 0.521384 0 0 0.523891 0 0.02 0.523891 0 0.04 0.523891 0 0.06 0.523891 0 0.08 0.523891 0 0.1 0.523891 0 0 0.526375 0 0.02 0.526375 0 0.04 0.526375 0 0.06 0.526375 0 0.08 0.526375 0 0.1 0.526375 0 0 0.528928 0 0.02 0.528928 0 0.04 0.528928 0 0.06 0.528928 0 0.08 0.528928 0 0.1 0.528928 0 0 0.531638 0 0.02 0.531638 0 0.04 0.531638 0 0.06 0.531638 0 0.08 0.531638 0 0.1 0.531638 0 0 0.534599 0 0.02 0.534599 0 0.04 0.534599 0 0.06 0.534599 0 0.08 0.534599 0 0.1 0.534599 0 0 0.537901 0 0.02 0.537901 0 0.04 0.537901 0 0.06 0.537901 0 0.08 0.537901 0 0.1 0.537901 0 0 0.541613 0 0.02 0.541613 0 0.04 0.541613 0 0.06 0.541613 0 0.08 0.541613 0 0.1 0.541613 0 0 0.545755 0 0.02 0.545755 0 0.04 0.545755 0 0.06 0.545755 0 0.08 0.545755 0 0.1 0.545755 0 0 0.550282 0 0.02 0.550282 0 0.04 0.550282 0 0.06 0.550282 0 0.08 0.550282 0 0.1 0.550282 0 0 0.555082 0 0.02 0.555082 0 0.04 0.555082 0 0.06 0.555082 0 0.08 0.555082 0 0.1 0.555082 0 0 0.560019 0 0.02 0.560019 0 0.04 0.560019 0 0.06 0.560019 0 0.08 0.560019 0 0.1 0.560019 0 0 0.565004 0 0.02 0.565004 0 0.04 0.565004 0 0.06 0.565004 0 0.08 0.565004 0 0.1 0.565004 0 0 0.570001 0 0.02 0.570001 0 0.04 0.570001 0 0.06 0.570001 0 0.08 0.570001 0 0.1 0.570001 0 0 0.575 0 0.02 0.575 0 0.04 0.575 0 0.06 0.575 0 0.08 0.575 0 0.1 0.575 0 0 0.58 0 0.02 0.58 0 0.04 0.58 0 0.06 0.58 0 0.08 0.58 0 0.1 0.58 0 0 0.585 0 0.02 0.585 0 0.04 0.585 0 0.06 0.585 0 0.08 0.585 0 0.1 0.585 0 0 0.59 0 0.02 0.59 0 0.04 0.59 0 0.06 0.59 0 0.08 0.59 0 0.1 0.59 0 0 0.595 0 0.02 0.595 0 0.04 0.595 0 0.06 0.595 0 0.08 0.595 0 0.1 0.595 0 0 0.6 0 0.02 0.6 0 0.04 0.6 0 0.06 0.6 0 0.08 0.6 0 0.1 0.6 0 0 0.605 0 0.02 0.605 0 0.04 0.605 0 0.06 0.605 0 0.08 0.605 0 0.1 0.605 0 0 0.61 0 0.02 0.61 0 0.04 0.61 0 0.06 0.61 0 0.08 0.61 0 0.1 0.61 0 0 0.615 0 0.02 0.615 0 0.04 0.615 0 0.06 0.615 0 0.08 0.615 0 0.1 0.615 0 0 0.62 0 0.02 0.62 0 0.04 0.62 0 0.06 0.62 0 0.08 0.62 0 0.1 0.62 0 0 0.625 0 0.02 0.625 0 0.04 0.625 0 0.06 0.625 0 0.08 0.625 0 0.1 0.625 0 0 0.63 0 0.02 0.63 0 0.04 0.63 0 0.06 0.63 0 0.08 0.63 0 0.1 0.63 0 0 0.635 0 0.02 0.635 0 0.04 0.635 0 0.06 0.635 0 0.08 0.635 0 0.1 0.635 0 0 0.64 0 0.02 0.64 0 0.04 0.64 0 0.06 0.64 0 0.08 0.64 0 0.1 0.64 0 0 0.645 0 0.02 0.645 0 0.04 0.645 0 0.06 0.645 0 0.08 0.645 0 0.1 0.645 0 0 0.65 0 0.02 0.65 0 0.04 0.65 0 0.06 0.65 0 0.08 0.65 0 0.1 0.65 0 0 0.655 0 0.02 0.655 0 0.04 0.655 0 0.06 0.655 0 0.08 0.655 0 0.1 0.655 0 0 0.66 0 0.02 0.66 0 0.04
[...]
			<PointData Scalars="VitesseX">
				<DataArray Name="VitesseX" type="Float32" format="ascii">
 0 3.16201e-16 -5.25035e-16 1.22508e-15 -6.99066e-16 0 0 1.75012e-16 -5.25035e-16 1.09814e-15 -5.80845e-16 0 0 4.50541e-17 -6.80296e-16 1.32584e-15 -4.78892e-16 0 0 7.01598e-16 -1.09094e-15 9.65029e-16 2.92125e-16 0 0 2.74414e-16 5.28065e-16 -1.1247e-15 9.90665e-16 0 0 -8.68401e-16 1.49181e-15 -1.33611e-15 8.46889e-16 0 0 -1.28277e-15 1.10237e-15 3.54115e-16 1.0029e-16 0 0 5.20699e-16 -1.90958e-15 4.09877e-15 -1.60242e-15 0 0 1.19456e-15 -1.95793e-15 2.93723e-15 4.92981e-16 0 0 2.31175e-16 6.98175e-16 -6.06985e-16 1.51796e-15 0 0 -3.57779e-16 3.30214e-16 -5.80516e-16 8.34635e-16 0 0 -9.27347e-16 -2.16894e-16 1.42558e-15 -1.21596e-15 0 0 1.71763e-15 -3.78731e-15 5.0077e-15 -3.33767e-15 0 0 -1.67857e-15 8.6338e-16 1.45483e-15 2.58627e-15 0 0 -9.2537e-16 1.0996e-15 1.55566e-15 3.74322e-15 0 0 2.76039e-15 -4.51381e-15 5.9638e-15 1.69762e-15 0 0 -2.47427e-15 2.26721e-15 2.20904e-16 4.97932e-15 0 0 -1.59579e-16 5.06112e-15 -7.81893e-15 7.57714e-15 0 0 2.91456e-16 4.65501e-15 -7.27018e-15 6.34265e-15 0 0 -1.50141e-15 1.86111e-15 -4.52696e-16 4.79014e-15 0 0 3.49172e-15 -5.99957e-15 2.80998e-15 8.04e-15 0 0 1.85683e-15 -3.44e-15 -2.46383e-16 1.17914e-14 0 0 -2.04811e-15 3.09629e-15 7.02171e-16 4.88874e-15 0 0 -2.11027e-15 4.4192e-15 2.62954e-16 2.80435e-15 0 0 -8.63824e-17 1.26224e-15 9.12855e-17 7.3279e-15 0 0 9.07308e-17 -2.90534e-15 5.83723e-15 2.4443e-15 0 0 -3.43376e-15 4.46452e-15 -3.55425e-16 1.69772e-15 0 0 -3.27586e-15 2.85629e-15 2.01373e-15 -1.75204e-15 0 0 -1.41811e-15 -9.61815e-16 5.79073e-15 -4.24128e-15 0 0 3.60274e-15 -7.31064e-16 -1.19029e-15 8.20736e-16 0 0 4.10423e-15 -4.05549e-15 3.62319e-15 -1.93797e-16 0 0 3.13944e-15 -4.76388e-15 9.20806e-15 -7.72983e-15 0 0 -3.97766e-16 1.74823e-15 2.68998e-15 -1.01449e-14 0 0 -2.36094e-15 7.50568e-15 -1.67526e-15 -7.93594e-15 0 0 4.19318e-15 -1.68853e-15 4.55999e-15 -6.90081e-15 0 0 1.51591e-16 -1.20539e-15 2.68276e-15 2.17124e-15 0 0 -9.81906e-16 3.96867e-15 -5.17001e-15 8.88697e-15 0 0 2.36094e-15 -1.33878e-15 -1.15674e-15 9.00122e-15 0 0 -6.61589e-16 -2.84457e-15 -1.15605e-15 1.04567e-14 0 0 -1.30622e-15 2.98298e-15 -4.11409e-15 4.05096e-15 0 0 6.64293e-16 -1.77501e-15 3.28093e-15 -2.49633e-15 0 0 1.78166e-15 -4.26588e-15 1.53551e-15 1.25805e-15 0 0 1.31369e-15 -3.82071e-16 7.4177e-15 -6.48235e-15 0 0 -2.69519e-15 3.57349e-16 9.97457e-15 -9.61853e-15 0 0 -1.51069e-15 -2.91153e-15 5.99906e-15 -7.47566e-15 0 0 1.78646e-15 -5.58675e-15 6.30742e-15 -1.21712e-14 0 0 -6.96895e-16 3.70054e-15 -4.89657e-15 4.60032e-16 0 0 -1.84089e-15 9.67467e-15 -9.70137e-15 9.92789e-15 0 0 8.22616e-16 6.83128e-15 -6.464e-15 1.13649e-14 0 0 3.09944e-15 -1.80149e-15 -1.1971e-15 1.50078e-14 0 0 1.53846e-15 -7.38716e-15 7.77885e-15 7.53498e-15 0 0 -1.75781e-15 -4.55422e-16 7.48123e-15 -5.14069e-15 0 0 1.97299e-15 7.87715e-15 2.85057e-15 -1.65995e-14 0 0 8.07081e-15 8.59017e-15 -6.84754e-15 -1.05966e-14 0 0 -3.18105e-15 9.69417e-15 -4.45938e-15 1.64987e-15 0 0 -8.98672e-15 1.3686e-14 -3.13553e-15 -1.95068e-15 0 0 6.09431e-15 1.45505e-14 -1.76207e-14 2.62485e-15 0 0 5.07917e-15 1.34337e-14 -1.24999e-14 5.06132e-15 0 0 -1.75525e-15 1.31811e-14 -5.04826e-15 4.29373e-15 0 0 1.25153e-15 1.41932e-14 -2.1741e-15 -3.68022e-16 0 0 1.6444e-15 9.00782e-15 -4.35256e-16 -9.94583e-15 0 0 2.82187e-15 1.21982e-14 -2.30736e-15 -1.54346e-14 0 0 4.94991e-15 1.64084e-14 -5.99797e-15 -1.18313e-14 0 0 4.54244e-15 1.33419e-14 -1.05485e-14 -1.97692e-15 0 0 2.94117e-15 4.73615e-15 3.21638e-15 -8.8828e-15 0 0 1.97089e-15 2.61076e-15 5.97902e-15 -8.30155e-15 0 0 4.27975e-15 5.64159e-15 1.93201e-15 3.57097e-15 0 0 2.05855e-15 5.94604e-15 2.24307e-15 3.02558e-15 0 0 7.12394e-15 2.84097e-15 -8.76578e-15 1.34388e-16 0 0 1.07959e-14 4.74691e-15 -9.8726e-15 4.5651e-15 0 0 2.07401e-15 8.85973e-15 -6.72747e-15 1.33499e-14 0 0 8.40882e-15 2.38749e-16 -6.5382e-15 1.38334e-14 0 0 1.03663e-14 -4.75922e-15 4.24774e-16 -1.47229e-15 0 0 5.30013e-15 -1.61048e-15 1.82143e-15 -6.05706e-15 0 0 -8.55293e-16 -2.70445e-16 1.04867e-14 -1.01313e-14 0 0 -3.7231e-15 -5.60222e-15 1.7298e-14 -7.3975e-15 0 0 3.64201e-15 2.4568e-16 6.0122e-15 4.26109e-15 0 0 2.98332e-15 8.69959e-15 1.46322e-14 3.29634e-15 0 0 -6.43898e-16 1.38379e-14 1.22424e-14 1.70052e-14 0 0 -2.80753e-15 1.22231e-14 1.2161e-14 1.53079e-14 0 0 5.01147e-15 -5.82637e-16 1.89482e-14 1.29111e-14 0 0 1.14766e-14 3.24357e-15 1.65617e-14 -1.65571e-15 0 0 1.02553e-14 8.66642e-15 2.04529e-14 -1.00708e-14 0 0 8.6919e-15 1.84849e-14 -3.57971e-15 3.22295e-14 0 0 8.14057e-15 2.0582e-14 -1.93232e-14 4.75924e-14 0 0 4.68666e-15 6.01133e-15 -9.82226e-15 2.47704e-14 0 0 2.8631e-15 6.64398e-16 2.76026e-15 5.19038e-16 0 0 1.07225e-14 -5.74417e-15 1.44968e-14 -3.70686e-15 0 0 9.12898e-15 -8.01827e-15 2.79258e-14 -4.6759e-15 0 0 5.73025e-15 4.74213e-15 1.64192e-14 -3.77617e-15 0 0 -3.81555e-15 1.41777e-14 1.79729e-14 -6.05809e-15 0 0 -9.8482e-15 7.07965e-16 2.66203e-14 -6.76259e-15 0 0 7.31035e-15 -2.71999e-15 -1.52922e-14 1.41684e-14 0 0 2.19471e-15 3.878e-15 -7.52399e-15 9.2598e-15 0 0 -5.53724e-15 1.28108e-14 3.89882e-15 -1.75402e-14 0 0 4.32817e-15 7.46741e-15 -3.40139e-15 -7.75858e-15 0 0 -3.9454e-15 -3.68655e-15 1.41755e-14 1.11853e-14 0 0 -2.57806e-15 2.72817e-15 4.89868e-15 7.17885e-15 0 0 7.60844e-15 8.95317e-15 -2.79838e-15 1.88417e-14 0 0 3.27805e-15 3.91847e-15 4.2749e-15 6.00363e-15 0 0 -7.9984e-17 -1.55044e-15 2.31783e-15 -1.26057e-15 0 0 -8.60722e-14 -5.18628e-14 -8.11519e-14 -7.25888e-14 0 0 -2.80185e-13 -3.9469e-13 -4.40586e-13 -2.83569e-13 0 0 2.59302e-13 3.87394e-13 4.10721e-13 2.27341e-13 0 0 -1.63162e-13 -2.34838e-13 -2.42352e-13 -1.85356e-13 0 0 -1.77695e-14 4.23683e-15 5.87845e-15 -2.37468e-14 0 0 2.334e-13 4.02617e-13 4.21348e-13 2.86028e-13 0 0 -2.07152e-13 -3.01186e-13 -3.86047e-13 -1.25597e-13 0 0 1.3722e-13 1.90016e-13 1.21647e-13 1.74724e-13 0 0 -1.96026e-14 -2.73115e-14 -4.49526e-14 -3.04862e-14 0 0 9.29083e-15 4.34331e-14 -1.85265e-14 1.46228e-14 0 0 -5.71426e-15 2.59081e-14 -1.65369e-14 3.50397e-14 0 0 1.55273e-15 7.04037e-15 1.05075e-14 7.922e-15 0 0 7.80427e-15 -1.27989e-14 2.78411e-14 8.21131e-15 0 0 2.90819e-15 7.8978e-15 6.11406e-15 5.51141e-15 0 0 1.2852e-15 1.22803e-14 -1.54772e-15 6.89896e-15 0 0 3.74742e-15 6.92285e-15 -1.03582e-16 4.66468e-15 0 0 6.25249e-15 9.21006e-15 -4.88098e-15 7.13166e-15 0 0 1.58693e-15 4.90364e-15 -1.28203e-15 1.09545e-14 0 0 5.05999e-15 2.7376e-15 3.18984e-15 5.19556e-15 0 0 7.08614e-15 -1.38242e-15 2.85495e-14 -1.46854e-14 0 0 1.3125e-14 -1.77497e-15 2.83968e-14 -3.75437e-14 0 0 1.52523e-14 8.87592e-15 6.51427e-15 -1.82307e-14 0 0 7.25737e-15 2.08881e-14 -1.98365e-14 7.22812e-15 0 0 1.99503e-14 4.04425e-15 -2.40057e-14 1.66059e-14 0 0 2.14139e-14 1.79691e-16 -7.77556e-15 2.08242e-15 0 0 1.10773e-14 -4.22192e-15 3.90665e-15 -7.03095e-15 0 0 1.79015e-14 1.74284e-15 -6.10471e-15 -1.08543e-14 0 0 -6.73108e-16 5.90769e-14 -4.72701e-14 -3.24553e-15 0 0 1.02312e-14 4.36689e-14 -2.55245e-14 -1.67871e-14 0 0 2.13703e-14 2.81631e-14 -9.05131e-15 -2.32063e-14 0 0 -4.47504e-15 4.63414e-14 -3.74554e-14 2.03312e-15 0 0 -6.02974e-15 2.86085e-14 -3.8328e-14 1.38315e-15 0 0 9.27131e-15 2.89211e-14 -3.26429e-14 -1.21599e-14 0 0 2.18796e-14 1.66052e-14 -2.79536e-14 -1.59849e-14 0 0 1.82207e-14 2.98266e-14 -3.50722e-14 -1.7137e-14 0 0 1.36059e-14 3.76955e-14 -4.12514e-14 -6.23526e-15 0 0 1.08772e-14 4.60379e-14 -3.33652e-14 -2.04999e-14 0 0 9.07389e-15 5.26102e-14 -2.68354e-14 -3.61612e-14 0 0 1.84498e-14 7.94522e-15 4.17837e-15 -2.35604e-14 0 0 2.28657e-14 7.00956e-15 1.64046e-15 -8.6493e-15 0 0 2.21089e-15 3.21152e-14 -3.81646e-14 1.17444e-14 0 0 -2.81059e-15 3.48077e-15 6.7208e-16 -1.34248e-14 0 0 9.31523e-15 -1.45506e-15 1.64729e-14 -3.67068e-14 0 0 -3.92679e-15 2.50691e-14 -1.14254e-14 -2.04396e-14 0 0 7.66062e-15 8.21922e-15 -1.43558e-15 5.15963e-15 0 0 1.65718e-14 1.07988e-14 -5.55381e-15 2.09363e-14 0 0 1.08286e-14 9.4249e-15 -1.79398e-14 3.79499e-14 0 0 1.1301e-14 5.58043e-15 -1.33595e-14 3.9869e-14 0 0 1.54092e-14 -1.93677e-15 -5.40896e-15 2.82723e-14 0 0 1.4986e-14 -1.12063e-14 7.91962e-15 6.02113e-15 0 0 4.88241e-15 2.70029e-14 -5.54073e-15 -1.35348e-14 0 0 1.81822e-14 2.11414e-14 -1.23256e-14 -5.56989e-15 0 0 1.37783e-14 6.19765e-15 -1.44631e-14 -6.12423e-16 0 0 5.19367e-15 9.24145e-15 -2.64542e-14 4.09075e-15 0 0 1.34305e-14 1.91786e-15 -6.28852e-15 -1.01392e-14 0 0 2.3169e-14 1.23089e-14 -3.64017e-15 -8.34553e-15 0 0 3.5147e-14 2.3858e-14 -1.79364e-15 -4.65434e-14 0 0 2.75923e-14 2.41485e-14 2.46742e-14 -8.25565e-14 0 0 2.23843e-14 -2.60804e-15 1.29434e-14 -3.29078e-14 0 0 7.91088e-15 -1.6416e-15 -6.44594e-15 -9.89391e-15 0 0 -1.16455e-14 1.51648e-14 8.24477e-15 -6.97339e-16 0 0 1.42684e-14 1.77221e-14 -1.54771e-14 2.34855e-14 0 0 5.26066e-14 2.12468e-14 -9.46679e-15 1.32864e-14 0 0 3.22361e-14 5.53878e-14 -2.32552e-14 2.61565e-14 0 0 3.50664e-14 3.48999e-14 -3.35032e-15 4.14372e-14 0 0 5.38449e-14 1.11111e-14 2.52868e-14 1.4223e-14 0 0 3.43189e-14 3.99475e-14 -7.51203e-15 2.12112e-14 0 0 3.53027e-14 1.90235e-14 -1.10676e-15 3.37781e-14 0 0 3.93024e-14 -3.58885e-15 -1.29862e-14 5.73435e-14 0 0 3.52289e-14 -9.84613e-15 1.00506e-14 4.77396e-14 0 0 2.14969e-14 3.28804e-16 4.55155e-14 -1.13353e-14 0 0 1.51229e-14 1.78428e-14 3.22831e-14 -2.1354e-14 0 0 5.17002e-15 3.62019e-14 5.23198e-15 -1.95708e-15 0 0 7.62787e-15 2.78681e-14 -1.45314e-14 8.36353e-15 0 0 7.75837e-15 -4.26196e-16 -2.10616e-15 2.81617e-15 0 0 6.65103e-15 -3.10608e-15 2.25952e-14 -1.14027e-14 0 0 1.39644e-14 -2.12837e-15 1.5828e-14 6.18481e-15 0 0 2.09934e-14 -1.15709e-14 3.72552e-15 2.98583e-14 0 0 7.04167e-15 -2.99614e-15 -8.85775e-16 1.73327e-14 0 0 3.43971e-16 4.05021e-15 5.64617e-15 -6.09343e-15 0 0 1.2335e-14 -3.85447e-15 8.75681e-15 -3.99943e-15 0 0 7.36767e-15 -6.89529e-15 -3.00863e-15 8.17323e-15 0 0 1.73169e-15 -4.92873e-17 -6.6593e-15 7.73082e-15 0 0 2.86998e-15 -6.22528e-15 1.00081e-14 -7.48118e-15 0 0 1.12045e-14 -8.08552e-15 1.17341e-14 -8.37343e-15 0 0 -2.99576e-15 -3.55337e-15 2.9023e-15 9.17478e-15 0 0 -3.12315e-15 -7.79111e-15 1.67488e-14 -3.74543e-14 0 0 1.25554e-14 1.15685e-15 1.34567e-14 -5.29489e-14 0 0 -1.79902e-15 -7.76968e-15 2.98798e-14 -2.54503e-14 0 0 -1.37763e-14 8.4046e-15 1.47178e-14 -2.73585e-14 0 0 -9.01319e-15 1.99165e-14 3.94385e-15 -2.48562e-14 0 0 7.24448e-15 -2.66184e-15 2.5699e-14 3.10045e-15 0 0 6.9673e-15 -7.55082e-15 9.47673e-15 4.16865e-14 0 0 1.12693e-14 -1.19179e-14 -5.31767e-15 3.20138e-14 0 0 3.21297e-14 -2.9056e-14 3.27025e-14 -1.70747e-14 0 0 1.20184e-14 -6.66705e-15 2.03749e-14 1.70317e-14 0 0 -1.17801e-14 2.21093e-14 -2.07754e-14 5.32446e-14 0 0 -3.93304e-15 -1.22917e-15 2.01533e-14 5.47091e-15 0 0 2.60498e-15 4.55394e-15 -2.42435e-15 1.4395e-14 0 0 0 2.46208e-14 -4.93981e-14 4.49427e-14 0
				</DataArray>
				<DataArray Name="VitesseY" type="Float32" format="ascii">