<?xml version="1.0"?>
<VTKFile type="PolyData">
	<PolyData>
		<Piece NumberOfPoints="1206" NumberOfPolys="1000">
			<Points>
				<DataArray type="Float32" NumberOfComponents="3" format="ascii">
 0 0 0 0.02 0 0 0.04 0 0 0.06 0 0 0.08 0 0 0.1 0 0 0 0.005 0 0.02 0.005 0 0.04 0.005 0 0.06 0.005 0 0.08 0.005 0 0.1 0.005 0 0 0.01 0 0.02 0.01 0 0.04 0.01 0 0.06 0.01 0 0.08 0.01 0 0.1 0.01 0 0 0.015 0 0.02 0.015 0 0.04 0.015 0 0.06 0.015 0 0.08 0.015 0 0.1 0.015 0 0 0.02 0 0.02 0.02 0 0.04 0.02 0 0.06 0.02 0 0.08 0.02 0 0.1 0.02 0 0 0.025 0 0.02 0.025 0 0.04 0.025 0 0.06 0.025 0 0.08 0.025 0 0.1 0.025 0 0 0.03 0 0.02 0.03 0 0.04 0.03 0 0.06 0.03 0 0.08 0.03 0 0.1 0.03 0 0 0.035 0 0.02 0.035 0 0.04 0.035 0 0.06 0.035 0 0.08 0.035 0 0.1 0.035 0 0 0.04 0 0.02 0.04 0 0.04 0.04 0 0.06 0.04 0 0.08 0.04 0 0.1 0.04 0 0 0.045 0 0.02 0.045 0 0.04 0.045 0 0.06 0.045 0 0.08 0.045 0 0.1 0.045 0 0 0.05 0 0.02 0.05 0 0.04 0.05 0 0.06 0.05 0 0.08 0.05 0 0.1 0.05 0 0 0.055 0 0.02 0.055 0 0.04 0.055 0 0.06 0.055 0 0.08 0.055 0 0.1 0.055 0 0 0.06 0 0.02 0.06 0 0.04 0.06 0 0.06 0.06 0 0.08 0.06 0 0.1 0.06 0 0 0.065 0 0.02 0.065 0 0.04 0.065 0 0.06 0.065 0 0.08 0.065 0 0.1 0.065 0 0 0.07 0 0.02 0.07 0 0.04 0.07 0 0.06 0.07 0 0.08 0.07 0 0.1 0.07 0 0 0.075 0 0.02 0.075 0 0.04 0.075 0 0.06 0.075 0 0.08 0.075 0 0.1 0.075 0 0 0.08 0 0.02 0.08 0 0.04 0.08 0 0.06 0.08 0 0.08 0.08 0 0.1 0.08 0 0 0.085 0 0.02 0.085 0 0.04 0.085 0 0.06 0.085 0 0.08 0.085 0 0.1 0.085 0 0 0.09 0 0.02 0.09 0 0.04 0.09 0 0.06 0.09 0 0.08 0.09 0 0.1 0.09 0 0 0.095 0 0.02 0.095 0 0.04 0.095 0 0.06 0.095 0 0.08 0.095 0 0.1 0.095 0 0 0.1 0 0.02 0.1 0 0.04 0.1 0 0.06 0.1 0 0.08 0.1 0 0.1 0.1 0 0 0.105 0 0.02 0.105 0 0.04 0.105 0 0.06 0.105 0 0.08 0.105 0 0.1 0.105 0 0 0.11 0 0.02 0.11 0 0.04 0.11 0 0.06 0.11 0 0.08 0.11 0 0.1 0.11 0 0 0.115 0 0.02 0.115 0 0.04 0.115 0 0.06 0.115 0 0.08 0.115 0 0.1 0.115 0 0 0.12 0 0.02 0.12 0 0.04 0.12 0 0.06 0.12 0 0.08 0.12 0 0.1 0.12 0 0 0.125 0 0.02 0.125 0 0.04 0.125 0 0.06 0.125 0 0.08 0.125 0 0.1 0.125 0 0 0.13 0 0.02 0.13 0 0.04 0.13 0 0.06 0.13 0 0.08 0.13 0 0.1 0.13 0 0 0.135 0 0.02 0.135 0 0.04 0.135 0 0.06 0.135 0 0.08 0.135 0 0.1 0.135 0 0 0.14 0 0.02 0.14 0 0.04 0.14 0 0.06 0.14 0 0.08 0.14 0 0.1 0.14 0 0 0.145 0 0.02 0.145 0 0.04 0.145 0 0.06 0.145 0 0.08 0.145 0 0.1 0.145 0 0 0.15 0 0.02 0.15 0 0.04 0.15 0 0.06 0.15 0 0.08 0.15 0 0.1 0.15 0 0 0.155 0 0.02 0.155 0 0.04 0.155 0 0.06 0.155 0 0.08 0.155 0 0.1 0.155 0 0 0.16 0 0.02 0.16 0 0.04 0.16 0 0.06 0.16 0 0.08 0.16 0 0.1 0.16 0 0 0.165 0 0.02 0.165 0 0.04 0.165 0 0.06 0.165 0 0.08 0.165 0 0.1 0.165 0 0 0.17 0 0.02 0.17 0 0.04 0.17 0 0.06 0.17 0 0.08 0.17 0 0.1 0.17 0 0 0.175 0 0.02 0.175 0 0.04 0.175 0 0.06 0.175 0 0.08 0.175 0 0.1 0.175 0 0 0.18 0 0.02 0.18 0 0.04 0.18 0 0.06 0.18 0 0.08 0.18 0 0.1 0.18 0 0 0.185 0 0.02 0.185 0 0.04 0.185 0 0.06 0.185 0 0.08 0.185 0 0.1 0.185 0 0 0.19 0 0.02 0.19 0 0.04 0.19 0 0.06 0.19 0 0.08 0.19 0 0.1 0.19 0 0 0.195 0 0.02 0.195 0 0.04 0.195 0 0.06 0.195 0 0.08 0.195 0 0.1 0.195 0 0 0.2 0 0.02 0.2 0 0.04 0.2 0 0.06 0.2 0 0.08 0.2 0 0.1 0.2 0 0 0.205 0 0.02 0.205 0 0.04 0.205 0 0.06 0.205 0 0.08 0.205 0 0.1 0.205 0 0 0.21 0 0.02 0.21 0 0.04 0.21 0 0.06 0.21 0 0.08 0.21 0 0.1 0.21 0 0 0.215 0 0.02 0.215 0 0.04 0.215 0 0.06 0.215 0 0.08 0.215 0 0.1 0.215 0 0 0.22 0 0.02 0.22 0 0.04 0.22 0 0.06 0.22 0 0.08 0.22 0 0.1 0.22 0 0 0.225 0 0.02 0.225 0 0.04 0.225 0 0.06 0.225 0 0.08 0.225 0 0.1 0.225 0 0 0.23 0 0.02 0.23 0 0.04 0.23 0 0.06 0.23 0 0.08 0.23 0 0.1 0.23 0 0 0.235 0 0.02 0.235 0 0.04 0.235 0 0.06 0.235 0 0.08 0.235 0 0.1 0.235 0 0 0.24 0 0.02 0.24 0 0.04 0.24 0 0.06 0.24 0 0.08 0.24 0 0.1 0.24 0 0 0.245 0 0.02 0.245 0 0.04 0.245 0 0.06 0.245 0 0.08 0.245 0 0.1 0.245 0 0 0.25 0 0.02 0.25 0 0.04 0.25 0 0.06 0.25 0 0.08 0.25 0 0.1 0.25 0 0 0.255 0 0.02 0.255 0 0.04 0.255 0 0.06 0.255 0 0.08 0.255 0 0.1 0.255 0 0 0.26 0 0.02 0.26 0 0.04 0.26 0 0.06 0.26 0 0.08 0.26 0 0.1 0.26 0 0 0.265 0 0.02 0.265 0 0.04 0.265 0 0.06 0.265 0 0.08 0.265 0 0.1 0.265 0 0 0.27 0 0.02 0.27 0 0.04 0.27 0 0.06 0.27 0 0.08 0.27 0 0.1 0.27 0 0 0.275 0 0.02 0.275 0 0.04 0.275 0 0.06 0.275 0 0.08 0.275 0 0.1 0.275 0 0 0.28 0 0.02 0.28 0 0.04 0.28 0 0.06 0.28 0 0.08 0.28 0 0.1 0.28 0 0 0.285 0 0.02 0.285 0 0.04 0.285 0 0.06 0.285 0 0.08 0.285 0 0.1 0.285 0 0 0.29 0 0.02 0.29 0 0.04 0.29 0 0.06 0.29 0 0.08 0.29 0 0.1 0.29 0 0 0.295 0 0.02 0.295 0 0.04 0.295 0 0.06 0.295 0 0.08 0.295 0 0.1 0.295 0 0 0.3 0 0.02 0.3 0 0.04 0.3 0 0.06 0.3 0 0.08 0.3 0 0.1 0.3 0 0 0.305 0 0.02 0.305 0 0.04 0.305 0 0.06 0.305 0 0.08 0.305 0 0.1 0.305 0 0 0.31 0 0.02 0.31 0 0.04 0.31 0 0.06 0.31 0 0.08 0.31 0 0.1 0.31 0 0 0.315 0 0.02 0.315 0 0.04 0.315 0 0.06 0.315 0 0.08 0.315 0 0.1 0.315 0 0 0.32 0 0.02 0.32 0 0.04 0.32 0 0.06 0.32 0 0.08 0.32 0 0.1 0.32 0 0 0.325 0 0.02 0.325 0 0.04 0.325 0 0.06 0.325 0 0.08 0.325 0 0.1 0.325 0 0 0.33 0 0.02 0.33 0 0.04 0.33 0 0.06 0.33 0 0.08 0.33 0 0.1 0.33 0 0 0.335 0 0.02 0.335 0 0.04 0.335 0 0.06 0.335 0 0.08 0.335 0 0.1 0.335 0 0 0.340001 0 0.02 0.340001 0 0.04 0.340001 0 0.06 0.340001 0 0.08 0.340001 0 0.1 0.340001 0 0 0.345003 0 0.02 0.345003 0 0.04 0.345003 0 0.06 0.345003 0 0.08 0.345003 0 0.1 0.345003 0 0 0.35001 0 0.02 0.35001 0 0.04 0.35001 0 0.06 0.35001 0 0.08 0.35001 0 0.1 0.35001 0 0 0.355028 0 0.02 0.355028 0 0.04 0.355028 0 0.06 0.355028 0 0.08 0.355028 0 0.1 0.355028 0 0 0.360073 0 0.02 0.360073 0 0.04 0.360073 0 0.06 0.360073 0 0.08 0.360073 0 0.1 0.360073 0 0 0.365169 0 0.02 0.365169 0 0.04 0.365169 0 0.06 0.365169 0 0.08 0.365169 0 0.1 0.365169 0 0 0.370346 0 0.02 0.370346 0 0.04 0.370346 0 0.06 0.370346 0 0.08 0.370346 0 0.1 0.370346 0 0 0.375637 0 0.02 0.375637 0 0.04 0.375637 0 0.06 0.375637 0 0.08 0.375637 0 0.1 0.375637 0 0 0.381071 0 0.02 0.381071 0 0.04 0.381071 0 0.06 0.381071 0 0.08 0.381071 0 0.1 0.381071 0 0 0.386671 0 0.02 0.386671 0 0.04 0.386671 0 0.06 0.386671 0 0.08 0.386671 0 0.1 0.386671 0 0 0.39246 0 0.02 0.39246 0 0.04 0.39246 0 0.06 0.39246 0 0.08 0.39246 0 0.1 0.39246 0 0 0.398457 0 0.02 0.398457 0 0.04 0.398457 0 0.06 0.398457 0 0.08 0.398457 0 0.1 0.398457 0 0 0.404684 0 0.02 0.404684 0 0.04 0.404684 0 0.06 0.404684 0 0.08 0.404684 0 0.1 0.404684 0 0 0.411162 0 0.02 0.411162 0 0.04 0.411162 0 0.06 0.411162 0 0.08 0.411162 0 0.1 0.411162 0 0 0.417918 0 0.02 0.417918 0 0.04 0.417918 0 0.06 0.417918 0 0.08 0.417918 0 0.1 0.417918 0 0 0.424979 0 0.02 0.424979 0 0.04 0.424979 0 0.06 0.424979 0 0.08 0.424979 0 0.1 0.424979 0 0 0.432378 0 0.02 0.432378 0 0.04 0.432378 0 0.06 0.432378 0 0.08 0.432378 0 0.1 0.432378 0 0 0.440154 0 0.02 0.440154 0 0.04 0.440154 0 0.06 0.440154 0 0.08 0.440154 0 0.1 0.440154 0 0 0.448351 0 0.02 0.448351 0 0.04 0.448351 0 0.06 0.448351 0 0.08 0.448351 0 0.1 0.448351 0 0 0.457018 0 0.02 0.457018 0 0.04 0.457018 0 0.06 0.457018 0 0.08 0.457018 0 0.1 0.457018 0 0 0.466218 0 0.02 0.466218 0 0.04 0.466218 0 0.06 0.466218 0 0.08 0.466218 0 0.1 0.466218 0 0 0.476015 0 0.02 0.476015 0 0.04 0.476015 0 0.06 0.476015 0 0.08 0.476015 0 0.1 0.476015 0 0 0.486483 0 0.02 0.486483 0 0.04 0.486483 0 0.06 0.486483 0 0.08 0.486483 0 0.1 0.486483 0 0 0.497676 0 0.02 0.497676 0 0.04 0.497676 0 0.06 0.497676 0 0.08 0.497676 0 0.1 0.497676 0 0 0.509562 0 0.02 0.509562 0 0.04 0.509562 0 0.06 0.509562 0 0.08 0.509562 0 0.1 0.509562 0 0 0.521805 0 0.02 0.521805 0 0.04 0.521805 0 0.06 0.521805 0 0.08 0.521805 0 0.1 0.521805 0 0 0.533925 0 0.02 0.533925 0 0.04 0.533925 0 0.06 0.533925 0 0.08 0.533925 0 0.1 0.533925 0 0 0.545891 0 0.02 0.545891 0 0.04 0.545891 0 0.06 0.545891 0 0.08 0.545891 0 0.1 0.545891 0 0 0.557731 0 0.02 0.557731 0 0.04 0.557731 0 0.06 0.557731 0 0.08 0.557731 0 0.1 0.557731 0 0 0.569503 0 0.02 0.569503 0 0.04 0.569503 0 0.06 0.569503 0 0.08 0.569503 0 0.1 0.569503 0 0 0.581251 0 0.02 0.581251 0 0.04 0.581251 0 0.06 0.581251 0 0.08 0.581251 0 0.1 0.581251 0 0 0.592993 0 0.02 0.592993 0 0.04 0.592993 0 0.06 0.592993 0 0.08 0.592993 0 0.1 0.592993 0 0 0.604745 0 0.02 0.604745 0 0.04 0.604745 0 0.06 0.604745 0 0.08 0.604745 0 0.1 0.604745 0 0 0.607354 0 0.02 0.607354 0 0.04 0.607354 0 0.06 0.607354 0 0.08 0.607354 0 0.1 0.607354 0 0 0.60989 0 0.02 0.60989 0 0.04 0.60989 0 0.06 0.60989 0 0.08 0.60989 0 0.1 0.60989 0 0 0.61238 0 0.02 0.61238 0 0.04 0.61238 0 0.06 0.61238 0 0.08 0.61238 0 0.1 0.61238 0 0 0.614839 0 0.02 0.614839 0 0.04 0.614839 0 0.06 0.614839 0 0.08 0.614839 0 0.1 0.614839 0 0 0.617278 0 0.02 0.617278 0 0.04 0.617278 0 0.06 0.617278 0 0.08 0.617278 0 0.1 0.617278 0 0 0.6197 0 0.02 0.6197 0 0.04 0.6197 0 0.06 0.6197 0 0.08 0.6197 0 0.1 0.6197 0 0 0.622111 0 0.02 0.622111 0 0.04 0.622111 0 0.06 0.622111 0 0.08 0.622111 0 0.1 0.622111 0 0 0.624515 0 0.02 0.624515 0 0.04 0.624515 0 0.06 0.624515 0 0.08 0.624515 0 0.1 0.624515 0 0 0.626917 0 0.02 0.626917 0 0.04 0.626917 0 0.06 0.626917 0 0.08 0.626917 0 0.1 0.626917 0 0 0.62932 0 0.02 0.62932 0 0.04 0.62932 0 0.06 0.62932 0 0.08 0.62932 0 0.1 0.62932 0 0 0.631726 0 0.02 0.631726 0 0.04 0.631726 0 0.06 0.631726 0 0.08 0.631726 0 0.1 0.631726 0 0 0.634134 0 0.02 0.634134 0 0.04 0.634134 0 0.06 0.634134 0 0.08 0.634134 0 0.1 0.634134 0 0 0.636538 0 0.02 0.636538 0 0.04 0.636538 0 0.06 0.636538 0 0.08 0.636538 0 0.1 0.636538 0 0 0.638937 0 0.02 0.638937 0 0.04 0.638937 0 0.06 0.638937 0 0.08 0.638937 0 0.1 0.638937 0 0 0.641329 0 0.02 0.641329 0 0.04 0.641329 0 0.06 0.641329 0 0.08 0.641329 0 0.1 0.641329 0 0 0.643716 0 0.02 0.643716 0 0.04 0.643716 0 0.06 0.643716 0 0.08 0.643716 0 0.1 0.643716 0 0 0.646099 0 0.02 0.646099 0 0.04 0.646099 0 0.06 0.646099 0 0.08 0.646099 0 0.1 0.646099 0 0 0.648478 0 0.02 0.648478 0 0.04 0.648478 0 0.06 0.648478 0 0.08 0.648478 0 0.1 0.648478 0 0 0.650856 0 0.02 0.650856 0 0.04 0.650856 0 0.06 0.650856 0 0.08 0.650856 0 0.1 0.650856 0 0 0.653232 0 0.02 0.653232 0 0.04 0.653232 0 0.06 0.653232 0 0.08 0.653232 0 0.1 0.653232 0 0 0.655607 0 0.02 0.655607 0 0.04 0.655607 0 0.06 0.655607 0 0.08 0.655607 0 0.1 0.655607 0 0 0.657981 0 0.02 0.657981 0 0.04 0.657981 0 0.06 0.657981 0 0.08 0.657981 0 0.1 0.6579
[...]
			<PointData Scalars="VitesseX">
				<DataArray Name="VitesseX" type="Float32" format="ascii">
 0 2.61068e-15 4.12135e-17 -3.8044e-15 -1.21082e-14 0 0 2.47958e-15 8.24719e-17 -4.08172e-15 -1.18273e-14 0 0 2.30412e-15 -1.07904e-16 -4.76051e-15 -1.11974e-14 0 0 2.01196e-15 -6.58248e-16 -5.33746e-15 -1.11541e-14 0 0 2.05392e-15 -1.59481e-15 -6.2113e-15 -1.26515e-14 0 0 2.21871e-15 -3.97227e-15 -6.36586e-15 -1.32219e-14 0 0 1.73698e-15 -5.86106e-15 -6.31397e-15 -1.19659e-14 0 0 1.2135e-15 -6.90131e-15 -6.62454e-15 -1.22914e-14 0 0 -8.47952e-16 -7.9289e-15 -6.09068e-15 -1.27636e-14 0 0 -3.38957e-15 -6.92546e-15 -6.71595e-15 -1.22927e-14 0 0 -4.47706e-15 -5.95234e-15 -9.9727e-15 -9.03377e-15 0 0 -5.59227e-15 -4.45878e-15 -1.31221e-14 -7.44345e-15 0 0 -4.68133e-15 -6.54963e-15 -1.03818e-14 -9.70509e-15 0 0 -3.66339e-15 -1.05669e-14 -9.76971e-15 -8.37992e-15 0 0 -3.44737e-15 -1.13836e-14 -1.16563e-14 -9.25761e-15 0 0 -5.78595e-15 -8.42777e-15 -1.16778e-14 -8.11516e-15 0 0 -7.0552e-15 -3.37758e-15 -1.32094e-14 -4.89926e-15 0 0 -6.50478e-15 -1.58898e-15 -1.39978e-14 -6.2655e-16 0 0 -7.15773e-15 -4.39947e-15 -8.84536e-15 3.32079e-15 0 0 -8.03767e-15 -3.91586e-15 -2.38942e-15 2.53684e-15 0 0 -5.09852e-15 -4.89248e-15 2.60701e-15 3.76889e-15 0 0 -7.23806e-16 -5.78491e-15 4.46275e-15 1.48951e-15 0 0 -6.73498e-16 3.20883e-16 -1.64427e-15 -2.78143e-15 0 0 -2.50443e-15 4.84115e-15 -4.53813e-15 -3.04808e-15 0 0 -1.29469e-15 5.21288e-15 -6.11789e-15 -8.94103e-16 0 0 4.94671e-15 -1.28865e-15 -6.25012e-15 3.39795e-15 0 0 7.36848e-15 -6.45553e-15 2.76419e-16 5.70126e-16 0 0 8.93334e-15 -7.17943e-15 -1.48194e-16 1.98857e-15 0 0 9.20398e-15 -6.92604e-15 -4.26341e-15 8.99828e-15 0 0 4.81421e-15 -3.11593e-15 -8.0034e-15 9.44699e-15 0 0 2.45012e-15 -2.65672e-15 -1.4748e-15 -1.05586e-15 0 0 -7.4919e-16 9.23361e-17 4.28796e-15 -1.35454e-14 0 0 -1.56543e-15 -4.79596e-15 7.23294e-15 -1.736e-14 0 0 -2.43723e-15 -1.34226e-14 1.04244e-14 -1.4906e-14 0 0 -1.13809e-14 -6.37898e-15 3.62573e-16 -4.01637e-15 0 0 -1.47895e-14 -3.16449e-15 -7.74945e-15 2.42329e-15 0 0 -6.50014e-15 -1.15595e-14 -6.49483e-15 1.51617e-15 0 0 -1.69778e-15 -1.28469e-14 -9.57766e-15 -2.59732e-15 0 0 -2.94287e-15 -7.14982e-15 -2.26897e-14 -6.38529e-15 0 0 -4.67432e-15 -9.4026e-15 -2.12531e-14 -5.49085e-15 0 0 -5.86336e-15 -1.23982e-14 -1.23414e-14 -2.70758e-15 0 0 -6.19308e-15 -5.10669e-15 -1.65335e-14 2.52886e-15 0 0 -7.64385e-15 -3.47022e-15 -1.29477e-14 -6.87455e-15 0 0 -7.97166e-15 -8.98161e-15 -2.5126e-15 -1.85783e-14 0 0 -6.93563e-15 -8.40268e-15 -6.14203e-15 -1.28561e-14 0 0 -4.22271e-15 -2.27049e-15 -1.65148e-14 -7.37337e-15 0 0 -3.58253e-15 6.0656e-16 -1.42564e-14 -6.14288e-15 0 0 -1.8022e-15 -4.06693e-15 -9.49835e-15 5.00399e-15 0 0 -7.34911e-16 -1.43385e-14 2.5176e-15 9.99126e-15 0 0 -1.85413e-15 -1.83393e-14 5.50591e-15 1.37961e-14 0 0 2.94534e-16 -1.20935e-14 -1.70239e-15 1.78273e-14 0 0 -4.37091e-16 -8.25346e-15 3.12646e-15 9.63975e-15 0 0 -2.62664e-15 -3.53752e-15 5.14795e-15 2.61624e-15 0 0 2.96252e-16 -3.35587e-15 8.07728e-15 5.39123e-15 0 0 3.88253e-17 1.5251e-14 -1.58927e-14 2.88566e-14 0 0 -5.04623e-15 3.71667e-14 -2.16914e-14 2.77066e-14 0 0 1.21752e-14 2.71447e-14 1.13484e-14 1.23597e-14 0 0 2.82098e-14 2.72362e-14 2.63192e-14 1.38159e-14 0 0 2.72829e-14 4.18513e-14 3.79717e-14 1.12702e-14 0 0 3.1576e-14 5.98637e-14 4.4102e-14 1.42422e-14 0 0 3.66605e-14 6.85207e-14 5.84404e-14 6.36698e-15 0 0 4.277e-14 5.88896e-14 7.42457e-14 1.69123e-14 0 0 5.05612e-14 6.47007e-14 6.5993e-14 4.68501e-14 0 0 4.52675e-14 7.63151e-14 5.67067e-14 5.32068e-14 0 0 4.44335e-14 7.19013e-14 5.20214e-14 5.4369e-14 0 0 3.37797e-14 7.15803e-14 5.73423e-14 5.31678e-14 0 0 1.74882e-14 6.26738e-14 6.33641e-14 5.48362e-14 0 0 1.68713e-14 5.24738e-14 7.24298e-14 4.28486e-14 0 0 1.32167e-14 4.60244e-14 7.66502e-14 4.464e-14 0 0 2.19825e-15 4.34308e-14 6.34321e-14 5.8225e-14 0 0 -1.34016e-14 4.27477e-14 6.18457e-14 4.8041e-14 0 0 -5.90283e-15 2.98659e-14 7.50935e-14 3.00883e-14 0 0 3.4601e-17 2.98918e-14 6.36573e-14 2.21962e-14 0 0 -1.8615e-14 4.24028e-14 3.81356e-14 3.86849e-14 0 0 -2.541e-14 4.68163e-14 2.58568e-14 6.62384e-14 0 0 -1.81728e-14 4.08279e-14 1.65267e-14 7.21879e-14 0 0 -8.89418e-15 4.03114e-14 2.48554e-15 6.55714e-14 0 0 1.36305e-14 1.89966e-14 2.39928e-14 2.89345e-14 0 0 2.91625e-15 2.98554e-14 2.49314e-14 2.52062e-14 0 0 7.05485e-15 3.49684e-14 4.05343e-14 2.88046e-14 0 0 3.01286e-14 -9.84556e-16 5.40003e-14 9.1885e-15 0 0 1.51643e-14 1.24232e-14 1.61667e-14 3.36316e-14 0 0 1.51172e-14 2.52887e-14 3.74568e-15 6.41115e-14 0 0 2.12676e-14 1.52994e-14 1.23724e-14 6.49674e-14 0 0 2.1868e-14 1.22919e-14 1.96625e-14 3.80799e-14 0 0 1.5196e-14 1.37516e-14 1.04431e-14 2.84526e-14 0 0 -7.45374e-15 2.5998e-14 8.41108e-15 2.27096e-14 0 0 7.55773e-15 2.67322e-14 1.94246e-14 1.07387e-14 0 0 2.55878e-14 2.21146e-14 2.54521e-14 1.28745e-14 0 0 1.89172e-14 1.88366e-14 9.23601e-15 5.96681e-16 0 0 5.35431e-15 5.7607e-16 5.56164e-16 4.70513e-15 0 0 -1.30977e-14 -1.48881e-14 3.24899e-14 2.79469e-15 0 0 1.3099e-15 5.94005e-16 2.21181e-14 -5.49367e-15 0 0 2.5332e-15 1.14056e-14 -1.74598e-14 -9.29962e-15 0 0 -1.68713e-14 -6.24436e-15 -2.06718e-14 -2.00317e-14 0 0 -1.17071e-14 -5.88757e-15 -8.01014e-15 -4.74523e-15 0 0 1.74482e-14 2.66868e-14 2.89619e-14 1.65215e-14 0 0 4.47324e-14 8.23782e-14 5.79979e-14 4.26895e-14 0 0 6.7031e-14 1.14244e-13 9.0717e-14 5.46116e-14 0 0 8.19342e-14 1.32054e-13 1.21477e-13 6.40826e-14 0 0 8.6812e-14 1.63234e-13 1.48968e-13 9.69299e-14 0 0 1.58215e-13 2.4836e-13 2.44288e-13 1.54392e-13 0 0 1.40681e-13 2.62054e-13 2.6633e-13 1.25528e-13 0 0 1.25576e-13 2.75082e-13 2.11018e-13 1.65455e-13 0 0 1.45507e-13 2.50569e-13 2.26421e-13 2.27946e-13 0 0 1.49801e-13 2.40492e-13 2.88079e-13 1.97359e-13 0 0 1.45487e-13 2.73582e-13 2.82306e-13 1.60503e-13 0 0 1.25583e-13 2.82812e-13 2.38828e-13 2.05605e-13 0 0 7.79667e-14 2.60149e-13 2.01366e-13 1.60369e-13 0 0 4.5642e-14 1.70205e-13 1.60796e-13 6.8321e-14 0 0 -1.11318e-14 6.03133e-14 2.74075e-14 3.48912e-14 0 0 -5.07491e-14 -8.19418e-15 -7.04762e-14 -2.34085e-14 0 0 -6.90753e-14 -6.34728e-14 -9.8569e-14 -6.43587e-14 0 0 -5.62319e-14 -1.01657e-13 -1.07571e-13 -8.49033e-14 0 0 -1.81489e-14 -9.99715e-14 -1.22e-13 -7.53362e-14 0 0 -7.94761e-15 -8.40986e-14 -8.74693e-14 -6.25411e-14 0 0 -1.29112e-14 -4.42157e-14 -2.48815e-14 -1.156e-13 0 0 -3.95664e-16 1.77214e-14 -2.35122e-14 -1.04394e-13 0 0 1.0314e-14 6.58723e-14 -3.76158e-14 -3.67223e-14 0 0 -1.21783e-14 1.37681e-13 -4.66875e-14 -3.52308e-15 0 0 -1.65959e-14 2.17371e-13 -4.7573e-14 2.72693e-14 0 0 -7.54206e-15 2.50852e-13 -5.45049e-15 -7.29354e-16 0 0 4.64982e-14 2.0612e-13 6.33752e-14 -1.66916e-14 0 0 7.61564e-14 1.66202e-13 8.80019e-14 5.45752e-14 0 0 7.91774e-14 1.78309e-13 7.0558e-14 9.32493e-14 0 0 5.73524e-14 1.75812e-13 1.56096e-13 2.44663e-14 0 0 1.23346e-14 1.94913e-13 2.38602e-13 -7.57233e-14 0 0 5.30314e-14 1.66182e-13 2.41632e-13 -7.84022e-14 0 0 1.35554e-13 1.05759e-13 2.45428e-13 -3.86694e-14 0 0 1.63741e-13 8.89342e-14 2.28535e-13 -7.50351e-14 0 0 1.00386e-13 1.90031e-13 1.05945e-13 -6.31371e-14 0 0 8.2438e-14 2.45234e-13 -2.43328e-14 8.71182e-15 0 0 1.15909e-13 1.9572e-13 -2.15687e-14 3.22977e-14 0 0 1.01981e-13 1.64713e-13 2.09722e-14 2.06285e-14 0 0 4.23013e-14 1.19628e-13 1.7855e-13 -8.74839e-14 0 0 5.75653e-15 1.47529e-13 1.93996e-13 -4.08145e-14 0 0 2.98034e-14 1.44662e-13 8.47498e-14 5.08316e-14 0 0 8.01007e-14 1.39586e-13 3.53368e-14 1.05331e-13 0 0 7.58245e-14 1.43758e-13 2.53808e-14 1.00707e-13 0 0 6.08143e-14 6.58057e-14 7.95586e-14 6.66157e-14 0 0 4.39853e-14 5.14912e-14 1.23706e-13 4.24016e-14 0 0 1.38084e-14 7.06272e-14 1.19264e-13 -1.92465e-14 0 0 4.18687e-14 6.38321e-14 7.99275e-14 7.52061e-14 0 0 3.06729e-14 6.56399e-14 8.58135e-14 8.54045e-14 0 0 3.80305e-14 5.537e-14 1.2565e-13 3.87528e-14 0 0 5.26993e-14 7.61743e-14 1.1772e-13 4.75287e-14 0 0 4.83672e-14 9.14865e-14 1.05988e-13 7.42326e-14 0 0 4.75435e-14 8.6725e-14 1.40269e-13 8.8708e-14 0 0 4.62487e-14 1.04484e-13 1.22993e-13 1.08363e-13 0 0 5.14084e-14 1.02275e-13 1.3478e-13 1.00279e-13 0 0 4.45089e-14 1.10303e-13 1.45181e-13 7.54749e-14 0 0 5.03222e-14 9.97497e-14 1.35191e-13 1.03347e-13 0 0 5.06432e-14 8.92329e-14 1.45927e-13 1.32972e-13 0 0 4.54692e-14 9.614e-14 1.37178e-13 1.51243e-13 0 0 5.35709e-14 9.93776e-14 1.26523e-13 1.40505e-13 0 0 6.23887e-14 8.47559e-14 1.40354e-13 1.23068e-13 0 0 6.17973e-14 8.04711e-14 1.5438e-13 1.2529e-13 0 0 5.99227e-14 9.43732e-14 1.40647e-13 1.35621e-13 0 0 5.97237e-14 9.65816e-14 1.1368e-13 1.71194e-13 0 0 5.36123e-14 8.3205e-14 1.17685e-13 1.63701e-13 0 0 4.32758e-14 8.22309e-14 1.34599e-13 1.17927e-13 0 0 5.56658e-14 6.33991e-14 1.2877e-13 1.16994e-13 0 0 6.76577e-14 2.61845e-14 1.3615e-13 1.10467e-13 0 0 4.97022e-14 5.23144e-15 1.20407e-13 1.15065e-13 0 0 1.84186e-14 1.26145e-15 1.05705e-13 9.89083e-14 0 0 2.20162e-14 -3.11913e-14 1.25665e-13 6.899e-14 0 0 1.55363e-14 -5.08047e-14 8.45244e-14 1.18038e-13 0 0 -2.58279e-15 -2.14514e-14 -9.45878e-15 1.76225e-13 0 0 4.83562e-15 -3.30157e-15 -4.67777e-14 1.68162e-13 0 0 3.5014e-15 2.87655e-15 -1.99987e-14 1.04567e-13 0 0 5.18382e-15 -5.75192e-15 -6.97927e-15 7.3674e-14 0 0 5.03017e-15 -2.69825e-14 2.07842e-15 9.56931e-14 0 0 5.58081e-15 -4.28411e-14 4.89551e-14 7.42025e-14 0 0 -2.46125e-14 4.06199e-15 7.30208e-14 2.59534e-14 0 0 -1.3871e-14 3.44591e-14 7.5273e-14 -3.57761e-15 0 0 2.23903e-14 3.76087e-14 5.32988e-14 3.6071e-14 0 0 1.36943e-14 4.86642e-14 8.28465e-15 9.57175e-14 0 0 2.49364e-14 4.40136e-15 -4.41762e-15 1.32971e-13 0 0 -4.63807e-15 1.59607e-14 1.99823e-16 1.57176e-13 0 0 -1.38407e-14 2.36893e-14 4.83325e-14 9.15669e-14 0 0 1.73091e-14 -4.42747e-15 9.83286e-14 1.4641e-15 0 0 -6.3092e-15 4.85124e-14 3.0362e-14 2.67944e-14 0 0 5.6752e-15 4.93477e-14 3.12309e-14 1.15187e-14 0 0 2.09551e-14 1.94563e-14 9.09047e-14 -3.2439e-14 0 0 6.43943e-15 2.74396e-14 5.70989e-14 1.29431e-14 0 0 1.88556e-14 7.45891e-16 5.39581e-14 2.69673e-14 0 0 2.8255e-14 -1.49866e-14 5.76442e-14 1.91576e-14 0 0 -1.43483e-14 3.8976e-14 3.24324e-14 -7.56298e-16 0 0 -2.54004e-14 5.29354e-14 4.26771e-14 -6.68442e-14 0 0 -5.21146e-16 2.57765e-15 8.89782e-14 -1.16633e-13 0 0 -2.62152e-14 -1.39239e-14 1.2371e-13 -1.03062e-13 0 0 -1.41445e-14 -6.48238e-14 1.44163e-13 -3.7157e-14 0 0 1.60379e-14 -9.43576e-14 1.42946e-13 9.95688e-15 0 0 -1.07681e-14 -3.22146e-14 8.33933e-14 -1.10923e-14 0 0 -3.25913e-14 2.79285e-14 8.80897e-15 -1.81541e-14 0 0 -4.6055e-15 2.40706e-14 -2.62639e-14 1.13659e-14 0 0 2.27108e-14 -7.64354e-15 -1.42713e-14 -3.21136e-15 0 0 2.71052e-14 -1.07506e-14 -1.06383e-14 -2.16284e-14 0 0 2.21404e-14 -3.0178e-15 -3.86688e-14 1.4515e-14 0 0 1.76584e-14 -7.97105e-15 -3.04108e-14 4.26003e-14 0 0 2.69543e-14 -2.13055e-14 -6.88867e-15 4.32815e-14 0
				</DataArray>
				<DataArray Name="VitesseY" type="Float32" format="ascii">