<?xml version="1.0"?>
<VTKFile type="PolyData">
	<PolyData>
		<Piece NumberOfPoints="1206" NumberOfPolys="1000">
			<Points>
				<DataArray type="Float32" NumberOfComponents="3" format="ascii">
 0 0 0 0.02 0 0 0.04 0 0 0.06 0 0 0.08 0 0 0.1 0 0 0 0.005 0 0.02 0.005 0 0.04 0.005 0 0.06 0.005 0 0.08 0.005 0 0.1 0.005 0 0 0.01 0 0.02 0.01 0 0.04 0.01 0 0.06 0.01 0 0.08 0.01 0 0.1 0.01 0 0 0.015 0 0.02 0.015 0 0.04 0.015 0 0.06 0.015 0 0.08 0.015 0 0.1 0.015 0 0 0.02 0 0.02 0.02 0 0.04 0.02 0 0.06 0.02 0 0.08 0.02 0 0.1 0.02 0 0 0.025 0 0.02 0.025 0 0.04 0.025 0 0.06 0.025 0 0.08 0.025 0 0.1 0.025 0 0 0.03 0 0.02 0.03 0 0.04 0.03 0 0.06 0.03 0 0.08 0.03 0 0.1 0.03 0 0 0.035 0 0.02 0.035 0 0.04 0.035 0 0.06 0.035 0 0.08 0.035 0 0.1 0.035 0 0 0.04 0 0.02 0.04 0 0.04 0.04 0 0.06 0.04 0 0.08 0.04 0 0.1 0.04 0 0 0.045 0 0.02 0.045 0 0.04 0.045 0 0.06 0.045 0 0.08 0.045 0 0.1 0.045 0 0 0.05 0 0.02 0.05 0 0.04 0.05 0 0.06 0.05 0 0.08 0.05 0 0.1 0.05 0 0 0.055 0 0.02 0.055 0 0.04 0.055 0 0.06 0.055 0 0.08 0.055 0 0.1 0.055 0 0 0.06 0 0.02 0.06 0 0.04 0.06 0 0.06 0.06 0 0.08 0.06 0 0.1 0.06 0 0 0.065 0 0.02 0.065 0 0.04 0.065 0 0.06 0.065 0 0.08 0.065 0 0.1 0.065 0 0 0.07 0 0.02 0.07 0 0.04 0.07 0 0.06 0.07 0 0.08 0.07 0 0.1 0.07 0 0 0.075 0 0.02 0.075 0 0.04 0.075 0 0.06 0.075 0 0.08 0.075 0 0.1 0.075 0 0 0.08 0 0.02 0.08 0 0.04 0.08 0 0.06 0.08 0 0.08 0.08 0 0.1 0.08 0 0 0.085 0 0.02 0.085 0 0.04 0.085 0 0.06 0.085 0 0.08 0.085 0 0.1 0.085 0 0 0.09 0 0.02 0.09 0 0.04 0.09 0 0.06 0.09 0 0.08 0.09 0 0.1 0.09 0 0 0.095 0 0.02 0.095 0 0.04 0.095 0 0.06 0.095 0 0.08 0.095 0 0.1 0.095 0 0 0.1 0 0.02 0.1 0 0.04 0.1 0 0.06 0.1 0 0.08 0.1 0 0.1 0.1 0 0 0.105 0 0.02 0.105 0 0.04 0.105 0 0.06 0.105 0 0.08 0.105 0 0.1 0.105 0 0 0.11 0 0.02 0.11 0 0.04 0.11 0 0.06 0.11 0 0.08 0.11 0 0.1 0.11 0 0 0.115 0 0.02 0.115 0 0.04 0.115 0 0.06 0.115 0 0.08 0.115 0 0.1 0.115 0 0 0.12 0 0.02 0.12 0 0.04 0.12 0 0.06 0.12 0 0.08 0.12 0 0.1 0.12 0 0 0.125 0 0.02 0.125 0 0.04 0.125 0 0.06 0.125 0 0.08 0.125 0 0.1 0.125 0 0 0.13 0 0.02 0.13 0 0.04 0.13 0 0.06 0.13 0 0.08 0.13 0 0.1 0.13 0 0 0.135 0 0.02 0.135 0 0.04 0.135 0 0.06 0.135 0 0.08 0.135 0 0.1 0.135 0 0 0.14 0 0.02 0.14 0 0.04 0.14 0 0.06 0.14 0 0.08 0.14 0 0.1 0.14 0 0 0.145 0 0.02 0.145 0 0.04 0.145 0 0.06 0.145 0 0.08 0.145 0 0.1 0.145 0 0 0.15 0 0.02 0.15 0 0.04 0.15 0 0.06 0.15 0 0.08 0.15 0 0.1 0.15 0 0 0.155 0 0.02 0.155 0 0.04 0.155 0 0.06 0.155 0 0.08 0.155 0 0.1 0.155 0 0 0.16 0 0.02 0.16 0 0.04 0.16 0 0.06 0.16 0 0.08 0.16 0 0.1 0.16 0 0 0.165 0 0.02 0.165 0 0.04 0.165 0 0.06 0.165 0 0.08 0.165 0 0.1 0.165 0 0 0.17 0 0.02 0.17 0 0.04 0.17 0 0.06 0.17 0 0.08 0.17 0 0.1 0.17 0 0 0.175 0 0.02 0.175 0 0.04 0.175 0 0.06 0.175 0 0.08 0.175 0 0.1 0.175 0 0 0.18 0 0.02 0.18 0 0.04 0.18 0 0.06 0.18 0 0.08 0.18 0 0.1 0.18 0 0 0.185 0 0.02 0.185 0 0.04 0.185 0 0.06 0.185 0 0.08 0.185 0 0.1 0.185 0 0 0.19 0 0.02 0.19 0 0.04 0.19 0 0.06 0.19 0 0.08 0.19 0 0.1 0.19 0 0 0.195 0 0.02 0.195 0 0.04 0.195 0 0.06 0.195 0 0.08 0.195 0 0.1 0.195 0 0 0.2 0 0.02 0.2 0 0.04 0.2 0 0.06 0.2 0 0.08 0.2 0 0.1 0.2 0 0 0.205 0 0.02 0.205 0 0.04 0.205 0 0.06 0.205 0 0.08 0.205 0 0.1 0.205 0 0 0.21 0 0.02 0.21 0 0.04 0.21 0 0.06 0.21 0 0.08 0.21 0 0.1 0.21 0 0 0.215 0 0.02 0.215 0 0.04 0.215 0 0.06 0.215 0 0.08 0.215 0 0.1 0.215 0 0 0.22 0 0.02 0.22 0 0.04 0.22 0 0.06 0.22 0 0.08 0.22 0 0.1 0.22 0 0 0.225 0 0.02 0.225 0 0.04 0.225 0 0.06 0.225 0 0.08 0.225 0 0.1 0.225 0 0 0.23 0 0.02 0.23 0 0.04 0.23 0 0.06 0.23 0 0.08 0.23 0 0.1 0.23 0 0 0.235 0 0.02 0.235 0 0.04 0.235 0 0.06 0.235 0 0.08 0.235 0 0.1 0.235 0 0 0.24 0 0.02 0.24 0 0.04 0.24 0 0.06 0.24 0 0.08 0.24 0 0.1 0.24 0 0 0.245 0 0.02 0.245 0 0.04 0.245 0 0.06 0.245 0 0.08 0.245 0 0.1 0.245 0 0 0.250001 0 0.02 0.250001 0 0.04 0.250001 0 0.06 0.250001 0 0.08 0.250001 0 0.1 0.250001 0 0 0.255002 0 0.02 0.255002 0 0.04 0.255002 0 0.06 0.255002 0 0.08 0.255002 0 0.1 0.255002 0 0 0.260007 0 0.02 0.260007 0 0.04 0.260007 0 0.06 0.260007 0 0.08 0.260007 0 0.1 0.260007 0 0 0.265017 0 0.02 0.265017 0 0.04 0.265017 0 0.06 0.265017 0 0.08 0.265017 0 0.1 0.265017 0 0 0.27004 0 0.02 0.27004 0 0.04 0.27004 0 0.06 0.27004 0 0.08 0.27004 0 0.1 0.27004 0 0 0.275087 0 0.02 0.275087 0 0.04 0.275087 0 0.06 0.275087 0 0.08 0.275087 0 0.1 0.275087 0 0 0.28017 0 0.02 0.28017 0 0.04 0.28017 0 0.06 0.28017 0 0.08 0.28017 0 0.1 0.28017 0 0 0.285307 0 0.02 0.285307 0 0.04 0.285307 0 0.06 0.285307 0 0.08 0.285307 0 0.1 0.285307 0 0 0.290512 0 0.02 0.290512 0 0.04 0.290512 0 0.06 0.290512 0 0.08 0.290512 0 0.1 0.290512 0 0 0.2958 0 0.02 0.2958 0 0.04 0.2958 0 0.06 0.2958 0 0.08 0.2958 0 0.1 0.2958 0 0 0.30118 0 0.02 0.30118 0 0.04 0.30118 0 0.06 0.30118 0 0.08 0.30118 0 0.1 0.30118 0 0 0.306663 0 0.02 0.306663 0 0.04 0.306663 0 0.06 0.306663 0 0.08 0.306663 0 0.1 0.306663 0 0 0.312256 0 0.02 0.312256 0 0.04 0.312256 0 0.06 0.312256 0 0.08 0.312256 0 0.1 0.312256 0 0 0.317966 0 0.02 0.317966 0 0.04 0.317966 0 0.06 0.317966 0 0.08 0.317966 0 0.1 0.317966 0 0 0.323799 0 0.02 0.323799 0 0.04 0.323799 0 0.06 0.323799 0 0.08 0.323799 0 0.1 0.323799 0 0 0.329764 0 0.02 0.329764 0 0.04 0.329764 0 0.06 0.329764 0 0.08 0.329764 0 0.1 0.329764 0 0 0.335867 0 0.02 0.335867 0 0.04 0.335867 0 0.06 0.335867 0 0.08 0.335867 0 0.1 0.335867 0 0 0.342117 0 0.02 0.342117 0 0.04 0.342117 0 0.06 0.342117 0 0.08 0.342117 0 0.1 0.342117 0 0 0.348522 0 0.02 0.348522 0 0.04 0.348522 0 0.06 0.348522 0 0.08 0.348522 0 0.1 0.348522 0 0 0.355091 0 0.02 0.355091 0 0.04 0.355091 0 0.06 0.355091 0 0.08 0.355091 0 0.1 0.355091 0 0 0.361833 0 0.02 0.361833 0 0.04 0.361833 0 0.06 0.361833 0 0.08 0.361833 0 0.1 0.361833 0 0 0.368761 0 0.02 0.368761 0 0.04 0.368761 0 0.06 0.368761 0 0.08 0.368761 0 0.1 0.368761 0 0 0.375885 0 0.02 0.375885 0 0.04 0.375885 0 0.06 0.375885 0 0.08 0.375885 0 0.1 0.375885 0 0 0.383218 0 0.02 0.383218 0 0.04 0.383218 0 0.06 0.383218 0 0.08 0.383218 0 0.1 0.383218 0 0 0.390774 0 0.02 0.390774 0 0.04 0.390774 0 0.06 0.390774 0 0.08 0.390774 0 0.1 0.390774 0 0 0.398568 0 0.02 0.398568 0 0.04 0.398568 0 0.06 0.398568 0 0.08 0.398568 0 0.1 0.398568 0 0 0.406618 0 0.02 0.406618 0 0.04 0.406618 0 0.06 0.406618 0 0.08 0.406618 0 0.1 0.406618 0 0 0.414943 0 0.02 0.414943 0 0.04 0.414943 0 0.06 0.414943 0 0.08 0.414943 0 0.1 0.414943 0 0 0.423563 0 0.02 0.423563 0 0.04 0.423563 0 0.06 0.423563 0 0.08 0.423563 0 0.1 0.423563 0 0 0.432501 0 0.02 0.432501 0 0.04 0.432501 0 0.06 0.432501 0 0.08 0.432501 0 0.1 0.432501 0 0 0.441783 0 0.02 0.441783 0 0.04 0.441783 0 0.06 0.441783 0 0.08 0.441783 0 0.1 0.441783 0 0 0.451436 0 0.02 0.451436 0 0.04 0.451436 0 0.06 0.451436 0 0.08 0.451436 0 0.1 0.451436 0 0 0.461491 0 0.02 0.461491 0 0.04 0.461491 0 0.06 0.461491 0 0.08 0.461491 0 0.1 0.461491 0 0 0.471978 0 0.02 0.471978 0 0.04 0.471978 0 0.06 0.471978 0 0.08 0.471978 0 0.1 0.471978 0 0 0.482924 0 0.02 0.482924 0 0.04 0.482924 0 0.06 0.482924 0 0.08 0.482924 0 0.1 0.482924 0 0 0.494342 0 0.02 0.494342 0 0.04 0.494342 0 0.06 0.494342 0 0.08 0.494342 0 0.1 0.494342 0 0 0.506196 0 0.02 0.506196 0 0.04 0.506196 0 0.06 0.506196 0 0.08 0.506196 0 0.1 0.506196 0 0 0.51832 0 0.02 0.51832 0 0.04 0.51832 0 0.06 0.51832 0 0.08 0.51832 0 0.1 0.51832 0 0 0.530419 0 0.02 0.530419 0 0.04 0.530419 0 0.06 0.530419 0 0.08 0.530419 0 0.1 0.530419 0 0 0.542427 0 0.02 0.542427 0 0.04 0.542427 0 0.06 0.542427 0 0.08 0.542427 0 0.1 0.542427 0 0 0.554342 0 0.02 0.554342 0 0.04 0.554342 0 0.06 0.554342 0 0.08 0.554342 0 0.1 0.554342 0 0 0.56618 0 0.02 0.56618 0 0.04 0.56618 0 0.06 0.56618 0 0.08 0.56618 0 0.1 0.56618 0 0 0.577964 0 0.02 0.577964 0 0.04 0.577964 0 0.06 0.577964 0 0.08 0.577964 0 0.1 0.577964 0 0 0.589718 0 0.02 0.589718 0 0.04 0.589718 0 0.06 0.589718 0 0.08 0.589718 0 0.1 0.589718 0 0 0.601457 0 0.02 0.601457 0 0.04 0.601457 0 0.06 0.601457 0 0.08 0.601457 0 0.1 0.601457 0 0 0.613188 0 0.02 0.613188 0 0.04 0.613188 0 0.06 0.613188 0 0.08 0.613188 0 0.1 0.613188 0 0 0.624917 0 0.02 0.624917 0 0.04 0.624917 0 0.06 0.624917 0 0.08 0.624917 0 0.1 0.624917 0 0 0.636646 0 0.02 0.636646 0 0.04 0.636646 0 0.06 0.636646 0 0.08 0.636646 0 0.1 0.636646 0 0 0.648374 0 0.02 0.648374 0 0.04 0.648374 0 0.06 0.648374 0 0.08 0.648374 0 0.1 0.648374 0 0 0.660105 0 0.02 0.660105 0 0.04 0.660105 0 0.06 0.660105 0 0.08 0.660105 0 0.1 0.660105 0 0 0.671848 0 0.02 0.671848 0 0.04 0.671848 0 0.06 0.671848 0 0.08 0.671848 0 0.1 0.671848 0 0 0.674457 0 0.02 0.674457 0 0.04 0.674457 0 0.06 0.674457 0 0.08 0.674457 0 0.1 0.674457 0 0 0.676993 0 0.02 0.676993 0 0.04 0.676993 0 0.06 0.676993 0 0.08 0.676993 0 0.1 0.676993 0 0 0.679483 0 0.02 0.679483 0 0.04 0.679483 0 0.06 0.679483 0 0.08 0.679483 0 0.1 0.679483 0 0 0.681943 0 0.02 0.681943 0 0.04 0.681943 0 0.06 0.681943 0 0.08 0.681943 0 0.1 0.681943 0 0 0.684381 0 0.02 0.684381 0 0.04 0.684381 0 0.06 0.684381 0 0.08 0.684381 0 0.1 0.684381 0 0 0.686804 0 0.02 0.686804 0 0.04 0.686804 0 0.06 0.686804 0 0.08 0.686804 0 0.1 0.686804 0 0 0.689218 0 0.02 0.689218 0 0.04 0.689218 0 0.06 0.689218 0 0.08 0.689218 0 0.1 0.689218 0 0 0.69163 0 0.02 0.69163 0 0.04 0.69163 0 0.06 0.69163 0 0.08 0.69163 0 0.1 0.69163 0 0 0.694042 0 0.02 0.694042 0 0.04 0.694042 0 0.06 0.694042 0 0.08 0.694042 0 0.1 0.694042 0 0 0.69644 0 0.02 0.69644 0 0.04 0.69644 0 0.06 0.69644 0 0.08 0.69644 0 0.1 0.69644 0 0 0.698826 0 0.02 0.698826 0 0.04 0.698826 0 0.06 0.698826 0 0.08 0.698826 0 0.1 0.698826 0 0 0.701207 0 0.02 0.701207 0 0.04 0.701207 0 0.06 0.701207 0 0.08 0.701207 0 0.1 0.701207 0 0 0.703585 0 0.02 0.703585 0 0.04 0.703585 0 0.06 0.703585 0 0.08 0.703585 0 0.1 0.703585 0 0 0.705961 0 0.02 0.705961 0 0.04 0.705961 0 0.06 0.705961 0 0.08 0.705961 0 0.1 0.705961 0 0 0.708333 0 0.02 0.708333 0 0.04 0.708333 0 0.06 0.708333 0 0.08 0.708333 0 0.1 0.708333 0 0 0.710703 0 0.02 0.710703 0 0.04 0.710703 0 0.06 0.710703 0 0.08 0.710703 0 0.1 0.710703 0 0 0.713073 0 0.02 0.713073 0 0.04 0.713073 0 0.06 0.713073 0 0.08 0.713073 0 0.1 0.713073 0 0 0.71544 0 0.02 0.71544 0 0.04 0.71544 0 0.06 0.71544 0 0.08 0.71544 0 0.1 0.71544
[...]
			<PointData Scalars="VitesseX">
				<DataArray Name="VitesseX" type="Float32" format="ascii">
 0 3.38836e-15 2.42426e-15 1.09146e-15 2.52515e-15 0 0 2.12512e-15 3.59505e-15 3.83539e-16 2.47989e-15 0 0 2.58344e-16 4.71843e-15 1.01397e-15 1.51034e-15 0 0 -5.31084e-16 4.5034e-15 2.31191e-15 1.47104e-15 0 0 -4.11028e-16 3.18243e-15 1.87389e-15 3.72768e-15 0 0 7.85664e-16 1.3091e-15 5.68057e-16 5.49648e-15 0 0 1.72345e-15 -1.80236e-16 -1.11752e-15 6.47654e-15 0 0 3.44703e-15 -2.45286e-15 -1.132e-15 6.43986e-15 0 0 4.61794e-15 -3.50609e-15 -4.5467e-16 6.58932e-15 0 0 2.23617e-15 3.72714e-16 -1.02617e-15 2.5369e-15 0 0 5.81906e-17 3.88797e-15 -2.08759e-15 8.46129e-17 0 0 -1.07437e-15 4.62156e-15 -2.95652e-15 2.74848e-15 0 0 4.75236e-16 1.96683e-15 -5.75581e-16 1.8305e-15 0 0 1.09385e-15 -3.50278e-15 5.86054e-15 -5.15984e-15 0 0 1.89786e-16 -8.19793e-15 8.1453e-15 -7.02453e-15 0 0 1.32711e-15 -1.04916e-14 3.6665e-15 -8.75754e-16 0 0 -2.81851e-16 -9.01434e-15 -1.38351e-15 4.2485e-15 0 0 3.5504e-16 -8.37462e-15 -1.69487e-15 3.83142e-15 0 0 2.40696e-15 -1.11184e-14 2.38732e-15 -3.81486e-16 0 0 -4.17146e-15 -4.4064e-15 -2.87211e-15 7.04035e-16 0 0 -6.46171e-15 -2.39783e-15 -4.29395e-15 6.9253e-15 0 0 -5.86286e-15 -6.44877e-15 -1.11441e-15 9.07258e-15 0 0 -4.52691e-15 -8.09996e-15 -4.94559e-15 5.88819e-15 0 0 -2.9804e-15 -6.31884e-15 -8.591e-15 4.70757e-16 0 0 -3.25725e-15 -1.89288e-15 -9.78166e-15 -8.01176e-15 0 0 4.65583e-15 -8.02071e-15 -4.67181e-15 -1.40465e-14 0 0 -1.54994e-15 2.44582e-15 -1.05528e-14 -1.44715e-14 0 0 -8.33777e-15 5.58375e-15 -1.04899e-14 -1.31556e-14 0 0 1.63383e-16 -1.25167e-14 4.36885e-15 -1.39819e-14 0 0 2.90242e-15 -1.11732e-14 2.61544e-15 -8.13672e-15 0 0 3.88422e-15 -7.8899e-15 1.19271e-15 1.1493e-16 0 0 3.92732e-15 -1.6804e-14 2.27487e-14 -6.65023e-15 0 0 -4.06043e-15 -7.99561e-15 1.92348e-14 1.22684e-15 0 0 -7.47744e-15 5.81674e-15 3.57049e-15 2.25688e-14 0 0 6.71334e-15 -1.88946e-15 1.47211e-14 2.08768e-14 0 0 1.68176e-14 2.95832e-15 2.76145e-14 -9.12545e-16 0 0 4.99611e-15 3.09076e-14 1.87382e-14 -1.85262e-15 0 0 1.41932e-14 1.79236e-14 1.47165e-14 1.14402e-14 0 0 2.8472e-14 -3.35717e-15 2.21735e-14 -2.36923e-16 0 0 1.12181e-14 1.22736e-14 -1.48303e-17 -8.40129e-15 0 0 -1.74131e-15 1.76718e-14 -1.63287e-14 -1.27228e-14 0 0 -6.32772e-15 -4.40081e-15 -6.64821e-15 -1.54556e-14 0 0 -1.63567e-14 -1.86993e-14 -3.57323e-15 -8.28776e-15 0 0 -1.0452e-14 -2.28763e-14 -1.50583e-14 7.60014e-15 0 0 -5.9342e-15 -3.74369e-14 -2.30804e-14 1.48419e-14 0 0 -1.13248e-14 -4.62479e-14 -1.40453e-14 2.09744e-15 0 0 -1.28671e-14 -4.77758e-14 2.43846e-15 -4.15819e-15 0 0 -2.95902e-15 -5.33525e-14 -3.1037e-15 1.55123e-16 0 0 -3.04264e-15 -5.10145e-14 -2.72046e-14 -5.90354e-15 0 0 -1.20388e-14 -3.1926e-14 -2.27336e-14 -3.37623e-14 0 0 7.78296e-15 -3.46715e-14 4.74222e-15 -3.6686e-14 0 0 3.88621e-14 -4.57625e-14 1.57298e-14 -2.08405e-14 0 0 3.15121e-14 -2.36043e-14 8.51597e-15 -2.50737e-14 0 0 6.77915e-15 -4.63211e-15 4.1734e-15 -2.99138e-14 0 0 1.2422e-14 -7.88511e-15 -1.29894e-14 -9.11126e-15 0 0 1.44226e-14 8.49832e-15 -3.10844e-14 -1.42862e-15 0 0 -6.35118e-15 2.18228e-14 -1.0265e-14 -1.64761e-14 0 0 -5.52222e-15 -9.09495e-15 1.17448e-14 -4.65629e-15 0 0 2.15462e-14 -1.25216e-14 -1.19142e-14 1.7912e-14 0 0 1.63438e-14 3.50713e-15 -1.88746e-14 1.94533e-14 0 0 1.75113e-14 9.3137e-16 -2.97139e-14 4.44891e-14 0 0 1.19228e-14 6.75253e-15 -3.34566e-14 4.34315e-14 0 0 -1.37464e-14 2.27134e-14 -7.76902e-15 9.46545e-15 0 0 1.11908e-15 2.92064e-14 -1.2417e-14 3.83687e-15 0 0 2.06217e-14 -4.14433e-15 1.51801e-14 -2.2383e-14 0 0 6.81608e-15 -7.43912e-15 2.1253e-14 -1.65841e-14 0 0 1.06447e-14 1.72225e-14 4.1013e-15 -1.27278e-14 0 0 1.42561e-14 2.08033e-14 8.33531e-15 -1.25723e-14 0 0 4.75338e-15 1.28544e-15 1.63505e-14 -2.64753e-15 0 0 -5.71267e-15 -1.89991e-14 2.84267e-14 -8.40918e-15 0 0 9.56309e-16 -3.77727e-15 2.5776e-14 8.95505e-15 0 0 -1.51869e-15 1.13755e-14 2.72827e-14 4.77907e-15 0 0 -2.52832e-15 -2.29529e-15 4.21573e-14 -8.91608e-15 0 0 7.09554e-15 1.13186e-14 1.42236e-15 8.84134e-15 0 0 -6.69454e-15 2.09018e-14 -4.30996e-14 2.77874e-14 0 0 -1.81685e-14 1.88444e-14 -1.09224e-14 1.27974e-16 0 0 -2.00866e-14 6.74419e-15 2.46783e-14 -2.80707e-14 0 0 1.7774e-14 -2.59698e-14 1.52351e-14 1.41455e-15 0 0 -2.72679e-15 1.08827e-15 1.10186e-14 1.99144e-14 0 0 -1.64406e-14 2.43083e-14 3.07254e-14 -4.13107e-15 0 0 1.98554e-14 2.59966e-14 9.0256e-15 4.17979e-15 0 0 3.52794e-14 2.29801e-14 -1.70185e-14 2.12697e-14 0 0 3.38912e-14 2.63005e-14 -4.17513e-15 1.67691e-14 0 0 -3.03874e-15 3.77392e-14 9.56842e-15 1.785e-14 0 0 -2.06994e-14 1.57539e-14 2.15247e-14 1.00232e-14 0 0 -9.81177e-16 1.71668e-14 2.43368e-14 -1.53346e-15 0 0 1.70799e-14 3.18949e-14 1.94989e-14 1.12284e-14 0 0 1.16512e-14 1.36988e-14 1.89785e-14 1.73183e-14 0 0 -7.6838e-15 -3.00487e-14 -3.39097e-15 -1.36251e-14 0 0 -5.97388e-14 -7.28473e-14 -9.8938e-14 -3.62772e-14 0 0 -1.12302e-13 -1.683e-13 -1.95744e-13 -8.81488e-14 0 0 -1.55061e-13 -2.84386e-13 -2.71544e-13 -1.69552e-13 0 0 -2.08641e-13 -3.2986e-13 -3.52076e-13 -1.98452e-13 0 0 -2.16984e-13 -3.41125e-13 -3.44087e-13 -2.26149e-13 0 0 -1.86848e-13 -3.05961e-13 -2.91991e-13 -2.00832e-13 0 0 -1.35464e-13 -2.29487e-13 -2.16784e-13 -1.48973e-13 0 0 -8.17446e-14 -1.30643e-13 -1.1745e-13 -1.03109e-13 0 0 -2.89921e-14 -3.59398e-14 -1.97232e-14 -3.31248e-14 0 0 3.14886e-15 3.21814e-14 3.50098e-14 1.7187e-14 0 0 -7.02829e-15 -6.76378e-15 -1.28338e-14 1.28015e-15 0 0 -3.89825e-14 -1.029e-13 -1.19296e-13 -2.90249e-14 0 0 -1.96594e-13 -3.30353e-13 -3.11199e-13 -2.04408e-13 0 0 -2.20151e-13 -3.57041e-13 -3.44038e-13 -1.85821e-13 0 0 -2.51725e-13 -4.3081e-13 -4.14262e-13 -2.27209e-13 0 0 -3.03587e-13 -4.75994e-13 -4.77726e-13 -2.80284e-13 0 0 -3.62782e-13 -5.41288e-13 -5.4859e-13 -3.07807e-13 0 0 -3.23096e-13 -5.4855e-13 -5.40631e-13 -3.1969e-13 0 0 -1.2336e-13 -2.30679e-13 -2.30425e-13 -1.64364e-13 0 0 3.88791e-13 5.88297e-13 6.01584e-13 3.52929e-13 0 0 1.00408e-12 1.61676e-12 1.59714e-12 1.00122e-12 0 0 1.53968e-12 2.48951e-12 2.45842e-12 1.52455e-12 0 0 1.90205e-12 3.0601e-12 3.00881e-12 1.87178e-12 0 0 2.01968e-12 3.28873e-12 3.19807e-12 2.01439e-12 0 0 1.98904e-12 3.23977e-12 3.17586e-12 1.98919e-12 0 0 1.88034e-12 3.07097e-12 3.03079e-12 1.8432e-12 0 0 1.77028e-12 2.82897e-12 2.81191e-12 1.69644e-12 0 0 1.64201e-12 2.56368e-12 2.61612e-12 1.58404e-12 0 0 1.47537e-12 2.38652e-12 2.36709e-12 1.40657e-12 0 0 1.34894e-12 2.21656e-12 2.09192e-12 1.31917e-12 0 0 1.24506e-12 2.00325e-12 1.94226e-12 1.25102e-12 0 0 1.13012e-12 1.84771e-12 1.80133e-12 1.11854e-12 0 0 1.07257e-12 1.6899e-12 1.64558e-12 9.99454e-13 0 0 9.93854e-13 1.55462e-12 1.49424e-12 9.19425e-13 0 0 9.10119e-13 1.42306e-12 1.38394e-12 9.0076e-13 0 0 8.72444e-13 1.30342e-12 1.29734e-12 8.69951e-13 0 0 7.90514e-13 1.18828e-12 1.20038e-12 7.89437e-13 0 0 6.90294e-13 1.10849e-12 1.13374e-12 6.8329e-13 0 0 6.5681e-13 1.05596e-12 1.09397e-12 6.5959e-13 0 0 6.17104e-13 9.85834e-13 1.05517e-12 6.57063e-13 0 0 5.63843e-13 8.91988e-13 9.75504e-13 5.89312e-13 0 0 5.25192e-13 7.8482e-13 8.68809e-13 5.19954e-13 0 0 4.69358e-13 7.1386e-13 8.20997e-13 4.70245e-13 0 0 4.24715e-13 6.87272e-13 7.08176e-13 4.58455e-13 0 0 3.91223e-13 6.38335e-13 6.13992e-13 3.86957e-13 0 0 3.2855e-13 5.73576e-13 6.26182e-13 2.95446e-13 0 0 2.67336e-13 5.36378e-13 5.89131e-13 2.18222e-13 0 0 2.07393e-13 5.24404e-13 4.91199e-13 1.85448e-13 0 0 1.6682e-13 4.9995e-13 4.12194e-13 2.03729e-13 0 0 1.40257e-13 4.3916e-13 3.51645e-13 1.62353e-13 0 0 1.12038e-13 3.60312e-13 3.07807e-13 1.18902e-13 0 0 1.16901e-13 2.21951e-13 3.21391e-13 9.26361e-14 0 0 1.00538e-13 1.30059e-13 2.44508e-13 1.23234e-13 0 0 5.2301e-14 4.17909e-14 2.35785e-13 3.87849e-14 0 0 -3.3446e-15 -1.99569e-14 1.93647e-13 3.99698e-14 0 0 -5.8812e-14 -3.25269e-14 3.45146e-14 1.22776e-13 0 0 -8.0145e-14 -9.36102e-14 -3.38914e-14 7.29562e-14 0 0 -7.33253e-14 -1.86516e-13 -1.02529e-13 8.09464e-14 0 0 -6.00766e-14 -2.93281e-13 -1.87051e-13 4.55289e-14 0 0 -1.19401e-13 -3.47482e-13 -2.50889e-13 -1.00515e-13 0 0 -1.74825e-13 -3.94183e-13 -3.30227e-13 -1.7342e-13 0 0 -2.64994e-13 -4.07265e-13 -4.50467e-13 -2.47678e-13 0 0 -3.37239e-13 -4.71088e-13 -5.00431e-13 -3.07032e-13 0 0 -3.4274e-13 -5.57618e-13 -5.80256e-13 -3.69091e-13 0 0 -4.10987e-13 -6.15241e-13 -6.51793e-13 -5.39176e-13 0 0 -4.39234e-13 -7.4903e-13 -6.6858e-13 -5.67894e-13 0 0 -4.97003e-13 -8.07551e-13 -8.06088e-13 -5.45316e-13 0 0 -5.7005e-13 -8.5989e-13 -9.12383e-13 -6.0756e-13 0 0 -6.39059e-13 -8.87013e-13 -1.02067e-12 -6.8726e-13 0 0 -6.74445e-13 -9.53216e-13 -1.0834e-12 -7.14379e-13 0 0 -6.48227e-13 -1.06879e-12 -1.0782e-12 -6.41579e-13 0 0 -6.71747e-13 -1.11245e-12 -1.1004e-12 -7.49169e-13 0 0 -6.61241e-13 -1.10756e-12 -1.05929e-12 -8.78869e-13 0 0 -6.85362e-13 -1.04169e-12 -1.14807e-12 -7.88023e-13 0 0 -6.46219e-13 -9.58475e-13 -1.11488e-12 -6.65025e-13 0 0 -5.35817e-13 -9.03176e-13 -9.98039e-13 -5.81281e-13 0 0 -4.50774e-13 -7.88329e-13 -7.97934e-13 -5.08668e-13 0 0 -3.61792e-13 -6.54496e-13 -5.82391e-13 -3.93617e-13 0 0 -2.67795e-13 -4.38135e-13 -4.60807e-13 -3.23748e-13 0 0 -1.89183e-13 -2.70093e-13 -3.10723e-13 -2.0856e-13 0 0 -1.03241e-13 -2.04439e-13 -2.17356e-13 -2.21243e-14 0 0 -6.99373e-14 -1.11626e-13 -1.57934e-13 -3.47081e-14 0 0 -4.3786e-14 -8.94696e-14 -9.26827e-14 -4.40773e-14 0 0 -4.67963e-14 -6.59759e-14 -9.46091e-14 -3.72339e-14 0 0 -5.59126e-14 -4.90833e-14 -6.52622e-14 -1.09329e-13 0 0 -5.02022e-14 -5.75247e-14 -6.06618e-14 -8.88886e-14 0 0 -5.5867e-14 -5.01691e-14 -6.66083e-14 -8.11645e-14 0 0 -4.8049e-14 -5.65879e-14 -6.41118e-14 -7.29591e-14 0 0 -4.73659e-14 -5.87678e-14 -9.89829e-14 -5.33386e-14 0 0 -6.64474e-14 -4.45915e-14 -8.85679e-14 -1.14805e-13 0 0 -6.54843e-14 -5.00896e-14 -6.59029e-14 -1.24858e-13 0 0 -5.88181e-14 -6.98347e-14 -5.76439e-14 -1.00516e-13 0 0 -4.48709e-14 -6.53774e-14 -6.47139e-14 -7.4341e-14 0 0 -2.69672e-14 -6.5495e-14 -8.84712e-14 -3.64542e-14 0 0 -3.49959e-14 -6.78807e-14 -6.13355e-14 -4.69069e-14 0 0 -5.78089e-14 -3.77402e-14 -3.74711e-14 -1.03328e-13 0 0 -6.55775e-14 -1.89284e-14 -6.3261e-14 -8.97684e-14 0 0 -4.12664e-14 -4.95418e-14 -5.03089e-14 -6.51165e-14 0 0 -2.0131e-14 -7.15205e-14 -1.05725e-14 -8.36121e-14 0 0 -1.62495e-14 -6.46413e-14 -2.42136e-15 -7.04525e-14 0 0 -2.88264e-14 -2.53084e-14 -3.27394e-14 -4.3885e-14 0 0 -5.84384e-16 -5.41651e-14 3.16687e-15 -4.80788e-14 0 0 -1.1409e-15 -1.62676e-14 -1.81689e-14 -1.23485e-14 0 0 -3.32052e-14 1.74835e-14 9.88962e-18 -2.89399e-14 0 0 -1.42762e-14 -3.15012e-14 7.80327e-14 -6.15694e-14 0 0 9.5847e-15 -5.08197e-14 9.89029e-15 2.24111e-14 0 0 -1.07094e-14 -6.90753e-14 -2.5718e-14 3.32276e-14 0 0 -3.70945e-14 -6.04332e-14 -6.00756e-14 3.38812e-14 0 0 -7.72245e-14 -1.93134e-14 -9.45921e-14 4.11483e-14 0 0 -7.49295e-14 -3.43984e-14 -5.82783e-14 -8.96888e-16 0 0 -7.2372e-14 -3.38898e-14 -4.13972e-14 -5.03595e-14 0 0 -1.2023e-13 2.62367e-14 -5.44263e-14 -7.46154e-14 0
				</DataArray>
				<DataArray Name="VitesseY" type="Float32" format="ascii">