<?xml version="1.0"?>
<VTKFile type="PolyData">
	<PolyData>
		<Piece NumberOfPoints="1206" NumberOfPolys="1000">
			<Points>
				<DataArray type="Float32" NumberOfComponents="3" format="ascii">
 0 0 0 0.02 0 0 0.04 0 0 0.06 0 0 0.08 0 0 0.1 0 0 0 0.005 0 0.02 0.005 0 0.04 0.005 0 0.06 0.005 0 0.08 0.005 0 0.1 0.005 0 0 0.01 0 0.02 0.01 0 0.04 0.01 0 0.06 0.01 0 0.08 0.01 0 0.1 0.01 0 0 0.015 0 0.02 0.015 0 0.04 0.015 0 0.06 0.015 0 0.08 0.015 0 0.1 0.015 0 0 0.02 0 0.02 0.02 0 0.04 0.02 0 0.06 0.02 0 0.08 0.02 0 0.1 0.02 0 0 0.025 0 0.02 0.025 0 0.04 0.025 0 0.06 0.025 0 0.08 0.025 0 0.1 0.025 0 0 0.03 0 0.02 0.03 0 0.04 0.03 0 0.06 0.03 0 0.08 0.03 0 0.1 0.03 0 0 0.035 0 0.02 0.035 0 0.04 0.035 0 0.06 0.035 0 0.08 0.035 0 0.1 0.035 0 0 0.04 0 0.02 0.04 0 0.04 0.04 0 0.06 0.04 0 0.08 0.04 0 0.1 0.04 0 0 0.045 0 0.02 0.045 0 0.04 0.045 0 0.06 0.045 0 0.08 0.045 0 0.1 0.045 0 0 0.05 0 0.02 0.05 0 0.04 0.05 0 0.06 0.05 0 0.08 0.05 0 0.1 0.05 0 0 0.055 0 0.02 0.055 0 0.04 0.055 0 0.06 0.055 0 0.08 0.055 0 0.1 0.055 0 0 0.06 0 0.02 0.06 0 0.04 0.06 0 0.06 0.06 0 0.08 0.06 0 0.1 0.06 0 0 0.065 0 0.02 0.065 0 0.04 0.065 0 0.06 0.065 0 0.08 0.065 0 0.1 0.065 0 0 0.07 0 0.02 0.07 0 0.04 0.07 0 0.06 0.07 0 0.08 0.07 0 0.1 0.07 0 0 0.075 0 0.02 0.075 0 0.04 0.075 0 0.06 0.075 0 0.08 0.075 0 0.1 0.075 0 0 0.08 0 0.02 0.08 0 0.04 0.08 0 0.06 0.08 0 0.08 0.08 0 0.1 0.08 0 0 0.085 0 0.02 0.085 0 0.04 0.085 0 0.06 0.085 0 0.08 0.085 0 0.1 0.085 0 0 0.09 0 0.02 0.09 0 0.04 0.09 0 0.06 0.09 0 0.08 0.09 0 0.1 0.09 0 0 0.095 0 0.02 0.095 0 0.04 0.095 0 0.06 0.095 0 0.08 0.095 0 0.1 0.095 0 0 0.1 0 0.02 0.1 0 0.04 0.1 0 0.06 0.1 0 0.08 0.1 0 0.1 0.1 0 0 0.105 0 0.02 0.105 0 0.04 0.105 0 0.06 0.105 0 0.08 0.105 0 0.1 0.105 0 0 0.11 0 0.02 0.11 0 0.04 0.11 0 0.06 0.11 0 0.08 0.11 0 0.1 0.11 0 0 0.115 0 0.02 0.115 0 0.04 0.115 0 0.06 0.115 0 0.08 0.115 0 0.1 0.115 0 0 0.12 0 0.02 0.12 0 0.04 0.12 0 0.06 0.12 0 0.08 0.12 0 0.1 0.12 0 0 0.125 0 0.02 0.125 0 0.04 0.125 0 0.06 0.125 0 0.08 0.125 0 0.1 0.125 0 0 0.13 0 0.02 0.13 0 0.04 0.13 0 0.06 0.13 0 0.08 0.13 0 0.1 0.13 0 0 0.135 0 0.02 0.135 0 0.04 0.135 0 0.06 0.135 0 0.08 0.135 0 0.1 0.135 0 0 0.14 0 0.02 0.14 0 0.04 0.14 0 0.06 0.14 0 0.08 0.14 0 0.1 0.14 0 0 0.145 0 0.02 0.145 0 0.04 0.145 0 0.06 0.145 0 0.08 0.145 0 0.1 0.145 0 0 0.15 0 0.02 0.15 0 0.04 0.15 0 0.06 0.15 0 0.08 0.15 0 0.1 0.15 0 0 0.155 0 0.02 0.155 0 0.04 0.155 0 0.06 0.155 0 0.08 0.155 0 0.1 0.155 0 0 0.16 0 0.02 0.16 0 0.04 0.16 0 0.06 0.16 0 0.08 0.16 0 0.1 0.16 0 0 0.165 0 0.02 0.165 0 0.04 0.165 0 0.06 0.165 0 0.08 0.165 0 0.1 0.165 0 0 0.17 0 0.02 0.17 0 0.04 0.17 0 0.06 0.17 0 0.08 0.17 0 0.1 0.17 0 0 0.175 0 0.02 0.175 0 0.04 0.175 0 0.06 0.175 0 0.08 0.175 0 0.1 0.175 0 0 0.18 0 0.02 0.18 0 0.04 0.18 0 0.06 0.18 0 0.08 0.18 0 0.1 0.18 0 0 0.185 0 0.02 0.185 0 0.04 0.185 0 0.06 0.185 0 0.08 0.185 0 0.1 0.185 0 0 0.19 0 0.02 0.19 0 0.04 0.19 0 0.06 0.19 0 0.08 0.19 0 0.1 0.19 0 0 0.195 0 0.02 0.195 0 0.04 0.195 0 0.06 0.195 0 0.08 0.195 0 0.1 0.195 0 0 0.2 0 0.02 0.2 0 0.04 0.2 0 0.06 0.2 0 0.08 0.2 0 0.1 0.2 0 0 0.205 0 0.02 0.205 0 0.04 0.205 0 0.06 0.205 0 0.08 0.205 0 0.1 0.205 0 0 0.21 0 0.02 0.21 0 0.04 0.21 0 0.06 0.21 0 0.08 0.21 0 0.1 0.21 0 0 0.215 0 0.02 0.215 0 0.04 0.215 0 0.06 0.215 0 0.08 0.215 0 0.1 0.215 0 0 0.22 0 0.02 0.22 0 0.04 0.22 0 0.06 0.22 0 0.08 0.22 0 0.1 0.22 0 0 0.225 0 0.02 0.225 0 0.04 0.225 0 0.06 0.225 0 0.08 0.225 0 0.1 0.225 0 0 0.23 0 0.02 0.23 0 0.04 0.23 0 0.06 0.23 0 0.08 0.23 0 0.1 0.23 0 0 0.235 0 0.02 0.235 0 0.04 0.235 0 0.06 0.235 0 0.08 0.235 0 0.1 0.235 0 0 0.24 0 0.02 0.24 0 0.04 0.24 0 0.06 0.24 0 0.08 0.24 0 0.1 0.24 0 0 0.245 0 0.02 0.245 0 0.04 0.245 0 0.06 0.245 0 0.08 0.245 0 0.1 0.245 0 0 0.25 0 0.02 0.25 0 0.04 0.25 0 0.06 0.25 0 0.08 0.25 0 0.1 0.25 0 0 0.255 0 0.02 0.255 0 0.04 0.255 0 0.06 0.255 0 0.08 0.255 0 0.1 0.255 0 0 0.26 0 0.02 0.26 0 0.04 0.26 0 0.06 0.26 0 0.08 0.26 0 0.1 0.26 0 0 0.265 0 0.02 0.265 0 0.04 0.265 0 0.06 0.265 0 0.08 0.265 0 0.1 0.265 0 0 0.27 0 0.02 0.27 0 0.04 0.27 0 0.06 0.27 0 0.08 0.27 0 0.1 0.27 0 0 0.275 0 0.02 0.275 0 0.04 0.275 0 0.06 0.275 0 0.08 0.275 0 0.1 0.275 0 0 0.28 0 0.02 0.28 0 0.04 0.28 0 0.06 0.28 0 0.08 0.28 0 0.1 0.28 0 0 0.285 0 0.02 0.285 0 0.04 0.285 0 0.06 0.285 0 0.08 0.285 0 0.1 0.285 0 0 0.29 0 0.02 0.29 0 0.04 0.29 0 0.06 0.29 0 0.08 0.29 0 0.1 0.29 0 0 0.295 0 0.02 0.295 0 0.04 0.295 0 0.06 0.295 0 0.08 0.295 0 0.1 0.295 0 0 0.3 0 0.02 0.3 0 0.04 0.3 0 0.06 0.3 0 0.08 0.3 0 0.1 0.3 0 0 0.305 0 0.02 0.305 0 0.04 0.305 0 0.06 0.305 0 0.08 0.305 0 0.1 0.305 0 0 0.31 0 0.02 0.31 0 0.04 0.31 0 0.06 0.31 0 0.08 0.31 0 0.1 0.31 0 0 0.315 0 0.02 0.315 0 0.04 0.315 0 0.06 0.315 0 0.08 0.315 0 0.1 0.315 0 0 0.32 0 0.02 0.32 0 0.04 0.32 0 0.06 0.32 0 0.08 0.32 0 0.1 0.32 0 0 0.325 0 0.02 0.325 0 0.04 0.325 0 0.06 0.325 0 0.08 0.325 0 0.1 0.325 0 0 0.33 0 0.02 0.33 0 0.04 0.33 0 0.06 0.33 0 0.08 0.33 0 0.1 0.33 0 0 0.335 0 0.02 0.335 0 0.04 0.335 0 0.06 0.335 0 0.08 0.335 0 0.1 0.335 0 0 0.34 0 0.02 0.34 0 0.04 0.34 0 0.06 0.34 0 0.08 0.34 0 0.1 0.34 0 0 0.345 0 0.02 0.345 0 0.04 0.345 0 0.06 0.345 0 0.08 0.345 0 0.1 0.345 0 0 0.35 0 0.02 0.35 0 0.04 0.35 0 0.06 0.35 0 0.08 0.35 0 0.1 0.35 0 0 0.355 0 0.02 0.355 0 0.04 0.355 0 0.06 0.355 0 0.08 0.355 0 0.1 0.355 0 0 0.36 0 0.02 0.36 0 0.04 0.36 0 0.06 0.36 0 0.08 0.36 0 0.1 0.36 0 0 0.365 0 0.02 0.365 0 0.04 0.365 0 0.06 0.365 0 0.08 0.365 0 0.1 0.365 0 0 0.37 0 0.02 0.37 0 0.04 0.37 0 0.06 0.37 0 0.08 0.37 0 0.1 0.37 0 0 0.375 0 0.02 0.375 0 0.04 0.375 0 0.06 0.375 0 0.08 0.375 0 0.1 0.375 0 0 0.38 0 0.02 0.38 0 0.04 0.38 0 0.06 0.38 0 0.08 0.38 0 0.1 0.38 0 0 0.385 0 0.02 0.385 0 0.04 0.385 0 0.06 0.385 0 0.08 0.385 0 0.1 0.385 0 0 0.39 0 0.02 0.39 0 0.04 0.39 0 0.06 0.39 0 0.08 0.39 0 0.1 0.39 0 0 0.395002 0 0.02 0.395002 0 0.04 0.395002 0 0.06 0.395002 0 0.08 0.395002 0 0.1 0.395002 0 0 0.400008 0 0.02 0.400008 0 0.04 0.400008 0 0.06 0.400008 0 0.08 0.400008 0 0.1 0.400008 0 0 0.405028 0 0.02 0.405028 0 0.04 0.405028 0 0.06 0.405028 0 0.08 0.405028 0 0.1 0.405028 0 0 0.410087 0 0.02 0.410087 0 0.04 0.410087 0 0.06 0.410087 0 0.08 0.410087 0 0.1 0.410087 0 0 0.415227 0 0.02 0.415227 0 0.04 0.415227 0 0.06 0.415227 0 0.08 0.415227 0 0.1 0.415227 0 0 0.420508 0 0.02 0.420508 0 0.04 0.420508 0 0.06 0.420508 0 0.08 0.420508 0 0.1 0.420508 0 0 0.425992 0 0.02 0.425992 0 0.04 0.425992 0 0.06 0.425992 0 0.08 0.425992 0 0.1 0.425992 0 0 0.431738 0 0.02 0.431738 0 0.04 0.431738 0 0.06 0.431738 0 0.08 0.431738 0 0.1 0.431738 0 0 0.437799 0 0.02 0.437799 0 0.04 0.437799 0 0.06 0.437799 0 0.08 0.437799 0 0.1 0.437799 0 0 0.444228 0 0.02 0.444228 0 0.04 0.444228 0 0.06 0.444228 0 0.08 0.444228 0 0.1 0.444228 0 0 0.451085 0 0.02 0.451085 0 0.04 0.451085 0 0.06 0.451085 0 0.08 0.451085 0 0.1 0.451085 0 0 0.458445 0 0.02 0.458445 0 0.04 0.458445 0 0.06 0.458445 0 0.08 0.458445 0 0.1 0.458445 0 0 0.466395 0 0.02 0.466395 0 0.04 0.466395 0 0.06 0.466395 0 0.08 0.466395 0 0.1 0.466395 0 0 0.475046 0 0.02 0.475046 0 0.04 0.475046 0 0.06 0.475046 0 0.08 0.475046 0 0.1 0.475046 0 0 0.484533 0 0.02 0.484533 0 0.04 0.484533 0 0.06 0.484533 0 0.08 0.484533 0 0.1 0.484533 0 0 0.495009 0 0.02 0.495009 0 0.04 0.495009 0 0.06 0.495009 0 0.08 0.495009 0 0.1 0.495009 0 0 0.506568 0 0.02 0.506568 0 0.04 0.506568 0 0.06 0.506568 0 0.08 0.506568 0 0.1 0.506568 0 0 0.518903 0 0.02 0.518903 0 0.04 0.518903 0 0.06 0.518903 0 0.08 0.518903 0 0.1 0.518903 0 0 0.531129 0 0.02 0.531129 0 0.04 0.531129 0 0.06 0.531129 0 0.08 0.531129 0 0.1 0.531129 0 0 0.543109 0 0.02 0.543109 0 0.04 0.543109 0 0.06 0.543109 0 0.08 0.543109 0 0.1 0.543109 0 0 0.554937 0 0.02 0.554937 0 0.04 0.554937 0 0.06 0.554937 0 0.08 0.554937 0 0.1 0.554937 0 0 0.566729 0 0.02 0.566729 0 0.04 0.566729 0 0.06 0.566729 0 0.08 0.566729 0 0.1 0.566729 0 0 0.569345 0 0.02 0.569345 0 0.04 0.569345 0 0.06 0.569345 0 0.08 0.569345 0 0.1 0.569345 0 0 0.571887 0 0.02 0.571887 0 0.04 0.571887 0 0.06 0.571887 0 0.08 0.571887 0 0.1 0.571887 0 0 0.574384 0 0.02 0.574384 0 0.04 0.574384 0 0.06 0.574384 0 0.08 0.574384 0 0.1 0.574384 0 0 0.57685 0 0.02 0.57685 0 0.04 0.57685 0 0.06 0.57685 0 0.08 0.57685 0 0.1 0.57685 0 0 0.579296 0 0.02 0.579296 0 0.04 0.579296 0 0.06 0.579296 0 0.08 0.579296 0 0.1 0.579296 0 0 0.581727 0 0.02 0.581727 0 0.04 0.581727 0 0.06 0.581727 0 0.08 0.581727 0 0.1 0.581727 0 0 0.584149 0 0.02 0.584149 0 0.04 0.584149 0 0.06 0.584149 0 0.08 0.584149 0 0.1 0.584149 0 0 0.586569 0 0.02 0.586569 0 0.04 0.586569 0 0.06 0.586569 0 0.08 0.586569 0 0.1 0.586569 0 0 0.588989 0 0.02 0.588989 0 0.04 0.588989 0 0.06 0.588989 0 0.08 0.588989 0 0.1 0.588989 0 0 0.591393 0 0.02 0.591393 0 0.04 0.591393 0 0.06 0.591393 0 0.08 0.591393 0 0.1 0.591393 0 0 0.593786 0 0.02 0.593786 0 0.04 0.593786 0 0.06 0.593786 0 0.08 0.593786 0 0.1 0.593786 0 0 0.596172 0 0.02 0.596172 0 0.04 0.596172 0 0.06 0.596172 0 0.08 0.596172 0 0.1 0.596172 0 0 0.598555 0 0.02 0.598555 0 0.04 0.598555 0 0.06 0.598555 0 0.08 0.598555 0 0.1 0.598555 0 0 0.600938 0 0.02 0.600938 0 0.04 0.600938 0 0.06 0.600938 0 0.08 0.600938 0 0.1 0.600938 0 0 0.60332 0 0.02 0.60332 0 0.04 0.60332 0 0.06 0.60332 0 0.08 0.60332 0 0.1 0.60332 0 0 0.605704 0 0.02 0.605704 0 0.04 0.605704 0 0.06 0.605704 0 0.08 0.605704 0 0.1 0.605704 0 0 0.608092 0 0.02 0.608092 0 0.04 0.608092 0 0.06 0.608092 0 0.08 0.608092 0 0.1 0.608092 0 0 0.610487 0 0.02 0.610487 0 0.04 0.610487 0 0.06 0.610487 0 0.08 0.610487 0 0.1 0.610487 0 0 0.612894 0 0.02 0.612894 0 0.04 0.612894 0 0.06 0.612894 0 0.08 0.612894 0 0.1 0.612894 0 0 0.615336 0 0.02 0.615336 0 0.04 0.615336 0 0.06 0.615336 0 0.08 0.615336 0 0.1 0.615336 0 0 0.617856 0 0.02 0.617856 0 0.04 0.617856 0 0.06 0.617856 0 0.08 0.617856 0 0.1 0.617856 0 0 0.620457 0 0.02 0.620457 0 0.04 0.620457 0 0.06 0.620457 0 0.08 0.620457 0 0.1 0.620457 0 0 0.623211 0 0.02 0.623211 0 0.04 0.623211 0 0.06 0.623211 0 0.08 0.623211 0 0.1 0.623211 0 0 0.626137 0 0.02 0.626137 0 0.04 0.626137 0 0.06 0.626137 0 0.08 0.626137 0 0.1 0.626137 0 0 0.629332 0 0.
[...]
			<PointData Scalars="VitesseX">
				<DataArray Name="VitesseX" type="Float32" format="ascii">
 0 -2.08017e-15 3.45444e-17 6.31138e-15 2.76791e-15 0 0 -2.4362e-15 2.2722e-16 6.32083e-15 3.06269e-15 0 0 -1.92935e-15 -5.03755e-16 6.66439e-15 3.38905e-15 0 0 -1.6208e-15 -6.75608e-16 6.15901e-15 3.95061e-15 0 0 -1.73754e-15 1.09619e-16 4.95207e-15 4.163e-15 0 0 -2.77851e-16 -1.62306e-15 5.40468e-15 3.73644e-15 0 0 1.39596e-15 -3.71529e-15 6.32218e-15 3.85279e-15 0 0 8.46119e-16 -1.64479e-15 3.4993e-15 6.71667e-15 0 0 -2.43336e-16 1.75505e-15 -7.24343e-16 9.34278e-15 0 0 9.42345e-16 3.06454e-16 2.91073e-17 8.62257e-15 0 0 2.5182e-15 -1.32806e-15 2.171e-15 6.5292e-15 0 0 1.62409e-15 1.81446e-15 -5.18944e-16 6.07973e-15 0 0 1.2871e-15 2.82768e-15 -1.63158e-15 4.33331e-15 0 0 2.15257e-15 2.73963e-16 -7.64514e-16 4.87878e-15 0 0 -3.35011e-16 6.21149e-15 -5.94329e-15 9.47859e-15 0 0 8.04154e-16 5.97234e-15 -3.67229e-15 5.76142e-15 0 0 2.89327e-15 -1.2627e-16 -1.46905e-15 5.01263e-15 0 0 -7.75849e-16 3.35996e-15 -7.81932e-15 1.45973e-14 0 0 -1.67616e-15 1.18431e-15 -2.67544e-15 1.52144e-14 0 0 2.97576e-15 -5.36428e-15 4.19556e-15 1.33348e-14 0 0 1.63276e-15 5.1389e-16 -4.68142e-17 1.58883e-14 0 0 -3.00454e-15 3.88476e-15 1.68936e-15 9.36677e-15 0 0 -3.46255e-15 -9.37808e-16 8.87965e-15 1.38248e-15 0 0 -3.44886e-15 3.02248e-15 4.11392e-15 4.87706e-15 0 0 9.85381e-16 2.44204e-15 3.50789e-16 1.09334e-14 0 0 -6.41298e-16 2.06288e-16 -4.43061e-16 1.47789e-14 0 0 2.93108e-16 -5.28133e-15 5.16499e-15 1.11282e-14 0 0 1.77457e-15 -5.50808e-15 3.90311e-15 7.88214e-15 0 0 -7.72766e-15 3.6928e-15 -6.17926e-15 1.24485e-14 0 0 -4.02831e-15 6.88666e-16 -1.92489e-15 8.77312e-15 0 0 -1.38678e-16 5.01872e-16 -4.34715e-15 1.09203e-14 0 0 -8.33908e-16 -4.26828e-15 -4.18201e-15 1.22514e-14 0 0 2.06947e-15 -5.64792e-15 -1.35463e-15 9.55744e-15 0 0 1.27141e-15 4.47474e-15 -1.11653e-15 7.87192e-15 0 0 -1.49448e-15 1.02358e-14 -4.35695e-15 1.56137e-14 0 0 -3.25153e-15 1.05927e-14 -6.36382e-15 2.59268e-14 0 0 2.34864e-16 5.96532e-15 4.69756e-15 1.46446e-14 0 0 5.69985e-15 6.25425e-15 6.13183e-15 8.73818e-16 0 0 6.34932e-15 1.36382e-14 -3.98704e-15 -3.4507e-15 0 0 1.11973e-15 1.71434e-14 -2.85044e-15 -7.63043e-15 0 0 4.57486e-15 4.57979e-15 7.50384e-15 -8.09344e-15 0 0 5.36156e-15 1.43679e-15 1.40324e-15 9.43222e-15 0 0 -1.13587e-15 5.74857e-15 3.05001e-15 2.64966e-14 0 0 4.68978e-15 -1.89904e-15 1.52327e-14 3.06718e-14 0 0 5.77977e-15 2.46858e-15 1.15206e-14 1.8726e-14 0 0 4.89734e-15 3.88505e-15 1.32837e-14 -8.97166e-16 0 0 1.25322e-15 8.04487e-15 -1.01216e-15 1.10925e-14 0 0 -1.57695e-15 1.45128e-14 -1.26091e-14 2.41703e-14 0 0 8.4559e-15 2.43289e-15 -8.11398e-15 2.25535e-14 0 0 4.06418e-15 5.98976e-15 -6.32007e-15 1.32085e-14 0 0 6.59532e-16 3.30544e-15 6.78253e-15 3.95563e-15 0 0 1.20702e-14 -8.48841e-15 1.68532e-14 4.25143e-15 0 0 3.71224e-15 -1.35593e-15 1.20032e-14 1.17852e-14 0 0 -9.24975e-15 2.08238e-15 6.34087e-15 6.11055e-15 0 0 -3.07332e-15 -8.22827e-15 7.29135e-16 3.73717e-15 0 0 1.3164e-15 -5.0041e-16 -1.10177e-14 1.0351e-14 0 0 -4.2268e-15 3.43916e-15 3.98385e-15 -1.40248e-15 0 0 -2.14883e-14 9.13533e-15 6.50468e-15 3.03993e-15 0 0 -1.82507e-14 4.62677e-15 5.65863e-15 2.5561e-15 0 0 -1.69354e-14 -3.32914e-15 1.33953e-14 -5.70236e-16 0 0 -2.81068e-14 2.19896e-15 1.25892e-14 8.89574e-16 0 0 -1.50273e-14 -7.90906e-15 3.3279e-15 1.51123e-14 0 0 -1.63131e-14 -7.39871e-15 8.99782e-16 3.58065e-14 0 0 -1.49544e-14 -7.85131e-15 1.36013e-14 4.28923e-14 0 0 1.67544e-15 -7.24492e-15 1.11703e-14 4.08732e-14 0 0 1.042e-14 -9.21027e-15 1.95609e-14 4.04087e-14 0 0 1.50072e-14 -4.41207e-15 3.11961e-14 2.92674e-14 0 0 1.11425e-14 2.09466e-14 2.3143e-14 1.59211e-15 0 0 2.54866e-15 2.23612e-14 2.38717e-14 -8.90946e-15 0 0 1.47237e-14 1.38043e-15 3.93334e-14 -1.74315e-14 0 0 3.09335e-14 -4.22325e-15 3.80081e-14 -1.1501e-14 0 0 6.58691e-15 2.10722e-14 -2.18488e-16 -1.99221e-15 0 0 -7.94755e-15 9.63522e-15 -1.52697e-15 -1.19645e-14 0 0 -2.33168e-15 -1.3514e-14 -1.15041e-14 1.71542e-14 0 0 -1.29653e-14 1.58694e-14 -3.37663e-14 3.53796e-14 0 0 -2.29083e-14 2.19135e-14 -8.33207e-15 9.25268e-15 0 0 -1.34061e-14 -9.36429e-15 2.54035e-14 -2.05683e-14 0 0 1.11168e-16 -1.3333e-14 3.07152e-14 -3.84077e-14 0 0 -5.47133e-15 1.14735e-14 -4.82905e-15 -2.14084e-14 0 0 -2.34201e-14 1.92361e-14 8.83621e-15 -2.30243e-14 0 0 -4.67768e-15 -9.05899e-15 2.09575e-14 -2.6808e-14 0 0 -2.66868e-16 -1.8965e-14 -2.67356e-15 -3.74867e-15 0 0 -3.76096e-15 -1.86596e-14 -1.00322e-14 1.21469e-15 0 0 4.0476e-15 -1.3592e-14 -1.9308e-14 2.77536e-15 0 0 3.50833e-15 3.27193e-15 -3.22125e-14 2.27855e-14 0 0 1.16797e-14 -1.31525e-14 -9.06933e-15 7.94317e-16 0 0 1.99545e-14 -3.61268e-14 7.41287e-15 -1.4775e-14 0 0 1.66994e-14 -1.65732e-14 -4.68594e-15 -3.61163e-15 0 0 -5.65988e-15 -5.16407e-15 1.97488e-14 -5.27043e-14 0 0 -2.07361e-14 -2.64626e-15 5.66389e-15 -3.04104e-14 0 0 -2.20065e-14 -2.20799e-15 -5.30725e-15 -6.57917e-15 0 0 -7.62543e-15 -1.48898e-14 1.36881e-14 -2.47489e-14 0 0 -5.2367e-15 1.50004e-14 1.37016e-14 -8.26762e-15 0 0 1.89073e-14 1.10715e-15 1.4828e-15 1.12804e-14 0 0 7.51167e-15 7.03005e-15 1.18055e-14 1.18106e-15 0 0 3.59773e-14 7.66526e-14 8.30589e-14 3.07924e-14 0 0 2.21753e-13 3.49929e-13 3.52507e-13 2.23003e-13 0 0 4.58415e-13 7.58799e-13 7.59766e-13 4.48824e-13 0 0 5.20461e-13 8.25393e-13 8.55846e-13 4.97488e-13 0 0 2.2005e-13 3.46996e-13 3.67103e-13 2.13034e-13 0 0 -6.63813e-14 -1.16281e-13 -1.14986e-13 -4.9722e-14 0 0 -3.95931e-13 -7.08297e-13 -6.70856e-13 -3.73285e-13 0 0 -4.81872e-13 -7.29241e-13 -7.93018e-13 -3.96122e-13 0 0 -5.74561e-13 -8.48077e-13 -8.95763e-13 -4.9346e-13 0 0 -6.27665e-13 -1.02077e-12 -9.69926e-13 -6.62416e-13 0 0 -6.94877e-13 -1.15395e-12 -1.04216e-12 -7.37627e-13 0 0 -7.12908e-13 -1.13157e-12 -1.10484e-12 -6.7649e-13 0 0 -5.32487e-13 -8.21741e-13 -7.71451e-13 -4.84725e-13 0 0 -4.02868e-15 2.23417e-14 9.80977e-14 3.50221e-14 0 0 6.69812e-13 1.09316e-12 1.09964e-12 7.16883e-13 0 0 1.27055e-12 2.02028e-12 2.0866e-12 1.27484e-12 0 0 1.7164e-12 2.67133e-12 2.83042e-12 1.65583e-12 0 0 1.91647e-12 3.03386e-12 3.14716e-12 1.84607e-12 0 0 1.95191e-12 3.17094e-12 3.2046e-12 1.94177e-12 0 0 1.93948e-12 3.1497e-12 3.12868e-12 2.00542e-12 0 0 1.88711e-12 3.09942e-12 3.01304e-12 1.97474e-12 0 0 1.81572e-12 3.02996e-12 2.91433e-12 1.92694e-12 0 0 1.77001e-12 2.91131e-12 2.84118e-12 1.84277e-12 0 0 1.72612e-12 2.72985e-12 2.78007e-12 1.74743e-12 0 0 1.69112e-12 2.68261e-12 2.6971e-12 1.74179e-12 0 0 1.59839e-12 2.59742e-12 2.60876e-12 1.65979e-12 0 0 1.5665e-12 2.53459e-12 2.6101e-12 1.6372e-12 0 0 1.47505e-12 2.42458e-12 2.45764e-12 1.60048e-12 0 0 1.42353e-12 2.34934e-12 2.36571e-12 1.55132e-12 0 0 1.30047e-12 2.1368e-12 2.16431e-12 1.32485e-12 0 0 1.16924e-12 1.90053e-12 1.91017e-12 1.16523e-12 0 0 9.68363e-13 1.54936e-12 1.53938e-12 1.01019e-12 0 0 7.05548e-13 1.17781e-12 1.1856e-12 7.37044e-13 0 0 4.51388e-13 7.96493e-13 7.52724e-13 5.03714e-13 0 0 2.56252e-13 4.2968e-13 4.36323e-13 2.91725e-13 0 0 1.15552e-13 1.92736e-13 2.3012e-13 1.43071e-13 0 0 3.48203e-14 7.21142e-14 1.06959e-13 7.61315e-14 0 0 -5.51644e-15 2.44525e-14 4.08563e-14 2.83456e-14 0 0 -1.511e-14 2.83321e-15 3.41765e-15 4.92736e-14 0 0 -1.60459e-14 -1.06582e-14 -7.64163e-16 5.41549e-14 0 0 -1.62684e-14 1.8597e-15 -3.1329e-14 6.8394e-14 0 0 -1.66546e-14 -5.97101e-15 -1.89862e-14 8.56104e-14 0 0 -1.87817e-14 -1.36716e-14 2.33787e-14 4.90903e-14 0 0 -2.64149e-14 -2.10308e-14 4.94638e-14 2.69305e-14 0 0 -2.53153e-14 -2.39147e-14 4.24606e-14 2.04457e-14 0 0 -2.99877e-14 -1.66055e-14 2.36782e-14 4.23351e-14 0 0 -1.54475e-14 -3.33572e-14 4.24005e-14 4.50872e-14 0 0 -4.7592e-15 -3.81997e-14 5.46644e-14 1.30498e-14 0 0 -1.76702e-14 -2.2999e-15 3.35582e-14 4.28736e-15 0 0 -7.86899e-16 -8.82521e-17 2.90257e-14 2.78519e-14 0 0 3.30155e-14 -2.4921e-14 5.36633e-14 2.32655e-14 0 0 3.14456e-14 3.81444e-15 4.22978e-14 7.00239e-15 0 0 1.31257e-14 3.73143e-14 4.60424e-14 2.67074e-14 0 0 2.90105e-14 2.58504e-14 9.36878e-14 3.49431e-15 0 0 4.63508e-14 2.35303e-14 8.68927e-14 -1.04152e-14 0 0 3.67302e-14 5.81793e-14 5.06224e-14 1.26884e-14 0 0 1.87657e-14 6.0273e-14 5.199e-14 1.74627e-14 0 0 2.87983e-14 4.0586e-14 3.95489e-14 6.40299e-15 0 0 3.51227e-14 2.76641e-14 5.7073e-15 3.49357e-14 0 0 1.75469e-14 -1.84892e-15 3.68936e-14 2.83722e-14 0 0 2.00964e-14 -3.09664e-14 8.02177e-14 -1.80692e-14 0 0 1.83418e-14 -3.47487e-14 6.97895e-14 8.65662e-15 0 0 -4.14103e-15 -5.22747e-14 7.65969e-14 2.58658e-14 0 0 -1.87435e-14 -3.76356e-14 5.41094e-14 1.9973e-14 0 0 2.66116e-14 -5.34673e-14 6.02081e-14 -3.6486e-15 0 0 4.15509e-14 -3.9612e-14 6.23479e-14 -3.95919e-14 0 0 1.59551e-14 5.4967e-14 -1.33911e-14 -3.19212e-14 0 0 2.76148e-14 4.69604e-14 -2.89139e-14 6.47315e-15 0 0 6.42556e-15 -9.88691e-15 5.76259e-14 1.51805e-14 0 0 -4.36037e-14 4.88079e-14 -3.39869e-15 6.77563e-14 0 0 -2.26785e-14 6.05447e-14 -7.07338e-15 2.34282e-14 0 0 -2.51971e-14 5.38625e-14 6.51836e-14 -3.16037e-14 0 0 -3.45331e-14 9.84014e-14 -1.77619e-14 4.3347e-14 0 0 2.61007e-14 6.18471e-14 -4.69215e-14 2.91724e-14 0 0 -3.32211e-15 6.4681e-14 -2.43528e-14 1.28146e-14 0 0 -6.11327e-14 5.62487e-14 4.68616e-14 -2.37748e-14 0 0 -3.03861e-14 -2.06765e-16 8.38983e-14 -4.27055e-14 0 0 2.02244e-14 -4.37708e-15 5.28956e-14 -5.70697e-15 0 0 1.97142e-14 4.11175e-14 8.36785e-15 3.92856e-16 0 0 6.41507e-14 -2.83435e-14 4.24387e-14 -4.40129e-14 0 0 8.50761e-14 -5.00346e-14 3.09524e-14 -5.54444e-14 0 0 5.16821e-14 7.62894e-15 -1.50836e-14 -2.38373e-14 0 0 4.68627e-14 1.32228e-14 5.73548e-15 -1.65688e-14 0 0 6.82724e-14 1.35969e-14 -9.27005e-15 8.76914e-15 0 0 8.22024e-14 4.25026e-15 -1.10015e-14 3.27609e-14 0 0 9.18728e-14 -9.947e-15 4.39326e-14 2.43768e-16 0 0 6.60004e-14 3.94546e-14 4.18664e-14 9.99266e-15 0 0 3.66812e-14 7.65921e-14 -1.70861e-14 8.35686e-14 0 0 4.31365e-14 6.80637e-14 -6.31829e-14 1.31525e-13 0 0 3.65113e-14 8.34503e-14 -4.06376e-14 7.54789e-14 0 0 3.20691e-14 5.84674e-14 2.23203e-14 8.59797e-15 0 0 2.06329e-14 1.86369e-14 8.54969e-14 -1.45566e-14 0 0 2.86484e-14 1.2783e-14 1.37429e-13 -8.24495e-14 0 0 1.86703e-14 7.78436e-14 6.99105e-14 -9.0589e-14 0 0 -2.69335e-15 8.08927e-14 2.28505e-14 -8.34563e-14 0 0 7.23512e-15 3.20676e-14 4.21441e-14 -1.04376e-13 0 0 2.7235e-14 3.95871e-14 4.40492e-15 -5.77287e-14 0 0 3.39458e-14 4.82726e-14 -2.2877e-14 2.15432e-16 0 0 1.64718e-14 4.78893e-14 -4.97855e-15 1.14345e-14 0 0 2.44791e-14 2.22895e-14 2.14278e-14 -1.48e-14 0 0 5.20445e-14 2.13442e-15 -6.98897e-16 -1.56374e-14 0 0 2.9658e-14 3.54807e-14 -4.48321e-14 3.59419e-14 0 0 2.91302e-14 -1.44862e-16 1.44927e-16 8.13193e-14 0 0 4.43175e-14 -2.33079e-14 7.6719e-15 9.98956e-14 0 0 2.58898e-14 2.74767e-14 -2.84617e-14 8.40757e-14 0 0 1.87608e-14 3.89658e-14 -2.4881e-14 7.2539e-14 0
				</DataArray>
				<DataArray Name="VitesseY" type="Float32" format="ascii">