<?xml version="1.0"?>
<VTKFile type="PolyData">
	<PolyData>
		<Piece NumberOfPoints="1206" NumberOfPolys="1000">
			<Points>
				<DataArray type="Float32" NumberOfComponents="3" format="ascii">
 0 0 0 0.02 0 0 0.04 0 0 0.06 0 0 0.08 0 0 0.1 0 0 0 0.005 0 0.02 0.005 0 0.04 0.005 0 0.06 0.005 0 0.08 0.005 0 0.1 0.005 0 0 0.01 0 0.02 0.01 0 0.04 0.01 0 0.06 0.01 0 0.08 0.01 0 0.1 0.01 0 0 0.015 0 0.02 0.015 0 0.04 0.015 0 0.06 0.015 0 0.08 0.015 0 0.1 0.015 0 0 0.02 0 0.02 0.02 0 0.04 0.02 0 0.06 0.02 0 0.08 0.02 0 0.1 0.02 0 0 0.025 0 0.02 0.025 0 0.04 0.025 0 0.06 0.025 0 0.08 0.025 0 0.1 0.025 0 0 0.03 0 0.02 0.03 0 0.04 0.03 0 0.06 0.03 0 0.08 0.03 0 0.1 0.03 0 0 0.035 0 0.02 0.035 0 0.04 0.035 0 0.06 0.035 0 0.08 0.035 0 0.1 0.035 0 0 0.04 0 0.02 0.04 0 0.04 0.04 0 0.06 0.04 0 0.08 0.04 0 0.1 0.04 0 0 0.045 0 0.02 0.045 0 0.04 0.045 0 0.06 0.045 0 0.08 0.045 0 0.1 0.045 0 0 0.05 0 0.02 0.05 0 0.04 0.05 0 0.06 0.05 0 0.08 0.05 0 0.1 0.05 0 0 0.055 0 0.02 0.055 0 0.04 0.055 0 0.06 0.055 0 0.08 0.055 0 0.1 0.055 0 0 0.06 0 0.02 0.06 0 0.04 0.06 0 0.06 0.06 0 0.08 0.06 0 0.1 0.06 0 0 0.065 0 0.02 0.065 0 0.04 0.065 0 0.06 0.065 0 0.08 0.065 0 0.1 0.065 0 0 0.07 0 0.02 0.07 0 0.04 0.07 0 0.06 0.07 0 0.08 0.07 0 0.1 0.07 0 0 0.075 0 0.02 0.075 0 0.04 0.075 0 0.06 0.075 0 0.08 0.075 0 0.1 0.075 0 0 0.08 0 0.02 0.08 0 0.04 0.08 0 0.06 0.08 0 0.08 0.08 0 0.1 0.08 0 0 0.085 0 0.02 0.085 0 0.04 0.085 0 0.06 0.085 0 0.08 0.085 0 0.1 0.085 0 0 0.09 0 0.02 0.09 0 0.04 0.09 0 0.06 0.09 0 0.08 0.09 0 0.1 0.09 0 0 0.095 0 0.02 0.095 0 0.04 0.095 0 0.06 0.095 0 0.08 0.095 0 0.1 0.095 0 0 0.1 0 0.02 0.1 0 0.04 0.1 0 0.06 0.1 0 0.08 0.1 0 0.1 0.1 0 0 0.105 0 0.02 0.105 0 0.04 0.105 0 0.06 0.105 0 0.08 0.105 0 0.1 0.105 0 0 0.11 0 0.02 0.11 0 0.04 0.11 0 0.06 0.11 0 0.08 0.11 0 0.1 0.11 0 0 0.115 0 0.02 0.115 0 0.04 0.115 0 0.06 0.115 0 0.08 0.115 0 0.1 0.115 0 0 0.12 0 0.02 0.12 0 0.04 0.12 0 0.06 0.12 0 0.08 0.12 0 0.1 0.12 0 0 0.125 0 0.02 0.125 0 0.04 0.125 0 0.06 0.125 0 0.08 0.125 0 0.1 0.125 0 0 0.13 0 0.02 0.13 0 0.04 0.13 0 0.06 0.13 0 0.08 0.13 0 0.1 0.13 0 0 0.135 0 0.02 0.135 0 0.04 0.135 0 0.06 0.135 0 0.08 0.135 0 0.1 0.135 0 0 0.14 0 0.02 0.14 0 0.04 0.14 0 0.06 0.14 0 0.08 0.14 0 0.1 0.14 0 0 0.145 0 0.02 0.145 0 0.04 0.145 0 0.06 0.145 0 0.08 0.145 0 0.1 0.145 0 0 0.15 0 0.02 0.15 0 0.04 0.15 0 0.06 0.15 0 0.08 0.15 0 0.1 0.15 0 0 0.155 0 0.02 0.155 0 0.04 0.155 0 0.06 0.155 0 0.08 0.155 0 0.1 0.155 0 0 0.16 0 0.02 0.16 0 0.04 0.16 0 0.06 0.16 0 0.08 0.16 0 0.1 0.16 0 0 0.165 0 0.02 0.165 0 0.04 0.165 0 0.06 0.165 0 0.08 0.165 0 0.1 0.165 0 0 0.17 0 0.02 0.17 0 0.04 0.17 0 0.06 0.17 0 0.08 0.17 0 0.1 0.17 0 0 0.175 0 0.02 0.175 0 0.04 0.175 0 0.06 0.175 0 0.08 0.175 0 0.1 0.175 0 0 0.18 0 0.02 0.18 0 0.04 0.18 0 0.06 0.18 0 0.08 0.18 0 0.1 0.18 0 0 0.185 0 0.02 0.185 0 0.04 0.185 0 0.06 0.185 0 0.08 0.185 0 0.1 0.185 0 0 0.19 0 0.02 0.19 0 0.04 0.19 0 0.06 0.19 0 0.08 0.19 0 0.1 0.19 0 0 0.195 0 0.02 0.195 0 0.04 0.195 0 0.06 0.195 0 0.08 0.195 0 0.1 0.195 0 0 0.2 0 0.02 0.2 0 0.04 0.2 0 0.06 0.2 0 0.08 0.2 0 0.1 0.2 0 0 0.205 0 0.02 0.205 0 0.04 0.205 0 0.06 0.205 0 0.08 0.205 0 0.1 0.205 0 0 0.21 0 0.02 0.21 0 0.04 0.21 0 0.06 0.21 0 0.08 0.21 0 0.1 0.21 0 0 0.215 0 0.02 0.215 0 0.04 0.215 0 0.06 0.215 0 0.08 0.215 0 0.1 0.215 0 0 0.22 0 0.02 0.22 0 0.04 0.22 0 0.06 0.22 0 0.08 0.22 0 0.1 0.22 0 0 0.225 0 0.02 0.225 0 0.04 0.225 0 0.06 0.225 0 0.08 0.225 0 0.1 0.225 0 0 0.23 0 0.02 0.23 0 0.04 0.23 0 0.06 0.23 0 0.08 0.23 0 0.1 0.23 0 0 0.235 0 0.02 0.235 0 0.04 0.235 0 0.06 0.235 0 0.08 0.235 0 0.1 0.235 0 0 0.24 0 0.02 0.24 0 0.04 0.24 0 0.06 0.24 0 0.08 0.24 0 0.1 0.24 0 0 0.245 0 0.02 0.245 0 0.04 0.245 0 0.06 0.245 0 0.08 0.245 0 0.1 0.245 0 0 0.25 0 0.02 0.25 0 0.04 0.25 0 0.06 0.25 0 0.08 0.25 0 0.1 0.25 0 0 0.255 0 0.02 0.255 0 0.04 0.255 0 0.06 0.255 0 0.08 0.255 0 0.1 0.255 0 0 0.26 0 0.02 0.26 0 0.04 0.26 0 0.06 0.26 0 0.08 0.26 0 0.1 0.26 0 0 0.265 0 0.02 0.265 0 0.04 0.265 0 0.06 0.265 0 0.08 0.265 0 0.1 0.265 0 0 0.27 0 0.02 0.27 0 0.04 0.27 0 0.06 0.27 0 0.08 0.27 0 0.1 0.27 0 0 0.275 0 0.02 0.275 0 0.04 0.275 0 0.06 0.275 0 0.08 0.275 0 0.1 0.275 0 0 0.28 0 0.02 0.28 0 0.04 0.28 0 0.06 0.28 0 0.08 0.28 0 0.1 0.28 0 0 0.285 0 0.02 0.285 0 0.04 0.285 0 0.06 0.285 0 0.08 0.285 0 0.1 0.285 0 0 0.29 0 0.02 0.29 0 0.04 0.29 0 0.06 0.29 0 0.08 0.29 0 0.1 0.29 0 0 0.295 0 0.02 0.295 0 0.04 0.295 0 0.06 0.295 0 0.08 0.295 0 0.1 0.295 0 0 0.300001 0 0.02 0.300001 0 0.04 0.300001 0 0.06 0.300001 0 0.08 0.300001 0 0.1 0.300001 0 0 0.305002 0 0.02 0.305002 0 0.04 0.305002 0 0.06 0.305002 0 0.08 0.305002 0 0.1 0.305002 0 0 0.310006 0 0.02 0.310006 0 0.04 0.310006 0 0.06 0.310006 0 0.08 0.310006 0 0.1 0.310006 0 0 0.315017 0 0.02 0.315017 0 0.04 0.315017 0 0.06 0.315017 0 0.08 0.315017 0 0.1 0.315017 0 0 0.320043 0 0.02 0.320043 0 0.04 0.320043 0 0.06 0.320043 0 0.08 0.320043 0 0.1 0.320043 0 0 0.325099 0 0.02 0.325099 0 0.04 0.325099 0 0.06 0.325099 0 0.08 0.325099 0 0.1 0.325099 0 0 0.330204 0 0.02 0.330204 0 0.04 0.330204 0 0.06 0.330204 0 0.08 0.330204 0 0.1 0.330204 0 0 0.335382 0 0.02 0.335382 0 0.04 0.335382 0 0.06 0.335382 0 0.08 0.335382 0 0.1 0.335382 0 0 0.340654 0 0.02 0.340654 0 0.04 0.340654 0 0.06 0.340654 0 0.08 0.340654 0 0.1 0.340654 0 0 0.346039 0 0.02 0.346039 0 0.04 0.346039 0 0.06 0.346039 0 0.08 0.346039 0 0.1 0.346039 0 0 0.351553 0 0.02 0.351553 0 0.04 0.351553 0 0.06 0.351553 0 0.08 0.351553 0 0.1 0.351553 0 0 0.35721 0 0.02 0.35721 0 0.04 0.35721 0 0.06 0.35721 0 0.08 0.35721 0 0.1 0.35721 0 0 0.36302 0 0.02 0.36302 0 0.04 0.36302 0 0.06 0.36302 0 0.08 0.36302 0 0.1 0.36302 0 0 0.368997 0 0.02 0.368997 0 0.04 0.368997 0 0.06 0.368997 0 0.08 0.368997 0 0.1 0.368997 0 0 0.375153 0 0.02 0.375153 0 0.04 0.375153 0 0.06 0.375153 0 0.08 0.375153 0 0.1 0.375153 0 0 0.381501 0 0.02 0.381501 0 0.04 0.381501 0 0.06 0.381501 0 0.08 0.381501 0 0.1 0.381501 0 0 0.388057 0 0.02 0.388057 0 0.04 0.388057 0 0.06 0.388057 0 0.08 0.388057 0 0.1 0.388057 0 0 0.394835 0 0.02 0.394835 0 0.04 0.394835 0 0.06 0.394835 0 0.08 0.394835 0 0.1 0.394835 0 0 0.401855 0 0.02 0.401855 0 0.04 0.401855 0 0.06 0.401855 0 0.08 0.401855 0 0.1 0.401855 0 0 0.409136 0 0.02 0.409136 0 0.04 0.409136 0 0.06 0.409136 0 0.08 0.409136 0 0.1 0.409136 0 0 0.416701 0 0.02 0.416701 0 0.04 0.416701 0 0.06 0.416701 0 0.08 0.416701 0 0.1 0.416701 0 0 0.424575 0 0.02 0.424575 0 0.04 0.424575 0 0.06 0.424575 0 0.08 0.424575 0 0.1 0.424575 0 0 0.432787 0 0.02 0.432787 0 0.04 0.432787 0 0.06 0.432787 0 0.08 0.432787 0 0.1 0.432787 0 0 0.441369 0 0.02 0.441369 0 0.04 0.441369 0 0.06 0.441369 0 0.08 0.441369 0 0.1 0.441369 0 0 0.450358 0 0.02 0.450358 0 0.04 0.450358 0 0.06 0.450358 0 0.08 0.450358 0 0.1 0.450358 0 0 0.459796 0 0.02 0.459796 0 0.04 0.459796 0 0.06 0.459796 0 0.08 0.459796 0 0.1 0.459796 0 0 0.469728 0 0.02 0.469728 0 0.04 0.469728 0 0.06 0.469728 0 0.08 0.469728 0 0.1 0.469728 0 0 0.480202 0 0.02 0.480202 0 0.04 0.480202 0 0.06 0.480202 0 0.08 0.480202 0 0.1 0.480202 0 0 0.491256 0 0.02 0.491256 0 0.04 0.491256 0 0.06 0.491256 0 0.08 0.491256 0 0.1 0.491256 0 0 0.502893 0 0.02 0.502893 0 0.04 0.502893 0 0.06 0.502893 0 0.08 0.502893 0 0.1 0.502893 0 0 0.514986 0 0.02 0.514986 0 0.04 0.514986 0 0.06 0.514986 0 0.08 0.514986 0 0.1 0.514986 0 0 0.527148 0 0.02 0.527148 0 0.04 0.527148 0 0.06 0.527148 0 0.08 0.527148 0 0.1 0.527148 0 0 0.539189 0 0.02 0.539189 0 0.04 0.539189 0 0.06 0.539189 0 0.08 0.539189 0 0.1 0.539189 0 0 0.551109 0 0.02 0.551109 0 0.04 0.551109 0 0.06 0.551109 0 0.08 0.551109 0 0.1 0.551109 0 0 0.562936 0 0.02 0.562936 0 0.04 0.562936 0 0.06 0.562936 0 0.08 0.562936 0 0.1 0.562936 0 0 0.574706 0 0.02 0.574706 0 0.04 0.574706 0 0.06 0.574706 0 0.08 0.574706 0 0.1 0.574706 0 0 0.586451 0 0.02 0.586451 0 0.04 0.586451 0 0.06 0.586451 0 0.08 0.586451 0 0.1 0.586451 0 0 0.598185 0 0.02 0.598185 0 0.04 0.598185 0 0.06 0.598185 0 0.08 0.598185 0 0.1 0.598185 0 0 0.609916 0 0.02 0.609916 0 0.04 0.609916 0 0.06 0.609916 0 0.08 0.609916 0 0.1 0.609916 0 0 0.621647 0 0.02 0.621647 0 0.04 0.621647 0 0.06 0.621647 0 0.08 0.621647 0 0.1 0.621647 0 0 0.633391 0 0.02 0.633391 0 0.04 0.633391 0 0.06 0.633391 0 0.08 0.633391 0 0.1 0.633391 0 0 0.635999 0 0.02 0.635999 0 0.04 0.635999 0 0.06 0.635999 0 0.08 0.635999 0 0.1 0.635999 0 0 0.638534 0 0.02 0.638534 0 0.04 0.638534 0 0.06 0.638534 0 0.08 0.638534 0 0.1 0.638534 0 0 0.641023 0 0.02 0.641023 0 0.04 0.641023 0 0.06 0.641023 0 0.08 0.641023 0 0.1 0.641023 0 0 0.643482 0 0.02 0.643482 0 0.04 0.643482 0 0.06 0.643482 0 0.08 0.643482 0 0.1 0.643482 0 0 0.645919 0 0.02 0.645919 0 0.04 0.645919 0 0.06 0.645919 0 0.08 0.645919 0 0.1 0.645919 0 0 0.64834 0 0.02 0.64834 0 0.04 0.64834 0 0.06 0.64834 0 0.08 0.64834 0 0.1 0.64834 0 0 0.65075 0 0.02 0.65075 0 0.04 0.65075 0 0.06 0.65075 0 0.08 0.65075 0 0.1 0.65075 0 0 0.653153 0 0.02 0.653153 0 0.04 0.653153 0 0.06 0.653153 0 0.08 0.653153 0 0.1 0.653153 0 0 0.655554 0 0.02 0.655554 0 0.04 0.655554 0 0.06 0.655554 0 0.08 0.655554 0 0.1 0.655554 0 0 0.657957 0 0.02 0.657957 0 0.04 0.657957 0 0.06 0.657957 0 0.08 0.657957 0 0.1 0.657957 0 0 0.660362 0 0.02 0.660362 0 0.04 0.660362 0 0.06 0.660362 0 0.08 0.660362 0 0.1 0.660362 0 0 0.662768 0 0.02 0.662768 0 0.04 0.662768 0 0.06 0.662768 0 0.08 0.662768 0 0.1 0.662768 0 0 0.665172 0 0.02 0.665172 0 0.04 0.665172 0 0.06 0.665172 0 0.08 0.665172 0 0.1 0.665172 0 0 0.66757 0 0.02 0.66757 0 0.04 0.66757 0 0.06 0.66757 0 0.08 0.66757 0 0.1 0.66757 0 0 0.669961 0 0.02 0.669961 0 0.04 0.669961 0 0.06 0.669961 0 0.08 0.669961 0 0.1 0.669961 0 0 0.672346 0 0.02 0.672346 0 0.04 0.672346 0 0.06 0.672346 0 0.08 0.672346 0 0.1 0.672346 0 0 0.674728 0 0.02 0.674728 0 0.04 0.674728 0 0.06 0.674728 0 0.08 0.674728 0 0.1 0.674728 0 0 0.677106 0 0.02 0.677106 0 0.04 0.677106 0 0.06 0.677106 0 0.08 0.677106 0 0.1 0.677106 0 0 0.679482 0 0.02 0.679482 0 0.04 0.679482 0 0.06 0.679482 0 0.08 0.679482 0 0.1 0.679482 0 0 0.681857 0 0.02 0.681857 0 0.04 0.681857 0 0.06 0.681857 0 0.08 0.681857 0 0.1 0.68
[...]
			<PointData Scalars="VitesseX">
				<DataArray Name="VitesseX" type="Float32" format="ascii">
 0 -1.23397e-15 -1.58175e-15 -6.10097e-15 -5.86791e-15 0 0 -1.12506e-15 -1.78291e-15 -5.99949e-15 -5.74225e-15 0 0 -5.4754e-16 -2.58534e-15 -4.9535e-15 -6.56656e-15 0 0 5.43901e-16 -4.71252e-15 -1.74697e-15 -9.036e-15 0 0 1.0584e-16 -4.21417e-15 -8.01839e-16 -9.86005e-15 0 0 -1.0684e-15 -1.44097e-15 -1.21987e-15 -9.20924e-15 0 0 -4.28113e-16 -2.63545e-16 -5.82135e-16 -8.40796e-15 0 0 1.33979e-15 -1.90353e-15 4.16857e-15 -8.38551e-15 0 0 2.69961e-15 -3.43652e-15 8.21035e-15 -6.23186e-15 0 0 4.18661e-15 -1.69191e-15 9.00396e-15 -3.38924e-15 0 0 6.25233e-15 4.29255e-16 1.18022e-14 -3.57791e-15 0 0 5.74695e-15 4.69196e-15 1.12725e-14 -2.57362e-15 0 0 4.56614e-15 6.88173e-15 1.17959e-14 -2.75448e-15 0 0 4.43364e-15 7.31451e-15 1.13028e-14 -2.22938e-15 0 0 7.17657e-15 7.53122e-15 8.73006e-15 -2.49914e-16 0 0 9.45233e-15 5.7554e-15 9.51558e-15 -5.02195e-16 0 0 8.73184e-15 7.52901e-15 7.85335e-15 -1.71486e-16 0 0 7.31289e-15 8.84203e-15 5.10807e-15 1.49831e-16 0 0 7.7587e-15 3.99077e-15 4.48432e-15 -4.01566e-16 0 0 7.29082e-15 1.90999e-15 2.68861e-15 2.82705e-15 0 0 4.04147e-15 4.07451e-15 -9.68082e-16 1.02141e-14 0 0 5.8341e-15 3.71833e-15 -4.08446e-15 1.30246e-14 0 0 4.45392e-15 4.36386e-15 -1.21661e-15 6.15984e-15 0 0 2.56617e-16 5.56062e-15 4.74604e-15 -3.23366e-15 0 0 -2.60441e-15 3.80266e-15 8.19496e-15 -4.09276e-15 0 0 -7.70282e-15 9.28789e-15 2.79997e-15 6.90974e-15 0 0 -2.06508e-15 7.09845e-15 1.80807e-15 1.12014e-14 0 0 2.1861e-15 5.58675e-15 5.79305e-16 1.22963e-14 0 0 -4.13992e-16 9.08458e-15 2.1253e-17 1.10541e-14 0 0 2.05572e-15 1.21656e-15 8.42578e-15 8.79443e-15 0 0 2.63531e-15 4.03374e-15 4.52207e-15 1.4972e-14 0 0 5.23916e-16 5.4287e-15 5.86988e-15 1.41398e-14 0 0 -4.88162e-18 6.69927e-15 7.95029e-15 8.37207e-15 0 0 6.30188e-15 9.65661e-15 8.41493e-15 -1.48783e-15 0 0 1.07368e-14 6.41094e-15 1.28054e-14 -2.17732e-15 0 0 8.14982e-15 9.12593e-15 5.16604e-15 1.43121e-14 0 0 4.83203e-15 1.10605e-14 5.50428e-15 2.22289e-14 0 0 2.5393e-15 1.0928e-14 1.38079e-14 2.42527e-14 0 0 1.31558e-15 1.167e-14 1.90359e-14 2.47902e-14 0 0 -1.46706e-15 1.648e-14 1.56687e-14 2.61217e-14 0 0 3.45698e-15 1.29458e-14 1.34893e-14 3.25112e-14 0 0 5.47321e-15 9.84699e-15 1.27861e-14 3.78163e-14 0 0 1.13113e-15 1.16317e-14 1.11844e-14 2.66234e-14 0 0 1.32093e-15 1.02684e-14 8.65565e-15 2.73615e-14 0 0 6.91655e-15 2.0269e-15 1.7549e-14 2.89722e-14 0 0 1.17676e-14 -8.30682e-15 3.11567e-14 1.21938e-14 0 0 9.59396e-15 2.42152e-15 2.63448e-14 9.42123e-15 0 0 1.23374e-14 1.70255e-14 1.93111e-14 1.02225e-14 0 0 1.43162e-14 3.31552e-14 2.57644e-14 1.21238e-14 0 0 2.00184e-14 4.98155e-14 4.66771e-14 9.87069e-15 0 0 3.74769e-14 7.02398e-14 5.19744e-14 9.424e-15 0 0 5.20494e-14 8.11199e-14 5.20681e-14 1.58706e-14 0 0 4.3048e-14 9.46599e-14 5.63546e-14 1.86438e-14 0 0 5.34664e-14 9.41612e-14 6.38878e-14 2.4293e-14 0 0 7.47076e-14 7.76472e-14 8.06447e-14 2.56301e-14 0 0 6.3015e-14 8.14119e-14 7.92656e-14 4.11603e-14 0 0 4.70226e-14 7.90163e-14 8.34039e-14 4.7325e-14 0 0 3.6476e-14 7.26115e-14 8.13598e-14 4.72254e-14 0 0 4.18368e-14 5.85606e-14 7.47452e-14 5.23338e-14 0 0 3.4593e-14 6.36538e-14 6.13217e-14 6.19349e-14 0 0 1.94448e-14 6.19347e-14 5.18687e-14 6.26036e-14 0 0 1.74377e-14 4.8227e-14 5.82519e-14 3.97455e-14 0 0 2.77353e-14 3.8052e-14 5.87666e-14 2.77898e-14 0 0 2.46403e-14 2.0136e-14 5.69585e-14 3.26267e-14 0 0 4.04391e-15 2.45244e-14 4.62722e-14 2.27101e-14 0 0 2.53022e-14 8.15919e-15 4.96629e-14 6.18292e-15 0 0 2.45266e-14 9.68619e-15 4.02182e-14 2.94971e-15 0 0 1.61275e-14 4.11824e-14 1.60637e-15 1.11796e-15 0 0 2.31918e-14 3.09579e-14 5.22186e-15 -5.42639e-15 0 0 2.89721e-14 1.08224e-14 2.17754e-14 4.77917e-16 0 0 3.75998e-14 1.13631e-14 -4.66736e-15 1.85131e-14 0 0 3.23749e-14 2.32127e-14 -2.28765e-14 2.27922e-14 0 0 4.63219e-14 1.07868e-14 -1.24248e-14 1.49073e-14 0 0 4.53627e-14 -8.78843e-16 1.38213e-14 -1.25879e-14 0 0 3.57004e-14 3.41876e-15 3.07831e-14 -2.93834e-14 0 0 3.59069e-14 8.5429e-16 4.10062e-14 -3.58775e-14 0 0 5.1345e-14 -1.10993e-14 2.8194e-14 -3.95846e-14 0 0 2.88593e-14 2.11928e-14 2.78068e-16 -2.73746e-14 0 0 1.28366e-14 1.95721e-14 3.70498e-14 -1.94141e-14 0 0 1.96513e-14 7.35594e-15 2.66276e-14 3.41707e-15 0 0 7.98404e-15 2.84297e-14 -2.04689e-14 1.73885e-14 0 0 -4.4169e-15 1.04072e-14 1.57507e-14 -2.1118e-14 0 0 -1.62752e-14 3.99836e-15 3.41875e-14 -1.54318e-14 0 0 -1.75933e-14 1.80285e-14 3.3974e-14 -2.2279e-14 0 0 1.6109e-14 3.36526e-14 3.8998e-15 -2.45067e-14 0 0 1.38267e-14 1.52435e-14 4.42457e-15 -3.64699e-15 0 0 -3.88774e-15 -2.19193e-14 2.98571e-14 1.26153e-14 0 0 9.9282e-15 -5.06934e-15 5.16294e-16 8.44637e-15 0 0 -1.13237e-14 6.24819e-15 -1.3484e-15 -4.00199e-15 0 0 -1.50822e-14 -4.10173e-15 1.85735e-14 6.6299e-15 0 0 -9.76283e-15 1.37894e-14 -2.50288e-15 1.75164e-14 0 0 -5.29859e-15 1.129e-14 -1.1664e-14 1.04872e-14 0 0 6.20446e-15 3.816e-15 1.22208e-14 -4.04544e-15 0 0 1.2254e-14 1.6234e-14 2.88072e-14 1.36528e-14 0 0 2.79108e-14 3.81901e-14 5.94589e-14 3.21758e-14 0 0 4.59117e-14 6.51533e-14 8.6484e-14 4.16816e-14 0 0 5.43254e-14 9.0038e-14 8.48263e-14 5.10976e-14 0 0 5.21097e-14 8.86822e-14 7.6604e-14 5.99188e-14 0 0 5.46206e-14 7.6023e-14 8.41744e-14 5.2952e-14 0 0 5.6141e-14 7.83916e-14 8.90993e-14 4.59539e-14 0 0 6.22196e-14 9.72304e-14 1.0124e-13 6.14014e-14 0 0 1.27843e-13 1.79388e-13 1.46347e-13 7.11368e-14 0 0 1.45693e-13 1.43631e-13 2.06432e-13 2.76489e-15 0 0 1.33604e-13 1.45056e-13 1.99526e-13 4.87358e-14 0 0 1.35294e-13 1.70027e-13 1.61446e-13 6.66946e-14 0 0 1.38499e-13 1.82712e-13 1.6288e-13 6.26278e-14 0 0 1.15584e-13 1.90808e-13 1.7274e-13 1.03619e-13 0 0 1.10116e-13 1.75981e-13 1.87181e-13 9.22358e-14 0 0 8.5096e-14 9.81818e-14 1.71513e-13 4.87984e-14 0 0 3.29676e-14 5.11497e-14 5.64231e-14 -4.64553e-16 0 0 -3.13992e-14 -4.86079e-14 -2.32904e-14 -7.25542e-14 0 0 -8.35174e-14 -1.75391e-13 -7.55297e-14 -1.17932e-13 0 0 -1.18945e-13 -2.02104e-13 -1.54916e-13 -1.42513e-13 0 0 -1.11651e-13 -2.35586e-13 -1.68423e-13 -1.19516e-13 0 0 -8.39525e-14 -2.47348e-13 -1.67887e-13 -8.8212e-14 0 0 -7.91414e-14 -2.26951e-13 -1.48524e-13 -8.80851e-14 0 0 -4.35543e-14 -2.46936e-13 -6.88417e-14 -1.26135e-13 0 0 -2.41221e-14 -2.20584e-13 -4.56215e-14 -1.02845e-13 0 0 -2.45394e-14 -1.62798e-13 -5.70415e-14 -2.64231e-14 0 0 1.66973e-14 -1.61767e-13 -3.67793e-14 -1.7558e-14 0 0 2.00115e-14 -1.30838e-13 5.19307e-15 7.43627e-15 0 0 -6.82101e-16 -6.30904e-14 1.16916e-14 -4.1179e-16 0 0 2.07635e-14 -2.38318e-14 2.74008e-14 1.41853e-14 0 0 1.3153e-14 -7.61543e-15 7.38441e-14 4.14283e-14 0 0 -1.2049e-14 2.01236e-14 1.01913e-13 1.9201e-14 0 0 -3.50354e-15 3.1947e-14 1.23265e-13 8.32911e-14 0 0 9.62184e-15 6.23825e-14 7.59779e-14 1.67894e-13 0 0 1.26796e-14 1.12823e-13 2.56928e-14 1.81236e-13 0 0 -5.76049e-15 1.33761e-13 2.98275e-14 1.80372e-13 0 0 -5.88584e-15 1.4418e-13 3.88404e-14 1.95804e-13 0 0 -2.36335e-14 1.65681e-13 1.24445e-14 1.86289e-13 0 0 -4.09289e-14 2.12814e-13 3.84737e-17 1.7485e-13 0 0 1.73768e-14 1.41463e-13 6.77627e-14 1.39093e-13 0 0 8.58496e-14 8.90761e-15 2.42492e-13 3.19314e-14 0 0 1.12502e-13 -4.98811e-15 2.91205e-13 5.02776e-16 0 0 7.54844e-14 8.40712e-14 1.91957e-13 1.67843e-14 0 0 2.44585e-14 2.31209e-13 6.33506e-14 7.11115e-14 0 0 4.39866e-14 2.88953e-13 -3.55082e-14 1.64294e-13 0 0 1.27808e-13 2.24128e-13 1.70872e-14 1.99132e-13 0 0 1.53349e-13 1.6051e-13 1.5746e-13 1.78137e-13 0 0 9.11077e-14 2.07422e-13 2.1046e-13 1.8074e-13 0 0 8.03469e-14 3.09495e-13 1.31056e-13 1.74173e-13 0 0 5.84646e-14 4.2695e-13 7.55196e-14 1.00244e-13 0 0 3.04357e-14 4.0575e-13 1.92232e-13 9.11022e-15 0 0 1.64493e-13 1.35942e-13 4.04413e-13 -9.88852e-14 0 0 2.18071e-13 5.85888e-14 3.67271e-13 -7.55556e-14 0 0 1.3564e-13 1.44761e-13 2.38646e-13 1.27128e-13 0 0 1.11728e-13 1.64333e-13 2.7097e-13 1.44558e-13 0 0 1.10698e-13 1.99472e-13 2.93667e-13 -3.08661e-14 0 0 1.0662e-13 2.05399e-13 2.30096e-13 -2.92016e-16 0 0 1.08571e-13 2.16728e-13 1.19964e-13 1.77764e-13 0 0 9.49978e-14 1.85012e-13 1.23939e-13 1.25509e-13 0 0 7.47538e-14 1.59363e-13 1.77352e-13 3.237e-14 0 0 7.86045e-14 1.72713e-13 2.17338e-13 3.08193e-14 0 0 8.22499e-14 1.41358e-13 2.06817e-13 7.55466e-14 0 0 8.75636e-14 1.73572e-13 1.61609e-13 1.31026e-13 0 0 8.35489e-14 1.90144e-13 1.92905e-13 7.13192e-14 0 0 9.51404e-14 1.71349e-13 2.29097e-13 6.58884e-14 0 0 1.03652e-13 1.74157e-13 2.30015e-13 1.11555e-13 0 0 9.0209e-14 1.83931e-13 2.27962e-13 1.0359e-13 0 0 8.17626e-14 2.20267e-13 2.23378e-13 8.14096e-14 0 0 8.38703e-14 2.34116e-13 2.35036e-13 9.67297e-14 0 0 9.33266e-14 2.35925e-13 2.37641e-13 1.15104e-13 0 0 1.0293e-13 2.36618e-13 2.26411e-13 1.2758e-13 0 0 1.01078e-13 2.48666e-13 2.26915e-13 1.32872e-13 0 0 9.21992e-14 2.75925e-13 2.23084e-13 1.45843e-13 0 0 9.22853e-14 2.58873e-13 2.38662e-13 1.59e-13 0 0 9.27973e-14 2.522e-13 2.64794e-13 1.15755e-13 0 0 1.09859e-13 2.32117e-13 3.00159e-13 8.41682e-14 0 0 1.18371e-13 2.14324e-13 2.77188e-13 1.26879e-13 0 0 1.15906e-13 2.12424e-13 2.71601e-13 1.27367e-13 0 0 1.14822e-13 1.93332e-13 2.7491e-13 9.79447e-14 0 0 1.08122e-13 2.15059e-13 2.15365e-13 1.56644e-13 0 0 1.06558e-13 2.23264e-13 1.79593e-13 1.64168e-13 0 0 1.13238e-13 1.60117e-13 1.95002e-13 8.77646e-14 0 0 1.13336e-13 1.37401e-13 1.97817e-13 4.5034e-14 0 0 1.11799e-13 1.07087e-13 1.96945e-13 2.67606e-14 0 0 9.25062e-14 6.95968e-14 2.02328e-13 9.51869e-15 0 0 7.18904e-14 7.04872e-14 1.62325e-13 -2.58152e-15 0 0 6.98462e-14 6.16304e-14 1.0153e-13 2.67149e-14 0 0 3.19336e-14 1.13005e-13 2.51508e-14 1.11846e-13 0 0 3.6955e-14 8.0002e-14 6.23138e-14 1.02859e-13 0 0 7.45471e-14 7.37946e-15 1.08835e-13 5.73415e-14 0 0 5.62636e-14 2.78161e-14 6.53406e-14 8.72478e-14 0 0 2.81389e-14 3.34322e-14 9.3737e-14 6.75091e-14 0 0 -3.81516e-15 3.8103e-14 1.13806e-13 7.46278e-14 0 0 -3.19177e-14 6.47294e-14 9.30461e-14 9.68582e-14 0 0 -1.42571e-14 6.94909e-14 1.0459e-13 6.22542e-14 0 0 9.48391e-15 5.61342e-14 8.56434e-14 7.09881e-14 0 0 6.39538e-15 7.55708e-14 2.96367e-14 9.87322e-14 0 0 2.84413e-15 9.99915e-14 2.56578e-14 8.1333e-14 0 0 4.53418e-15 1.17427e-13 3.43413e-14 6.41038e-14 0 0 5.60286e-16 1.31675e-13 3.25892e-14 7.64711e-14 0 0 9.59798e-15 1.24976e-13 3.38581e-14 9.74169e-14 0 0 4.32355e-14 7.57904e-14 6.29082e-14 8.76009e-14 0 0 7.18387e-14 3.41956e-14 3.8991e-14 1.41794e-13 0 0 2.87212e-14 6.36037e-14 3.97673e-14 1.53372e-13 0 0 -2.14211e-14 8.41428e-14 9.66102e-14 9.83988e-14 0 0 3.48497e-15 6.78674e-14 1.16248e-13 5.05481e-14 0 0 3.90876e-14 8.10689e-14 1.06252e-13 2.132e-14 0 0 4.93868e-14 1.07917e-13 6.92631e-14 4.74196e-14 0
				</DataArray>
				<DataArray Name="VitesseY" type="Float32" format="ascii">