<?xml version="1.0"?>
<VTKFile type="PolyData">
	<PolyData>
		<Piece NumberOfPoints="1206" NumberOfPolys="1000">
			<Points>
				<DataArray type="Float32" NumberOfComponents="3" format="ascii">
 0 0 0 0.02 0 0 0.04 0 0 0.06 0 0 0.08 0 0 0.1 0 0 0 0.005 0 0.02 0.005 0 0.04 0.005 0 0.06 0.005 0 0.08 0.005 0 0.1 0.005 0 0 0.01 0 0.02 0.01 0 0.04 0.01 0 0.06 0.01 0 0.08 0.01 0 0.1 0.01 0 0 0.015 0 0.02 0.015 0 0.04 0.015 0 0.06 0.015 0 0.08 0.015 0 0.1 0.015 0 0 0.02 0 0.02 0.02 0 0.04 0.02 0 0.06 0.02 0 0.08 0.02 0 0.1 0.02 0 0 0.025 0 0.02 0.025 0 0.04 0.025 0 0.06 0.025 0 0.08 0.025 0 0.1 0.025 0 0 0.03 0 0.02 0.03 0 0.04 0.03 0 0.06 0.03 0 0.08 0.03 0 0.1 0.03 0 0 0.035 0 0.02 0.035 0 0.04 0.035 0 0.06 0.035 0 0.08 0.035 0 0.1 0.035 0 0 0.04 0 0.02 0.04 0 0.04 0.04 0 0.06 0.04 0 0.08 0.04 0 0.1 0.04 0 0 0.045 0 0.02 0.045 0 0.04 0.045 0 0.06 0.045 0 0.08 0.045 0 0.1 0.045 0 0 0.05 0 0.02 0.05 0 0.04 0.05 0 0.06 0.05 0 0.08 0.05 0 0.1 0.05 0 0 0.055 0 0.02 0.055 0 0.04 0.055 0 0.06 0.055 0 0.08 0.055 0 0.1 0.055 0 0 0.06 0 0.02 0.06 0 0.04 0.06 0 0.06 0.06 0 0.08 0.06 0 0.1 0.06 0 0 0.065 0 0.02 0.065 0 0.04 0.065 0 0.06 0.065 0 0.08 0.065 0 0.1 0.065 0 0 0.07 0 0.02 0.07 0 0.04 0.07 0 0.06 0.07 0 0.08 0.07 0 0.1 0.07 0 0 0.075 0 0.02 0.075 0 0.04 0.075 0 0.06 0.075 0 0.08 0.075 0 0.1 0.075 0 0 0.08 0 0.02 0.08 0 0.04 0.08 0 0.06 0.08 0 0.08 0.08 0 0.1 0.08 0 0 0.085 0 0.02 0.085 0 0.04 0.085 0 0.06 0.085 0 0.08 0.085 0 0.1 0.085 0 0 0.09 0 0.02 0.09 0 0.04 0.09 0 0.06 0.09 0 0.08 0.09 0 0.1 0.09 0 0 0.095 0 0.02 0.095 0 0.04 0.095 0 0.06 0.095 0 0.08 0.095 0 0.1 0.095 0 0 0.1 0 0.02 0.1 0 0.04 0.1 0 0.06 0.1 0 0.08 0.1 0 0.1 0.1 0 0 0.105 0 0.02 0.105 0 0.04 0.105 0 0.06 0.105 0 0.08 0.105 0 0.1 0.105 0 0 0.11 0 0.02 0.11 0 0.04 0.11 0 0.06 0.11 0 0.08 0.11 0 0.1 0.11 0 0 0.115 0 0.02 0.115 0 0.04 0.115 0 0.06 0.115 0 0.08 0.115 0 0.1 0.115 0 0 0.12 0 0.02 0.12 0 0.04 0.12 0 0.06 0.12 0 0.08 0.12 0 0.1 0.12 0 0 0.125 0 0.02 0.125 0 0.04 0.125 0 0.06 0.125 0 0.08 0.125 0 0.1 0.125 0 0 0.13 0 0.02 0.13 0 0.04 0.13 0 0.06 0.13 0 0.08 0.13 0 0.1 0.13 0 0 0.135 0 0.02 0.135 0 0.04 0.135 0 0.06 0.135 0 0.08 0.135 0 0.1 0.135 0 0 0.14 0 0.02 0.14 0 0.04 0.14 0 0.06 0.14 0 0.08 0.14 0 0.1 0.14 0 0 0.145 0 0.02 0.145 0 0.04 0.145 0 0.06 0.145 0 0.08 0.145 0 0.1 0.145 0 0 0.15 0 0.02 0.15 0 0.04 0.15 0 0.06 0.15 0 0.08 0.15 0 0.1 0.15 0 0 0.155 0 0.02 0.155 0 0.04 0.155 0 0.06 0.155 0 0.08 0.155 0 0.1 0.155 0 0 0.16 0 0.02 0.16 0 0.04 0.16 0 0.06 0.16 0 0.08 0.16 0 0.1 0.16 0 0 0.165 0 0.02 0.165 0 0.04 0.165 0 0.06 0.165 0 0.08 0.165 0 0.1 0.165 0 0 0.17 0 0.02 0.17 0 0.04 0.17 0 0.06 0.17 0 0.08 0.17 0 0.1 0.17 0 0 0.175 0 0.02 0.175 0 0.04 0.175 0 0.06 0.175 0 0.08 0.175 0 0.1 0.175 0 0 0.18 0 0.02 0.18 0 0.04 0.18 0 0.06 0.18 0 0.08 0.18 0 0.1 0.18 0 0 0.185 0 0.02 0.185 0 0.04 0.185 0 0.06 0.185 0 0.08 0.185 0 0.1 0.185 0 0 0.19 0 0.02 0.19 0 0.04 0.19 0 0.06 0.19 0 0.08 0.19 0 0.1 0.19 0 0 0.195 0 0.02 0.195 0 0.04 0.195 0 0.06 0.195 0 0.08 0.195 0 0.1 0.195 0 0 0.2 0 0.02 0.2 0 0.04 0.2 0 0.06 0.2 0 0.08 0.2 0 0.1 0.2 0 0 0.205 0 0.02 0.205 0 0.04 0.205 0 0.06 0.205 0 0.08 0.205 0 0.1 0.205 0 0 0.21 0 0.02 0.21 0 0.04 0.21 0 0.06 0.21 0 0.08 0.21 0 0.1 0.21 0 0 0.215 0 0.02 0.215 0 0.04 0.215 0 0.06 0.215 0 0.08 0.215 0 0.1 0.215 0 0 0.22 0 0.02 0.22 0 0.04 0.22 0 0.06 0.22 0 0.08 0.22 0 0.1 0.22 0 0 0.225 0 0.02 0.225 0 0.04 0.225 0 0.06 0.225 0 0.08 0.225 0 0.1 0.225 0 0 0.23 0 0.02 0.23 0 0.04 0.23 0 0.06 0.23 0 0.08 0.23 0 0.1 0.23 0 0 0.235 0 0.02 0.235 0 0.04 0.235 0 0.06 0.235 0 0.08 0.235 0 0.1 0.235 0 0 0.24 0 0.02 0.24 0 0.04 0.24 0 0.06 0.24 0 0.08 0.24 0 0.1 0.24 0 0 0.245 0 0.02 0.245 0 0.04 0.245 0 0.06 0.245 0 0.08 0.245 0 0.1 0.245 0 0 0.25 0 0.02 0.25 0 0.04 0.25 0 0.06 0.25 0 0.08 0.25 0 0.1 0.25 0 0 0.255 0 0.02 0.255 0 0.04 0.255 0 0.06 0.255 0 0.08 0.255 0 0.1 0.255 0 0 0.26 0 0.02 0.26 0 0.04 0.26 0 0.06 0.26 0 0.08 0.26 0 0.1 0.26 0 0 0.265 0 0.02 0.265 0 0.04 0.265 0 0.06 0.265 0 0.08 0.265 0 0.1 0.265 0 0 0.27 0 0.02 0.27 0 0.04 0.27 0 0.06 0.27 0 0.08 0.27 0 0.1 0.27 0 0 0.275 0 0.02 0.275 0 0.04 0.275 0 0.06 0.275 0 0.08 0.275 0 0.1 0.275 0 0 0.28 0 0.02 0.28 0 0.04 0.28 0 0.06 0.28 0 0.08 0.28 0 0.1 0.28 0 0 0.285 0 0.02 0.285 0 0.04 0.285 0 0.06 0.285 0 0.08 0.285 0 0.1 0.285 0 0 0.29 0 0.02 0.29 0 0.04 0.29 0 0.06 0.29 0 0.08 0.29 0 0.1 0.29 0 0 0.295 0 0.02 0.295 0 0.04 0.295 0 0.06 0.295 0 0.08 0.295 0 0.1 0.295 0 0 0.3 0 0.02 0.3 0 0.04 0.3 0 0.06 0.3 0 0.08 0.3 0 0.1 0.3 0 0 0.305 0 0.02 0.305 0 0.04 0.305 0 0.06 0.305 0 0.08 0.305 0 0.1 0.305 0 0 0.31 0 0.02 0.31 0 0.04 0.31 0 0.06 0.31 0 0.08 0.31 0 0.1 0.31 0 0 0.315 0 0.02 0.315 0 0.04 0.315 0 0.06 0.315 0 0.08 0.315 0 0.1 0.315 0 0 0.32 0 0.02 0.32 0 0.04 0.32 0 0.06 0.32 0 0.08 0.32 0 0.1 0.32 0 0 0.325 0 0.02 0.325 0 0.04 0.325 0 0.06 0.325 0 0.08 0.325 0 0.1 0.325 0 0 0.33 0 0.02 0.33 0 0.04 0.33 0 0.06 0.33 0 0.08 0.33 0 0.1 0.33 0 0 0.335 0 0.02 0.335 0 0.04 0.335 0 0.06 0.335 0 0.08 0.335 0 0.1 0.335 0 0 0.34 0 0.02 0.34 0 0.04 0.34 0 0.06 0.34 0 0.08 0.34 0 0.1 0.34 0 0 0.345 0 0.02 0.345 0 0.04 0.345 0 0.06 0.345 0 0.08 0.345 0 0.1 0.345 0 0 0.35 0 0.02 0.35 0 0.04 0.35 0 0.06 0.35 0 0.08 0.35 0 0.1 0.35 0 0 0.355 0 0.02 0.355 0 0.04 0.355 0 0.06 0.355 0 0.08 0.355 0 0.1 0.355 0 0 0.36 0 0.02 0.36 0 0.04 0.36 0 0.06 0.36 0 0.08 0.36 0 0.1 0.36 0 0 0.365 0 0.02 0.365 0 0.04 0.365 0 0.06 0.365 0 0.08 0.365 0 0.1 0.365 0 0 0.37 0 0.02 0.37 0 0.04 0.37 0 0.06 0.37 0 0.08 0.37 0 0.1 0.37 0 0 0.375 0 0.02 0.375 0 0.04 0.375 0 0.06 0.375 0 0.08 0.375 0 0.1 0.375 0 0 0.380001 0 0.02 0.380001 0 0.04 0.380001 0 0.06 0.380001 0 0.08 0.380001 0 0.1 0.380001 0 0 0.385004 0 0.02 0.385004 0 0.04 0.385004 0 0.06 0.385004 0 0.08 0.385004 0 0.1 0.385004 0 0 0.390016 0 0.02 0.390016 0 0.04 0.390016 0 0.06 0.390016 0 0.08 0.390016 0 0.1 0.390016 0 0 0.39505 0 0.02 0.39505 0 0.04 0.39505 0 0.06 0.39505 0 0.08 0.39505 0 0.1 0.39505 0 0 0.400136 0 0.02 0.400136 0 0.04 0.400136 0 0.06 0.400136 0 0.08 0.400136 0 0.1 0.400136 0 0 0.405317 0 0.02 0.405317 0 0.04 0.405317 0 0.06 0.405317 0 0.08 0.405317 0 0.1 0.405317 0 0 0.410644 0 0.02 0.410644 0 0.04 0.410644 0 0.06 0.410644 0 0.08 0.410644 0 0.1 0.410644 0 0 0.416167 0 0.02 0.416167 0 0.04 0.416167 0 0.06 0.416167 0 0.08 0.416167 0 0.1 0.416167 0 0 0.421929 0 0.02 0.421929 0 0.04 0.421929 0 0.06 0.421929 0 0.08 0.421929 0 0.1 0.421929 0 0 0.427971 0 0.02 0.427971 0 0.04 0.427971 0 0.06 0.427971 0 0.08 0.427971 0 0.1 0.427971 0 0 0.434333 0 0.02 0.434333 0 0.04 0.434333 0 0.06 0.434333 0 0.08 0.434333 0 0.1 0.434333 0 0 0.44106 0 0.02 0.44106 0 0.04 0.44106 0 0.06 0.44106 0 0.08 0.44106 0 0.1 0.44106 0 0 0.448204 0 0.02 0.448204 0 0.04 0.448204 0 0.06 0.448204 0 0.08 0.448204 0 0.1 0.448204 0 0 0.45583 0 0.02 0.45583 0 0.04 0.45583 0 0.06 0.45583 0 0.08 0.45583 0 0.1 0.45583 0 0 0.464013 0 0.02 0.464013 0 0.04 0.464013 0 0.06 0.464013 0 0.08 0.464013 0 0.1 0.464013 0 0 0.472846 0 0.02 0.472846 0 0.04 0.472846 0 0.06 0.472846 0 0.08 0.472846 0 0.1 0.472846 0 0 0.48244 0 0.02 0.48244 0 0.04 0.48244 0 0.06 0.48244 0 0.08 0.48244 0 0.1 0.48244 0 0 0.492916 0 0.02 0.492916 0 0.04 0.492916 0 0.06 0.492916 0 0.08 0.492916 0 0.1 0.492916 0 0 0.504357 0 0.02 0.504357 0 0.04 0.504357 0 0.06 0.504357 0 0.08 0.504357 0 0.1 0.504357 0 0 0.516582 0 0.02 0.516582 0 0.04 0.516582 0 0.06 0.516582 0 0.08 0.516582 0 0.1 0.516582 0 0 0.528844 0 0.02 0.528844 0 0.04 0.528844 0 0.06 0.528844 0 0.08 0.528844 0 0.1 0.528844 0 0 0.540877 0 0.02 0.540877 0 0.04 0.540877 0 0.06 0.540877 0 0.08 0.540877 0 0.1 0.540877 0 0 0.55274 0 0.02 0.55274 0 0.04 0.55274 0 0.06 0.55274 0 0.08 0.55274 0 0.1 0.55274 0 0 0.564527 0 0.02 0.564527 0 0.04 0.564527 0 0.06 0.564527 0 0.08 0.564527 0 0.1 0.564527 0 0 0.576305 0 0.02 0.576305 0 0.04 0.576305 0 0.06 0.576305 0 0.08 0.576305 0 0.1 0.576305 0 0 0.578919 0 0.02 0.578919 0 0.04 0.578919 0 0.06 0.578919 0 0.08 0.578919 0 0.1 0.578919 0 0 0.581461 0 0.02 0.581461 0 0.04 0.581461 0 0.06 0.581461 0 0.08 0.581461 0 0.1 0.581461 0 0 0.583956 0 0.02 0.583956 0 0.04 0.583956 0 0.06 0.583956 0 0.08 0.583956 0 0.1 0.583956 0 0 0.58642 0 0.02 0.58642 0 0.04 0.58642 0 0.06 0.58642 0 0.08 0.58642 0 0.1 0.58642 0 0 0.588862 0 0.02 0.588862 0 0.04 0.588862 0 0.06 0.588862 0 0.08 0.588862 0 0.1 0.588862 0 0 0.591289 0 0.02 0.591289 0 0.04 0.591289 0 0.06 0.591289 0 0.08 0.591289 0 0.1 0.591289 0 0 0.593706 0 0.02 0.593706 0 0.04 0.593706 0 0.06 0.593706 0 0.08 0.593706 0 0.1 0.593706 0 0 0.596122 0 0.02 0.596122 0 0.04 0.596122 0 0.06 0.596122 0 0.08 0.596122 0 0.1 0.596122 0 0 0.598538 0 0.02 0.598538 0 0.04 0.598538 0 0.06 0.598538 0 0.08 0.598538 0 0.1 0.598538 0 0 0.600941 0 0.02 0.600941 0 0.04 0.600941 0 0.06 0.600941 0 0.08 0.600941 0 0.1 0.600941 0 0 0.603333 0 0.02 0.603333 0 0.04 0.603333 0 0.06 0.603333 0 0.08 0.603333 0 0.1 0.603333 0 0 0.60572 0 0.02 0.60572 0 0.04 0.60572 0 0.06 0.60572 0 0.08 0.60572 0 0.1 0.60572 0 0 0.608105 0 0.02 0.608105 0 0.04 0.608105 0 0.06 0.608105 0 0.08 0.608105 0 0.1 0.608105 0 0 0.610488 0 0.02 0.610488 0 0.04 0.610488 0 0.06 0.610488 0 0.08 0.610488 0 0.1 0.610488 0 0 0.612867 0 0.02 0.612867 0 0.04 0.612867 0 0.06 0.612867 0 0.08 0.612867 0 0.1 0.612867 0 0 0.615245 0 0.02 0.615245 0 0.04 0.615245 0 0.06 0.615245 0 0.08 0.615245 0 0.1 0.615245 0 0 0.617622 0 0.02 0.617622 0 0.04 0.617622 0 0.06 0.617622 0 0.08 0.617622 0 0.1 0.617622 0 0 0.619995 0 0.02 0.619995 0 0.04 0.619995 0 0.06 0.619995 0 0.08 0.619995 0 0.1 0.619995 0 0 0.622364 0 0.02 0.622364 0 0.04 0.622364 0 0.06 0.622364 0 0.08 0.622364 0 0.1 0.622364 0 0 0.62473 0 0.02 0.62473 0 0.04 0.62473 0 0.06 0.62473 0 0.08 0.62473 0 0.1 0.62473 0 0 0.6271 0 0.02 0.6271 0 0.04 0.6271 0 0.06 0.6271 0 0.08 0.6271 0 0.1 0.6271 0 0 0.629494 0 0.02 0.629494 0 0.04 0.629494 0 0.06 0.629494 0 0.08 0.629494 0 0.1 0.629494 0 0 0.631929 0 0.02 0.631929 0 0.04 0.631929 0 0.06 0.631929 0 0.08 0.631929 0 0.1 0.631929 0 0 0.634385 0 0.02 0.634385 0 0.04 0.634385 0 0.06 0.634385 0 0.08 0.634385 0 0.1 0.634385
[...]
			<PointData Scalars="VitesseX">
				<DataArray Name="VitesseX" type="Float32" format="ascii">
 0 -2.99437e-15 2.02323e-15 5.14757e-15 7.86189e-15 0 0 -2.59646e-15 1.45252e-15 5.60688e-15 7.16244e-15 0 0 -2.05658e-15 2.99726e-16 6.41912e-15 5.71245e-15 0 0 -1.73387e-15 -5.81453e-16 6.43687e-15 5.15497e-15 0 0 -8.49476e-16 -1.13902e-15 5.24667e-15 5.55775e-15 0 0 3.51105e-16 -8.54876e-16 3.62402e-15 5.54744e-15 0 0 1.89319e-15 -1.72686e-15 3.78262e-15 3.85946e-15 0 0 1.47053e-15 -1.19244e-15 4.49127e-15 1.46905e-15 0 0 -4.95466e-16 2.91197e-15 4.46631e-16 4.99029e-15 0 0 -5.4915e-16 3.97029e-15 -2.50388e-15 7.93026e-15 0 0 1.09977e-15 2.80941e-15 -3.70983e-15 8.79601e-15 0 0 2.60194e-15 6.90586e-16 -2.56902e-15 7.96303e-15 0 0 3.83886e-15 -2.93309e-15 5.21953e-16 6.88067e-15 0 0 1.36077e-15 1.24472e-15 -1.31565e-15 5.25699e-15 0 0 -3.02023e-16 4.22068e-15 -5.29351e-16 -6.88758e-16 0 0 3.8651e-15 -9.03137e-16 1.34374e-15 1.97769e-15 0 0 3.59805e-15 -2.49001e-16 -4.38203e-17 7.62582e-15 0 0 -2.58772e-15 5.48794e-15 3.09165e-15 6.08045e-15 0 0 -1.53943e-15 4.02774e-15 6.95188e-15 5.0615e-15 0 0 3.47359e-15 -2.77382e-15 1.01292e-14 4.24777e-15 0 0 1.51743e-15 -3.49892e-15 1.1879e-14 6.87679e-15 0 0 -1.12938e-15 -3.35722e-15 1.58731e-14 7.88641e-15 0 0 -5.05562e-15 9.4777e-16 1.41802e-14 6.67349e-15 0 0 -4.21493e-15 4.16999e-15 6.21702e-15 7.52752e-15 0 0 1.52305e-15 2.27389e-15 -1.24602e-15 1.08011e-14 0 0 -2.00293e-15 7.44124e-15 -7.83705e-15 1.52236e-14 0 0 -2.43047e-15 2.34243e-15 -3.39027e-15 1.07908e-14 0 0 5.29272e-15 -8.38546e-15 3.08036e-15 2.46928e-15 0 0 1.55838e-15 8.06447e-16 -3.31982e-15 2.65933e-15 0 0 -9.12926e-15 7.16333e-15 -4.03207e-15 4.02578e-15 0 0 -9.3729e-15 4.33604e-15 1.18157e-15 4.31369e-15 0 0 -4.56354e-15 3.28331e-15 4.98897e-15 9.47398e-15 0 0 -4.67566e-15 6.69579e-15 6.35419e-15 1.99725e-14 0 0 4.28838e-15 3.0352e-15 8.12514e-15 2.10202e-14 0 0 4.4424e-15 8.7294e-15 5.95845e-15 1.32317e-14 0 0 4.09587e-17 1.89487e-14 -6.63653e-15 1.44918e-14 0 0 8.32869e-15 1.29631e-14 -9.83072e-15 1.26266e-14 0 0 7.2795e-15 3.18444e-15 4.77243e-15 -3.82458e-15 0 0 9.46012e-16 -1.30694e-15 1.08532e-14 -3.66722e-15 0 0 4.02216e-15 -1.22174e-15 5.98309e-15 4.13111e-15 0 0 5.22162e-15 8.9437e-15 -3.33824e-15 6.59059e-15 0 0 9.80979e-16 1.65154e-14 -1.17724e-15 2.7247e-15 0 0 7.29762e-15 9.57058e-15 6.20826e-15 -5.77369e-15 0 0 1.01119e-14 6.62355e-15 1.20941e-15 -3.20655e-15 0 0 -7.06289e-16 1.03782e-14 1.01723e-14 -7.1372e-15 0 0 -1.05676e-15 6.31849e-15 1.71385e-14 -4.13632e-15 0 0 5.90304e-15 -4.02449e-15 1.68067e-14 -1.61375e-15 0 0 9.58587e-15 -1.00006e-14 2.50025e-14 -1.41535e-14 0 0 4.25979e-15 -3.16028e-16 2.03154e-14 -2.02432e-14 0 0 -2.00184e-15 1.1212e-15 1.97689e-14 -2.16724e-14 0 0 7.07802e-15 -1.39938e-14 2.1512e-14 -1.44016e-14 0 0 1.33009e-14 -1.22426e-14 4.8133e-15 3.68361e-15 0 0 1.19658e-14 -3.9525e-15 -1.36198e-15 6.52994e-15 0 0 6.64201e-15 1.18008e-15 6.76438e-15 -1.39226e-14 0 0 -1.64328e-14 1.55032e-14 1.30973e-14 -2.74417e-14 0 0 -2.86168e-14 3.32862e-14 -1.74283e-15 -2.01614e-14 0 0 -1.51291e-14 3.03379e-14 -1.41105e-14 -2.1779e-14 0 0 -1.39717e-14 2.11492e-14 -2.12557e-14 -6.82438e-16 0 0 1.83108e-15 -2.01856e-14 1.42707e-14 1.14651e-14 0 0 -5.90485e-15 -1.10621e-14 1.58138e-14 2.24256e-14 0 0 -1.92283e-14 1.18815e-14 -1.53808e-14 6.73925e-14 0 0 -1.37008e-14 4.29058e-15 -3.81626e-16 6.48118e-14 0 0 -1.22548e-14 1.92917e-14 1.51999e-14 2.5937e-14 0 0 -6.77689e-15 2.71066e-14 2.82973e-14 -8.76914e-15 0 0 -2.67082e-15 2.09163e-14 4.05738e-14 -1.95119e-14 0 0 1.65181e-14 1.28981e-14 3.09433e-14 -3.99755e-15 0 0 7.54751e-15 1.92539e-14 9.35357e-15 2.38832e-14 0 0 -1.14783e-14 1.7e-14 1.41406e-14 3.73366e-14 0 0 8.43052e-15 8.13493e-16 1.78908e-14 2.66319e-14 0 0 2.83237e-14 -2.68369e-14 1.19141e-14 1.75511e-14 0 0 1.4645e-14 -3.55502e-14 -5.41646e-15 3.03019e-15 0 0 -6.5027e-15 -2.65102e-14 -2.19977e-14 -8.41809e-16 0 0 -3.48874e-15 -2.35677e-14 -6.86942e-15 -9.71452e-15 0 0 -1.30049e-14 1.24854e-14 -1.77944e-14 -1.19421e-14 0 0 -1.47002e-14 1.98836e-14 -3.63136e-14 5.66753e-15 0 0 1.72139e-14 -1.52838e-14 -9.73146e-15 3.02561e-16 0 0 1.42738e-14 -4.51285e-15 -5.81685e-15 -2.65749e-15 0 0 -2.74055e-15 6.21903e-15 1.61368e-15 1.72338e-16 0 0 -2.36742e-14 1.65573e-14 5.06208e-16 -7.42521e-15 0 0 -1.17226e-14 -4.1793e-15 -1.95213e-14 -2.16036e-15 0 0 1.82348e-14 -4.83935e-14 1.02915e-14 -5.45725e-15 0 0 1.91948e-14 -4.34308e-14 1.11329e-14 -1.90693e-14 0 0 3.14024e-15 -1.5158e-14 -2.7698e-15 -2.26175e-14 0 0 -2.70903e-15 -1.5907e-14 8.33956e-15 -2.61283e-14 0 0 -7.34739e-15 -9.64317e-15 -3.67031e-15 -1.35422e-14 0 0 1.12572e-14 -2.5615e-14 -8.99542e-16 1.31041e-14 0 0 2.75234e-14 -3.82585e-14 1.22487e-14 1.31046e-14 0 0 -3.75679e-15 1.40036e-15 -1.52417e-14 -6.73262e-15 0 0 -7.21178e-15 -9.28846e-15 -1.30257e-14 -1.92355e-14 0 0 -2.06405e-14 -7.61704e-15 -1.96009e-14 -2.09007e-14 0 0 -1.17696e-14 -1.06824e-14 -9.60041e-15 -1.81777e-14 0 0 1.17125e-14 -1.64199e-14 3.71375e-14 -3.80597e-14 0 0 -1.89722e-14 2.35279e-14 1.02977e-14 -6.03143e-15 0 0 -1.87256e-15 2.21384e-14 1.39844e-15 2.95844e-14 0 0 3.51004e-14 6.54287e-14 5.52014e-14 2.96638e-14 0 0 1.32428e-13 2.50252e-13 2.40062e-13 1.51992e-13 0 0 3.12698e-13 5.29826e-13 5.18386e-13 3.40817e-13 0 0 3.68981e-13 6.16091e-13 6.08195e-13 3.6936e-13 0 0 1.72232e-13 2.8167e-13 3.04429e-13 1.74955e-13 0 0 -2.02591e-13 -3.2799e-13 -3.13305e-13 -1.91914e-13 0 0 -4.76593e-13 -7.7191e-13 -7.69449e-13 -4.54438e-13 0 0 -1.02465e-12 -1.57663e-12 -1.52179e-12 -1.00415e-12 0 0 -1.01109e-12 -1.60057e-12 -1.55613e-12 -1.02093e-12 0 0 -1.06699e-12 -1.68252e-12 -1.56369e-12 -1.08216e-12 0 0 -1.10743e-12 -1.75799e-12 -1.65906e-12 -1.07894e-12 0 0 -1.14968e-12 -1.8014e-12 -1.77278e-12 -1.08422e-12 0 0 -1.14575e-12 -1.8181e-12 -1.77115e-12 -1.08742e-12 0 0 -9.61228e-13 -1.56887e-12 -1.46556e-12 -9.19899e-13 0 0 -4.77748e-13 -7.79829e-13 -6.65133e-13 -4.55718e-13 0 0 1.50095e-13 1.70421e-13 3.31353e-13 9.34296e-14 0 0 6.94071e-13 1.04394e-12 1.21013e-12 6.14049e-13 0 0 1.07507e-12 1.67999e-12 1.78995e-12 1.00306e-12 0 0 1.24394e-12 1.95044e-12 2.01373e-12 1.15537e-12 0 0 1.25502e-12 2.01678e-12 2.00743e-12 1.16489e-12 0 0 1.18875e-12 1.96098e-12 1.91078e-12 1.17495e-12 0 0 1.1093e-12 1.83436e-12 1.80445e-12 1.15044e-12 0 0 1.0237e-12 1.75187e-12 1.67814e-12 1.08517e-12 0 0 9.65895e-13 1.6501e-12 1.5248e-12 1.06762e-12 0 0 9.27362e-13 1.56473e-12 1.40916e-12 1.12408e-12 0 0 9.03779e-13 1.48598e-12 1.38448e-12 1.11002e-12 0 0 8.80493e-13 1.4674e-12 1.39724e-12 1.01365e-12 0 0 8.82629e-13 1.44945e-12 1.39486e-12 1.00138e-12 0 0 9.11588e-13 1.41508e-12 1.4691e-12 9.68926e-13 0 0 8.97888e-13 1.45255e-12 1.52525e-12 9.34485e-13 0 0 8.98144e-13 1.45323e-12 1.52571e-12 9.19382e-13 0 0 8.8139e-13 1.42944e-12 1.60814e-12 8.03664e-13 0 0 9.11472e-13 1.42614e-12 1.63282e-12 8.51195e-13 0 0 8.27747e-13 1.40734e-12 1.40987e-12 8.38945e-13 0 0 7.56294e-13 1.3719e-12 1.31862e-12 7.86222e-13 0 0 6.9683e-13 1.1224e-12 1.11637e-12 7.77763e-13 0 0 5.64247e-13 9.35348e-13 8.99189e-13 6.48175e-13 0 0 4.09193e-13 6.87156e-13 7.07231e-13 4.42563e-13 0 0 2.51343e-13 4.36983e-13 4.38009e-13 2.84327e-13 0 0 1.24323e-13 2.5496e-13 2.22251e-13 1.67353e-13 0 0 4.63044e-14 1.16799e-13 1.1193e-13 9.61982e-14 0 0 3.36248e-15 4.51691e-14 4.06478e-14 5.14376e-14 0 0 -8.29909e-15 7.4219e-15 -1.78399e-15 3.38181e-14 0 0 -1.37451e-14 -1.87144e-14 1.07137e-14 2.96196e-14 0 0 -2.25255e-14 -2.61714e-14 2.28214e-14 3.21236e-14 0 0 -2.73392e-14 -4.00023e-14 4.31399e-14 1.90968e-14 0 0 -2.54685e-14 -4.86178e-14 5.25602e-14 5.78141e-15 0 0 -3.20897e-14 -2.25128e-14 3.41266e-14 9.77751e-15 0 0 -3.61519e-14 -2.76402e-14 4.23463e-14 2.77318e-14 0 0 -2.40144e-14 -2.30076e-14 2.27204e-14 3.73825e-14 0 0 -7.64582e-15 -1.42e-14 4.18442e-14 6.59751e-15 0 0 1.24599e-14 -4.01465e-14 9.07007e-14 -3.60769e-14 0 0 9.00379e-16 -1.97446e-14 8.26985e-14 -4.55235e-14 0 0 -1.05858e-14 1.74562e-15 6.67035e-14 4.83298e-15 0 0 7.31243e-15 -5.58932e-15 7.87537e-14 8.44865e-15 0 0 2.25818e-15 3.98214e-15 8.40315e-14 7.33758e-15 0 0 -5.02217e-15 1.41324e-14 6.75969e-14 4.05113e-14 0 0 1.67379e-14 2.19617e-15 5.17989e-14 6.4771e-14 0 0 2.4022e-14 -1.19033e-15 3.51711e-14 1.06316e-13 0 0 6.53969e-15 1.79729e-14 3.56359e-14 8.88295e-14 0 0 1.66768e-14 5.07063e-15 4.24582e-14 8.24532e-14 0 0 1.94983e-14 -1.85779e-14 2.4877e-14 1.01599e-13 0 0 7.13563e-16 -2.52836e-14 -7.65227e-15 9.05611e-14 0 0 -6.3937e-15 -1.86282e-14 -9.97269e-15 4.20781e-14 0 0 -6.49635e-15 1.32992e-15 5.78916e-15 -2.54847e-16 0 0 2.01409e-14 -3.0407e-16 -3.41803e-15 -1.06589e-14 0 0 2.73877e-14 -7.24449e-15 -3.11996e-14 7.54092e-15 0 0 1.97519e-14 -1.69308e-14 -1.63509e-14 1.46583e-14 0 0 3.09196e-14 9.12428e-15 -1.39099e-14 -1.01548e-14 0 0 4.11348e-14 3.94271e-14 -4.88521e-14 1.6219e-14 0 0 1.99434e-14 4.85953e-14 -4.39058e-14 4.76458e-14 0 0 2.49587e-14 1.27491e-14 2.47809e-14 -1.24711e-14 0 0 5.26404e-14 -7.00913e-15 7.38194e-14 -5.15801e-14 0 0 -5.88996e-15 8.61661e-14 5.30463e-14 -8.15513e-15 0 0 -2.18108e-14 8.67049e-14 7.40241e-14 -7.42449e-15 0 0 2.42262e-14 2.23944e-14 7.93644e-14 -3.11543e-14 0 0 3.56279e-14 -7.44364e-15 4.41436e-14 -1.20329e-14 0 0 2.87432e-14 -2.31173e-14 5.87473e-14 4.83737e-15 0 0 -4.35328e-15 2.19388e-14 6.32308e-14 -6.91653e-15 0 0 8.53884e-15 1.28012e-14 4.02059e-14 1.22245e-15 0 0 3.72571e-14 -2.39533e-14 -1.18456e-14 6.04154e-14 0 0 4.51247e-14 -3.33783e-14 -3.56775e-14 6.71077e-14 0 0 6.51749e-14 -5.88999e-14 7.80591e-15 3.14295e-14 0 0 4.05439e-14 -4.04022e-14 4.30571e-15 6.38097e-14 0 0 5.75273e-15 1.37172e-14 1.57007e-14 4.09058e-14 0 0 2.16709e-14 3.90533e-14 5.596e-14 -9.94235e-15 0 0 4.81998e-14 3.3165e-14 6.11627e-14 -5.03923e-14 0 0 4.60236e-14 3.39965e-14 2.22327e-14 -4.34576e-14 0 0 5.29304e-14 3.33976e-14 -1.6342e-14 -4.78337e-15 0 0 6.4898e-14 6.90396e-15 2.92506e-14 8.27756e-15 0 0 6.29353e-14 1.25303e-15 3.9247e-14 7.89685e-14 0 0 4.72208e-14 2.02919e-14 1.78646e-14 1.07743e-13 0 0 5.56087e-14 -5.36417e-16 9.27431e-14 -3.20276e-14 0 0 4.31698e-14 2.52575e-14 8.17191e-14 -9.53306e-14 0 0 7.4962e-15 6.88354e-14 -1.15528e-14 8.42788e-15 0 0 1.39075e-14 5.32063e-14 -2.57746e-14 5.19771e-14 0 0 3.62652e-14 3.40326e-14 -9.60019e-15 4.04079e-14 0 0 2.52054e-14 6.09775e-14 -6.64183e-14 7.87853e-14 0 0 4.63176e-14 1.72399e-14 -5.60807e-14 7.62238e-14 0 0 5.76033e-14 -2.4102e-14 2.19249e-14 3.07451e-14 0 0 2.67575e-14 1.22062e-14 2.46897e-14 4.02331e-14 0 0 1.51341e-14 2.16839e-14 5.99326e-14 3.21533e-14 0 0 1.23688e-14 2.64554e-14 7.80279e-14 4.44907e-15 0 0 3.90862e-14 -3.81066e-15 6.14638e-14 -2.3884e-14 0 0 3.93969e-14 -1.85733e-14 5.37712e-14 -2.76862e-14 0 0 3.59233e-14 1.1823e-14 1.82069e-15 2.30218e-14 0 0 4.8827e-14 2.65238e-14 -4.04548e-14 5.62395e-14 0
				</DataArray>
				<DataArray Name="VitesseY" type="Float32" format="ascii">