<?xml version="1.0"?>
<VTKFile type="PolyData">
	<PolyData>
		<Piece NumberOfPoints="1206" NumberOfPolys="1000">
			<Points>
				<DataArray type="Float32" NumberOfComponents="3" format="ascii">
 0 0 0 0.02 0 0 0.04 0 0 0.06 0 0 0.08 0 0 0.1 0 0 0 0.005 0 0.02 0.005 0 0.04 0.005 0 0.06 0.005 0 0.08 0.005 0 0.1 0.005 0 0 0.01 0 0.02 0.01 0 0.04 0.01 0 0.06 0.01 0 0.08 0.01 0 0.1 0.01 0 0 0.015 0 0.02 0.015 0 0.04 0.015 0 0.06 0.015 0 0.08 0.015 0 0.1 0.015 0 0 0.02 0 0.02 0.02 0 0.04 0.02 0 0.06 0.02 0 0.08 0.02 0 0.1 0.02 0 0 0.025 0 0.02 0.025 0 0.04 0.025 0 0.06 0.025 0 0.08 0.025 0 0.1 0.025 0 0 0.03 0 0.02 0.03 0 0.04 0.03 0 0.06 0.03 0 0.08 0.03 0 0.1 0.03 0 0 0.035 0 0.02 0.035 0 0.04 0.035 0 0.06 0.035 0 0.08 0.035 0 0.1 0.035 0 0 0.04 0 0.02 0.04 0 0.04 0.04 0 0.06 0.04 0 0.08 0.04 0 0.1 0.04 0 0 0.045 0 0.02 0.045 0 0.04 0.045 0 0.06 0.045 0 0.08 0.045 0 0.1 0.045 0 0 0.05 0 0.02 0.05 0 0.04 0.05 0 0.06 0.05 0 0.08 0.05 0 0.1 0.05 0 0 0.055 0 0.02 0.055 0 0.04 0.055 0 0.06 0.055 0 0.08 0.055 0 0.1 0.055 0 0 0.06 0 0.02 0.06 0 0.04 0.06 0 0.06 0.06 0 0.08 0.06 0 0.1 0.06 0 0 0.065 0 0.02 0.065 0 0.04 0.065 0 0.06 0.065 0 0.08 0.065 0 0.1 0.065 0 0 0.07 0 0.02 0.07 0 0.04 0.07 0 0.06 0.07 0 0.08 0.07 0 0.1 0.07 0 0 0.075 0 0.02 0.075 0 0.04 0.075 0 0.06 0.075 0 0.08 0.075 0 0.1 0.075 0 0 0.08 0 0.02 0.08 0 0.04 0.08 0 0.06 0.08 0 0.08 0.08 0 0.1 0.08 0 0 0.085 0 0.02 0.085 0 0.04 0.085 0 0.06 0.085 0 0.08 0.085 0 0.1 0.085 0 0 0.09 0 0.02 0.09 0 0.04 0.09 0 0.06 0.09 0 0.08 0.09 0 0.1 0.09 0 0 0.095 0 0.02 0.095 0 0.04 0.095 0 0.06 0.095 0 0.08 0.095 0 0.1 0.095 0 0 0.1 0 0.02 0.1 0 0.04 0.1 0 0.06 0.1 0 0.08 0.1 0 0.1 0.1 0 0 0.105 0 0.02 0.105 0 0.04 0.105 0 0.06 0.105 0 0.08 0.105 0 0.1 0.105 0 0 0.11 0 0.02 0.11 0 0.04 0.11 0 0.06 0.11 0 0.08 0.11 0 0.1 0.11 0 0 0.115 0 0.02 0.115 0 0.04 0.115 0 0.06 0.115 0 0.08 0.115 0 0.1 0.115 0 0 0.12 0 0.02 0.12 0 0.04 0.12 0 0.06 0.12 0 0.08 0.12 0 0.1 0.12 0 0 0.125 0 0.02 0.125 0 0.04 0.125 0 0.06 0.125 0 0.08 0.125 0 0.1 0.125 0 0 0.13 0 0.02 0.13 0 0.04 0.13 0 0.06 0.13 0 0.08 0.13 0 0.1 0.13 0 0 0.135 0 0.02 0.135 0 0.04 0.135 0 0.06 0.135 0 0.08 0.135 0 0.1 0.135 0 0 0.14 0 0.02 0.14 0 0.04 0.14 0 0.06 0.14 0 0.08 0.14 0 0.1 0.14 0 0 0.145 0 0.02 0.145 0 0.04 0.145 0 0.06 0.145 0 0.08 0.145 0 0.1 0.145 0 0 0.15 0 0.02 0.15 0 0.04 0.15 0 0.06 0.15 0 0.08 0.15 0 0.1 0.15 0 0 0.155 0 0.02 0.155 0 0.04 0.155 0 0.06 0.155 0 0.08 0.155 0 0.1 0.155 0 0 0.16 0 0.02 0.16 0 0.04 0.16 0 0.06 0.16 0 0.08 0.16 0 0.1 0.16 0 0 0.165 0 0.02 0.165 0 0.04 0.165 0 0.06 0.165 0 0.08 0.165 0 0.1 0.165 0 0 0.17 0 0.02 0.17 0 0.04 0.17 0 0.06 0.17 0 0.08 0.17 0 0.1 0.17 0 0 0.175 0 0.02 0.175 0 0.04 0.175 0 0.06 0.175 0 0.08 0.175 0 0.1 0.175 0 0 0.18 0 0.02 0.18 0 0.04 0.18 0 0.06 0.18 0 0.08 0.18 0 0.1 0.18 0 0 0.185 0 0.02 0.185 0 0.04 0.185 0 0.06 0.185 0 0.08 0.185 0 0.1 0.185 0 0 0.19 0 0.02 0.19 0 0.04 0.19 0 0.06 0.19 0 0.08 0.19 0 0.1 0.19 0 0 0.195 0 0.02 0.195 0 0.04 0.195 0 0.06 0.195 0 0.08 0.195 0 0.1 0.195 0 0 0.2 0 0.02 0.2 0 0.04 0.2 0 0.06 0.2 0 0.08 0.2 0 0.1 0.2 0 0 0.205 0 0.02 0.205 0 0.04 0.205 0 0.06 0.205 0 0.08 0.205 0 0.1 0.205 0 0 0.21 0 0.02 0.21 0 0.04 0.21 0 0.06 0.21 0 0.08 0.21 0 0.1 0.21 0 0 0.215 0 0.02 0.215 0 0.04 0.215 0 0.06 0.215 0 0.08 0.215 0 0.1 0.215 0 0 0.22 0 0.02 0.22 0 0.04 0.22 0 0.06 0.22 0 0.08 0.22 0 0.1 0.22 0 0 0.225 0 0.02 0.225 0 0.04 0.225 0 0.06 0.225 0 0.08 0.225 0 0.1 0.225 0 0 0.23 0 0.02 0.23 0 0.04 0.23 0 0.06 0.23 0 0.08 0.23 0 0.1 0.23 0 0 0.235 0 0.02 0.235 0 0.04 0.235 0 0.06 0.235 0 0.08 0.235 0 0.1 0.235 0 0 0.24 0 0.02 0.24 0 0.04 0.24 0 0.06 0.24 0 0.08 0.24 0 0.1 0.24 0 0 0.245 0 0.02 0.245 0 0.04 0.245 0 0.06 0.245 0 0.08 0.245 0 0.1 0.245 0 0 0.25 0 0.02 0.25 0 0.04 0.25 0 0.06 0.25 0 0.08 0.25 0 0.1 0.25 0 0 0.255 0 0.02 0.255 0 0.04 0.255 0 0.06 0.255 0 0.08 0.255 0 0.1 0.255 0 0 0.26 0 0.02 0.26 0 0.04 0.26 0 0.06 0.26 0 0.08 0.26 0 0.1 0.26 0 0 0.265 0 0.02 0.265 0 0.04 0.265 0 0.06 0.265 0 0.08 0.265 0 0.1 0.265 0 0 0.27 0 0.02 0.27 0 0.04 0.27 0 0.06 0.27 0 0.08 0.27 0 0.1 0.27 0 0 0.275 0 0.02 0.275 0 0.04 0.275 0 0.06 0.275 0 0.08 0.275 0 0.1 0.275 0 0 0.28 0 0.02 0.28 0 0.04 0.28 0 0.06 0.28 0 0.08 0.28 0 0.1 0.28 0 0 0.285 0 0.02 0.285 0 0.04 0.285 0 0.06 0.285 0 0.08 0.285 0 0.1 0.285 0 0 0.29 0 0.02 0.29 0 0.04 0.29 0 0.06 0.29 0 0.08 0.29 0 0.1 0.29 0 0 0.295 0 0.02 0.295 0 0.04 0.295 0 0.06 0.295 0 0.08 0.295 0 0.1 0.295 0 0 0.3 0 0.02 0.3 0 0.04 0.3 0 0.06 0.3 0 0.08 0.3 0 0.1 0.3 0 0 0.305 0 0.02 0.305 0 0.04 0.305 0 0.06 0.305 0 0.08 0.305 0 0.1 0.305 0 0 0.31 0 0.02 0.31 0 0.04 0.31 0 0.06 0.31 0 0.08 0.31 0 0.1 0.31 0 0 0.315 0 0.02 0.315 0 0.04 0.315 0 0.06 0.315 0 0.08 0.315 0 0.1 0.315 0 0 0.32 0 0.02 0.32 0 0.04 0.32 0 0.06 0.32 0 0.08 0.32 0 0.1 0.32 0 0 0.325 0 0.02 0.325 0 0.04 0.325 0 0.06 0.325 0 0.08 0.325 0 0.1 0.325 0 0 0.33 0 0.02 0.33 0 0.04 0.33 0 0.06 0.33 0 0.08 0.33 0 0.1 0.33 0 0 0.335 0 0.02 0.335 0 0.04 0.335 0 0.06 0.335 0 0.08 0.335 0 0.1 0.335 0 0 0.34 0 0.02 0.34 0 0.04 0.34 0 0.06 0.34 0 0.08 0.34 0 0.1 0.34 0 0 0.345 0 0.02 0.345 0 0.04 0.345 0 0.06 0.345 0 0.08 0.345 0 0.1 0.345 0 0 0.35 0 0.02 0.35 0 0.04 0.35 0 0.06 0.35 0 0.08 0.35 0 0.1 0.35 0 0 0.355 0 0.02 0.355 0 0.04 0.355 0 0.06 0.355 0 0.08 0.355 0 0.1 0.355 0 0 0.36 0 0.02 0.36 0 0.04 0.36 0 0.06 0.36 0 0.08 0.36 0 0.1 0.36 0 0 0.365001 0 0.02 0.365001 0 0.04 0.365001 0 0.06 0.365001 0 0.08 0.365001 0 0.1 0.365001 0 0 0.370002 0 0.02 0.370002 0 0.04 0.370002 0 0.06 0.370002 0 0.08 0.370002 0 0.1 0.370002 0 0 0.375009 0 0.02 0.375009 0 0.04 0.375009 0 0.06 0.375009 0 0.08 0.375009 0 0.1 0.375009 0 0 0.380029 0 0.02 0.380029 0 0.04 0.380029 0 0.06 0.380029 0 0.08 0.380029 0 0.1 0.380029 0 0 0.385082 0 0.02 0.385082 0 0.04 0.385082 0 0.06 0.385082 0 0.08 0.385082 0 0.1 0.385082 0 0 0.390198 0 0.02 0.390198 0 0.04 0.390198 0 0.06 0.390198 0 0.08 0.390198 0 0.1 0.390198 0 0 0.395418 0 0.02 0.395418 0 0.04 0.395418 0 0.06 0.395418 0 0.08 0.395418 0 0.1 0.395418 0 0 0.400787 0 0.02 0.400787 0 0.04 0.400787 0 0.06 0.400787 0 0.08 0.400787 0 0.1 0.400787 0 0 0.406343 0 0.02 0.406343 0 0.04 0.406343 0 0.06 0.406343 0 0.08 0.406343 0 0.1 0.406343 0 0 0.412119 0 0.02 0.412119 0 0.04 0.412119 0 0.06 0.412119 0 0.08 0.412119 0 0.1 0.412119 0 0 0.418146 0 0.02 0.418146 0 0.04 0.418146 0 0.06 0.418146 0 0.08 0.418146 0 0.1 0.418146 0 0 0.424455 0 0.02 0.424455 0 0.04 0.424455 0 0.06 0.424455 0 0.08 0.424455 0 0.1 0.424455 0 0 0.431083 0 0.02 0.431083 0 0.04 0.431083 0 0.06 0.431083 0 0.08 0.431083 0 0.1 0.431083 0 0 0.438068 0 0.02 0.438068 0 0.04 0.438068 0 0.06 0.438068 0 0.08 0.438068 0 0.1 0.438068 0 0 0.445458 0 0.02 0.445458 0 0.04 0.445458 0 0.06 0.445458 0 0.08 0.445458 0 0.1 0.445458 0 0 0.453308 0 0.02 0.453308 0 0.04 0.453308 0 0.06 0.453308 0 0.08 0.453308 0 0.1 0.453308 0 0 0.461684 0 0.02 0.461684 0 0.04 0.461684 0 0.06 0.461684 0 0.08 0.461684 0 0.1 0.461684 0 0 0.470665 0 0.02 0.470665 0 0.04 0.470665 0 0.06 0.470665 0 0.08 0.470665 0 0.1 0.470665 0 0 0.480345 0 0.02 0.480345 0 0.04 0.480345 0 0.06 0.480345 0 0.08 0.480345 0 0.1 0.480345 0 0 0.490823 0 0.02 0.490823 0 0.04 0.490823 0 0.06 0.490823 0 0.08 0.490823 0 0.1 0.490823 0 0 0.502169 0 0.02 0.502169 0 0.04 0.502169 0 0.06 0.502169 0 0.08 0.502169 0 0.1 0.502169 0 0 0.51428 0 0.02 0.51428 0 0.04 0.51428 0 0.06 0.51428 0 0.08 0.51428 0 0.1 0.51428 0 0 0.526557 0 0.02 0.526557 0 0.04 0.526557 0 0.06 0.526557 0 0.08 0.526557 0 0.1 0.526557 0 0 0.538632 0 0.02 0.538632 0 0.04 0.538632 0 0.06 0.538632 0 0.08 0.538632 0 0.1 0.538632 0 0 0.550535 0 0.02 0.550535 0 0.04 0.550535 0 0.06 0.550535 0 0.08 0.550535 0 0.1 0.550535 0 0 0.562339 0 0.02 0.562339 0 0.04 0.562339 0 0.06 0.562339 0 0.08 0.562339 0 0.1 0.562339 0 0 0.574105 0 0.02 0.574105 0 0.04 0.574105 0 0.06 0.574105 0 0.08 0.574105 0 0.1 0.574105 0 0 0.585872 0 0.02 0.585872 0 0.04 0.585872 0 0.06 0.585872 0 0.08 0.585872 0 0.1 0.585872 0 0 0.588484 0 0.02 0.588484 0 0.04 0.588484 0 0.06 0.588484 0 0.08 0.588484 0 0.1 0.588484 0 0 0.591023 0 0.02 0.591023 0 0.04 0.591023 0 0.06 0.591023 0 0.08 0.591023 0 0.1 0.591023 0 0 0.593516 0 0.02 0.593516 0 0.04 0.593516 0 0.06 0.593516 0 0.08 0.593516 0 0.1 0.593516 0 0 0.595979 0 0.02 0.595979 0 0.04 0.595979 0 0.06 0.595979 0 0.08 0.595979 0 0.1 0.595979 0 0 0.598421 0 0.02 0.598421 0 0.04 0.598421 0 0.06 0.598421 0 0.08 0.598421 0 0.1 0.598421 0 0 0.600849 0 0.02 0.600849 0 0.04 0.600849 0 0.06 0.600849 0 0.08 0.600849 0 0.1 0.600849 0 0 0.603267 0 0.02 0.603267 0 0.04 0.603267 0 0.06 0.603267 0 0.08 0.603267 0 0.1 0.603267 0 0 0.605684 0 0.02 0.605684 0 0.04 0.605684 0 0.06 0.605684 0 0.08 0.605684 0 0.1 0.605684 0 0 0.6081 0 0.02 0.6081 0 0.04 0.6081 0 0.06 0.6081 0 0.08 0.6081 0 0.1 0.6081 0 0 0.610501 0 0.02 0.610501 0 0.04 0.610501 0 0.06 0.610501 0 0.08 0.610501 0 0.1 0.610501 0 0 0.61289 0 0.02 0.61289 0 0.04 0.61289 0 0.06 0.61289 0 0.08 0.61289 0 0.1 0.61289 0 0 0.615273 0 0.02 0.615273 0 0.04 0.615273 0 0.06 0.615273 0 0.08 0.615273 0 0.1 0.615273 0 0 0.617653 0 0.02 0.617653 0 0.04 0.617653 0 0.06 0.617653 0 0.08 0.617653 0 0.1 0.617653 0 0 0.62003 0 0.02 0.62003 0 0.04 0.62003 0 0.06 0.62003 0 0.08 0.62003 0 0.1 0.62003 0 0 0.622404 0 0.02 0.622404 0 0.04 0.622404 0 0.06 0.622404 0 0.08 0.622404 0 0.1 0.622404 0 0 0.624776 0 0.02 0.624776 0 0.04 0.624776 0 0.06 0.624776 0 0.08 0.624776 0 0.1 0.624776 0 0 0.62715 0 0.02 0.62715 0 0.04 0.62715 0 0.06 0.62715 0 0.08 0.62715 0 0.1 0.62715 0 0 0.629521 0 0.02 0.629521 0 0.04 0.629521 0 0.06 0.629521 0 0.08 0.629521 0 0.1 0.629521 0 0 0.631891 0 0.02 0.631891 0 0.04 0.631891 0 0.06 0.631891 0 0.08 0.631891 0 0.1 0.631891 0 0 0.634258 0 0.02 0.634258 0 0.04 0.634258 0 0.06 0.634258 0 0.08 0.634258 0 0.1 0.634258 0 0 0.636624 0 0.02 0.636624 0 0.04 0.636624 0 0.06 0.636624 0 0.08 0.636624 0 0.1 0.636624 0 0 0.638993 0 0.02 0.638993 0 0.04 0.638993 0 0.06 0.638993 0 0.08 0.638993 0 0.1 0.638993 0 0 0.641365 0 0.02 0.641365 0 0.04 0.641365 0 0.06 0.641365 0 0.08 0.641365 0 0.1 0.641365 0 0 0.6
[...]
			<PointData Scalars="VitesseX">
				<DataArray Name="VitesseX" type="Float32" format="ascii">
 0 -2.6977e-15 2.35298e-15 3.28238e-15 1.07021e-14 0 0 -2.47165e-15 1.84111e-15 4.03138e-15 1.0085e-14 0 0 -2.04953e-15 1.58795e-15 4.44558e-15 9.10367e-15 0 0 -1.13338e-15 1.22962e-15 4.38801e-15 8.64014e-15 0 0 1.22299e-15 -1.43579e-15 5.5742e-15 6.80565e-15 0 0 1.70058e-15 -1.25056e-15 3.66888e-15 6.48706e-15 0 0 1.62944e-15 -4.0802e-16 2.657e-15 6.67102e-15 0 0 1.96507e-15 -3.02259e-16 3.34685e-15 3.56009e-15 0 0 -2.52967e-16 3.30544e-15 9.92918e-16 2.90823e-15 0 0 -1.16388e-15 5.15524e-15 -2.86222e-15 7.3953e-15 0 0 4.2347e-17 5.08682e-15 -6.43961e-15 1.04564e-14 0 0 2.53605e-15 2.17883e-15 -4.49299e-15 8.42721e-15 0 0 4.24404e-15 -1.14339e-15 2.08991e-16 3.4066e-15 0 0 6.80265e-16 1.90402e-15 2.41165e-16 3.51863e-15 0 0 -4.76967e-17 -1.88372e-15 5.60085e-15 4.84342e-15 0 0 1.15439e-15 -1.43301e-15 5.38007e-15 6.65521e-15 0 0 -1.69845e-15 6.85157e-15 2.16039e-15 5.06645e-15 0 0 -2.25806e-15 6.04835e-15 6.18367e-15 1.5571e-15 0 0 9.66239e-16 4.58098e-15 5.09618e-15 3.88581e-15 0 0 -8.0787e-16 1.008e-14 1.97611e-15 1.7484e-16 0 0 1.49287e-16 4.78385e-15 9.87359e-15 -7.5856e-15 0 0 3.35709e-15 -1.44275e-15 1.36473e-14 -7.48757e-15 0 0 1.22994e-15 3.51232e-15 2.91251e-15 3.34981e-15 0 0 1.50548e-15 3.01115e-15 2.99331e-16 9.16888e-15 0 0 5.29314e-16 2.09685e-15 8.40514e-15 3.33801e-15 0 0 -2.82012e-15 7.01952e-15 7.91579e-15 -2.47459e-15 0 0 -3.85528e-15 6.4849e-15 -2.22241e-15 2.79102e-15 0 0 3.61363e-15 -7.39191e-15 1.7286e-15 5.61822e-15 0 0 1.93787e-15 -4.79904e-15 6.81366e-15 3.78977e-15 0 0 -2.46395e-15 2.85743e-15 7.39478e-15 4.19241e-15 0 0 1.73351e-15 4.77152e-15 2.06047e-15 1.00288e-14 0 0 2.04221e-15 1.28859e-14 -5.0204e-15 1.19472e-14 0 0 3.4259e-15 1.58458e-14 -2.41194e-15 -4.07672e-16 0 0 6.78532e-15 1.19135e-14 -2.54358e-15 -4.16693e-15 0 0 1.33635e-14 1.41971e-16 -2.13735e-15 -2.40499e-15 0 0 1.20658e-14 -1.67965e-15 1.51556e-15 -3.07477e-16 0 0 3.59073e-15 8.22702e-15 6.0995e-17 6.97393e-15 0 0 1.58306e-15 1.17069e-14 -5.32316e-15 8.31613e-15 0 0 2.36373e-15 6.40068e-15 3.18582e-15 3.476e-15 0 0 2.58984e-15 4.71286e-15 1.26054e-14 4.00178e-15 0 0 -3.09116e-15 1.46907e-14 6.9735e-16 1.01682e-14 0 0 1.255e-15 7.22083e-15 -4.21509e-15 1.02084e-14 0 0 5.32438e-15 2.02814e-15 -1.61515e-15 3.71032e-15 0 0 -4.16421e-15 1.67863e-14 -4.7135e-15 2.57523e-15 0 0 -9.52696e-16 1.34221e-14 -4.9146e-15 8.13782e-15 0 0 2.36085e-15 6.49411e-15 -9.79684e-16 -4.18236e-15 0 0 7.66458e-15 1.56839e-15 3.49207e-15 -1.13986e-14 0 0 5.62034e-15 -2.65568e-15 2.00775e-14 -2.42646e-14 0 0 -9.87349e-15 -1.54942e-15 3.22904e-14 -3.72602e-14 0 0 -4.25349e-15 -8.93537e-15 2.48673e-14 -2.46596e-14 0 0 4.73313e-15 -1.58812e-16 2.21413e-14 -3.51517e-14 0 0 4.4605e-15 1.50663e-14 -4.33681e-15 -2.38627e-14 0 0 1.44122e-15 1.00035e-14 -1.72208e-14 2.6863e-15 0 0 6.52622e-15 -5.15463e-15 -5.30164e-15 1.1435e-14 0 0 -1.51391e-15 7.16631e-16 4.16123e-16 8.45108e-15 0 0 -1.75768e-14 1.72391e-14 -4.14376e-15 4.18096e-15 0 0 -1.02219e-14 7.88042e-15 6.36872e-15 7.58836e-15 0 0 1.45851e-15 -1.09304e-15 3.30825e-14 -1.11174e-14 0 0 9.2784e-15 -1.84521e-15 2.55122e-14 -5.61119e-15 0 0 5.88946e-15 1.04627e-14 8.76713e-15 2.10172e-14 0 0 1.12171e-14 1.36654e-14 2.27624e-14 1.47314e-14 0 0 1.36333e-14 2.04589e-14 2.76676e-14 2.47599e-15 0 0 9.46289e-15 2.3057e-14 1.50486e-14 9.91283e-15 0 0 1.45604e-14 1.84033e-14 6.47352e-15 1.60511e-14 0 0 1.62841e-14 1.78312e-14 1.47012e-14 -7.92585e-15 0 0 -1.11746e-14 1.61039e-14 2.4788e-14 -1.3769e-14 0 0 -1.5218e-14 1.43465e-14 1.03862e-14 5.58851e-15 0 0 1.0586e-14 -1.41072e-14 -8.19863e-15 1.74475e-14 0 0 -1.1581e-15 -3.00378e-14 -2.07724e-14 2.574e-14 0 0 -1.99283e-14 -2.37836e-14 -2.68351e-14 2.91689e-14 0 0 -1.87865e-14 -1.27473e-14 -2.73774e-14 2.31272e-14 0 0 6.50429e-15 -2.51612e-14 1.58811e-15 1.69236e-15 0 0 5.98516e-15 -2.17261e-14 -1.05179e-14 -8.76119e-15 0 0 -7.65329e-15 -7.24937e-15 -2.01372e-14 -1.75398e-14 0 0 4.28744e-15 -1.57165e-14 4.61995e-15 -3.84176e-14 0 0 1.99519e-14 -1.93169e-14 -1.41873e-15 -2.85148e-14 0 0 1.02429e-14 -3.70521e-15 -3.56563e-14 1.25948e-14 0 0 -9.09661e-15 -2.35886e-15 -4.81342e-14 2.46219e-14 0 0 4.03387e-15 -2.7176e-14 -1.98953e-14 2.92854e-14 0 0 1.38976e-14 -2.70809e-14 -1.3827e-14 2.83226e-14 0 0 1.27302e-14 -8.75462e-15 -2.49645e-14 5.17911e-16 0 0 8.05846e-15 -1.64606e-14 8.12145e-15 -2.24642e-14 0 0 -6.01609e-15 -1.58622e-14 7.3412e-15 -1.53616e-14 0 0 -6.55977e-15 -1.63383e-14 7.72233e-15 -1.72954e-14 0 0 -6.90736e-15 -1.7881e-14 1.73866e-14 -1.50338e-14 0 0 -4.93826e-15 -9.36355e-15 -5.10283e-15 -9.75801e-16 0 0 -5.59213e-15 -4.99586e-15 -1.46503e-14 -8.43665e-15 0 0 -2.94602e-14 -5.53866e-16 -1.82421e-14 4.38999e-15 0 0 -8.22701e-15 -2.1168e-14 -2.90169e-14 3.19709e-14 0 0 7.05743e-15 -2.08508e-15 -3.33407e-14 5.24465e-15 0 0 1.00191e-14 -1.4225e-15 -8.76922e-15 -2.18e-14 0 0 1.45601e-14 -1.95935e-14 2.70034e-14 -2.88374e-14 0 0 -1.1958e-14 1.69208e-14 2.54106e-15 7.75374e-15 0 0 -6.90008e-16 5.8827e-14 3.99008e-14 3.83864e-14 0 0 9.89637e-14 1.82225e-13 1.71327e-13 1.16682e-13 0 0 2.25019e-13 3.77208e-13 3.61742e-13 2.44005e-13 0 0 2.51695e-13 4.35649e-13 4.44657e-13 2.72576e-13 0 0 1.20395e-13 2.08251e-13 1.98719e-13 1.42948e-13 0 0 -1.73106e-13 -2.71317e-13 -2.75926e-13 -1.61815e-13 0 0 -4.98516e-13 -7.93975e-13 -7.86402e-13 -5.00617e-13 0 0 -7.20447e-13 -1.17258e-12 -1.16247e-12 -7.08192e-13 0 0 -1.35626e-12 -2.205e-12 -2.1185e-12 -1.37481e-12 0 0 -1.37999e-12 -2.16259e-12 -2.18292e-12 -1.35383e-12 0 0 -1.42214e-12 -2.2266e-12 -2.28587e-12 -1.33435e-12 0 0 -1.46517e-12 -2.35195e-12 -2.35368e-12 -1.43394e-12 0 0 -1.50973e-12 -2.42461e-12 -2.4153e-12 -1.49942e-12 0 0 -1.49266e-12 -2.42736e-12 -2.38247e-12 -1.5154e-12 0 0 -1.30159e-12 -2.13527e-12 -2.04967e-12 -1.3398e-12 0 0 -7.91066e-13 -1.31323e-12 -1.26678e-12 -8.08522e-13 0 0 -1.66564e-13 -2.99955e-13 -3.13008e-13 -1.44551e-13 0 0 3.6797e-13 5.94991e-13 5.54237e-13 3.8388e-13 0 0 7.03769e-13 1.17865e-12 1.17403e-12 7.28978e-13 0 0 8.37169e-13 1.39833e-12 1.36022e-12 9.19101e-13 0 0 8.37259e-13 1.38937e-12 1.30178e-12 8.88465e-13 0 0 7.50419e-13 1.21955e-12 1.22175e-12 7.60962e-13 0 0 6.60332e-13 9.81084e-13 1.10054e-12 5.75812e-13 0 0 5.42025e-13 7.80813e-13 8.74912e-13 4.39412e-13 0 0 4.35166e-13 6.16896e-13 6.87042e-13 3.8908e-13 0 0 3.3704e-13 4.89691e-13 5.73678e-13 2.90252e-13 0 0 2.61491e-13 3.92004e-13 4.81042e-13 1.74918e-13 0 0 2.11391e-13 3.4137e-13 3.95958e-13 1.68493e-13 0 0 1.8964e-13 2.87768e-13 3.05122e-13 2.09348e-13 0 0 1.78703e-13 2.56169e-13 3.11298e-13 1.59451e-13 0 0 1.60621e-13 2.64993e-13 3.03339e-13 1.33004e-13 0 0 2.16075e-13 2.6865e-13 2.79056e-13 1.61143e-13 0 0 2.36777e-13 2.97075e-13 3.41754e-13 1.67307e-13 0 0 2.29759e-13 3.2858e-13 4.29486e-13 1.88681e-13 0 0 2.74956e-13 4.01562e-13 5.06999e-13 2.63208e-13 0 0 2.60593e-13 4.75897e-13 5.55021e-13 3.63977e-13 0 0 2.8378e-13 5.88563e-13 5.9403e-13 3.66415e-13 0 0 3.11918e-13 5.71977e-13 6.03298e-13 2.54929e-13 0 0 3.63774e-13 5.61315e-13 6.57461e-13 2.97029e-13 0 0 3.56254e-13 5.57241e-13 6.46431e-13 3.29183e-13 0 0 3.3083e-13 5.29812e-13 5.72133e-13 3.15938e-13 0 0 2.80797e-13 5.22538e-13 4.35305e-13 2.94524e-13 0 0 2.02444e-13 3.88813e-13 3.26457e-13 2.27886e-13 0 0 1.33523e-13 2.11899e-13 2.35079e-13 1.25605e-13 0 0 5.85997e-14 1.07598e-13 1.47421e-13 3.68283e-14 0 0 1.78955e-14 3.49096e-14 5.57598e-14 2.73211e-14 0 0 2.01063e-15 3.67632e-15 9.1905e-15 3.60588e-14 0 0 -1.45157e-14 -1.57223e-14 2.30026e-14 -8.0537e-16 0 0 -2.42183e-14 -1.42456e-14 2.94022e-14 -2.26034e-14 0 0 -2.55886e-14 -9.7826e-15 8.85336e-15 1.35688e-14 0 0 -1.45653e-14 -2.3317e-14 1.97834e-14 1.19114e-14 0 0 -1.50082e-14 -1.84586e-14 3.2583e-14 2.58229e-15 0 0 -2.76852e-14 -7.9358e-15 3.0461e-14 7.78411e-15 0 0 -2.9017e-14 -1.47926e-14 4.77901e-14 -3.48647e-15 0 0 -3.18338e-14 -1.98333e-14 5.94587e-14 -2.23951e-15 0 0 -2.41941e-14 -3.14639e-14 5.69321e-14 1.9442e-14 0 0 -1.79162e-14 -2.13835e-14 4.68074e-14 3.54157e-14 0 0 -1.71555e-14 -6.85976e-15 1.83797e-14 5.82622e-14 0 0 -1.18642e-14 -3.43511e-14 2.57958e-14 6.9258e-14 0 0 -1.17386e-14 -3.49639e-14 3.44566e-14 7.20568e-14 0 0 -1.35518e-14 -1.37124e-15 -3.15275e-15 8.93128e-14 0 0 -2.16005e-14 2.13185e-14 -2.87094e-14 7.28596e-14 0 0 -9.31817e-16 1.21367e-14 -4.81411e-14 6.50506e-14 0 0 1.26292e-14 -1.0077e-14 -2.20587e-14 4.08396e-14 0 0 2.54068e-15 -3.25758e-14 6.83978e-14 -1.39176e-14 0 0 5.05807e-15 -3.02856e-14 1.04129e-13 -3.48936e-14 0 0 -1.45313e-14 1.79596e-14 2.8276e-14 2.50521e-14 0 0 -5.21675e-14 5.73574e-14 -2.44435e-14 5.38964e-14 0 0 -8.24567e-15 1.14405e-14 -2.12709e-15 4.94918e-14 0 0 4.00509e-14 -4.51773e-14 3.45874e-14 6.67785e-14 0 0 1.02764e-14 6.526e-15 2.23331e-15 4.49957e-14 0 0 1.43189e-14 4.38493e-14 -9.37018e-15 1.84992e-15 0 0 2.51904e-14 2.95779e-14 1.94889e-14 1.96207e-14 0 0 2.29911e-14 -8.07472e-15 1.6306e-14 8.16272e-14 0 0 1.74136e-14 -5.38933e-15 -1.60722e-15 4.12089e-14 0 0 9.01963e-15 7.85655e-15 2.91138e-14 -4.03014e-14 0 0 3.66965e-14 -3.0505e-14 8.55699e-14 -2.54108e-14 0 0 5.49573e-14 -1.40857e-14 5.03121e-14 5.86826e-14 0 0 3.79151e-14 1.4371e-14 3.3886e-15 9.52176e-14 0 0 -1.62881e-17 4.26214e-14 -2.41875e-14 1.15948e-13 0 0 -1.64815e-14 5.6091e-14 -3.4057e-14 9.54582e-14 0 0 -5.96507e-14 8.96554e-14 -3.89165e-14 4.18443e-14 0 0 -6.49273e-14 3.74419e-14 6.22474e-14 -3.59491e-14 0 0 8.74879e-16 -6.19034e-14 1.58762e-13 -6.22613e-14 0 0 -1.13023e-14 -7.17172e-15 9.25443e-14 -3.11979e-14 0 0 -3.29062e-14 4.01322e-14 7.9315e-15 5.11739e-15 0 0 -1.24039e-14 5.47921e-15 2.30798e-14 5.50101e-14 0 0 -6.72902e-15 3.96148e-14 -2.20732e-15 1.14931e-13 0 0 4.26144e-15 8.27874e-14 -2.0667e-14 1.094e-13 0 0 -3.7119e-15 7.13272e-14 1.83546e-14 3.6715e-14 0 0 2.78437e-15 3.4927e-14 5.34686e-14 -2.55001e-14 0 0 2.68758e-14 1.08869e-15 1.09162e-13 -7.15943e-14 0 0 1.90853e-14 4.83879e-14 4.86994e-14 -3.67532e-14 0 0 3.80268e-14 1.69204e-14 3.47108e-14 4.08117e-16 0 0 3.06247e-14 9.63633e-15 2.76067e-14 -5.45857e-15 0 0 1.7045e-14 5.26265e-14 -3.87353e-14 -4.08242e-15 0 0 3.82009e-14 5.31444e-14 -9.21328e-14 6.17802e-14 0 0 4.32584e-14 5.48495e-14 -1.21909e-13 1.70585e-13 0 0 3.43017e-14 5.07261e-14 -6.28412e-14 1.75511e-13 0 0 4.14142e-14 -5.8938e-15 7.29955e-14 2.60897e-14 0 0 3.78251e-14 -4.90767e-14 1.08994e-13 1.09428e-14 0 0 -7.44109e-15 1.88291e-14 9.78558e-15 9.9265e-14 0 0 -8.14033e-15 1.96966e-14 2.46959e-14 5.00677e-14 0 0 1.78988e-14 -2.43106e-14 9.81363e-14 -2.24759e-14 0 0 2.15001e-14 -2.09289e-14 1.13923e-13 -2.16636e-14 0 0 3.39853e-14 -2.58529e-15 8.42351e-14 2.90685e-14 0 0 4.33198e-14 -1.00267e-15 5.46404e-14 3.69444e-14 0 0 4.97157e-14 -1.60067e-14 5.67315e-14 7.24328e-15 0
				</DataArray>
				<DataArray Name="VitesseY" type="Float32" format="ascii">