<?xml version="1.0"?>
<VTKFile type="PolyData">
	<PolyData>
		<Piece NumberOfPoints="1206" NumberOfPolys="1000">
			<Points>
				<DataArray type="Float32" NumberOfComponents="3" format="ascii">
 0 0 0 0.02 0 0 0.04 0 0 0.06 0 0 0.08 0 0 0.1 0 0 0 0.005 0 0.02 0.005 0 0.04 0.005 0 0.06 0.005 0 0.08 0.005 0 0.1 0.005 0 0 0.01 0 0.02 0.01 0 0.04 0.01 0 0.06 0.01 0 0.08 0.01 0 0.1 0.01 0 0 0.015 0 0.02 0.015 0 0.04 0.015 0 0.06 0.015 0 0.08 0.015 0 0.1 0.015 0 0 0.02 0 0.02 0.02 0 0.04 0.02 0 0.06 0.02 0 0.08 0.02 0 0.1 0.02 0 0 0.025 0 0.02 0.025 0 0.04 0.025 0 0.06 0.025 0 0.08 0.025 0 0.1 0.025 0 0 0.03 0 0.02 0.03 0 0.04 0.03 0 0.06 0.03 0 0.08 0.03 0 0.1 0.03 0 0 0.035 0 0.02 0.035 0 0.04 0.035 0 0.06 0.035 0 0.08 0.035 0 0.1 0.035 0 0 0.04 0 0.02 0.04 0 0.04 0.04 0 0.06 0.04 0 0.08 0.04 0 0.1 0.04 0 0 0.045 0 0.02 0.045 0 0.04 0.045 0 0.06 0.045 0 0.08 0.045 0 0.1 0.045 0 0 0.05 0 0.02 0.05 0 0.04 0.05 0 0.06 0.05 0 0.08 0.05 0 0.1 0.05 0 0 0.055 0 0.02 0.055 0 0.04 0.055 0 0.06 0.055 0 0.08 0.055 0 0.1 0.055 0 0 0.06 0 0.02 0.06 0 0.04 0.06 0 0.06 0.06 0 0.08 0.06 0 0.1 0.06 0 0 0.065 0 0.02 0.065 0 0.04 0.065 0 0.06 0.065 0 0.08 0.065 0 0.1 0.065 0 0 0.07 0 0.02 0.07 0 0.04 0.07 0 0.06 0.07 0 0.08 0.07 0 0.1 0.07 0 0 0.075 0 0.02 0.075 0 0.04 0.075 0 0.06 0.075 0 0.08 0.075 0 0.1 0.075 0 0 0.08 0 0.02 0.08 0 0.04 0.08 0 0.06 0.08 0 0.08 0.08 0 0.1 0.08 0 0 0.085 0 0.02 0.085 0 0.04 0.085 0 0.06 0.085 0 0.08 0.085 0 0.1 0.085 0 0 0.09 0 0.02 0.09 0 0.04 0.09 0 0.06 0.09 0 0.08 0.09 0 0.1 0.09 0 0 0.095 0 0.02 0.095 0 0.04 0.095 0 0.06 0.095 0 0.08 0.095 0 0.1 0.095 0 0 0.1 0 0.02 0.1 0 0.04 0.1 0 0.06 0.1 0 0.08 0.1 0 0.1 0.1 0 0 0.105 0 0.02 0.105 0 0.04 0.105 0 0.06 0.105 0 0.08 0.105 0 0.1 0.105 0 0 0.11 0 0.02 0.11 0 0.04 0.11 0 0.06 0.11 0 0.08 0.11 0 0.1 0.11 0 0 0.115 0 0.02 0.115 0 0.04 0.115 0 0.06 0.115 0 0.08 0.115 0 0.1 0.115 0 0 0.12 0 0.02 0.12 0 0.04 0.12 0 0.06 0.12 0 0.08 0.12 0 0.1 0.12 0 0 0.125 0 0.02 0.125 0 0.04 0.125 0 0.06 0.125 0 0.08 0.125 0 0.1 0.125 0 0 0.13 0 0.02 0.13 0 0.04 0.13 0 0.06 0.13 0 0.08 0.13 0 0.1 0.13 0 0 0.135 0 0.02 0.135 0 0.04 0.135 0 0.06 0.135 0 0.08 0.135 0 0.1 0.135 0 0 0.14 0 0.02 0.14 0 0.04 0.14 0 0.06 0.14 0 0.08 0.14 0 0.1 0.14 0 0 0.145 0 0.02 0.145 0 0.04 0.145 0 0.06 0.145 0 0.08 0.145 0 0.1 0.145 0 0 0.15 0 0.02 0.15 0 0.04 0.15 0 0.06 0.15 0 0.08 0.15 0 0.1 0.15 0 0 0.155 0 0.02 0.155 0 0.04 0.155 0 0.06 0.155 0 0.08 0.155 0 0.1 0.155 0 0 0.16 0 0.02 0.16 0 0.04 0.16 0 0.06 0.16 0 0.08 0.16 0 0.1 0.16 0 0 0.165 0 0.02 0.165 0 0.04 0.165 0 0.06 0.165 0 0.08 0.165 0 0.1 0.165 0 0 0.17 0 0.02 0.17 0 0.04 0.17 0 0.06 0.17 0 0.08 0.17 0 0.1 0.17 0 0 0.175 0 0.02 0.175 0 0.04 0.175 0 0.06 0.175 0 0.08 0.175 0 0.1 0.175 0 0 0.18 0 0.02 0.18 0 0.04 0.18 0 0.06 0.18 0 0.08 0.18 0 0.1 0.18 0 0 0.185 0 0.02 0.185 0 0.04 0.185 0 0.06 0.185 0 0.08 0.185 0 0.1 0.185 0 0 0.19 0 0.02 0.19 0 0.04 0.19 0 0.06 0.19 0 0.08 0.19 0 0.1 0.19 0 0 0.195 0 0.02 0.195 0 0.04 0.195 0 0.06 0.195 0 0.08 0.195 0 0.1 0.195 0 0 0.2 0 0.02 0.2 0 0.04 0.2 0 0.06 0.2 0 0.08 0.2 0 0.1 0.2 0 0 0.205 0 0.02 0.205 0 0.04 0.205 0 0.06 0.205 0 0.08 0.205 0 0.1 0.205 0 0 0.21 0 0.02 0.21 0 0.04 0.21 0 0.06 0.21 0 0.08 0.21 0 0.1 0.21 0 0 0.215 0 0.02 0.215 0 0.04 0.215 0 0.06 0.215 0 0.08 0.215 0 0.1 0.215 0 0 0.22 0 0.02 0.22 0 0.04 0.22 0 0.06 0.22 0 0.08 0.22 0 0.1 0.22 0 0 0.225 0 0.02 0.225 0 0.04 0.225 0 0.06 0.225 0 0.08 0.225 0 0.1 0.225 0 0 0.23 0 0.02 0.23 0 0.04 0.23 0 0.06 0.23 0 0.08 0.23 0 0.1 0.23 0 0 0.235 0 0.02 0.235 0 0.04 0.235 0 0.06 0.235 0 0.08 0.235 0 0.1 0.235 0 0 0.24 0 0.02 0.24 0 0.04 0.24 0 0.06 0.24 0 0.08 0.24 0 0.1 0.24 0 0 0.245 0 0.02 0.245 0 0.04 0.245 0 0.06 0.245 0 0.08 0.245 0 0.1 0.245 0 0 0.25 0 0.02 0.25 0 0.04 0.25 0 0.06 0.25 0 0.08 0.25 0 0.1 0.25 0 0 0.255 0 0.02 0.255 0 0.04 0.255 0 0.06 0.255 0 0.08 0.255 0 0.1 0.255 0 0 0.26 0 0.02 0.26 0 0.04 0.26 0 0.06 0.26 0 0.08 0.26 0 0.1 0.26 0 0 0.265 0 0.02 0.265 0 0.04 0.265 0 0.06 0.265 0 0.08 0.265 0 0.1 0.265 0 0 0.27 0 0.02 0.27 0 0.04 0.27 0 0.06 0.27 0 0.08 0.27 0 0.1 0.27 0 0 0.275 0 0.02 0.275 0 0.04 0.275 0 0.06 0.275 0 0.08 0.275 0 0.1 0.275 0 0 0.28 0 0.02 0.28 0 0.04 0.28 0 0.06 0.28 0 0.08 0.28 0 0.1 0.28 0 0 0.285 0 0.02 0.285 0 0.04 0.285 0 0.06 0.285 0 0.08 0.285 0 0.1 0.285 0 0 0.29 0 0.02 0.29 0 0.04 0.29 0 0.06 0.29 0 0.08 0.29 0 0.1 0.29 0 0 0.295 0 0.02 0.295 0 0.04 0.295 0 0.06 0.295 0 0.08 0.295 0 0.1 0.295 0 0 0.3 0 0.02 0.3 0 0.04 0.3 0 0.06 0.3 0 0.08 0.3 0 0.1 0.3 0 0 0.305 0 0.02 0.305 0 0.04 0.305 0 0.06 0.305 0 0.08 0.305 0 0.1 0.305 0 0 0.31 0 0.02 0.31 0 0.04 0.31 0 0.06 0.31 0 0.08 0.31 0 0.1 0.31 0 0 0.315 0 0.02 0.315 0 0.04 0.315 0 0.06 0.315 0 0.08 0.315 0 0.1 0.315 0 0 0.32 0 0.02 0.32 0 0.04 0.32 0 0.06 0.32 0 0.08 0.32 0 0.1 0.32 0 0 0.325 0 0.02 0.325 0 0.04 0.325 0 0.06 0.325 0 0.08 0.325 0 0.1 0.325 0 0 0.33 0 0.02 0.33 0 0.04 0.33 0 0.06 0.33 0 0.08 0.33 0 0.1 0.33 0 0 0.335 0 0.02 0.335 0 0.04 0.335 0 0.06 0.335 0 0.08 0.335 0 0.1 0.335 0 0 0.34 0 0.02 0.34 0 0.04 0.34 0 0.06 0.34 0 0.08 0.34 0 0.1 0.34 0 0 0.345 0 0.02 0.345 0 0.04 0.345 0 0.06 0.345 0 0.08 0.345 0 0.1 0.345 0 0 0.35 0 0.02 0.35 0 0.04 0.35 0 0.06 0.35 0 0.08 0.35 0 0.1 0.35 0 0 0.355 0 0.02 0.355 0 0.04 0.355 0 0.06 0.355 0 0.08 0.355 0 0.1 0.355 0 0 0.36 0 0.02 0.36 0 0.04 0.36 0 0.06 0.36 0 0.08 0.36 0 0.1 0.36 0 0 0.365 0 0.02 0.365 0 0.04 0.365 0 0.06 0.365 0 0.08 0.365 0 0.1 0.365 0 0 0.37 0 0.02 0.37 0 0.04 0.37 0 0.06 0.37 0 0.08 0.37 0 0.1 0.37 0 0 0.375 0 0.02 0.375 0 0.04 0.375 0 0.06 0.375 0 0.08 0.375 0 0.1 0.375 0 0 0.38 0 0.02 0.38 0 0.04 0.38 0 0.06 0.38 0 0.08 0.38 0 0.1 0.38 0 0 0.385 0 0.02 0.385 0 0.04 0.385 0 0.06 0.385 0 0.08 0.385 0 0.1 0.385 0 0 0.39 0 0.02 0.39 0 0.04 0.39 0 0.06 0.39 0 0.08 0.39 0 0.1 0.39 0 0 0.395 0 0.02 0.395 0 0.04 0.395 0 0.06 0.395 0 0.08 0.395 0 0.1 0.395 0 0 0.4 0 0.02 0.4 0 0.04 0.4 0 0.06 0.4 0 0.08 0.4 0 0.1 0.4 0 0 0.405001 0 0.02 0.405001 0 0.04 0.405001 0 0.06 0.405001 0 0.08 0.405001 0 0.1 0.405001 0 0 0.410003 0 0.02 0.410003 0 0.04 0.410003 0 0.06 0.410003 0 0.08 0.410003 0 0.1 0.410003 0 0 0.415013 0 0.02 0.415013 0 0.04 0.415013 0 0.06 0.415013 0 0.08 0.415013 0 0.1 0.415013 0 0 0.420047 0 0.02 0.420047 0 0.04 0.420047 0 0.06 0.420047 0 0.08 0.420047 0 0.1 0.420047 0 0 0.425145 0 0.02 0.425145 0 0.04 0.425145 0 0.06 0.425145 0 0.08 0.425145 0 0.1 0.425145 0 0 0.430368 0 0.02 0.430368 0 0.04 0.430368 0 0.06 0.430368 0 0.08 0.430368 0 0.1 0.430368 0 0 0.435797 0 0.02 0.435797 0 0.04 0.435797 0 0.06 0.435797 0 0.08 0.435797 0 0.1 0.435797 0 0 0.44151 0 0.02 0.44151 0 0.04 0.44151 0 0.06 0.44151 0 0.08 0.44151 0 0.1 0.44151 0 0 0.447582 0 0.02 0.447582 0 0.04 0.447582 0 0.06 0.447582 0 0.08 0.447582 0 0.1 0.447582 0 0 0.454086 0 0.02 0.454086 0 0.04 0.454086 0 0.06 0.454086 0 0.08 0.454086 0 0.1 0.454086 0 0 0.461108 0 0.02 0.461108 0 0.04 0.461108 0 0.06 0.461108 0 0.08 0.461108 0 0.1 0.461108 0 0 0.468755 0 0.02 0.468755 0 0.04 0.468755 0 0.06 0.468755 0 0.08 0.468755 0 0.1 0.468755 0 0 0.477159 0 0.02 0.477159 0 0.04 0.477159 0 0.06 0.477159 0 0.08 0.477159 0 0.1 0.477159 0 0 0.486491 0 0.02 0.486491 0 0.04 0.486491 0 0.06 0.486491 0 0.08 0.486491 0 0.1 0.486491 0 0 0.496946 0 0.02 0.496946 0 0.04 0.496946 0 0.06 0.496946 0 0.08 0.496946 0 0.1 0.496946 0 0 0.508638 0 0.02 0.508638 0 0.04 0.508638 0 0.06 0.508638 0 0.08 0.508638 0 0.1 0.508638 0 0 0.521062 0 0.02 0.521062 0 0.04 0.521062 0 0.06 0.521062 0 0.08 0.521062 0 0.1 0.521062 0 0 0.533227 0 0.02 0.533227 0 0.04 0.533227 0 0.06 0.533227 0 0.08 0.533227 0 0.1 0.533227 0 0 0.545131 0 0.02 0.545131 0 0.04 0.545131 0 0.06 0.545131 0 0.08 0.545131 0 0.1 0.545131 0 0 0.556921 0 0.02 0.556921 0 0.04 0.556921 0 0.06 0.556921 0 0.08 0.556921 0 0.1 0.556921 0 0 0.559536 0 0.02 0.559536 0 0.04 0.559536 0 0.06 0.559536 0 0.08 0.559536 0 0.1 0.559536 0 0 0.562078 0 0.02 0.562078 0 0.04 0.562078 0 0.06 0.562078 0 0.08 0.562078 0 0.1 0.562078 0 0 0.564575 0 0.02 0.564575 0 0.04 0.564575 0 0.06 0.564575 0 0.08 0.564575 0 0.1 0.564575 0 0 0.567041 0 0.02 0.567041 0 0.04 0.567041 0 0.06 0.567041 0 0.08 0.567041 0 0.1 0.567041 0 0 0.569487 0 0.02 0.569487 0 0.04 0.569487 0 0.06 0.569487 0 0.08 0.569487 0 0.1 0.569487 0 0 0.571917 0 0.02 0.571917 0 0.04 0.571917 0 0.06 0.571917 0 0.08 0.571917 0 0.1 0.571917 0 0 0.574337 0 0.02 0.574337 0 0.04 0.574337 0 0.06 0.574337 0 0.08 0.574337 0 0.1 0.574337 0 0 0.57675 0 0.02 0.57675 0 0.04 0.57675 0 0.06 0.57675 0 0.08 0.57675 0 0.1 0.57675 0 0 0.579163 0 0.02 0.579163 0 0.04 0.579163 0 0.06 0.579163 0 0.08 0.579163 0 0.1 0.579163 0 0 0.581578 0 0.02 0.581578 0 0.04 0.581578 0 0.06 0.581578 0 0.08 0.581578 0 0.1 0.581578 0 0 0.583999 0 0.02 0.583999 0 0.04 0.583999 0 0.06 0.583999 0 0.08 0.583999 0 0.1 0.583999 0 0 0.586424 0 0.02 0.586424 0 0.04 0.586424 0 0.06 0.586424 0 0.08 0.586424 0 0.1 0.586424 0 0 0.588856 0 0.02 0.588856 0 0.04 0.588856 0 0.06 0.588856 0 0.08 0.588856 0 0.1 0.588856 0 0 0.591292 0 0.02 0.591292 0 0.04 0.591292 0 0.06 0.591292 0 0.08 0.591292 0 0.1 0.591292 0 0 0.593746 0 0.02 0.593746 0 0.04 0.593746 0 0.06 0.593746 0 0.08 0.593746 0 0.1 0.593746 0 0 0.59622 0 0.02 0.59622 0 0.04 0.59622 0 0.06 0.59622 0 0.08 0.59622 0 0.1 0.59622 0 0 0.598752 0 0.02 0.598752 0 0.04 0.598752 0 0.06 0.598752 0 0.08 0.598752 0 0.1 0.598752 0 0 0.601337 0 0.02 0.601337 0 0.04 0.601337 0 0.06 0.601337 0 0.08 0.601337 0 0.1 0.601337 0 0 0.604045 0 0.02 0.604045 0 0.04 0.604045 0 0.06 0.604045 0 0.08 0.604045 0 0.1 0.604045 0 0 0.606882 0 0.02 0.606882 0 0.04 0.606882 0 0.06 0.606882 0 0.08 0.606882 0 0.1 0.606882 0 0 0.609963 0 0.02 0.609963 0 0.04 0.609963 0 0.06 0.609963 0 0.08 0.609963 0 0.1 0.609963 0 0 0.613319 0 0.02 0.613319 0 0.04 0.613319 0 0.06 0.613319 0 0.08 0.613319 0 0.1 0.613319 0 0 0.617031 0 0.02 0.617031 0 0.04 0.617031 0 0.06 0.617031 0 0.08 0.617031 0 0.1 0.617031 0 0 0.621108 0 0.02 0.621108 0 0.04 0.621108 0 0.06 0.621108 0 0.08 0.621108 0 0.1 0.621108 0 0 0.625529 0 0.02 0.625529 0 0.04 0.625529 0 0.06 0.625529 0 0.08 0.6
[...]
			<PointData Scalars="VitesseX">
				<DataArray Name="VitesseX" type="Float32" format="ascii">
 0 -1.35855e-15 -2.45751e-15 -5.5212e-15 -9.17424e-15 0 0 -1.43803e-15 -2.12618e-15 -5.84857e-15 -9.1877e-15 0 0 -1.73409e-15 -1.68022e-15 -6.1467e-15 -9.4579e-15 0 0 -1.92354e-15 -1.75463e-15 -6.0768e-15 -9.80629e-15 0 0 -1.76097e-15 -2.27846e-15 -6.08445e-15 -1.03405e-14 0 0 -1.7369e-15 -2.7605e-15 -5.64977e-15 -1.17503e-14 0 0 -1.6044e-15 -4.13874e-15 -5.01603e-15 -1.24195e-14 0 0 -1.99182e-15 -4.94763e-15 -5.74553e-15 -1.15737e-14 0 0 -2.54313e-15 -4.71522e-15 -8.84306e-15 -8.90363e-15 0 0 -2.99347e-15 -6.24429e-15 -9.74633e-15 -7.60916e-15 0 0 -4.22213e-15 -7.51871e-15 -7.48777e-15 -1.09442e-14 0 0 -4.85884e-15 -6.58763e-15 -8.24985e-15 -1.14667e-14 0 0 -5.58729e-15 -6.55248e-15 -7.38973e-15 -1.05606e-14 0 0 -6.76844e-15 -6.39338e-15 -6.65223e-15 -7.85282e-15 0 0 -5.36372e-15 -6.36967e-15 -3.65157e-15 -9.90503e-15 0 0 -4.126e-15 -7.01592e-15 -3.68807e-15 -9.50636e-15 0 0 -6.15435e-15 -6.03965e-15 -6.6524e-15 -3.4593e-15 0 0 -8.96298e-15 -1.921e-15 -5.79663e-15 -3.41608e-15 0 0 -8.54368e-15 -2.11796e-15 -1.42309e-15 -4.13684e-15 0 0 -9.49992e-15 -4.18053e-15 1.95426e-15 -2.82814e-15 0 0 -8.37894e-15 -7.22349e-15 3.13534e-15 -3.78943e-15 0 0 -7.22687e-15 -5.59301e-15 -1.60891e-15 -5.46268e-15 0 0 -7.63495e-15 -6.22257e-15 -1.24518e-14 6.93363e-16 0 0 -6.93468e-15 -1.09669e-14 -2.29584e-14 5.15127e-15 0 0 -1.04886e-14 -8.2741e-15 -2.55144e-14 -3.09823e-15 0 0 -4.97893e-15 -1.88557e-14 -1.13316e-14 -1.70312e-14 0 0 -1.49479e-15 -2.48138e-14 -7.12408e-15 -2.15722e-14 0 0 -8.21496e-15 -1.34824e-14 -2.35947e-14 -1.65241e-14 0 0 -9.00194e-15 -1.12918e-14 -3.28749e-14 -1.59889e-14 0 0 -7.68772e-15 -1.54994e-14 -2.8165e-14 -2.12915e-14 0 0 -1.0361e-14 -1.24755e-14 -3.27415e-14 -1.30685e-14 0 0 -8.45441e-15 -2.1073e-14 -2.72476e-14 -1.05688e-15 0 0 -6.25138e-15 -2.916e-14 -7.79883e-15 -7.67333e-15 0 0 -1.33709e-14 -2.30192e-14 2.62846e-15 -1.61316e-14 0 0 -1.46998e-14 -2.00588e-14 1.42231e-15 -6.75586e-15 0 0 -7.86239e-15 -1.99987e-14 -4.7666e-15 6.75159e-15 0 0 -3.79363e-15 -1.93867e-14 -7.37888e-15 1.05292e-14 0 0 -4.37159e-15 -8.81301e-15 -1.39533e-14 8.43962e-15 0 0 -7.88656e-15 2.06738e-15 -2.18482e-14 8.27117e-15 0 0 -4.65329e-15 -9.318e-15 -1.15307e-14 3.3827e-15 0 0 4.17481e-15 -2.48202e-14 -3.18323e-15 3.87343e-15 0 0 1.87642e-15 -1.91047e-14 -9.30009e-15 1.04686e-14 0 0 -6.8478e-15 -1.18494e-14 -4.8435e-16 3.67245e-15 0 0 -9.71082e-15 -1.11734e-14 9.99957e-15 -5.2137e-15 0 0 -1.00994e-14 -1.32585e-14 5.58936e-15 -1.14324e-14 0 0 -8.41112e-15 -1.7385e-14 -9.89239e-15 2.35388e-15 0 0 -7.18669e-15 -2.1526e-14 -1.57762e-14 1.45683e-14 0 0 -1.01442e-14 -2.21536e-14 -1.22183e-14 3.97992e-15 0 0 -1.10122e-14 -1.8168e-14 -2.07593e-14 4.4421e-15 0 0 -1.1229e-14 -1.63675e-14 -2.97703e-14 5.59702e-15 0 0 -3.17646e-15 -3.03948e-14 -1.60919e-14 -1.12862e-14 0 0 -4.68211e-15 -2.9762e-14 -1.0069e-14 -2.8219e-14 0 0 -1.71477e-14 -4.89189e-15 -2.34699e-14 -3.61994e-14 0 0 -3.14857e-15 -1.83727e-14 -2.0034e-14 -4.5487e-14 0 0 5.20797e-16 -3.1933e-14 -2.38193e-14 -3.83841e-14 0 0 -1.06417e-14 -1.73794e-14 -3.48518e-14 -2.19682e-14 0 0 -4.04095e-16 -2.38413e-14 -2.80716e-14 -1.97115e-14 0 0 -7.97315e-15 -1.05447e-14 -4.33517e-14 -9.37913e-15 0 0 -1.38941e-14 -1.07347e-14 -4.16679e-14 -1.23315e-14 0 0 -1.45599e-14 -2.0846e-14 -3.1034e-14 -2.12217e-14 0 0 -1.74053e-14 -2.68982e-14 -2.9563e-14 -2.33796e-14 0 0 -6.68794e-15 -4.49974e-14 -2.47986e-14 -2.80679e-14 0 0 -3.85536e-15 -3.42315e-14 -4.24339e-14 -3.02521e-14 0 0 -1.30505e-15 -2.6744e-14 -5.49194e-14 -2.26112e-14 0 0 -2.01529e-15 -3.14342e-14 -4.12534e-14 -2.95618e-14 0 0 -1.28846e-14 -3.01006e-14 -2.63521e-14 -4.48161e-14 0 0 -1.5328e-14 -2.74036e-14 -4.23229e-14 -3.62986e-14 0 0 -1.95624e-14 -1.33229e-14 -5.31857e-14 -4.27996e-14 0 0 -1.15899e-14 -1.80308e-14 -3.48356e-14 -6.21282e-14 0 0 -8.9003e-15 -2.59485e-14 -3.42175e-14 -5.49301e-14 0 0 -2.40493e-14 -1.57424e-14 -4.22635e-14 -3.39497e-14 0 0 -8.27097e-15 -1.62634e-14 -3.68706e-14 -4.10893e-14 0 0 8.26391e-15 -2.31149e-15 -3.92025e-14 -4.33415e-14 0 0 1.0583e-14 1.37819e-14 -4.07933e-14 -1.95653e-14 0 0 5.61097e-15 3.51913e-14 -5.01538e-14 -4.63032e-15 0 0 5.59441e-15 5.32949e-14 -5.44348e-14 -5.56341e-15 0 0 2.1756e-14 4.90296e-14 -4.6911e-14 -1.37136e-14 0 0 4.95335e-14 2.76279e-14 -3.69961e-14 -2.77077e-14 0 0 3.60513e-14 2.61832e-14 -3.40815e-14 -2.70745e-15 0 0 1.33748e-14 1.11994e-14 3.49236e-17 6.15298e-15 0 0 2.19715e-14 -1.25082e-14 3.78255e-14 -2.06156e-14 0 0 2.03079e-14 1.35667e-14 1.14433e-14 -1.39784e-14 0 0 1.7652e-14 2.22215e-14 -1.74093e-14 -1.02254e-15 0 0 2.35017e-14 -1.07384e-14 -1.76986e-14 1.94163e-14 0 0 8.51248e-15 -3.8251e-15 -1.73243e-14 2.80071e-14 0 0 -5.49903e-15 3.42379e-15 -1.10291e-14 2.2005e-14 0 0 -9.27174e-16 -5.42648e-15 -2.09605e-15 1.34704e-14 0 0 -1.21339e-14 4.93722e-15 1.01541e-14 -2.41543e-15 0 0 2.9265e-15 -3.32132e-15 3.6866e-15 -1.47846e-14 0 0 7.68306e-15 -4.23571e-15 -1.09911e-14 -2.52219e-14 0 0 -4.55036e-15 -7.10699e-15 -6.24305e-15 -2.98023e-15 0 0 -2.16415e-14 -2.22657e-15 1.59957e-15 1.18897e-14 0 0 9.29078e-16 5.06063e-16 1.29512e-14 7.42765e-15 0 0 1.88759e-14 1.1931e-15 -4.87305e-15 1.56642e-14 0 0 -1.7978e-14 1.1312e-15 -1.45324e-14 -4.06107e-16 0 0 -1.63128e-14 4.8869e-15 -1.56611e-14 2.3299e-16 0 0 -6.5166e-15 -2.06533e-14 -4.16396e-15 -1.90313e-15 0 0 -3.34008e-14 -5.878e-14 -4.71023e-14 -2.77729e-14 0 0 -7.33196e-14 -1.00438e-13 -1.29047e-13 -6.88122e-14 0 0 -8.88393e-14 -1.26944e-13 -1.43204e-13 -1.02477e-13 0 0 -8.52957e-14 -1.08171e-13 -1.07123e-13 -8.84792e-14 0 0 -6.42128e-14 1.52392e-14 -5.0157e-15 -2.1393e-14 0 0 -3.41261e-14 1.92865e-14 3.10349e-14 -3.29966e-14 0 0 1.59292e-14 2.26566e-15 5.3005e-14 -2.22842e-14 0 0 5.07747e-14 -6.75061e-15 5.98863e-14 -1.17621e-14 0 0 4.8172e-14 -3.85635e-14 5.5426e-14 -1.56257e-15 0 0 -1.53304e-14 1.65773e-15 -3.39479e-14 5.45889e-14 0 0 -8.00705e-14 3.03154e-14 -1.11275e-13 1.19394e-13 0 0 -1.11759e-13 -3.53762e-14 -1.52892e-13 1.07136e-13 0 0 -1.2582e-13 -1.97463e-13 -1.6244e-13 -1.63535e-14 0 0 -1.81813e-13 -3.18785e-13 -1.93998e-13 -1.30878e-13 0 0 -2.90729e-13 -3.13092e-13 -3.31248e-13 -1.48952e-13 0 0 -3.29367e-13 -3.61074e-13 -3.70056e-13 -1.52946e-13 0 0 -2.97332e-13 -4.53007e-13 -2.70019e-13 -2.13157e-13 0 0 -2.77787e-13 -4.6718e-13 -2.50222e-13 -2.29929e-13 0 0 -2.76666e-13 -4.11995e-13 -3.63188e-13 -1.83759e-13 0 0 -2.54326e-13 -4.04405e-13 -3.83861e-13 -2.33839e-13 0 0 -2.80124e-13 -4.18861e-13 -3.92733e-13 -2.45218e-13 0 0 -2.62014e-13 -4.19502e-13 -3.70078e-13 -1.91772e-13 0 0 -2.38815e-13 -4.29289e-13 -3.23069e-13 -1.60934e-13 0 0 -2.28598e-13 -3.38334e-13 -2.91335e-13 -1.54557e-13 0 0 -1.78305e-13 -3.29446e-13 -2.71668e-13 -1.43882e-13 0 0 -1.69167e-13 -2.51412e-13 -2.52741e-13 -9.17467e-14 0 0 -1.49592e-13 -1.44588e-13 -2.3779e-13 -1.00379e-13 0 0 -7.04368e-14 -1.1129e-13 -1.65491e-13 -1.00149e-13 0 0 -4.38948e-14 -6.31246e-14 -9.55397e-14 -6.23756e-14 0 0 -1.4347e-14 -2.48367e-14 -8.32434e-14 -5.06042e-14 0 0 1.44971e-14 3.79099e-16 -6.74923e-14 -5.43109e-14 0 0 1.27078e-14 1.09779e-14 -6.44598e-14 -7.74966e-15 0 0 2.17053e-14 -1.25977e-14 -3.31056e-14 -2.20589e-14 0 0 1.8024e-14 5.47843e-15 -4.54567e-14 -4.20381e-14 0 0 1.19466e-14 2.46351e-14 -5.31864e-14 -2.50845e-14 0 0 1.87228e-14 4.08032e-15 -3.1874e-14 -2.0523e-14 0 0 1.17392e-14 7.98425e-15 -4.003e-14 -1.19728e-14 0 0 1.71591e-14 9.74195e-15 -4.42628e-14 -1.48331e-14 0 0 1.82558e-14 2.91657e-15 -4.10671e-14 -2.48447e-14 0 0 9.03249e-15 3.0106e-15 -4.25183e-14 -3.84193e-14 0 0 5.79914e-15 2.30123e-15 -4.60793e-14 -6.21268e-14 0 0 1.11933e-14 -1.75968e-15 -4.08351e-14 -9.50336e-14 0 0 4.0163e-15 8.43697e-15 -5.28508e-14 -1.13741e-13 0 0 -1.36986e-14 1.80921e-14 -9.75533e-14 -8.11844e-14 0 0 -2.3952e-14 9.17977e-15 -1.07482e-13 -5.07221e-14 0 0 -1.58186e-14 -2.20027e-14 -8.20879e-14 -3.566e-14 0 0 -1.08041e-14 -3.87035e-14 -9.34689e-14 -5.71204e-14 0 0 -6.13001e-15 -5.97763e-14 -1.04462e-13 -6.85761e-14 0 0 -4.65655e-15 -8.3007e-14 -1.09041e-13 -3.75772e-14 0 0 -3.39278e-14 -7.00349e-14 -9.33026e-14 -8.46809e-14 0 0 -4.59452e-14 -9.18794e-14 -7.24817e-14 -9.37054e-14 0 0 -5.74474e-14 -7.64528e-14 -1.16793e-13 -4.2259e-14 0 0 -6.14614e-14 -5.63291e-14 -1.47605e-13 -7.43797e-14 0 0 -5.79343e-14 -7.55268e-14 -1.25166e-13 -1.39157e-13 0 0 -7.01372e-14 -6.63981e-14 -1.1436e-13 -1.74459e-13 0 0 -7.54659e-14 -5.92155e-14 -1.1818e-13 -1.77228e-13 0 0 -5.56045e-14 -6.70731e-14 -1.30254e-13 -1.48477e-13 0 0 -4.47565e-14 -6.68297e-14 -1.2347e-13 -1.44335e-13 0 0 -7.73514e-14 -4.76077e-14 -1.24227e-13 -1.51152e-13 0 0 -7.60357e-14 -8.46587e-14 -1.13868e-13 -1.23957e-13 0 0 -7.50698e-14 -9.0863e-14 -9.90956e-14 -1.2032e-13 0 0 -9.59848e-14 -3.71972e-14 -1.2063e-13 -1.44174e-13 0 0 -5.51964e-14 -6.71353e-14 -1.06085e-13 -1.57613e-13 0 0 -4.56461e-14 -8.92497e-14 -8.89598e-14 -1.72049e-13 0 0 -7.87858e-14 -7.983e-14 -6.03493e-14 -1.67813e-13 0 0 -3.25821e-14 -1.43523e-13 -3.00385e-14 -1.53943e-13 0 0 -2.07784e-14 -1.31389e-13 -8.95683e-14 -1.53652e-13 0 0 -7.18838e-14 -4.2857e-14 -1.71145e-13 -1.50408e-13 0 0 -4.44594e-14 -6.70224e-14 -1.53235e-13 -1.81774e-13 0 0 -7.14746e-15 -8.55455e-14 -1.373e-13 -1.5504e-13 0 0 -1.0775e-14 -6.38761e-14 -1.60224e-13 -9.91774e-14 0 0 -3.94868e-14 -4.42145e-14 -1.74351e-13 -8.77099e-14 0 0 -4.10927e-14 -6.3937e-14 -1.67461e-13 -5.6973e-14 0 0 -3.88042e-14 -8.14829e-14 -1.55217e-13 -3.65597e-14 0 0 -5.06411e-14 -8.0348e-14 -1.32056e-13 -7.14608e-14 0 0 -5.85454e-14 -9.54772e-14 -7.87637e-14 -1.44799e-13 0 0 -6.87307e-14 -9.13175e-14 -5.61021e-14 -1.69717e-13 0 0 -7.48456e-14 -1.0868e-13 -6.03433e-14 -1.2047e-13 0 0 -6.92356e-14 -1.06447e-13 -1.04997e-13 -5.82413e-14 0 0 -6.57545e-14 -9.04736e-14 -6.88732e-14 -1.26912e-13 0 0 -7.8859e-14 -6.33145e-14 -3.66777e-14 -2.20028e-13 0 0 -8.00948e-14 -7.7449e-15 -1.40771e-13 -1.85484e-13 0 0 -6.94627e-14 -5.07887e-14 -1.46203e-13 -1.4889e-13 0 0 -5.54856e-14 -1.11638e-13 -7.4066e-14 -1.70266e-13 0 0 -7.37133e-14 -4.64e-14 -1.1912e-13 -1.63789e-13 0 0 -7.75442e-14 -1.32019e-14 -1.49584e-13 -1.70024e-13 0 0 -5.02814e-14 -6.05295e-14 -9.69e-14 -1.78278e-13 0 0 -5.34633e-14 -6.84356e-14 -1.11954e-13 -9.46703e-14 0 0 -4.56258e-14 -9.63762e-14 -1.0387e-13 -7.90415e-14 0 0 -3.46918e-14 -1.05671e-13 -9.155e-14 -9.65529e-14 0 0 -2.43084e-14 -8.96206e-14 -1.30151e-13 -7.56266e-15 0 0 -3.09424e-14 -7.59664e-14 -1.2504e-13 3.26046e-15 0 0 -3.34916e-14 -5.15873e-14 -1.28613e-13 -2.40925e-14 0 0 -3.37544e-14 -6.02333e-14 -1.08511e-13 -1.53648e-14 0 0 -7.29274e-14 -4.46709e-14 -1.01715e-13 -1.21977e-14 0 0 -3.82413e-14 -8.19694e-14 -1.03685e-13 -4.02457e-14 0 0 -9.45161e-15 -1.07888e-13 -1.18608e-13 -8.63251e-14 0 0 -3.79162e-14 -7.39989e-14 -1.35606e-13 -8.8342e-14 0 0 -4.11948e-14 -7.56038e-14 -1.16088e-13 -7.29016e-14 0 0 -4.4091e-14 -8.11651e-14 -1.0121e-13 -6.03857e-14 0 0 -6.17279e-14 -7.24404e-14 -7.34576e-14 -7.59633e-14 0 0 -5.75549e-14 -9.83107e-14 -3.8152e-14 -5.99722e-14 0 0 -6.58898e-14 -9.54473e-14 -5.43099e-14 -3.18614e-14 0 0 -7.96118e-14 -7.07836e-14 -9.168e-14 -3.02259e-14 0
				</DataArray>
				<DataArray Name="VitesseY" type="Float32" format="ascii">