<?xml version="1.0"?>
<VTKFile type="PolyData">
	<PolyData>
		<Piece NumberOfPoints="1206" NumberOfPolys="1000">
			<Points>
				<DataArray type="Float32" NumberOfComponents="3" format="ascii">
 0 0 0 0.02 0 0 0.04 0 0 0.06 0 0 0.08 0 0 0.1 0 0 0 0.005 0 0.02 0.005 0 0.04 0.005 0 0.06 0.005 0 0.08 0.005 0 0.1 0.005 0 0 0.01 0 0.02 0.01 0 0.04 0.01 0 0.06 0.01 0 0.08 0.01 0 0.1 0.01 0 0 0.015 0 0.02 0.015 0 0.04 0.015 0 0.06 0.015 0 0.08 0.015 0 0.1 0.015 0 0 0.02 0 0.02 0.02 0 0.04 0.02 0 0.06 0.02 0 0.08 0.02 0 0.1 0.02 0 0 0.025 0 0.02 0.025 0 0.04 0.025 0 0.06 0.025 0 0.08 0.025 0 0.1 0.025 0 0 0.03 0 0.02 0.03 0 0.04 0.03 0 0.06 0.03 0 0.08 0.03 0 0.1 0.03 0 0 0.035 0 0.02 0.035 0 0.04 0.035 0 0.06 0.035 0 0.08 0.035 0 0.1 0.035 0 0 0.04 0 0.02 0.04 0 0.04 0.04 0 0.06 0.04 0 0.08 0.04 0 0.1 0.04 0 0 0.045 0 0.02 0.045 0 0.04 0.045 0 0.06 0.045 0 0.08 0.045 0 0.1 0.045 0 0 0.05 0 0.02 0.05 0 0.04 0.05 0 0.06 0.05 0 0.08 0.05 0 0.1 0.05 0 0 0.055 0 0.02 0.055 0 0.04 0.055 0 0.06 0.055 0 0.08 0.055 0 0.1 0.055 0 0 0.06 0 0.02 0.06 0 0.04 0.06 0 0.06 0.06 0 0.08 0.06 0 0.1 0.06 0 0 0.065 0 0.02 0.065 0 0.04 0.065 0 0.06 0.065 0 0.08 0.065 0 0.1 0.065 0 0 0.07 0 0.02 0.07 0 0.04 0.07 0 0.06 0.07 0 0.08 0.07 0 0.1 0.07 0 0 0.075 0 0.02 0.075 0 0.04 0.075 0 0.06 0.075 0 0.08 0.075 0 0.1 0.075 0 0 0.08 0 0.02 0.08 0 0.04 0.08 0 0.06 0.08 0 0.08 0.08 0 0.1 0.08 0 0 0.085 0 0.02 0.085 0 0.04 0.085 0 0.06 0.085 0 0.08 0.085 0 0.1 0.085 0 0 0.09 0 0.02 0.09 0 0.04 0.09 0 0.06 0.09 0 0.08 0.09 0 0.1 0.09 0 0 0.095 0 0.02 0.095 0 0.04 0.095 0 0.06 0.095 0 0.08 0.095 0 0.1 0.095 0 0 0.1 0 0.02 0.1 0 0.04 0.1 0 0.06 0.1 0 0.08 0.1 0 0.1 0.1 0 0 0.105 0 0.02 0.105 0 0.04 0.105 0 0.06 0.105 0 0.08 0.105 0 0.1 0.105 0 0 0.11 0 0.02 0.11 0 0.04 0.11 0 0.06 0.11 0 0.08 0.11 0 0.1 0.11 0 0 0.115 0 0.02 0.115 0 0.04 0.115 0 0.06 0.115 0 0.08 0.115 0 0.1 0.115 0 0 0.12 0 0.02 0.12 0 0.04 0.12 0 0.06 0.12 0 0.08 0.12 0 0.1 0.12 0 0 0.125 0 0.02 0.125 0 0.04 0.125 0 0.06 0.125 0 0.08 0.125 0 0.1 0.125 0 0 0.13 0 0.02 0.13 0 0.04 0.13 0 0.06 0.13 0 0.08 0.13 0 0.1 0.13 0 0 0.135 0 0.02 0.135 0 0.04 0.135 0 0.06 0.135 0 0.08 0.135 0 0.1 0.135 0 0 0.14 0 0.02 0.14 0 0.04 0.14 0 0.06 0.14 0 0.08 0.14 0 0.1 0.14 0 0 0.145 0 0.02 0.145 0 0.04 0.145 0 0.06 0.145 0 0.08 0.145 0 0.1 0.145 0 0 0.15 0 0.02 0.15 0 0.04 0.15 0 0.06 0.15 0 0.08 0.15 0 0.1 0.15 0 0 0.155 0 0.02 0.155 0 0.04 0.155 0 0.06 0.155 0 0.08 0.155 0 0.1 0.155 0 0 0.16 0 0.02 0.16 0 0.04 0.16 0 0.06 0.16 0 0.08 0.16 0 0.1 0.16 0 0 0.165 0 0.02 0.165 0 0.04 0.165 0 0.06 0.165 0 0.08 0.165 0 0.1 0.165 0 0 0.17 0 0.02 0.17 0 0.04 0.17 0 0.06 0.17 0 0.08 0.17 0 0.1 0.17 0 0 0.175 0 0.02 0.175 0 0.04 0.175 0 0.06 0.175 0 0.08 0.175 0 0.1 0.175 0 0 0.18 0 0.02 0.18 0 0.04 0.18 0 0.06 0.18 0 0.08 0.18 0 0.1 0.18 0 0 0.185 0 0.02 0.185 0 0.04 0.185 0 0.06 0.185 0 0.08 0.185 0 0.1 0.185 0 0 0.19 0 0.02 0.19 0 0.04 0.19 0 0.06 0.19 0 0.08 0.19 0 0.1 0.19 0 0 0.195 0 0.02 0.195 0 0.04 0.195 0 0.06 0.195 0 0.08 0.195 0 0.1 0.195 0 0 0.2 0 0.02 0.2 0 0.04 0.2 0 0.06 0.2 0 0.08 0.2 0 0.1 0.2 0 0 0.205 0 0.02 0.205 0 0.04 0.205 0 0.06 0.205 0 0.08 0.205 0 0.1 0.205 0 0 0.21 0 0.02 0.21 0 0.04 0.21 0 0.06 0.21 0 0.08 0.21 0 0.1 0.21 0 0 0.215 0 0.02 0.215 0 0.04 0.215 0 0.06 0.215 0 0.08 0.215 0 0.1 0.215 0 0 0.22 0 0.02 0.22 0 0.04 0.22 0 0.06 0.22 0 0.08 0.22 0 0.1 0.22 0 0 0.225 0 0.02 0.225 0 0.04 0.225 0 0.06 0.225 0 0.08 0.225 0 0.1 0.225 0 0 0.23 0 0.02 0.23 0 0.04 0.23 0 0.06 0.23 0 0.08 0.23 0 0.1 0.23 0 0 0.235 0 0.02 0.235 0 0.04 0.235 0 0.06 0.235 0 0.08 0.235 0 0.1 0.235 0 0 0.24 0 0.02 0.24 0 0.04 0.24 0 0.06 0.24 0 0.08 0.24 0 0.1 0.24 0 0 0.245 0 0.02 0.245 0 0.04 0.245 0 0.06 0.245 0 0.08 0.245 0 0.1 0.245 0 0 0.25 0 0.02 0.25 0 0.04 0.25 0 0.06 0.25 0 0.08 0.25 0 0.1 0.25 0 0 0.255 0 0.02 0.255 0 0.04 0.255 0 0.06 0.255 0 0.08 0.255 0 0.1 0.255 0 0 0.26 0 0.02 0.26 0 0.04 0.26 0 0.06 0.26 0 0.08 0.26 0 0.1 0.26 0 0 0.265 0 0.02 0.265 0 0.04 0.265 0 0.06 0.265 0 0.08 0.265 0 0.1 0.265 0 0 0.27 0 0.02 0.27 0 0.04 0.27 0 0.06 0.27 0 0.08 0.27 0 0.1 0.27 0 0 0.275 0 0.02 0.275 0 0.04 0.275 0 0.06 0.275 0 0.08 0.275 0 0.1 0.275 0 0 0.28 0 0.02 0.28 0 0.04 0.28 0 0.06 0.28 0 0.08 0.28 0 0.1 0.28 0 0 0.285 0 0.02 0.285 0 0.04 0.285 0 0.06 0.285 0 0.08 0.285 0 0.1 0.285 0 0 0.29 0 0.02 0.29 0 0.04 0.29 0 0.06 0.29 0 0.08 0.29 0 0.1 0.29 0 0 0.295 0 0.02 0.295 0 0.04 0.295 0 0.06 0.295 0 0.08 0.295 0 0.1 0.295 0 0 0.3 0 0.02 0.3 0 0.04 0.3 0 0.06 0.3 0 0.08 0.3 0 0.1 0.3 0 0 0.305 0 0.02 0.305 0 0.04 0.305 0 0.06 0.305 0 0.08 0.305 0 0.1 0.305 0 0 0.31 0 0.02 0.31 0 0.04 0.31 0 0.06 0.31 0 0.08 0.31 0 0.1 0.31 0 0 0.315 0 0.02 0.315 0 0.04 0.315 0 0.06 0.315 0 0.08 0.315 0 0.1 0.315 0 0 0.32 0 0.02 0.32 0 0.04 0.32 0 0.06 0.32 0 0.08 0.32 0 0.1 0.32 0 0 0.325 0 0.02 0.325 0 0.04 0.325 0 0.06 0.325 0 0.08 0.325 0 0.1 0.325 0 0 0.33 0 0.02 0.33 0 0.04 0.33 0 0.06 0.33 0 0.08 0.33 0 0.1 0.33 0 0 0.335 0 0.02 0.335 0 0.04 0.335 0 0.06 0.335 0 0.08 0.335 0 0.1 0.335 0 0 0.34 0 0.02 0.34 0 0.04 0.34 0 0.06 0.34 0 0.08 0.34 0 0.1 0.34 0 0 0.345 0 0.02 0.345 0 0.04 0.345 0 0.06 0.345 0 0.08 0.345 0 0.1 0.345 0 0 0.35 0 0.02 0.35 0 0.04 0.35 0 0.06 0.35 0 0.08 0.35 0 0.1 0.35 0 0 0.355001 0 0.02 0.355001 0 0.04 0.355001 0 0.06 0.355001 0 0.08 0.355001 0 0.1 0.355001 0 0 0.360005 0 0.02 0.360005 0 0.04 0.360005 0 0.06 0.360005 0 0.08 0.360005 0 0.1 0.360005 0 0 0.365016 0 0.02 0.365016 0 0.04 0.365016 0 0.06 0.365016 0 0.08 0.365016 0 0.1 0.365016 0 0 0.370047 0 0.02 0.370047 0 0.04 0.370047 0 0.06 0.370047 0 0.08 0.370047 0 0.1 0.370047 0 0 0.375119 0 0.02 0.375119 0 0.04 0.375119 0 0.06 0.375119 0 0.08 0.375119 0 0.1 0.375119 0 0 0.380263 0 0.02 0.380263 0 0.04 0.380263 0 0.06 0.380263 0 0.08 0.380263 0 0.1 0.380263 0 0 0.385517 0 0.02 0.385517 0 0.04 0.385517 0 0.06 0.385517 0 0.08 0.385517 0 0.1 0.385517 0 0 0.390917 0 0.02 0.390917 0 0.04 0.390917 0 0.06 0.390917 0 0.08 0.390917 0 0.1 0.390917 0 0 0.396493 0 0.02 0.396493 0 0.04 0.396493 0 0.06 0.396493 0 0.08 0.396493 0 0.1 0.396493 0 0 0.402272 0 0.02 0.402272 0 0.04 0.402272 0 0.06 0.402272 0 0.08 0.402272 0 0.1 0.402272 0 0 0.408279 0 0.02 0.408279 0 0.04 0.408279 0 0.06 0.408279 0 0.08 0.408279 0 0.1 0.408279 0 0 0.414539 0 0.02 0.414539 0 0.04 0.414539 0 0.06 0.414539 0 0.08 0.414539 0 0.1 0.414539 0 0 0.421079 0 0.02 0.421079 0 0.04 0.421079 0 0.06 0.421079 0 0.08 0.421079 0 0.1 0.421079 0 0 0.427932 0 0.02 0.427932 0 0.04 0.427932 0 0.06 0.427932 0 0.08 0.427932 0 0.1 0.427932 0 0 0.435132 0 0.02 0.435132 0 0.04 0.435132 0 0.06 0.435132 0 0.08 0.435132 0 0.1 0.435132 0 0 0.442723 0 0.02 0.442723 0 0.04 0.442723 0 0.06 0.442723 0 0.08 0.442723 0 0.1 0.442723 0 0 0.450753 0 0.02 0.450753 0 0.04 0.450753 0 0.06 0.450753 0 0.08 0.450753 0 0.1 0.450753 0 0 0.459281 0 0.02 0.459281 0 0.04 0.459281 0 0.06 0.459281 0 0.08 0.459281 0 0.1 0.459281 0 0 0.468374 0 0.02 0.468374 0 0.04 0.468374 0 0.06 0.468374 0 0.08 0.468374 0 0.1 0.468374 0 0 0.478112 0 0.02 0.478112 0 0.04 0.478112 0 0.06 0.478112 0 0.08 0.478112 0 0.1 0.478112 0 0 0.488577 0 0.02 0.488577 0 0.04 0.488577 0 0.06 0.488577 0 0.08 0.488577 0 0.1 0.488577 0 0 0.499834 0 0.02 0.499834 0 0.04 0.499834 0 0.06 0.499834 0 0.08 0.499834 0 0.1 0.499834 0 0 0.511822 0 0.02 0.511822 0 0.04 0.511822 0 0.06 0.511822 0 0.08 0.511822 0 0.1 0.511822 0 0 0.524088 0 0.02 0.524088 0 0.04 0.524088 0 0.06 0.524088 0 0.08 0.524088 0 0.1 0.524088 0 0 0.536184 0 0.02 0.536184 0 0.04 0.536184 0 0.06 0.536184 0 0.08 0.536184 0 0.1 0.536184 0 0 0.548113 0 0.02 0.548113 0 0.04 0.548113 0 0.06 0.548113 0 0.08 0.548113 0 0.1 0.548113 0 0 0.559926 0 0.02 0.559926 0 0.04 0.559926 0 0.06 0.559926 0 0.08 0.559926 0 0.1 0.559926 0 0 0.571687 0 0.02 0.571687 0 0.04 0.571687 0 0.06 0.571687 0 0.08 0.571687 0 0.1 0.571687 0 0 0.583435 0 0.02 0.583435 0 0.04 0.583435 0 0.06 0.583435 0 0.08 0.583435 0 0.1 0.583435 0 0 0.595192 0 0.02 0.595192 0 0.04 0.595192 0 0.06 0.595192 0 0.08 0.595192 0 0.1 0.595192 0 0 0.597802 0 0.02 0.597802 0 0.04 0.597802 0 0.06 0.597802 0 0.08 0.597802 0 0.1 0.597802 0 0 0.600339 0 0.02 0.600339 0 0.04 0.600339 0 0.06 0.600339 0 0.08 0.600339 0 0.1 0.600339 0 0 0.602829 0 0.02 0.602829 0 0.04 0.602829 0 0.06 0.602829 0 0.08 0.602829 0 0.1 0.602829 0 0 0.60529 0 0.02 0.60529 0 0.04 0.60529 0 0.06 0.60529 0 0.08 0.60529 0 0.1 0.60529 0 0 0.607728 0 0.02 0.607728 0 0.04 0.607728 0 0.06 0.607728 0 0.08 0.607728 0 0.1 0.607728 0 0 0.610151 0 0.02 0.610151 0 0.04 0.610151 0 0.06 0.610151 0 0.08 0.610151 0 0.1 0.610151 0 0 0.612562 0 0.02 0.612562 0 0.04 0.612562 0 0.06 0.612562 0 0.08 0.612562 0 0.1 0.612562 0 0 0.614967 0 0.02 0.614967 0 0.04 0.614967 0 0.06 0.614967 0 0.08 0.614967 0 0.1 0.614967 0 0 0.61737 0 0.02 0.61737 0 0.04 0.61737 0 0.06 0.61737 0 0.08 0.61737 0 0.1 0.61737 0 0 0.619774 0 0.02 0.619774 0 0.04 0.619774 0 0.06 0.619774 0 0.08 0.619774 0 0.1 0.619774 0 0 0.62218 0 0.02 0.62218 0 0.04 0.62218 0 0.06 0.62218 0 0.08 0.62218 0 0.1 0.62218 0 0 0.624588 0 0.02 0.624588 0 0.04 0.624588 0 0.06 0.624588 0 0.08 0.624588 0 0.1 0.624588 0 0 0.626994 0 0.02 0.626994 0 0.04 0.626994 0 0.06 0.626994 0 0.08 0.626994 0 0.1 0.626994 0 0 0.629393 0 0.02 0.629393 0 0.04 0.629393 0 0.06 0.629393 0 0.08 0.629393 0 0.1 0.629393 0 0 0.631786 0 0.02 0.631786 0 0.04 0.631786 0 0.06 0.631786 0 0.08 0.631786 0 0.1 0.631786 0 0 0.634174 0 0.02 0.634174 0 0.04 0.634174 0 0.06 0.634174 0 0.08 0.634174 0 0.1 0.634174 0 0 0.636557 0 0.02 0.636557 0 0.04 0.636557 0 0.06 0.636557 0 0.08 0.636557 0 0.1 0.636557 0 0 0.638938 0 0.02 0.638938 0 0.04 0.638938 0 0.06 0.638938 0 0.08 0.638938 0 0.1 0.638938 0 0 0.641317 0 0.02 0.641317 0 0.04 0.641317 0 0.06 0.641317 0 0.08 0.641317 0 0.1 0.641317 0 0 0.643694 0 0.02 0.643694 0 0.04 0.643694 0 0.06 0.643694 0 0.08 0.643694 0 0.1 0.643694 0 0 0.646071 0 0.02 0.646071 0 0.04 0.646071 0 0.06 0.646071 0 0.08 0.646071 0 0.1 0.646071 0 0 0.648447 0 0.02 0.648447 0 0.04 0.648447 0 0.06 0.648447 0 0.08 0.648447 0 0.1 0.648447 0 0 0.650823 0 0.02 0.650823 0 0.04 0.6
[...]
			<PointData Scalars="VitesseX">
				<DataArray Name="VitesseX" type="Float32" format="ascii">
 0 -2.23313e-15 -3.88468e-15 -5.49903e-15 -1.2593e-14 0 0 -2.0818e-15 -3.46919e-15 -5.72221e-15 -1.23828e-14 0 0 -1.65946e-15 -2.83582e-15 -5.83379e-15 -1.16917e-14 0 0 -5.01776e-16 -2.85427e-15 -5.01031e-15 -1.18084e-14 0 0 2.22764e-16 -1.95493e-15 -4.53082e-15 -1.20161e-14 0 0 6.50882e-17 -1.2138e-15 -4.72776e-15 -1.0967e-14 0 0 7.83712e-16 -2.65542e-15 -4.79351e-15 -1.04382e-14 0 0 1.02984e-15 -4.28398e-15 -5.30882e-15 -1.07357e-14 0 0 3.45265e-16 -5.25498e-15 -6.06009e-15 -1.11091e-14 0 0 -9.39446e-16 -6.90183e-15 -4.93177e-15 -1.22481e-14 0 0 -2.42472e-15 -8.09882e-15 -3.7989e-15 -1.27478e-14 0 0 -3.6929e-15 -6.97699e-15 -6.11999e-15 -1.37701e-14 0 0 -4.63899e-15 -7.17791e-15 -6.46997e-15 -1.60131e-14 0 0 -6.70907e-15 -4.34628e-15 -1.00401e-14 -1.54292e-14 0 0 -6.6202e-15 -5.01222e-15 -1.25106e-14 -1.36213e-14 0 0 -6.64274e-15 -8.75957e-15 -1.33063e-14 -7.81147e-15 0 0 -6.85991e-15 -9.35108e-15 -1.81965e-14 -1.51232e-15 0 0 -5.34698e-15 -1.12248e-14 -2.1002e-14 -1.73062e-15 0 0 -5.32199e-15 -1.22065e-14 -1.63132e-14 -4.82987e-15 0 0 -6.87248e-15 -1.25184e-14 -9.28801e-15 -1.11967e-14 0 0 -8.37695e-15 -1.20619e-14 -9.77364e-15 -1.31918e-14 0 0 -7.3727e-15 -1.1255e-14 -6.40668e-15 -8.56783e-15 0 0 -6.22799e-15 -1.0812e-14 5.39785e-16 -5.18426e-15 0 0 -5.40632e-15 -6.12502e-15 -4.01546e-15 2.98018e-15 0 0 -4.16856e-15 -2.10759e-15 -4.16209e-15 3.0844e-15 0 0 -1.90937e-15 1.11879e-15 2.16829e-17 -5.58987e-15 0 0 -1.71874e-15 6.52942e-15 7.15984e-17 -8.47271e-15 0 0 -4.03542e-15 7.69573e-15 -3.88311e-15 -1.73308e-15 0 0 -3.96025e-15 7.05469e-15 -8.22871e-15 6.08363e-15 0 0 3.95732e-15 -1.61905e-15 -6.11979e-15 8.29759e-15 0 0 5.01335e-15 -6.46303e-15 -1.46946e-14 1.71939e-14 0 0 1.57047e-16 -3.8433e-15 -2.06128e-14 2.23992e-14 0 0 -1.37008e-15 -5.90441e-15 -1.37709e-14 9.34946e-15 0 0 -3.41877e-15 -8.57857e-15 -5.20627e-15 -1.08835e-14 0 0 -2.05547e-15 -1.11619e-14 -5.60119e-15 -1.68907e-14 0 0 -6.83598e-16 -1.34079e-14 -9.22017e-15 -1.28116e-14 0 0 -1.84197e-15 -1.47674e-14 -1.0842e-14 -1.44986e-14 0 0 -5.09633e-15 -1.38422e-14 -1.51793e-14 -1.75373e-14 0 0 -5.07524e-15 -1.12187e-14 -1.95028e-14 -1.264e-14 0 0 -3.61484e-15 -1.00287e-14 -2.87518e-14 -6.27205e-15 0 0 -4.97557e-15 -6.68382e-15 -2.9617e-14 -1.51885e-14 0 0 -4.84645e-15 -4.13207e-15 -2.45117e-14 -2.45029e-14 0 0 -5.13473e-15 -4.06593e-15 -2.33782e-14 -2.66553e-14 0 0 -9.04499e-15 3.44301e-15 -1.97153e-14 -3.05799e-14 0 0 -5.43147e-15 -4.56961e-16 -1.43236e-14 -2.30374e-14 0 0 -6.84796e-16 -1.11511e-14 -1.17038e-14 -1.81626e-14 0 0 -3.81089e-15 -1.0545e-14 -1.59525e-14 -1.05263e-14 0 0 -4.90918e-15 -8.94344e-15 -2.41684e-14 -1.6108e-15 0 0 -9.45491e-15 -6.13177e-15 -2.4413e-14 -6.55569e-16 0 0 -1.25817e-14 -9.68082e-15 -1.31449e-14 -1.49796e-15 0 0 -1.07865e-14 -1.64754e-14 4.14712e-16 -6.96758e-15 0 0 -9.48008e-15 -1.63187e-14 -2.57464e-15 -3.30223e-16 0 0 -1.45528e-14 -6.26769e-15 -1.97656e-14 1.7385e-14 0 0 -1.80814e-14 -8.09054e-16 -1.25116e-14 9.77433e-15 0 0 -1.61875e-14 4.60365e-15 -6.96212e-15 -1.07265e-16 0 0 -2.16631e-14 9.84773e-15 -1.80665e-14 1.6931e-14 0 0 -1.81185e-14 -8.65219e-15 1.33177e-15 1.63327e-14 0 0 -1.74621e-14 -7.69884e-15 1.25812e-14 1.28365e-14 0 0 -1.73937e-14 6.67828e-15 1.16269e-14 1.64327e-14 0 0 -1.31672e-14 2.45326e-14 9.75994e-15 1.16896e-14 0 0 6.11682e-15 2.65592e-14 2.35382e-14 -1.40367e-16 0 0 2.56421e-14 2.93508e-14 4.80608e-14 -2.08116e-14 0 0 2.46591e-14 5.07835e-14 5.03854e-14 -2.29007e-14 0 0 3.94371e-14 5.28582e-14 4.39188e-14 9.95043e-16 0 0 4.19145e-14 6.38512e-14 3.28958e-14 2.5614e-14 0 0 4.64118e-14 6.06312e-14 4.28036e-14 2.0657e-14 0 0 4.30607e-14 5.85168e-14 5.56273e-14 1.18635e-14 0 0 2.12211e-14 7.41221e-14 4.75778e-14 3.27702e-14 0 0 2.4119e-14 6.26862e-14 5.97247e-14 2.88277e-14 0 0 2.94532e-14 5.0094e-14 7.30203e-14 2.09286e-14 0 0 1.96201e-14 5.04363e-14 5.93929e-14 4.5069e-14 0 0 8.40331e-15 3.01277e-14 6.38472e-14 6.38063e-14 0 0 -3.77547e-15 1.02255e-14 8.02049e-14 7.02667e-14 0 0 -1.6351e-14 2.13747e-14 7.50219e-14 6.15913e-14 0 0 -1.63849e-14 3.24943e-14 5.63718e-14 3.7841e-14 0 0 -4.26215e-15 1.9372e-14 4.67899e-14 3.39804e-14 0 0 -4.30955e-15 2.09756e-14 4.33271e-14 3.26861e-14 0 0 -5.47627e-15 1.60267e-14 5.06384e-14 3.15466e-14 0 0 -2.77459e-15 2.65674e-14 4.17504e-14 2.11886e-14 0 0 8.44799e-15 2.33692e-14 2.24678e-14 1.26659e-14 0 0 2.27208e-14 1.28975e-14 2.12606e-14 3.30943e-14 0 0 -2.42415e-15 3.98834e-14 8.09403e-15 5.0844e-14 0 0 3.20786e-15 2.12454e-14 8.76891e-15 6.06605e-14 0 0 1.88081e-14 1.92393e-14 2.5103e-14 3.63197e-14 0 0 4.44884e-14 1.82933e-14 2.03855e-14 1.10974e-14 0 0 1.89944e-14 1.5971e-14 2.31582e-14 8.43008e-15 0 0 -3.4955e-14 3.63848e-14 2.73178e-14 1.34898e-14 0 0 4.91929e-15 3.2489e-14 1.97238e-14 7.70711e-15 0 0 3.76239e-14 1.98854e-14 1.1156e-14 8.34829e-15 0 0 2.6404e-14 2.03298e-14 5.12531e-15 1.63393e-14 0 0 3.45138e-15 2.62975e-15 1.12349e-14 1.22194e-14 0 0 -2.78841e-15 -1.65189e-14 2.76965e-14 7.29423e-16 0 0 8.1342e-15 1.0657e-14 8.20293e-15 -5.09467e-15 0 0 -3.89639e-15 2.27593e-15 -7.94876e-15 -1.60521e-14 0 0 -2.14823e-14 -3.10796e-14 -1.84749e-14 -2.87922e-14 0 0 -2.64761e-14 -2.93211e-14 -3.23053e-14 -2.3117e-14 0 0 -3.82071e-15 -7.34e-15 -1.48379e-14 -8.11713e-15 0 0 2.56654e-14 3.30958e-14 1.91052e-14 2.06771e-14 0 0 5.14625e-14 7.0334e-14 8.47489e-14 4.04425e-14 0 0 7.23613e-14 1.1719e-13 1.28226e-13 4.00583e-14 0 0 7.74992e-14 1.64728e-13 1.64798e-13 5.1965e-14 0 0 1.63725e-13 2.48594e-13 2.83081e-13 1.09973e-13 0 0 1.85557e-13 2.23653e-13 3.02038e-13 6.7315e-14 0 0 1.70763e-13 2.40492e-13 3.00215e-13 4.15433e-14 0 0 1.6875e-13 2.50575e-13 2.67418e-13 1.13014e-13 0 0 1.7021e-13 2.57422e-13 2.68959e-13 1.43678e-13 0 0 1.57549e-13 2.70902e-13 2.92518e-13 1.36183e-13 0 0 1.78112e-13 2.40041e-13 2.91821e-13 1.37907e-13 0 0 1.6734e-13 1.77501e-13 2.54585e-13 1.21581e-13 0 0 1.00733e-13 1.15043e-13 1.71952e-13 8.28981e-14 0 0 1.43512e-14 -1.79153e-15 1.0542e-13 -3.30022e-15 0 0 -4.23526e-14 -8.31848e-14 5.23771e-14 -4.02819e-14 0 0 -6.51521e-14 -1.03033e-13 -6.42104e-14 -7.30287e-14 0 0 -7.90298e-14 -1.3012e-13 -7.54998e-14 -5.21833e-14 0 0 -5.02954e-14 -1.38037e-13 -1.2961e-14 -3.16611e-14 0 0 -1.20259e-14 -1.88202e-13 4.03992e-14 -5.46895e-14 0 0 5.12235e-14 -2.50089e-13 1.55907e-13 -1.14779e-13 0 0 9.68633e-14 -2.10512e-13 1.71241e-13 -1.22547e-13 0 0 7.62011e-14 -1.23592e-13 1.18077e-13 -9.78731e-14 0 0 5.52694e-14 -2.23488e-14 4.88103e-14 -5.57732e-14 0 0 3.46401e-14 7.28201e-14 1.65816e-14 -8.55023e-15 0 0 6.22756e-14 3.59669e-14 1.07721e-13 -5.04551e-14 0 0 7.6968e-14 1.10188e-14 1.65738e-13 -9.81945e-14 0 0 5.88701e-14 1.0238e-13 1.13594e-13 -1.07999e-13 0 0 5.74563e-14 1.88829e-13 1.53592e-14 -1.26778e-14 0 0 6.4907e-14 1.8075e-13 3.45324e-15 7.72111e-14 0 0 7.52139e-14 1.34466e-13 7.37168e-14 2.49266e-14 0 0 6.74835e-14 9.32855e-14 1.00966e-13 3.53197e-14 0 0 1.32717e-14 1.37072e-13 4.07933e-15 1.15958e-13 0 0 -2.86646e-14 1.9478e-13 -4.36748e-14 9.55229e-14 0 0 9.10907e-15 1.42485e-13 4.92349e-15 1.1139e-13 0 0 5.03621e-14 -4.36353e-15 1.327e-13 1.04377e-13 0 0 3.4325e-14 -8.48979e-14 2.01319e-13 9.0538e-14 0 0 2.16727e-14 -2.59722e-14 1.21371e-13 8.17624e-14 0 0 -1.09143e-14 4.91247e-14 2.79263e-15 1.93688e-14 0 0 -3.14218e-14 5.69171e-14 3.98045e-14 6.36892e-15 0 0 1.02368e-14 4.40292e-14 5.28619e-14 5.81984e-14 0 0 1.64581e-14 2.5481e-14 7.70611e-15 6.21346e-14 0 0 2.15384e-14 3.98233e-15 8.74966e-14 7.15819e-14 0 0 1.90697e-14 2.93532e-14 7.8045e-14 6.30184e-14 0 0 2.09977e-14 2.26591e-14 8.22748e-14 3.58832e-14 0 0 3.36254e-14 3.47324e-14 7.33502e-14 8.00298e-14 0 0 4.47608e-14 5.16768e-14 7.27089e-14 6.03505e-14 0 0 4.9152e-14 5.08809e-14 9.71602e-14 3.91351e-14 0 0 3.91477e-14 6.58684e-14 8.16913e-14 4.10846e-14 0 0 4.16495e-14 6.84087e-14 9.76454e-14 3.36339e-14 0 0 4.05275e-14 7.00082e-14 1.00147e-13 4.7996e-14 0 0 4.42785e-14 7.76867e-14 7.8187e-14 8.23224e-14 0 0 4.57968e-14 8.08163e-14 7.53224e-14 7.48202e-14 0 0 5.26249e-14 6.16228e-14 1.10961e-13 4.57948e-14 0 0 6.18976e-14 4.59698e-14 1.0334e-13 8.54623e-14 0 0 5.72797e-14 4.47936e-14 9.30715e-14 1.02637e-13 0 0 4.0209e-14 6.32634e-14 9.83148e-14 8.08867e-14 0 0 3.88581e-14 6.33661e-14 8.15101e-14 9.04972e-14 0 0 4.71732e-14 2.71187e-14 1.08434e-13 5.68438e-14 0 0 5.50653e-14 1.97585e-14 8.44111e-14 6.77052e-14 0 0 6.74148e-14 1.30361e-14 3.99149e-14 1.13007e-13 0 0 7.8955e-14 2.18076e-15 2.57698e-14 1.25331e-13 0 0 6.02608e-14 3.49979e-14 -1.97426e-14 1.6026e-13 0 0 3.70334e-14 6.09018e-14 -4.1874e-14 1.48671e-13 0 0 1.77506e-14 5.30002e-14 -1.90185e-14 1.07099e-13 0 0 2.03771e-14 2.63437e-14 -1.67561e-14 7.0194e-14 0 0 6.05606e-15 3.37918e-14 -6.43434e-14 8.95726e-14 0 0 -1.78683e-14 2.25973e-14 -9.49612e-14 1.2978e-13 0 0 -2.94781e-15 -3.28445e-14 -4.05918e-14 9.01328e-14 0 0 -2.47245e-14 -4.31351e-14 2.01686e-14 -4.72041e-15 0 0 -3.71557e-14 -5.6839e-14 2.3758e-14 -2.46996e-14 0 0 -5.17111e-14 -3.02975e-14 -6.9769e-14 7.17359e-14 0 0 -2.68647e-14 -3.52015e-14 -1.1831e-13 8.73023e-14 0 0 3.65907e-14 -1.01061e-13 -6.44421e-14 5.08056e-14 0 0 2.84416e-14 -8.90965e-14 -3.42561e-14 2.0914e-14 0 0 6.33009e-15 -1.95734e-14 -4.46668e-14 -1.70776e-14 0 0 -5.50458e-15 8.11046e-15 -4.95174e-14 -2.40058e-14 0 0 -3.51807e-14 2.73798e-14 -5.471e-14 3.32187e-15 0 0 -1.08286e-14 -4.12661e-14 4.78891e-15 4.1368e-14 0 0 3.66773e-14 -1.20131e-13 4.95221e-14 4.49971e-14 0 0 1.23704e-14 -4.7247e-14 -6.45234e-15 4.70079e-14 0 0 -1.68259e-14 -2.25319e-14 3.28047e-14 2.94144e-14 0 0 -2.89299e-15 -3.68314e-14 8.18607e-14 7.76824e-15 0 0 1.86395e-14 -3.34003e-14 7.49295e-14 1.07309e-15 0 0 2.5462e-14 -2.16957e-14 4.03713e-14 1.44647e-15 0 0 -1.15722e-14 3.27178e-14 1.09442e-14 -2.24177e-14 0 0 -9.37025e-15 2.47689e-14 3.16456e-14 -1.10016e-13 0 0 3.71728e-14 -2.09492e-14 -1.08068e-15 -8.09459e-14 0 0 2.85277e-14 -1.07228e-14 -4.60572e-14 -7.82235e-15 0 0 -4.71835e-15 -1.27028e-14 -1.66489e-14 -2.78744e-14 0 0 -1.85679e-14 -3.89445e-14 3.42191e-14 -7.98702e-14 0 0 -8.16178e-15 -3.12268e-14 1.31089e-14 -8.2963e-14 0 0 -1.08114e-14 -1.66695e-14 -1.63271e-14 -4.94251e-14 0 0 -1.3494e-15 -4.07815e-14 -4.48132e-15 -6.24928e-14 0 0 1.78475e-14 -5.37001e-14 -2.49225e-14 -5.84402e-14 0 0 -7.57543e-15 -4.97978e-14 2.11594e-15 -5.69789e-14 0 0 -7.8916e-15 -6.09811e-14 -5.25653e-16 -2.75582e-14 0 0 -9.21725e-15 -5.12538e-14 -1.7884e-14 -2.36405e-14 0 0 -1.87054e-14 -4.63413e-14 -2.70048e-14 -9.15957e-15 0 0 -1.47121e-14 -5.67705e-14 -6.31454e-14 1.60664e-14 0 0 -3.23236e-14 -4.25631e-14 -4.007e-14 -2.55797e-14 0 0 -2.86785e-14 -3.66598e-14 -2.16896e-14 -1.65058e-14 0 0 -3.61555e-14 -5.12646e-15 -4.36558e-14 1.2659e-14 0 0 -1.5418e-14 3.70336e-15 -4.74024e-14 6.6043e-15 0 0 2.57582e-14 -2.85635e-14 -3.38684e-14 6.10773e-16 0
				</DataArray>
				<DataArray Name="VitesseY" type="Float32" format="ascii">