<?xml version="1.0"?>
<VTKFile type="PolyData">
	<PolyData>
		<Piece NumberOfPoints="1206" NumberOfPolys="1000">
			<Points>
				<DataArray type="Float32" NumberOfComponents="3" format="ascii">
 0 0 0 0.02 0 0 0.04 0 0 0.06 0 0 0.08 0 0 0.1 0 0 0 0.005 0 0.02 0.005 0 0.04 0.005 0 0.06 0.005 0 0.08 0.005 0 0.1 0.005 0 0 0.01 0 0.02 0.01 0 0.04 0.01 0 0.06 0.01 0 0.08 0.01 0 0.1 0.01 0 0 0.015 0 0.02 0.015 0 0.04 0.015 0 0.06 0.015 0 0.08 0.015 0 0.1 0.015 0 0 0.02 0 0.02 0.02 0 0.04 0.02 0 0.06 0.02 0 0.08 0.02 0 0.1 0.02 0 0 0.025 0 0.02 0.025 0 0.04 0.025 0 0.06 0.025 0 0.08 0.025 0 0.1 0.025 0 0 0.03 0 0.02 0.03 0 0.04 0.03 0 0.06 0.03 0 0.08 0.03 0 0.1 0.03 0 0 0.035 0 0.02 0.035 0 0.04 0.035 0 0.06 0.035 0 0.08 0.035 0 0.1 0.035 0 0 0.04 0 0.02 0.04 0 0.04 0.04 0 0.06 0.04 0 0.08 0.04 0 0.1 0.04 0 0 0.045 0 0.02 0.045 0 0.04 0.045 0 0.06 0.045 0 0.08 0.045 0 0.1 0.045 0 0 0.05 0 0.02 0.05 0 0.04 0.05 0 0.06 0.05 0 0.08 0.05 0 0.1 0.05 0 0 0.055 0 0.02 0.055 0 0.04 0.055 0 0.06 0.055 0 0.08 0.055 0 0.1 0.055 0 0 0.06 0 0.02 0.06 0 0.04 0.06 0 0.06 0.06 0 0.08 0.06 0 0.1 0.06 0 0 0.065 0 0.02 0.065 0 0.04 0.065 0 0.06 0.065 0 0.08 0.065 0 0.1 0.065 0 0 0.07 0 0.02 0.07 0 0.04 0.07 0 0.06 0.07 0 0.08 0.07 0 0.1 0.07 0 0 0.075 0 0.02 0.075 0 0.04 0.075 0 0.06 0.075 0 0.08 0.075 0 0.1 0.075 0 0 0.08 0 0.02 0.08 0 0.04 0.08 0 0.06 0.08 0 0.08 0.08 0 0.1 0.08 0 0 0.085 0 0.02 0.085 0 0.04 0.085 0 0.06 0.085 0 0.08 0.085 0 0.1 0.085 0 0 0.09 0 0.02 0.09 0 0.04 0.09 0 0.06 0.09 0 0.08 0.09 0 0.1 0.09 0 0 0.095 0 0.02 0.095 0 0.04 0.095 0 0.06 0.095 0 0.08 0.095 0 0.1 0.095 0 0 0.1 0 0.02 0.1 0 0.04 0.1 0 0.06 0.1 0 0.08 0.1 0 0.1 0.1 0 0 0.105 0 0.02 0.105 0 0.04 0.105 0 0.06 0.105 0 0.08 0.105 0 0.1 0.105 0 0 0.11 0 0.02 0.11 0 0.04 0.11 0 0.06 0.11 0 0.08 0.11 0 0.1 0.11 0 0 0.115 0 0.02 0.115 0 0.04 0.115 0 0.06 0.115 0 0.08 0.115 0 0.1 0.115 0 0 0.12 0 0.02 0.12 0 0.04 0.12 0 0.06 0.12 0 0.08 0.12 0 0.1 0.12 0 0 0.125 0 0.02 0.125 0 0.04 0.125 0 0.06 0.125 0 0.08 0.125 0 0.1 0.125 0 0 0.13 0 0.02 0.13 0 0.04 0.13 0 0.06 0.13 0 0.08 0.13 0 0.1 0.13 0 0 0.135 0 0.02 0.135 0 0.04 0.135 0 0.06 0.135 0 0.08 0.135 0 0.1 0.135 0 0 0.14 0 0.02 0.14 0 0.04 0.14 0 0.06 0.14 0 0.08 0.14 0 0.1 0.14 0 0 0.145 0 0.02 0.145 0 0.04 0.145 0 0.06 0.145 0 0.08 0.145 0 0.1 0.145 0 0 0.15 0 0.02 0.15 0 0.04 0.15 0 0.06 0.15 0 0.08 0.15 0 0.1 0.15 0 0 0.155 0 0.02 0.155 0 0.04 0.155 0 0.06 0.155 0 0.08 0.155 0 0.1 0.155 0 0 0.16 0 0.02 0.16 0 0.04 0.16 0 0.06 0.16 0 0.08 0.16 0 0.1 0.16 0 0 0.165 0 0.02 0.165 0 0.04 0.165 0 0.06 0.165 0 0.08 0.165 0 0.1 0.165 0 0 0.17 0 0.02 0.17 0 0.04 0.17 0 0.06 0.17 0 0.08 0.17 0 0.1 0.17 0 0 0.175 0 0.02 0.175 0 0.04 0.175 0 0.06 0.175 0 0.08 0.175 0 0.1 0.175 0 0 0.18 0 0.02 0.18 0 0.04 0.18 0 0.06 0.18 0 0.08 0.18 0 0.1 0.18 0 0 0.185 0 0.02 0.185 0 0.04 0.185 0 0.06 0.185 0 0.08 0.185 0 0.1 0.185 0 0 0.19 0 0.02 0.19 0 0.04 0.19 0 0.06 0.19 0 0.08 0.19 0 0.1 0.19 0 0 0.195 0 0.02 0.195 0 0.04 0.195 0 0.06 0.195 0 0.08 0.195 0 0.1 0.195 0 0 0.2 0 0.02 0.2 0 0.04 0.2 0 0.06 0.2 0 0.08 0.2 0 0.1 0.2 0 0 0.205 0 0.02 0.205 0 0.04 0.205 0 0.06 0.205 0 0.08 0.205 0 0.1 0.205 0 0 0.21 0 0.02 0.21 0 0.04 0.21 0 0.06 0.21 0 0.08 0.21 0 0.1 0.21 0 0 0.215 0 0.02 0.215 0 0.04 0.215 0 0.06 0.215 0 0.08 0.215 0 0.1 0.215 0 0 0.22 0 0.02 0.22 0 0.04 0.22 0 0.06 0.22 0 0.08 0.22 0 0.1 0.22 0 0 0.225 0 0.02 0.225 0 0.04 0.225 0 0.06 0.225 0 0.08 0.225 0 0.1 0.225 0 0 0.23 0 0.02 0.23 0 0.04 0.23 0 0.06 0.23 0 0.08 0.23 0 0.1 0.23 0 0 0.235 0 0.02 0.235 0 0.04 0.235 0 0.06 0.235 0 0.08 0.235 0 0.1 0.235 0 0 0.24 0 0.02 0.24 0 0.04 0.24 0 0.06 0.24 0 0.08 0.24 0 0.1 0.24 0 0 0.245 0 0.02 0.245 0 0.04 0.245 0 0.06 0.245 0 0.08 0.245 0 0.1 0.245 0 0 0.25 0 0.02 0.25 0 0.04 0.25 0 0.06 0.25 0 0.08 0.25 0 0.1 0.25 0 0 0.255 0 0.02 0.255 0 0.04 0.255 0 0.06 0.255 0 0.08 0.255 0 0.1 0.255 0 0 0.26 0 0.02 0.26 0 0.04 0.26 0 0.06 0.26 0 0.08 0.26 0 0.1 0.26 0 0 0.265 0 0.02 0.265 0 0.04 0.265 0 0.06 0.265 0 0.08 0.265 0 0.1 0.265 0 0 0.27 0 0.02 0.27 0 0.04 0.27 0 0.06 0.27 0 0.08 0.27 0 0.1 0.27 0 0 0.275 0 0.02 0.275 0 0.04 0.275 0 0.06 0.275 0 0.08 0.275 0 0.1 0.275 0 0 0.28 0 0.02 0.28 0 0.04 0.28 0 0.06 0.28 0 0.08 0.28 0 0.1 0.28 0 0 0.285 0 0.02 0.285 0 0.04 0.285 0 0.06 0.285 0 0.08 0.285 0 0.1 0.285 0 0 0.29 0 0.02 0.29 0 0.04 0.29 0 0.06 0.29 0 0.08 0.29 0 0.1 0.29 0 0 0.295 0 0.02 0.295 0 0.04 0.295 0 0.06 0.295 0 0.08 0.295 0 0.1 0.295 0 0 0.300001 0 0.02 0.300001 0 0.04 0.300001 0 0.06 0.300001 0 0.08 0.300001 0 0.1 0.300001 0 0 0.305002 0 0.02 0.305002 0 0.04 0.305002 0 0.06 0.305002 0 0.08 0.305002 0 0.1 0.305002 0 0 0.310006 0 0.02 0.310006 0 0.04 0.310006 0 0.06 0.310006 0 0.08 0.310006 0 0.1 0.310006 0 0 0.315018 0 0.02 0.315018 0 0.04 0.315018 0 0.06 0.315018 0 0.08 0.315018 0 0.1 0.315018 0 0 0.320045 0 0.02 0.320045 0 0.04 0.320045 0 0.06 0.320045 0 0.08 0.320045 0 0.1 0.320045 0 0 0.325102 0 0.02 0.325102 0 0.04 0.325102 0 0.06 0.325102 0 0.08 0.325102 0 0.1 0.325102 0 0 0.33021 0 0.02 0.33021 0 0.04 0.33021 0 0.06 0.33021 0 0.08 0.33021 0 0.1 0.33021 0 0 0.335391 0 0.02 0.335391 0 0.04 0.335391 0 0.06 0.335391 0 0.08 0.335391 0 0.1 0.335391 0 0 0.340667 0 0.02 0.340667 0 0.04 0.340667 0 0.06 0.340667 0 0.08 0.340667 0 0.1 0.340667 0 0 0.346058 0 0.02 0.346058 0 0.04 0.346058 0 0.06 0.346058 0 0.08 0.346058 0 0.1 0.346058 0 0 0.351577 0 0.02 0.351577 0 0.04 0.351577 0 0.06 0.351577 0 0.08 0.351577 0 0.1 0.351577 0 0 0.357239 0 0.02 0.357239 0 0.04 0.357239 0 0.06 0.357239 0 0.08 0.357239 0 0.1 0.357239 0 0 0.363055 0 0.02 0.363055 0 0.04 0.363055 0 0.06 0.363055 0 0.08 0.363055 0 0.1 0.363055 0 0 0.369038 0 0.02 0.369038 0 0.04 0.369038 0 0.06 0.369038 0 0.08 0.369038 0 0.1 0.369038 0 0 0.3752 0 0.02 0.3752 0 0.04 0.3752 0 0.06 0.3752 0 0.08 0.3752 0 0.1 0.3752 0 0 0.381555 0 0.02 0.381555 0 0.04 0.381555 0 0.06 0.381555 0 0.08 0.381555 0 0.1 0.381555 0 0 0.388117 0 0.02 0.388117 0 0.04 0.388117 0 0.06 0.388117 0 0.08 0.388117 0 0.1 0.388117 0 0 0.394903 0 0.02 0.394903 0 0.04 0.394903 0 0.06 0.394903 0 0.08 0.394903 0 0.1 0.394903 0 0 0.40193 0 0.02 0.40193 0 0.04 0.40193 0 0.06 0.40193 0 0.08 0.40193 0 0.1 0.40193 0 0 0.409218 0 0.02 0.409218 0 0.04 0.409218 0 0.06 0.409218 0 0.08 0.409218 0 0.1 0.409218 0 0 0.416791 0 0.02 0.416791 0 0.04 0.416791 0 0.06 0.416791 0 0.08 0.416791 0 0.1 0.416791 0 0 0.424673 0 0.02 0.424673 0 0.04 0.424673 0 0.06 0.424673 0 0.08 0.424673 0 0.1 0.424673 0 0 0.432893 0 0.02 0.432893 0 0.04 0.432893 0 0.06 0.432893 0 0.08 0.432893 0 0.1 0.432893 0 0 0.441484 0 0.02 0.441484 0 0.04 0.441484 0 0.06 0.441484 0 0.08 0.441484 0 0.1 0.441484 0 0 0.450482 0 0.02 0.450482 0 0.04 0.450482 0 0.06 0.450482 0 0.08 0.450482 0 0.1 0.450482 0 0 0.459929 0 0.02 0.459929 0 0.04 0.459929 0 0.06 0.459929 0 0.08 0.459929 0 0.1 0.459929 0 0 0.469871 0 0.02 0.469871 0 0.04 0.469871 0 0.06 0.469871 0 0.08 0.469871 0 0.1 0.469871 0 0 0.480354 0 0.02 0.480354 0 0.04 0.480354 0 0.06 0.480354 0 0.08 0.480354 0 0.1 0.480354 0 0 0.491418 0 0.02 0.491418 0 0.04 0.491418 0 0.06 0.491418 0 0.08 0.491418 0 0.1 0.491418 0 0 0.503065 0 0.02 0.503065 0 0.04 0.503065 0 0.06 0.503065 0 0.08 0.503065 0 0.1 0.503065 0 0 0.515168 0 0.02 0.515168 0 0.04 0.515168 0 0.06 0.515168 0 0.08 0.515168 0 0.1 0.515168 0 0 0.52734 0 0.02 0.52734 0 0.04 0.52734 0 0.06 0.52734 0 0.08 0.52734 0 0.1 0.52734 0 0 0.539392 0 0.02 0.539392 0 0.04 0.539392 0 0.06 0.539392 0 0.08 0.539392 0 0.1 0.539392 0 0 0.551324 0 0.02 0.551324 0 0.04 0.551324 0 0.06 0.551324 0 0.08 0.551324 0 0.1 0.551324 0 0 0.563162 0 0.02 0.563162 0 0.04 0.563162 0 0.06 0.563162 0 0.08 0.563162 0 0.1 0.563162 0 0 0.574941 0 0.02 0.574941 0 0.04 0.574941 0 0.06 0.574941 0 0.08 0.574941 0 0.1 0.574941 0 0 0.586693 0 0.02 0.586693 0 0.04 0.586693 0 0.06 0.586693 0 0.08 0.586693 0 0.1 0.586693 0 0 0.598432 0 0.02 0.598432 0 0.04 0.598432 0 0.06 0.598432 0 0.08 0.598432 0 0.1 0.598432 0 0 0.610167 0 0.02 0.610167 0 0.04 0.610167 0 0.06 0.610167 0 0.08 0.610167 0 0.1 0.610167 0 0 0.6219 0 0.02 0.6219 0 0.04 0.6219 0 0.06 0.6219 0 0.08 0.6219 0 0.1 0.6219 0 0 0.633648 0 0.02 0.633648 0 0.04 0.633648 0 0.06 0.633648 0 0.08 0.633648 0 0.1 0.633648 0 0 0.636259 0 0.02 0.636259 0 0.04 0.636259 0 0.06 0.636259 0 0.08 0.636259 0 0.1 0.636259 0 0 0.638796 0 0.02 0.638796 0 0.04 0.638796 0 0.06 0.638796 0 0.08 0.638796 0 0.1 0.638796 0 0 0.641288 0 0.02 0.641288 0 0.04 0.641288 0 0.06 0.641288 0 0.08 0.641288 0 0.1 0.641288 0 0 0.643749 0 0.02 0.643749 0 0.04 0.643749 0 0.06 0.643749 0 0.08 0.643749 0 0.1 0.643749 0 0 0.646188 0 0.02 0.646188 0 0.04 0.646188 0 0.06 0.646188 0 0.08 0.646188 0 0.1 0.646188 0 0 0.648612 0 0.02 0.648612 0 0.04 0.648612 0 0.06 0.648612 0 0.08 0.648612 0 0.1 0.648612 0 0 0.651026 0 0.02 0.651026 0 0.04 0.651026 0 0.06 0.651026 0 0.08 0.651026 0 0.1 0.651026 0 0 0.653439 0 0.02 0.653439 0 0.04 0.653439 0 0.06 0.653439 0 0.08 0.653439 0 0.1 0.653439 0 0 0.655852 0 0.02 0.655852 0 0.04 0.655852 0 0.06 0.655852 0 0.08 0.655852 0 0.1 0.655852 0 0 0.65825 0 0.02 0.65825 0 0.04 0.65825 0 0.06 0.65825 0 0.08 0.65825 0 0.1 0.65825 0 0 0.660637 0 0.02 0.660637 0 0.04 0.660637 0 0.06 0.660637 0 0.08 0.660637 0 0.1 0.660637 0 0 0.663018 0 0.02 0.663018 0 0.04 0.663018 0 0.06 0.663018 0 0.08 0.663018 0 0.1 0.663018 0 0 0.665396 0 0.02 0.665396 0 0.04 0.665396 0 0.06 0.665396 0 0.08 0.665396 0 0.1 0.665396 0 0 0.667771 0 0.02 0.667771 0 0.04 0.667771 0 0.06 0.667771 0 0.08 0.667771 0 0.1 0.667771 0 0 0.670144 0 0.02 0.670144 0 0.04 0.670144 0 0.06 0.670144 0 0.08 0.670144 0 0.1 0.670144 0 0 0.672514 0 0.02 0.672514 0 0.04 0.672514 0 0.06 0.672514 0 0.08 0.672514 0 0.1 0.672514 0 0 0.674883 0 0.02 0.674883 0 0.04 0.674883 0 0.06 0.674883 0 0.08 0.674883 0 0.1 0.674883 0 0 0.67725 0 0.02 0.67725 0 0.04 0.67725 0 0.06 0.67725 0 0.08 0.67725 0 0.1 0.67725 0 0 0.679615 0 0.02 0.679615 0 0.04 0.679615 0 0.06 0.679615 0 0.08 0.679615 0 0.1 0.679615 0 0 0.681977 0 0.02 0.681977 0 0.04 0.681977 0 0.06 0.681977 0 0.08 0.681977 0 0.1 0.681977 0 0 0.684339 0 0.02
[...]
			<PointData Scalars="VitesseX">
				<DataArray Name="VitesseX" type="Float32" format="ascii">
 0 2.29225e-15 4.27293e-15 -5.96221e-15 1.01191e-14 0 0 2.46856e-15 4.29114e-15 -4.69129e-15 9.10928e-15 0 0 2.73289e-15 4.48774e-15 -3.01825e-15 8.08589e-15 0 0 2.29373e-15 5.53391e-15 -2.73658e-15 7.96374e-15 0 0 2.20446e-15 5.13047e-15 -1.08509e-15 7.61499e-15 0 0 1.57843e-15 4.11744e-15 5.81279e-17 1.03151e-14 0 0 6.48153e-16 3.65626e-15 4.98632e-16 1.18707e-14 0 0 6.51746e-16 2.87707e-15 1.75535e-15 9.27639e-15 0 0 1.84689e-15 1.22808e-15 3.74763e-15 5.34293e-15 0 0 2.02049e-15 2.51589e-15 3.70826e-15 2.19295e-15 0 0 4.62892e-16 6.12463e-15 1.20903e-15 -3.97534e-16 0 0 1.95766e-15 3.05866e-15 2.74206e-15 -2.52937e-15 0 0 5.39045e-15 -3.27747e-15 5.99651e-15 5.72732e-16 0 0 3.2611e-15 -3.42962e-15 2.96775e-15 1.00092e-14 0 0 7.18927e-16 -4.08791e-15 4.17806e-15 1.20959e-14 0 0 8.77902e-17 -1.31479e-15 3.06523e-15 1.04707e-14 0 0 -1.37781e-15 3.7972e-15 -2.78264e-15 1.12863e-14 0 0 -3.77374e-15 5.94179e-15 -4.02106e-15 1.00923e-14 0 0 -9.76057e-16 5.84139e-15 -6.47834e-15 7.55239e-15 0 0 7.47275e-16 8.25287e-15 -5.79447e-15 1.87088e-15 0 0 1.6727e-15 5.52564e-15 3.60972e-15 -3.35327e-15 0 0 3.12501e-15 2.40106e-15 6.90168e-15 -5.9859e-15 0 0 2.31891e-15 3.71035e-15 -4.22176e-17 -6.65804e-15 0 0 1.71588e-15 6.08919e-15 -1.01991e-14 -2.54711e-15 0 0 2.67152e-15 3.35304e-15 -6.18654e-15 -5.59022e-15 0 0 6.57922e-15 -5.85722e-15 7.29202e-15 -8.31054e-15 0 0 5.9894e-15 -3.58438e-15 8.20958e-15 -6.72897e-15 0 0 2.88948e-15 4.325e-15 7.72084e-16 -5.20265e-15 0 0 6.58116e-16 1.21158e-15 8.66847e-15 -6.20501e-15 0 0 -1.91999e-15 3.03975e-15 8.48614e-15 -1.13469e-15 0 0 -2.56063e-15 5.60602e-15 -6.23898e-15 6.48195e-15 0 0 2.41493e-15 -3.93306e-15 -1.11228e-14 6.84727e-15 0 0 -1.07952e-15 3.49307e-15 -1.53629e-14 2.01661e-15 0 0 -9.34233e-15 4.70386e-15 -4.48892e-15 -5.80353e-15 0 0 -5.82695e-15 -7.17018e-15 9.19074e-16 -8.20245e-16 0 0 3.86474e-15 -1.30446e-14 3.43664e-15 -5.27177e-15 0 0 4.18156e-15 -1.04747e-14 4.03891e-15 -1.24442e-14 0 0 2.46134e-16 -8.51299e-15 3.61863e-15 -1.66426e-14 0 0 1.63401e-15 -1.37961e-14 5.96216e-15 -1.96499e-14 0 0 -6.96684e-17 -8.03343e-15 -3.29937e-15 -1.04017e-14 0 0 -4.11476e-15 -9.7845e-15 9.57342e-16 -4.19922e-15 0 0 -1.34548e-14 -4.32419e-15 -8.33964e-16 -7.41565e-15 0 0 -1.12124e-14 -1.76162e-16 -4.19772e-15 7.85229e-15 0 0 -9.96372e-15 4.83809e-15 2.96349e-15 5.14026e-15 0 0 -6.10613e-15 5.10977e-15 4.25953e-16 8.25281e-17 0 0 2.46245e-15 -4.00924e-15 7.73726e-15 9.66933e-15 0 0 1.09966e-14 -5.81053e-15 2.36641e-14 -9.67972e-15 0 0 2.73573e-14 -1.50546e-14 4.73167e-14 -3.5017e-14 0 0 1.56888e-14 -2.89337e-15 6.9455e-14 -6.50669e-14 0 0 6.9925e-15 2.68244e-15 5.83309e-14 -5.30203e-14 0 0 9.58397e-16 1.02931e-14 2.8864e-14 -1.88133e-14 0 0 -1.47982e-14 1.65501e-14 1.82073e-14 -1.69743e-14 0 0 -2.96298e-15 -5.08364e-15 -6.93794e-15 -2.26894e-15 0 0 -1.83253e-15 -3.03057e-14 -2.07717e-14 1.36702e-14 0 0 -3.67675e-14 -2.84615e-14 -1.28785e-14 8.99786e-15 0 0 -3.80853e-14 -2.40993e-14 -2.52771e-14 1.09428e-14 0 0 -1.99614e-14 -4.95931e-14 -2.59024e-14 1.66781e-14 0 0 -3.03173e-14 -6.22186e-14 -1.60255e-15 -4.98466e-15 0 0 -4.51508e-14 -1.66946e-14 -1.48899e-14 -2.49843e-14 0 0 -1.70457e-14 -1.02511e-14 -3.17355e-14 -1.40174e-14 0 0 -7.17137e-15 -3.3249e-14 -1.63559e-14 2.39494e-15 0 0 -1.5148e-14 -2.90515e-14 -2.34932e-15 -9.35265e-15 0 0 -1.83294e-14 -1.01841e-14 -5.82369e-15 -1.84162e-14 0 0 -3.84406e-14 3.26975e-15 3.03783e-15 -2.10072e-14 0 0 -1.03927e-14 -2.03698e-14 2.0795e-14 -1.72143e-14 0 0 4.00719e-15 -1.8332e-14 -4.54651e-15 6.83456e-15 0 0 -6.475e-15 -8.1549e-15 -2.15351e-14 1.94468e-15 0 0 -1.367e-14 -2.5187e-14 -5.50104e-15 -9.73757e-15 0 0 -1.88196e-14 -3.38233e-14 -1.16501e-14 -1.84993e-15 0 0 -2.59552e-15 -1.70742e-14 -3.54787e-14 7.94463e-15 0 0 8.42365e-15 -2.23888e-16 -1.58885e-14 1.12881e-14 0 0 1.94034e-14 -2.13421e-14 1.52149e-14 -1.75934e-14 0 0 4.31984e-15 -1.24825e-15 -1.94411e-14 -6.69757e-15 0 0 3.18143e-15 2.57495e-14 -2.56031e-14 4.92919e-15 0 0 1.21046e-14 -1.26458e-15 1.46257e-14 -2.56274e-14 0 0 -1.74126e-14 -1.07467e-14 3.49105e-14 -3.9225e-14 0 0 -2.6375e-14 1.8453e-14 1.21709e-14 -2.4625e-14 0 0 9.53998e-15 1.21429e-14 -2.49477e-14 2.44e-14 0 0 7.61736e-15 -1.07366e-14 -1.78345e-14 3.04936e-14 0 0 -1.05318e-14 -5.0548e-15 4.18023e-15 2.78259e-15 0 0 2.0941e-15 -1.52099e-14 2.35095e-14 -3.74019e-14 0 0 -1.69766e-15 -3.05824e-14 2.10596e-14 -4.05581e-14 0 0 -1.21166e-14 -1.66674e-14 1.4402e-14 -1.83006e-14 0 0 -5.25253e-15 -1.35854e-14 2.18754e-14 -2.53117e-14 0 0 1.32187e-14 -1.11094e-14 1.20476e-15 1.39441e-16 0 0 3.90102e-14 -2.75783e-15 -1.09021e-15 1.29001e-14 0 0 3.73347e-14 -8.34945e-15 2.10423e-14 1.11139e-14 0 0 -1.38672e-15 1.15162e-14 2.3222e-14 -7.71315e-17 0 0 5.90521e-16 2.22721e-14 1.79533e-14 3.28167e-15 0 0 1.90551e-14 4.42007e-14 4.28068e-14 -5.11115e-15 0 0 3.75869e-14 8.19185e-14 6.66367e-14 2.45262e-14 0 0 3.25417e-14 7.97837e-14 6.46829e-14 5.52148e-14 0 0 -6.40374e-15 -6.68472e-15 1.80226e-14 -6.10164e-15 0 0 -9.97266e-14 -1.69641e-13 -1.55488e-13 -1.00356e-13 0 0 -2.45829e-13 -3.819e-13 -4.00087e-13 -2.34833e-13 0 0 -3.71393e-13 -5.98386e-13 -6.12638e-13 -3.82268e-13 0 0 -4.62087e-13 -7.46011e-13 -7.68697e-13 -4.66822e-13 0 0 -5.0747e-13 -8.19278e-13 -8.33759e-13 -5.102e-13 0 0 -5.3268e-13 -8.57025e-13 -8.49602e-13 -5.43326e-13 0 0 -5.76605e-13 -9.34411e-13 -9.35277e-13 -6.04364e-13 0 0 -6.72826e-13 -1.0918e-12 -1.12901e-12 -6.83221e-13 0 0 -1.13809e-12 -1.82536e-12 -1.88198e-12 -1.11276e-12 0 0 -1.11158e-12 -1.82634e-12 -1.81667e-12 -1.09034e-12 0 0 -1.14086e-12 -1.86416e-12 -1.79479e-12 -1.05295e-12 0 0 -1.17082e-12 -1.8737e-12 -1.8814e-12 -1.07805e-12 0 0 -1.1928e-12 -1.91601e-12 -1.92279e-12 -1.15181e-12 0 0 -1.19084e-12 -1.89379e-12 -1.89475e-12 -1.11415e-12 0 0 -1.0071e-12 -1.5862e-12 -1.58269e-12 -9.62604e-13 0 0 -5.20061e-13 -7.69606e-13 -7.64024e-13 -4.73766e-13 0 0 1.02053e-13 2.35891e-13 2.11777e-13 1.34088e-13 0 0 6.38198e-13 1.11967e-12 1.08543e-12 6.83692e-13 0 0 9.88231e-13 1.67124e-12 1.72714e-12 1.0338e-12 0 0 1.1489e-12 1.84543e-12 1.94017e-12 1.13189e-12 0 0 1.13848e-12 1.80227e-12 1.86731e-12 1.16626e-12 0 0 1.05607e-12 1.65891e-12 1.70192e-12 1.03838e-12 0 0 9.41153e-13 1.43526e-12 1.48915e-12 9.57731e-13 0 0 7.72209e-13 1.20744e-12 1.26329e-12 7.83673e-13 0 0 6.11359e-13 1.00687e-12 1.03141e-12 5.81301e-13 0 0 4.79804e-13 7.71666e-13 8.03556e-13 4.8274e-13 0 0 3.73401e-13 5.30196e-13 6.20493e-13 3.52654e-13 0 0 2.26083e-13 3.85418e-13 4.17727e-13 2.53817e-13 0 0 9.66539e-14 2.07046e-13 2.26951e-13 1.23533e-13 0 0 -5.95214e-16 1.7665e-14 5.21982e-14 2.23353e-14 0 0 -9.0894e-14 -1.21282e-13 -1.32855e-13 -4.83001e-14 0 0 -1.65254e-13 -2.94513e-13 -2.93069e-13 -1.32969e-13 0 0 -2.32715e-13 -4.65128e-13 -4.36965e-13 -2.24023e-13 0 0 -2.99541e-13 -5.85423e-13 -5.37384e-13 -2.97481e-13 0 0 -3.77369e-13 -6.4892e-13 -6.37055e-13 -3.40346e-13 0 0 -4.52541e-13 -7.20117e-13 -7.7676e-13 -4.24343e-13 0 0 -5.30845e-13 -8.31784e-13 -8.44016e-13 -4.64781e-13 0 0 -5.98876e-13 -9.53172e-13 -9.04329e-13 -5.06076e-13 0 0 -6.30876e-13 -1.05644e-12 -1.04372e-12 -5.99125e-13 0 0 -6.69477e-13 -1.17355e-12 -1.10607e-12 -7.2242e-13 0 0 -7.62873e-13 -1.25231e-12 -1.18483e-12 -8.42817e-13 0 0 -8.65913e-13 -1.32059e-12 -1.30973e-12 -8.74506e-13 0 0 -8.87205e-13 -1.45528e-12 -1.37936e-12 -9.48499e-13 0 0 -9.13743e-13 -1.52885e-12 -1.47567e-12 -1.04912e-12 0 0 -9.57105e-13 -1.57474e-12 -1.59382e-12 -1.0556e-12 0 0 -9.94463e-13 -1.59662e-12 -1.70911e-12 -1.08948e-12 0 0 -1.03321e-12 -1.63274e-12 -1.7967e-12 -1.15136e-12 0 0 -1.04543e-12 -1.74594e-12 -1.80878e-12 -1.22009e-12 0 0 -1.08436e-12 -1.82946e-12 -1.86132e-12 -1.26043e-12 0 0 -1.14037e-12 -1.86311e-12 -1.89668e-12 -1.27175e-12 0 0 -1.14225e-12 -1.87086e-12 -1.8623e-12 -1.3234e-12 0 0 -1.15276e-12 -1.86175e-12 -1.9013e-12 -1.2734e-12 0 0 -1.15137e-12 -1.77442e-12 -1.94039e-12 -1.17507e-12 0 0 -1.06986e-12 -1.71797e-12 -1.82214e-12 -1.13725e-12 0 0 -1.03765e-12 -1.71896e-12 -1.73092e-12 -1.13573e-12 0 0 -9.74049e-13 -1.54518e-12 -1.65583e-12 -1.10275e-12 0 0 -8.41345e-13 -1.36367e-12 -1.40958e-12 -9.96315e-13 0 0 -6.88188e-13 -1.15849e-12 -1.12345e-12 -7.79931e-13 0 0 -4.78986e-13 -8.36778e-13 -8.55709e-13 -5.49705e-13 0 0 -3.3385e-13 -5.57847e-13 -5.81235e-13 -4.22775e-13 0 0 -2.11783e-13 -3.45471e-13 -3.34085e-13 -2.34186e-13 0 0 -1.05682e-13 -2.004e-13 -1.83494e-13 -1.19995e-13 0 0 -4.7603e-14 -1.0115e-13 -1.01995e-13 -1.0965e-13 0 0 -2.24018e-14 -5.68219e-14 -7.34358e-14 -7.0128e-14 0 0 -3.66636e-15 -4.75054e-14 -6.11855e-14 -5.25177e-14 0 0 5.98147e-15 -4.84107e-14 -4.96601e-14 -5.96923e-14 0 0 -4.09588e-15 -4.68951e-14 -5.16681e-14 -6.3554e-14 0 0 -1.03141e-14 -4.07636e-14 -4.85838e-14 -2.28212e-14 0 0 -1.50353e-14 -3.59853e-14 -6.7225e-14 1.24905e-15 0 0 -1.41562e-14 -4.94715e-14 -5.02417e-14 -1.36898e-14 0 0 -1.75172e-14 -2.08418e-14 -5.59304e-14 -4.84141e-14 0 0 -2.67181e-14 -1.56207e-15 -9.58028e-14 -4.21108e-14 0 0 -3.22567e-14 -6.5508e-15 -7.04342e-14 -3.98706e-14 0 0 -3.37838e-14 9.38189e-16 -5.45501e-14 -7.8413e-14 0 0 -3.47421e-14 -6.77026e-15 -4.89449e-14 -7.19852e-14 0 0 -2.35096e-14 -2.3121e-14 -2.54465e-14 -5.04213e-14 0 0 -2.03e-14 -3.96977e-14 -1.37249e-14 -3.83954e-14 0 0 -2.52276e-14 -2.60128e-14 -2.98153e-14 -2.06103e-14 0 0 -2.5282e-14 -1.33815e-14 -5.99018e-14 3.49444e-14 0 0 -1.13823e-14 -3.53634e-14 -8.06264e-14 7.93572e-14 0 0 3.1491e-14 -1.0523e-13 -1.40942e-14 3.77973e-14 0 0 -3.43487e-15 -5.72352e-14 2.12497e-15 1.47222e-14 0 0 -2.56189e-14 -2.70165e-14 3.48787e-15 8.05532e-15 0 0 3.73662e-14 -9.90277e-14 5.06635e-14 3.98048e-15 0 0 2.61792e-14 -4.01404e-14 -4.39688e-14 9.01007e-14 0 0 -8.32749e-15 3.57218e-14 -1.25739e-13 1.25445e-13 0 0 8.88973e-15 6.94123e-15 -6.15323e-14 7.25169e-14 0 0 8.45159e-14 -6.7767e-14 -1.39395e-14 7.67054e-14 0 0 1.18629e-13 -1.00208e-13 -1.51916e-14 1.33582e-13 0 0 5.90558e-14 -2.63897e-14 -6.5717e-14 1.68195e-13 0 0 2.12885e-14 2.95992e-14 -3.35461e-14 6.4504e-14 0 0 8.76786e-15 -1.29254e-14 1.24891e-13 -8.01663e-14 0 0 -4.81838e-14 -1.48869e-14 1.66246e-13 -8.539e-14 0 0 -4.91513e-14 -9.22992e-15 1.05262e-13 -6.25216e-14 0 0 1.23878e-14 -3.95711e-14 6.49093e-15 -3.07804e-15 0 0 3.832e-14 -4.64432e-14 -5.48338e-14 5.86603e-14 0 0 1.35355e-14 1.50823e-14 -1.12329e-13 4.86074e-14 0 0 -5.65776e-14 1.03231e-13 -1.63567e-13 4.79064e-14 0 0 -5.40151e-14 6.70733e-14 -6.53082e-14 3.5098e-14 0 0 -8.33462e-15 1.61494e-14 2.21328e-14 1.08267e-14 0 0 -9.14524e-15 5.21116e-14 1.46743e-14 -8.4037e-15 0 0 -1.30415e-14 3.67055e-14 -1.88871e-14 1.1996e-14 0 0 3.3834e-14 -4.38235e-14 -3.49062e-14 1.85716e-14 0 0 5.47705e-14 -5.38162e-14 -3.71344e-14 -6.73169e-15 0 0 4.98891e-14 -4.55879e-14 -2.99581e-14 -2.79677e-15 0 0 5.91408e-14 -5.03844e-14 9.88009e-15 -3.7985e-14 0 0 4.77911e-14 1.16866e-15 -1.13886e-14 -4.98599e-14 0 0 4.02105e-14 3.20316e-14 -5.10991e-14 -2.3906e-14 0
				</DataArray>
				<DataArray Name="VitesseY" type="Float32" format="ascii">