<?xml version="1.0"?>
<VTKFile type="PolyData">
	<PolyData>
		<Piece NumberOfPoints="1206" NumberOfPolys="1000">
			<Points>
				<DataArray type="Float32" NumberOfComponents="3" format="ascii">
 0 0 0 0.02 0 0 0.04 0 0 0.06 0 0 0.08 0 0 0.1 0 0 0 0.005 0 0.02 0.005 0 0.04 0.005 0 0.06 0.005 0 0.08 0.005 0 0.1 0.005 0 0 0.01 0 0.02 0.01 0 0.04 0.01 0 0.06 0.01 0 0.08 0.01 0 0.1 0.01 0 0 0.015 0 0.02 0.015 0 0.04 0.015 0 0.06 0.015 0 0.08 0.015 0 0.1 0.015 0 0 0.02 0 0.02 0.02 0 0.04 0.02 0 0.06 0.02 0 0.08 0.02 0 0.1 0.02 0 0 0.025 0 0.02 0.025 0 0.04 0.025 0 0.06 0.025 0 0.08 0.025 0 0.1 0.025 0 0 0.03 0 0.02 0.03 0 0.04 0.03 0 0.06 0.03 0 0.08 0.03 0 0.1 0.03 0 0 0.035 0 0.02 0.035 0 0.04 0.035 0 0.06 0.035 0 0.08 0.035 0 0.1 0.035 0 0 0.04 0 0.02 0.04 0 0.04 0.04 0 0.06 0.04 0 0.08 0.04 0 0.1 0.04 0 0 0.045 0 0.02 0.045 0 0.04 0.045 0 0.06 0.045 0 0.08 0.045 0 0.1 0.045 0 0 0.05 0 0.02 0.05 0 0.04 0.05 0 0.06 0.05 0 0.08 0.05 0 0.1 0.05 0 0 0.055 0 0.02 0.055 0 0.04 0.055 0 0.06 0.055 0 0.08 0.055 0 0.1 0.055 0 0 0.06 0 0.02 0.06 0 0.04 0.06 0 0.06 0.06 0 0.08 0.06 0 0.1 0.06 0 0 0.065 0 0.02 0.065 0 0.04 0.065 0 0.06 0.065 0 0.08 0.065 0 0.1 0.065 0 0 0.07 0 0.02 0.07 0 0.04 0.07 0 0.06 0.07 0 0.08 0.07 0 0.1 0.07 0 0 0.075 0 0.02 0.075 0 0.04 0.075 0 0.06 0.075 0 0.08 0.075 0 0.1 0.075 0 0 0.08 0 0.02 0.08 0 0.04 0.08 0 0.06 0.08 0 0.08 0.08 0 0.1 0.08 0 0 0.085 0 0.02 0.085 0 0.04 0.085 0 0.06 0.085 0 0.08 0.085 0 0.1 0.085 0 0 0.09 0 0.02 0.09 0 0.04 0.09 0 0.06 0.09 0 0.08 0.09 0 0.1 0.09 0 0 0.095 0 0.02 0.095 0 0.04 0.095 0 0.06 0.095 0 0.08 0.095 0 0.1 0.095 0 0 0.1 0 0.02 0.1 0 0.04 0.1 0 0.06 0.1 0 0.08 0.1 0 0.1 0.1 0 0 0.105 0 0.02 0.105 0 0.04 0.105 0 0.06 0.105 0 0.08 0.105 0 0.1 0.105 0 0 0.11 0 0.02 0.11 0 0.04 0.11 0 0.06 0.11 0 0.08 0.11 0 0.1 0.11 0 0 0.115 0 0.02 0.115 0 0.04 0.115 0 0.06 0.115 0 0.08 0.115 0 0.1 0.115 0 0 0.12 0 0.02 0.12 0 0.04 0.12 0 0.06 0.12 0 0.08 0.12 0 0.1 0.12 0 0 0.125 0 0.02 0.125 0 0.04 0.125 0 0.06 0.125 0 0.08 0.125 0 0.1 0.125 0 0 0.13 0 0.02 0.13 0 0.04 0.13 0 0.06 0.13 0 0.08 0.13 0 0.1 0.13 0 0 0.135 0 0.02 0.135 0 0.04 0.135 0 0.06 0.135 0 0.08 0.135 0 0.1 0.135 0 0 0.14 0 0.02 0.14 0 0.04 0.14 0 0.06 0.14 0 0.08 0.14 0 0.1 0.14 0 0 0.145 0 0.02 0.145 0 0.04 0.145 0 0.06 0.145 0 0.08 0.145 0 0.1 0.145 0 0 0.15 0 0.02 0.15 0 0.04 0.15 0 0.06 0.15 0 0.08 0.15 0 0.1 0.15 0 0 0.155 0 0.02 0.155 0 0.04 0.155 0 0.06 0.155 0 0.08 0.155 0 0.1 0.155 0 0 0.16 0 0.02 0.16 0 0.04 0.16 0 0.06 0.16 0 0.08 0.16 0 0.1 0.16 0 0 0.165 0 0.02 0.165 0 0.04 0.165 0 0.06 0.165 0 0.08 0.165 0 0.1 0.165 0 0 0.17 0 0.02 0.17 0 0.04 0.17 0 0.06 0.17 0 0.08 0.17 0 0.1 0.17 0 0 0.175 0 0.02 0.175 0 0.04 0.175 0 0.06 0.175 0 0.08 0.175 0 0.1 0.175 0 0 0.18 0 0.02 0.18 0 0.04 0.18 0 0.06 0.18 0 0.08 0.18 0 0.1 0.18 0 0 0.185 0 0.02 0.185 0 0.04 0.185 0 0.06 0.185 0 0.08 0.185 0 0.1 0.185 0 0 0.19 0 0.02 0.19 0 0.04 0.19 0 0.06 0.19 0 0.08 0.19 0 0.1 0.19 0 0 0.195 0 0.02 0.195 0 0.04 0.195 0 0.06 0.195 0 0.08 0.195 0 0.1 0.195 0 0 0.2 0 0.02 0.2 0 0.04 0.2 0 0.06 0.2 0 0.08 0.2 0 0.1 0.2 0 0 0.205 0 0.02 0.205 0 0.04 0.205 0 0.06 0.205 0 0.08 0.205 0 0.1 0.205 0 0 0.21 0 0.02 0.21 0 0.04 0.21 0 0.06 0.21 0 0.08 0.21 0 0.1 0.21 0 0 0.215 0 0.02 0.215 0 0.04 0.215 0 0.06 0.215 0 0.08 0.215 0 0.1 0.215 0 0 0.22 0 0.02 0.22 0 0.04 0.22 0 0.06 0.22 0 0.08 0.22 0 0.1 0.22 0 0 0.225 0 0.02 0.225 0 0.04 0.225 0 0.06 0.225 0 0.08 0.225 0 0.1 0.225 0 0 0.23 0 0.02 0.23 0 0.04 0.23 0 0.06 0.23 0 0.08 0.23 0 0.1 0.23 0 0 0.235 0 0.02 0.235 0 0.04 0.235 0 0.06 0.235 0 0.08 0.235 0 0.1 0.235 0 0 0.24 0 0.02 0.24 0 0.04 0.24 0 0.06 0.24 0 0.08 0.24 0 0.1 0.24 0 0 0.245 0 0.02 0.245 0 0.04 0.245 0 0.06 0.245 0 0.08 0.245 0 0.1 0.245 0 0 0.25 0 0.02 0.25 0 0.04 0.25 0 0.06 0.25 0 0.08 0.25 0 0.1 0.25 0 0 0.255 0 0.02 0.255 0 0.04 0.255 0 0.06 0.255 0 0.08 0.255 0 0.1 0.255 0 0 0.26 0 0.02 0.26 0 0.04 0.26 0 0.06 0.26 0 0.08 0.26 0 0.1 0.26 0 0 0.265001 0 0.02 0.265001 0 0.04 0.265001 0 0.06 0.265001 0 0.08 0.265001 0 0.1 0.265001 0 0 0.270004 0 0.02 0.270004 0 0.04 0.270004 0 0.06 0.270004 0 0.08 0.270004 0 0.1 0.270004 0 0 0.275011 0 0.02 0.275011 0 0.04 0.275011 0 0.06 0.275011 0 0.08 0.275011 0 0.1 0.275011 0 0 0.280027 0 0.02 0.280027 0 0.04 0.280027 0 0.06 0.280027 0 0.08 0.280027 0 0.1 0.280027 0 0 0.285062 0 0.02 0.285062 0 0.04 0.285062 0 0.06 0.285062 0 0.08 0.285062 0 0.1 0.285062 0 0 0.290129 0 0.02 0.290129 0 0.04 0.290129 0 0.06 0.290129 0 0.08 0.290129 0 0.1 0.290129 0 0 0.295244 0 0.02 0.295244 0 0.04 0.295244 0 0.06 0.295244 0 0.08 0.295244 0 0.1 0.295244 0 0 0.300424 0 0.02 0.300424 0 0.04 0.300424 0 0.06 0.300424 0 0.08 0.300424 0 0.1 0.300424 0 0 0.305687 0 0.02 0.305687 0 0.04 0.305687 0 0.06 0.305687 0 0.08 0.305687 0 0.1 0.305687 0 0 0.311044 0 0.02 0.311044 0 0.04 0.311044 0 0.06 0.311044 0 0.08 0.311044 0 0.1 0.311044 0 0 0.316507 0 0.02 0.316507 0 0.04 0.316507 0 0.06 0.316507 0 0.08 0.316507 0 0.1 0.316507 0 0 0.322084 0 0.02 0.322084 0 0.04 0.322084 0 0.06 0.322084 0 0.08 0.322084 0 0.1 0.322084 0 0 0.327783 0 0.02 0.327783 0 0.04 0.327783 0 0.06 0.327783 0 0.08 0.327783 0 0.1 0.327783 0 0 0.333613 0 0.02 0.333613 0 0.04 0.333613 0 0.06 0.333613 0 0.08 0.333613 0 0.1 0.333613 0 0 0.339582 0 0.02 0.339582 0 0.04 0.339582 0 0.06 0.339582 0 0.08 0.339582 0 0.1 0.339582 0 0 0.345697 0 0.02 0.345697 0 0.04 0.345697 0 0.06 0.345697 0 0.08 0.345697 0 0.1 0.345697 0 0 0.351969 0 0.02 0.351969 0 0.04 0.351969 0 0.06 0.351969 0 0.08 0.351969 0 0.1 0.351969 0 0 0.358405 0 0.02 0.358405 0 0.04 0.358405 0 0.06 0.358405 0 0.08 0.358405 0 0.1 0.358405 0 0 0.365018 0 0.02 0.365018 0 0.04 0.365018 0 0.06 0.365018 0 0.08 0.365018 0 0.1 0.365018 0 0 0.371817 0 0.02 0.371817 0 0.04 0.371817 0 0.06 0.371817 0 0.08 0.371817 0 0.1 0.371817 0 0 0.378816 0 0.02 0.378816 0 0.04 0.378816 0 0.06 0.378816 0 0.08 0.378816 0 0.1 0.378816 0 0 0.386028 0 0.02 0.386028 0 0.04 0.386028 0 0.06 0.386028 0 0.08 0.386028 0 0.1 0.386028 0 0 0.393467 0 0.02 0.393467 0 0.04 0.393467 0 0.06 0.393467 0 0.08 0.393467 0 0.1 0.393467 0 0 0.401151 0 0.02 0.401151 0 0.04 0.401151 0 0.06 0.401151 0 0.08 0.401151 0 0.1 0.401151 0 0 0.409097 0 0.02 0.409097 0 0.04 0.409097 0 0.06 0.409097 0 0.08 0.409097 0 0.1 0.409097 0 0 0.417326 0 0.02 0.417326 0 0.04 0.417326 0 0.06 0.417326 0 0.08 0.417326 0 0.1 0.417326 0 0 0.42586 0 0.02 0.42586 0 0.04 0.42586 0 0.06 0.42586 0 0.08 0.42586 0 0.1 0.42586 0 0 0.434723 0 0.02 0.434723 0 0.04 0.434723 0 0.06 0.434723 0 0.08 0.434723 0 0.1 0.434723 0 0 0.443945 0 0.02 0.443945 0 0.04 0.443945 0 0.06 0.443945 0 0.08 0.443945 0 0.1 0.443945 0 0 0.453555 0 0.02 0.453555 0 0.04 0.453555 0 0.06 0.453555 0 0.08 0.453555 0 0.1 0.453555 0 0 0.463586 0 0.02 0.463586 0 0.04 0.463586 0 0.06 0.463586 0 0.08 0.463586 0 0.1 0.463586 0 0 0.474072 0 0.02 0.474072 0 0.04 0.474072 0 0.06 0.474072 0 0.08 0.474072 0 0.1 0.474072 0 0 0.485043 0 0.02 0.485043 0 0.04 0.485043 0 0.06 0.485043 0 0.08 0.485043 0 0.1 0.485043 0 0 0.496509 0 0.02 0.496509 0 0.04 0.496509 0 0.06 0.496509 0 0.08 0.496509 0 0.1 0.496509 0 0 0.508423 0 0.02 0.508423 0 0.04 0.508423 0 0.06 0.508423 0 0.08 0.508423 0 0.1 0.508423 0 0 0.520573 0 0.02 0.520573 0 0.04 0.520573 0 0.06 0.520573 0 0.08 0.520573 0 0.1 0.520573 0 0 0.532662 0 0.02 0.532662 0 0.04 0.532662 0 0.06 0.532662 0 0.08 0.532662 0 0.1 0.532662 0 0 0.544656 0 0.02 0.544656 0 0.04 0.544656 0 0.06 0.544656 0 0.08 0.544656 0 0.1 0.544656 0 0 0.556553 0 0.02 0.556553 0 0.04 0.556553 0 0.06 0.556553 0 0.08 0.556553 0 0.1 0.556553 0 0 0.568375 0 0.02 0.568375 0 0.04 0.568375 0 0.06 0.568375 0 0.08 0.568375 0 0.1 0.568375 0 0 0.580149 0 0.02 0.580149 0 0.04 0.580149 0 0.06 0.580149 0 0.08 0.580149 0 0.1 0.580149 0 0 0.591897 0 0.02 0.591897 0 0.04 0.591897 0 0.06 0.591897 0 0.08 0.591897 0 0.1 0.591897 0 0 0.603634 0 0.02 0.603634 0 0.04 0.603634 0 0.06 0.603634 0 0.08 0.603634 0 0.1 0.603634 0 0 0.615365 0 0.02 0.615365 0 0.04 0.615365 0 0.06 0.615365 0 0.08 0.615365 0 0.1 0.615365 0 0 0.627094 0 0.02 0.627094 0 0.04 0.627094 0 0.06 0.627094 0 0.08 0.627094 0 0.1 0.627094 0 0 0.638824 0 0.02 0.638824 0 0.04 0.638824 0 0.06 0.638824 0 0.08 0.638824 0 0.1 0.638824 0 0 0.650555 0 0.02 0.650555 0 0.04 0.650555 0 0.06 0.650555 0 0.08 0.650555 0 0.1 0.650555 0 0 0.662301 0 0.02 0.662301 0 0.04 0.662301 0 0.06 0.662301 0 0.08 0.662301 0 0.1 0.662301 0 0 0.66491 0 0.02 0.66491 0 0.04 0.66491 0 0.06 0.66491 0 0.08 0.66491 0 0.1 0.66491 0 0 0.667446 0 0.02 0.667446 0 0.04 0.667446 0 0.06 0.667446 0 0.08 0.667446 0 0.1 0.667446 0 0 0.669936 0 0.02 0.669936 0 0.04 0.669936 0 0.06 0.669936 0 0.08 0.669936 0 0.1 0.669936 0 0 0.672396 0 0.02 0.672396 0 0.04 0.672396 0 0.06 0.672396 0 0.08 0.672396 0 0.1 0.672396 0 0 0.674834 0 0.02 0.674834 0 0.04 0.674834 0 0.06 0.674834 0 0.08 0.674834 0 0.1 0.674834 0 0 0.677257 0 0.02 0.677257 0 0.04 0.677257 0 0.06 0.677257 0 0.08 0.677257 0 0.1 0.677257 0 0 0.67967 0 0.02 0.67967 0 0.04 0.67967 0 0.06 0.67967 0 0.08 0.67967 0 0.1 0.67967 0 0 0.682082 0 0.02 0.682082 0 0.04 0.682082 0 0.06 0.682082 0 0.08 0.682082 0 0.1 0.682082 0 0 0.684494 0 0.02 0.684494 0 0.04 0.684494 0 0.06 0.684494 0 0.08 0.684494 0 0.1 0.684494 0 0 0.686892 0 0.02 0.686892 0 0.04 0.686892 0 0.06 0.686892 0 0.08 0.686892 0 0.1 0.686892 0 0 0.689278 0 0.02 0.689278 0 0.04 0.689278 0 0.06 0.689278 0 0.08 0.689278 0 0.1 0.689278 0 0 0.691658 0 0.02 0.691658 0 0.04 0.691658 0 0.06 0.691658 0 0.08 0.691658 0 0.1 0.691658 0 0 0.694036 0 0.02 0.694036 0 0.04 0.694036 0 0.06 0.694036 0 0.08 0.694036 0 0.1 0.694036 0 0 0.696411 0 0.02 0.696411 0 0.04 0.696411 0 0.06 0.696411 0 0.08 0.696411 0 0.1 0.696411 0 0 0.698783 0 0.02 0.698783 0 0.04 0.698783 0 0.06 0.698783 0 0.08 0.698783 0 0.1 0.698783 0 0 0.701153 0 0.02 0.701153 0 0.04 0.701153 0 0.06 0.701153 0 0.08 0.701153 0 0.1 0.701153 0 0 0.703522 0 0.02 0.703522 0 0.04 0.703522 0 0.06 0.703522 0 0.08 0.703522 0 0.1 0.703522 0 0 0.70589 0 0.02 0.70589 0 0.04 0.70589 0 0.06 0.70589 0 0.08 0.70589 0 0.1 0.70589 0 0 0.708255 0 0.02 0.708255 
[...]
			<PointData Scalars="VitesseX">
				<DataArray Name="VitesseX" type="Float32" format="ascii">
 0 2.82383e-15 1.5538e-15 4.41778e-15 5.71034e-15 0 0 3.13434e-15 3.15038e-15 2.03731e-15 6.66265e-15 0 0 3.34943e-15 5.63823e-15 -1.67724e-15 7.00145e-15 0 0 3.05861e-15 6.24193e-15 -2.50588e-15 4.60449e-15 0 0 2.82576e-15 5.44321e-15 -1.64041e-15 1.31338e-15 0 0 2.29832e-15 4.18138e-15 -2.76487e-16 8.62238e-16 0 0 1.27658e-15 3.41891e-15 -1.91525e-17 3.34376e-15 0 0 8.05257e-16 1.46848e-15 2.20926e-16 4.32282e-15 0 0 2.61385e-15 -3.36283e-15 2.25072e-15 3.77749e-15 0 0 4.91591e-15 -6.1391e-15 3.93432e-15 5.54849e-15 0 0 3.01304e-15 -1.28056e-15 -1.02659e-16 6.92176e-15 0 0 -1.38163e-16 4.72752e-15 -6.08713e-15 6.95374e-15 0 0 -1.08447e-15 6.2812e-15 -6.54808e-15 5.58886e-15 0 0 3.17596e-16 4.00588e-15 -3.02211e-15 2.13747e-15 0 0 -7.55811e-16 4.55188e-15 -3.26857e-15 1.87438e-15 0 0 -1.32132e-15 4.38217e-15 -6.74527e-15 4.81461e-15 0 0 1.37896e-15 -1.986e-15 -4.77976e-15 4.69061e-15 0 0 3.03948e-15 -1.12221e-14 4.34459e-15 9.03028e-16 0 0 2.44264e-15 -1.61692e-14 1.02699e-14 -1.67236e-15 0 0 5.70578e-16 -1.09582e-14 2.49648e-15 2.33591e-15 0 0 -1.27253e-16 -6.6725e-15 -3.61425e-15 6.50312e-15 0 0 -2.97445e-15 -2.16033e-15 -9.14153e-15 1.14243e-14 0 0 1.12643e-16 -5.34619e-15 -4.67905e-15 7.10827e-15 0 0 -2.83756e-16 -9.08091e-15 4.76639e-15 -2.29637e-15 0 0 -7.65857e-15 -3.88795e-15 1.00067e-16 1.03435e-15 0 0 -5.30909e-15 -5.14192e-15 -6.09371e-15 -3.10445e-15 0 0 -3.28534e-15 1.73714e-15 -2.01793e-14 -5.76004e-15 0 0 -4.55279e-15 6.76181e-15 -2.10334e-14 -1.07673e-14 0 0 -1.12401e-14 4.21077e-15 -7.02195e-15 -2.13187e-14 0 0 -1.21052e-14 -5.94468e-15 3.15353e-16 -2.16925e-14 0 0 -4.64688e-16 -1.80745e-14 -7.22891e-16 -1.73676e-14 0 0 -6.60953e-16 -1.30304e-14 -4.36971e-15 -7.95823e-15 0 0 -7.37092e-15 -2.29392e-15 -6.12363e-15 8.73294e-15 0 0 -2.10725e-15 2.29901e-15 -3.73794e-15 1.79516e-14 0 0 -1.01341e-15 8.83898e-15 -8.84649e-16 1.63617e-14 0 0 -3.70073e-15 1.35639e-14 -3.0896e-15 2.56823e-14 0 0 6.82261e-16 1.14341e-14 -5.68998e-16 3.97086e-14 0 0 2.02039e-15 1.06618e-14 1.32602e-14 2.94037e-14 0 0 6.48502e-15 6.95552e-15 2.08169e-14 1.89182e-14 0 0 1.14392e-14 1.34623e-14 1.08815e-14 2.86325e-14 0 0 6.65436e-15 2.66302e-14 -4.75371e-15 3.28614e-14 0 0 9.12782e-15 2.30539e-14 3.08026e-16 7.68044e-15 0 0 1.45611e-14 7.50871e-15 7.63227e-15 -9.83861e-15 0 0 6.71557e-15 -6.29842e-15 3.49496e-15 -5.92946e-15 0 0 5.70042e-15 -2.16134e-14 9.9125e-15 -1.48125e-14 0 0 3.23923e-15 -1.56833e-14 -9.73306e-15 7.9446e-16 0 0 -1.59454e-14 -8.34257e-15 -5.29391e-14 2.18435e-14 0 0 -3.81643e-14 -8.16764e-15 -6.28361e-14 2.76051e-14 0 0 -3.69854e-14 -5.17247e-15 -6.67365e-14 5.77097e-14 0 0 -2.74275e-14 -2.34162e-14 -6.62821e-14 6.68986e-14 0 0 -6.81496e-15 -4.92588e-14 -3.19313e-14 1.08283e-16 0 0 6.66921e-15 -4.83421e-14 -2.85625e-14 -2.8269e-14 0 0 2.8793e-15 -3.0507e-14 -3.21041e-14 -1.14003e-14 0 0 -1.2441e-14 -6.1976e-15 -1.30057e-14 -2.47882e-14 0 0 -2.29808e-14 3.19829e-15 1.0725e-14 -4.27635e-14 0 0 -1.14327e-14 -1.06189e-15 -5.1643e-16 -2.25274e-14 0 0 6.74584e-15 -1.8865e-16 -3.03223e-14 8.02254e-15 0 0 5.18417e-15 1.83684e-14 -2.25319e-14 -1.41938e-14 0 0 -1.15386e-14 2.80156e-15 1.82668e-14 -2.02939e-14 0 0 1.0635e-14 -2.49768e-14 8.53303e-15 9.34932e-15 0 0 9.15699e-15 -7.60051e-15 -3.15573e-14 1.56674e-14 0 0 -6.36562e-15 -2.02639e-15 -4.03953e-14 2.53033e-14 0 0 -7.11392e-15 -2.36217e-14 -1.55023e-14 2.5801e-14 0 0 -3.52902e-14 -1.04309e-14 5.34407e-15 2.1218e-14 0 0 -2.85912e-15 9.50263e-15 3.60267e-15 1.89024e-14 0 0 4.32906e-14 1.1925e-14 -1.33745e-15 -8.29152e-15 0 0 9.4181e-15 7.27236e-15 9.27821e-15 -2.5861e-14 0 0 -2.18004e-14 8.58487e-15 1.10385e-14 -2.11348e-14 0 0 -8.13494e-15 1.13142e-14 4.58715e-15 -3.65655e-15 0 0 1.13778e-14 -6.86557e-15 2.68316e-14 1.42715e-14 0 0 -2.50397e-15 -2.02073e-14 2.88847e-14 2.24937e-14 0 0 -4.19787e-14 1.65885e-14 1.95869e-14 2.24019e-14 0 0 -1.31684e-14 8.49804e-15 3.15875e-14 -8.25595e-15 0 0 2.51677e-14 -1.95945e-14 1.20806e-14 -1.01426e-14 0 0 2.4835e-14 1.14877e-15 -3.4003e-14 2.72565e-14 0 0 5.73623e-15 5.56536e-15 -4.23984e-14 5.00608e-14 0 0 1.61328e-15 -1.96634e-15 -3.75168e-15 1.40136e-14 0 0 2.77492e-14 -9.87042e-15 1.19298e-14 -2.21663e-14 0 0 1.32388e-14 -3.3519e-16 4.28897e-15 -1.66475e-14 0 0 1.58715e-15 4.12972e-15 9.86099e-15 -2.81732e-15 0 0 4.3043e-15 3.32706e-14 -2.57615e-14 4.0679e-14 0 0 1.53422e-14 3.23168e-14 -1.81811e-14 3.62295e-14 0 0 2.31474e-14 2.67346e-14 -4.9338e-15 2.43267e-14 0 0 1.62637e-14 2.3892e-14 -4.38678e-15 1.76843e-14 0 0 -2.40557e-15 2.15784e-14 1.77597e-14 1.13367e-15 0 0 -2.32777e-14 3.01255e-14 1.69346e-14 -8.82191e-15 0 0 -1.56902e-14 3.23657e-14 1.3312e-14 -1.6228e-15 0 0 1.98493e-14 4.22072e-14 7.76187e-15 4.8093e-14 0 0 3.53322e-14 9.95226e-15 3.40609e-14 2.35017e-14 0 0 -2.48183e-15 -1.67189e-14 -1.33271e-14 -1.5327e-14 0 0 -5.62687e-14 -9.56859e-14 -1.1254e-13 -5.14675e-14 0 0 -1.18949e-13 -2.29e-13 -2.09014e-13 -1.48545e-13 0 0 -2.08965e-13 -3.2926e-13 -3.53807e-13 -2.02494e-13 0 0 -2.67734e-13 -4.21751e-13 -4.2423e-13 -2.60286e-13 0 0 -2.75265e-13 -4.39747e-13 -4.51902e-13 -2.70851e-13 0 0 -2.52296e-13 -4.03494e-13 -4.14652e-13 -2.53389e-13 0 0 -2.07571e-13 -3.50407e-13 -3.20177e-13 -2.26804e-13 0 0 -1.55618e-13 -2.67125e-13 -2.47245e-13 -1.6527e-13 0 0 -1.2375e-13 -1.8222e-13 -1.82813e-13 -1.14384e-13 0 0 -1.1911e-13 -1.88237e-13 -1.76322e-13 -1.05094e-13 0 0 -1.48254e-13 -2.6954e-13 -2.56862e-13 -1.23215e-13 0 0 -3.62745e-13 -5.53029e-13 -5.24227e-13 -3.72041e-13 0 0 -3.70452e-13 -5.77204e-13 -5.33689e-13 -3.99342e-13 0 0 -4.06758e-13 -6.4088e-13 -5.92257e-13 -4.03069e-13 0 0 -4.32652e-13 -7.20765e-13 -7.05694e-13 -4.09187e-13 0 0 -4.84538e-13 -8.13521e-13 -7.31978e-13 -4.98098e-13 0 0 -4.93976e-13 -8.04919e-13 -6.90484e-13 -5.39814e-13 0 0 -3.05397e-13 -5.12381e-13 -4.25716e-13 -3.35506e-13 0 0 2.00627e-13 2.99972e-13 3.40663e-13 2.22776e-13 0 0 8.1868e-13 1.30386e-12 1.33255e-12 8.17558e-13 0 0 1.3655e-12 2.17622e-12 2.2103e-12 1.31858e-12 0 0 1.72483e-12 2.79253e-12 2.77157e-12 1.69196e-12 0 0 1.86649e-12 3.02155e-12 2.98808e-12 1.8568e-12 0 0 1.87629e-12 3.01528e-12 2.96335e-12 1.90265e-12 0 0 1.78245e-12 2.89541e-12 2.83103e-12 1.82813e-12 0 0 1.66494e-12 2.68504e-12 2.64594e-12 1.67655e-12 0 0 1.53287e-12 2.47471e-12 2.43538e-12 1.51783e-12 0 0 1.39056e-12 2.22756e-12 2.2509e-12 1.35954e-12 0 0 1.25871e-12 2.00491e-12 2.0067e-12 1.25779e-12 0 0 1.12143e-12 1.797e-12 1.81072e-12 1.15484e-12 0 0 1.002e-12 1.63305e-12 1.63601e-12 1.03665e-12 0 0 9.12473e-13 1.51082e-12 1.41832e-12 9.15876e-13 0 0 8.24157e-13 1.36839e-12 1.28947e-12 8.11756e-13 0 0 7.45686e-13 1.21122e-12 1.20001e-12 7.66935e-13 0 0 6.95334e-13 1.07308e-12 1.08355e-12 6.64167e-13 0 0 6.40459e-13 9.60433e-13 9.71442e-13 5.6728e-13 0 0 5.80481e-13 8.41359e-13 8.72568e-13 5.29283e-13 0 0 5.29351e-13 7.52289e-13 8.02916e-13 5.29271e-13 0 0 4.34524e-13 7.07384e-13 6.9964e-13 4.51115e-13 0 0 3.66739e-13 6.25891e-13 6.18678e-13 3.70096e-13 0 0 3.02693e-13 5.44781e-13 5.45338e-13 3.50418e-13 0 0 2.34094e-13 4.79266e-13 4.62132e-13 2.7447e-13 0 0 1.90183e-13 3.62282e-13 4.49828e-13 2.32854e-13 0 0 1.29077e-13 2.89906e-13 3.63946e-13 2.02424e-13 0 0 9.44056e-14 2.21613e-13 2.40989e-13 1.69988e-13 0 0 7.08195e-14 1.17523e-13 1.65483e-13 1.49424e-13 0 0 6.17525e-14 1.79356e-14 1.47458e-13 7.65008e-14 0 0 2.29144e-14 -3.63004e-14 6.54957e-14 -6.123e-15 0 0 -4.66957e-14 -8.40655e-14 -9.13927e-14 4.95433e-14 0 0 -1.01711e-13 -1.69235e-13 -1.33059e-13 -5.03928e-14 0 0 -1.62425e-13 -2.83325e-13 -1.14452e-13 -1.73976e-13 0 0 -2.00816e-13 -3.96104e-13 -1.96165e-13 -1.84303e-13 0 0 -2.43835e-13 -4.47314e-13 -3.2045e-13 -2.8324e-13 0 0 -3.04155e-13 -5.05225e-13 -4.143e-13 -2.89262e-13 0 0 -3.25502e-13 -6.11553e-13 -5.07265e-13 -2.76152e-13 0 0 -3.5632e-13 -6.6175e-13 -6.0913e-13 -3.50487e-13 0 0 -4.42563e-13 -7.07373e-13 -6.62754e-13 -4.56844e-13 0 0 -5.12202e-13 -7.84668e-13 -7.71658e-13 -4.60245e-13 0 0 -5.84085e-13 -8.47213e-13 -8.54625e-13 -4.9941e-13 0 0 -6.20816e-13 -1.0113e-12 -8.91164e-13 -5.20267e-13 0 0 -5.87711e-13 -1.22518e-12 -9.29541e-13 -5.50585e-13 0 0 -6.22009e-13 -1.26184e-12 -1.00022e-12 -7.25885e-13 0 0 -7.32589e-13 -1.17898e-12 -1.169e-12 -7.81935e-13 0 0 -8.04004e-13 -1.18712e-12 -1.28611e-12 -8.24615e-13 0 0 -8.29853e-13 -1.22315e-12 -1.34357e-12 -8.79503e-13 0 0 -8.29154e-13 -1.26524e-12 -1.32781e-12 -9.64091e-13 0 0 -7.94675e-13 -1.35877e-12 -1.38771e-12 -9.52469e-13 0 0 -7.46549e-13 -1.36958e-12 -1.3794e-12 -8.80871e-13 0 0 -7.80231e-13 -1.28222e-12 -1.39228e-12 -1.02266e-12 0 0 -7.98855e-13 -1.1907e-12 -1.33496e-12 -9.76823e-13 0 0 -6.74831e-13 -1.09737e-12 -1.11603e-12 -8.92088e-13 0 0 -5.79116e-13 -9.98347e-13 -9.00324e-13 -8.26796e-13 0 0 -4.84491e-13 -7.25636e-13 -7.50152e-13 -4.82632e-13 0 0 -3.26075e-13 -5.45748e-13 -6.17449e-13 -2.81642e-13 0 0 -2.13422e-13 -3.92421e-13 -3.78219e-13 -1.72096e-13 0 0 -1.41245e-13 -2.36169e-13 -2.38822e-13 -1.25829e-13 0 0 -5.622e-14 -1.59649e-13 -1.3639e-13 -7.7504e-14 0 0 -3.89899e-14 -9.27329e-14 -1.23874e-13 -9.42778e-15 0 0 -3.747e-14 -7.40765e-14 -1.12798e-13 -2.6806e-14 0 0 -1.78915e-14 -7.99489e-14 -1.08816e-13 -4.38277e-14 0 0 -3.52366e-14 -8.17718e-14 -1.05658e-13 -7.44662e-15 0 0 -5.11688e-14 -9.9774e-14 -9.05446e-14 -1.43547e-14 0 0 -4.67504e-14 -1.04918e-13 -7.00096e-14 -6.03695e-14 0 0 -6.82283e-14 -6.32608e-14 -9.03984e-14 -3.28856e-14 0 0 -7.59381e-14 -4.50059e-14 -1.17377e-13 -1.14964e-14 0 0 -6.92961e-14 -6.28114e-14 -8.62392e-14 -3.29072e-14 0 0 -5.54432e-14 -7.13733e-14 -4.14153e-14 -8.82244e-14 0 0 -4.35983e-14 -7.9024e-14 -3.38106e-14 -1.05747e-13 0 0 -5.70761e-14 -7.14476e-14 -3.24274e-14 -9.28756e-14 0 0 -8.09929e-14 -5.43127e-14 -1.05095e-14 -1.2016e-13 0 0 -1.10526e-13 -9.96125e-15 -7.2428e-14 -8.29448e-14 0 0 -9.35018e-14 -6.61558e-15 -8.01327e-14 -6.36304e-14 0 0 -4.10801e-14 -5.95629e-14 -5.32995e-15 -1.15748e-13 0 0 3.56804e-15 -8.53972e-14 2.73898e-14 -1.20246e-13 0 0 -5.14528e-15 -2.15773e-14 -5.11892e-14 -2.67539e-14 0 0 -1.9967e-14 3.77262e-14 -1.316e-13 6.85048e-14 0 0 2.40273e-14 6.828e-16 -7.16477e-14 1.93298e-14 0 0 3.56199e-14 -3.90817e-14 2.4479e-14 -5.39113e-14 0 0 8.02692e-15 -2.72736e-14 4.53141e-14 -3.40338e-14 0 0 1.64419e-14 -6.80548e-15 -7.93587e-15 2.56767e-14 0 0 6.93151e-14 -6.14954e-14 1.29987e-14 3.16411e-14 0 0 7.76888e-14 -7.34147e-14 -1.05183e-14 2.20882e-14 0 0 6.00422e-14 -6.77297e-14 -7.02194e-14 4.18656e-14 0 0 3.43858e-14 -8.19509e-14 -5.7341e-14 1.9989e-14 0 0 3.47825e-15 -7.00352e-14 -5.79263e-14 1.19809e-14 0 0 -7.06283e-15 -5.61504e-14 -8.08845e-14 3.56987e-14 0 0 -6.02641e-14 -1.54062e-14 -9.02048e-14 1.77528e-14 0 0 -7.91535e-14 -2.80409e-15 -9.88208e-14 1.95336e-14 0 0 -7.13083e-14 -1.51634e-14 -6.89728e-14 2.2073e-14 0 0 -6.25195e-14 -2.6876e-14 -1.31253e-14 -1.48577e-14 0 0 -4.15442e-14 -3.36109e-14 -2.72385e-15 -2.64782e-14 0
				</DataArray>
				<DataArray Name="VitesseY" type="Float32" format="ascii">