<?xml version="1.0"?>
<VTKFile type="PolyData">
	<PolyData>
		<Piece NumberOfPoints="1206" NumberOfPolys="1000">
			<Points>
				<DataArray type="Float32" NumberOfComponents="3" format="ascii">
 0 0 0 0.005 0 0 0.01 0 0 0.015 0 0 0.02 0 0 0.025 0 0 0.03 0 0 0.035 0 0 0.04 0 0 0.045 0 0 0.05 0 0 0.055 0 0 0.06 0 0 0.065 0 0 0.07 0 0 0.075 0 0 0.08 0 0 0.085 0 0 0.09 0 0 0.095 0 0 0.1 0 0 0.105 0 0 0.11 0 0 0.115 0 0 0.12 0 0 0.125 0 0 0.13 0 0 0.135 0 0 0.14 0 0 0.145 0 0 0.15 0 0 0.155 0 0 0.16 0 0 0.165 0 0 0.17 0 0 0.175 0 0 0.18 0 0 0.185 0 0 0.19 0 0 0.195 0 0 0.2 0 0 0.205 0 0 0.21 0 0 0.215 0 0 0.22 0 0 0.225 0 0 0.23 0 0 0.235 0 0 0.24 0 0 0.245 0 0 0.25 0 0 0.255 0 0 0.26 0 0 0.265 0 0 0.27 0 0 0.275 0 0 0.28 0 0 0.285 0 0 0.29 0 0 0.295 0 0 0.3 0 0 0.305 0 0 0.31 0 0 0.315 0 0 0.32 0 0 0.325 0 0 0.33 0 0 0.335 0 0 0.34 0 0 0.345 0 0 0.35 0 0 0.355 0 0 0.36 0 0 0.365 0 0 0.37 0 0 0.375 0 0 0.38 0 0 0.385 0 0 0.39 0 0 0.395 0 0 0.4 0 0 0.405 0 0 0.41 0 0 0.415 0 0 0.42 0 0 0.425 0 0 0.43 0 0 0.435 0 0 0.44 0 0 0.445 0 0 0.45 0 0 0.455 0 0 0.46 0 0 0.465 0 0 0.47 0 0 0.475 0 0 0.48 0 0 0.485 0 0 0.49 0 0 0.495 0 0 0.5 0 0 0.505 0 0 0.51 0 0 0.515 0 0 0.52 0 0 0.525 0 0 0.53 0 0 0.535 0 0 0.54 0 0 0.545 0 0 0.55 0 0 0.555 0 0 0.56 0 0 0.565 0 0 0.57 0 0 0.575 0 0 0.58 0 0 0.585 0 0 0.59 0 0 0.595 0 0 0.6 0 0 0.605 0 0 0.61 0 0 0.615 0 0 0.62 0 0 0.625 0 0 0.63 0 0 0.635 0 0 0.64 0 0 0.645 0 0 0.65 0 0 0.655 0 0 0.66 0 0 0.665 0 0 0.67 0 0 0.675 0 0 0.68 0 0 0.685 0 0 0.69 0 0 0.695 0 0 0.7 0 0 0.705 0 0 0.71 0 0 0.715 0 0 0.72 0 0 0.725 0 0 0.73 0 0 0.735 0 0 0.74 0 0 0.745 0 0 0.75 0 0 0.755 0 0 0.76 0 0 0.765 0 0 0.77 0 0 0.775 0 0 0.78 0 0 0.785 0 0 0.79 0 0 0.795 0 0 0.8 0 0 0.805 0 0 0.81 0 0 0.815 0 0 0.82 0 0 0.825 0 0 0.83 0 0 0.835 0 0 0.84 0 0 0.845 0 0 0.85 0 0 0.855 0 0 0.86 0 0 0.865 0 0 0.87 0 0 0.875 0 0 0.88 0 0 0.885 0 0 0.89 0 0 0.895 0 0 0.9 0 0 0.905 0 0 0.91 0 0 0.915 0 0 0.92 0 0 0.925 0 0 0.93 0 0 0.935 0 0 0.94 0 0 0.945 0 0 0.95 0 0 0.955 0 0 0.96 0 0 0.965 0 0 0.97 0 0 0.975 0 0 0.98 0 0 0.985 0 0 0.99 0 0 0.995 0 0 1 0 0 0 0.02 0 0.005 0.02 0 0.01 0.02 0 0.015 0.02 0 0.02 0.02 0 0.025 0.02 0 0.03 0.02 0 0.035 0.02 0 0.04 0.02 0 0.045 0.02 0 0.05 0.02 0 0.055 0.02 0 0.06 0.02 0 0.065 0.02 0 0.07 0.02 0 0.075 0.02 0 0.08 0.02 0 0.085 0.02 0 0.09 0.02 0 0.095 0.02 0 0.1 0.02 0 0.105 0.02 0 0.11 0.02 0 0.115 0.02 0 0.12 0.02 0 0.125 0.02 0 0.13 0.02 0 0.135 0.02 0 0.14 0.02 0 0.145 0.02 0 0.15 0.02 0 0.155 0.02 0 0.16 0.02 0 0.165 0.02 0 0.17 0.02 0 0.175 0.02 0 0.18 0.02 0 0.185 0.02 0 0.19 0.02 0 0.195 0.02 0 0.2 0.02 0 0.205 0.02 0 0.21 0.02 0 0.215 0.02 0 0.22 0.02 0 0.225 0.02 0 0.23 0.02 0 0.235 0.02 0 0.24 0.02 0 0.245 0.02 0 0.25 0.02 0 0.255 0.02 0 0.26 0.02 0 0.265 0.02 0 0.27 0.02 0 0.275 0.02 0 0.28 0.02 0 0.285 0.02 0 0.29 0.02 0 0.295 0.02 0 0.3 0.02 0 0.305 0.02 0 0.31 0.02 0 0.315 0.02 0 0.32 0.02 0 0.325 0.02 0 0.33 0.02 0 0.335 0.02 0 0.34 0.02 0 0.345 0.02 0 0.35 0.02 0 0.355 0.02 0 0.36 0.02 0 0.365 0.02 0 0.37 0.02 0 0.375 0.02 0 0.38 0.02 0 0.385 0.02 0 0.39 0.02 0 0.395 0.02 0 0.4 0.02 0 0.405 0.02 0 0.41 0.02 0 0.415 0.02 0 0.42 0.02 0 0.425 0.02 0 0.43 0.02 0 0.435 0.02 0 0.44 0.02 0 0.445 0.02 0 0.45 0.02 0 0.455 0.02 0 0.46 0.02 0 0.465 0.02 0 0.47 0.02 0 0.475 0.02 0 0.48 0.02 0 0.485 0.02 0 0.49 0.02 0 0.495 0.02 0 0.5 0.02 0 0.505 0.02 0 0.51 0.02 0 0.515 0.02 0 0.52 0.02 0 0.525 0.02 0 0.53 0.02 0 0.535 0.02 0 0.54 0.02 0 0.545 0.02 0 0.55 0.02 0 0.555 0.02 0 0.56 0.02 0 0.565 0.02 0 0.57 0.02 0 0.575 0.02 0 0.58 0.02 0 0.585 0.02 0 0.59 0.02 0 0.595 0.02 0 0.6 0.02 0 0.605 0.02 0 0.61 0.02 0 0.615 0.02 0 0.62 0.02 0 0.625 0.02 0 0.63 0.02 0 0.635 0.02 0 0.64 0.02 0 0.645 0.02 0 0.65 0.02 0 0.655 0.02 0 0.66 0.02 0 0.665 0.02 0 0.67 0.02 0 0.675 0.02 0 0.68 0.02 0 0.685 0.02 0 0.69 0.02 0 0.695 0.02 0 0.7 0.02 0 0.705 0.02 0 0.71 0.02 0 0.715 0.02 0 0.72 0.02 0 0.725 0.02 0 0.73 0.02 0 0.735 0.02 0 0.74 0.02 0 0.745 0.02 0 0.75 0.02 0 0.755 0.02 0 0.76 0.02 0 0.765 0.02 0 0.77 0.02 0 0.775 0.02 0 0.78 0.02 0 0.785 0.02 0 0.79 0.02 0 0.795 0.02 0 0.8 0.02 0 0.805 0.02 0 0.81 0.02 0 0.815 0.02 0 0.82 0.02 0 0.825 0.02 0 0.83 0.02 0 0.835 0.02 0 0.84 0.02 0 0.845 0.02 0 0.85 0.02 0 0.855 0.02 0 0.86 0.02 0 0.865 0.02 0 0.87 0.02 0 0.875 0.02 0 0.88 0.02 0 0.885 0.02 0 0.89 0.02 0 0.895 0.02 0 0.9 0.02 0 0.905 0.02 0 0.91 0.02 0 0.915 0.02 0 0.92 0.02 0 0.925 0.02 0 0.93 0.02 0 0.935 0.02 0 0.94 0.02 0 0.945 0.02 0 0.95 0.02 0 0.955 0.02 0 0.96 0.02 0 0.965 0.02 0 0.97 0.02 0 0.975 0.02 0 0.98 0.02 0 0.985 0.02 0 0.99 0.02 0 0.995 0.02 0 1 0.02 0 0 0.04 0 0.005 0.04 0 0.01 0.04 0 0.015 0.04 0 0.02 0.04 0 0.025 0.04 0 0.03 0.04 0 0.035 0.04 0 0.04 0.04 0 0.045 0.04 0 0.05 0.04 0 0.055 0.04 0 0.06 0.04 0 0.065 0.04 0 0.07 0.04 0 0.075 0.04 0 0.08 0.04 0 0.085 0.04 0 0.09 0.04 0 0.095 0.04 0 0.1 0.04 0 0.105 0.04 0 0.11 0.04 0 0.115 0.04 0 0.12 0.04 0 0.125 0.04 0 0.13 0.04 0 0.135 0.04 0 0.14 0.04 0 0.145 0.04 0 0.15 0.04 0 0.155 0.04 0 0.16 0.04 0 0.165 0.04 0 0.17 0.04 0 0.175 0.04 0 0.18 0.04 0 0.185 0.04 0 0.19 0.04 0 0.195 0.04 0 0.2 0.04 0 0.205 0.04 0 0.21 0.04 0 0.215 0.04 0 0.22 0.04 0 0.225 0.04 0 0.23 0.04 0 0.235 0.04 0 0.24 0.04 0 0.245 0.04 0 0.25 0.04 0 0.255 0.04 0 0.26 0.04 0 0.265 0.04 0 0.27 0.04 0 0.275 0.04 0 0.28 0.04 0 0.285 0.04 0 0.29 0.04 0 0.295 0.04 0 0.3 0.04 0 0.305 0.04 0 0.31 0.04 0 0.315 0.04 0 0.32 0.04 0 0.325 0.04 0 0.33 0.04 0 0.335 0.04 0 0.34 0.04 0 0.345 0.04 0 0.35 0.04 0 0.355 0.04 0 0.36 0.04 0 0.365 0.04 0 0.37 0.04 0 0.375 0.04 0 0.38 0.04 0 0.385 0.04 0 0.39 0.04 0 0.395 0.04 0 0.4 0.04 0 0.405 0.04 0 0.41 0.04 0 0.415 0.04 0 0.42 0.04 0 0.425 0.04 0 0.43 0.04 0 0.435 0.04 0 0.44 0.04 0 0.445 0.04 0 0.45 0.04 0 0.455 0.04 0 0.46 0.04 0 0.465 0.04 0 0.47 0.04 0 0.475 0.04 0 0.48 0.04 0 0.485 0.04 0 0.49 0.04 0 0.495 0.04 0 0.5 0.04 0 0.505 0.04 0 0.51 0.04 0 0.515 0.04 0 0.52 0.04 0 0.525 0.04 0 0.53 0.04 0 0.535 0.04 0 0.54 0.04 0 0.545 0.04 0 0.55 0.04 0 0.555 0.04 0 0.56 0.04 0 0.565 0.04 0 0.57 0.04 0 0.575 0.04 0 0.58 0.04 0 0.585 0.04 0 0.59 0.04 0 0.595 0.04 0 0.6 0.04 0 0.605 0.04 0 0.61 0.04 0 0.615 0.04 0 0.62 0.04 0 0.625 0.04 0 0.63 0.04 0 0.635 0.04 0 0.64 0.04 0 0.645 0.04 0 0.65 0.04 0 0.655 0.04 0 0.66 0.04 0 0.665 0.04 0 0.67 0.04 0 0.675 0.04 0 0.68 0.04 0 0.685 0.04 0 0.69 0.04 0 0.695 0.04 0 0.7 0.04 0 0.705 0.04 0 0.71 0.04 0 0.715 0.04 0 0.72 0.04 0 0.725 0.04 0 0.73 0.04 0 0.735 0.04 0 0.74 0.04 0 0.745 0.04 0 0.75 0.04 0 0.755 0.04 0 0.76 0.04 0 0.765 0.04 0 0.77 0.04 0 0.775 0.04 0 0.78 0.04 0 0.785 0.04 0 0.79 0.04 0 0.795 0.04 0 0.8 0.04 0 0.805 0.04 0 0.81 0.04 0 0.815 0.04 0 0.82 0.04 0 0.825 0.04 0 0.83 0.04 0 0.835 0.04 0 0.84 0.04 0 0.845 0.04 0 0.85 0.04 0 0.855 0.04 0 0.86 0.04 0 0.865 0.04 0 0.87 0.04 0 0.875 0.04 0 0.88 0.04 0 0.885 0.04 0 0.89 0.04 0 0.895 0.04 0 0.9 0.04 0 0.905 0.04 0 0.91 0.04 0 0.915 0.04 0 0.92 0.04 0 0.925 0.04 0 0.93 0.04 0 0.935 0.04 0 0.94 0.04 0 0.945 0.04 0 0.95 0.04 0 0.955 0.04 0 0.96 0.04 0 0.965 0.04 0 0.97 0.04 0 0.975 0.04 0 0.98 0.04 0 0.985 0.04 0 0.99 0.04 0 0.995 0.04 0 1 0.04 0 0 0.06 0 0.005 0.06 0 0.01 0.06 0 0.015 0.06 0 0.02 0.06 0 0.025 0.06 0 0.03 0.06 0 0.035 0.06 0 0.04 0.06 0 0.045 0.06 0 0.05 0.06 0 0.055 0.06 0 0.06 0.06 0 0.065 0.06 0 0.07 0.06 0 0.075 0.06 0 0.08 0.06 0 0.085 0.06 0 0.09 0.06 0 0.095 0.06 0 0.1 0.06 0 0.105 0.06 0 0.11 0.06 0 0.115 0.06 0 0.12 0.06 0 0.125 0.06 0 0.13 0.06 0 0.135 0.06 0 0.14 0.06 0 0.145 0.06 0 0.15 0.06 0 0.155 0.06 0 0.16 0.06 0 0.165 0.06 0 0.17 0.06 0 0.175 0.06 0 0.18 0.06 0 0.185 0.06 0 0.19 0.06 0 0.195 0.06 0 0.2 0.06 0 0.205 0.06 0 0.21 0.06 0 0.215 0.06 0 0.22 0.06 0 0.225 0.06 0 0.23 0.06 0 0.235 0.06 0 0.24 0.06 0 0.245 0.06 0 0.25 0.06 0 0.255 0.06 0 0.26 0.06 0 0.265 0.06 0 0.27 0.06 0 0.275 0.06 0 0.28 0.06 0 0.285 0.06 0 0.29 0.06 0 0.295 0.06 0 0.3 0.06 0 0.305 0.06 0 0.31 0.06 0 0.315 0.06 0 0.32 0.06 0 0.325 0.06 0 0.33 0.06 0 0.335 0.06 0 0.34 0.06 0 0.345 0.06 0 0.35 0.06 0 0.355 0.06 0 0.36 0.06 0 0.365 0.06 0 0.37 0.06 0 0.375 0.06 0 0.38 0.06 0 0.385 0.06 0 0.39 0.06 0 0.395 0.06 0 0.4 0.06 0 0.405 0.06 0 0.41 0.06 0 0.415 0.06 0 0.42 0.06 0 0.425 0.06 0 0.43 0.06 0 0.435 0.06 0 0.44 0.06 0 0.445 0.06 0 0.45 0.06 0 0.455 0.06 0 0.46 0.06 0 0.465 0.06 0 0.47 0.06 0 0.475 0.06 0 0.48 0.06 0 0.485 0.06 0 0.49 0.06 0 0.495 0.06 0 0.5 0.06 0 0.505 0.06 0 0.51 0.06 0 0.515 0.06 0 0.52 0.06 0 0.525 0.06 0 0.53 0.06 0 0.535 0.06 0 0.54 0.06 0 0.545 0.06 0 0.55 0.06 0 0.555 0.06 0 0.56 0.06 0 0.565 0.06 0 0.57 0.06 0 0.575 0.06 0 0.58 0.06 0 0.585 0.06 0 0.59 0.06 0 0.595 0.06 0 0.6 0.06 0 0.605 0.06 0 0.61 0.06 0 0.615 0.06 0 0.62 0.06 0 0.625 0.06 0 0.63 0.06 0 0.635 0.06 0 0.64 0.06 0 0.645 0.06 0 0.65 0.06 0 0.655 0.06 0 0.66 0.06 0 0.665 0.06 0 0.67 0.06 0 0.675 0.06 0 0.68 0.06 0 0.685 0.06 0 0.69 0.06 0 0.695 0.06 0 0.7 0.06 0 0.705 0.06 0 0.71 0.06 0 0.715 0.06 0 0.72 0.06 0 0.725 0.06 0 0.73 0.06 0 0.735 0.06 0 0.74 0.06 0 0.745 0.06 0 0.75 0.06 0 0.755 0.06 0 0.76 0.06 0 0.765 0.06 0 0.77 0.06 0 0.775 0.06 0 0.78 0.06 0 0.785 0.06 0 0.79 0.06 0 0.795 0.06 0 0.8 0.06 0 0.805 0.06 0 0.81 0.06 0 0.815 0.06 0 0.82 0.06 0 0.825 0.06 0 0.83 0.06 0 0.835 0.06 0 0.84 0.06 0 0.845 0.06 0 0.85 0.06 0 0.855 0.06 0 0.86 0.06 0 0.865 0.06 0 0.87 0.06 0 0.875 0.06 0 0.88 0.06 0 0.885 0.06 0 0.89 0.06 0 0.895 0.06 0 0.9 0.06 0 0.905 0.06 0 0.91 0.06 0 0.915 0.06 0 0.92 0.06 0 0.925 0.06 0 0.93 0.06 0 0.935 0.06 0 0.94 0.06 0 0.945 0.06 0 0.95 0.06 0 0.955 0.06 0 0.96 0.06 0 0.965 0.06 0 0.97 0.06 0 0.975 0.06 0 0.98 0.06 0 0.985 0.06 0 0.99 0.06 0 0.995 0.06 0 1 0.06 0 0 0.08 0 0.005 0.08 0 0.01 0.08 0 0.015 0.08 0 0.02 0.08 0 0.025 0.08 0 0.03 0.08 0 0.035 0.08 0 0.04 0.08 0 0.045 0.08 0 0.05 0.08 0 0.055 0.08 0 0.06 0.08 0 0.065 0.08 0 0.07 0.08 0 0.075 0.08 0 0.08 0.08 0 0.085 0.08 0 0.09 0.08 0 0.095 0.08 0 0.1 0.08 0 0.105 0.08 0 0.11 0.08 0 0.115 0.08 0 0.12 0.08 0 0.125 0.08 0 0.13 0.08 0 0.135 0.08 0 0.14 0.08 0 0.145 0.08 0 0.15 0.08 0 0.155 0.08 0 0.16 0.08 0 0.165 0.08 0
[...]
			<PointData Scalars="VitesseX">
				<DataArray Name="VitesseX" type="Float32" format="ascii">
 0 -1.47214e-15 -8.79167e-15 3.07196e-15 -1.76378e-14 9.16718e-15 -6.07658e-15 -4.45191e-14 -8.20005e-15 -3.51553e-14 -1.47849e-14 7.17388e-15 -7.62446e-14 -3.04046e-14 -5.09142e-14 -1.10389e-13 -2.24137e-14 -1.50105e-13 -1.36562e-14 -8.5607e-14 -5.17562e-14 -6.85792e-14 6.62805e-14 -2.13818e-14 -8.1575e-14 1.35251e-13 -1.0706e-13 -1.26732e-14 -5.25181e-14 -4.07408e-14 -1.55206e-13 -4.78009e-14 -6.93182e-14 -6.15629e-14 6.54919e-14 -2.42759e-13 -3.32857e-14 -8.83607e-14 -7.28346e-14 -3.32886e-14 -5.53429e-14 2.56677e-14 7.10845e-14 5.08245e-13 2.94769e-12 1.91267e-11 1.18713e-10 6.94399e-10 3.84891e-09 2.0157e-08 9.95409e-08 4.62168e-07 2.0111e-06 8.17158e-06 3.08717e-05 0.000107895 0.000346745 0.0010173 0.00270184 0.00643647 0.0136371 0.0255687 0.0425153 0.0634344 0.0866281 0.11074 0.135101 0.159489 0.183837 0.208124 0.232337 0.256472 0.280524 0.30449 0.328365 0.352146 0.375829 0.399408 0.422876 0.446226 0.469448 0.492532 0.515464 0.53823 0.560811 0.583186 0.605331 0.627217 0.648809 0.670071 0.690956 0.711413 0.731382 0.750798 0.769584 0.787659 0.804931 0.821305 0.836682 0.850965 0.864061 0.875893 0.886401 0.895555 0.903355 0.909842 0.915093 0.919216 0.922348 0.924641 0.92625 0.927323 0.927993 0.928374 0.928555 0.928605 0.928587 0.928537 0.928464 0.928377 0.928281 0.928181 0.928081 0.927982 0.927886 0.927794 0.927706 0.927622 0.927542 0.927465 0.927391 0.927319 0.927249 0.927181 0.927113 0.927045 0.926977 0.926908 0.926835 0.926755 0.926663 0.926549 0.926395 0.926171 0.925826 0.925274 0.924372 0.922886 0.920441 0.916439 0.90996 0.899615 0.883398 0.858581 0.821751 0.769173 0.697632 0.605836 0.496202 0.376314 0.258698 0.157693 0.0838751 0.0390665 0.0164338 0.00650929 0.00250357 0.000949998 0.000358052 0.000134377 5.02569e-05 1.8733e-05 6.95794e-06 2.57453e-06 9.48683e-07 3.48016e-07 1.27053e-07 4.61446e-08 1.66672e-08 5.98506e-09 2.13586e-09 7.57012e-10 2.66686e-10 9.25386e-11 3.23647e-11 1.06738e-11 3.30806e-12 9.79043e-13 3.1739e-13 3.36067e-14 9.62291e-14 -4.93817e-13 -2.65029e-13 4.77844e-13 -1.02202e-13 2.11975e-13 -2.0431e-13 -2.16008e-13 7.70591e-13 -2.11477e-13 0 0 -7.94562e-15 -8.70717e-15 -2.32946e-15 -7.54975e-15 -2.57474e-14 -5.25674e-15 -9.80606e-15 -1.49393e-14 -2.17373e-14 -4.80647e-14 -6.46917e-14 -1.75624e-14 -6.60918e-14 -6.96328e-14 -8.33073e-15 -1.48048e-13 -3.00003e-14 -1.0546e-13 -4.71879e-14 -2.72229e-14 -2.0527e-14 -2.68835e-14 -5.67189e-14 1.00543e-13 -4.37768e-14 -5.22934e-15 -1.0646e-13 8.89196e-15 -6.93964e-14 -2.68333e-14 -1.81718e-13 -3.85794e-14 -2.28383e-14 -1.55293e-13 8.26259e-14 -1.75278e-13 -6.179e-14 -6.08821e-14 -9.18036e-14 -7.893e-14 3.08969e-14 8.97875e-14 3.68903e-13 2.97079e-12 1.94152e-11 1.18737e-10 6.94529e-10 3.84838e-09 2.01572e-08 9.95412e-08 4.62168e-07 2.0111e-06 8.17158e-06 3.08717e-05 0.000107895 0.000346745 0.0010173 0.00270184 0.00643647 0.0136371 0.0255687 0.0425153 0.0634344 0.0866281 0.11074 0.135101 0.159489 0.183837 0.208124 0.232337 0.256472 0.280524 0.30449 0.328365 0.352146 0.375829 0.399408 0.422876 0.446226 0.469448 0.492532 0.515464 0.53823 0.560811 0.583186 0.605331 0.627217 0.648809 0.670071 0.690956 0.711413 0.731382 0.750798 0.769584 0.787659 0.804931 0.821305 0.836682 0.850965 0.864061 0.875893 0.886401 0.895555 0.903355 0.909842 0.915093 0.919216 0.922348 0.924641 0.92625 0.927323 0.927993 0.928374 0.928555 0.928605 0.928587 0.928537 0.928464 0.928377 0.928281 0.928181 0.928081 0.927982 0.927886 0.927794 0.927706 0.927622 0.927542 0.927465 0.927391 0.927319 0.927249 0.927181 0.927113 0.927045 0.926977 0.926908 0.926835 0.926755 0.926663 0.926549 0.926395 0.926171 0.925826 0.925274 0.924372 0.922886 0.920441 0.916439 0.90996 0.899615 0.883398 0.858581 0.821751 0.769173 0.697632 0.605836 0.496202 0.376314 0.258698 0.157693 0.0838751 0.0390665 0.0164338 0.00650929 0.00250357 0.000949998 0.000358052 0.000134377 5.02569e-05 1.8733e-05 6.95794e-06 2.57453e-06 9.48683e-07 3.48016e-07 1.27052e-07 4.61449e-08 1.66673e-08 5.98496e-09 2.13577e-09 7.57302e-10 2.66233e-10 9.33944e-11 3.17523e-11 1.08477e-11 3.10564e-12 9.23548e-13 1.5571e-13 1.90989e-13 1.73994e-14 6.07902e-14 -1.42681e-13 -2.50997e-13 3.37996e-13 2.33389e-13 1.83867e-13 1.05843e-13 -4.58987e-13 -8.37773e-15 0 0 8.91117e-17 9.23805e-15 -1.79309e-14 1.83575e-15 -1.7932e-14 -3.95134e-14 -4.05901e-14 -1.5507e-14 -1.56643e-14 -4.03349e-14 -6.82525e-14 -7.48396e-14 -4.12903e-14 -8.60261e-14 -4.72339e-14 -2.06284e-15 -7.74693e-14 -4.73311e-14 -7.17812e-14 -5.43049e-14 2.30886e-14 -3.10075e-14 9.03131e-15 -8.95446e-14 -2.99535e-14 -7.01631e-14 3.14208e-14 -1.08354e-13 -5.82158e-14 -7.16259e-14 7.99929e-15 -7.09229e-14 -3.42786e-14 -3.95405e-14 -1.82232e-13 1.86852e-14 -5.27902e-14 -7.20748e-14 -1.49265e-13 5.04163e-14 -1.37237e-13 5.24001e-14 4.9345e-13 2.97416e-12 1.94681e-11 1.18698e-10 6.94675e-10 3.84847e-09 2.0157e-08 9.95411e-08 4.62168e-07 2.0111e-06 8.17158e-06 3.08717e-05 0.000107895 0.000346745 0.0010173 0.00270184 0.00643647 0.0136371 0.0255687 0.0425153 0.0634344 0.0866281 0.11074 0.135101 0.159489 0.183837 0.208124 0.232337 0.256472 0.280524 0.30449 0.328365 0.352146 0.375829 0.399408 0.422876 0.446226 0.469448 0.492532 0.515464 0.53823 0.560811 0.583186 0.605331 0.627217 0.648809 0.670071 0.690956 0.711413 0.731382 0.750798 0.769584 0.787659 0.804931 0.821305 0.836682 0.850965 0.864061 0.875893 0.886401 0.895555 0.903355 0.909842 0.915093 0.919216 0.922348 0.924641 0.92625 0.927323 0.927993 0.928374 0.928555 0.928605 0.928587 0.928537 0.928464 0.928377 0.928281 0.928181 0.928081 0.927982 0.927886 0.927794 0.927706 0.927622 0.927542 0.927465 0.927391 0.927319 0.927249 0.927181 0.927113 0.927045 0.926977 0.926908 0.926835 0.926755 0.926663 0.926549 0.926395 0.926171 0.925826 0.925274 0.924372 0.922886 0.920441 0.916439 0.90996 0.899615 0.883398 0.858581 0.821751 0.769173 0.697632 0.605836 0.496202 0.376314 0.258698 0.157693 0.0838751 0.0390665 0.0164338 0.00650929 0.00250357 0.000949998 0.000358052 0.000134377 5.02569e-05 1.8733e-05 6.95794e-06 2.57453e-06 9.48683e-07 3.48016e-07 1.27053e-07 4.61446e-08 1.66674e-08 5.98517e-09 2.13592e-09 7.57177e-10 2.66543e-10 9.29084e-11 3.20233e-11 1.06446e-11 3.32628e-12 1.07447e-12 -1.49324e-13 3.16306e-13 -4.39551e-14 -3.16037e-13 9.21679e-14 1.72564e-13 -5.05299e-14 2.33893e-13 -1.33197e-13 -2.30861e-13 -2.43763e-13 -1.74284e-13 0 0 -7.78628e-16 -1.10896e-14 1.34276e-15 -1.91999e-14 -1.54075e-14 -8.06739e-15 -4.49263e-14 -6.37336e-14 -5.17184e-14 -2.5681e-14 -5.76095e-14 -7.50039e-14 -2.48872e-14 -8.35117e-14 -3.14036e-14 -8.46504e-15 -1.31457e-14 -2.00847e-14 -4.75569e-14 -9.06282e-14 -1.01838e-13 1.01653e-14 -2.16935e-14 -4.51237e-14 4.23792e-15 -1.29595e-13 1.50672e-15 -1.63593e-13 4.72666e-14 -2.93402e-14 -5.56989e-14 -3.2917e-14 -1.33464e-13 -6.98864e-14 -1.84813e-13 6.6985e-14 -1.11075e-13 -2.22452e-14 -3.45532e-14 -9.83296e-14 -6.75305e-14 1.42533e-13 5.74682e-13 3.01097e-12 1.92634e-11 1.18959e-10 6.94682e-10 3.84871e-09 2.0157e-08 9.95409e-08 4.62168e-07 2.0111e-06 8.17158e-06 3.08717e-05 0.000107895 0.000346745 0.0010173 0.00270184 0.00643647 0.0136371 0.0255687 0.0425153 0.0634344 0.0866281 0.11074 0.135101 0.159489 0.183837 0.208124 0.232337 0.256472 0.280524 0.30449 0.328365 0.352146 0.375829 0.399408 0.422876 0.446226 0.469448 0.492532 0.515464 0.53823 0.560811 0.583186 0.605331 0.627217 0.648809 0.670071 0.690956 0.711413 0.731382 0.750798 0.769584 0.787659 0.804931 0.821305 0.836682 0.850965 0.864061 0.875893 0.886401 0.895555 0.903355 0.909842 0.915093 0.919216 0.922348 0.924641 0.92625 0.927323 0.927993 0.928374 0.928555 0.928605 0.928587 0.928537 0.928464 0.928377 0.928281 0.928181 0.928081 0.927982 0.927886 0.927794 0.927706 0.927622 0.927542 0.927465 0.927391 0.927319 0.927249 0.927181 0.927113 0.927045 0.926977 0.926908 0.926835 0.926755 0.926663 0.926549 0.926395 0.926171 0.925826 0.925274 0.924372 0.922886 0.920441 0.916439 0.90996 0.899615 0.883398 0.858581 0.821751 0.769173 0.697632 0.605836 0.496202 0.376314 0.258698 0.157693 0.0838751 0.0390665 0.0164338 0.00650929 0.00250357 0.000949998 0.000358052 0.000134377 5.02569e-05 1.8733e-05 6.95794e-06 2.57453e-06 9.48683e-07 3.48016e-07 1.27053e-07 4.61447e-08 1.66675e-08 5.98505e-09 2.1358e-09 7.57119e-10 2.66656e-10 9.28355e-11 3.18971e-11 1.07759e-11 3.63189e-12 6.88933e-13 2.17494e-13 -4.3531e-13 -5.41012e-14 -7.37168e-13 7.34306e-13 3.07877e-13 -7.6235e-13 -6.06739e-14 -3.50203e-14 1.39076e-13 5.78788e-14 -2.60456e-13 0 0 -6.72809e-15 -1.96266e-14 -1.14596e-15 -1.8723e-14 -3.17827e-14 -4.26681e-15 -2.6011e-15 -4.64734e-14 -5.14994e-14 -5.62227e-14 -7.17447e-14 -1.95417e-14 -8.61544e-14 -5.57532e-14 1.38259e-14 -9.93003e-14 2.50283e-14 -6.41306e-14 -2.8873e-14 -6.52304e-14 -9.56813e-14 -2.25131e-14 -1.17933e-13 1.11991e-13 -8.41979e-14 -2.47818e-15 -1.30607e-13 -4.90901e-14 -4.02209e-14 -2.41036e-14 -1.75304e-13 -3.81004e-14 -1.1712e-13 -2.45734e-13 1.80879e-13 -9.32475e-14 -1.50826e-14 -7.09688e-14 -3.53977e-14 -1.70672e-13 4.205e-14 1.80038e-13 5.05586e-13 3.05606e-12 1.93801e-11 1.19017e-10 6.94674e-10 3.84856e-09 2.01572e-08 9.95411e-08 4.62168e-07 2.0111e-06 8.17158e-06 3.08717e-05 0.000107895 0.000346745 0.0010173 0.00270184 0.00643647 0.0136371 0.0255687 0.0425153 0.0634344 0.0866281 0.11074 0.135101 0.159489 0.183837 0.208124 0.232337 0.256472 0.280524 0.30449 0.328365 0.352146 0.375829 0.399408 0.422876 0.446226 0.469448 0.492532 0.515464 0.53823 0.560811 0.583186 0.605331 0.627217 0.648809 0.670071 0.690956 0.711413 0.731382 0.750798 0.769584 0.787659 0.804931 0.821305 0.836682 0.850965 0.864061 0.875893 0.886401 0.895555 0.903355 0.909842 0.915093 0.919216 0.922348 0.924641 0.92625 0.927323 0.927993 0.928374 0.928555 0.928605 0.928587 0.928537 0.928464 0.928377 0.928281 0.928181 0.928081 0.927982 0.927886 0.927794 0.927706 0.927622 0.927542 0.927465 0.927391 0.927319 0.927249 0.927181 0.927113 0.927045 0.926977 0.926908 0.926835 0.926755 0.926663 0.926549 0.926395 0.926171 0.925826 0.925274 0.924372 0.922886 0.920441 0.916439 0.90996 0.899615 0.883398 0.858581 0.821751 0.769173 0.697632 0.605836 0.496202 0.376314 0.258698 0.157693 0.0838751 0.0390665 0.0164338 0.00650929 0.00250357 0.000949998 0.000358052 0.000134377 5.02569e-05 1.8733e-05 6.95794e-06 2.57453e-06 9.48683e-07 3.48017e-07 1.27053e-07 4.61451e-08 1.66674e-08 5.98492e-09 2.1353e-09 7.57376e-10 2.6638e-10 9.31708e-11 3.16451e-11 1.106e-11 2.76332e-12 3.71142e-13 3.79842e-13 -4.57659e-13 -1.02154e-13 1.13322e-13 2.51088e-13 -1.90373e-13 7.08563e-15 -1.57072e-13 1.31973e-13 1.79159e-13 -1.72008e-13 8.67446e-14 0 0 2.69839e-15 1.00248e-14 -3.31083e-14 2.08703e-15 -7.95227e-15 -6.69888e-14 -2.14368e-14 2.51848e-14 -2.25714e-14 -6.04087e-14 -2.82182e-14 -7.98746e-14 -1.03336e-13 -2.8184e-14 -9.77362e-14 8.78856e-14 -1.68695e-13 1.45103e-14 -9.74258e-14 -5.51245e-14 3.09643e-14 -7.3243e-15 -8.23612e-14 -1.47523e-13 -1.3974e-14 1.73071e-14 -1.13869e-15 -5.80025e-14 -1.93355e-13 -2.34318e-13 9.24246e-14 -1.44372e-13 -5.17557e-14 -5.46988e-14 -4.10921e-14 3.41755e-14 1.21624e-13 -1.92667e-13 -1.49901e-13 5.86648e-14 -9.14396e-14 7.13178e-14 6.19147e-13 3.04462e-12 1.94658e-11 1.18752e-10 6.94675e-10 3.84878e-09 2.01569e-08 9.95411e-08 4.62168e-07 2.0111e-06 8.17158e-06 3.08717e-05 0.000107895 0.000346745 0.0010173 0.00270184 0.00643647 0.0136371 0.0255687 0.0425153 0.0634344 0.0866281 0.11074 0.135101 0.159489 0.183837 0.208124 0.232337 0.256472 0.280524 0.30449 0.328365 0.352146 0.375829 0.399408 0.422876 0.446226 0.469448 0.492532 0.515464 0.53823 0.560811 0.583186 0.605331 0.627217 0.648809 0.670071 0.690956 0.711413 0.731382 0.750798 0.769584 0.787659 0.804931 0.821305 0.836682 0.850965 0.864061 0.875893 0.886401 0.895555 0.903355 0.909842 0.915093 0.919216 0.922348 0.924641 0.92625 0.927323 0.927993 0.928374 0.928555 0.928605 0.928587 0.928537 0.928464 0.928377 0.928281 0.928181 0.928081 0.927982 0.927886 0.927794 0.927706 0.927622 0.927542 0.927465 0.927391 0.927319 0.927249 0.927181 0.927113 0.927045 0.926977 0.926908 0.926835 0.926755 0.926663 0.926549 0.926395 0.926171 0.925826 0.925274 0.924372 0.922886 0.920441 0.916439 0.90996 0.899615 0.883398 0.858581 0.821751 0.769173 0.697632 0.605836 0.496202 0.376314 0.258698 0.157693 0.0838751 0.0390665 0.0164338 0.00650929 0.00250358 0.000949998 0.000358052 0.000134377 5.02569e-05 1.8733e-05 6.95794e-06 2.57453e-06 9.48683e-07 3.48016e-07 1.27053e-07 4.61447e-08 1.66673e-08 5.9852e-09 2.13515e-09 7.57274e-10 2.66752e-10 9.22372e-11 3.24028e-11 1.08358e-11 2.01221e-12 6.45306e-13 3.20163e-14 2.39543e-13 -1.22586e-13 4.5351e-13 -7.61765e-13 3.28468e-13 6.59617e-13 2.0187e-14 -5.04451e-13 -8.09249e-13 7.41265e-13 1.51111e-13 0
				</DataArray>
				<DataArray Name="VitesseY" type="Float32" format="ascii">