<?xml version="1.0"?>
<VTKFile type="PolyData">
	<PolyData>
		<Piece NumberOfPoints="1206" NumberOfPolys="1000">
			<Points>
				<DataArray type="Float32" NumberOfComponents="3" format="ascii">
 0 0 0 0.005 0 0 0.01 0 0 0.015 0 0 0.02 0 0 0.025 0 0 0.03 0 0 0.035 0 0 0.04 0 0 0.045 0 0 0.05 0 0 0.055 0 0 0.06 0 0 0.065 0 0 0.07 0 0 0.075 0 0 0.08 0 0 0.085 0 0 0.09 0 0 0.095 0 0 0.1 0 0 0.105 0 0 0.11 0 0 0.115 0 0 0.12 0 0 0.125 0 0 0.13 0 0 0.135 0 0 0.14 0 0 0.145 0 0 0.15 0 0 0.155 0 0 0.16 0 0 0.165 0 0 0.17 0 0 0.175 0 0 0.18 0 0 0.185 0 0 0.19 0 0 0.195 0 0 0.2 0 0 0.205 0 0 0.21 0 0 0.215 0 0 0.22 0 0 0.225 0 0 0.23 0 0 0.235 0 0 0.24 0 0 0.245 0 0 0.25 0 0 0.255 0 0 0.26 0 0 0.265 0 0 0.27 0 0 0.275 0 0 0.28 0 0 0.285 0 0 0.29 0 0 0.295 0 0 0.3 0 0 0.305 0 0 0.31 0 0 0.315 0 0 0.32 0 0 0.325 0 0 0.33 0 0 0.335 0 0 0.34 0 0 0.345 0 0 0.35 0 0 0.355 0 0 0.36 0 0 0.365 0 0 0.37 0 0 0.375 0 0 0.38 0 0 0.385 0 0 0.39 0 0 0.395 0 0 0.4 0 0 0.405 0 0 0.41 0 0 0.415 0 0 0.42 0 0 0.425 0 0 0.43 0 0 0.435 0 0 0.44 0 0 0.445 0 0 0.45 0 0 0.455 0 0 0.46 0 0 0.465 0 0 0.47 0 0 0.475 0 0 0.48 0 0 0.485 0 0 0.49 0 0 0.495 0 0 0.5 0 0 0.505 0 0 0.51 0 0 0.515 0 0 0.52 0 0 0.525 0 0 0.53 0 0 0.535 0 0 0.54 0 0 0.545 0 0 0.55 0 0 0.555 0 0 0.56 0 0 0.565 0 0 0.57 0 0 0.575 0 0 0.58 0 0 0.585 0 0 0.59 0 0 0.595 0 0 0.6 0 0 0.605 0 0 0.61 0 0 0.615 0 0 0.62 0 0 0.625 0 0 0.63 0 0 0.635 0 0 0.64 0 0 0.645 0 0 0.65 0 0 0.655 0 0 0.66 0 0 0.665 0 0 0.67 0 0 0.675 0 0 0.68 0 0 0.685 0 0 0.69 0 0 0.695 0 0 0.7 0 0 0.705 0 0 0.71 0 0 0.715 0 0 0.72 0 0 0.725 0 0 0.73 0 0 0.735 0 0 0.74 0 0 0.745 0 0 0.75 0 0 0.755 0 0 0.76 0 0 0.765 0 0 0.77 0 0 0.775 0 0 0.78 0 0 0.785 0 0 0.79 0 0 0.795 0 0 0.8 0 0 0.805 0 0 0.81 0 0 0.815 0 0 0.82 0 0 0.825 0 0 0.83 0 0 0.835 0 0 0.84 0 0 0.845 0 0 0.85 0 0 0.855 0 0 0.86 0 0 0.865 0 0 0.87 0 0 0.875 0 0 0.88 0 0 0.885 0 0 0.89 0 0 0.895 0 0 0.9 0 0 0.905 0 0 0.91 0 0 0.915 0 0 0.92 0 0 0.925 0 0 0.93 0 0 0.935 0 0 0.94 0 0 0.945 0 0 0.95 0 0 0.955 0 0 0.96 0 0 0.965 0 0 0.97 0 0 0.975 0 0 0.98 0 0 0.985 0 0 0.99 0 0 0.995 0 0 1 0 0 0 0.02 0 0.005 0.02 0 0.01 0.02 0 0.015 0.02 0 0.02 0.02 0 0.025 0.02 0 0.03 0.02 0 0.035 0.02 0 0.04 0.02 0 0.045 0.02 0 0.05 0.02 0 0.055 0.02 0 0.06 0.02 0 0.065 0.02 0 0.07 0.02 0 0.075 0.02 0 0.08 0.02 0 0.085 0.02 0 0.09 0.02 0 0.095 0.02 0 0.1 0.02 0 0.105 0.02 0 0.11 0.02 0 0.115 0.02 0 0.12 0.02 0 0.125 0.02 0 0.13 0.02 0 0.135 0.02 0 0.14 0.02 0 0.145 0.02 0 0.15 0.02 0 0.155 0.02 0 0.16 0.02 0 0.165 0.02 0 0.17 0.02 0 0.175 0.02 0 0.18 0.02 0 0.185 0.02 0 0.19 0.02 0 0.195 0.02 0 0.2 0.02 0 0.205 0.02 0 0.21 0.02 0 0.215 0.02 0 0.22 0.02 0 0.225 0.02 0 0.23 0.02 0 0.235 0.02 0 0.24 0.02 0 0.245 0.02 0 0.25 0.02 0 0.255 0.02 0 0.26 0.02 0 0.265 0.02 0 0.27 0.02 0 0.275 0.02 0 0.28 0.02 0 0.285 0.02 0 0.29 0.02 0 0.295 0.02 0 0.3 0.02 0 0.305 0.02 0 0.31 0.02 0 0.315 0.02 0 0.32 0.02 0 0.325 0.02 0 0.33 0.02 0 0.335 0.02 0 0.34 0.02 0 0.345 0.02 0 0.35 0.02 0 0.355 0.02 0 0.36 0.02 0 0.365 0.02 0 0.37 0.02 0 0.375 0.02 0 0.38 0.02 0 0.385 0.02 0 0.39 0.02 0 0.395 0.02 0 0.4 0.02 0 0.405 0.02 0 0.41 0.02 0 0.415 0.02 0 0.42 0.02 0 0.425 0.02 0 0.43 0.02 0 0.435 0.02 0 0.44 0.02 0 0.445 0.02 0 0.45 0.02 0 0.455 0.02 0 0.46 0.02 0 0.465 0.02 0 0.47 0.02 0 0.475 0.02 0 0.48 0.02 0 0.485 0.02 0 0.49 0.02 0 0.495 0.02 0 0.5 0.02 0 0.505 0.02 0 0.51 0.02 0 0.515 0.02 0 0.52 0.02 0 0.525 0.02 0 0.53 0.02 0 0.535 0.02 0 0.54 0.02 0 0.545 0.02 0 0.55 0.02 0 0.555 0.02 0 0.56 0.02 0 0.565 0.02 0 0.57 0.02 0 0.575 0.02 0 0.58 0.02 0 0.585 0.02 0 0.59 0.02 0 0.595 0.02 0 0.6 0.02 0 0.605 0.02 0 0.61 0.02 0 0.615 0.02 0 0.62 0.02 0 0.625 0.02 0 0.63 0.02 0 0.635 0.02 0 0.64 0.02 0 0.645 0.02 0 0.65 0.02 0 0.655 0.02 0 0.66 0.02 0 0.665 0.02 0 0.67 0.02 0 0.675 0.02 0 0.68 0.02 0 0.685 0.02 0 0.69 0.02 0 0.695 0.02 0 0.7 0.02 0 0.705 0.02 0 0.71 0.02 0 0.715 0.02 0 0.72 0.02 0 0.725 0.02 0 0.73 0.02 0 0.735 0.02 0 0.74 0.02 0 0.745 0.02 0 0.75 0.02 0 0.755 0.02 0 0.76 0.02 0 0.765 0.02 0 0.77 0.02 0 0.775 0.02 0 0.78 0.02 0 0.785 0.02 0 0.79 0.02 0 0.795 0.02 0 0.8 0.02 0 0.805 0.02 0 0.81 0.02 0 0.815 0.02 0 0.82 0.02 0 0.825 0.02 0 0.83 0.02 0 0.835 0.02 0 0.84 0.02 0 0.845 0.02 0 0.85 0.02 0 0.855 0.02 0 0.86 0.02 0 0.865 0.02 0 0.87 0.02 0 0.875 0.02 0 0.88 0.02 0 0.885 0.02 0 0.89 0.02 0 0.895 0.02 0 0.9 0.02 0 0.905 0.02 0 0.91 0.02 0 0.915 0.02 0 0.92 0.02 0 0.925 0.02 0 0.93 0.02 0 0.935 0.02 0 0.94 0.02 0 0.945 0.02 0 0.95 0.02 0 0.955 0.02 0 0.96 0.02 0 0.965 0.02 0 0.97 0.02 0 0.975 0.02 0 0.98 0.02 0 0.985 0.02 0 0.99 0.02 0 0.995 0.02 0 1 0.02 0 0 0.04 0 0.005 0.04 0 0.01 0.04 0 0.015 0.04 0 0.02 0.04 0 0.025 0.04 0 0.03 0.04 0 0.035 0.04 0 0.04 0.04 0 0.045 0.04 0 0.05 0.04 0 0.055 0.04 0 0.06 0.04 0 0.065 0.04 0 0.07 0.04 0 0.075 0.04 0 0.08 0.04 0 0.085 0.04 0 0.09 0.04 0 0.095 0.04 0 0.1 0.04 0 0.105 0.04 0 0.11 0.04 0 0.115 0.04 0 0.12 0.04 0 0.125 0.04 0 0.13 0.04 0 0.135 0.04 0 0.14 0.04 0 0.145 0.04 0 0.15 0.04 0 0.155 0.04 0 0.16 0.04 0 0.165 0.04 0 0.17 0.04 0 0.175 0.04 0 0.18 0.04 0 0.185 0.04 0 0.19 0.04 0 0.195 0.04 0 0.2 0.04 0 0.205 0.04 0 0.21 0.04 0 0.215 0.04 0 0.22 0.04 0 0.225 0.04 0 0.23 0.04 0 0.235 0.04 0 0.24 0.04 0 0.245 0.04 0 0.25 0.04 0 0.255 0.04 0 0.26 0.04 0 0.265 0.04 0 0.27 0.04 0 0.275 0.04 0 0.28 0.04 0 0.285 0.04 0 0.29 0.04 0 0.295 0.04 0 0.3 0.04 0 0.305 0.04 0 0.31 0.04 0 0.315 0.04 0 0.32 0.04 0 0.325 0.04 0 0.33 0.04 0 0.335 0.04 0 0.34 0.04 0 0.345 0.04 0 0.35 0.04 0 0.355 0.04 0 0.36 0.04 0 0.365 0.04 0 0.37 0.04 0 0.375 0.04 0 0.38 0.04 0 0.385 0.04 0 0.39 0.04 0 0.395 0.04 0 0.4 0.04 0 0.405 0.04 0 0.41 0.04 0 0.415 0.04 0 0.42 0.04 0 0.425 0.04 0 0.43 0.04 0 0.435 0.04 0 0.44 0.04 0 0.445 0.04 0 0.45 0.04 0 0.455 0.04 0 0.46 0.04 0 0.465 0.04 0 0.47 0.04 0 0.475 0.04 0 0.48 0.04 0 0.485 0.04 0 0.49 0.04 0 0.495 0.04 0 0.5 0.04 0 0.505 0.04 0 0.51 0.04 0 0.515 0.04 0 0.52 0.04 0 0.525 0.04 0 0.53 0.04 0 0.535 0.04 0 0.54 0.04 0 0.545 0.04 0 0.55 0.04 0 0.555 0.04 0 0.56 0.04 0 0.565 0.04 0 0.57 0.04 0 0.575 0.04 0 0.58 0.04 0 0.585 0.04 0 0.59 0.04 0 0.595 0.04 0 0.6 0.04 0 0.605 0.04 0 0.61 0.04 0 0.615 0.04 0 0.62 0.04 0 0.625 0.04 0 0.63 0.04 0 0.635 0.04 0 0.64 0.04 0 0.645 0.04 0 0.65 0.04 0 0.655 0.04 0 0.66 0.04 0 0.665 0.04 0 0.67 0.04 0 0.675 0.04 0 0.68 0.04 0 0.685 0.04 0 0.69 0.04 0 0.695 0.04 0 0.7 0.04 0 0.705 0.04 0 0.71 0.04 0 0.715 0.04 0 0.72 0.04 0 0.725 0.04 0 0.73 0.04 0 0.735 0.04 0 0.74 0.04 0 0.745 0.04 0 0.75 0.04 0 0.755 0.04 0 0.76 0.04 0 0.765 0.04 0 0.77 0.04 0 0.775 0.04 0 0.78 0.04 0 0.785 0.04 0 0.79 0.04 0 0.795 0.04 0 0.8 0.04 0 0.805 0.04 0 0.81 0.04 0 0.815 0.04 0 0.82 0.04 0 0.825 0.04 0 0.83 0.04 0 0.835 0.04 0 0.84 0.04 0 0.845 0.04 0 0.85 0.04 0 0.855 0.04 0 0.86 0.04 0 0.865 0.04 0 0.87 0.04 0 0.875 0.04 0 0.88 0.04 0 0.885 0.04 0 0.89 0.04 0 0.895 0.04 0 0.9 0.04 0 0.905 0.04 0 0.91 0.04 0 0.915 0.04 0 0.92 0.04 0 0.925 0.04 0 0.93 0.04 0 0.935 0.04 0 0.94 0.04 0 0.945 0.04 0 0.95 0.04 0 0.955 0.04 0 0.96 0.04 0 0.965 0.04 0 0.97 0.04 0 0.975 0.04 0 0.98 0.04 0 0.985 0.04 0 0.99 0.04 0 0.995 0.04 0 1 0.04 0 0 0.06 0 0.005 0.06 0 0.01 0.06 0 0.015 0.06 0 0.02 0.06 0 0.025 0.06 0 0.03 0.06 0 0.035 0.06 0 0.04 0.06 0 0.045 0.06 0 0.05 0.06 0 0.055 0.06 0 0.06 0.06 0 0.065 0.06 0 0.07 0.06 0 0.075 0.06 0 0.08 0.06 0 0.085 0.06 0 0.09 0.06 0 0.095 0.06 0 0.1 0.06 0 0.105 0.06 0 0.11 0.06 0 0.115 0.06 0 0.12 0.06 0 0.125 0.06 0 0.13 0.06 0 0.135 0.06 0 0.14 0.06 0 0.145 0.06 0 0.15 0.06 0 0.155 0.06 0 0.16 0.06 0 0.165 0.06 0 0.17 0.06 0 0.175 0.06 0 0.18 0.06 0 0.185 0.06 0 0.19 0.06 0 0.195 0.06 0 0.2 0.06 0 0.205 0.06 0 0.21 0.06 0 0.215 0.06 0 0.22 0.06 0 0.225 0.06 0 0.23 0.06 0 0.235 0.06 0 0.24 0.06 0 0.245 0.06 0 0.25 0.06 0 0.255 0.06 0 0.26 0.06 0 0.265 0.06 0 0.27 0.06 0 0.275 0.06 0 0.28 0.06 0 0.285 0.06 0 0.29 0.06 0 0.295 0.06 0 0.3 0.06 0 0.305 0.06 0 0.31 0.06 0 0.315 0.06 0 0.32 0.06 0 0.325 0.06 0 0.33 0.06 0 0.335 0.06 0 0.34 0.06 0 0.345 0.06 0 0.35 0.06 0 0.355 0.06 0 0.36 0.06 0 0.365 0.06 0 0.37 0.06 0 0.375 0.06 0 0.38 0.06 0 0.385 0.06 0 0.39 0.06 0 0.395 0.06 0 0.4 0.06 0 0.405 0.06 0 0.41 0.06 0 0.415 0.06 0 0.42 0.06 0 0.425 0.06 0 0.43 0.06 0 0.435 0.06 0 0.44 0.06 0 0.445 0.06 0 0.45 0.06 0 0.455 0.06 0 0.46 0.06 0 0.465 0.06 0 0.47 0.06 0 0.475 0.06 0 0.48 0.06 0 0.485 0.06 0 0.49 0.06 0 0.495 0.06 0 0.5 0.06 0 0.505 0.06 0 0.51 0.06 0 0.515 0.06 0 0.52 0.06 0 0.525 0.06 0 0.53 0.06 0 0.535 0.06 0 0.54 0.06 0 0.545 0.06 0 0.55 0.06 0 0.555 0.06 0 0.56 0.06 0 0.565 0.06 0 0.57 0.06 0 0.575 0.06 0 0.58 0.06 0 0.585 0.06 0 0.59 0.06 0 0.595 0.06 0 0.6 0.06 0 0.605 0.06 0 0.61 0.06 0 0.615 0.06 0 0.62 0.06 0 0.625 0.06 0 0.63 0.06 0 0.635 0.06 0 0.64 0.06 0 0.645 0.06 0 0.65 0.06 0 0.655 0.06 0 0.66 0.06 0 0.665 0.06 0 0.67 0.06 0 0.675 0.06 0 0.68 0.06 0 0.685 0.06 0 0.69 0.06 0 0.695 0.06 0 0.7 0.06 0 0.705 0.06 0 0.71 0.06 0 0.715 0.06 0 0.72 0.06 0 0.725 0.06 0 0.73 0.06 0 0.735 0.06 0 0.74 0.06 0 0.745 0.06 0 0.75 0.06 0 0.755 0.06 0 0.76 0.06 0 0.765 0.06 0 0.77 0.06 0 0.775 0.06 0 0.78 0.06 0 0.785 0.06 0 0.79 0.06 0 0.795 0.06 0 0.8 0.06 0 0.805 0.06 0 0.81 0.06 0 0.815 0.06 0 0.82 0.06 0 0.825 0.06 0 0.83 0.06 0 0.835 0.06 0 0.84 0.06 0 0.845 0.06 0 0.85 0.06 0 0.855 0.06 0 0.86 0.06 0 0.865 0.06 0 0.87 0.06 0 0.875 0.06 0 0.88 0.06 0 0.885 0.06 0 0.89 0.06 0 0.895 0.06 0 0.9 0.06 0 0.905 0.06 0 0.91 0.06 0 0.915 0.06 0 0.92 0.06 0 0.925 0.06 0 0.93 0.06 0 0.935 0.06 0 0.94 0.06 0 0.945 0.06 0 0.95 0.06 0 0.955 0.06 0 0.96 0.06 0 0.965 0.06 0 0.97 0.06 0 0.975 0.06 0 0.98 0.06 0 0.985 0.06 0 0.99 0.06 0 0.995 0.06 0 1 0.06 0 0 0.08 0 0.005 0.08 0 0.01 0.08 0 0.015 0.08 0 0.02 0.08 0 0.025 0.08 0 0.03 0.08 0 0.035 0.08 0 0.04 0.08 0 0.045 0.08 0 0.05 0.08 0 0.055 0.08 0 0.06 0.08 0 0.065 0.08 0 0.07 0.08 0 0.075 0.08 0 0.08 0.08 0 0.085 0.08 0 0.09 0.08 0 0.095 0.08 0 0.1 0.08 0 0.105 0.08 0 0.11 0.08 0 0.115 0.08 0 0.12 0.08 0 0.125 0.08 0 0.13 0.08 0 0.135 0.08 0 0.14 0.08 0 0.145 0.08 0 0.15 0.08 0 0.155 0.08 0 0.16 0.08 0 0.165 0.08 0
[...]
			<PointData Scalars="VitesseX">
				<DataArray Name="VitesseX" type="Float32" format="ascii">
 0 -4.02635e-15 1.09894e-14 4.66518e-15 -7.42693e-15 -5.12726e-15 1.22336e-14 -4.15001e-14 -1.38564e-14 4.4717e-15 -2.57034e-14 2.44891e-14 -4.8216e-14 4.94866e-14 -2.53529e-14 -2.57438e-14 2.90769e-14 -3.67811e-14 -6.1321e-15 -6.15679e-14 -7.38882e-14 -5.25932e-14 1.24802e-15 -5.1464e-14 -9.47505e-14 -1.37258e-13 -1.72017e-13 -6.40954e-14 -5.86121e-14 -1.40466e-13 4.01525e-14 4.02543e-14 3.84953e-14 -6.07033e-14 1.21984e-13 -1.66199e-13 -4.30163e-14 -2.55144e-13 -4.42208e-14 -1.77878e-13 -1.50501e-13 -1.31706e-13 -2.50331e-13 6.00998e-14 -1.32693e-13 -1.58337e-13 7.46686e-14 -8.64154e-14 -2.57999e-13 -4.20657e-14 7.26618e-14 7.04571e-14 1.87546e-12 1.22429e-11 8.94849e-11 5.95054e-10 3.73187e-09 2.1976e-08 1.21069e-07 6.21817e-07 2.9657e-06 1.30745e-05 5.29896e-05 0.000196153 0.000657963 0.00198096 0.00529463 0.0124216 0.0253613 0.0450208 0.0702681 0.0986782 0.128225 0.157973 0.187663 0.217236 0.246671 0.275959 0.305092 0.334066 0.362871 0.3915 0.41994 0.448177 0.476195 0.503972 0.531482 0.558694 0.585569 0.612064 0.638123 0.663685 0.688674 0.713004 0.736575 0.759275 0.780978 0.801546 0.820834 0.838695 0.854992 0.8696 0.882432 0.89344 0.902635 0.910085 0.91592 0.920322 0.923504 0.925695 0.927118 0.927974 0.928435 0.928633 0.928661 0.92862 0.928539 0.928433 0.92831 0.92818 0.928047 0.927916 0.927789 0.927666 0.927548 0.927435 0.927326 0.927218 0.927112 0.927001 0.926882 0.926743 0.926564 0.926311 0.925922 0.925291 0.924237 0.92246 0.919472 0.914501 0.906358 0.893282 0.872806 0.841717 0.796274 0.732847 0.649113 0.545746 0.428148 0.307094 0.196877 0.110513 0.0539267 0.0233372 0.00933164 0.00357879 0.00134509 0.000500224 0.000184732 6.78203e-05 2.47554e-05 8.98182e-06 3.23796e-06 1.15933e-06 4.12073e-07 1.45343e-07 5.08491e-08 1.7639e-08 6.06476e-09 2.06641e-09 6.96687e-10 2.32896e-10 7.68815e-11 2.46733e-11 8.11602e-12 1.96952e-12 4.93975e-13 2.26725e-13 -4.33539e-13 -1.682e-13 -2.20062e-13 3.44538e-14 -5.32837e-13 9.87748e-14 2.57297e-13 -6.14903e-13 4.89819e-13 4.03994e-13 -6.40749e-13 3.2934e-13 1.75595e-13 -2.10675e-13 4.8299e-13 1.48337e-13 8.55416e-13 -1.13008e-13 2.57887e-13 -2.71931e-13 9.67513e-13 3.55421e-13 0 0 2.04801e-14 1.09766e-14 5.40393e-15 7.1958e-15 -8.1681e-15 -1.25482e-14 -4.8848e-15 -1.02045e-14 -1.46453e-14 1.27924e-14 -1.74803e-14 2.71252e-14 -8.38564e-14 1.20323e-15 1.88119e-14 -4.71932e-14 2.94908e-14 -8.71816e-14 1.74867e-14 -2.93392e-14 -6.20327e-14 -9.08971e-14 -1.18884e-13 -7.30961e-14 -8.2203e-14 -5.83429e-14 -1.48945e-13 -1.01319e-13 1.56904e-14 6.76907e-15 3.60743e-14 -7.40174e-15 3.88799e-14 -2.0604e-13 3.23922e-14 -1.16885e-13 -5.53046e-15 -2.7764e-13 -6.44998e-14 -1.80787e-13 -1.28581e-13 4.82338e-14 -8.39658e-14 1.5485e-14 -1.73783e-13 -1.77805e-13 -5.15882e-14 1.00597e-13 -7.47713e-15 -1.79461e-13 3.07511e-13 1.58277e-12 1.28197e-11 8.88646e-11 5.94764e-10 3.73233e-09 2.19762e-08 1.21068e-07 6.21817e-07 2.9657e-06 1.30745e-05 5.29896e-05 0.000196153 0.000657963 0.00198096 0.00529463 0.0124216 0.0253613 0.0450208 0.0702681 0.0986782 0.128225 0.157973 0.187663 0.217236 0.246671 0.275959 0.305092 0.334066 0.362871 0.3915 0.41994 0.448177 0.476195 0.503972 0.531482 0.558694 0.585569 0.612064 0.638123 0.663685 0.688674 0.713004 0.736575 0.759275 0.780978 0.801546 0.820834 0.838695 0.854992 0.8696 0.882432 0.89344 0.902635 0.910085 0.91592 0.920322 0.923504 0.925695 0.927118 0.927974 0.928435 0.928633 0.928661 0.92862 0.928539 0.928433 0.92831 0.92818 0.928047 0.927916 0.927789 0.927666 0.927548 0.927435 0.927326 0.927218 0.927112 0.927001 0.926882 0.926743 0.926564 0.926311 0.925922 0.925291 0.924237 0.92246 0.919472 0.914501 0.906358 0.893282 0.872806 0.841717 0.796274 0.732847 0.649113 0.545746 0.428148 0.307094 0.196877 0.110513 0.0539267 0.0233372 0.00933164 0.00357879 0.00134509 0.000500224 0.000184732 6.78203e-05 2.47554e-05 8.98182e-06 3.23796e-06 1.15933e-06 4.12073e-07 1.45343e-07 5.08491e-08 1.76393e-08 6.06476e-09 2.06577e-09 6.97339e-10 2.32856e-10 7.6838e-11 2.50323e-11 7.44487e-12 2.38311e-12 5.08566e-13 -4.22246e-13 -9.23922e-15 -3.54799e-13 -3.28743e-14 -4.70403e-13 4.8285e-14 -9.30899e-14 -4.34269e-13 4.66315e-13 -1.85691e-13 6.2839e-14 4.12337e-13 -2.93681e-13 8.32603e-14 -2.01262e-15 4.59094e-14 8.31929e-13 -3.47759e-14 3.53337e-13 4.83528e-13 4.29128e-13 -4.18025e-13 -2.38019e-13 0 0 1.00729e-14 2.40012e-14 2.48607e-14 1.03753e-14 6.69782e-15 -2.26853e-15 -7.83462e-15 1.66207e-14 8.18209e-15 -7.2356e-15 1.48854e-14 -3.66851e-14 -6.06027e-15 -7.43751e-14 -2.42089e-14 -2.03781e-14 -6.93029e-14 -2.92496e-14 -3.14717e-14 -4.07685e-14 2.63211e-14 -1.36303e-13 -3.8951e-14 -9.22196e-14 -5.162e-14 -1.14416e-13 -1.21282e-13 -4.65902e-14 5.72686e-14 -5.83813e-15 -2.16609e-14 5.67623e-14 -8.24236e-14 -5.63355e-14 -2.32558e-13 -2.25672e-14 -3.62834e-14 -1.88746e-13 -1.1871e-13 -1.51931e-13 7.1365e-15 1.14225e-14 -5.15925e-14 -1.44388e-13 1.0976e-13 -1.21986e-13 -6.73948e-14 -1.22846e-13 7.52202e-15 3.13797e-14 2.29984e-13 1.7133e-12 1.27271e-11 8.92195e-11 5.94533e-10 3.73198e-09 2.19765e-08 1.21068e-07 6.21817e-07 2.9657e-06 1.30745e-05 5.29896e-05 0.000196153 0.000657963 0.00198096 0.00529463 0.0124216 0.0253613 0.0450208 0.0702681 0.0986782 0.128225 0.157973 0.187663 0.217236 0.246671 0.275959 0.305092 0.334066 0.362871 0.3915 0.41994 0.448177 0.476195 0.503972 0.531482 0.558694 0.585569 0.612064 0.638123 0.663685 0.688674 0.713004 0.736575 0.759275 0.780978 0.801546 0.820834 0.838695 0.854992 0.8696 0.882432 0.89344 0.902635 0.910085 0.91592 0.920322 0.923504 0.925695 0.927118 0.927974 0.928435 0.928633 0.928661 0.92862 0.928539 0.928433 0.92831 0.92818 0.928047 0.927916 0.927789 0.927666 0.927548 0.927435 0.927326 0.927218 0.927112 0.927001 0.926882 0.926743 0.926564 0.926311 0.925922 0.925291 0.924237 0.92246 0.919472 0.914501 0.906358 0.893282 0.872806 0.841717 0.796274 0.732847 0.649113 0.545746 0.428148 0.307094 0.196877 0.110513 0.0539267 0.0233372 0.00933164 0.00357879 0.00134509 0.000500224 0.000184732 6.78203e-05 2.47554e-05 8.98182e-06 3.23796e-06 1.15933e-06 4.12074e-07 1.45343e-07 5.08492e-08 1.76395e-08 6.06469e-09 2.06636e-09 6.97034e-10 2.32802e-10 7.68524e-11 2.48811e-11 7.80479e-12 2.21794e-12 3.78967e-13 -1.20042e-13 -2.06229e-13 -2.1981e-13 -5.82704e-13 3.58453e-14 -1.55463e-13 -3.99767e-15 -3.98851e-13 1.2839e-13 -2.27725e-13 -5.45717e-15 1.94703e-13 2.49077e-13 -1.81198e-13 2.60265e-13 -7.16717e-14 -1.94891e-13 7.56675e-13 1.08144e-12 -3.9214e-13 7.01117e-14 2.49658e-13 1.62917e-13 0 0 8.48753e-15 2.08326e-14 3.58074e-14 7.79315e-15 2.33135e-14 1.01166e-14 -1.13596e-14 -6.96564e-16 -1.03262e-15 -1.35006e-14 3.82586e-15 -3.19236e-15 2.59078e-14 -8.02627e-14 -6.18748e-14 -3.63742e-14 -7.63293e-14 -2.79959e-14 -1.02725e-13 -3.67327e-14 -9.26546e-14 1.09998e-14 -2.62366e-14 -2.7728e-14 -1.00021e-13 -1.6678e-13 8.14827e-14 -3.88611e-14 -3.55753e-14 4.27973e-14 -3.01464e-14 -4.28077e-14 -7.76055e-14 -1.106e-13 -1.48593e-13 -1.28039e-13 -1.22659e-13 8.23965e-15 -1.17384e-13 -4.50803e-14 -1.33631e-13 -1.60573e-14 -1.81028e-13 -1.11201e-13 -2.93167e-13 1.55372e-13 -7.32573e-14 -1.09706e-14 -1.39764e-13 1.62264e-13 2.63715e-13 1.71224e-12 1.2567e-11 8.9512e-11 5.94692e-10 3.73196e-09 2.19763e-08 1.21069e-07 6.21817e-07 2.9657e-06 1.30745e-05 5.29896e-05 0.000196153 0.000657963 0.00198096 0.00529463 0.0124216 0.0253613 0.0450208 0.0702681 0.0986782 0.128225 0.157973 0.187663 0.217236 0.246671 0.275959 0.305092 0.334066 0.362871 0.3915 0.41994 0.448177 0.476195 0.503972 0.531482 0.558694 0.585569 0.612064 0.638123 0.663685 0.688674 0.713004 0.736575 0.759275 0.780978 0.801546 0.820834 0.838695 0.854992 0.8696 0.882432 0.89344 0.902635 0.910085 0.91592 0.920322 0.923504 0.925695 0.927118 0.927974 0.928435 0.928633 0.928661 0.92862 0.928539 0.928433 0.92831 0.92818 0.928047 0.927916 0.927789 0.927666 0.927548 0.927435 0.927326 0.927218 0.927112 0.927001 0.926882 0.926743 0.926564 0.926311 0.925922 0.925291 0.924237 0.92246 0.919472 0.914501 0.906358 0.893282 0.872806 0.841717 0.796274 0.732847 0.649113 0.545746 0.428148 0.307094 0.196877 0.110513 0.0539267 0.0233372 0.00933164 0.00357879 0.00134509 0.000500224 0.000184732 6.78203e-05 2.47554e-05 8.98182e-06 3.23796e-06 1.15933e-06 4.12073e-07 1.45343e-07 5.08492e-08 1.76394e-08 6.06512e-09 2.06647e-09 6.97298e-10 2.32801e-10 7.68735e-11 2.48383e-11 8.24088e-12 1.80617e-12 5.67457e-13 4.45546e-14 -2.8019e-13 -4.21895e-13 -2.79541e-13 4.52702e-13 -2.33023e-13 2.82377e-13 -8.8082e-14 -7.32212e-13 -1.89088e-13 7.05753e-14 -7.39269e-13 4.84591e-13 3.318e-13 -3.96058e-13 7.45379e-13 -2.11754e-13 2.26233e-13 2.20705e-14 4.21553e-13 -1.11109e-13 1.94218e-13 1.77163e-13 0 0 1.34151e-14 7.95658e-15 1.34874e-14 2.23947e-14 7.76511e-15 7.96162e-15 1.30851e-14 -1.31953e-14 -4.74607e-15 6.24516e-15 -6.9416e-14 1.20479e-14 -9.85912e-14 -3.62552e-14 -3.15295e-14 -7.32318e-14 -5.42001e-14 -3.40851e-14 -3.40676e-14 -2.583e-14 -1.3161e-13 1.24421e-14 -1.24115e-13 -1.39366e-15 -9.72121e-14 -6.06802e-14 3.62632e-14 -9.99844e-14 2.26011e-14 4.52687e-14 6.30374e-14 -6.30673e-14 6.33002e-14 -2.64283e-13 3.61883e-14 -1.12099e-13 -7.96659e-14 -1.44827e-13 -1.0857e-13 -1.7341e-13 -2.07114e-13 -4.02257e-14 -2.04399e-13 8.76837e-14 -2.52817e-13 -1.36975e-14 -5.55283e-14 8.36904e-14 -1.58788e-13 -2.87585e-14 3.51107e-13 1.57008e-12 1.27916e-11 8.9173e-11 5.94955e-10 3.73233e-09 2.19763e-08 1.21069e-07 6.21817e-07 2.9657e-06 1.30745e-05 5.29896e-05 0.000196153 0.000657963 0.00198096 0.00529463 0.0124216 0.0253613 0.0450208 0.0702681 0.0986782 0.128225 0.157973 0.187663 0.217236 0.246671 0.275959 0.305092 0.334066 0.362871 0.3915 0.41994 0.448177 0.476195 0.503972 0.531482 0.558694 0.585569 0.612064 0.638123 0.663685 0.688674 0.713004 0.736575 0.759275 0.780978 0.801546 0.820834 0.838695 0.854992 0.8696 0.882432 0.89344 0.902635 0.910085 0.91592 0.920322 0.923504 0.925695 0.927118 0.927974 0.928435 0.928633 0.928661 0.92862 0.928539 0.928433 0.92831 0.92818 0.928047 0.927916 0.927789 0.927666 0.927548 0.927435 0.927326 0.927218 0.927112 0.927001 0.926882 0.926743 0.926564 0.926311 0.925922 0.925291 0.924237 0.92246 0.919472 0.914501 0.906358 0.893282 0.872806 0.841717 0.796274 0.732847 0.649113 0.545746 0.428148 0.307094 0.196877 0.110513 0.0539267 0.0233372 0.00933164 0.00357879 0.00134509 0.000500224 0.000184732 6.78203e-05 2.47554e-05 8.98182e-06 3.23796e-06 1.15933e-06 4.12074e-07 1.45343e-07 5.08492e-08 1.76393e-08 6.06527e-09 2.06584e-09 6.97734e-10 2.33131e-10 7.6954e-11 2.48863e-11 7.82942e-12 2.32951e-12 3.40724e-13 -2.41065e-13 -1.60313e-13 -2.41203e-13 2.54587e-13 -3.29218e-13 5.8964e-14 -1.86122e-13 -8.74913e-14 5.71932e-14 -1.04513e-13 1.23015e-13 -1.80125e-13 -5.87851e-13 -1.44241e-14 -2.03095e-13 3.57737e-13 4.79358e-13 -7.41815e-13 -3.24898e-13 9.72153e-13 2.43471e-13 -5.95865e-13 -2.71975e-13 0 0 -1.49856e-14 1.12866e-14 -1.06134e-15 2.81353e-14 -6.49223e-15 2.8483e-14 1.48948e-15 1.47965e-14 4.26995e-14 -2.6268e-14 -5.72633e-14 -1.45356e-13 -4.39192e-14 -8.84946e-14 -5.10948e-14 8.99187e-15 -1.9011e-13 9.75533e-14 -2.21702e-14 -7.49415e-14 4.62032e-14 -8.66796e-14 -8.73548e-14 -8.03287e-14 -7.0474e-14 -7.19623e-14 -9.92099e-14 -7.14003e-14 5.90434e-14 1.98809e-14 1.11152e-13 1.26304e-13 -2.14989e-14 1.14028e-13 -3.26537e-13 1.77499e-13 -2.30664e-13 -1.72568e-13 -2.68669e-13 -3.49448e-13 -7.23559e-15 -3.7229e-13 7.8105e-14 -5.46693e-14 4.8945e-13 -1.51835e-13 -8.25706e-14 -5.15564e-13 -5.01146e-14 1.12298e-13 9.01865e-14 1.85221e-12 1.25068e-11 8.95169e-11 5.95117e-10 3.7319e-09 2.19765e-08 1.21069e-07 6.21817e-07 2.9657e-06 1.30745e-05 5.29896e-05 0.000196153 0.000657963 0.00198096 0.00529463 0.0124216 0.0253613 0.0450208 0.0702681 0.0986782 0.128225 0.157973 0.187663 0.217236 0.246671 0.275959 0.305092 0.334066 0.362871 0.3915 0.41994 0.448177 0.476195 0.503972 0.531482 0.558694 0.585569 0.612064 0.638123 0.663685 0.688674 0.713004 0.736575 0.759275 0.780978 0.801546 0.820834 0.838695 0.854992 0.8696 0.882432 0.89344 0.902635 0.910085 0.91592 0.920322 0.923504 0.925695 0.927118 0.927974 0.928435 0.928633 0.928661 0.92862 0.928539 0.928433 0.92831 0.92818 0.928047 0.927916 0.927789 0.927666 0.927548 0.927435 0.927326 0.927218 0.927112 0.927001 0.926882 0.926743 0.926564 0.926311 0.925922 0.925291 0.924237 0.92246 0.919472 0.914501 0.906358 0.893282 0.872806 0.841717 0.796274 0.732847 0.649113 0.545746 0.428148 0.307094 0.196877 0.110513 0.0539267 0.0233372 0.00933164 0.00357879 0.00134509 0.000500224 0.000184732 6.78203e-05 2.47554e-05 8.98182e-06 3.23796e-06 1.15933e-06 4.12074e-07 1.45343e-07 5.08494e-08 1.76394e-08 6.06493e-09 2.06633e-09 6.96951e-10 2.33449e-10 7.70714e-11 2.44668e-11 8.01295e-12 2.68585e-12 -2.18691e-13 2.59894e-13 -5.87765e-13 4.63163e-13 -2.51464e-13 -5.1689e-13 -3.56358e-13 -6.60039e-13 3.29315e-13 2.88058e-13 5.74901e-13 3.72281e-13 4.22682e-14 -7.3003e-13 -1.04577e-12 6.99806e-13 -5.27457e-13 -5.2308e-13 5.02222e-13 6.4927e-13 -3.92247e-13 -2.80803e-13 7.22713e-13 2.59017e-13 0
				</DataArray>
				<DataArray Name="VitesseY" type="Float32" format="ascii">