<?xml version="1.0"?>
<VTKFile type="PolyData">
	<PolyData>
		<Piece NumberOfPoints="1206" NumberOfPolys="1000">
			<Points>
				<DataArray type="Float32" NumberOfComponents="3" format="ascii">
 0 0 0 0.005 0 0 0.01 0 0 0.015 0 0 0.02 0 0 0.025 0 0 0.03 0 0 0.035 0 0 0.04 0 0 0.045 0 0 0.05 0 0 0.055 0 0 0.06 0 0 0.065 0 0 0.07 0 0 0.075 0 0 0.08 0 0 0.085 0 0 0.09 0 0 0.095 0 0 0.1 0 0 0.105 0 0 0.11 0 0 0.115 0 0 0.12 0 0 0.125 0 0 0.13 0 0 0.135 0 0 0.14 0 0 0.145 0 0 0.15 0 0 0.155 0 0 0.16 0 0 0.165 0 0 0.17 0 0 0.175 0 0 0.18 0 0 0.185 0 0 0.19 0 0 0.195 0 0 0.2 0 0 0.205 0 0 0.21 0 0 0.215 0 0 0.22 0 0 0.225 0 0 0.23 0 0 0.235 0 0 0.24 0 0 0.245 0 0 0.25 0 0 0.255 0 0 0.26 0 0 0.265 0 0 0.27 0 0 0.275 0 0 0.28 0 0 0.285 0 0 0.29 0 0 0.295 0 0 0.3 0 0 0.305 0 0 0.31 0 0 0.315 0 0 0.32 0 0 0.325 0 0 0.33 0 0 0.335 0 0 0.34 0 0 0.345 0 0 0.35 0 0 0.355 0 0 0.36 0 0 0.365 0 0 0.37 0 0 0.375 0 0 0.38 0 0 0.385 0 0 0.39 0 0 0.395 0 0 0.4 0 0 0.405 0 0 0.41 0 0 0.415 0 0 0.42 0 0 0.425 0 0 0.43 0 0 0.435 0 0 0.44 0 0 0.445 0 0 0.45 0 0 0.455 0 0 0.46 0 0 0.465 0 0 0.47 0 0 0.475 0 0 0.48 0 0 0.485 0 0 0.49 0 0 0.495 0 0 0.5 0 0 0.505 0 0 0.51 0 0 0.515 0 0 0.52 0 0 0.525 0 0 0.53 0 0 0.535 0 0 0.54 0 0 0.545 0 0 0.55 0 0 0.555 0 0 0.56 0 0 0.565 0 0 0.57 0 0 0.575 0 0 0.58 0 0 0.585 0 0 0.59 0 0 0.595 0 0 0.6 0 0 0.605 0 0 0.61 0 0 0.615 0 0 0.62 0 0 0.625 0 0 0.63 0 0 0.635 0 0 0.64 0 0 0.645 0 0 0.65 0 0 0.655 0 0 0.66 0 0 0.665 0 0 0.67 0 0 0.675 0 0 0.68 0 0 0.685 0 0 0.69 0 0 0.695 0 0 0.7 0 0 0.705 0 0 0.71 0 0 0.715 0 0 0.72 0 0 0.725 0 0 0.73 0 0 0.735 0 0 0.74 0 0 0.745 0 0 0.75 0 0 0.755 0 0 0.76 0 0 0.765 0 0 0.77 0 0 0.775 0 0 0.78 0 0 0.785 0 0 0.79 0 0 0.795 0 0 0.8 0 0 0.805 0 0 0.81 0 0 0.815 0 0 0.82 0 0 0.825 0 0 0.83 0 0 0.835 0 0 0.84 0 0 0.845 0 0 0.85 0 0 0.855 0 0 0.86 0 0 0.865 0 0 0.87 0 0 0.875 0 0 0.88 0 0 0.885 0 0 0.89 0 0 0.895 0 0 0.9 0 0 0.905 0 0 0.91 0 0 0.915 0 0 0.92 0 0 0.925 0 0 0.93 0 0 0.935 0 0 0.94 0 0 0.945 0 0 0.95 0 0 0.955 0 0 0.96 0 0 0.965 0 0 0.97 0 0 0.975 0 0 0.98 0 0 0.985 0 0 0.99 0 0 0.995 0 0 1 0 0 0 0.02 0 0.005 0.02 0 0.01 0.02 0 0.015 0.02 0 0.02 0.02 0 0.025 0.02 0 0.03 0.02 0 0.035 0.02 0 0.04 0.02 0 0.045 0.02 0 0.05 0.02 0 0.055 0.02 0 0.06 0.02 0 0.065 0.02 0 0.07 0.02 0 0.075 0.02 0 0.08 0.02 0 0.085 0.02 0 0.09 0.02 0 0.095 0.02 0 0.1 0.02 0 0.105 0.02 0 0.11 0.02 0 0.115 0.02 0 0.12 0.02 0 0.125 0.02 0 0.13 0.02 0 0.135 0.02 0 0.14 0.02 0 0.145 0.02 0 0.15 0.02 0 0.155 0.02 0 0.16 0.02 0 0.165 0.02 0 0.17 0.02 0 0.175 0.02 0 0.18 0.02 0 0.185 0.02 0 0.19 0.02 0 0.195 0.02 0 0.2 0.02 0 0.205 0.02 0 0.21 0.02 0 0.215 0.02 0 0.22 0.02 0 0.225 0.02 0 0.23 0.02 0 0.235 0.02 0 0.24 0.02 0 0.245 0.02 0 0.25 0.02 0 0.255 0.02 0 0.26 0.02 0 0.265 0.02 0 0.27 0.02 0 0.275 0.02 0 0.28 0.02 0 0.285 0.02 0 0.29 0.02 0 0.295 0.02 0 0.3 0.02 0 0.305 0.02 0 0.31 0.02 0 0.315 0.02 0 0.32 0.02 0 0.325 0.02 0 0.33 0.02 0 0.335 0.02 0 0.34 0.02 0 0.345 0.02 0 0.35 0.02 0 0.355 0.02 0 0.36 0.02 0 0.365 0.02 0 0.37 0.02 0 0.375 0.02 0 0.38 0.02 0 0.385 0.02 0 0.39 0.02 0 0.395 0.02 0 0.4 0.02 0 0.405 0.02 0 0.41 0.02 0 0.415 0.02 0 0.42 0.02 0 0.425 0.02 0 0.43 0.02 0 0.435 0.02 0 0.44 0.02 0 0.445 0.02 0 0.45 0.02 0 0.455 0.02 0 0.46 0.02 0 0.465 0.02 0 0.47 0.02 0 0.475 0.02 0 0.48 0.02 0 0.485 0.02 0 0.49 0.02 0 0.495 0.02 0 0.5 0.02 0 0.505 0.02 0 0.51 0.02 0 0.515 0.02 0 0.52 0.02 0 0.525 0.02 0 0.53 0.02 0 0.535 0.02 0 0.54 0.02 0 0.545 0.02 0 0.55 0.02 0 0.555 0.02 0 0.56 0.02 0 0.565 0.02 0 0.57 0.02 0 0.575 0.02 0 0.58 0.02 0 0.585 0.02 0 0.59 0.02 0 0.595 0.02 0 0.6 0.02 0 0.605 0.02 0 0.61 0.02 0 0.615 0.02 0 0.62 0.02 0 0.625 0.02 0 0.63 0.02 0 0.635 0.02 0 0.64 0.02 0 0.645 0.02 0 0.65 0.02 0 0.655 0.02 0 0.66 0.02 0 0.665 0.02 0 0.67 0.02 0 0.675 0.02 0 0.68 0.02 0 0.685 0.02 0 0.69 0.02 0 0.695 0.02 0 0.7 0.02 0 0.705 0.02 0 0.71 0.02 0 0.715 0.02 0 0.72 0.02 0 0.725 0.02 0 0.73 0.02 0 0.735 0.02 0 0.74 0.02 0 0.745 0.02 0 0.75 0.02 0 0.755 0.02 0 0.76 0.02 0 0.765 0.02 0 0.77 0.02 0 0.775 0.02 0 0.78 0.02 0 0.785 0.02 0 0.79 0.02 0 0.795 0.02 0 0.8 0.02 0 0.805 0.02 0 0.81 0.02 0 0.815 0.02 0 0.82 0.02 0 0.825 0.02 0 0.83 0.02 0 0.835 0.02 0 0.84 0.02 0 0.845 0.02 0 0.85 0.02 0 0.855 0.02 0 0.86 0.02 0 0.865 0.02 0 0.87 0.02 0 0.875 0.02 0 0.88 0.02 0 0.885 0.02 0 0.89 0.02 0 0.895 0.02 0 0.9 0.02 0 0.905 0.02 0 0.91 0.02 0 0.915 0.02 0 0.92 0.02 0 0.925 0.02 0 0.93 0.02 0 0.935 0.02 0 0.94 0.02 0 0.945 0.02 0 0.95 0.02 0 0.955 0.02 0 0.96 0.02 0 0.965 0.02 0 0.97 0.02 0 0.975 0.02 0 0.98 0.02 0 0.985 0.02 0 0.99 0.02 0 0.995 0.02 0 1 0.02 0 0 0.04 0 0.005 0.04 0 0.01 0.04 0 0.015 0.04 0 0.02 0.04 0 0.025 0.04 0 0.03 0.04 0 0.035 0.04 0 0.04 0.04 0 0.045 0.04 0 0.05 0.04 0 0.055 0.04 0 0.06 0.04 0 0.065 0.04 0 0.07 0.04 0 0.075 0.04 0 0.08 0.04 0 0.085 0.04 0 0.09 0.04 0 0.095 0.04 0 0.1 0.04 0 0.105 0.04 0 0.11 0.04 0 0.115 0.04 0 0.12 0.04 0 0.125 0.04 0 0.13 0.04 0 0.135 0.04 0 0.14 0.04 0 0.145 0.04 0 0.15 0.04 0 0.155 0.04 0 0.16 0.04 0 0.165 0.04 0 0.17 0.04 0 0.175 0.04 0 0.18 0.04 0 0.185 0.04 0 0.19 0.04 0 0.195 0.04 0 0.2 0.04 0 0.205 0.04 0 0.21 0.04 0 0.215 0.04 0 0.22 0.04 0 0.225 0.04 0 0.23 0.04 0 0.235 0.04 0 0.24 0.04 0 0.245 0.04 0 0.25 0.04 0 0.255 0.04 0 0.26 0.04 0 0.265 0.04 0 0.27 0.04 0 0.275 0.04 0 0.28 0.04 0 0.285 0.04 0 0.29 0.04 0 0.295 0.04 0 0.3 0.04 0 0.305 0.04 0 0.31 0.04 0 0.315 0.04 0 0.32 0.04 0 0.325 0.04 0 0.33 0.04 0 0.335 0.04 0 0.34 0.04 0 0.345 0.04 0 0.35 0.04 0 0.355 0.04 0 0.36 0.04 0 0.365 0.04 0 0.37 0.04 0 0.375 0.04 0 0.38 0.04 0 0.385 0.04 0 0.39 0.04 0 0.395 0.04 0 0.4 0.04 0 0.405 0.04 0 0.41 0.04 0 0.415 0.04 0 0.42 0.04 0 0.425 0.04 0 0.43 0.04 0 0.435 0.04 0 0.44 0.04 0 0.445 0.04 0 0.45 0.04 0 0.455 0.04 0 0.46 0.04 0 0.465 0.04 0 0.47 0.04 0 0.475 0.04 0 0.48 0.04 0 0.485 0.04 0 0.49 0.04 0 0.495 0.04 0 0.5 0.04 0 0.505 0.04 0 0.51 0.04 0 0.515 0.04 0 0.52 0.04 0 0.525 0.04 0 0.53 0.04 0 0.535 0.04 0 0.54 0.04 0 0.545 0.04 0 0.55 0.04 0 0.555 0.04 0 0.56 0.04 0 0.565 0.04 0 0.57 0.04 0 0.575 0.04 0 0.58 0.04 0 0.585 0.04 0 0.59 0.04 0 0.595 0.04 0 0.6 0.04 0 0.605 0.04 0 0.61 0.04 0 0.615 0.04 0 0.62 0.04 0 0.625 0.04 0 0.63 0.04 0 0.635 0.04 0 0.64 0.04 0 0.645 0.04 0 0.65 0.04 0 0.655 0.04 0 0.66 0.04 0 0.665 0.04 0 0.67 0.04 0 0.675 0.04 0 0.68 0.04 0 0.685 0.04 0 0.69 0.04 0 0.695 0.04 0 0.7 0.04 0 0.705 0.04 0 0.71 0.04 0 0.715 0.04 0 0.72 0.04 0 0.725 0.04 0 0.73 0.04 0 0.735 0.04 0 0.74 0.04 0 0.745 0.04 0 0.75 0.04 0 0.755 0.04 0 0.76 0.04 0 0.765 0.04 0 0.77 0.04 0 0.775 0.04 0 0.78 0.04 0 0.785 0.04 0 0.79 0.04 0 0.795 0.04 0 0.8 0.04 0 0.805 0.04 0 0.81 0.04 0 0.815 0.04 0 0.82 0.04 0 0.825 0.04 0 0.83 0.04 0 0.835 0.04 0 0.84 0.04 0 0.845 0.04 0 0.85 0.04 0 0.855 0.04 0 0.86 0.04 0 0.865 0.04 0 0.87 0.04 0 0.875 0.04 0 0.88 0.04 0 0.885 0.04 0 0.89 0.04 0 0.895 0.04 0 0.9 0.04 0 0.905 0.04 0 0.91 0.04 0 0.915 0.04 0 0.92 0.04 0 0.925 0.04 0 0.93 0.04 0 0.935 0.04 0 0.94 0.04 0 0.945 0.04 0 0.95 0.04 0 0.955 0.04 0 0.96 0.04 0 0.965 0.04 0 0.97 0.04 0 0.975 0.04 0 0.98 0.04 0 0.985 0.04 0 0.99 0.04 0 0.995 0.04 0 1 0.04 0 0 0.06 0 0.005 0.06 0 0.01 0.06 0 0.015 0.06 0 0.02 0.06 0 0.025 0.06 0 0.03 0.06 0 0.035 0.06 0 0.04 0.06 0 0.045 0.06 0 0.05 0.06 0 0.055 0.06 0 0.06 0.06 0 0.065 0.06 0 0.07 0.06 0 0.075 0.06 0 0.08 0.06 0 0.085 0.06 0 0.09 0.06 0 0.095 0.06 0 0.1 0.06 0 0.105 0.06 0 0.11 0.06 0 0.115 0.06 0 0.12 0.06 0 0.125 0.06 0 0.13 0.06 0 0.135 0.06 0 0.14 0.06 0 0.145 0.06 0 0.15 0.06 0 0.155 0.06 0 0.16 0.06 0 0.165 0.06 0 0.17 0.06 0 0.175 0.06 0 0.18 0.06 0 0.185 0.06 0 0.19 0.06 0 0.195 0.06 0 0.2 0.06 0 0.205 0.06 0 0.21 0.06 0 0.215 0.06 0 0.22 0.06 0 0.225 0.06 0 0.23 0.06 0 0.235 0.06 0 0.24 0.06 0 0.245 0.06 0 0.25 0.06 0 0.255 0.06 0 0.26 0.06 0 0.265 0.06 0 0.27 0.06 0 0.275 0.06 0 0.28 0.06 0 0.285 0.06 0 0.29 0.06 0 0.295 0.06 0 0.3 0.06 0 0.305 0.06 0 0.31 0.06 0 0.315 0.06 0 0.32 0.06 0 0.325 0.06 0 0.33 0.06 0 0.335 0.06 0 0.34 0.06 0 0.345 0.06 0 0.35 0.06 0 0.355 0.06 0 0.36 0.06 0 0.365 0.06 0 0.37 0.06 0 0.375 0.06 0 0.38 0.06 0 0.385 0.06 0 0.39 0.06 0 0.395 0.06 0 0.4 0.06 0 0.405 0.06 0 0.41 0.06 0 0.415 0.06 0 0.42 0.06 0 0.425 0.06 0 0.43 0.06 0 0.435 0.06 0 0.44 0.06 0 0.445 0.06 0 0.45 0.06 0 0.455 0.06 0 0.46 0.06 0 0.465 0.06 0 0.47 0.06 0 0.475 0.06 0 0.48 0.06 0 0.485 0.06 0 0.49 0.06 0 0.495 0.06 0 0.5 0.06 0 0.505 0.06 0 0.51 0.06 0 0.515 0.06 0 0.52 0.06 0 0.525 0.06 0 0.53 0.06 0 0.535 0.06 0 0.54 0.06 0 0.545 0.06 0 0.55 0.06 0 0.555 0.06 0 0.56 0.06 0 0.565 0.06 0 0.57 0.06 0 0.575 0.06 0 0.58 0.06 0 0.585 0.06 0 0.59 0.06 0 0.595 0.06 0 0.6 0.06 0 0.605 0.06 0 0.61 0.06 0 0.615 0.06 0 0.62 0.06 0 0.625 0.06 0 0.63 0.06 0 0.635 0.06 0 0.64 0.06 0 0.645 0.06 0 0.65 0.06 0 0.655 0.06 0 0.66 0.06 0 0.665 0.06 0 0.67 0.06 0 0.675 0.06 0 0.68 0.06 0 0.685 0.06 0 0.69 0.06 0 0.695 0.06 0 0.7 0.06 0 0.705 0.06 0 0.71 0.06 0 0.715 0.06 0 0.72 0.06 0 0.725 0.06 0 0.73 0.06 0 0.735 0.06 0 0.74 0.06 0 0.745 0.06 0 0.75 0.06 0 0.755 0.06 0 0.76 0.06 0 0.765 0.06 0 0.77 0.06 0 0.775 0.06 0 0.78 0.06 0 0.785 0.06 0 0.79 0.06 0 0.795 0.06 0 0.8 0.06 0 0.805 0.06 0 0.81 0.06 0 0.815 0.06 0 0.82 0.06 0 0.825 0.06 0 0.83 0.06 0 0.835 0.06 0 0.84 0.06 0 0.845 0.06 0 0.85 0.06 0 0.855 0.06 0 0.86 0.06 0 0.865 0.06 0 0.87 0.06 0 0.875 0.06 0 0.88 0.06 0 0.885 0.06 0 0.89 0.06 0 0.895 0.06 0 0.9 0.06 0 0.905 0.06 0 0.91 0.06 0 0.915 0.06 0 0.92 0.06 0 0.925 0.06 0 0.93 0.06 0 0.935 0.06 0 0.94 0.06 0 0.945 0.06 0 0.95 0.06 0 0.955 0.06 0 0.96 0.06 0 0.965 0.06 0 0.97 0.06 0 0.975 0.06 0 0.98 0.06 0 0.985 0.06 0 0.99 0.06 0 0.995 0.06 0 1 0.06 0 0 0.08 0 0.005 0.08 0 0.01 0.08 0 0.015 0.08 0 0.02 0.08 0 0.025 0.08 0 0.03 0.08 0 0.035 0.08 0 0.04 0.08 0 0.045 0.08 0 0.05 0.08 0 0.055 0.08 0 0.06 0.08 0 0.065 0.08 0 0.07 0.08 0 0.075 0.08 0 0.08 0.08 0 0.085 0.08 0 0.09 0.08 0 0.095 0.08 0 0.1 0.08 0 0.105 0.08 0 0.11 0.08 0 0.115 0.08 0 0.12 0.08 0 0.125 0.08 0 0.13 0.08 0 0.135 0.08 0 0.14 0.08 0 0.145 0.08 0 0.15 0.08 0 0.155 0.08 0 0.16 0.08 0 0.165 0.08 0
[...]
			<PointData Scalars="VitesseX">
				<DataArray Name="VitesseX" type="Float32" format="ascii">
 0 -3.18175e-15 -3.64626e-15 1.91347e-14 -2.36492e-14 -2.76832e-14 -2.40708e-15 -4.38925e-14 -6.69271e-14 7.89826e-15 -4.53779e-14 -7.79161e-14 5.53472e-14 -2.70291e-14 -9.05663e-14 2.08372e-14 -6.71399e-14 1.35167e-14 3.27533e-14 -6.02974e-14 -5.63016e-15 -7.20591e-14 -1.2025e-13 -3.1988e-14 -9.71829e-14 -3.25716e-14 -1.32777e-13 -8.79216e-14 -2.65111e-13 5.77654e-14 -2.42079e-13 -8.15922e-14 1.54992e-14 -8.88712e-14 -3.74154e-14 -1.61885e-13 5.95392e-14 -1.39245e-13 -1.00472e-13 -3.00726e-13 -4.52655e-14 -1.10842e-13 -3.12377e-13 6.11837e-14 5.17317e-14 -9.16072e-14 -1.33044e-13 -9.45873e-14 -1.03258e-13 -1.23438e-13 -5.10826e-14 -9.12318e-14 -8.0863e-14 1.2582e-13 3.38154e-14 2.36911e-12 1.95435e-11 1.4368e-10 9.91111e-10 6.41089e-09 3.87656e-08 2.18355e-07 1.1412e-06 5.50917e-06 2.44366e-05 9.89658e-05 0.000363161 0.00119629 0.00349833 0.00897004 0.0199391 0.0382054 0.0634768 0.0933162 0.125028 0.157132 0.189177 0.221072 0.252791 0.284324 0.315662 0.346798 0.37772 0.408417 0.438872 0.469064 0.498969 0.528555 0.557783 0.586606 0.614968 0.6428 0.670023 0.696542 0.722246 0.747008 0.770686 0.793123 0.814151 0.833599 0.851304 0.867124 0.880951 0.892735 0.90249 0.910303 0.916336 0.920805 0.923965 0.926081 0.927408 0.928166 0.928538 0.928664 0.928652 0.928583 0.928477 0.928349 0.928208 0.928062 0.927917 0.927775 0.927637 0.927505 0.927376 0.927249 0.92712 0.926981 0.92682 0.926612 0.926313 0.925845 0.925073 0.923766 0.921538 0.917768 0.911478 0.901183 0.884738 0.859232 0.821066 0.766378 0.691979 0.596874 0.484117 0.362194 0.244468 0.145527 0.0752462 0.034033 0.0139393 0.00539185 0.00202695 0.000750936 0.00027569 0.000100482 3.63718e-05 1.30725e-05 4.66338e-06 1.65041e-06 5.79198e-07 2.01471e-07 6.94322e-08 2.36972e-08 8.00712e-09 2.67675e-09 8.85237e-10 2.89596e-10 9.33118e-11 2.97569e-11 9.57125e-12 2.9069e-12 1.27286e-13 1.64527e-13 2.17991e-14 -4.57496e-13 2.27672e-13 -2.04299e-13 -7.39443e-13 -1.22088e-13 7.65625e-14 -4.0722e-13 8.329e-14 -4.44168e-13 6.80098e-13 -5.30853e-13 -1.83317e-13 1.87066e-13 1.82465e-13 2.64906e-13 3.74734e-13 2.26925e-14 7.25862e-14 4.96906e-13 -1.5594e-13 -1.47999e-14 2.42978e-13 1.13346e-13 1.88211e-13 2.62391e-13 0 0 -5.31069e-15 -3.54915e-15 -1.12425e-14 8.13086e-15 -6.66678e-15 -2.66176e-14 -4.15602e-14 -1.57642e-14 -4.69135e-14 -3.69866e-14 1.38625e-14 -4.48162e-14 -3.71576e-14 -7.89003e-15 -3.11994e-14 3.03525e-14 -3.65643e-14 -8.51947e-14 4.50895e-14 -4.47169e-14 -7.78959e-14 -7.11578e-14 -1.59274e-13 -4.80076e-14 -9.11782e-14 -5.55232e-14 -1.66837e-13 -6.4296e-14 -1.78936e-13 -5.49341e-14 -5.20923e-14 -7.85445e-14 -5.8595e-14 -7.16803e-14 -1.26787e-15 -1.90313e-13 -6.32812e-14 -1.28383e-13 -6.99809e-14 -1.88106e-13 -1.12823e-13 -6.60394e-14 -1.2808e-13 -1.13982e-13 -9.4237e-14 -2.97559e-14 2.57307e-14 -3.19561e-14 4.07223e-14 -6.84635e-14 -2.32066e-13 -3.4809e-14 -1.80211e-13 4.50713e-13 2.41086e-12 1.93342e-11 1.43619e-10 9.91074e-10 6.4109e-09 3.87657e-08 2.18354e-07 1.1412e-06 5.50917e-06 2.44366e-05 9.89658e-05 0.000363161 0.00119629 0.00349833 0.00897004 0.0199391 0.0382054 0.0634768 0.0933162 0.125028 0.157132 0.189177 0.221072 0.252791 0.284324 0.315662 0.346798 0.37772 0.408417 0.438872 0.469064 0.498969 0.528555 0.557783 0.586606 0.614968 0.6428 0.670023 0.696542 0.722246 0.747008 0.770686 0.793123 0.814151 0.833599 0.851304 0.867124 0.880951 0.892735 0.90249 0.910303 0.916336 0.920805 0.923965 0.926081 0.927408 0.928166 0.928538 0.928664 0.928652 0.928583 0.928477 0.928349 0.928208 0.928062 0.927917 0.927775 0.927637 0.927505 0.927376 0.927249 0.92712 0.926981 0.92682 0.926612 0.926313 0.925845 0.925073 0.923766 0.921538 0.917768 0.911478 0.901183 0.884738 0.859232 0.821066 0.766378 0.691979 0.596874 0.484117 0.362194 0.244468 0.145527 0.0752462 0.034033 0.0139393 0.00539185 0.00202695 0.000750936 0.00027569 0.000100482 3.63718e-05 1.30725e-05 4.66338e-06 1.65041e-06 5.79198e-07 2.01471e-07 6.94324e-08 2.36973e-08 8.00638e-09 2.67741e-09 8.85298e-10 2.89406e-10 9.36679e-11 2.96017e-11 8.94825e-12 2.7979e-12 9.35868e-13 -1.82691e-13 -1.81251e-13 2.20109e-13 -2.65835e-13 -3.37516e-13 -1.57198e-13 -2.84546e-13 -3.88552e-13 -2.00324e-13 -2.24052e-13 1.61917e-13 -6.70631e-13 5.4406e-13 -2.57253e-13 1.08014e-13 7.95357e-15 5.77531e-13 -5.03472e-13 2.93473e-13 2.72834e-13 -5.56757e-14 2.18671e-13 1.80206e-13 9.80044e-14 2.35872e-13 -3.32661e-13 -2.56741e-13 0 0 -6.02319e-15 -2.96756e-15 -2.58578e-15 1.37036e-15 -2.07755e-14 -1.2382e-14 -1.5966e-14 -1.37454e-14 1.27557e-14 -1.38556e-14 -3.28916e-14 -1.3024e-14 -1.90301e-14 -4.32132e-15 -4.30154e-14 -5.04027e-14 -1.00296e-14 2.74602e-15 -1.02719e-13 -4.74176e-14 -2.63595e-14 -1.50799e-13 -5.81813e-14 -8.71193e-14 -9.27422e-14 -1.73866e-13 -7.31905e-14 -1.54817e-13 -4.7195e-14 1.07108e-14 -5.93248e-14 -7.57092e-14 -1.08636e-13 -2.63328e-14 -2.49044e-13 5.8082e-14 -1.81315e-13 -2.67603e-14 -1.87294e-13 -5.9799e-14 -8.86159e-14 -1.63837e-13 -1.75531e-13 -1.40973e-14 8.5674e-14 1.26976e-14 -7.06893e-14 -1.81469e-13 -4.43928e-14 -5.56141e-14 -3.98125e-14 -3.71337e-14 -5.61835e-14 1.5744e-13 2.78729e-12 1.95226e-11 1.4349e-10 9.90904e-10 6.41111e-09 3.87656e-08 2.18354e-07 1.1412e-06 5.50917e-06 2.44366e-05 9.89658e-05 0.000363161 0.00119629 0.00349833 0.00897004 0.0199391 0.0382054 0.0634768 0.0933162 0.125028 0.157132 0.189177 0.221072 0.252791 0.284324 0.315662 0.346798 0.37772 0.408417 0.438872 0.469064 0.498969 0.528555 0.557783 0.586606 0.614968 0.6428 0.670023 0.696542 0.722246 0.747008 0.770686 0.793123 0.814151 0.833599 0.851304 0.867124 0.880951 0.892735 0.90249 0.910303 0.916336 0.920805 0.923965 0.926081 0.927408 0.928166 0.928538 0.928664 0.928652 0.928583 0.928477 0.928349 0.928208 0.928062 0.927917 0.927775 0.927637 0.927505 0.927376 0.927249 0.92712 0.926981 0.92682 0.926612 0.926313 0.925845 0.925073 0.923766 0.921538 0.917768 0.911478 0.901183 0.884738 0.859232 0.821066 0.766378 0.691979 0.596874 0.484117 0.362194 0.244468 0.145527 0.0752462 0.034033 0.0139393 0.00539185 0.00202695 0.000750936 0.00027569 0.000100482 3.63718e-05 1.30725e-05 4.66338e-06 1.65041e-06 5.79198e-07 2.01471e-07 6.94324e-08 2.36974e-08 8.00682e-09 2.67707e-09 8.85329e-10 2.8975e-10 9.32338e-11 2.96963e-11 9.30542e-12 2.78114e-12 3.74391e-13 5.61852e-13 -7.06757e-13 2.78308e-13 -2.68242e-13 -2.55102e-13 -2.43463e-13 -2.64554e-13 -2.20282e-13 -2.19835e-13 -3.98851e-13 -2.89139e-13 1.75823e-13 -5.78422e-13 3.09715e-13 -7.23526e-14 -2.22827e-14 -1.39688e-13 2.61927e-13 -2.513e-13 9.80306e-14 1.75153e-13 1.428e-13 6.49157e-14 6.51759e-13 -2.45902e-14 2.64862e-13 -9.31949e-14 0 0 -2.74788e-16 -1.70014e-15 1.11335e-14 6.44322e-15 -3.27175e-15 2.37964e-14 -1.13174e-14 -2.75622e-14 -1.52185e-15 -1.88648e-14 6.51041e-15 -3.38877e-15 9.91452e-15 -9.50991e-14 3.39246e-14 -7.18814e-14 -5.736e-14 -1.96997e-14 -7.03883e-14 -1.32893e-13 -8.19579e-14 -7.6493e-14 -5.92152e-14 -2.9685e-14 -6.29479e-14 -1.84766e-13 -7.82775e-14 -1.50158e-13 -2.7963e-14 -6.07823e-14 -4.33472e-14 1.67324e-14 -6.80706e-14 -1.24756e-13 -9.30191e-14 -1.01482e-13 -5.15259e-14 -9.80355e-14 -1.19865e-13 -1.44372e-13 -1.95434e-13 -1.0102e-13 5.69532e-14 -5.42536e-14 -7.36978e-14 -2.65713e-13 -3.5048e-14 -4.53294e-14 -1.00955e-14 -3.18941e-14 -1.28241e-13 -1.52166e-13 2.63269e-13 3.722e-13 2.63786e-12 1.97293e-11 1.43707e-10 9.90953e-10 6.41092e-09 3.87658e-08 2.18355e-07 1.1412e-06 5.50917e-06 2.44366e-05 9.89658e-05 0.000363161 0.00119629 0.00349833 0.00897004 0.0199391 0.0382054 0.0634768 0.0933162 0.125028 0.157132 0.189177 0.221072 0.252791 0.284324 0.315662 0.346798 0.37772 0.408417 0.438872 0.469064 0.498969 0.528555 0.557783 0.586606 0.614968 0.6428 0.670023 0.696542 0.722246 0.747008 0.770686 0.793123 0.814151 0.833599 0.851304 0.867124 0.880951 0.892735 0.90249 0.910303 0.916336 0.920805 0.923965 0.926081 0.927408 0.928166 0.928538 0.928664 0.928652 0.928583 0.928477 0.928349 0.928208 0.928062 0.927917 0.927775 0.927637 0.927505 0.927376 0.927249 0.92712 0.926981 0.92682 0.926612 0.926313 0.925845 0.925073 0.923766 0.921538 0.917768 0.911478 0.901183 0.884738 0.859232 0.821066 0.766378 0.691979 0.596874 0.484117 0.362194 0.244468 0.145527 0.0752462 0.034033 0.0139393 0.00539185 0.00202695 0.000750936 0.00027569 0.000100482 3.63718e-05 1.30725e-05 4.66339e-06 1.65041e-06 5.79198e-07 2.01471e-07 6.94327e-08 2.36973e-08 8.00702e-09 2.67692e-09 8.85547e-10 2.8943e-10 9.34746e-11 2.99639e-11 9.45848e-12 2.58931e-12 3.80877e-13 2.91182e-13 -7.31799e-14 -3.55254e-13 -8.07738e-14 -3.58663e-13 -5.15491e-13 1.81368e-13 -2.7398e-13 -1.89432e-13 -2.65015e-13 -7.01874e-13 5.75297e-13 -4.40166e-13 3.61815e-14 -2.02188e-13 -2.24339e-13 1.58208e-14 -4.24275e-14 2.74232e-13 3.95213e-13 2.80508e-13 -3.88485e-13 1.82708e-13 3.06119e-14 5.23042e-13 9.92576e-14 1.11816e-13 0 0 2.26366e-15 2.14781e-15 3.61812e-15 2.15974e-14 1.48881e-14 1.7913e-15 4.41029e-15 -1.84067e-15 -4.41205e-14 -3.76103e-14 2.74629e-14 -5.53463e-14 -2.79006e-14 -4.07406e-14 -2.82587e-14 -2.92597e-14 -7.77642e-14 -7.96824e-14 3.5296e-14 -1.26725e-13 -1.16417e-13 4.02074e-14 -1.52651e-13 1.66876e-14 -8.27622e-14 -5.95511e-14 -1.52235e-13 -1.06559e-14 -1.30604e-13 -6.22243e-14 -6.71799e-14 -1.92414e-14 5.16152e-14 -9.08609e-14 1.11219e-13 -1.91456e-13 -8.6451e-15 -2.81062e-13 -6.86221e-15 -2.66872e-13 -1.76559e-13 4.8468e-14 -3.60344e-14 -2.07502e-13 -1.7412e-13 -1.3862e-13 3.96833e-14 5.45854e-14 -6.34241e-14 -9.61187e-14 -1.8327e-13 -1.19699e-13 2.25441e-14 7.55053e-13 2.51314e-12 1.96812e-11 1.43864e-10 9.91209e-10 6.41087e-09 3.87659e-08 2.18355e-07 1.1412e-06 5.50917e-06 2.44366e-05 9.89658e-05 0.000363161 0.00119629 0.00349833 0.00897004 0.0199391 0.0382054 0.0634768 0.0933162 0.125028 0.157132 0.189177 0.221072 0.252791 0.284324 0.315662 0.346798 0.37772 0.408417 0.438872 0.469064 0.498969 0.528555 0.557783 0.586606 0.614968 0.6428 0.670023 0.696542 0.722246 0.747008 0.770686 0.793123 0.814151 0.833599 0.851304 0.867124 0.880951 0.892735 0.90249 0.910303 0.916336 0.920805 0.923965 0.926081 0.927408 0.928166 0.928538 0.928664 0.928652 0.928583 0.928477 0.928349 0.928208 0.928062 0.927917 0.927775 0.927637 0.927505 0.927376 0.927249 0.92712 0.926981 0.92682 0.926612 0.926313 0.925845 0.925073 0.923766 0.921538 0.917768 0.911478 0.901183 0.884738 0.859232 0.821066 0.766378 0.691979 0.596874 0.484117 0.362194 0.244468 0.145527 0.0752462 0.034033 0.0139393 0.00539185 0.00202695 0.000750936 0.00027569 0.000100482 3.63718e-05 1.30725e-05 4.66338e-06 1.65041e-06 5.79198e-07 2.01471e-07 6.94324e-08 2.36971e-08 8.00698e-09 2.6773e-09 8.85538e-10 2.89245e-10 9.37028e-11 2.95483e-11 9.13535e-12 2.54306e-12 1.08477e-12 -6.1657e-13 2.43781e-13 -3.67193e-14 -2.43722e-13 -2.41398e-13 -2.50029e-14 -2.89089e-13 -3.34868e-13 -2.77263e-13 -5.00495e-14 1.21616e-13 -5.35028e-13 6.65669e-13 -2.70489e-13 -1.04891e-13 -8.25086e-13 3.05053e-13 -5.39785e-14 2.95382e-13 3.21579e-13 -8.73987e-14 9.47155e-14 -2.71127e-14 -5.65331e-13 3.83688e-13 -2.63394e-13 -2.2335e-13 0 0 4.70148e-16 5.21281e-15 2.14173e-14 -6.8619e-15 -1.9581e-14 -1.79462e-14 3.87513e-14 -1.14465e-14 4.20395e-14 -3.66068e-14 -1.29519e-13 1.50165e-14 -6.64044e-14 2.52882e-14 -1.27161e-13 -1.43407e-13 2.57776e-14 8.86694e-14 -1.44547e-13 1.30496e-15 -3.79039e-14 -4.61316e-14 -1.66736e-14 -8.2661e-14 -7.53283e-14 -1.19032e-13 -4.85452e-14 -1.67148e-13 1.15966e-13 -1.13673e-13 -1.43723e-13 -5.07777e-14 5.04182e-14 1.2107e-13 -2.48962e-13 3.76379e-13 -2.8955e-13 -2.63281e-13 -3.09347e-13 -3.3651e-14 -2.4678e-14 -2.08996e-13 -2.19695e-13 -5.49973e-14 6.73702e-14 2.0605e-13 -1.37965e-13 -2.02454e-13 -4.00325e-13 -1.53833e-13 1.83218e-13 -2.05767e-14 -1.07575e-13 2.12977e-13 2.87253e-12 1.98238e-11 1.43737e-10 9.91281e-10 6.41122e-09 3.87657e-08 2.18354e-07 1.1412e-06 5.50917e-06 2.44366e-05 9.89658e-05 0.000363161 0.00119629 0.00349833 0.00897004 0.0199391 0.0382054 0.0634768 0.0933162 0.125028 0.157132 0.189177 0.221072 0.252791 0.284324 0.315662 0.346798 0.37772 0.408417 0.438872 0.469064 0.498969 0.528555 0.557783 0.586606 0.614968 0.6428 0.670023 0.696542 0.722246 0.747008 0.770686 0.793123 0.814151 0.833599 0.851304 0.867124 0.880951 0.892735 0.90249 0.910303 0.916336 0.920805 0.923965 0.926081 0.927408 0.928166 0.928538 0.928664 0.928652 0.928583 0.928477 0.928349 0.928208 0.928062 0.927917 0.927775 0.927637 0.927505 0.927376 0.927249 0.92712 0.926981 0.92682 0.926612 0.926313 0.925845 0.925073 0.923766 0.921538 0.917768 0.911478 0.901183 0.884738 0.859232 0.821066 0.766378 0.691979 0.596874 0.484117 0.362194 0.244468 0.145527 0.0752462 0.034033 0.0139393 0.00539185 0.00202695 0.000750936 0.00027569 0.000100482 3.63718e-05 1.30725e-05 4.66338e-06 1.65041e-06 5.79198e-07 2.01472e-07 6.94316e-08 2.36972e-08 8.0079e-09 2.67684e-09 8.85282e-10 2.89913e-10 9.29e-11 2.9115e-11 9.63932e-12 2.78089e-12 4.12108e-13 -1.61891e-13 -3.95292e-13 2.95971e-13 -1.03039e-13 1.95061e-13 6.9004e-14 -1.02302e-12 2.91326e-13 -6.21906e-13 1.63623e-13 3.007e-13 1.52357e-13 -5.64147e-13 3.3728e-13 2.0926e-14 -1.0795e-12 -5.91065e-13 1.88243e-12 -1.02455e-12 -4.24288e-13 2.22748e-13 6.58718e-13 -6.65023e-13 1.58603e-13 -6.86287e-13 6.57954e-13 -8.08468e-14 0
				</DataArray>
				<DataArray Name="VitesseY" type="Float32" format="ascii">