<?xml version="1.0"?>
<VTKFile type="PolyData">
	<PolyData>
		<Piece NumberOfPoints="1206" NumberOfPolys="1000">
			<Points>
				<DataArray type="Float32" NumberOfComponents="3" format="ascii">
 0 0 0 0.005 0 0 0.01 0 0 0.015 0 0 0.02 0 0 0.025 0 0 0.03 0 0 0.035 0 0 0.04 0 0 0.045 0 0 0.05 0 0 0.055 0 0 0.06 0 0 0.065 0 0 0.07 0 0 0.075 0 0 0.08 0 0 0.085 0 0 0.09 0 0 0.095 0 0 0.1 0 0 0.105 0 0 0.11 0 0 0.115 0 0 0.12 0 0 0.125 0 0 0.13 0 0 0.135 0 0 0.14 0 0 0.145 0 0 0.15 0 0 0.155 0 0 0.16 0 0 0.165 0 0 0.17 0 0 0.175 0 0 0.18 0 0 0.185 0 0 0.19 0 0 0.195 0 0 0.2 0 0 0.205 0 0 0.21 0 0 0.215 0 0 0.22 0 0 0.225 0 0 0.23 0 0 0.235 0 0 0.24 0 0 0.245 0 0 0.25 0 0 0.255 0 0 0.26 0 0 0.265 0 0 0.27 0 0 0.275 0 0 0.28 0 0 0.285 0 0 0.29 0 0 0.295 0 0 0.3 0 0 0.305 0 0 0.31 0 0 0.315 0 0 0.32 0 0 0.325 0 0 0.33 0 0 0.335 0 0 0.34 0 0 0.345 0 0 0.35 0 0 0.355 0 0 0.36 0 0 0.365 0 0 0.37 0 0 0.375 0 0 0.38 0 0 0.385 0 0 0.39 0 0 0.395 0 0 0.4 0 0 0.405 0 0 0.41 0 0 0.415 0 0 0.42 0 0 0.425 0 0 0.43 0 0 0.435 0 0 0.44 0 0 0.445 0 0 0.45 0 0 0.455 0 0 0.46 0 0 0.465 0 0 0.47 0 0 0.475 0 0 0.48 0 0 0.485 0 0 0.49 0 0 0.495 0 0 0.5 0 0 0.505 0 0 0.51 0 0 0.515 0 0 0.52 0 0 0.525 0 0 0.53 0 0 0.535 0 0 0.54 0 0 0.545 0 0 0.55 0 0 0.555 0 0 0.56 0 0 0.565 0 0 0.57 0 0 0.575 0 0 0.58 0 0 0.585 0 0 0.59 0 0 0.595 0 0 0.6 0 0 0.605 0 0 0.61 0 0 0.615 0 0 0.62 0 0 0.625 0 0 0.63 0 0 0.635 0 0 0.64 0 0 0.645 0 0 0.65 0 0 0.655 0 0 0.66 0 0 0.665 0 0 0.67 0 0 0.675 0 0 0.68 0 0 0.685 0 0 0.69 0 0 0.695 0 0 0.7 0 0 0.705 0 0 0.71 0 0 0.715 0 0 0.72 0 0 0.725 0 0 0.73 0 0 0.735 0 0 0.74 0 0 0.745 0 0 0.75 0 0 0.755 0 0 0.76 0 0 0.765 0 0 0.77 0 0 0.775 0 0 0.78 0 0 0.785 0 0 0.79 0 0 0.795 0 0 0.8 0 0 0.805 0 0 0.81 0 0 0.815 0 0 0.82 0 0 0.825 0 0 0.83 0 0 0.835 0 0 0.84 0 0 0.845 0 0 0.85 0 0 0.855 0 0 0.86 0 0 0.865 0 0 0.87 0 0 0.875 0 0 0.88 0 0 0.885 0 0 0.89 0 0 0.895 0 0 0.9 0 0 0.905 0 0 0.91 0 0 0.915 0 0 0.92 0 0 0.925 0 0 0.93 0 0 0.935 0 0 0.94 0 0 0.945 0 0 0.95 0 0 0.955 0 0 0.96 0 0 0.965 0 0 0.97 0 0 0.975 0 0 0.98 0 0 0.985 0 0 0.99 0 0 0.995 0 0 1 0 0 0 0.02 0 0.005 0.02 0 0.01 0.02 0 0.015 0.02 0 0.02 0.02 0 0.025 0.02 0 0.03 0.02 0 0.035 0.02 0 0.04 0.02 0 0.045 0.02 0 0.05 0.02 0 0.055 0.02 0 0.06 0.02 0 0.065 0.02 0 0.07 0.02 0 0.075 0.02 0 0.08 0.02 0 0.085 0.02 0 0.09 0.02 0 0.095 0.02 0 0.1 0.02 0 0.105 0.02 0 0.11 0.02 0 0.115 0.02 0 0.12 0.02 0 0.125 0.02 0 0.13 0.02 0 0.135 0.02 0 0.14 0.02 0 0.145 0.02 0 0.15 0.02 0 0.155 0.02 0 0.16 0.02 0 0.165 0.02 0 0.17 0.02 0 0.175 0.02 0 0.18 0.02 0 0.185 0.02 0 0.19 0.02 0 0.195 0.02 0 0.2 0.02 0 0.205 0.02 0 0.21 0.02 0 0.215 0.02 0 0.22 0.02 0 0.225 0.02 0 0.23 0.02 0 0.235 0.02 0 0.24 0.02 0 0.245 0.02 0 0.25 0.02 0 0.255 0.02 0 0.26 0.02 0 0.265 0.02 0 0.27 0.02 0 0.275 0.02 0 0.28 0.02 0 0.285 0.02 0 0.29 0.02 0 0.295 0.02 0 0.3 0.02 0 0.305 0.02 0 0.31 0.02 0 0.315 0.02 0 0.32 0.02 0 0.325 0.02 0 0.33 0.02 0 0.335 0.02 0 0.34 0.02 0 0.345 0.02 0 0.35 0.02 0 0.355 0.02 0 0.36 0.02 0 0.365 0.02 0 0.37 0.02 0 0.375 0.02 0 0.38 0.02 0 0.385 0.02 0 0.39 0.02 0 0.395 0.02 0 0.4 0.02 0 0.405 0.02 0 0.41 0.02 0 0.415 0.02 0 0.42 0.02 0 0.425 0.02 0 0.43 0.02 0 0.435 0.02 0 0.44 0.02 0 0.445 0.02 0 0.45 0.02 0 0.455 0.02 0 0.46 0.02 0 0.465 0.02 0 0.47 0.02 0 0.475 0.02 0 0.48 0.02 0 0.485 0.02 0 0.49 0.02 0 0.495 0.02 0 0.5 0.02 0 0.505 0.02 0 0.51 0.02 0 0.515 0.02 0 0.52 0.02 0 0.525 0.02 0 0.53 0.02 0 0.535 0.02 0 0.54 0.02 0 0.545 0.02 0 0.55 0.02 0 0.555 0.02 0 0.56 0.02 0 0.565 0.02 0 0.57 0.02 0 0.575 0.02 0 0.58 0.02 0 0.585 0.02 0 0.59 0.02 0 0.595 0.02 0 0.6 0.02 0 0.605 0.02 0 0.61 0.02 0 0.615 0.02 0 0.62 0.02 0 0.625 0.02 0 0.63 0.02 0 0.635 0.02 0 0.64 0.02 0 0.645 0.02 0 0.65 0.02 0 0.655 0.02 0 0.66 0.02 0 0.665 0.02 0 0.67 0.02 0 0.675 0.02 0 0.68 0.02 0 0.685 0.02 0 0.69 0.02 0 0.695 0.02 0 0.7 0.02 0 0.705 0.02 0 0.71 0.02 0 0.715 0.02 0 0.72 0.02 0 0.725 0.02 0 0.73 0.02 0 0.735 0.02 0 0.74 0.02 0 0.745 0.02 0 0.75 0.02 0 0.755 0.02 0 0.76 0.02 0 0.765 0.02 0 0.77 0.02 0 0.775 0.02 0 0.78 0.02 0 0.785 0.02 0 0.79 0.02 0 0.795 0.02 0 0.8 0.02 0 0.805 0.02 0 0.81 0.02 0 0.815 0.02 0 0.82 0.02 0 0.825 0.02 0 0.83 0.02 0 0.835 0.02 0 0.84 0.02 0 0.845 0.02 0 0.85 0.02 0 0.855 0.02 0 0.86 0.02 0 0.865 0.02 0 0.87 0.02 0 0.875 0.02 0 0.88 0.02 0 0.885 0.02 0 0.89 0.02 0 0.895 0.02 0 0.9 0.02 0 0.905 0.02 0 0.91 0.02 0 0.915 0.02 0 0.92 0.02 0 0.925 0.02 0 0.93 0.02 0 0.935 0.02 0 0.94 0.02 0 0.945 0.02 0 0.95 0.02 0 0.955 0.02 0 0.96 0.02 0 0.965 0.02 0 0.97 0.02 0 0.975 0.02 0 0.98 0.02 0 0.985 0.02 0 0.99 0.02 0 0.995 0.02 0 1 0.02 0 0 0.04 0 0.005 0.04 0 0.01 0.04 0 0.015 0.04 0 0.02 0.04 0 0.025 0.04 0 0.03 0.04 0 0.035 0.04 0 0.04 0.04 0 0.045 0.04 0 0.05 0.04 0 0.055 0.04 0 0.06 0.04 0 0.065 0.04 0 0.07 0.04 0 0.075 0.04 0 0.08 0.04 0 0.085 0.04 0 0.09 0.04 0 0.095 0.04 0 0.1 0.04 0 0.105 0.04 0 0.11 0.04 0 0.115 0.04 0 0.12 0.04 0 0.125 0.04 0 0.13 0.04 0 0.135 0.04 0 0.14 0.04 0 0.145 0.04 0 0.15 0.04 0 0.155 0.04 0 0.16 0.04 0 0.165 0.04 0 0.17 0.04 0 0.175 0.04 0 0.18 0.04 0 0.185 0.04 0 0.19 0.04 0 0.195 0.04 0 0.2 0.04 0 0.205 0.04 0 0.21 0.04 0 0.215 0.04 0 0.22 0.04 0 0.225 0.04 0 0.23 0.04 0 0.235 0.04 0 0.24 0.04 0 0.245 0.04 0 0.25 0.04 0 0.255 0.04 0 0.26 0.04 0 0.265 0.04 0 0.27 0.04 0 0.275 0.04 0 0.28 0.04 0 0.285 0.04 0 0.29 0.04 0 0.295 0.04 0 0.3 0.04 0 0.305 0.04 0 0.31 0.04 0 0.315 0.04 0 0.32 0.04 0 0.325 0.04 0 0.33 0.04 0 0.335 0.04 0 0.34 0.04 0 0.345 0.04 0 0.35 0.04 0 0.355 0.04 0 0.36 0.04 0 0.365 0.04 0 0.37 0.04 0 0.375 0.04 0 0.38 0.04 0 0.385 0.04 0 0.39 0.04 0 0.395 0.04 0 0.4 0.04 0 0.405 0.04 0 0.41 0.04 0 0.415 0.04 0 0.42 0.04 0 0.425 0.04 0 0.43 0.04 0 0.435 0.04 0 0.44 0.04 0 0.445 0.04 0 0.45 0.04 0 0.455 0.04 0 0.46 0.04 0 0.465 0.04 0 0.47 0.04 0 0.475 0.04 0 0.48 0.04 0 0.485 0.04 0 0.49 0.04 0 0.495 0.04 0 0.5 0.04 0 0.505 0.04 0 0.51 0.04 0 0.515 0.04 0 0.52 0.04 0 0.525 0.04 0 0.53 0.04 0 0.535 0.04 0 0.54 0.04 0 0.545 0.04 0 0.55 0.04 0 0.555 0.04 0 0.56 0.04 0 0.565 0.04 0 0.57 0.04 0 0.575 0.04 0 0.58 0.04 0 0.585 0.04 0 0.59 0.04 0 0.595 0.04 0 0.6 0.04 0 0.605 0.04 0 0.61 0.04 0 0.615 0.04 0 0.62 0.04 0 0.625 0.04 0 0.63 0.04 0 0.635 0.04 0 0.64 0.04 0 0.645 0.04 0 0.65 0.04 0 0.655 0.04 0 0.66 0.04 0 0.665 0.04 0 0.67 0.04 0 0.675 0.04 0 0.68 0.04 0 0.685 0.04 0 0.69 0.04 0 0.695 0.04 0 0.7 0.04 0 0.705 0.04 0 0.71 0.04 0 0.715 0.04 0 0.72 0.04 0 0.725 0.04 0 0.73 0.04 0 0.735 0.04 0 0.74 0.04 0 0.745 0.04 0 0.75 0.04 0 0.755 0.04 0 0.76 0.04 0 0.765 0.04 0 0.77 0.04 0 0.775 0.04 0 0.78 0.04 0 0.785 0.04 0 0.79 0.04 0 0.795 0.04 0 0.8 0.04 0 0.805 0.04 0 0.81 0.04 0 0.815 0.04 0 0.82 0.04 0 0.825 0.04 0 0.83 0.04 0 0.835 0.04 0 0.84 0.04 0 0.845 0.04 0 0.85 0.04 0 0.855 0.04 0 0.86 0.04 0 0.865 0.04 0 0.87 0.04 0 0.875 0.04 0 0.88 0.04 0 0.885 0.04 0 0.89 0.04 0 0.895 0.04 0 0.9 0.04 0 0.905 0.04 0 0.91 0.04 0 0.915 0.04 0 0.92 0.04 0 0.925 0.04 0 0.93 0.04 0 0.935 0.04 0 0.94 0.04 0 0.945 0.04 0 0.95 0.04 0 0.955 0.04 0 0.96 0.04 0 0.965 0.04 0 0.97 0.04 0 0.975 0.04 0 0.98 0.04 0 0.985 0.04 0 0.99 0.04 0 0.995 0.04 0 1 0.04 0 0 0.06 0 0.005 0.06 0 0.01 0.06 0 0.015 0.06 0 0.02 0.06 0 0.025 0.06 0 0.03 0.06 0 0.035 0.06 0 0.04 0.06 0 0.045 0.06 0 0.05 0.06 0 0.055 0.06 0 0.06 0.06 0 0.065 0.06 0 0.07 0.06 0 0.075 0.06 0 0.08 0.06 0 0.085 0.06 0 0.09 0.06 0 0.095 0.06 0 0.1 0.06 0 0.105 0.06 0 0.11 0.06 0 0.115 0.06 0 0.12 0.06 0 0.125 0.06 0 0.13 0.06 0 0.135 0.06 0 0.14 0.06 0 0.145 0.06 0 0.15 0.06 0 0.155 0.06 0 0.16 0.06 0 0.165 0.06 0 0.17 0.06 0 0.175 0.06 0 0.18 0.06 0 0.185 0.06 0 0.19 0.06 0 0.195 0.06 0 0.2 0.06 0 0.205 0.06 0 0.21 0.06 0 0.215 0.06 0 0.22 0.06 0 0.225 0.06 0 0.23 0.06 0 0.235 0.06 0 0.24 0.06 0 0.245 0.06 0 0.25 0.06 0 0.255 0.06 0 0.26 0.06 0 0.265 0.06 0 0.27 0.06 0 0.275 0.06 0 0.28 0.06 0 0.285 0.06 0 0.29 0.06 0 0.295 0.06 0 0.3 0.06 0 0.305 0.06 0 0.31 0.06 0 0.315 0.06 0 0.32 0.06 0 0.325 0.06 0 0.33 0.06 0 0.335 0.06 0 0.34 0.06 0 0.345 0.06 0 0.35 0.06 0 0.355 0.06 0 0.36 0.06 0 0.365 0.06 0 0.37 0.06 0 0.375 0.06 0 0.38 0.06 0 0.385 0.06 0 0.39 0.06 0 0.395 0.06 0 0.4 0.06 0 0.405 0.06 0 0.41 0.06 0 0.415 0.06 0 0.42 0.06 0 0.425 0.06 0 0.43 0.06 0 0.435 0.06 0 0.44 0.06 0 0.445 0.06 0 0.45 0.06 0 0.455 0.06 0 0.46 0.06 0 0.465 0.06 0 0.47 0.06 0 0.475 0.06 0 0.48 0.06 0 0.485 0.06 0 0.49 0.06 0 0.495 0.06 0 0.5 0.06 0 0.505 0.06 0 0.51 0.06 0 0.515 0.06 0 0.52 0.06 0 0.525 0.06 0 0.53 0.06 0 0.535 0.06 0 0.54 0.06 0 0.545 0.06 0 0.55 0.06 0 0.555 0.06 0 0.56 0.06 0 0.565 0.06 0 0.57 0.06 0 0.575 0.06 0 0.58 0.06 0 0.585 0.06 0 0.59 0.06 0 0.595 0.06 0 0.6 0.06 0 0.605 0.06 0 0.61 0.06 0 0.615 0.06 0 0.62 0.06 0 0.625 0.06 0 0.63 0.06 0 0.635 0.06 0 0.64 0.06 0 0.645 0.06 0 0.65 0.06 0 0.655 0.06 0 0.66 0.06 0 0.665 0.06 0 0.67 0.06 0 0.675 0.06 0 0.68 0.06 0 0.685 0.06 0 0.69 0.06 0 0.695 0.06 0 0.7 0.06 0 0.705 0.06 0 0.71 0.06 0 0.715 0.06 0 0.72 0.06 0 0.725 0.06 0 0.73 0.06 0 0.735 0.06 0 0.74 0.06 0 0.745 0.06 0 0.75 0.06 0 0.755 0.06 0 0.76 0.06 0 0.765 0.06 0 0.77 0.06 0 0.775 0.06 0 0.78 0.06 0 0.785 0.06 0 0.79 0.06 0 0.795 0.06 0 0.8 0.06 0 0.805 0.06 0 0.81 0.06 0 0.815 0.06 0 0.82 0.06 0 0.825 0.06 0 0.83 0.06 0 0.835 0.06 0 0.84 0.06 0 0.845 0.06 0 0.85 0.06 0 0.855 0.06 0 0.86 0.06 0 0.865 0.06 0 0.87 0.06 0 0.875 0.06 0 0.88 0.06 0 0.885 0.06 0 0.89 0.06 0 0.895 0.06 0 0.9 0.06 0 0.905 0.06 0 0.91 0.06 0 0.915 0.06 0 0.92 0.06 0 0.925 0.06 0 0.93 0.06 0 0.935 0.06 0 0.94 0.06 0 0.945 0.06 0 0.95 0.06 0 0.955 0.06 0 0.96 0.06 0 0.965 0.06 0 0.97 0.06 0 0.975 0.06 0 0.98 0.06 0 0.985 0.06 0 0.99 0.06 0 0.995 0.06 0 1 0.06 0 0 0.08 0 0.005 0.08 0 0.01 0.08 0 0.015 0.08 0 0.02 0.08 0 0.025 0.08 0 0.03 0.08 0 0.035 0.08 0 0.04 0.08 0 0.045 0.08 0 0.05 0.08 0 0.055 0.08 0 0.06 0.08 0 0.065 0.08 0 0.07 0.08 0 0.075 0.08 0 0.08 0.08 0 0.085 0.08 0 0.09 0.08 0 0.095 0.08 0 0.1 0.08 0 0.105 0.08 0 0.11 0.08 0 0.115 0.08 0 0.12 0.08 0 0.125 0.08 0 0.13 0.08 0 0.135 0.08 0 0.14 0.08 0 0.145 0.08 0 0.15 0.08 0 0.155 0.08 0 0.16 0.08 0 0.165 0.08 0
[...]
			<PointData Scalars="VitesseX">
				<DataArray Name="VitesseX" type="Float32" format="ascii">
 0 -1.92444e-14 -2.31113e-15 -8.7012e-14 4.72814e-14 2.09138e-15 -5.20022e-14 -5.53098e-14 8.53219e-15 -7.21646e-14 -6.83362e-14 6.93856e-14 -1.98745e-13 1.46966e-13 -1.82279e-13 -7.45363e-14 2.17971e-14 -2.74284e-13 3.51448e-14 -7.86065e-14 -4.80721e-14 4.37905e-14 4.37188e-14 6.97748e-15 -4.00145e-13 2.46361e-14 1.94443e-13 -2.20684e-13 1.86957e-14 -8.14664e-14 4.02948e-14 -1.93041e-13 1.07888e-13 5.17888e-14 -3.51189e-13 4.94752e-14 -2.8695e-13 1.6687e-13 -3.6296e-13 2.9198e-13 -2.44666e-13 2.21282e-14 2.61368e-14 -4.49019e-13 -3.88499e-13 7.02888e-14 -5.813e-13 4.29847e-13 -1.18592e-13 1.82206e-14 -1.84143e-13 1.63955e-13 7.45013e-13 -8.90425e-13 8.92993e-14 -2.47895e-14 -4.94198e-13 3.95859e-13 -5.96781e-13 -1.15644e-15 3.47708e-13 -7.77187e-14 1.06366e-13 -3.23386e-13 3.76399e-13 -2.40068e-13 -1.17413e-13 -9.85338e-14 -6.36515e-13 2.51516e-13 5.9425e-14 -5.98231e-13 2.62675e-13 -5.21737e-13 9.87882e-13 -8.91342e-14 4.98611e-12 8.29156e-11 1.06824e-09 1.25209e-08 1.31065e-07 1.21542e-06 9.88578e-06 6.96658e-05 0.000418821 0.00210531 0.00862182 0.0278942 0.0694466 0.133098 0.205959 0.278012 0.347708 0.415217 0.480462 0.543259 0.603269 0.659993 0.712775 0.76083 0.803316 0.839463 0.868752 0.891103 0.906984 0.917374 0.923564 0.926818 0.928405 0.928595 0.927753 0.925194 0.919486 0.908185 0.88758 0.852803 0.798521 0.720331 0.616832 0.492039 0.35708 0.229132 0.126057 0.0582133 0.0228513 0.00799973 0.00261934 0.0008233 0.000250929 7.43897e-05 2.14647e-05 6.02783e-06 1.64715e-06 4.37893e-07 1.13246e-07 2.84913e-08 6.97234e-09 1.66005e-09 3.85334e-10 8.599e-11 1.90197e-11 4.57416e-12 -4.64521e-13 1.03419e-12 2.48606e-13 -4.47172e-13 6.90599e-13 -1.72262e-12 1.03393e-12 -4.32007e-13 -1.39381e-13 1.44417e-12 -1.17147e-12 7.25924e-13 -4.92713e-13 1.11761e-12 -6.84333e-13 -6.96205e-13 8.16549e-15 -4.69053e-13 1.08968e-12 -4.92444e-13 -3.10527e-13 -2.45656e-15 -8.93428e-13 3.31412e-13 -2.39623e-13 5.37423e-13 8.0456e-13 -1.29637e-12 2.49941e-13 4.53977e-13 -7.06554e-13 1.37171e-12 -3.3869e-13 -7.45624e-14 -3.65077e-13 -5.22729e-13 1.14188e-12 -1.15883e-12 -1.67538e-13 -6.85603e-13 -1.19854e-12 2.02146e-12 -7.09056e-13 3.00859e-13 -1.72647e-13 -6.70516e-13 9.99843e-13 -1.37117e-12 3.13665e-13 7.18941e-13 -1.93751e-12 1.22501e-12 -9.14584e-13 -1.27066e-13 4.61448e-13 -2.24148e-12 7.79303e-13 -9.3306e-13 0 0 -5.66596e-15 -2.8858e-14 3.43481e-14 -7.40138e-14 -2.56249e-14 1.74976e-14 -8.48612e-15 -5.00416e-14 -1.73333e-14 2.0725e-14 -9.38827e-14 1.3711e-13 -2.16393e-13 2.9085e-14 -8.94295e-14 -2.34172e-13 -6.13939e-15 -1.48294e-13 1.36727e-14 5.14916e-14 -5.77457e-14 -1.30556e-13 -1.14086e-13 1.43811e-13 -8.35399e-14 -2.66456e-13 1.13215e-13 -1.49854e-13 4.75737e-14 -6.81128e-14 1.02696e-13 -1.45982e-13 -9.72368e-14 7.23415e-14 -1.87265e-13 7.14713e-14 -3.52982e-13 2.26161e-13 -2.93842e-13 5.38293e-14 -1.90989e-13 -2.27857e-13 4.22085e-14 -1.36701e-13 -4.46541e-13 9.50313e-14 -3.86987e-13 2.93735e-13 1.09246e-13 2.03793e-13 -1.0164e-13 -5.2348e-13 8.15166e-13 -2.59148e-13 -3.58916e-13 4.52505e-14 -7.02126e-13 4.86015e-13 -1.15019e-13 -1.73478e-13 -1.03981e-13 -5.71079e-17 2.1873e-13 -3.57338e-13 9.97e-14 -1.08514e-13 -1.797e-13 1.31892e-13 -4.15382e-13 -1.47298e-13 4.76342e-13 -3.04797e-13 3.87015e-13 -5.53802e-13 7.69314e-13 6.09131e-12 8.14772e-11 1.06887e-09 1.252e-08 1.31066e-07 1.21542e-06 9.88578e-06 6.96658e-05 0.000418821 0.00210531 0.00862182 0.0278942 0.0694466 0.133098 0.205959 0.278012 0.347708 0.415217 0.480462 0.543259 0.603269 0.659993 0.712775 0.76083 0.803316 0.839463 0.868752 0.891103 0.906984 0.917374 0.923564 0.926818 0.928405 0.928595 0.927753 0.925194 0.919486 0.908185 0.88758 0.852803 0.798521 0.720331 0.616832 0.492039 0.35708 0.229132 0.126057 0.0582133 0.0228513 0.00799973 0.00261934 0.0008233 0.000250929 7.43897e-05 2.14647e-05 6.02783e-06 1.64715e-06 4.37892e-07 1.13247e-07 2.849e-08 6.9732e-09 1.66021e-09 3.83966e-10 8.70081e-11 1.86953e-11 3.73984e-12 1.88164e-12 -3.96094e-13 6.80348e-14 4.07547e-13 -1.08405e-12 7.4823e-13 -7.58877e-13 3.73562e-13 4.45916e-13 -7.18055e-13 1.05866e-12 -5.01388e-13 4.92971e-13 -8.88105e-13 2.11995e-13 -1.41344e-13 -3.50668e-13 2.61332e-13 -7.27748e-13 3.38872e-13 -3.44174e-13 -4.53557e-13 5.18899e-13 -4.36712e-13 -1.52242e-13 6.2666e-14 -2.90234e-13 1.03287e-12 1.18119e-13 -4.67151e-13 4.62214e-13 -8.63732e-13 6.7281e-13 9.35996e-14 5.5305e-15 -3.08181e-14 -1.16286e-12 4.66641e-13 -5.19296e-13 -2.23786e-13 3.04182e-13 -1.12615e-12 6.49167e-13 -1.56184e-14 1.66902e-13 2.86004e-13 -1.08017e-12 7.11728e-13 -4.49165e-13 -1.16113e-12 1.4846e-12 -8.43749e-13 2.15835e-13 -4.04874e-13 -1.32775e-12 6.20482e-13 -1.43688e-12 1.60964e-13 0 0 5.96215e-15 1.17562e-14 -1.98661e-14 2.72118e-14 -2.06417e-14 -4.24443e-14 -1.12419e-14 4.76689e-15 4.09174e-14 -1.33934e-14 1.38561e-14 -1.12128e-13 5.43194e-14 -1.44024e-13 -1.51925e-13 -2.13334e-14 -1.54375e-13 -8.41986e-14 2.34618e-14 -9.70074e-14 -1.66017e-14 -2.70335e-14 -1.46293e-13 -8.67097e-14 -8.12337e-14 4.43317e-15 -9.97073e-14 4.99552e-14 -2.06045e-14 4.2365e-14 -6.4878e-14 -3.04635e-14 -9.1318e-14 -9.05338e-14 -3.2658e-14 -1.27723e-13 7.46269e-14 -2.26261e-13 -6.94041e-14 -2.31473e-13 -1.2129e-13 -4.4659e-15 -8.37046e-14 -1.83385e-13 7.5495e-14 -2.47315e-13 3.505e-14 -2.28344e-14 1.69465e-13 3.16432e-14 5.07445e-14 1.35719e-13 -4.02335e-13 2.90116e-13 -2.24008e-13 -3.13778e-13 1.33522e-13 -3.52107e-13 7.84083e-14 -3.19494e-13 -6.79991e-14 -7.0868e-14 -7.64608e-14 1.57588e-13 -1.1956e-13 -9.39677e-14 4.53349e-14 -1.57073e-13 1.29796e-13 1.03408e-13 -2.29958e-13 1.17391e-13 -7.316e-14 2.5482e-13 7.38383e-13 6.04175e-12 8.23129e-11 1.06786e-09 1.25212e-08 1.31065e-07 1.21542e-06 9.88578e-06 6.96658e-05 0.000418821 0.00210531 0.00862182 0.0278942 0.0694466 0.133098 0.205959 0.278012 0.347708 0.415217 0.480462 0.543259 0.603269 0.659993 0.712775 0.76083 0.803316 0.839463 0.868752 0.891103 0.906984 0.917374 0.923564 0.926818 0.928405 0.928595 0.927753 0.925194 0.919486 0.908185 0.88758 0.852803 0.798521 0.720331 0.616832 0.492039 0.35708 0.229132 0.126057 0.0582133 0.0228513 0.00799973 0.00261934 0.0008233 0.000250929 7.43897e-05 2.14647e-05 6.02783e-06 1.64715e-06 4.37893e-07 1.13247e-07 2.84907e-08 6.97248e-09 1.66015e-09 3.84641e-10 8.65462e-11 1.8901e-11 4.26225e-12 5.94051e-13 6.31126e-13 4.40451e-14 -3.18664e-13 3.2189e-13 -4.08931e-13 1.6339e-13 2.16497e-13 -5.21425e-13 5.88981e-13 -1.30748e-13 5.45241e-13 -7.00338e-13 -2.57615e-13 -5.86499e-13 -5.81376e-14 -2.1046e-13 -5.05428e-13 -2.27247e-13 -3.76403e-13 1.61145e-13 -1.92945e-13 -2.31986e-13 9.75645e-14 -1.96609e-13 -1.3438e-13 5.50194e-13 8.54845e-14 3.67709e-13 5.21762e-14 -5.81899e-13 1.50139e-13 -4.05622e-13 4.10479e-13 4.12082e-13 -2.19165e-13 -6.47375e-13 -4.13155e-13 1.68055e-13 -2.38948e-13 -3.44748e-13 3.44565e-13 -2.43645e-13 2.3084e-13 -1.58807e-13 -1.74298e-13 2.53427e-13 -5.61578e-13 2.4711e-13 -1.6631e-13 -3.518e-13 -7.94417e-14 -5.0399e-13 -2.68631e-13 -2.42081e-13 -5.59697e-13 1.52284e-14 -1.73389e-14 0 0 -8.32614e-15 -8.23208e-15 -9.65132e-15 7.56538e-14 3.25639e-14 -3.2618e-15 1.24949e-14 1.66875e-14 -2.81509e-14 -5.53965e-14 -4.65591e-14 -9.85166e-14 3.0461e-14 -1.46442e-13 -7.10911e-14 -7.20741e-14 -8.25869e-14 -1.18956e-14 -4.31599e-14 -1.07801e-13 -5.2323e-14 -9.39305e-14 -9.25163e-14 -2.07227e-13 -1.92639e-14 3.52024e-14 -1.60529e-13 3.36258e-14 -3.51191e-15 8.43559e-14 -4.8596e-14 7.38463e-14 -1.01593e-13 -1.93874e-13 -5.49087e-14 -1.17959e-13 -2.70823e-14 -2.45294e-13 -4.82962e-14 4.76674e-14 -4.67088e-14 -4.37725e-14 -4.09322e-13 -7.53985e-14 -8.6345e-14 -2.36877e-13 1.09742e-13 4.83737e-14 1.17822e-13 -3.63911e-14 7.98373e-14 4.28354e-14 -2.89968e-13 3.46398e-14 -1.47797e-13 -3.9808e-13 1.08606e-13 -3.43497e-13 -5.26828e-14 1.29413e-13 -3.57252e-15 -1.51425e-13 -1.04557e-13 2.48443e-13 1.12088e-13 -1.27093e-13 -1.78363e-13 -2.44609e-13 -5.38357e-15 1.53139e-13 -1.2362e-13 1.20227e-13 -1.69611e-13 4.02932e-13 8.31347e-13 5.85564e-12 8.27754e-11 1.06852e-09 1.25204e-08 1.31065e-07 1.21542e-06 9.88578e-06 6.96658e-05 0.000418821 0.00210531 0.00862182 0.0278942 0.0694466 0.133098 0.205959 0.278012 0.347708 0.415217 0.480462 0.543259 0.603269 0.659993 0.712775 0.76083 0.803316 0.839463 0.868752 0.891103 0.906984 0.917374 0.923564 0.926818 0.928405 0.928595 0.927753 0.925194 0.919486 0.908185 0.88758 0.852803 0.798521 0.720331 0.616832 0.492039 0.35708 0.229132 0.126057 0.0582133 0.0228513 0.00799973 0.00261934 0.0008233 0.000250929 7.43897e-05 2.14647e-05 6.02783e-06 1.64715e-06 4.37893e-07 1.13246e-07 2.84908e-08 6.9727e-09 1.66054e-09 3.84743e-10 8.65798e-11 1.90039e-11 4.23403e-12 3.71993e-13 3.78361e-13 2.39773e-13 6.59532e-14 8.14334e-13 -3.02435e-13 4.60404e-13 -3.12414e-13 -8.06031e-13 5.16697e-13 -5.04588e-13 8.66346e-14 -4.03817e-13 1.08672e-13 -3.79135e-13 -8.63568e-13 -4.00935e-13 -4.35625e-13 5.17622e-13 -5.68382e-13 -4.39864e-13 -3.81726e-13 -6.20936e-13 1.52079e-13 3.76962e-13 4.26272e-13 1.50025e-13 -7.54424e-13 -5.12014e-13 7.18346e-13 -2.6401e-13 6.04584e-13 -2.07222e-13 -6.51994e-13 2.39469e-13 3.62635e-13 1.0453e-13 -4.62382e-13 -1.28625e-13 -6.88345e-13 4.13199e-14 2.60277e-13 1.33798e-13 6.32193e-13 -3.34143e-13 -6.47294e-13 2.1608e-13 -4.45941e-13 4.8505e-13 -2.87145e-13 -6.64087e-13 3.33754e-13 -2.32372e-13 2.4042e-13 7.03507e-14 -8.08294e-13 3.98794e-13 -1.03311e-12 0 0 5.21066e-15 -9.35082e-15 8.19743e-14 -1.27736e-14 3.67764e-14 6.89964e-14 4.28846e-14 -1.52795e-14 -2.33699e-14 -1.97203e-14 -1.56244e-13 7.93418e-14 -2.98593e-13 4.31115e-14 -2.31509e-14 -2.03409e-13 3.60468e-14 -5.84659e-14 -8.64769e-14 -3.87158e-14 -1.02377e-13 -2.13514e-13 -1.03436e-13 1.2047e-13 1.20088e-14 -1.74481e-13 1.75469e-13 -1.47613e-13 1.2656e-13 -1.5607e-13 -2.04432e-15 -1.75242e-13 -2.22109e-13 9.88579e-14 -9.99699e-14 4.80951e-14 -3.15972e-13 1.84162e-13 -3.42028e-13 1.90566e-13 -2.1265e-13 -2.32069e-13 -5.65103e-14 6.5012e-14 -5.9198e-13 1.78774e-13 -4.34697e-13 2.10468e-13 7.06594e-14 2.00361e-13 5.21602e-14 -5.91507e-13 7.46129e-13 -5.51713e-13 -3.53426e-13 -8.6083e-14 -8.62686e-13 3.68942e-13 -1.31195e-13 1.62048e-13 -1.12787e-13 2.81464e-14 2.39805e-13 -2.96188e-13 3.37852e-13 -6.56741e-14 -2.28976e-13 4.43465e-14 -5.0142e-13 -1.52268e-13 5.37151e-13 -5.25327e-14 6.09927e-13 -4.75436e-13 8.65135e-13 6.31135e-12 8.18276e-11 1.06914e-09 1.25199e-08 1.31067e-07 1.21542e-06 9.88578e-06 6.96658e-05 0.000418821 0.00210531 0.00862182 0.0278942 0.0694466 0.133098 0.205959 0.278012 0.347708 0.415217 0.480462 0.543259 0.603269 0.659993 0.712775 0.76083 0.803316 0.839463 0.868752 0.891103 0.906984 0.917374 0.923564 0.926818 0.928405 0.928595 0.927753 0.925194 0.919486 0.908185 0.88758 0.852803 0.798521 0.720331 0.616832 0.492039 0.35708 0.229132 0.126057 0.0582133 0.0228513 0.00799973 0.00261934 0.0008233 0.000250929 7.43897e-05 2.14647e-05 6.02783e-06 1.64715e-06 4.37892e-07 1.13247e-07 2.849e-08 6.97355e-09 1.66033e-09 3.84215e-10 8.72824e-11 1.90704e-11 3.71782e-12 1.90034e-12 -3.28594e-13 2.65504e-13 2.89448e-13 -3.48086e-13 1.18994e-12 -4.97058e-13 -3.2251e-13 -7.03356e-14 -1.11713e-12 6.80055e-13 -5.74111e-13 4.04308e-13 -1.20811e-12 2.75608e-13 -7.79662e-13 -6.78931e-13 6.1252e-15 -6.37612e-13 2.58487e-13 -7.53885e-13 -2.06319e-13 9.85733e-13 -2.74903e-13 2.99231e-13 -1.48811e-13 -8.60912e-13 3.73086e-13 -8.62643e-13 -2.0022e-13 7.98836e-13 -5.70745e-13 6.56745e-13 -7.31414e-13 -1.03323e-13 2.75036e-13 -8.64322e-13 8.27262e-13 -6.90291e-13 -5.73356e-13 7.04061e-13 -1.44228e-12 1.04929e-12 -7.22881e-14 2.40338e-13 -1.44294e-14 -9.28903e-13 1.1557e-12 -4.58417e-13 -7.97306e-13 1.23402e-12 -6.85917e-13 7.25187e-13 -7.51275e-14 -1.19725e-12 3.77113e-13 -9.68213e-13 -1.12888e-12 0 0 3.10855e-14 7.66799e-14 -1.21892e-14 7.28778e-14 2.04828e-14 -2.73696e-14 -4.21181e-17 5.42152e-14 5.38987e-14 -6.52206e-14 6.54941e-14 -3.41505e-13 3.02831e-14 -1.49389e-13 -1.03646e-13 1.84804e-13 -3.33488e-13 7.01949e-14 -1.45662e-13 -2.069e-13 2.59707e-14 1.1596e-14 -7.92757e-14 -2.05793e-13 9.17941e-14 3.16853e-13 2.54667e-14 5.58351e-14 4.232e-14 -2.19602e-13 -4.35084e-13 -1.59251e-13 -1.77406e-13 -9.14754e-14 2.68568e-13 -3.53231e-13 4.44308e-13 -4.08892e-13 1.53393e-13 -5.29472e-13 -1.70358e-13 9.63259e-14 4.77754e-15 -2.01047e-13 1.03091e-13 -4.34691e-13 1.85043e-13 -4.27542e-13 4.43343e-14 -5.49391e-14 4.13369e-13 7.94726e-13 -1.25323e-12 1.5123e-14 -1.66231e-13 -5.8826e-13 1.24572e-13 -8.48148e-13 2.28674e-13 1.20945e-13 -2.24183e-13 3.23887e-13 -2.25046e-13 3.1699e-13 -2.2706e-13 3.45181e-14 2.50309e-13 -6.36533e-13 3.498e-13 -4.99773e-14 -6.8929e-13 7.61532e-13 1.16989e-13 8.48391e-13 -8.3419e-14 5.79843e-12 8.26914e-11 1.06746e-09 1.25225e-08 1.31065e-07 1.21542e-06 9.88578e-06 6.96658e-05 0.000418821 0.00210531 0.00862182 0.0278942 0.0694466 0.133098 0.205959 0.278012 0.347708 0.415217 0.480462 0.543259 0.603269 0.659993 0.712775 0.76083 0.803316 0.839463 0.868752 0.891103 0.906984 0.917374 0.923564 0.926818 0.928405 0.928595 0.927753 0.925194 0.919486 0.908185 0.88758 0.852803 0.798521 0.720331 0.616832 0.492039 0.35708 0.229132 0.126057 0.0582133 0.0228513 0.00799973 0.00261934 0.0008233 0.000250929 7.43897e-05 2.14647e-05 6.02783e-06 1.64715e-06 4.37893e-07 1.13247e-07 2.8491e-08 6.97257e-09 1.65951e-09 3.85629e-10 8.64714e-11 1.95643e-11 4.58658e-12 1.69856e-14 1.67472e-12 2.52088e-13 -1.4526e-12 1.17764e-12 -1.05219e-12 9.6354e-13 -7.66329e-13 -6.02675e-13 7.90597e-13 -1.18099e-12 1.49769e-12 -1.26308e-12 -2.54965e-13 -9.71834e-13 -3.6198e-13 -2.67412e-13 -1.11907e-12 -2.19784e-13 -2.69256e-13 7.20687e-14 8.69581e-13 8.1814e-13 5.46002e-13 -4.83819e-13 -1.00684e-12 4.63542e-13 -9.36119e-13 4.78647e-14 -3.44501e-13 -6.6909e-13 1.0488e-12 -7.67621e-13 4.00355e-13 -2.3756e-13 -1.07462e-12 2.35156e-13 -3.39137e-13 8.38338e-14 -4.85948e-13 -1.17092e-12 1.55778e-12 -6.63692e-13 -6.15187e-13 3.24899e-13 -3.25391e-13 1.37708e-12 -7.14498e-13 -1.8072e-13 1.68826e-12 -1.81409e-12 7.14284e-13 -4.39116e-13 -4.85675e-13 9.7585e-14 -2.23102e-12 9.49513e-13 -1.48121e-12 0
				</DataArray>
				<DataArray Name="VitesseY" type="Float32" format="ascii">