<?xml version="1.0"?>
<VTKFile type="PolyData">
	<PolyData>
		<Piece NumberOfPoints="1206" NumberOfPolys="1000">
			<Points>
				<DataArray type="Float32" NumberOfComponents="3" format="ascii">
 0 0 0 0.005 0 0 0.01 0 0 0.015 0 0 0.02 0 0 0.025 0 0 0.03 0 0 0.035 0 0 0.04 0 0 0.045 0 0 0.05 0 0 0.055 0 0 0.06 0 0 0.065 0 0 0.07 0 0 0.075 0 0 0.08 0 0 0.085 0 0 0.09 0 0 0.095 0 0 0.1 0 0 0.105 0 0 0.11 0 0 0.115 0 0 0.12 0 0 0.125 0 0 0.13 0 0 0.135 0 0 0.14 0 0 0.145 0 0 0.15 0 0 0.155 0 0 0.16 0 0 0.165 0 0 0.17 0 0 0.175 0 0 0.18 0 0 0.185 0 0 0.19 0 0 0.195 0 0 0.2 0 0 0.205 0 0 0.21 0 0 0.215 0 0 0.22 0 0 0.225 0 0 0.23 0 0 0.235 0 0 0.24 0 0 0.245 0 0 0.25 0 0 0.255 0 0 0.26 0 0 0.265 0 0 0.27 0 0 0.275 0 0 0.28 0 0 0.285 0 0 0.29 0 0 0.295 0 0 0.3 0 0 0.305 0 0 0.31 0 0 0.315 0 0 0.32 0 0 0.325 0 0 0.33 0 0 0.335 0 0 0.34 0 0 0.345 0 0 0.35 0 0 0.355 0 0 0.36 0 0 0.365 0 0 0.37 0 0 0.375 0 0 0.38 0 0 0.385 0 0 0.39 0 0 0.395 0 0 0.4 0 0 0.405 0 0 0.41 0 0 0.415 0 0 0.42 0 0 0.425 0 0 0.43 0 0 0.435 0 0 0.44 0 0 0.445 0 0 0.45 0 0 0.455 0 0 0.46 0 0 0.465 0 0 0.47 0 0 0.475 0 0 0.48 0 0 0.485 0 0 0.49 0 0 0.495 0 0 0.5 0 0 0.505 0 0 0.51 0 0 0.515 0 0 0.52 0 0 0.525 0 0 0.53 0 0 0.535 0 0 0.54 0 0 0.545 0 0 0.55 0 0 0.555 0 0 0.56 0 0 0.565 0 0 0.57 0 0 0.575 0 0 0.58 0 0 0.585 0 0 0.59 0 0 0.595 0 0 0.6 0 0 0.605 0 0 0.61 0 0 0.615 0 0 0.62 0 0 0.625 0 0 0.63 0 0 0.635 0 0 0.64 0 0 0.645 0 0 0.65 0 0 0.655 0 0 0.66 0 0 0.665 0 0 0.67 0 0 0.675 0 0 0.68 0 0 0.685 0 0 0.69 0 0 0.695 0 0 0.7 0 0 0.705 0 0 0.71 0 0 0.715 0 0 0.72 0 0 0.725 0 0 0.73 0 0 0.735 0 0 0.74 0 0 0.745 0 0 0.75 0 0 0.755 0 0 0.76 0 0 0.765 0 0 0.77 0 0 0.775 0 0 0.78 0 0 0.785 0 0 0.79 0 0 0.795 0 0 0.8 0 0 0.805 0 0 0.81 0 0 0.815 0 0 0.82 0 0 0.825 0 0 0.83 0 0 0.835 0 0 0.84 0 0 0.845 0 0 0.85 0 0 0.855 0 0 0.86 0 0 0.865 0 0 0.87 0 0 0.875 0 0 0.88 0 0 0.885 0 0 0.89 0 0 0.895 0 0 0.9 0 0 0.905 0 0 0.91 0 0 0.915 0 0 0.92 0 0 0.925 0 0 0.93 0 0 0.935 0 0 0.94 0 0 0.945 0 0 0.95 0 0 0.955 0 0 0.96 0 0 0.965 0 0 0.97 0 0 0.975 0 0 0.98 0 0 0.985 0 0 0.99 0 0 0.995 0 0 1 0 0 0 0.02 0 0.005 0.02 0 0.01 0.02 0 0.015 0.02 0 0.02 0.02 0 0.025 0.02 0 0.03 0.02 0 0.035 0.02 0 0.04 0.02 0 0.045 0.02 0 0.05 0.02 0 0.055 0.02 0 0.06 0.02 0 0.065 0.02 0 0.07 0.02 0 0.075 0.02 0 0.08 0.02 0 0.085 0.02 0 0.09 0.02 0 0.095 0.02 0 0.1 0.02 0 0.105 0.02 0 0.11 0.02 0 0.115 0.02 0 0.12 0.02 0 0.125 0.02 0 0.13 0.02 0 0.135 0.02 0 0.14 0.02 0 0.145 0.02 0 0.15 0.02 0 0.155 0.02 0 0.16 0.02 0 0.165 0.02 0 0.17 0.02 0 0.175 0.02 0 0.18 0.02 0 0.185 0.02 0 0.19 0.02 0 0.195 0.02 0 0.2 0.02 0 0.205 0.02 0 0.21 0.02 0 0.215 0.02 0 0.22 0.02 0 0.225 0.02 0 0.23 0.02 0 0.235 0.02 0 0.24 0.02 0 0.245 0.02 0 0.25 0.02 0 0.255 0.02 0 0.26 0.02 0 0.265 0.02 0 0.27 0.02 0 0.275 0.02 0 0.28 0.02 0 0.285 0.02 0 0.29 0.02 0 0.295 0.02 0 0.3 0.02 0 0.305 0.02 0 0.31 0.02 0 0.315 0.02 0 0.32 0.02 0 0.325 0.02 0 0.33 0.02 0 0.335 0.02 0 0.34 0.02 0 0.345 0.02 0 0.35 0.02 0 0.355 0.02 0 0.36 0.02 0 0.365 0.02 0 0.37 0.02 0 0.375 0.02 0 0.38 0.02 0 0.385 0.02 0 0.39 0.02 0 0.395 0.02 0 0.4 0.02 0 0.405 0.02 0 0.41 0.02 0 0.415 0.02 0 0.42 0.02 0 0.425 0.02 0 0.43 0.02 0 0.435 0.02 0 0.44 0.02 0 0.445 0.02 0 0.45 0.02 0 0.455 0.02 0 0.46 0.02 0 0.465 0.02 0 0.47 0.02 0 0.475 0.02 0 0.48 0.02 0 0.485 0.02 0 0.49 0.02 0 0.495 0.02 0 0.5 0.02 0 0.505 0.02 0 0.51 0.02 0 0.515 0.02 0 0.52 0.02 0 0.525 0.02 0 0.53 0.02 0 0.535 0.02 0 0.54 0.02 0 0.545 0.02 0 0.55 0.02 0 0.555 0.02 0 0.56 0.02 0 0.565 0.02 0 0.57 0.02 0 0.575 0.02 0 0.58 0.02 0 0.585 0.02 0 0.59 0.02 0 0.595 0.02 0 0.6 0.02 0 0.605 0.02 0 0.61 0.02 0 0.615 0.02 0 0.62 0.02 0 0.625 0.02 0 0.63 0.02 0 0.635 0.02 0 0.64 0.02 0 0.645 0.02 0 0.65 0.02 0 0.655 0.02 0 0.66 0.02 0 0.665 0.02 0 0.67 0.02 0 0.675 0.02 0 0.68 0.02 0 0.685 0.02 0 0.69 0.02 0 0.695 0.02 0 0.7 0.02 0 0.705 0.02 0 0.71 0.02 0 0.715 0.02 0 0.72 0.02 0 0.725 0.02 0 0.73 0.02 0 0.735 0.02 0 0.74 0.02 0 0.745 0.02 0 0.75 0.02 0 0.755 0.02 0 0.76 0.02 0 0.765 0.02 0 0.77 0.02 0 0.775 0.02 0 0.78 0.02 0 0.785 0.02 0 0.79 0.02 0 0.795 0.02 0 0.8 0.02 0 0.805 0.02 0 0.81 0.02 0 0.815 0.02 0 0.82 0.02 0 0.825 0.02 0 0.83 0.02 0 0.835 0.02 0 0.84 0.02 0 0.845 0.02 0 0.85 0.02 0 0.855 0.02 0 0.86 0.02 0 0.865 0.02 0 0.87 0.02 0 0.875 0.02 0 0.88 0.02 0 0.885 0.02 0 0.89 0.02 0 0.895 0.02 0 0.9 0.02 0 0.905 0.02 0 0.91 0.02 0 0.915 0.02 0 0.92 0.02 0 0.925 0.02 0 0.93 0.02 0 0.935 0.02 0 0.94 0.02 0 0.945 0.02 0 0.95 0.02 0 0.955 0.02 0 0.96 0.02 0 0.965 0.02 0 0.97 0.02 0 0.975 0.02 0 0.98 0.02 0 0.985 0.02 0 0.99 0.02 0 0.995 0.02 0 1 0.02 0 0 0.04 0 0.005 0.04 0 0.01 0.04 0 0.015 0.04 0 0.02 0.04 0 0.025 0.04 0 0.03 0.04 0 0.035 0.04 0 0.04 0.04 0 0.045 0.04 0 0.05 0.04 0 0.055 0.04 0 0.06 0.04 0 0.065 0.04 0 0.07 0.04 0 0.075 0.04 0 0.08 0.04 0 0.085 0.04 0 0.09 0.04 0 0.095 0.04 0 0.1 0.04 0 0.105 0.04 0 0.11 0.04 0 0.115 0.04 0 0.12 0.04 0 0.125 0.04 0 0.13 0.04 0 0.135 0.04 0 0.14 0.04 0 0.145 0.04 0 0.15 0.04 0 0.155 0.04 0 0.16 0.04 0 0.165 0.04 0 0.17 0.04 0 0.175 0.04 0 0.18 0.04 0 0.185 0.04 0 0.19 0.04 0 0.195 0.04 0 0.2 0.04 0 0.205 0.04 0 0.21 0.04 0 0.215 0.04 0 0.22 0.04 0 0.225 0.04 0 0.23 0.04 0 0.235 0.04 0 0.24 0.04 0 0.245 0.04 0 0.25 0.04 0 0.255 0.04 0 0.26 0.04 0 0.265 0.04 0 0.27 0.04 0 0.275 0.04 0 0.28 0.04 0 0.285 0.04 0 0.29 0.04 0 0.295 0.04 0 0.3 0.04 0 0.305 0.04 0 0.31 0.04 0 0.315 0.04 0 0.32 0.04 0 0.325 0.04 0 0.33 0.04 0 0.335 0.04 0 0.34 0.04 0 0.345 0.04 0 0.35 0.04 0 0.355 0.04 0 0.36 0.04 0 0.365 0.04 0 0.37 0.04 0 0.375 0.04 0 0.38 0.04 0 0.385 0.04 0 0.39 0.04 0 0.395 0.04 0 0.4 0.04 0 0.405 0.04 0 0.41 0.04 0 0.415 0.04 0 0.42 0.04 0 0.425 0.04 0 0.43 0.04 0 0.435 0.04 0 0.44 0.04 0 0.445 0.04 0 0.45 0.04 0 0.455 0.04 0 0.46 0.04 0 0.465 0.04 0 0.47 0.04 0 0.475 0.04 0 0.48 0.04 0 0.485 0.04 0 0.49 0.04 0 0.495 0.04 0 0.5 0.04 0 0.505 0.04 0 0.51 0.04 0 0.515 0.04 0 0.52 0.04 0 0.525 0.04 0 0.53 0.04 0 0.535 0.04 0 0.54 0.04 0 0.545 0.04 0 0.55 0.04 0 0.555 0.04 0 0.56 0.04 0 0.565 0.04 0 0.57 0.04 0 0.575 0.04 0 0.58 0.04 0 0.585 0.04 0 0.59 0.04 0 0.595 0.04 0 0.6 0.04 0 0.605 0.04 0 0.61 0.04 0 0.615 0.04 0 0.62 0.04 0 0.625 0.04 0 0.63 0.04 0 0.635 0.04 0 0.64 0.04 0 0.645 0.04 0 0.65 0.04 0 0.655 0.04 0 0.66 0.04 0 0.665 0.04 0 0.67 0.04 0 0.675 0.04 0 0.68 0.04 0 0.685 0.04 0 0.69 0.04 0 0.695 0.04 0 0.7 0.04 0 0.705 0.04 0 0.71 0.04 0 0.715 0.04 0 0.72 0.04 0 0.725 0.04 0 0.73 0.04 0 0.735 0.04 0 0.74 0.04 0 0.745 0.04 0 0.75 0.04 0 0.755 0.04 0 0.76 0.04 0 0.765 0.04 0 0.77 0.04 0 0.775 0.04 0 0.78 0.04 0 0.785 0.04 0 0.79 0.04 0 0.795 0.04 0 0.8 0.04 0 0.805 0.04 0 0.81 0.04 0 0.815 0.04 0 0.82 0.04 0 0.825 0.04 0 0.83 0.04 0 0.835 0.04 0 0.84 0.04 0 0.845 0.04 0 0.85 0.04 0 0.855 0.04 0 0.86 0.04 0 0.865 0.04 0 0.87 0.04 0 0.875 0.04 0 0.88 0.04 0 0.885 0.04 0 0.89 0.04 0 0.895 0.04 0 0.9 0.04 0 0.905 0.04 0 0.91 0.04 0 0.915 0.04 0 0.92 0.04 0 0.925 0.04 0 0.93 0.04 0 0.935 0.04 0 0.94 0.04 0 0.945 0.04 0 0.95 0.04 0 0.955 0.04 0 0.96 0.04 0 0.965 0.04 0 0.97 0.04 0 0.975 0.04 0 0.98 0.04 0 0.985 0.04 0 0.99 0.04 0 0.995 0.04 0 1 0.04 0 0 0.06 0 0.005 0.06 0 0.01 0.06 0 0.015 0.06 0 0.02 0.06 0 0.025 0.06 0 0.03 0.06 0 0.035 0.06 0 0.04 0.06 0 0.045 0.06 0 0.05 0.06 0 0.055 0.06 0 0.06 0.06 0 0.065 0.06 0 0.07 0.06 0 0.075 0.06 0 0.08 0.06 0 0.085 0.06 0 0.09 0.06 0 0.095 0.06 0 0.1 0.06 0 0.105 0.06 0 0.11 0.06 0 0.115 0.06 0 0.12 0.06 0 0.125 0.06 0 0.13 0.06 0 0.135 0.06 0 0.14 0.06 0 0.145 0.06 0 0.15 0.06 0 0.155 0.06 0 0.16 0.06 0 0.165 0.06 0 0.17 0.06 0 0.175 0.06 0 0.18 0.06 0 0.185 0.06 0 0.19 0.06 0 0.195 0.06 0 0.2 0.06 0 0.205 0.06 0 0.21 0.06 0 0.215 0.06 0 0.22 0.06 0 0.225 0.06 0 0.23 0.06 0 0.235 0.06 0 0.24 0.06 0 0.245 0.06 0 0.25 0.06 0 0.255 0.06 0 0.26 0.06 0 0.265 0.06 0 0.27 0.06 0 0.275 0.06 0 0.28 0.06 0 0.285 0.06 0 0.29 0.06 0 0.295 0.06 0 0.3 0.06 0 0.305 0.06 0 0.31 0.06 0 0.315 0.06 0 0.32 0.06 0 0.325 0.06 0 0.33 0.06 0 0.335 0.06 0 0.34 0.06 0 0.345 0.06 0 0.35 0.06 0 0.355 0.06 0 0.36 0.06 0 0.365 0.06 0 0.37 0.06 0 0.375 0.06 0 0.38 0.06 0 0.385 0.06 0 0.39 0.06 0 0.395 0.06 0 0.4 0.06 0 0.405 0.06 0 0.41 0.06 0 0.415 0.06 0 0.42 0.06 0 0.425 0.06 0 0.43 0.06 0 0.435 0.06 0 0.44 0.06 0 0.445 0.06 0 0.45 0.06 0 0.455 0.06 0 0.46 0.06 0 0.465 0.06 0 0.47 0.06 0 0.475 0.06 0 0.48 0.06 0 0.485 0.06 0 0.49 0.06 0 0.495 0.06 0 0.5 0.06 0 0.505 0.06 0 0.51 0.06 0 0.515 0.06 0 0.52 0.06 0 0.525 0.06 0 0.53 0.06 0 0.535 0.06 0 0.54 0.06 0 0.545 0.06 0 0.55 0.06 0 0.555 0.06 0 0.56 0.06 0 0.565 0.06 0 0.57 0.06 0 0.575 0.06 0 0.58 0.06 0 0.585 0.06 0 0.59 0.06 0 0.595 0.06 0 0.6 0.06 0 0.605 0.06 0 0.61 0.06 0 0.615 0.06 0 0.62 0.06 0 0.625 0.06 0 0.63 0.06 0 0.635 0.06 0 0.64 0.06 0 0.645 0.06 0 0.65 0.06 0 0.655 0.06 0 0.66 0.06 0 0.665 0.06 0 0.67 0.06 0 0.675 0.06 0 0.68 0.06 0 0.685 0.06 0 0.69 0.06 0 0.695 0.06 0 0.7 0.06 0 0.705 0.06 0 0.71 0.06 0 0.715 0.06 0 0.72 0.06 0 0.725 0.06 0 0.73 0.06 0 0.735 0.06 0 0.74 0.06 0 0.745 0.06 0 0.75 0.06 0 0.755 0.06 0 0.76 0.06 0 0.765 0.06 0 0.77 0.06 0 0.775 0.06 0 0.78 0.06 0 0.785 0.06 0 0.79 0.06 0 0.795 0.06 0 0.8 0.06 0 0.805 0.06 0 0.81 0.06 0 0.815 0.06 0 0.82 0.06 0 0.825 0.06 0 0.83 0.06 0 0.835 0.06 0 0.84 0.06 0 0.845 0.06 0 0.85 0.06 0 0.855 0.06 0 0.86 0.06 0 0.865 0.06 0 0.87 0.06 0 0.875 0.06 0 0.88 0.06 0 0.885 0.06 0 0.89 0.06 0 0.895 0.06 0 0.9 0.06 0 0.905 0.06 0 0.91 0.06 0 0.915 0.06 0 0.92 0.06 0 0.925 0.06 0 0.93 0.06 0 0.935 0.06 0 0.94 0.06 0 0.945 0.06 0 0.95 0.06 0 0.955 0.06 0 0.96 0.06 0 0.965 0.06 0 0.97 0.06 0 0.975 0.06 0 0.98 0.06 0 0.985 0.06 0 0.99 0.06 0 0.995 0.06 0 1 0.06 0 0 0.08 0 0.005 0.08 0 0.01 0.08 0 0.015 0.08 0 0.02 0.08 0 0.025 0.08 0 0.03 0.08 0 0.035 0.08 0 0.04 0.08 0 0.045 0.08 0 0.05 0.08 0 0.055 0.08 0 0.06 0.08 0 0.065 0.08 0 0.07 0.08 0 0.075 0.08 0 0.08 0.08 0 0.085 0.08 0 0.09 0.08 0 0.095 0.08 0 0.1 0.08 0 0.105 0.08 0 0.11 0.08 0 0.115 0.08 0 0.12 0.08 0 0.125 0.08 0 0.13 0.08 0 0.135 0.08 0 0.14 0.08 0 0.145 0.08 0 0.15 0.08 0 0.155 0.08 0 0.16 0.08 0 0.165 0.08 0
[...]
			<PointData Scalars="VitesseX">
				<DataArray Name="VitesseX" type="Float32" format="ascii">
 0 3.20615e-14 -2.64285e-15 7.00428e-14 -4.0441e-14 -3.34369e-14 2.89548e-14 -7.5805e-15 -8.36986e-15 2.85281e-15 -1.42435e-14 -1.22763e-13 6.26855e-14 -1.79285e-13 2.06761e-14 -1.19035e-14 -6.72629e-14 -5.99703e-14 1.49399e-14 -1.17986e-13 -1.41845e-13 -9.10271e-14 -1.2755e-13 -8.2145e-14 -8.56051e-14 -1.1298e-13 -1.09983e-13 -6.08191e-14 -1.46921e-13 -2.8832e-14 -3.82965e-14 5.84074e-14 -1.195e-13 -6.96592e-14 -9.25447e-15 -8.999e-14 7.40149e-14 -2.63377e-13 6.2462e-14 -5.02022e-13 -1.89295e-13 -2.36739e-13 -3.16304e-13 1.28724e-13 6.56781e-14 -8.82027e-14 2.30566e-13 -2.96495e-13 1.51585e-13 -1.57518e-13 5.80347e-14 -9.728e-14 -3.82351e-13 2.53933e-13 -3.15426e-13 -2.16468e-13 1.14607e-13 -5.28691e-13 2.82925e-13 6.25805e-14 -5.80448e-14 -1.37438e-13 -1.28157e-13 1.22537e-13 -1.68897e-13 -6.21986e-14 -1.98212e-13 -2.35841e-13 2.26124e-14 7.18331e-13 7.92125e-12 8.71629e-11 8.74236e-10 8.08066e-09 6.80437e-08 5.19334e-07 3.56777e-06 2.1882e-05 0.000118626 0.000561371 0.00228256 0.0078193 0.0220806 0.0505234 0.0937587 0.145502 0.199018 0.25187 0.303846 0.354944 0.405134 0.454362 0.50254 0.549539 0.595181 0.639234 0.681403 0.721331 0.758604 0.792765 0.823353 0.849954 0.872276 0.890221 0.903939 0.913836 0.920517 0.924694 0.927068 0.928247 0.928707 0.928739 0.928616 0.928376 0.927988 0.927347 0.926208 0.924095 0.920155 0.912965 0.90032 0.879076 0.8452 0.794196 0.7221 0.627113 0.511689 0.384305 0.259266 0.153001 0.0773513 0.0335903 0.0129883 0.00468427 0.0016256 0.000550602 0.000182942 5.97072e-05 1.9142e-05 6.02609e-06 1.86198e-06 5.6445e-07 1.67817e-07 4.89192e-08 1.39789e-08 3.91511e-09 1.07404e-09 2.89253e-10 7.59213e-11 1.97809e-11 4.23525e-12 3.38573e-13 2.80602e-13 -3.54995e-13 3.22202e-13 -9.02785e-13 7.51034e-14 2.93716e-13 2.44578e-13 5.37163e-13 -1.30406e-12 7.64786e-14 -1.61375e-13 2.33455e-13 1.08129e-12 -5.46635e-13 -1.15097e-12 4.28539e-13 -3.04543e-13 3.04272e-13 6.30281e-13 -6.42651e-13 -9.98332e-14 -7.3227e-13 -1.32858e-13 1.80074e-13 7.70514e-14 -6.05001e-13 -7.68572e-13 -1.52919e-13 7.11592e-13 4.62162e-13 2.85785e-13 -9.83521e-13 6.65214e-13 -2.53578e-13 2.63895e-13 -6.76649e-13 -5.21688e-13 -5.19722e-13 3.35916e-13 -6.387e-13 -4.90099e-13 -1.29297e-13 3.80864e-13 -4.86647e-14 -1.10464e-12 2.13846e-14 6.93454e-13 7.2276e-13 0 0 -7.7345e-15 2.30562e-14 -2.69564e-14 5.38061e-14 2.90133e-14 3.14693e-15 -1.29201e-14 -2.37652e-14 -1.62556e-14 -6.97074e-14 9.77837e-15 -1.4304e-13 3.69596e-14 -8.61407e-14 -1.28956e-14 1.10979e-14 -7.79475e-14 -8.27335e-14 -3.0563e-14 -6.61782e-14 -1.20797e-13 -9.43168e-14 -1.20897e-13 -1.11214e-13 -5.7162e-15 -1.34806e-13 -1.49415e-13 1.86952e-14 -1.70012e-14 -6.92326e-14 -1.47576e-13 -1.85014e-14 1.13235e-15 -7.9991e-14 -5.6504e-15 -2.48551e-13 1.91139e-14 -3.16675e-13 5.80272e-14 -2.61216e-13 -2.11529e-13 -1.84495e-14 -1.59477e-13 -2.23279e-14 4.34973e-14 -8.97014e-14 1.99757e-13 -8.87555e-14 1.54644e-13 -1.43916e-13 -3.54203e-13 1.66864e-13 -4.60317e-13 -3.66194e-14 -9.30318e-14 -3.51826e-13 2.12228e-13 -1.5374e-13 -7.07261e-15 5.05798e-14 -7.50484e-14 -7.48877e-15 -1.43125e-13 -8.30127e-14 -1.75067e-13 -1.39421e-13 9.9228e-14 -1.01687e-13 7.04077e-13 8.13171e-12 8.66782e-11 8.75121e-10 8.0797e-09 6.80448e-08 5.19333e-07 3.56777e-06 2.1882e-05 0.000118626 0.000561371 0.00228256 0.0078193 0.0220806 0.0505234 0.0937587 0.145502 0.199018 0.25187 0.303846 0.354944 0.405134 0.454362 0.50254 0.549539 0.595181 0.639234 0.681403 0.721331 0.758604 0.792765 0.823353 0.849954 0.872276 0.890221 0.903939 0.913836 0.920517 0.924694 0.927068 0.928247 0.928707 0.928739 0.928616 0.928376 0.927988 0.927347 0.926208 0.924095 0.920155 0.912965 0.90032 0.879076 0.8452 0.794196 0.7221 0.627113 0.511689 0.384305 0.259266 0.153001 0.0773513 0.0335903 0.0129883 0.00468427 0.0016256 0.000550602 0.000182942 5.97072e-05 1.9142e-05 6.02609e-06 1.86198e-06 5.6445e-07 1.67816e-07 4.89194e-08 1.39786e-08 3.91492e-09 1.075e-09 2.88688e-10 7.61207e-11 1.89921e-11 4.75718e-12 1.36574e-12 -6.73279e-13 -2.35681e-14 -7.67395e-13 4.4615e-13 5.7816e-14 -2.45718e-13 -1.42556e-13 -6.8603e-13 4.80894e-13 -5.82377e-15 -2.48794e-13 -2.9832e-13 -7.14723e-13 5.21349e-13 3.03832e-13 -2.04173e-13 2.92269e-13 -6.00747e-13 -3.62283e-13 3.88412e-13 -1.89232e-13 1.35805e-13 -4.08004e-13 -3.90035e-13 -7.37839e-13 -6.27886e-14 4.97e-13 -1.79913e-13 3.74509e-14 2.51863e-13 -2.55695e-13 7.03824e-13 -3.16686e-13 -2.14012e-13 -4.59664e-13 4.90745e-13 -1.60285e-13 -2.96072e-14 -4.83852e-13 -2.21583e-13 -2.79228e-13 -1.61192e-13 -8.99758e-13 -7.72749e-14 7.55498e-13 4.39787e-13 -4.01017e-13 -9.96354e-13 0 0 -6.30239e-15 -1.09992e-14 2.64342e-14 3.69975e-14 2.25583e-14 2.55061e-14 -1.50853e-14 1.55746e-14 -3.74863e-14 5.88868e-15 -9.97942e-14 -4.48146e-14 -6.6557e-14 -3.13752e-14 -2.77912e-14 -4.14645e-14 -1.20873e-15 -1.04034e-13 -7.96161e-14 -8.41137e-14 -2.86465e-14 -9.57258e-14 -2.113e-14 -6.8911e-14 -8.63008e-14 -2.60223e-14 -2.01389e-14 -1.3146e-13 -1.44286e-13 -1.92278e-14 -5.00684e-14 -6.72741e-14 -8.00384e-14 -6.76547e-14 -1.94944e-13 5.9278e-14 -1.49131e-13 -1.20023e-13 -1.80396e-13 -1.16237e-13 -7.12325e-14 -9.63712e-14 6.94468e-16 -1.06983e-13 1.08047e-13 7.8528e-14 -1.88312e-13 -5.60959e-14 -2.25701e-13 -5.62447e-14 -4.09027e-14 -1.11536e-13 4.41105e-14 -3.37612e-13 -1.56902e-13 1.77671e-14 -1.94889e-13 1.04146e-13 1.97042e-14 1.10993e-13 3.4296e-14 -1.2912e-13 -8.52671e-14 -1.36678e-13 -1.16832e-13 -7.7482e-14 -3.74478e-13 1.3142e-13 7.3263e-13 8.07744e-12 8.72462e-11 8.7493e-10 8.08016e-09 6.80441e-08 5.19333e-07 3.56777e-06 2.1882e-05 0.000118626 0.000561371 0.00228256 0.0078193 0.0220806 0.0505234 0.0937587 0.145502 0.199018 0.25187 0.303846 0.354944 0.405134 0.454362 0.50254 0.549539 0.595181 0.639234 0.681403 0.721331 0.758604 0.792765 0.823353 0.849954 0.872276 0.890221 0.903939 0.913836 0.920517 0.924694 0.927068 0.928247 0.928707 0.928739 0.928616 0.928376 0.927988 0.927347 0.926208 0.924095 0.920155 0.912965 0.90032 0.879076 0.8452 0.794196 0.7221 0.627113 0.511689 0.384305 0.259266 0.153001 0.0773513 0.0335903 0.0129883 0.00468427 0.0016256 0.000550602 0.000182942 5.97072e-05 1.9142e-05 6.02609e-06 1.86198e-06 5.6445e-07 1.67817e-07 4.8919e-08 1.39789e-08 3.91487e-09 1.07431e-09 2.89043e-10 7.59494e-11 1.9549e-11 4.76007e-12 5.98663e-13 1.16267e-13 -6.9246e-13 -2.43572e-14 -1.2597e-13 -1.90876e-13 -1.99724e-13 -2.38354e-13 -2.29968e-13 -3.8379e-14 -3.94636e-13 -3.88643e-13 9.76816e-14 -3.4792e-13 -4.57596e-13 -1.52977e-13 4.3394e-13 -2.80487e-13 -1.33586e-13 6.50126e-14 8.68282e-14 -1.0126e-13 1.55971e-13 -1.09978e-13 -9.68549e-13 -1.18685e-13 -3.47412e-13 -1.53516e-13 6.89235e-13 2.33884e-13 -5.94791e-13 4.78158e-13 -2.75052e-13 4.79814e-13 -1.51238e-14 2.1413e-13 -5.78369e-13 5.63333e-13 -1.90212e-13 6.18504e-14 -7.31057e-13 -3.17108e-13 -4.49493e-13 3.876e-14 2.62329e-13 -5.73089e-14 2.7154e-13 2.59422e-13 -9.52794e-15 0 0 4.18417e-14 2.95425e-14 4.23267e-14 -1.73641e-14 7.0347e-15 3.33354e-14 -4.20565e-14 -2.77728e-15 -4.73413e-14 2.15547e-14 -3.05244e-14 7.99435e-15 -1.17597e-13 -4.13198e-14 2.31826e-14 -5.43615e-14 -8.65316e-14 -7.11169e-14 -1.42834e-13 -5.5182e-14 -4.56812e-14 -5.48832e-14 -3.33238e-14 -2.72429e-14 -1.06118e-14 5.38765e-14 -1.30363e-13 -1.07305e-13 -7.38913e-14 -4.4222e-15 -9.68655e-14 -1.133e-13 -1.82804e-13 -1.0832e-13 -7.66085e-14 4.50966e-15 -1.40238e-13 -9.31457e-14 -2.98698e-13 -4.03038e-14 -1.85143e-13 1.12602e-14 4.27692e-14 7.74343e-14 -1.06079e-14 -1.67547e-13 -1.59157e-13 1.01801e-13 -1.46966e-13 -5.60803e-14 -1.43842e-13 -3.60875e-13 7.04477e-14 -1.6469e-13 -1.06463e-13 -1.16568e-13 -4.56744e-14 1.52695e-13 1.55045e-13 -1.03428e-13 -3.54743e-14 7.85304e-14 -1.24519e-13 -1.29889e-13 -2.61272e-13 -3.11223e-13 -1.00742e-13 4.50391e-14 6.47596e-13 8.08962e-12 8.73169e-11 8.74936e-10 8.08041e-09 6.80441e-08 5.19334e-07 3.56777e-06 2.1882e-05 0.000118626 0.000561371 0.00228256 0.0078193 0.0220806 0.0505234 0.0937587 0.145502 0.199018 0.25187 0.303846 0.354944 0.405134 0.454362 0.50254 0.549539 0.595181 0.639234 0.681403 0.721331 0.758604 0.792765 0.823353 0.849954 0.872276 0.890221 0.903939 0.913836 0.920517 0.924694 0.927068 0.928247 0.928707 0.928739 0.928616 0.928376 0.927988 0.927347 0.926208 0.924095 0.920155 0.912965 0.90032 0.879076 0.8452 0.794196 0.7221 0.627113 0.511689 0.384305 0.259266 0.153001 0.0773513 0.0335903 0.0129883 0.00468427 0.0016256 0.000550602 0.000182942 5.97072e-05 1.9142e-05 6.02609e-06 1.86198e-06 5.6445e-07 1.67817e-07 4.89194e-08 1.39787e-08 3.91474e-09 1.07422e-09 2.88717e-10 7.59632e-11 1.93424e-11 4.67762e-12 6.5819e-13 3.39463e-13 -2.82678e-13 1.72227e-13 -8.52108e-13 9.01677e-14 4.81923e-15 -5.26159e-14 2.53495e-13 -7.10912e-13 -1.06481e-13 -3.07856e-13 -4.98916e-13 -9.80054e-14 -2.81545e-13 -5.27731e-13 1.8773e-13 2.46469e-13 5.26395e-13 1.9355e-13 -9.56535e-13 -2.08443e-13 -3.28195e-13 2.19333e-13 -8.83669e-13 -8.5215e-14 -1.62459e-13 -3.71765e-13 7.38863e-14 2.34488e-13 2.6971e-14 3.7413e-13 -2.99821e-13 2.0182e-13 1.68382e-14 2.0652e-13 -4.60843e-13 2.24744e-14 4.44446e-14 -8.96588e-13 -1.24494e-13 8.36551e-14 -7.43391e-13 2.60244e-13 -1.79573e-13 -3.26206e-13 1.03045e-13 6.32132e-13 7.9116e-13 0 0 1.35046e-14 4.07371e-14 -1.89061e-14 1.53777e-14 7.25502e-15 -1.36745e-14 -4.27949e-14 -4.60036e-14 -1.18712e-14 -5.32977e-14 7.37326e-14 -9.8154e-14 8.98065e-14 -9.09592e-14 -3.53767e-14 -8.17809e-15 -8.35757e-14 -2.78695e-14 -5.18912e-14 -3.45865e-14 -1.098e-13 5.27842e-15 -1.25973e-13 -3.07008e-14 6.82796e-14 -1.29469e-13 -2.10708e-13 9.31969e-15 -8.33295e-14 -9.74214e-14 -1.25686e-13 2.9651e-14 -6.41242e-14 -1.44536e-13 -1.16912e-13 -2.08983e-13 3.8158e-15 -3.38346e-13 -4.19439e-14 -1.80208e-13 -1.14857e-13 1.47852e-13 -9.00222e-14 9.43079e-14 5.08789e-15 -1.33555e-13 2.89639e-13 -5.39705e-14 1.70513e-13 -2.06188e-13 -3.47068e-13 -3.65394e-14 -5.65555e-13 1.11198e-13 -3.19853e-14 -4.8256e-13 5.14882e-13 -1.75618e-13 -5.99527e-14 -1.26696e-13 -1.28549e-13 6.31199e-14 -1.76804e-13 -2.59477e-13 -2.0394e-13 -2.08105e-13 2.02588e-13 1.01038e-13 8.4938e-13 8.32568e-12 8.67915e-11 8.75295e-10 8.08007e-09 6.80448e-08 5.19333e-07 3.56777e-06 2.1882e-05 0.000118626 0.000561371 0.00228256 0.0078193 0.0220806 0.0505234 0.0937587 0.145502 0.199018 0.25187 0.303846 0.354944 0.405134 0.454362 0.50254 0.549539 0.595181 0.639234 0.681403 0.721331 0.758604 0.792765 0.823353 0.849954 0.872276 0.890221 0.903939 0.913836 0.920517 0.924694 0.927068 0.928247 0.928707 0.928739 0.928616 0.928376 0.927988 0.927347 0.926208 0.924095 0.920155 0.912965 0.90032 0.879076 0.8452 0.794196 0.7221 0.627113 0.511689 0.384305 0.259266 0.153001 0.0773513 0.0335903 0.0129883 0.00468427 0.0016256 0.000550602 0.000182942 5.97072e-05 1.9142e-05 6.02609e-06 1.86198e-06 5.6445e-07 1.67816e-07 4.89196e-08 1.39783e-08 3.91487e-09 1.07475e-09 2.88319e-10 7.60019e-11 1.88644e-11 4.6111e-12 1.43445e-12 -6.79651e-13 1.4901e-13 -6.7315e-13 2.72053e-13 7.53357e-14 2.4408e-13 -1.23869e-13 -4.901e-13 1.52479e-13 1.64945e-13 6.28277e-13 -8.47295e-13 -1.30204e-12 3.67513e-13 5.58126e-13 -6.13063e-13 7.20085e-13 9.88225e-15 -4.5759e-13 -1.76408e-13 -6.79764e-13 -2.74214e-13 -4.81652e-13 -5.27827e-13 -6.74468e-13 1.1445e-13 2.25352e-13 -6.25783e-13 -2.75021e-13 6.02421e-13 -9.28437e-14 8.90612e-13 -3.08994e-13 -1.70067e-13 -4.63357e-13 7.30191e-13 -7.40298e-13 1.11777e-13 -8.28925e-13 3.5327e-13 1.69847e-13 -2.68512e-13 -7.70253e-13 -3.21251e-13 9.19546e-13 2.27399e-13 2.24698e-15 -2.29332e-13 0 0 -2.17485e-14 -4.83644e-14 5.43586e-14 -8.57456e-15 -4.59062e-14 -2.03466e-14 -1.33876e-14 -1.61428e-14 3.13315e-14 -1.27561e-14 -1.33394e-13 4.68402e-14 2.84885e-14 3.09284e-14 -1.58813e-13 -8.00209e-14 9.9419e-14 5.88344e-14 -3.42073e-14 -1.36525e-13 -3.49635e-14 -1.00447e-14 -6.79099e-14 -7.91521e-15 -1.16366e-13 -2.59106e-13 3.70447e-14 -2.13981e-13 -3.02278e-13 -1.24285e-13 1.95783e-13 6.8857e-14 5.35951e-15 -5.70128e-14 -5.49184e-13 2.62689e-13 -3.11758e-13 -3.46357e-14 -4.6536e-13 -1.79145e-13 1.84425e-13 -1.98964e-13 1.83484e-13 -6.98841e-14 7.22885e-14 6.35008e-13 -1.7504e-13 -9.46397e-14 -2.83253e-13 -6.68374e-14 1.2287e-13 -2.9048e-13 -9.21746e-15 -3.65634e-13 -1.95253e-13 1.21809e-13 -2.2181e-13 1.4207e-13 -3.13862e-13 1.62463e-14 -1.04899e-13 -4.0224e-13 1.33681e-13 -5.35403e-13 1.68937e-13 1.31902e-13 -5.76594e-13 6.00825e-13 1.179e-12 8.28484e-12 8.7248e-11 8.74571e-10 8.08092e-09 6.80439e-08 5.19334e-07 3.56777e-06 2.1882e-05 0.000118626 0.000561371 0.00228256 0.0078193 0.0220806 0.0505234 0.0937587 0.145502 0.199018 0.25187 0.303846 0.354944 0.405134 0.454362 0.50254 0.549539 0.595181 0.639234 0.681403 0.721331 0.758604 0.792765 0.823353 0.849954 0.872276 0.890221 0.903939 0.913836 0.920517 0.924694 0.927068 0.928247 0.928707 0.928739 0.928616 0.928376 0.927988 0.927347 0.926208 0.924095 0.920155 0.912965 0.90032 0.879076 0.8452 0.794196 0.7221 0.627113 0.511689 0.384305 0.259266 0.153001 0.0773513 0.0335903 0.0129883 0.00468427 0.0016256 0.000550602 0.000182942 5.97072e-05 1.9142e-05 6.02609e-06 1.86198e-06 5.6445e-07 1.67817e-07 4.89189e-08 1.39788e-08 3.91526e-09 1.07374e-09 2.8917e-10 7.56558e-11 1.99386e-11 4.10799e-12 3.56921e-13 -1.78535e-13 -8.29402e-13 1.17523e-13 2.01297e-13 -4.51944e-13 8.64225e-13 -8.95246e-14 -3.79045e-14 -6.15821e-13 -1.58292e-13 1.43119e-12 3.28699e-13 -5.93174e-13 -1.20641e-12 1.07122e-13 1.0318e-13 -5.02822e-13 2.05569e-13 1.82594e-13 3.14436e-13 -8.66532e-13 -5.83976e-13 -9.38775e-13 -2.65269e-13 1.36854e-13 -6.20431e-13 -8.7537e-13 1.86038e-13 8.54396e-14 -8.02452e-14 8.19544e-13 -5.60405e-13 1.23659e-12 -2.29613e-13 2.7173e-13 -4.3281e-13 -5.99997e-13 -7.06267e-13 1.56265e-12 -7.02118e-13 -3.93475e-13 2.43858e-13 1.96906e-13 3.47187e-13 -2.38747e-13 -6.64023e-14 7.54562e-13 6.55428e-13 0
				</DataArray>
				<DataArray Name="VitesseY" type="Float32" format="ascii">