<?xml version="1.0"?>
<VTKFile type="PolyData">
	<PolyData>
		<Piece NumberOfPoints="1206" NumberOfPolys="1000">
			<Points>
				<DataArray type="Float32" NumberOfComponents="3" format="ascii">
 0 0 0 0.005 0 0 0.01 0 0 0.015 0 0 0.02 0 0 0.025 0 0 0.03 0 0 0.035 0 0 0.04 0 0 0.045 0 0 0.05 0 0 0.055 0 0 0.06 0 0 0.065 0 0 0.07 0 0 0.075 0 0 0.08 0 0 0.085 0 0 0.09 0 0 0.095 0 0 0.1 0 0 0.105 0 0 0.11 0 0 0.115 0 0 0.12 0 0 0.125 0 0 0.13 0 0 0.135 0 0 0.14 0 0 0.145 0 0 0.15 0 0 0.155 0 0 0.16 0 0 0.165 0 0 0.17 0 0 0.175 0 0 0.18 0 0 0.185 0 0 0.19 0 0 0.195 0 0 0.2 0 0 0.205 0 0 0.21 0 0 0.215 0 0 0.22 0 0 0.225 0 0 0.23 0 0 0.235 0 0 0.24 0 0 0.245 0 0 0.25 0 0 0.255 0 0 0.26 0 0 0.265 0 0 0.27 0 0 0.275 0 0 0.28 0 0 0.285 0 0 0.29 0 0 0.295 0 0 0.3 0 0 0.305 0 0 0.31 0 0 0.315 0 0 0.32 0 0 0.325 0 0 0.33 0 0 0.335 0 0 0.34 0 0 0.345 0 0 0.35 0 0 0.355 0 0 0.36 0 0 0.365 0 0 0.37 0 0 0.375 0 0 0.38 0 0 0.385 0 0 0.39 0 0 0.395 0 0 0.4 0 0 0.405 0 0 0.41 0 0 0.415 0 0 0.42 0 0 0.425 0 0 0.43 0 0 0.435 0 0 0.44 0 0 0.445 0 0 0.45 0 0 0.455 0 0 0.46 0 0 0.465 0 0 0.47 0 0 0.475 0 0 0.48 0 0 0.485 0 0 0.49 0 0 0.495 0 0 0.5 0 0 0.505 0 0 0.51 0 0 0.515 0 0 0.52 0 0 0.525 0 0 0.53 0 0 0.535 0 0 0.54 0 0 0.545 0 0 0.55 0 0 0.555 0 0 0.56 0 0 0.565 0 0 0.57 0 0 0.575 0 0 0.58 0 0 0.585 0 0 0.59 0 0 0.595 0 0 0.6 0 0 0.605 0 0 0.61 0 0 0.615 0 0 0.62 0 0 0.625 0 0 0.63 0 0 0.635 0 0 0.64 0 0 0.645 0 0 0.65 0 0 0.655 0 0 0.66 0 0 0.665 0 0 0.67 0 0 0.675 0 0 0.68 0 0 0.685 0 0 0.69 0 0 0.695 0 0 0.7 0 0 0.705 0 0 0.71 0 0 0.715 0 0 0.72 0 0 0.725 0 0 0.73 0 0 0.735 0 0 0.74 0 0 0.745 0 0 0.75 0 0 0.755 0 0 0.76 0 0 0.765 0 0 0.77 0 0 0.775 0 0 0.78 0 0 0.785 0 0 0.79 0 0 0.795 0 0 0.8 0 0 0.805 0 0 0.81 0 0 0.815 0 0 0.82 0 0 0.825 0 0 0.83 0 0 0.835 0 0 0.84 0 0 0.845 0 0 0.85 0 0 0.855 0 0 0.86 0 0 0.865 0 0 0.87 0 0 0.875 0 0 0.88 0 0 0.885 0 0 0.89 0 0 0.895 0 0 0.9 0 0 0.905 0 0 0.91 0 0 0.915 0 0 0.92 0 0 0.925 0 0 0.93 0 0 0.935 0 0 0.94 0 0 0.945 0 0 0.95 0 0 0.955 0 0 0.96 0 0 0.965 0 0 0.97 0 0 0.975 0 0 0.98 0 0 0.985 0 0 0.99 0 0 0.995 0 0 1 0 0 0 0.02 0 0.005 0.02 0 0.01 0.02 0 0.015 0.02 0 0.02 0.02 0 0.025 0.02 0 0.03 0.02 0 0.035 0.02 0 0.04 0.02 0 0.045 0.02 0 0.05 0.02 0 0.055 0.02 0 0.06 0.02 0 0.065 0.02 0 0.07 0.02 0 0.075 0.02 0 0.08 0.02 0 0.085 0.02 0 0.09 0.02 0 0.095 0.02 0 0.1 0.02 0 0.105 0.02 0 0.11 0.02 0 0.115 0.02 0 0.12 0.02 0 0.125 0.02 0 0.13 0.02 0 0.135 0.02 0 0.14 0.02 0 0.145 0.02 0 0.15 0.02 0 0.155 0.02 0 0.16 0.02 0 0.165 0.02 0 0.17 0.02 0 0.175 0.02 0 0.18 0.02 0 0.185 0.02 0 0.19 0.02 0 0.195 0.02 0 0.2 0.02 0 0.205 0.02 0 0.21 0.02 0 0.215 0.02 0 0.22 0.02 0 0.225 0.02 0 0.23 0.02 0 0.235 0.02 0 0.24 0.02 0 0.245 0.02 0 0.25 0.02 0 0.255 0.02 0 0.26 0.02 0 0.265 0.02 0 0.27 0.02 0 0.275 0.02 0 0.28 0.02 0 0.285 0.02 0 0.29 0.02 0 0.295 0.02 0 0.3 0.02 0 0.305 0.02 0 0.31 0.02 0 0.315 0.02 0 0.32 0.02 0 0.325 0.02 0 0.33 0.02 0 0.335 0.02 0 0.34 0.02 0 0.345 0.02 0 0.35 0.02 0 0.355 0.02 0 0.36 0.02 0 0.365 0.02 0 0.37 0.02 0 0.375 0.02 0 0.38 0.02 0 0.385 0.02 0 0.39 0.02 0 0.395 0.02 0 0.4 0.02 0 0.405 0.02 0 0.41 0.02 0 0.415 0.02 0 0.42 0.02 0 0.425 0.02 0 0.43 0.02 0 0.435 0.02 0 0.44 0.02 0 0.445 0.02 0 0.45 0.02 0 0.455 0.02 0 0.46 0.02 0 0.465 0.02 0 0.47 0.02 0 0.475 0.02 0 0.48 0.02 0 0.485 0.02 0 0.49 0.02 0 0.495 0.02 0 0.5 0.02 0 0.505 0.02 0 0.51 0.02 0 0.515 0.02 0 0.52 0.02 0 0.525 0.02 0 0.53 0.02 0 0.535 0.02 0 0.54 0.02 0 0.545 0.02 0 0.55 0.02 0 0.555 0.02 0 0.56 0.02 0 0.565 0.02 0 0.57 0.02 0 0.575 0.02 0 0.58 0.02 0 0.585 0.02 0 0.59 0.02 0 0.595 0.02 0 0.6 0.02 0 0.605 0.02 0 0.61 0.02 0 0.615 0.02 0 0.62 0.02 0 0.625 0.02 0 0.63 0.02 0 0.635 0.02 0 0.64 0.02 0 0.645 0.02 0 0.65 0.02 0 0.655 0.02 0 0.66 0.02 0 0.665 0.02 0 0.67 0.02 0 0.675 0.02 0 0.68 0.02 0 0.685 0.02 0 0.69 0.02 0 0.695 0.02 0 0.7 0.02 0 0.705 0.02 0 0.71 0.02 0 0.715 0.02 0 0.72 0.02 0 0.725 0.02 0 0.73 0.02 0 0.735 0.02 0 0.74 0.02 0 0.745 0.02 0 0.75 0.02 0 0.755 0.02 0 0.76 0.02 0 0.765 0.02 0 0.77 0.02 0 0.775 0.02 0 0.78 0.02 0 0.785 0.02 0 0.79 0.02 0 0.795 0.02 0 0.8 0.02 0 0.805 0.02 0 0.81 0.02 0 0.815 0.02 0 0.82 0.02 0 0.825 0.02 0 0.83 0.02 0 0.835 0.02 0 0.84 0.02 0 0.845 0.02 0 0.85 0.02 0 0.855 0.02 0 0.86 0.02 0 0.865 0.02 0 0.87 0.02 0 0.875 0.02 0 0.88 0.02 0 0.885 0.02 0 0.89 0.02 0 0.895 0.02 0 0.9 0.02 0 0.905 0.02 0 0.91 0.02 0 0.915 0.02 0 0.92 0.02 0 0.925 0.02 0 0.93 0.02 0 0.935 0.02 0 0.94 0.02 0 0.945 0.02 0 0.95 0.02 0 0.955 0.02 0 0.96 0.02 0 0.965 0.02 0 0.97 0.02 0 0.975 0.02 0 0.98 0.02 0 0.985 0.02 0 0.99 0.02 0 0.995 0.02 0 1 0.02 0 0 0.04 0 0.005 0.04 0 0.01 0.04 0 0.015 0.04 0 0.02 0.04 0 0.025 0.04 0 0.03 0.04 0 0.035 0.04 0 0.04 0.04 0 0.045 0.04 0 0.05 0.04 0 0.055 0.04 0 0.06 0.04 0 0.065 0.04 0 0.07 0.04 0 0.075 0.04 0 0.08 0.04 0 0.085 0.04 0 0.09 0.04 0 0.095 0.04 0 0.1 0.04 0 0.105 0.04 0 0.11 0.04 0 0.115 0.04 0 0.12 0.04 0 0.125 0.04 0 0.13 0.04 0 0.135 0.04 0 0.14 0.04 0 0.145 0.04 0 0.15 0.04 0 0.155 0.04 0 0.16 0.04 0 0.165 0.04 0 0.17 0.04 0 0.175 0.04 0 0.18 0.04 0 0.185 0.04 0 0.19 0.04 0 0.195 0.04 0 0.2 0.04 0 0.205 0.04 0 0.21 0.04 0 0.215 0.04 0 0.22 0.04 0 0.225 0.04 0 0.23 0.04 0 0.235 0.04 0 0.24 0.04 0 0.245 0.04 0 0.25 0.04 0 0.255 0.04 0 0.26 0.04 0 0.265 0.04 0 0.27 0.04 0 0.275 0.04 0 0.28 0.04 0 0.285 0.04 0 0.29 0.04 0 0.295 0.04 0 0.3 0.04 0 0.305 0.04 0 0.31 0.04 0 0.315 0.04 0 0.32 0.04 0 0.325 0.04 0 0.33 0.04 0 0.335 0.04 0 0.34 0.04 0 0.345 0.04 0 0.35 0.04 0 0.355 0.04 0 0.36 0.04 0 0.365 0.04 0 0.37 0.04 0 0.375 0.04 0 0.38 0.04 0 0.385 0.04 0 0.39 0.04 0 0.395 0.04 0 0.4 0.04 0 0.405 0.04 0 0.41 0.04 0 0.415 0.04 0 0.42 0.04 0 0.425 0.04 0 0.43 0.04 0 0.435 0.04 0 0.44 0.04 0 0.445 0.04 0 0.45 0.04 0 0.455 0.04 0 0.46 0.04 0 0.465 0.04 0 0.47 0.04 0 0.475 0.04 0 0.48 0.04 0 0.485 0.04 0 0.49 0.04 0 0.495 0.04 0 0.5 0.04 0 0.505 0.04 0 0.51 0.04 0 0.515 0.04 0 0.52 0.04 0 0.525 0.04 0 0.53 0.04 0 0.535 0.04 0 0.54 0.04 0 0.545 0.04 0 0.55 0.04 0 0.555 0.04 0 0.56 0.04 0 0.565 0.04 0 0.57 0.04 0 0.575 0.04 0 0.58 0.04 0 0.585 0.04 0 0.59 0.04 0 0.595 0.04 0 0.6 0.04 0 0.605 0.04 0 0.61 0.04 0 0.615 0.04 0 0.62 0.04 0 0.625 0.04 0 0.63 0.04 0 0.635 0.04 0 0.64 0.04 0 0.645 0.04 0 0.65 0.04 0 0.655 0.04 0 0.66 0.04 0 0.665 0.04 0 0.67 0.04 0 0.675 0.04 0 0.68 0.04 0 0.685 0.04 0 0.69 0.04 0 0.695 0.04 0 0.7 0.04 0 0.705 0.04 0 0.71 0.04 0 0.715 0.04 0 0.72 0.04 0 0.725 0.04 0 0.73 0.04 0 0.735 0.04 0 0.74 0.04 0 0.745 0.04 0 0.75 0.04 0 0.755 0.04 0 0.76 0.04 0 0.765 0.04 0 0.77 0.04 0 0.775 0.04 0 0.78 0.04 0 0.785 0.04 0 0.79 0.04 0 0.795 0.04 0 0.8 0.04 0 0.805 0.04 0 0.81 0.04 0 0.815 0.04 0 0.82 0.04 0 0.825 0.04 0 0.83 0.04 0 0.835 0.04 0 0.84 0.04 0 0.845 0.04 0 0.85 0.04 0 0.855 0.04 0 0.86 0.04 0 0.865 0.04 0 0.87 0.04 0 0.875 0.04 0 0.88 0.04 0 0.885 0.04 0 0.89 0.04 0 0.895 0.04 0 0.9 0.04 0 0.905 0.04 0 0.91 0.04 0 0.915 0.04 0 0.92 0.04 0 0.925 0.04 0 0.93 0.04 0 0.935 0.04 0 0.94 0.04 0 0.945 0.04 0 0.95 0.04 0 0.955 0.04 0 0.96 0.04 0 0.965 0.04 0 0.97 0.04 0 0.975 0.04 0 0.98 0.04 0 0.985 0.04 0 0.99 0.04 0 0.995 0.04 0 1 0.04 0 0 0.06 0 0.005 0.06 0 0.01 0.06 0 0.015 0.06 0 0.02 0.06 0 0.025 0.06 0 0.03 0.06 0 0.035 0.06 0 0.04 0.06 0 0.045 0.06 0 0.05 0.06 0 0.055 0.06 0 0.06 0.06 0 0.065 0.06 0 0.07 0.06 0 0.075 0.06 0 0.08 0.06 0 0.085 0.06 0 0.09 0.06 0 0.095 0.06 0 0.1 0.06 0 0.105 0.06 0 0.11 0.06 0 0.115 0.06 0 0.12 0.06 0 0.125 0.06 0 0.13 0.06 0 0.135 0.06 0 0.14 0.06 0 0.145 0.06 0 0.15 0.06 0 0.155 0.06 0 0.16 0.06 0 0.165 0.06 0 0.17 0.06 0 0.175 0.06 0 0.18 0.06 0 0.185 0.06 0 0.19 0.06 0 0.195 0.06 0 0.2 0.06 0 0.205 0.06 0 0.21 0.06 0 0.215 0.06 0 0.22 0.06 0 0.225 0.06 0 0.23 0.06 0 0.235 0.06 0 0.24 0.06 0 0.245 0.06 0 0.25 0.06 0 0.255 0.06 0 0.26 0.06 0 0.265 0.06 0 0.27 0.06 0 0.275 0.06 0 0.28 0.06 0 0.285 0.06 0 0.29 0.06 0 0.295 0.06 0 0.3 0.06 0 0.305 0.06 0 0.31 0.06 0 0.315 0.06 0 0.32 0.06 0 0.325 0.06 0 0.33 0.06 0 0.335 0.06 0 0.34 0.06 0 0.345 0.06 0 0.35 0.06 0 0.355 0.06 0 0.36 0.06 0 0.365 0.06 0 0.37 0.06 0 0.375 0.06 0 0.38 0.06 0 0.385 0.06 0 0.39 0.06 0 0.395 0.06 0 0.4 0.06 0 0.405 0.06 0 0.41 0.06 0 0.415 0.06 0 0.42 0.06 0 0.425 0.06 0 0.43 0.06 0 0.435 0.06 0 0.44 0.06 0 0.445 0.06 0 0.45 0.06 0 0.455 0.06 0 0.46 0.06 0 0.465 0.06 0 0.47 0.06 0 0.475 0.06 0 0.48 0.06 0 0.485 0.06 0 0.49 0.06 0 0.495 0.06 0 0.5 0.06 0 0.505 0.06 0 0.51 0.06 0 0.515 0.06 0 0.52 0.06 0 0.525 0.06 0 0.53 0.06 0 0.535 0.06 0 0.54 0.06 0 0.545 0.06 0 0.55 0.06 0 0.555 0.06 0 0.56 0.06 0 0.565 0.06 0 0.57 0.06 0 0.575 0.06 0 0.58 0.06 0 0.585 0.06 0 0.59 0.06 0 0.595 0.06 0 0.6 0.06 0 0.605 0.06 0 0.61 0.06 0 0.615 0.06 0 0.62 0.06 0 0.625 0.06 0 0.63 0.06 0 0.635 0.06 0 0.64 0.06 0 0.645 0.06 0 0.65 0.06 0 0.655 0.06 0 0.66 0.06 0 0.665 0.06 0 0.67 0.06 0 0.675 0.06 0 0.68 0.06 0 0.685 0.06 0 0.69 0.06 0 0.695 0.06 0 0.7 0.06 0 0.705 0.06 0 0.71 0.06 0 0.715 0.06 0 0.72 0.06 0 0.725 0.06 0 0.73 0.06 0 0.735 0.06 0 0.74 0.06 0 0.745 0.06 0 0.75 0.06 0 0.755 0.06 0 0.76 0.06 0 0.765 0.06 0 0.77 0.06 0 0.775 0.06 0 0.78 0.06 0 0.785 0.06 0 0.79 0.06 0 0.795 0.06 0 0.8 0.06 0 0.805 0.06 0 0.81 0.06 0 0.815 0.06 0 0.82 0.06 0 0.825 0.06 0 0.83 0.06 0 0.835 0.06 0 0.84 0.06 0 0.845 0.06 0 0.85 0.06 0 0.855 0.06 0 0.86 0.06 0 0.865 0.06 0 0.87 0.06 0 0.875 0.06 0 0.88 0.06 0 0.885 0.06 0 0.89 0.06 0 0.895 0.06 0 0.9 0.06 0 0.905 0.06 0 0.91 0.06 0 0.915 0.06 0 0.92 0.06 0 0.925 0.06 0 0.93 0.06 0 0.935 0.06 0 0.94 0.06 0 0.945 0.06 0 0.95 0.06 0 0.955 0.06 0 0.96 0.06 0 0.965 0.06 0 0.97 0.06 0 0.975 0.06 0 0.98 0.06 0 0.985 0.06 0 0.99 0.06 0 0.995 0.06 0 1 0.06 0 0 0.08 0 0.005 0.08 0 0.01 0.08 0 0.015 0.08 0 0.02 0.08 0 0.025 0.08 0 0.03 0.08 0 0.035 0.08 0 0.04 0.08 0 0.045 0.08 0 0.05 0.08 0 0.055 0.08 0 0.06 0.08 0 0.065 0.08 0 0.07 0.08 0 0.075 0.08 0 0.08 0.08 0 0.085 0.08 0 0.09 0.08 0 0.095 0.08 0 0.1 0.08 0 0.105 0.08 0 0.11 0.08 0 0.115 0.08 0 0.12 0.08 0 0.125 0.08 0 0.13 0.08 0 0.135 0.08 0 0.14 0.08 0 0.145 0.08 0 0.15 0.08 0 0.155 0.08 0 0.16 0.08 0 0.165 0.08 0
[...]
			<PointData Scalars="VitesseX">
				<DataArray Name="VitesseX" type="Float32" format="ascii">
 0 -2.07819e-14 -3.53568e-15 -5.78294e-14 -3.87732e-14 -3.35389e-15 3.30431e-14 -5.65079e-14 -5.75913e-14 -9.57274e-14 -5.70699e-14 5.15837e-14 -8.25637e-14 7.86652e-15 -1.15074e-13 -4.40462e-15 -5.11864e-14 -2.49433e-13 -4.18396e-14 2.62173e-14 2.04263e-14 -1.51338e-13 8.05784e-15 1.07075e-13 1.20292e-13 -3.08093e-14 -1.86746e-13 -9.13719e-14 1.24763e-13 2.48328e-14 5.51625e-14 -2.66788e-13 -9.7185e-14 -1.2649e-14 -4.81887e-15 -1.24129e-13 -3.14209e-13 7.03157e-14 -1.18562e-13 2.49174e-13 -7.73084e-14 -6.46279e-14 -1.60551e-13 2.45133e-13 -2.80055e-13 -6.54444e-14 -5.51254e-13 5.48029e-14 -1.34888e-13 3.00165e-13 -1.75779e-13 -5.75212e-13 2.11455e-13 -6.48123e-14 6.31588e-13 4.39452e-15 -3.17522e-13 1.79228e-13 -3.92565e-13 3.50431e-13 -4.61323e-13 -2.20349e-13 1.03449e-14 -3.09274e-13 1.36106e-13 8.26565e-14 -3.66e-13 6.19735e-13 -9.30022e-14 -1.51352e-13 1.01086e-13 -3.99124e-13 3.00169e-13 -6.58985e-13 -2.145e-13 -4.97167e-13 3.37355e-13 4.32449e-14 -4.32886e-13 4.04427e-12 5.53386e-11 8.84355e-10 1.24402e-08 1.54164e-07 1.66506e-06 1.5478e-05 0.000121914 0.000797405 0.00421647 0.0174059 0.0539511 0.122705 0.210822 0.299092 0.382908 0.462826 0.538714 0.610169 0.676416 0.736415 0.788953 0.832898 0.867513 0.892809 0.909753 0.919851 0.925597 0.927582 0.926173 0.920238 0.906507 0.88014 0.835175 0.76591 0.669135 0.54679 0.408267 0.270491 0.153596 0.0724216 0.02829 0.00957234 0.00296917 0.000873467 0.000246997 6.7422e-05 1.77851e-05 4.53483e-06 1.11775e-06 2.66353e-07 6.13725e-08 1.36779e-08 2.94861e-09 6.14606e-10 1.24306e-10 2.47307e-11 4.69219e-12 5.43816e-13 -1.45556e-13 1.72267e-13 -2.22168e-13 2.40379e-13 8.52754e-13 -5.25408e-13 -7.80389e-13 -1.92275e-13 4.94323e-13 4.39668e-13 -7.9349e-13 -3.09331e-13 1.40558e-12 1.5126e-13 6.38965e-13 -4.68404e-13 -6.1696e-13 2.9949e-13 5.975e-13 -1.56249e-13 -1.17553e-12 -9.27285e-13 9.20435e-13 1.4783e-12 -5.4853e-13 -1.60522e-12 -6.34776e-13 1.066e-12 6.84581e-13 -2.00136e-13 -4.99332e-13 6.59347e-13 -8.42909e-13 -1.1511e-13 9.96864e-13 2.3132e-13 4.90891e-13 -8.66846e-13 -5.44393e-13 7.87572e-13 4.89269e-13 5.50407e-14 -1.22378e-12 -1.11298e-12 3.63972e-13 2.35984e-13 -3.87404e-14 -1.05731e-12 -4.67625e-13 8.58886e-13 9.42918e-13 2.69599e-13 -2.1695e-12 1.22576e-13 1.93832e-12 -8.55214e-13 -1.87012e-12 -1.07816e-12 1.40665e-12 1.10876e-12 -1.72638e-12 -2.50472e-12 0 0 8.04793e-15 -3.14627e-14 1.0226e-14 -8.94407e-15 -6.40041e-14 -7.46011e-14 -1.88362e-14 -1.41413e-14 2.98708e-14 -3.62029e-14 -9.89171e-14 1.43983e-14 -5.13548e-14 -7.34354e-15 -8.33018e-14 -8.00101e-14 1.35101e-14 -1.5246e-13 -1.75542e-13 -1.40318e-13 7.56967e-14 9.06247e-14 -6.3884e-14 -2.23518e-14 -7.4055e-14 -1.14787e-14 4.24189e-14 -1.33111e-13 4.85684e-14 -1.36396e-14 8.45383e-15 -8.09202e-14 -7.66469e-14 -2.25563e-13 -1.80387e-13 1.35002e-13 4.35956e-15 -2.43014e-14 -1.72511e-13 -3.01523e-14 -1.50504e-13 -4.05911e-14 -2.99952e-13 1.477e-13 -1.09419e-13 1.26579e-13 -3.8987e-13 -2.46503e-13 -4.49087e-13 1.06391e-13 4.30382e-13 1.07436e-13 2.09366e-14 -3.22053e-13 1.76194e-13 2.08386e-13 -2.2386e-13 1.88502e-13 -3.68614e-13 4.99801e-14 -2.33814e-13 -3.27507e-13 1.15885e-13 -3.10213e-14 1.54797e-14 1.04275e-13 -2.9738e-13 3.28263e-13 8.10992e-14 -1.29889e-13 -2.96808e-14 -5.7573e-13 1.63878e-13 -3.11004e-13 -9.95136e-14 -3.11092e-13 -2.58866e-13 6.79637e-13 3.22794e-12 5.62294e-11 8.84128e-10 1.24392e-08 1.54165e-07 1.66506e-06 1.5478e-05 0.000121914 0.000797405 0.00421647 0.0174059 0.0539511 0.122705 0.210822 0.299092 0.382908 0.462826 0.538714 0.610169 0.676416 0.736415 0.788953 0.832898 0.867513 0.892809 0.909753 0.919851 0.925597 0.927582 0.926173 0.920238 0.906507 0.88014 0.835175 0.76591 0.669135 0.54679 0.408267 0.270491 0.153596 0.0724216 0.02829 0.00957234 0.00296917 0.000873467 0.000246997 6.7422e-05 1.77851e-05 4.53483e-06 1.11775e-06 2.66352e-07 6.13725e-08 1.36768e-08 2.94886e-09 6.15415e-10 1.24209e-10 2.42579e-11 4.22762e-12 8.07502e-13 1.95024e-13 -4.113e-13 2.84029e-13 -2.64752e-14 -2.61101e-13 2.2948e-13 4.66611e-13 -3.73606e-13 -2.8354e-13 -5.74586e-13 5.57322e-13 8.34453e-13 -2.28579e-13 3.00793e-13 -1.94035e-15 5.21827e-13 1.14428e-13 -4.18532e-13 -9.15239e-13 6.8436e-14 5.60233e-13 2.44109e-13 -4.54981e-13 -1.619e-12 3.30569e-13 1.11924e-12 -5.29726e-14 -4.19694e-13 -6.28192e-13 2.22181e-13 6.42181e-13 -6.23437e-13 5.99821e-13 2.24761e-13 -1.62011e-13 1.87335e-14 -2.45613e-13 6.50709e-13 3.3838e-13 -2.57357e-13 -4.36336e-13 -6.4773e-13 3.86666e-13 3.74717e-13 -9.97316e-13 -8.67169e-13 -5.80441e-13 6.33029e-13 1.24385e-13 -2.72037e-13 -4.49939e-13 -6.92827e-13 1.20531e-12 -4.02265e-13 -1.2042e-12 2.93566e-13 6.17583e-13 2.49139e-13 -1.59625e-12 -1.39987e-12 6.17614e-13 7.13468e-13 0 0 -8.06894e-15 1.30778e-14 -8.09325e-15 -4.07631e-14 -3.8082e-14 -1.7624e-14 -3.46142e-14 -2.18346e-14 -2.47076e-14 -1.63238e-14 1.4345e-14 -2.11314e-14 -6.99697e-14 -4.53186e-14 -4.799e-14 -1.37345e-14 -1.13066e-13 -1.22683e-13 -1.4884e-13 -6.4283e-14 1.80085e-14 -4.15746e-14 2.49836e-14 -1.5428e-13 -3.30624e-14 -6.81234e-14 -5.45371e-14 1.0019e-14 7.47699e-14 4.49639e-14 -3.72888e-15 -9.517e-14 -1.55859e-13 -2.48573e-14 -1.82641e-13 2.13133e-14 -7.88872e-14 -7.12523e-14 -3.51286e-14 7.09753e-14 -7.09372e-14 -2.88079e-13 -2.40722e-13 -5.66959e-14 -8.71756e-16 -9.35153e-14 -7.84432e-14 -1.91733e-13 -6.2609e-14 1.60141e-13 2.8342e-13 1.21596e-13 -1.727e-13 -3.02409e-13 1.17609e-14 3.46039e-13 2.49457e-13 -1.63525e-13 -4.72307e-13 -3.89318e-13 -8.02932e-14 5.76311e-14 6.90397e-14 -1.29646e-13 -2.50489e-13 -7.40729e-14 1.34216e-13 3.85437e-13 -4.9537e-14 9.71319e-14 -1.14944e-13 -9.68e-14 -6.3862e-14 -2.21377e-13 -2.79071e-13 -3.78158e-14 1.69787e-13 1.68074e-13 3.43598e-12 5.60924e-11 8.83436e-10 1.2439e-08 1.54165e-07 1.66506e-06 1.5478e-05 0.000121914 0.000797405 0.00421647 0.0174059 0.0539511 0.122705 0.210822 0.299092 0.382908 0.462826 0.538714 0.610169 0.676416 0.736415 0.788953 0.832898 0.867513 0.892809 0.909753 0.919851 0.925597 0.927582 0.926173 0.920238 0.906507 0.88014 0.835175 0.76591 0.669135 0.54679 0.408267 0.270491 0.153596 0.0724216 0.02829 0.00957234 0.00296917 0.000873467 0.000246997 6.7422e-05 1.77851e-05 4.53483e-06 1.11775e-06 2.66353e-07 6.13725e-08 1.36771e-08 2.94869e-09 6.15086e-10 1.24274e-10 2.3877e-11 4.59858e-12 7.85202e-13 7.69154e-14 -3.66907e-13 -6.96374e-13 1.66722e-13 4.42932e-13 -3.06034e-13 2.09819e-13 7.71018e-13 -1.58897e-13 1.64436e-13 -2.24152e-13 -4.33886e-13 7.47103e-13 3.11927e-13 2.49494e-13 -2.41919e-13 3.11915e-13 -4.52582e-13 -4.9941e-13 -4.66691e-13 -4.77672e-13 9.7742e-14 -1.4022e-13 1.79972e-13 -4.21884e-13 1.62217e-13 -2.52706e-13 -4.24395e-13 7.26931e-13 3.72318e-13 -2.30734e-13 7.60974e-14 -6.13814e-13 5.52409e-13 4.06997e-13 -5.86025e-13 4.9473e-13 -7.94818e-14 -7.2623e-14 4.90852e-13 -2.76474e-13 -6.12465e-14 -7.15045e-13 -5.14724e-13 -2.80491e-14 -7.18773e-13 -2.3056e-13 -5.16982e-13 4.89178e-13 -6.94586e-14 -8.26448e-13 3.09601e-13 -3.77387e-13 2.92814e-13 8.46873e-14 -1.04539e-12 2.16022e-13 1.72202e-14 -1.7479e-13 -2.34632e-13 -5.37915e-13 -2.47704e-13 0 0 -1.18703e-14 -1.17591e-14 -6.63256e-14 -4.25705e-14 -9.23348e-16 3.8215e-14 1.29159e-14 -2.49593e-14 -1.47164e-14 -2.28892e-14 8.13285e-15 -2.5424e-14 -8.51074e-14 -1.55109e-13 9.63989e-15 -5.35844e-14 -1.91591e-13 -3.65456e-14 1.04505e-14 -2.33713e-14 -1.4026e-13 -9.10381e-14 -2.35131e-14 1.015e-14 -8.74356e-14 -8.69654e-14 -7.64763e-14 5.27034e-14 1.33324e-13 8.67226e-14 -1.43848e-13 -7.51803e-14 4.85364e-15 2.78177e-15 -1.11446e-13 -2.55042e-13 1.24726e-13 -8.39078e-14 7.40115e-14 -1.5509e-13 -5.01516e-14 -1.69725e-13 7.46896e-16 -3.04659e-13 -7.70336e-14 -3.20399e-13 1.79451e-13 -3.48746e-14 3.01285e-13 -6.78642e-14 -2.73459e-13 3.23265e-13 1.07987e-13 -1.3085e-13 -1.70793e-13 -6.707e-14 9.38469e-14 -2.7733e-13 6.64204e-14 -4.96433e-13 -4.11929e-13 1.05763e-13 -9.98489e-14 -2.53319e-13 6.6253e-14 2.98033e-13 2.81251e-13 2.66276e-13 -1.71235e-13 1.01352e-13 1.31881e-13 1.60588e-13 -3.58722e-13 -1.69215e-13 -3.64935e-13 1.55095e-13 2.68535e-13 1.81944e-13 3.34044e-12 5.55243e-11 8.83765e-10 1.24396e-08 1.54164e-07 1.66506e-06 1.5478e-05 0.000121914 0.000797405 0.00421647 0.0174059 0.0539511 0.122705 0.210822 0.299092 0.382908 0.462826 0.538714 0.610169 0.676416 0.736415 0.788953 0.832898 0.867513 0.892809 0.909753 0.919851 0.925597 0.927582 0.926173 0.920238 0.906507 0.88014 0.835175 0.76591 0.669135 0.54679 0.408267 0.270491 0.153596 0.0724216 0.02829 0.00957234 0.00296917 0.000873467 0.000246997 6.7422e-05 1.77851e-05 4.53483e-06 1.11775e-06 2.66352e-07 6.13726e-08 1.36775e-08 2.9487e-09 6.14825e-10 1.23795e-10 2.43415e-11 4.55468e-12 6.81486e-13 1.1955e-13 -4.11427e-13 -7.02774e-14 2.35955e-13 5.0365e-13 -8.659e-14 6.32976e-14 6.95292e-13 6.18774e-13 2.6267e-13 -4.77827e-13 -7.64442e-14 6.64078e-13 -2.26653e-13 -6.32253e-13 -2.22876e-13 -5.15167e-13 4.84585e-13 5.66138e-13 -7.67068e-13 -1.15522e-12 -1.34348e-12 -4.88354e-14 3.83494e-13 8.4004e-14 -3.8701e-13 -3.07602e-13 -3.33372e-14 2.05336e-13 -6.78008e-13 1.0059e-13 3.07583e-13 2.02441e-13 2.24281e-13 -1.03223e-13 5.99253e-13 9.48122e-13 -1.20647e-12 -5.31913e-13 3.72837e-13 5.29847e-13 3.92874e-13 -6.86902e-13 -1.28864e-12 -5.39442e-13 3.86448e-13 2.5647e-13 -5.83973e-13 5.00488e-13 -4.15913e-13 5.53147e-13 -2.17972e-14 -1.0816e-12 4.6376e-13 7.43037e-13 -2.88217e-13 -5.70064e-13 -3.4662e-13 1.29772e-12 2.43054e-13 -1.29266e-12 -1.75978e-12 0 0 3.37341e-16 -5.03151e-14 -2.56026e-14 5.47018e-15 4.51897e-15 -1.99226e-15 4.32233e-14 3.0824e-14 6.80618e-14 -2.34896e-14 -1.13456e-13 1.80888e-14 -1.32888e-13 -7.7317e-14 -1.30828e-13 -1.43162e-13 4.1314e-14 -8.85842e-14 -1.06791e-13 -1.63437e-13 -3.55533e-14 7.26166e-14 -1.45989e-13 3.71258e-14 -1.17097e-13 6.7842e-14 6.76794e-14 -1.59123e-13 8.88549e-14 2.67919e-14 3.42561e-14 -4.64054e-14 -5.54846e-14 -1.64372e-13 -2.42447e-13 1.76837e-14 1.63943e-13 -5.71038e-14 -7.45316e-14 -1.81039e-13 -1.42684e-13 6.70405e-14 -1.37549e-13 -1.41126e-13 -2.66315e-13 3.6837e-14 -3.56125e-13 -1.65903e-13 -2.56395e-13 1.26558e-13 1.49999e-13 3.51072e-14 1.80203e-13 -3.45999e-13 -3.7109e-15 -9.6233e-14 -2.7048e-13 1.23852e-13 -1.26704e-13 -1.28801e-13 -5.63623e-13 -3.31404e-13 1.36431e-13 4.06465e-14 3.92514e-13 7.01737e-13 -1.62384e-13 3.89923e-13 6.27905e-14 -2.27948e-13 -7.8826e-15 -6.6446e-13 4.97894e-14 -1.31627e-13 -1.76045e-13 -8.8427e-15 9.36716e-14 9.68637e-13 3.06986e-12 5.60455e-11 8.84019e-10 1.24393e-08 1.54165e-07 1.66506e-06 1.5478e-05 0.000121914 0.000797405 0.00421647 0.0174059 0.0539511 0.122705 0.210822 0.299092 0.382908 0.462826 0.538714 0.610169 0.676416 0.736415 0.788953 0.832898 0.867513 0.892809 0.909753 0.919851 0.925597 0.927582 0.926173 0.920238 0.906507 0.88014 0.835175 0.76591 0.669135 0.54679 0.408267 0.270491 0.153596 0.0724216 0.02829 0.00957234 0.00296917 0.000873467 0.000246997 6.7422e-05 1.77851e-05 4.53483e-06 1.11775e-06 2.66352e-07 6.13724e-08 1.36768e-08 2.94876e-09 6.15358e-10 1.23871e-10 2.41115e-11 4.342e-12 8.29435e-13 2.66545e-13 -4.47819e-13 8.96624e-13 5.13154e-13 -6.78395e-14 3.78105e-13 6.71882e-13 -6.65936e-13 5.29194e-13 -1.08303e-13 8.48439e-13 1.0035e-12 -8.85204e-13 3.24852e-14 -6.69291e-13 1.18445e-13 -6.28078e-13 2.00065e-14 -4.45114e-13 -7.09807e-13 -2.49003e-13 -1.18238e-12 -9.27435e-13 -1.62194e-12 1.08239e-12 1.32927e-12 9.08216e-13 -3.79337e-15 -1.80776e-12 -1.14211e-12 4.92886e-13 3.50597e-13 8.01018e-13 -3.32081e-13 -1.22653e-12 4.85678e-13 -2.68894e-14 9.45962e-14 8.97683e-13 -4.68443e-13 7.71131e-14 -2.87653e-13 3.47558e-13 -4.37401e-13 -1.14456e-12 -6.16186e-13 -2.2969e-13 9.38279e-13 2.32099e-13 -8.67488e-14 3.48e-13 -1.17782e-12 9.5352e-13 -2.96437e-13 -8.96909e-13 8.2233e-13 2.94244e-13 -9.88387e-15 -8.47421e-13 -1.29391e-12 -4.61368e-13 3.30041e-13 0 0 -2.86004e-14 8.43327e-15 -1.30218e-14 -6.32988e-15 5.93749e-14 6.65828e-14 -2.74493e-14 3.85887e-14 -3.9328e-14 -1.85122e-14 3.49295e-14 -6.65975e-14 -1.24926e-13 -3.54402e-14 -2.14716e-13 -9.77907e-14 -3.67753e-14 -8.63617e-14 -1.54862e-13 -1.07634e-13 -5.72999e-14 7.09688e-14 3.98584e-14 -8.96128e-14 -8.14733e-15 9.57922e-15 3.02764e-15 -1.26305e-14 -1.17026e-14 5.25079e-14 6.50552e-14 -6.81349e-14 -2.91749e-13 6.22844e-14 -3.9064e-13 3.8642e-15 -1.77442e-14 -1.58856e-13 2.26852e-13 7.30488e-14 -9.05583e-14 -1.81996e-13 8.70013e-14 -3.61783e-13 -2.26913e-13 -2.76972e-13 -3.93495e-13 -2.87405e-13 -4.22387e-14 3.20565e-13 -2.22168e-14 -3.36541e-13 -3.07653e-13 2.40577e-13 9.69275e-15 -1.00543e-13 3.97208e-13 -2.94254e-13 -2.43205e-13 -6.04655e-13 -2.16697e-13 -9.37119e-14 6.95954e-14 5.26786e-13 2.03241e-13 8.47113e-14 5.95657e-13 2.6864e-13 5.54261e-14 -1.0347e-13 -8.49177e-13 -3.92067e-13 -2.97443e-13 3.99299e-14 -4.78502e-13 5.56031e-13 5.50825e-13 1.17372e-13 3.91918e-12 5.61069e-11 8.8348e-10 1.24392e-08 1.54166e-07 1.66506e-06 1.5478e-05 0.000121914 0.000797405 0.00421647 0.0174059 0.0539511 0.122705 0.210822 0.299092 0.382908 0.462826 0.538714 0.610169 0.676416 0.736415 0.788953 0.832898 0.867513 0.892809 0.909753 0.919851 0.925597 0.927582 0.926173 0.920238 0.906507 0.88014 0.835175 0.76591 0.669135 0.54679 0.408267 0.270491 0.153596 0.0724216 0.02829 0.00957234 0.00296917 0.000873467 0.000246997 6.7422e-05 1.77851e-05 4.53483e-06 1.11775e-06 2.66353e-07 6.1372e-08 1.36771e-08 2.94838e-09 6.15011e-10 1.24588e-10 2.35089e-11 5.00874e-12 7.95115e-13 -8.77819e-14 1.88269e-13 -2.4917e-13 1.18117e-12 1.11784e-12 -6.67045e-13 -7.68022e-14 -6.25484e-13 5.64447e-13 1.17576e-12 2.96095e-13 -6.86124e-13 2.58382e-13 6.91805e-13 1.06776e-12 -1.31325e-12 -4.47809e-13 -6.97765e-13 -5.93348e-13 -1.11198e-12 -1.43891e-12 -8.97818e-13 -2.07243e-13 1.06537e-12 -5.66717e-14 -8.67045e-14 1.39739e-12 1.11569e-12 -6.31364e-13 -8.28067e-13 -1.46057e-12 2.14444e-12 -2.07303e-12 -5.72538e-13 -1.11734e-13 -1.20535e-12 2.15537e-14 2.74913e-13 1.49279e-12 6.01431e-13 -9.6474e-14 -1.33048e-13 -1.35828e-12 -1.18938e-12 1.09227e-12 -1.47249e-12 -3.113e-13 -3.1283e-13 -2.74819e-13 1.92237e-12 -2.20395e-13 -3.7595e-14 -1.26466e-12 -7.65845e-15 1.2362e-12 -1.31204e-12 -9.44627e-13 -8.6853e-13 -4.07202e-14 3.65314e-13 -2.37484e-12 -2.47416e-13 0
				</DataArray>
				<DataArray Name="VitesseY" type="Float32" format="ascii">