<?xml version="1.0"?>
<VTKFile type="PolyData">
	<PolyData>
		<Piece NumberOfPoints="1206" NumberOfPolys="1000">
			<Points>
				<DataArray type="Float32" NumberOfComponents="3" format="ascii">
 0 0 0 0.005 0 0 0.01 0 0 0.015 0 0 0.02 0 0 0.025 0 0 0.03 0 0 0.035 0 0 0.04 0 0 0.045 0 0 0.05 0 0 0.055 0 0 0.06 0 0 0.065 0 0 0.07 0 0 0.075 0 0 0.08 0 0 0.085 0 0 0.09 0 0 0.095 0 0 0.1 0 0 0.105 0 0 0.11 0 0 0.115 0 0 0.12 0 0 0.125 0 0 0.13 0 0 0.135 0 0 0.14 0 0 0.145 0 0 0.15 0 0 0.155 0 0 0.16 0 0 0.165 0 0 0.17 0 0 0.175 0 0 0.18 0 0 0.185 0 0 0.19 0 0 0.195 0 0 0.2 0 0 0.205 0 0 0.21 0 0 0.215 0 0 0.22 0 0 0.225 0 0 0.23 0 0 0.235 0 0 0.24 0 0 0.245 0 0 0.25 0 0 0.255 0 0 0.26 0 0 0.265 0 0 0.27 0 0 0.275 0 0 0.28 0 0 0.285 0 0 0.29 0 0 0.295 0 0 0.3 0 0 0.305 0 0 0.31 0 0 0.315 0 0 0.32 0 0 0.325 0 0 0.33 0 0 0.335 0 0 0.34 0 0 0.345 0 0 0.35 0 0 0.355 0 0 0.36 0 0 0.365 0 0 0.37 0 0 0.375 0 0 0.38 0 0 0.385 0 0 0.39 0 0 0.395 0 0 0.4 0 0 0.405 0 0 0.41 0 0 0.415 0 0 0.42 0 0 0.425 0 0 0.43 0 0 0.435 0 0 0.44 0 0 0.445 0 0 0.45 0 0 0.455 0 0 0.46 0 0 0.465 0 0 0.47 0 0 0.475 0 0 0.48 0 0 0.485 0 0 0.49 0 0 0.495 0 0 0.5 0 0 0.505 0 0 0.51 0 0 0.515 0 0 0.52 0 0 0.525 0 0 0.53 0 0 0.535 0 0 0.54 0 0 0.545 0 0 0.55 0 0 0.555 0 0 0.56 0 0 0.565 0 0 0.57 0 0 0.575 0 0 0.58 0 0 0.585 0 0 0.59 0 0 0.595 0 0 0.6 0 0 0.605 0 0 0.61 0 0 0.615 0 0 0.62 0 0 0.625 0 0 0.63 0 0 0.635 0 0 0.64 0 0 0.645 0 0 0.65 0 0 0.655 0 0 0.66 0 0 0.665 0 0 0.67 0 0 0.675 0 0 0.68 0 0 0.685 0 0 0.69 0 0 0.695 0 0 0.7 0 0 0.705 0 0 0.71 0 0 0.715 0 0 0.72 0 0 0.725 0 0 0.73 0 0 0.735 0 0 0.74 0 0 0.745 0 0 0.75 0 0 0.755 0 0 0.76 0 0 0.765 0 0 0.77 0 0 0.775 0 0 0.78 0 0 0.785 0 0 0.79 0 0 0.795 0 0 0.8 0 0 0.805 0 0 0.81 0 0 0.815 0 0 0.82 0 0 0.825 0 0 0.83 0 0 0.835 0 0 0.84 0 0 0.845 0 0 0.85 0 0 0.855 0 0 0.86 0 0 0.865 0 0 0.87 0 0 0.875 0 0 0.88 0 0 0.885 0 0 0.89 0 0 0.895 0 0 0.9 0 0 0.905 0 0 0.91 0 0 0.915 0 0 0.92 0 0 0.925 0 0 0.93 0 0 0.935 0 0 0.94 0 0 0.945 0 0 0.95 0 0 0.955 0 0 0.96 0 0 0.965 0 0 0.97 0 0 0.975 0 0 0.98 0 0 0.985 0 0 0.99 0 0 0.995 0 0 1 0 0 0 0.02 0 0.005 0.02 0 0.01 0.02 0 0.015 0.02 0 0.02 0.02 0 0.025 0.02 0 0.03 0.02 0 0.035 0.02 0 0.04 0.02 0 0.045 0.02 0 0.05 0.02 0 0.055 0.02 0 0.06 0.02 0 0.065 0.02 0 0.07 0.02 0 0.075 0.02 0 0.08 0.02 0 0.085 0.02 0 0.09 0.02 0 0.095 0.02 0 0.1 0.02 0 0.105 0.02 0 0.11 0.02 0 0.115 0.02 0 0.12 0.02 0 0.125 0.02 0 0.13 0.02 0 0.135 0.02 0 0.14 0.02 0 0.145 0.02 0 0.15 0.02 0 0.155 0.02 0 0.16 0.02 0 0.165 0.02 0 0.17 0.02 0 0.175 0.02 0 0.18 0.02 0 0.185 0.02 0 0.19 0.02 0 0.195 0.02 0 0.2 0.02 0 0.205 0.02 0 0.21 0.02 0 0.215 0.02 0 0.22 0.02 0 0.225 0.02 0 0.23 0.02 0 0.235 0.02 0 0.24 0.02 0 0.245 0.02 0 0.25 0.02 0 0.255 0.02 0 0.26 0.02 0 0.265 0.02 0 0.27 0.02 0 0.275 0.02 0 0.28 0.02 0 0.285 0.02 0 0.29 0.02 0 0.295 0.02 0 0.3 0.02 0 0.305 0.02 0 0.31 0.02 0 0.315 0.02 0 0.32 0.02 0 0.325 0.02 0 0.33 0.02 0 0.335 0.02 0 0.34 0.02 0 0.345 0.02 0 0.35 0.02 0 0.355 0.02 0 0.36 0.02 0 0.365 0.02 0 0.37 0.02 0 0.375 0.02 0 0.38 0.02 0 0.385 0.02 0 0.39 0.02 0 0.395 0.02 0 0.4 0.02 0 0.405 0.02 0 0.41 0.02 0 0.415 0.02 0 0.42 0.02 0 0.425 0.02 0 0.43 0.02 0 0.435 0.02 0 0.44 0.02 0 0.445 0.02 0 0.45 0.02 0 0.455 0.02 0 0.46 0.02 0 0.465 0.02 0 0.47 0.02 0 0.475 0.02 0 0.48 0.02 0 0.485 0.02 0 0.49 0.02 0 0.495 0.02 0 0.5 0.02 0 0.505 0.02 0 0.51 0.02 0 0.515 0.02 0 0.52 0.02 0 0.525 0.02 0 0.53 0.02 0 0.535 0.02 0 0.54 0.02 0 0.545 0.02 0 0.55 0.02 0 0.555 0.02 0 0.56 0.02 0 0.565 0.02 0 0.57 0.02 0 0.575 0.02 0 0.58 0.02 0 0.585 0.02 0 0.59 0.02 0 0.595 0.02 0 0.6 0.02 0 0.605 0.02 0 0.61 0.02 0 0.615 0.02 0 0.62 0.02 0 0.625 0.02 0 0.63 0.02 0 0.635 0.02 0 0.64 0.02 0 0.645 0.02 0 0.65 0.02 0 0.655 0.02 0 0.66 0.02 0 0.665 0.02 0 0.67 0.02 0 0.675 0.02 0 0.68 0.02 0 0.685 0.02 0 0.69 0.02 0 0.695 0.02 0 0.7 0.02 0 0.705 0.02 0 0.71 0.02 0 0.715 0.02 0 0.72 0.02 0 0.725 0.02 0 0.73 0.02 0 0.735 0.02 0 0.74 0.02 0 0.745 0.02 0 0.75 0.02 0 0.755 0.02 0 0.76 0.02 0 0.765 0.02 0 0.77 0.02 0 0.775 0.02 0 0.78 0.02 0 0.785 0.02 0 0.79 0.02 0 0.795 0.02 0 0.8 0.02 0 0.805 0.02 0 0.81 0.02 0 0.815 0.02 0 0.82 0.02 0 0.825 0.02 0 0.83 0.02 0 0.835 0.02 0 0.84 0.02 0 0.845 0.02 0 0.85 0.02 0 0.855 0.02 0 0.86 0.02 0 0.865 0.02 0 0.87 0.02 0 0.875 0.02 0 0.88 0.02 0 0.885 0.02 0 0.89 0.02 0 0.895 0.02 0 0.9 0.02 0 0.905 0.02 0 0.91 0.02 0 0.915 0.02 0 0.92 0.02 0 0.925 0.02 0 0.93 0.02 0 0.935 0.02 0 0.94 0.02 0 0.945 0.02 0 0.95 0.02 0 0.955 0.02 0 0.96 0.02 0 0.965 0.02 0 0.97 0.02 0 0.975 0.02 0 0.98 0.02 0 0.985 0.02 0 0.99 0.02 0 0.995 0.02 0 1 0.02 0 0 0.04 0 0.005 0.04 0 0.01 0.04 0 0.015 0.04 0 0.02 0.04 0 0.025 0.04 0 0.03 0.04 0 0.035 0.04 0 0.04 0.04 0 0.045 0.04 0 0.05 0.04 0 0.055 0.04 0 0.06 0.04 0 0.065 0.04 0 0.07 0.04 0 0.075 0.04 0 0.08 0.04 0 0.085 0.04 0 0.09 0.04 0 0.095 0.04 0 0.1 0.04 0 0.105 0.04 0 0.11 0.04 0 0.115 0.04 0 0.12 0.04 0 0.125 0.04 0 0.13 0.04 0 0.135 0.04 0 0.14 0.04 0 0.145 0.04 0 0.15 0.04 0 0.155 0.04 0 0.16 0.04 0 0.165 0.04 0 0.17 0.04 0 0.175 0.04 0 0.18 0.04 0 0.185 0.04 0 0.19 0.04 0 0.195 0.04 0 0.2 0.04 0 0.205 0.04 0 0.21 0.04 0 0.215 0.04 0 0.22 0.04 0 0.225 0.04 0 0.23 0.04 0 0.235 0.04 0 0.24 0.04 0 0.245 0.04 0 0.25 0.04 0 0.255 0.04 0 0.26 0.04 0 0.265 0.04 0 0.27 0.04 0 0.275 0.04 0 0.28 0.04 0 0.285 0.04 0 0.29 0.04 0 0.295 0.04 0 0.3 0.04 0 0.305 0.04 0 0.31 0.04 0 0.315 0.04 0 0.32 0.04 0 0.325 0.04 0 0.33 0.04 0 0.335 0.04 0 0.34 0.04 0 0.345 0.04 0 0.35 0.04 0 0.355 0.04 0 0.36 0.04 0 0.365 0.04 0 0.37 0.04 0 0.375 0.04 0 0.38 0.04 0 0.385 0.04 0 0.39 0.04 0 0.395 0.04 0 0.4 0.04 0 0.405 0.04 0 0.41 0.04 0 0.415 0.04 0 0.42 0.04 0 0.425 0.04 0 0.43 0.04 0 0.435 0.04 0 0.44 0.04 0 0.445 0.04 0 0.45 0.04 0 0.455 0.04 0 0.46 0.04 0 0.465 0.04 0 0.47 0.04 0 0.475 0.04 0 0.48 0.04 0 0.485 0.04 0 0.49 0.04 0 0.495 0.04 0 0.5 0.04 0 0.505 0.04 0 0.51 0.04 0 0.515 0.04 0 0.52 0.04 0 0.525 0.04 0 0.53 0.04 0 0.535 0.04 0 0.54 0.04 0 0.545 0.04 0 0.55 0.04 0 0.555 0.04 0 0.56 0.04 0 0.565 0.04 0 0.57 0.04 0 0.575 0.04 0 0.58 0.04 0 0.585 0.04 0 0.59 0.04 0 0.595 0.04 0 0.6 0.04 0 0.605 0.04 0 0.61 0.04 0 0.615 0.04 0 0.62 0.04 0 0.625 0.04 0 0.63 0.04 0 0.635 0.04 0 0.64 0.04 0 0.645 0.04 0 0.65 0.04 0 0.655 0.04 0 0.66 0.04 0 0.665 0.04 0 0.67 0.04 0 0.675 0.04 0 0.68 0.04 0 0.685 0.04 0 0.69 0.04 0 0.695 0.04 0 0.7 0.04 0 0.705 0.04 0 0.71 0.04 0 0.715 0.04 0 0.72 0.04 0 0.725 0.04 0 0.73 0.04 0 0.735 0.04 0 0.74 0.04 0 0.745 0.04 0 0.75 0.04 0 0.755 0.04 0 0.76 0.04 0 0.765 0.04 0 0.77 0.04 0 0.775 0.04 0 0.78 0.04 0 0.785 0.04 0 0.79 0.04 0 0.795 0.04 0 0.8 0.04 0 0.805 0.04 0 0.81 0.04 0 0.815 0.04 0 0.82 0.04 0 0.825 0.04 0 0.83 0.04 0 0.835 0.04 0 0.84 0.04 0 0.845 0.04 0 0.85 0.04 0 0.855 0.04 0 0.86 0.04 0 0.865 0.04 0 0.87 0.04 0 0.875 0.04 0 0.88 0.04 0 0.885 0.04 0 0.89 0.04 0 0.895 0.04 0 0.9 0.04 0 0.905 0.04 0 0.91 0.04 0 0.915 0.04 0 0.92 0.04 0 0.925 0.04 0 0.93 0.04 0 0.935 0.04 0 0.94 0.04 0 0.945 0.04 0 0.95 0.04 0 0.955 0.04 0 0.96 0.04 0 0.965 0.04 0 0.97 0.04 0 0.975 0.04 0 0.98 0.04 0 0.985 0.04 0 0.99 0.04 0 0.995 0.04 0 1 0.04 0 0 0.06 0 0.005 0.06 0 0.01 0.06 0 0.015 0.06 0 0.02 0.06 0 0.025 0.06 0 0.03 0.06 0 0.035 0.06 0 0.04 0.06 0 0.045 0.06 0 0.05 0.06 0 0.055 0.06 0 0.06 0.06 0 0.065 0.06 0 0.07 0.06 0 0.075 0.06 0 0.08 0.06 0 0.085 0.06 0 0.09 0.06 0 0.095 0.06 0 0.1 0.06 0 0.105 0.06 0 0.11 0.06 0 0.115 0.06 0 0.12 0.06 0 0.125 0.06 0 0.13 0.06 0 0.135 0.06 0 0.14 0.06 0 0.145 0.06 0 0.15 0.06 0 0.155 0.06 0 0.16 0.06 0 0.165 0.06 0 0.17 0.06 0 0.175 0.06 0 0.18 0.06 0 0.185 0.06 0 0.19 0.06 0 0.195 0.06 0 0.2 0.06 0 0.205 0.06 0 0.21 0.06 0 0.215 0.06 0 0.22 0.06 0 0.225 0.06 0 0.23 0.06 0 0.235 0.06 0 0.24 0.06 0 0.245 0.06 0 0.25 0.06 0 0.255 0.06 0 0.26 0.06 0 0.265 0.06 0 0.27 0.06 0 0.275 0.06 0 0.28 0.06 0 0.285 0.06 0 0.29 0.06 0 0.295 0.06 0 0.3 0.06 0 0.305 0.06 0 0.31 0.06 0 0.315 0.06 0 0.32 0.06 0 0.325 0.06 0 0.33 0.06 0 0.335 0.06 0 0.34 0.06 0 0.345 0.06 0 0.35 0.06 0 0.355 0.06 0 0.36 0.06 0 0.365 0.06 0 0.37 0.06 0 0.375 0.06 0 0.38 0.06 0 0.385 0.06 0 0.39 0.06 0 0.395 0.06 0 0.4 0.06 0 0.405 0.06 0 0.41 0.06 0 0.415 0.06 0 0.42 0.06 0 0.425 0.06 0 0.43 0.06 0 0.435 0.06 0 0.44 0.06 0 0.445 0.06 0 0.45 0.06 0 0.455 0.06 0 0.46 0.06 0 0.465 0.06 0 0.47 0.06 0 0.475 0.06 0 0.48 0.06 0 0.485 0.06 0 0.49 0.06 0 0.495 0.06 0 0.5 0.06 0 0.505 0.06 0 0.51 0.06 0 0.515 0.06 0 0.52 0.06 0 0.525 0.06 0 0.53 0.06 0 0.535 0.06 0 0.54 0.06 0 0.545 0.06 0 0.55 0.06 0 0.555 0.06 0 0.56 0.06 0 0.565 0.06 0 0.57 0.06 0 0.575 0.06 0 0.58 0.06 0 0.585 0.06 0 0.59 0.06 0 0.595 0.06 0 0.6 0.06 0 0.605 0.06 0 0.61 0.06 0 0.615 0.06 0 0.62 0.06 0 0.625 0.06 0 0.63 0.06 0 0.635 0.06 0 0.64 0.06 0 0.645 0.06 0 0.65 0.06 0 0.655 0.06 0 0.66 0.06 0 0.665 0.06 0 0.67 0.06 0 0.675 0.06 0 0.68 0.06 0 0.685 0.06 0 0.69 0.06 0 0.695 0.06 0 0.7 0.06 0 0.705 0.06 0 0.71 0.06 0 0.715 0.06 0 0.72 0.06 0 0.725 0.06 0 0.73 0.06 0 0.735 0.06 0 0.74 0.06 0 0.745 0.06 0 0.75 0.06 0 0.755 0.06 0 0.76 0.06 0 0.765 0.06 0 0.77 0.06 0 0.775 0.06 0 0.78 0.06 0 0.785 0.06 0 0.79 0.06 0 0.795 0.06 0 0.8 0.06 0 0.805 0.06 0 0.81 0.06 0 0.815 0.06 0 0.82 0.06 0 0.825 0.06 0 0.83 0.06 0 0.835 0.06 0 0.84 0.06 0 0.845 0.06 0 0.85 0.06 0 0.855 0.06 0 0.86 0.06 0 0.865 0.06 0 0.87 0.06 0 0.875 0.06 0 0.88 0.06 0 0.885 0.06 0 0.89 0.06 0 0.895 0.06 0 0.9 0.06 0 0.905 0.06 0 0.91 0.06 0 0.915 0.06 0 0.92 0.06 0 0.925 0.06 0 0.93 0.06 0 0.935 0.06 0 0.94 0.06 0 0.945 0.06 0 0.95 0.06 0 0.955 0.06 0 0.96 0.06 0 0.965 0.06 0 0.97 0.06 0 0.975 0.06 0 0.98 0.06 0 0.985 0.06 0 0.99 0.06 0 0.995 0.06 0 1 0.06 0 0 0.08 0 0.005 0.08 0 0.01 0.08 0 0.015 0.08 0 0.02 0.08 0 0.025 0.08 0 0.03 0.08 0 0.035 0.08 0 0.04 0.08 0 0.045 0.08 0 0.05 0.08 0 0.055 0.08 0 0.06 0.08 0 0.065 0.08 0 0.07 0.08 0 0.075 0.08 0 0.08 0.08 0 0.085 0.08 0 0.09 0.08 0 0.095 0.08 0 0.1 0.08 0 0.105 0.08 0 0.11 0.08 0 0.115 0.08 0 0.12 0.08 0 0.125 0.08 0 0.13 0.08 0 0.135 0.08 0 0.14 0.08 0 0.145 0.08 0 0.15 0.08 0 0.155 0.08 0 0.16 0.08 0 0.165 0.08 0
[...]
			<PointData Scalars="VitesseX">
				<DataArray Name="VitesseX" type="Float32" format="ascii">
 0 6.16668e-15 -3.93526e-15 -3.50805e-15 4.93923e-14 -4.66524e-14 -9.03534e-14 1.75997e-14 4.10107e-15 8.20812e-14 -8.45202e-14 -3.89964e-14 -1.43654e-13 1.58943e-14 -1.07016e-13 -1.02618e-13 4.96935e-14 3.25913e-14 -6.56696e-14 -1.45842e-13 -1.5435e-13 1.55103e-14 2.00176e-14 -1.50284e-13 -2.20265e-13 -1.00547e-13 1.06009e-13 -7.78874e-14 -1.45689e-13 -2.33278e-14 -8.81164e-15 -6.81667e-14 7.2811e-14 -5.0665e-14 -2.65806e-13 7.04938e-14 6.29392e-14 -8.18246e-14 -2.87819e-13 -2.13109e-13 -7.17409e-14 -1.53198e-13 -1.87111e-13 -4.99579e-13 -8.50764e-14 1.82585e-13 8.87211e-14 -1.31416e-13 -1.27182e-13 -2.40855e-13 1.52239e-13 7.36484e-13 1.50022e-14 -6.14541e-13 -4.39781e-13 -9.93331e-14 3.21897e-15 -1.19818e-13 -2.16082e-13 1.40321e-13 1.9934e-13 -4.97177e-14 5.18638e-14 1.74382e-13 -4.33035e-14 -3.86311e-14 -3.20607e-13 -6.33703e-13 -1.68107e-13 8.56631e-14 -2.23252e-13 3.73257e-14 4.63155e-13 7.39812e-12 8.66992e-11 9.77573e-10 1.0046e-08 9.32875e-08 7.77277e-07 5.76362e-06 3.76616e-05 0.000214226 0.00104439 0.00427765 0.0143645 0.0385738 0.0817691 0.139285 0.201138 0.262185 0.321842 0.380152 0.437069 0.492498 0.546276 0.598157 0.647808 0.694798 0.738607 0.778643 0.814295 0.845007 0.870397 0.890363 0.905161 0.915405 0.921959 0.925784 0.927758 0.928621 0.928805 0.928627 0.928065 0.92683 0.924312 0.919386 0.910156 0.893731 0.86616 0.822738 0.758851 0.671479 0.561257 0.434573 0.304325 0.187478 0.0989301 0.0442811 0.0172537 0.00614585 0.00208095 0.000682811 0.000218684 6.85034e-05 2.09947e-05 6.29357e-06 1.84467e-06 5.2849e-07 1.47959e-07 4.0471e-08 1.0815e-08 2.82306e-09 7.19121e-10 1.80083e-10 4.41019e-11 9.92126e-12 2.80577e-12 -4.67618e-13 6.40952e-13 2.32198e-13 -1.19391e-12 3.45761e-13 -1.02907e-12 1.07355e-12 1.56733e-13 6.07812e-14 -9.34211e-13 1.66794e-13 5.75056e-13 2.18303e-13 1.54647e-14 -1.46159e-12 5.00815e-13 7.35583e-13 -2.43141e-13 -5.91889e-13 -3.34386e-13 -4.10487e-14 8.84592e-13 -5.18646e-13 5.83311e-13 1.23488e-13 -4.33948e-13 4.52589e-13 -1.15037e-12 5.75622e-13 3.29533e-13 -9.29047e-13 -4.54854e-14 -1.1389e-12 6.41252e-13 7.47926e-13 -7.27469e-13 4.44571e-14 -5.46114e-13 7.46094e-13 -8.21553e-14 -9.9335e-13 2.32673e-14 -1.32267e-12 1.14973e-12 -2.84891e-13 -2.12868e-12 2.14024e-13 1.10288e-12 7.10156e-14 -9.43024e-13 -2.33896e-12 1.55775e-12 1.11852e-12 0 0 -1.49278e-14 4.16794e-15 3.11354e-15 -4.83482e-14 2.61055e-14 5.16122e-14 -1.52441e-14 -3.01083e-15 -7.02098e-14 2.10769e-14 -3.84494e-14 -5.17737e-15 -1.33921e-13 -6.61134e-14 -1.25026e-14 -1.25104e-13 -5.31124e-14 6.76345e-15 1.23869e-14 -3.37597e-14 -1.51183e-13 -1.71436e-13 -3.90539e-14 7.3642e-14 -7.91774e-16 -2.99926e-13 -8.7995e-14 8.00562e-14 -3.54708e-14 -5.97973e-14 1.22723e-14 -1.40273e-13 -9.04728e-14 2.70222e-13 -1.78634e-13 -8.46803e-14 -1.68447e-13 -1.1333e-13 -1.34459e-13 -1.9091e-13 -1.75953e-13 -1.66985e-13 8.43413e-14 -1.72856e-13 -2.51683e-13 -4.35337e-14 8.28531e-14 1.49958e-13 2.93353e-13 1.57856e-13 -3.61452e-13 -1.37277e-13 7.38623e-14 -1.18121e-13 -2.29375e-13 -2.18713e-13 -1.87432e-13 -6.88493e-14 3.50708e-14 -9.99905e-14 1.1138e-13 1.38148e-13 -1.02576e-13 -1.07342e-13 -2.87294e-13 -1.8973e-13 2.88422e-14 1.47953e-14 -5.22564e-13 -3.23565e-14 2.63038e-13 1.02784e-12 7.27134e-12 8.64176e-11 9.77502e-10 1.00462e-08 9.3288e-08 7.77277e-07 5.76362e-06 3.76616e-05 0.000214226 0.00104439 0.00427765 0.0143645 0.0385738 0.0817691 0.139285 0.201138 0.262185 0.321842 0.380152 0.437069 0.492498 0.546276 0.598157 0.647808 0.694798 0.738607 0.778643 0.814295 0.845007 0.870397 0.890363 0.905161 0.915405 0.921959 0.925784 0.927758 0.928621 0.928805 0.928627 0.928065 0.92683 0.924312 0.919386 0.910156 0.893731 0.86616 0.822738 0.758851 0.671479 0.561257 0.434573 0.304325 0.187478 0.0989301 0.0442811 0.0172537 0.00614585 0.00208095 0.000682811 0.000218684 6.85034e-05 2.09947e-05 6.29357e-06 1.84468e-06 5.2849e-07 1.47958e-07 4.04718e-08 1.08145e-08 2.8232e-09 7.20607e-10 1.78862e-10 4.33969e-11 1.07382e-11 2.23633e-12 1.33893e-12 -7.76132e-13 -6.0295e-13 6.30074e-13 -5.59662e-13 2.15063e-13 -8.08978e-13 1.60848e-13 8.35945e-14 4.58109e-13 -5.18255e-14 -7.23566e-13 -2.53342e-13 -1.94457e-13 9.292e-13 -2.61467e-13 -8.1745e-13 -2.58123e-13 2.35915e-13 2.12557e-13 8.61688e-14 -6.95928e-13 7.8609e-13 -1.84695e-13 -2.59358e-13 6.82223e-13 -6.57564e-13 5.01446e-13 -6.17809e-13 -6.94259e-13 2.15311e-13 -2.04146e-13 2.5551e-13 -7.45517e-13 -2.7143e-13 8.72876e-13 -1.58781e-13 1.9808e-13 -7.18924e-13 -1.79626e-14 4.85623e-13 -7.35783e-13 5.72557e-13 -1.33087e-12 -4.48402e-13 1.22705e-12 -8.60216e-13 -7.43348e-13 -6.85024e-13 1.1847e-13 1.20797e-12 -1.63078e-12 -6.79935e-13 0 0 1.29629e-14 3.34523e-15 1.28454e-14 1.24709e-14 -5.18057e-15 2.58895e-14 3.75044e-14 4.90729e-15 1.38837e-14 -1.88578e-14 -4.67432e-14 -5.33205e-14 -6.10457e-14 -7.51957e-14 -5.47904e-14 -3.0522e-14 -1.57103e-13 -3.63077e-14 -3.6515e-14 -5.75027e-14 -4.15479e-14 -3.08615e-14 -2.90055e-14 -1.39869e-13 -2.08339e-14 6.55847e-14 -5.45419e-14 -8.83936e-14 1.77838e-15 -5.17446e-14 -6.45952e-14 -5.47086e-14 3.17468e-14 -2.7389e-14 -1.2887e-13 1.95692e-14 -7.36801e-14 -1.49152e-13 -2.16195e-13 -2.10197e-13 -5.66897e-14 -1.21534e-13 -5.25292e-14 6.41241e-14 -5.00975e-15 -4.86421e-14 -4.61551e-15 1.16416e-14 -1.02548e-13 -7.12063e-14 1.03096e-13 9.48664e-14 -9.6555e-14 -2.04975e-13 -1.17286e-13 -1.46556e-13 -3.34937e-13 -8.96572e-14 1.25194e-13 3.83097e-14 -5.94715e-15 -2.54241e-13 -5.53011e-14 -1.18393e-13 -5.90106e-15 7.40918e-14 -1.54123e-13 -2.31779e-13 -5.75852e-14 -6.75497e-14 2.77605e-13 7.9798e-13 7.41175e-12 8.69004e-11 9.77799e-10 1.00454e-08 9.32881e-08 7.77277e-07 5.76362e-06 3.76616e-05 0.000214226 0.00104439 0.00427765 0.0143645 0.0385738 0.0817691 0.139285 0.201138 0.262185 0.321842 0.380152 0.437069 0.492498 0.546276 0.598157 0.647808 0.694798 0.738607 0.778643 0.814295 0.845007 0.870397 0.890363 0.905161 0.915405 0.921959 0.925784 0.927758 0.928621 0.928805 0.928627 0.928065 0.92683 0.924312 0.919386 0.910156 0.893731 0.86616 0.822738 0.758851 0.671479 0.561257 0.434573 0.304325 0.187478 0.0989301 0.0442811 0.0172537 0.00614585 0.00208095 0.000682811 0.000218684 6.85034e-05 2.09947e-05 6.29357e-06 1.84467e-06 5.2849e-07 1.47958e-07 4.04713e-08 1.08152e-08 2.82334e-09 7.19768e-10 1.79589e-10 4.35908e-11 1.03274e-11 2.50443e-12 7.38643e-14 2.51962e-13 2.51462e-13 -1.72855e-13 -6.08486e-14 -6.17668e-13 1.27934e-13 -4.64553e-13 -4.10284e-14 -8.39731e-14 -3.13798e-13 -8.05815e-14 -3.74843e-13 -1.97201e-13 -7.56492e-13 -2.46703e-13 4.63536e-13 4.00427e-14 -2.21227e-13 -7.01632e-13 2.48103e-13 1.68639e-13 2.50058e-13 3.01708e-13 -2.04142e-13 -2.95495e-13 9.00025e-14 1.11888e-13 -2.2539e-13 -3.88643e-13 -2.61799e-13 -3.32513e-13 -3.27316e-13 1.96691e-13 1.89511e-13 -7.95963e-14 5.65616e-13 -2.03691e-13 -1.80171e-13 -2.05774e-14 -1.04657e-13 7.20048e-13 -7.29039e-13 -1.52966e-13 -2.00698e-13 -6.75351e-13 1.69956e-13 -2.30588e-13 -2.88136e-13 -4.78522e-13 -8.82094e-13 1.22302e-12 2.52732e-13 0 0 1.13512e-14 4.07365e-14 4.77701e-14 6.55607e-14 2.76681e-14 -6.56034e-15 2.06627e-14 -1.55135e-14 2.99711e-14 -4.55293e-14 -7.13165e-14 -5.0313e-14 -2.26366e-14 -8.54357e-14 -4.56667e-14 6.69259e-15 -1.97941e-14 -1.11694e-13 -9.22922e-14 -9.56146e-14 -2.56523e-14 -1.10408e-14 -1.50738e-13 -3.96659e-14 -1.42548e-14 6.75664e-14 1.91439e-14 -1.11925e-13 -6.18013e-14 -6.77718e-14 -5.8435e-14 3.32192e-14 -1.36043e-13 -1.8343e-13 3.9503e-16 -7.66496e-15 -1.52493e-13 -1.9788e-13 -1.40539e-13 -3.9835e-14 -1.13992e-13 -2.06896e-14 -1.47618e-13 -3.2214e-14 9.11412e-14 6.73306e-14 -7.79998e-14 -1.82409e-13 -1.69405e-13 -7.65391e-14 2.88893e-13 -2.18878e-14 -3.73938e-13 -3.3114e-13 -9.93905e-14 -3.31048e-14 -1.38986e-13 -5.15915e-14 1.22743e-13 3.93853e-14 -5.22254e-14 1.80833e-13 1.03605e-13 1.23859e-14 -1.46062e-13 -1.6146e-13 -3.14089e-13 -1.38398e-13 -1.18335e-13 -8.24193e-14 7.59663e-14 8.56224e-13 7.5814e-12 8.69476e-11 9.77804e-10 1.00458e-08 9.32877e-08 7.77277e-07 5.76362e-06 3.76616e-05 0.000214226 0.00104439 0.00427765 0.0143645 0.0385738 0.0817691 0.139285 0.201138 0.262185 0.321842 0.380152 0.437069 0.492498 0.546276 0.598157 0.647808 0.694798 0.738607 0.778643 0.814295 0.845007 0.870397 0.890363 0.905161 0.915405 0.921959 0.925784 0.927758 0.928621 0.928805 0.928627 0.928065 0.92683 0.924312 0.919386 0.910156 0.893731 0.86616 0.822738 0.758851 0.671479 0.561257 0.434573 0.304325 0.187478 0.0989301 0.0442811 0.0172537 0.00614585 0.00208095 0.000682811 0.000218684 6.85034e-05 2.09947e-05 6.29357e-06 1.84468e-06 5.2849e-07 1.47959e-07 4.04715e-08 1.08149e-08 2.82337e-09 7.19841e-10 1.79596e-10 4.38199e-11 1.01271e-11 2.33529e-12 1.09359e-13 4.8871e-13 9.51258e-14 8.53168e-14 -5.44727e-13 -5.5327e-13 4.6853e-13 -1.94848e-13 -2.45169e-13 -8.17376e-13 -2.35073e-13 6.27422e-14 2.81223e-13 -2.92419e-13 -7.63421e-13 -1.88449e-13 -2.40366e-13 7.7012e-14 -2.5683e-13 -4.04758e-13 1.1392e-13 4.52415e-13 -6.09195e-13 9.25927e-14 -1.16082e-13 2.84524e-14 9.13719e-14 -2.90895e-13 -3.4543e-14 1.85384e-13 -4.48913e-13 -7.6259e-13 -5.59691e-13 6.7704e-13 4.80097e-13 -5.34019e-13 2.35076e-13 1.93808e-13 2.48596e-13 -9.39527e-14 1.71965e-13 4.31471e-14 -1.02985e-12 2.88763e-13 -7.27259e-13 -4.31381e-13 -5.9578e-13 3.49718e-13 -1.77219e-14 -6.30886e-13 -7.66863e-13 1.02614e-12 1.08382e-12 0 0 2.4655e-14 6.33514e-14 5.60696e-14 1.62308e-14 7.776e-14 5.26072e-14 -3.2031e-14 -1.53586e-14 -7.23709e-14 1.98597e-15 -7.02943e-14 4.06432e-14 -1.08479e-13 -3.40528e-14 -2.79053e-14 -8.17449e-14 4.10487e-14 -1.45023e-14 -3.63764e-14 -6.99284e-14 -1.50307e-13 -1.34959e-13 -5.49022e-14 1.56959e-13 6.72526e-14 -1.78541e-13 -6.3958e-14 6.81273e-14 -1.44367e-13 -1.63124e-13 -7.38948e-14 -8.54319e-14 -1.466e-13 1.09666e-13 -1.20746e-13 -1.76153e-13 -1.28828e-13 -7.49382e-14 -5.49354e-14 -1.48855e-14 -1.74146e-13 -7.05535e-14 1.32346e-13 -2.56316e-13 -9.71397e-14 5.57713e-14 1.10407e-13 5.48834e-14 2.27745e-13 2.58109e-14 -4.51672e-13 -2.11859e-13 1.47838e-14 -2.06732e-13 -2.72514e-13 -3.31407e-13 -1.39106e-13 -9.34963e-14 -3.45056e-14 -1.217e-14 2.09063e-13 3.47155e-13 1.03633e-13 1.90933e-14 -4.18419e-13 -2.41806e-13 -2.37016e-13 -9.05569e-14 -4.61853e-13 1.33788e-13 3.51425e-13 1.39374e-12 7.70535e-12 8.66204e-11 9.77463e-10 1.00462e-08 9.3288e-08 7.77277e-07 5.76362e-06 3.76616e-05 0.000214226 0.00104439 0.00427765 0.0143645 0.0385738 0.0817691 0.139285 0.201138 0.262185 0.321842 0.380152 0.437069 0.492498 0.546276 0.598157 0.647808 0.694798 0.738607 0.778643 0.814295 0.845007 0.870397 0.890363 0.905161 0.915405 0.921959 0.925784 0.927758 0.928621 0.928805 0.928627 0.928065 0.92683 0.924312 0.919386 0.910156 0.893731 0.86616 0.822738 0.758851 0.671479 0.561257 0.434573 0.304325 0.187478 0.0989301 0.0442811 0.0172537 0.00614585 0.00208095 0.000682811 0.000218684 6.85034e-05 2.09947e-05 6.29357e-06 1.84468e-06 5.28491e-07 1.47958e-07 4.04719e-08 1.08146e-08 2.82308e-09 7.20779e-10 1.78845e-10 4.37975e-11 1.05221e-11 1.73213e-12 1.12918e-12 -6.81519e-13 -2.04377e-13 6.70407e-13 -8.62923e-13 1.95553e-13 -7.47569e-13 -1.05585e-14 3.22109e-13 -1.81091e-13 -2.96031e-13 -4.96761e-13 1.64357e-13 2.07045e-13 1.00794e-12 -5.17338e-13 -1.64237e-12 -3.21285e-13 1.63535e-13 8.78827e-13 -3.84882e-14 -5.84567e-13 2.77961e-13 -5.59025e-13 -4.11007e-13 7.47898e-13 -8.13902e-13 2.44594e-13 -7.11771e-13 -6.8793e-13 -9.37324e-14 -7.37874e-13 1.56242e-13 -6.02592e-13 2.55074e-13 4.58214e-13 2.23056e-13 8.79427e-13 -5.57151e-13 6.30091e-14 6.94935e-13 -1.04322e-12 3.96945e-13 -1.30164e-12 -4.41522e-13 1.43591e-12 -1.1033e-12 -8.40837e-13 -7.6076e-13 2.26057e-14 1.67184e-12 -1.54178e-12 -5.36808e-13 0 0 8.85556e-14 3.9649e-14 3.25546e-14 7.23706e-14 -9.04066e-15 -2.34639e-14 1.77094e-14 2.0247e-14 4.55842e-14 -6.93589e-14 -5.35394e-14 -5.80284e-14 -1.00398e-14 -2.24147e-14 -1.51671e-13 6.19829e-14 -5.37034e-14 4.25709e-14 -1.31814e-13 -1.50464e-13 -1.45274e-14 5.33305e-14 6.14838e-14 -2.54037e-13 2.23839e-14 3.44815e-13 -1.77185e-13 -1.22483e-13 -1.13961e-13 -1.83411e-13 -2.52821e-13 6.63707e-15 1.72661e-13 -2.74836e-13 -7.22598e-14 -6.55369e-14 1.5504e-13 -1.13578e-13 -2.05375e-13 -6.04151e-14 -3.49778e-14 -1.95937e-13 -2.13392e-13 -5.93203e-14 2.99369e-13 5.53856e-14 7.04604e-14 7.07689e-14 -2.38359e-13 -1.01186e-13 1.8445e-13 9.93463e-14 -1.77933e-13 -3.64674e-13 -2.21403e-13 -4.49069e-13 -4.1507e-13 -3.41508e-13 6.06967e-15 3.7283e-13 2.38206e-13 -4.0027e-13 2.68989e-13 -5.19896e-14 -2.05592e-14 4.63449e-14 -8.45488e-13 -5.65574e-13 3.28585e-13 1.38776e-13 6.17375e-13 1.07847e-12 7.92683e-12 8.70104e-11 9.77484e-10 1.00452e-08 9.32881e-08 7.77278e-07 5.76362e-06 3.76616e-05 0.000214226 0.00104439 0.00427765 0.0143645 0.0385738 0.0817691 0.139285 0.201138 0.262185 0.321842 0.380152 0.437069 0.492498 0.546276 0.598157 0.647808 0.694798 0.738607 0.778643 0.814295 0.845007 0.870397 0.890363 0.905161 0.915405 0.921959 0.925784 0.927758 0.928621 0.928805 0.928627 0.928065 0.92683 0.924312 0.919386 0.910156 0.893731 0.86616 0.822738 0.758851 0.671479 0.561257 0.434573 0.304325 0.187478 0.0989301 0.0442811 0.0172537 0.00614585 0.00208095 0.000682811 0.000218684 6.85034e-05 2.09947e-05 6.29357e-06 1.84467e-06 5.28491e-07 1.47959e-07 4.04709e-08 1.08156e-08 2.82278e-09 7.19319e-10 1.80035e-10 4.44446e-11 9.8896e-12 2.13566e-12 -9.58121e-13 3.56681e-13 1.34202e-12 -1.62959e-12 7.06997e-13 -1.19688e-12 5.15173e-13 -7.25487e-13 9.4609e-13 -7.45805e-13 -4.79067e-13 7.42018e-13 -2.58431e-13 1.00891e-12 -1.29025e-12 -1.27435e-13 4.93538e-13 -4.43404e-13 -6.65444e-13 4.04404e-13 -2.19985e-14 5.39765e-13 1.83602e-13 2.52883e-13 -3.55931e-13 -9.50492e-13 1.37174e-13 -8.58501e-13 6.0032e-15 -8.05862e-13 -1.17291e-12 -2.52787e-13 -8.72689e-13 -3.35952e-14 1.21976e-12 -6.47947e-13 1.46921e-12 2.15798e-14 2.12106e-13 2.26539e-13 -1.12797e-12 7.62203e-13 -1.07226e-12 3.24729e-13 7.81991e-13 -2.19888e-12 1.25933e-12 -2.52713e-13 -6.21285e-13 -8.30023e-13 -1.64167e-12 2.1295e-12 -2.57409e-13 0
				</DataArray>
				<DataArray Name="VitesseY" type="Float32" format="ascii">