<?xml version="1.0"?>
<VTKFile type="PolyData">
	<PolyData>
		<Piece NumberOfPoints="1206" NumberOfPolys="1000">
			<Points>
				<DataArray type="Float32" NumberOfComponents="3" format="ascii">
 0 0 0 0.005 0 0 0.01 0 0 0.015 0 0 0.02 0 0 0.025 0 0 0.03 0 0 0.035 0 0 0.04 0 0 0.045 0 0 0.05 0 0 0.055 0 0 0.06 0 0 0.065 0 0 0.07 0 0 0.075 0 0 0.08 0 0 0.085 0 0 0.09 0 0 0.095 0 0 0.1 0 0 0.105 0 0 0.11 0 0 0.115 0 0 0.12 0 0 0.125 0 0 0.13 0 0 0.135 0 0 0.14 0 0 0.145 0 0 0.15 0 0 0.155 0 0 0.16 0 0 0.165 0 0 0.17 0 0 0.175 0 0 0.18 0 0 0.185 0 0 0.19 0 0 0.195 0 0 0.2 0 0 0.205 0 0 0.21 0 0 0.215 0 0 0.22 0 0 0.225 0 0 0.23 0 0 0.235 0 0 0.24 0 0 0.245 0 0 0.25 0 0 0.255 0 0 0.26 0 0 0.265 0 0 0.27 0 0 0.275 0 0 0.28 0 0 0.285 0 0 0.29 0 0 0.295 0 0 0.3 0 0 0.305 0 0 0.31 0 0 0.315 0 0 0.32 0 0 0.325 0 0 0.33 0 0 0.335 0 0 0.34 0 0 0.345 0 0 0.35 0 0 0.355 0 0 0.36 0 0 0.365 0 0 0.37 0 0 0.375 0 0 0.38 0 0 0.385 0 0 0.39 0 0 0.395 0 0 0.4 0 0 0.405 0 0 0.41 0 0 0.415 0 0 0.42 0 0 0.425 0 0 0.43 0 0 0.435 0 0 0.44 0 0 0.445 0 0 0.45 0 0 0.455 0 0 0.46 0 0 0.465 0 0 0.47 0 0 0.475 0 0 0.48 0 0 0.485 0 0 0.49 0 0 0.495 0 0 0.5 0 0 0.505 0 0 0.51 0 0 0.515 0 0 0.52 0 0 0.525 0 0 0.53 0 0 0.535 0 0 0.54 0 0 0.545 0 0 0.55 0 0 0.555 0 0 0.56 0 0 0.565 0 0 0.57 0 0 0.575 0 0 0.58 0 0 0.585 0 0 0.59 0 0 0.595 0 0 0.6 0 0 0.605 0 0 0.61 0 0 0.615 0 0 0.62 0 0 0.625 0 0 0.63 0 0 0.635 0 0 0.64 0 0 0.645 0 0 0.65 0 0 0.655 0 0 0.66 0 0 0.665 0 0 0.67 0 0 0.675 0 0 0.68 0 0 0.685 0 0 0.69 0 0 0.695 0 0 0.7 0 0 0.705 0 0 0.71 0 0 0.715 0 0 0.72 0 0 0.725 0 0 0.73 0 0 0.735 0 0 0.74 0 0 0.745 0 0 0.75 0 0 0.755 0 0 0.76 0 0 0.765 0 0 0.77 0 0 0.775 0 0 0.78 0 0 0.785 0 0 0.79 0 0 0.795 0 0 0.8 0 0 0.805 0 0 0.81 0 0 0.815 0 0 0.82 0 0 0.825 0 0 0.83 0 0 0.835 0 0 0.84 0 0 0.845 0 0 0.85 0 0 0.855 0 0 0.86 0 0 0.865 0 0 0.87 0 0 0.875 0 0 0.88 0 0 0.885 0 0 0.89 0 0 0.895 0 0 0.9 0 0 0.905 0 0 0.91 0 0 0.915 0 0 0.92 0 0 0.925 0 0 0.93 0 0 0.935 0 0 0.94 0 0 0.945 0 0 0.95 0 0 0.955 0 0 0.96 0 0 0.965 0 0 0.97 0 0 0.975 0 0 0.98 0 0 0.985 0 0 0.99 0 0 0.995 0 0 1 0 0 0 0.02 0 0.005 0.02 0 0.01 0.02 0 0.015 0.02 0 0.02 0.02 0 0.025 0.02 0 0.03 0.02 0 0.035 0.02 0 0.04 0.02 0 0.045 0.02 0 0.05 0.02 0 0.055 0.02 0 0.06 0.02 0 0.065 0.02 0 0.07 0.02 0 0.075 0.02 0 0.08 0.02 0 0.085 0.02 0 0.09 0.02 0 0.095 0.02 0 0.1 0.02 0 0.105 0.02 0 0.11 0.02 0 0.115 0.02 0 0.12 0.02 0 0.125 0.02 0 0.13 0.02 0 0.135 0.02 0 0.14 0.02 0 0.145 0.02 0 0.15 0.02 0 0.155 0.02 0 0.16 0.02 0 0.165 0.02 0 0.17 0.02 0 0.175 0.02 0 0.18 0.02 0 0.185 0.02 0 0.19 0.02 0 0.195 0.02 0 0.2 0.02 0 0.205 0.02 0 0.21 0.02 0 0.215 0.02 0 0.22 0.02 0 0.225 0.02 0 0.23 0.02 0 0.235 0.02 0 0.24 0.02 0 0.245 0.02 0 0.25 0.02 0 0.255 0.02 0 0.26 0.02 0 0.265 0.02 0 0.27 0.02 0 0.275 0.02 0 0.28 0.02 0 0.285 0.02 0 0.29 0.02 0 0.295 0.02 0 0.3 0.02 0 0.305 0.02 0 0.31 0.02 0 0.315 0.02 0 0.32 0.02 0 0.325 0.02 0 0.33 0.02 0 0.335 0.02 0 0.34 0.02 0 0.345 0.02 0 0.35 0.02 0 0.355 0.02 0 0.36 0.02 0 0.365 0.02 0 0.37 0.02 0 0.375 0.02 0 0.38 0.02 0 0.385 0.02 0 0.39 0.02 0 0.395 0.02 0 0.4 0.02 0 0.405 0.02 0 0.41 0.02 0 0.415 0.02 0 0.42 0.02 0 0.425 0.02 0 0.43 0.02 0 0.435 0.02 0 0.44 0.02 0 0.445 0.02 0 0.45 0.02 0 0.455 0.02 0 0.46 0.02 0 0.465 0.02 0 0.47 0.02 0 0.475 0.02 0 0.48 0.02 0 0.485 0.02 0 0.49 0.02 0 0.495 0.02 0 0.5 0.02 0 0.505 0.02 0 0.51 0.02 0 0.515 0.02 0 0.52 0.02 0 0.525 0.02 0 0.53 0.02 0 0.535 0.02 0 0.54 0.02 0 0.545 0.02 0 0.55 0.02 0 0.555 0.02 0 0.56 0.02 0 0.565 0.02 0 0.57 0.02 0 0.575 0.02 0 0.58 0.02 0 0.585 0.02 0 0.59 0.02 0 0.595 0.02 0 0.6 0.02 0 0.605 0.02 0 0.61 0.02 0 0.615 0.02 0 0.62 0.02 0 0.625 0.02 0 0.63 0.02 0 0.635 0.02 0 0.64 0.02 0 0.645 0.02 0 0.65 0.02 0 0.655 0.02 0 0.66 0.02 0 0.665 0.02 0 0.67 0.02 0 0.675 0.02 0 0.68 0.02 0 0.685 0.02 0 0.69 0.02 0 0.695 0.02 0 0.7 0.02 0 0.705 0.02 0 0.71 0.02 0 0.715 0.02 0 0.72 0.02 0 0.725 0.02 0 0.73 0.02 0 0.735 0.02 0 0.74 0.02 0 0.745 0.02 0 0.75 0.02 0 0.755 0.02 0 0.76 0.02 0 0.765 0.02 0 0.77 0.02 0 0.775 0.02 0 0.78 0.02 0 0.785 0.02 0 0.79 0.02 0 0.795 0.02 0 0.8 0.02 0 0.805 0.02 0 0.81 0.02 0 0.815 0.02 0 0.82 0.02 0 0.825 0.02 0 0.83 0.02 0 0.835 0.02 0 0.84 0.02 0 0.845 0.02 0 0.85 0.02 0 0.855 0.02 0 0.86 0.02 0 0.865 0.02 0 0.87 0.02 0 0.875 0.02 0 0.88 0.02 0 0.885 0.02 0 0.89 0.02 0 0.895 0.02 0 0.9 0.02 0 0.905 0.02 0 0.91 0.02 0 0.915 0.02 0 0.92 0.02 0 0.925 0.02 0 0.93 0.02 0 0.935 0.02 0 0.94 0.02 0 0.945 0.02 0 0.95 0.02 0 0.955 0.02 0 0.96 0.02 0 0.965 0.02 0 0.97 0.02 0 0.975 0.02 0 0.98 0.02 0 0.985 0.02 0 0.99 0.02 0 0.995 0.02 0 1 0.02 0 0 0.04 0 0.005 0.04 0 0.01 0.04 0 0.015 0.04 0 0.02 0.04 0 0.025 0.04 0 0.03 0.04 0 0.035 0.04 0 0.04 0.04 0 0.045 0.04 0 0.05 0.04 0 0.055 0.04 0 0.06 0.04 0 0.065 0.04 0 0.07 0.04 0 0.075 0.04 0 0.08 0.04 0 0.085 0.04 0 0.09 0.04 0 0.095 0.04 0 0.1 0.04 0 0.105 0.04 0 0.11 0.04 0 0.115 0.04 0 0.12 0.04 0 0.125 0.04 0 0.13 0.04 0 0.135 0.04 0 0.14 0.04 0 0.145 0.04 0 0.15 0.04 0 0.155 0.04 0 0.16 0.04 0 0.165 0.04 0 0.17 0.04 0 0.175 0.04 0 0.18 0.04 0 0.185 0.04 0 0.19 0.04 0 0.195 0.04 0 0.2 0.04 0 0.205 0.04 0 0.21 0.04 0 0.215 0.04 0 0.22 0.04 0 0.225 0.04 0 0.23 0.04 0 0.235 0.04 0 0.24 0.04 0 0.245 0.04 0 0.25 0.04 0 0.255 0.04 0 0.26 0.04 0 0.265 0.04 0 0.27 0.04 0 0.275 0.04 0 0.28 0.04 0 0.285 0.04 0 0.29 0.04 0 0.295 0.04 0 0.3 0.04 0 0.305 0.04 0 0.31 0.04 0 0.315 0.04 0 0.32 0.04 0 0.325 0.04 0 0.33 0.04 0 0.335 0.04 0 0.34 0.04 0 0.345 0.04 0 0.35 0.04 0 0.355 0.04 0 0.36 0.04 0 0.365 0.04 0 0.37 0.04 0 0.375 0.04 0 0.38 0.04 0 0.385 0.04 0 0.39 0.04 0 0.395 0.04 0 0.4 0.04 0 0.405 0.04 0 0.41 0.04 0 0.415 0.04 0 0.42 0.04 0 0.425 0.04 0 0.43 0.04 0 0.435 0.04 0 0.44 0.04 0 0.445 0.04 0 0.45 0.04 0 0.455 0.04 0 0.46 0.04 0 0.465 0.04 0 0.47 0.04 0 0.475 0.04 0 0.48 0.04 0 0.485 0.04 0 0.49 0.04 0 0.495 0.04 0 0.5 0.04 0 0.505 0.04 0 0.51 0.04 0 0.515 0.04 0 0.52 0.04 0 0.525 0.04 0 0.53 0.04 0 0.535 0.04 0 0.54 0.04 0 0.545 0.04 0 0.55 0.04 0 0.555 0.04 0 0.56 0.04 0 0.565 0.04 0 0.57 0.04 0 0.575 0.04 0 0.58 0.04 0 0.585 0.04 0 0.59 0.04 0 0.595 0.04 0 0.6 0.04 0 0.605 0.04 0 0.61 0.04 0 0.615 0.04 0 0.62 0.04 0 0.625 0.04 0 0.63 0.04 0 0.635 0.04 0 0.64 0.04 0 0.645 0.04 0 0.65 0.04 0 0.655 0.04 0 0.66 0.04 0 0.665 0.04 0 0.67 0.04 0 0.675 0.04 0 0.68 0.04 0 0.685 0.04 0 0.69 0.04 0 0.695 0.04 0 0.7 0.04 0 0.705 0.04 0 0.71 0.04 0 0.715 0.04 0 0.72 0.04 0 0.725 0.04 0 0.73 0.04 0 0.735 0.04 0 0.74 0.04 0 0.745 0.04 0 0.75 0.04 0 0.755 0.04 0 0.76 0.04 0 0.765 0.04 0 0.77 0.04 0 0.775 0.04 0 0.78 0.04 0 0.785 0.04 0 0.79 0.04 0 0.795 0.04 0 0.8 0.04 0 0.805 0.04 0 0.81 0.04 0 0.815 0.04 0 0.82 0.04 0 0.825 0.04 0 0.83 0.04 0 0.835 0.04 0 0.84 0.04 0 0.845 0.04 0 0.85 0.04 0 0.855 0.04 0 0.86 0.04 0 0.865 0.04 0 0.87 0.04 0 0.875 0.04 0 0.88 0.04 0 0.885 0.04 0 0.89 0.04 0 0.895 0.04 0 0.9 0.04 0 0.905 0.04 0 0.91 0.04 0 0.915 0.04 0 0.92 0.04 0 0.925 0.04 0 0.93 0.04 0 0.935 0.04 0 0.94 0.04 0 0.945 0.04 0 0.95 0.04 0 0.955 0.04 0 0.96 0.04 0 0.965 0.04 0 0.97 0.04 0 0.975 0.04 0 0.98 0.04 0 0.985 0.04 0 0.99 0.04 0 0.995 0.04 0 1 0.04 0 0 0.06 0 0.005 0.06 0 0.01 0.06 0 0.015 0.06 0 0.02 0.06 0 0.025 0.06 0 0.03 0.06 0 0.035 0.06 0 0.04 0.06 0 0.045 0.06 0 0.05 0.06 0 0.055 0.06 0 0.06 0.06 0 0.065 0.06 0 0.07 0.06 0 0.075 0.06 0 0.08 0.06 0 0.085 0.06 0 0.09 0.06 0 0.095 0.06 0 0.1 0.06 0 0.105 0.06 0 0.11 0.06 0 0.115 0.06 0 0.12 0.06 0 0.125 0.06 0 0.13 0.06 0 0.135 0.06 0 0.14 0.06 0 0.145 0.06 0 0.15 0.06 0 0.155 0.06 0 0.16 0.06 0 0.165 0.06 0 0.17 0.06 0 0.175 0.06 0 0.18 0.06 0 0.185 0.06 0 0.19 0.06 0 0.195 0.06 0 0.2 0.06 0 0.205 0.06 0 0.21 0.06 0 0.215 0.06 0 0.22 0.06 0 0.225 0.06 0 0.23 0.06 0 0.235 0.06 0 0.24 0.06 0 0.245 0.06 0 0.25 0.06 0 0.255 0.06 0 0.26 0.06 0 0.265 0.06 0 0.27 0.06 0 0.275 0.06 0 0.28 0.06 0 0.285 0.06 0 0.29 0.06 0 0.295 0.06 0 0.3 0.06 0 0.305 0.06 0 0.31 0.06 0 0.315 0.06 0 0.32 0.06 0 0.325 0.06 0 0.33 0.06 0 0.335 0.06 0 0.34 0.06 0 0.345 0.06 0 0.35 0.06 0 0.355 0.06 0 0.36 0.06 0 0.365 0.06 0 0.37 0.06 0 0.375 0.06 0 0.38 0.06 0 0.385 0.06 0 0.39 0.06 0 0.395 0.06 0 0.4 0.06 0 0.405 0.06 0 0.41 0.06 0 0.415 0.06 0 0.42 0.06 0 0.425 0.06 0 0.43 0.06 0 0.435 0.06 0 0.44 0.06 0 0.445 0.06 0 0.45 0.06 0 0.455 0.06 0 0.46 0.06 0 0.465 0.06 0 0.47 0.06 0 0.475 0.06 0 0.48 0.06 0 0.485 0.06 0 0.49 0.06 0 0.495 0.06 0 0.5 0.06 0 0.505 0.06 0 0.51 0.06 0 0.515 0.06 0 0.52 0.06 0 0.525 0.06 0 0.53 0.06 0 0.535 0.06 0 0.54 0.06 0 0.545 0.06 0 0.55 0.06 0 0.555 0.06 0 0.56 0.06 0 0.565 0.06 0 0.57 0.06 0 0.575 0.06 0 0.58 0.06 0 0.585 0.06 0 0.59 0.06 0 0.595 0.06 0 0.6 0.06 0 0.605 0.06 0 0.61 0.06 0 0.615 0.06 0 0.62 0.06 0 0.625 0.06 0 0.63 0.06 0 0.635 0.06 0 0.64 0.06 0 0.645 0.06 0 0.65 0.06 0 0.655 0.06 0 0.66 0.06 0 0.665 0.06 0 0.67 0.06 0 0.675 0.06 0 0.68 0.06 0 0.685 0.06 0 0.69 0.06 0 0.695 0.06 0 0.7 0.06 0 0.705 0.06 0 0.71 0.06 0 0.715 0.06 0 0.72 0.06 0 0.725 0.06 0 0.73 0.06 0 0.735 0.06 0 0.74 0.06 0 0.745 0.06 0 0.75 0.06 0 0.755 0.06 0 0.76 0.06 0 0.765 0.06 0 0.77 0.06 0 0.775 0.06 0 0.78 0.06 0 0.785 0.06 0 0.79 0.06 0 0.795 0.06 0 0.8 0.06 0 0.805 0.06 0 0.81 0.06 0 0.815 0.06 0 0.82 0.06 0 0.825 0.06 0 0.83 0.06 0 0.835 0.06 0 0.84 0.06 0 0.845 0.06 0 0.85 0.06 0 0.855 0.06 0 0.86 0.06 0 0.865 0.06 0 0.87 0.06 0 0.875 0.06 0 0.88 0.06 0 0.885 0.06 0 0.89 0.06 0 0.895 0.06 0 0.9 0.06 0 0.905 0.06 0 0.91 0.06 0 0.915 0.06 0 0.92 0.06 0 0.925 0.06 0 0.93 0.06 0 0.935 0.06 0 0.94 0.06 0 0.945 0.06 0 0.95 0.06 0 0.955 0.06 0 0.96 0.06 0 0.965 0.06 0 0.97 0.06 0 0.975 0.06 0 0.98 0.06 0 0.985 0.06 0 0.99 0.06 0 0.995 0.06 0 1 0.06 0 0 0.08 0 0.005 0.08 0 0.01 0.08 0 0.015 0.08 0 0.02 0.08 0 0.025 0.08 0 0.03 0.08 0 0.035 0.08 0 0.04 0.08 0 0.045 0.08 0 0.05 0.08 0 0.055 0.08 0 0.06 0.08 0 0.065 0.08 0 0.07 0.08 0 0.075 0.08 0 0.08 0.08 0 0.085 0.08 0 0.09 0.08 0 0.095 0.08 0 0.1 0.08 0 0.105 0.08 0 0.11 0.08 0 0.115 0.08 0 0.12 0.08 0 0.125 0.08 0 0.13 0.08 0 0.135 0.08 0 0.14 0.08 0 0.145 0.08 0 0.15 0.08 0 0.155 0.08 0 0.16 0.08 0 0.165 0.08 0
[...]
			<PointData Scalars="VitesseX">
				<DataArray Name="VitesseX" type="Float32" format="ascii">
 0 -1.09151e-14 2.33162e-14 5.83874e-15 -1.29196e-14 1.14358e-14 6.67574e-14 -4.46718e-14 -1.89331e-14 -7.37376e-14 2.13388e-14 -2.3382e-14 6.5925e-14 -8.8686e-14 -3.34439e-14 2.88047e-14 -1.55007e-13 -1.87876e-14 -9.26999e-14 -7.01057e-14 -8.91378e-14 -7.2537e-14 -2.20616e-13 -1.44508e-14 3.29573e-14 -1.33214e-13 -2.77151e-13 -1.39243e-14 -1.13905e-13 -7.20026e-14 -3.07159e-14 -6.11814e-14 -8.4953e-14 -8.55727e-14 3.05527e-14 -3.29559e-13 4.7887e-15 -1.92841e-13 -1.55737e-13 -6.65486e-14 -2.16219e-13 -1.26337e-13 7.62565e-14 1.94994e-13 -6.33376e-14 -7.43621e-15 -1.95159e-13 -1.43393e-13 9.3717e-14 1.13085e-14 -1.97604e-13 -3.56328e-13 -3.46061e-13 3.28983e-13 4.577e-15 -1.40702e-13 -1.12265e-13 -1.88232e-13 4.45792e-14 -1.455e-13 6.83017e-14 -3.62587e-13 -1.51307e-13 -2.32258e-14 -2.59793e-13 1.46548e-13 7.93818e-13 7.58579e-12 7.56479e-11 6.91418e-10 5.87853e-09 4.58836e-08 3.27271e-07 2.12076e-06 1.23998e-05 6.48738e-05 0.000300617 0.00121811 0.00424785 0.0125133 0.0305889 0.061537 0.103186 0.14967 0.196815 0.243468 0.289534 0.334996 0.379835 0.424015 0.467488 0.510179 0.551989 0.592788 0.632408 0.67064 0.707233 0.74189 0.774276 0.804029 0.83079 0.854241 0.874151 0.890431 0.903174 0.912658 0.919324 0.923712 0.926382 0.927847 0.928524 0.928726 0.92869 0.928557 0.928363 0.928123 0.927831 0.927445 0.926865 0.925891 0.924152 0.920998 0.915348 0.905506 0.888975 0.862379 0.821624 0.762493 0.681836 0.57935 0.459605 0.333198 0.215371 0.121121 0.0584934 0.02464 0.00944555 0.00343421 0.00121294 0.000420412 0.000143493 4.82664e-05 1.59976e-05 5.22237e-06 1.6783e-06 5.30711e-07 1.65065e-07 5.04801e-08 1.51738e-08 4.48243e-09 1.30129e-09 3.70043e-10 1.04193e-10 2.7468e-11 7.58534e-12 1.41571e-12 5.66343e-13 -6.44311e-14 -2.31622e-13 5.55777e-15 6.36225e-14 1.93906e-13 -4.11088e-13 -2.10918e-13 4.7558e-13 -4.73665e-13 -1.51606e-13 -1.66933e-13 -8.47503e-13 1.18298e-12 -1.65909e-13 -6.52881e-13 -2.00408e-13 -7.30644e-13 6.25723e-13 -1.01204e-12 2.74101e-13 1.6317e-13 -5.50213e-13 6.41886e-13 -4.12837e-14 -5.79131e-13 9.78494e-13 -6.29226e-13 4.62024e-13 -6.33552e-13 1.64203e-13 -5.87599e-13 -2.28382e-13 -8.30721e-14 -6.3777e-13 -8.83695e-13 1.56093e-12 -6.39478e-13 -2.82476e-13 -2.17285e-13 1.12236e-13 5.59028e-13 -7.54419e-16 -8.14607e-14 0 0 2.37214e-14 8.74514e-15 1.41691e-14 2.51376e-14 1.17067e-14 -4.50107e-14 3.81022e-15 -3.5072e-14 1.77061e-15 -6.85575e-14 3.8681e-15 -4.27115e-14 3.51791e-14 -6.13202e-14 -4.0654e-14 1.64345e-14 -1.4025e-13 -2.7802e-14 -8.19805e-14 -7.97666e-14 -7.57401e-14 3.1219e-14 -1.50745e-13 -2.067e-13 -8.96141e-14 5.69543e-14 -1.74825e-13 -9.72555e-14 -5.88311e-14 -1.11177e-13 -6.13075e-14 -4.81259e-14 -9.69347e-14 -2.06238e-13 -4.53673e-14 -1.77238e-13 -5.7266e-14 -1.63135e-13 -1.31681e-13 -6.29438e-14 -5.35082e-14 6.10864e-14 -1.76049e-13 7.0322e-14 5.22598e-14 -2.57411e-14 -1.33441e-13 -1.75522e-13 -2.28688e-13 -1.55319e-13 -7.53402e-14 1.21902e-13 -4.7558e-13 -7.43429e-14 1.73884e-13 -7.07678e-14 -1.36337e-13 -1.20545e-13 6.1607e-14 -1.35211e-13 -6.34684e-14 -4.40124e-16 -2.48579e-13 -8.5669e-15 -4.55573e-14 7.9061e-13 7.64465e-12 7.51288e-11 6.92164e-10 5.87856e-09 4.58829e-08 3.2727e-07 2.12076e-06 1.23998e-05 6.48738e-05 0.000300617 0.00121811 0.00424785 0.0125133 0.0305889 0.061537 0.103186 0.14967 0.196815 0.243468 0.289534 0.334996 0.379835 0.424015 0.467488 0.510179 0.551989 0.592788 0.632408 0.67064 0.707233 0.74189 0.774276 0.804029 0.83079 0.854241 0.874151 0.890431 0.903174 0.912658 0.919324 0.923712 0.926382 0.927847 0.928524 0.928726 0.92869 0.928557 0.928363 0.928123 0.927831 0.927445 0.926865 0.925891 0.924152 0.920998 0.915348 0.905506 0.888975 0.862379 0.821624 0.762493 0.681836 0.57935 0.459605 0.333198 0.215371 0.121121 0.0584934 0.02464 0.00944555 0.00343421 0.00121294 0.000420412 0.000143493 4.82664e-05 1.59976e-05 5.22237e-06 1.6783e-06 5.3071e-07 1.65066e-07 5.0479e-08 1.51745e-08 4.48259e-09 1.30042e-09 3.71106e-10 1.0302e-10 2.86594e-11 7.16666e-12 1.9416e-12 -1.77299e-13 1.68731e-14 -5.25794e-14 -1.36441e-13 -4.34438e-14 -3.35068e-13 6.36182e-14 1.09005e-13 -6.48088e-13 1.25298e-13 -9.17012e-14 -3.42978e-13 5.31922e-13 -6.2717e-13 -2.05144e-13 -4.56271e-14 -3.43252e-13 3.91967e-14 -6.48027e-13 2.54964e-13 -5.64497e-13 -1.21311e-14 2.20421e-13 -1.48336e-13 5.78228e-14 4.73341e-13 -4.54242e-13 7.08413e-13 -4.35117e-13 -3.55095e-14 -2.32324e-13 -1.5686e-13 1.60473e-13 -7.99692e-13 -2.13923e-14 2.40215e-13 -8.50348e-13 1.21902e-13 3.32452e-13 2.5387e-14 2.99002e-13 -4.1346e-13 4.11354e-13 6.36857e-13 0 0 -1.06063e-15 2.05254e-15 2.30386e-14 5.83491e-16 -2.45178e-15 5.93801e-16 -8.62232e-15 -2.30077e-14 -3.26272e-14 -2.78025e-14 -3.7527e-14 -8.10174e-15 -5.34989e-14 -1.20865e-15 -2.05452e-14 -9.08681e-14 1.56577e-14 -3.61863e-14 -9.15205e-14 -7.90466e-14 2.7354e-14 -1.21722e-13 -3.51605e-14 -4.78592e-14 -6.90513e-14 -1.56131e-13 -7.77051e-14 -1.62713e-13 -6.45864e-14 -6.45903e-14 -6.64195e-14 -6.55517e-14 -1.64809e-13 -8.06819e-14 -1.78057e-13 -1.21872e-13 -1.00751e-13 -5.99085e-14 -1.00304e-13 -3.20953e-14 -4.2982e-14 2.63493e-14 -9.95242e-14 -1.6095e-13 -1.00012e-13 7.49325e-14 -9.3535e-14 -1.74316e-13 -5.89532e-14 -1.81771e-13 -8.26242e-14 -2.81917e-13 -7.86568e-14 1.11922e-13 -3.14905e-13 -1.83201e-14 8.80273e-14 -8.38803e-14 -5.82226e-14 1.25375e-13 -4.5193e-14 -1.21439e-13 -4.49855e-14 -1.56032e-13 1.04246e-13 6.36021e-13 7.74893e-12 7.52627e-11 6.91885e-10 5.87863e-09 4.58831e-08 3.2727e-07 2.12076e-06 1.23998e-05 6.48738e-05 0.000300617 0.00121811 0.00424785 0.0125133 0.0305889 0.061537 0.103186 0.14967 0.196815 0.243468 0.289534 0.334996 0.379835 0.424015 0.467488 0.510179 0.551989 0.592788 0.632408 0.67064 0.707233 0.74189 0.774276 0.804029 0.83079 0.854241 0.874151 0.890431 0.903174 0.912658 0.919324 0.923712 0.926382 0.927847 0.928524 0.928726 0.92869 0.928557 0.928363 0.928123 0.927831 0.927445 0.926865 0.925891 0.924152 0.920998 0.915348 0.905506 0.888975 0.862379 0.821624 0.762493 0.681836 0.57935 0.459605 0.333198 0.215371 0.121121 0.0584934 0.02464 0.00944555 0.00343421 0.00121294 0.000420412 0.000143493 4.82664e-05 1.59976e-05 5.22237e-06 1.6783e-06 5.3071e-07 1.65065e-07 5.04797e-08 1.51742e-08 4.48241e-09 1.30081e-09 3.70414e-10 1.03691e-10 2.82462e-11 7.62892e-12 1.48924e-12 2.94437e-13 -2.13246e-13 5.89778e-14 -5.26238e-14 -3.85261e-13 -7.59129e-14 -9.55808e-14 -2.76904e-13 -2.53124e-13 -2.52082e-13 -4.30934e-13 -9.97615e-14 -6.81174e-14 1.03986e-14 -2.75379e-13 -1.71703e-13 2.47511e-13 -3.44923e-13 -6.0925e-13 -2.61134e-13 2.19072e-13 -5.47079e-13 4.35658e-14 1.9995e-13 1.95963e-13 1.51437e-13 1.31086e-13 -4.96402e-13 -7.08976e-14 7.66078e-13 -1.98403e-13 1.2995e-13 -8.16937e-13 3.77188e-13 -2.6401e-13 -6.00555e-13 -1.20262e-13 5.82483e-14 2.53836e-13 5.54009e-13 -4.52826e-13 1.10755e-14 2.98985e-13 4.5002e-13 0 0 -2.47655e-14 -2.38741e-14 -2.21214e-14 -1.89609e-14 -2.27367e-14 1.88539e-14 -2.81054e-14 -1.04207e-14 -1.28396e-14 -1.45628e-14 3.58849e-14 -9.1984e-15 -4.97608e-14 -7.6047e-15 -3.42349e-14 -7.38432e-14 -6.71118e-14 -1.10749e-13 2.75744e-14 -4.33896e-14 3.79319e-14 -6.32929e-14 -1.19051e-14 4.43274e-16 -1.3111e-13 -1.88574e-13 -7.24569e-14 -5.52859e-14 -8.35338e-14 -1.18454e-14 -1.78071e-13 -2.12732e-13 -1.21378e-13 -7.62079e-14 -1.44128e-13 -6.19355e-14 -6.46057e-14 -6.11389e-14 -5.30581e-14 -1.73352e-13 -3.45841e-14 -8.03526e-14 6.37763e-14 7.0588e-14 -6.62418e-14 -1.80309e-13 -1.15324e-13 6.14822e-14 -7.95179e-14 -1.4601e-13 -3.46702e-13 4.89449e-14 -1.42905e-13 -4.37863e-14 -1.10001e-13 -8.49016e-14 -1.1485e-13 1.14905e-13 -2.36132e-15 -1.87577e-13 -1.03748e-13 -1.89659e-13 -1.88306e-14 -1.69709e-13 2.40766e-13 9.49769e-13 7.52145e-12 7.53842e-11 6.91876e-10 5.87889e-09 4.58834e-08 3.2727e-07 2.12076e-06 1.23998e-05 6.48738e-05 0.000300617 0.00121811 0.00424785 0.0125133 0.0305889 0.061537 0.103186 0.14967 0.196815 0.243468 0.289534 0.334996 0.379835 0.424015 0.467488 0.510179 0.551989 0.592788 0.632408 0.67064 0.707233 0.74189 0.774276 0.804029 0.83079 0.854241 0.874151 0.890431 0.903174 0.912658 0.919324 0.923712 0.926382 0.927847 0.928524 0.928726 0.92869 0.928557 0.928363 0.928123 0.927831 0.927445 0.926865 0.925891 0.924152 0.920998 0.915348 0.905506 0.888975 0.862379 0.821624 0.762493 0.681836 0.57935 0.459605 0.333198 0.215371 0.121121 0.0584934 0.02464 0.00944555 0.00343421 0.00121294 0.000420412 0.000143493 4.82664e-05 1.59976e-05 5.22237e-06 1.6783e-06 5.3071e-07 1.65065e-07 5.04794e-08 1.5174e-08 4.48232e-09 1.30088e-09 3.70906e-10 1.03773e-10 2.80674e-11 7.45538e-12 1.93448e-12 3.48016e-13 3.12021e-13 -3.19479e-13 -1.01744e-13 -2.0416e-13 1.82921e-13 -6.82441e-13 -1.74119e-13 1.29289e-13 -2.73702e-13 -3.55491e-13 1.05344e-13 -7.14548e-13 1.90878e-13 7.55876e-14 -2.63026e-13 -7.06568e-13 -2.39097e-13 -8.63534e-14 -2.79244e-13 -4.61608e-13 -2.16878e-14 -1.82685e-13 7.74302e-13 -2.06831e-13 -5.67785e-13 4.37397e-13 -1.73272e-13 -1.51639e-13 -3.81466e-13 1.99966e-13 2.71262e-13 -3.26053e-13 -3.75967e-13 -1.37623e-14 -1.21273e-12 7.35278e-13 3.36891e-14 -1.18905e-13 -2.25249e-13 -4.76307e-14 2.77837e-13 3.37659e-13 -3.11161e-13 0 0 -8.46324e-15 -4.16783e-14 -4.82439e-14 -2.90257e-14 -3.91773e-14 -6.38191e-14 6.10877e-15 1.31663e-14 2.55319e-14 -4.55336e-14 2.43321e-14 -6.63556e-14 5.02727e-14 -2.12088e-14 -1.69854e-14 4.47433e-14 -1.44824e-13 -3.87236e-15 2.77394e-14 -4.56339e-14 -5.79794e-14 1.01253e-13 -1.29284e-13 -1.64568e-13 -2.32049e-13 3.95978e-14 -1.73573e-13 -7.55296e-14 -1.50124e-14 -9.94959e-14 -1.14866e-13 -1.12325e-13 -1.55782e-14 -2.2186e-13 -3.68864e-14 -9.4783e-14 -1.02194e-13 -1.51129e-13 -1.338e-13 -1.41337e-13 -3.76548e-14 -8.88539e-14 6.73394e-14 2.44198e-13 -2.14579e-14 -4.22905e-14 -1.17238e-13 -3.88676e-14 -2.15403e-13 -6.69715e-14 -1.7336e-13 3.1919e-13 -5.04877e-13 -1.92925e-13 1.38529e-13 9.32666e-14 -2.93732e-13 1.13718e-13 1.12002e-13 -3.80283e-13 -2.36449e-13 -3.73268e-13 -1.52563e-13 1.77518e-13 1.30704e-13 1.10448e-12 7.65355e-12 7.53357e-11 6.92209e-10 5.87893e-09 4.58831e-08 3.2727e-07 2.12076e-06 1.23998e-05 6.48738e-05 0.000300617 0.00121811 0.00424785 0.0125133 0.0305889 0.061537 0.103186 0.14967 0.196815 0.243468 0.289534 0.334996 0.379835 0.424015 0.467488 0.510179 0.551989 0.592788 0.632408 0.67064 0.707233 0.74189 0.774276 0.804029 0.83079 0.854241 0.874151 0.890431 0.903174 0.912658 0.919324 0.923712 0.926382 0.927847 0.928524 0.928726 0.92869 0.928557 0.928363 0.928123 0.927831 0.927445 0.926865 0.925891 0.924152 0.920998 0.915348 0.905506 0.888975 0.862379 0.821624 0.762493 0.681836 0.57935 0.459605 0.333198 0.215371 0.121121 0.0584934 0.02464 0.00944555 0.00343421 0.00121294 0.000420412 0.000143493 4.82664e-05 1.59976e-05 5.22237e-06 1.6783e-06 5.3071e-07 1.65066e-07 5.04788e-08 1.51747e-08 4.48251e-09 1.30054e-09 3.71123e-10 1.0321e-10 2.84902e-11 7.0756e-12 2.15713e-12 2.76627e-13 1.81257e-14 2.80602e-13 -2.65816e-13 8.10538e-15 -1.75952e-13 7.23848e-14 1.39849e-14 -1.62127e-13 -2.13602e-13 -2.4657e-13 -1.8363e-13 2.40681e-13 -9.48126e-13 7.92266e-14 -1.67472e-13 -7.21697e-13 1.25227e-13 -6.22754e-13 3.11267e-13 -1.16136e-12 2.05344e-13 2.24946e-13 -2.31134e-13 -2.09297e-13 1.91762e-13 -5.07139e-13 7.77178e-13 -1.48972e-13 -1.28525e-13 -2.64987e-13 1.62878e-13 2.55991e-13 -1.18121e-12 6.1256e-14 -1.87392e-13 -4.18342e-13 6.68161e-13 1.10233e-13 -2.81809e-13 5.61664e-13 -1.68908e-13 2.77768e-13 -7.18639e-14 0 0 -2.78747e-14 -2.56775e-14 -2.86672e-14 -8.21575e-14 -4.97624e-14 -7.37952e-15 -1.10863e-15 5.23695e-14 -6.57903e-14 4.09074e-14 -1.29278e-13 2.083e-14 -6.5975e-14 5.9571e-14 1.03521e-13 -1.32439e-13 1.37605e-13 1.04285e-13 -8.88557e-14 -9.21864e-14 -5.81714e-14 -1.97406e-13 -1.80404e-14 2.06168e-14 -2.93966e-13 -2.46978e-13 -2.19162e-14 -2.85308e-13 5.35296e-14 -1.12844e-13 5.5004e-14 8.10094e-14 -9.72187e-15 -9.63907e-15 -3.80456e-13 4.98256e-14 -3.54986e-13 -1.29264e-13 -1.65278e-13 -9.04921e-14 -1.11426e-13 -1.02205e-14 3.5517e-13 -1.78663e-13 -2.22413e-13 2.82226e-13 -6.74086e-14 -1.0457e-13 7.9007e-14 -9.24313e-14 -2.42103e-14 -6.13209e-13 3.98886e-13 7.88285e-14 -6.21219e-13 3.48967e-13 -9.72673e-14 1.15535e-13 -1.56433e-13 2.04059e-13 -5.91438e-13 -7.60523e-13 1.16496e-13 1.3973e-13 2.26029e-13 7.94061e-13 8.05856e-12 7.58188e-11 6.91526e-10 5.87874e-09 4.58836e-08 3.27271e-07 2.12076e-06 1.23998e-05 6.48738e-05 0.000300617 0.00121811 0.00424785 0.0125133 0.0305889 0.061537 0.103186 0.14967 0.196815 0.243468 0.289534 0.334996 0.379835 0.424015 0.467488 0.510179 0.551989 0.592788 0.632408 0.67064 0.707233 0.74189 0.774276 0.804029 0.83079 0.854241 0.874151 0.890431 0.903174 0.912658 0.919324 0.923712 0.926382 0.927847 0.928524 0.928726 0.92869 0.928557 0.928363 0.928123 0.927831 0.927445 0.926865 0.925891 0.924152 0.920998 0.915348 0.905506 0.888975 0.862379 0.821624 0.762493 0.681836 0.57935 0.459605 0.333198 0.215371 0.121121 0.0584934 0.02464 0.00944555 0.00343421 0.00121294 0.000420412 0.000143493 4.82664e-05 1.59976e-05 5.22237e-06 1.6783e-06 5.30711e-07 1.65065e-07 5.04803e-08 1.51744e-08 4.48246e-09 1.30138e-09 3.69093e-10 1.04408e-10 2.74872e-11 7.7503e-12 9.56298e-13 1.36704e-12 -1.11246e-12 1.19166e-12 -1.5495e-13 -1.95481e-13 -5.53144e-15 7.80165e-13 -6.06527e-13 6.82676e-13 -1.10822e-12 -6.12228e-13 -2.58447e-13 -1.37123e-13 1.80106e-13 -2.99101e-13 -7.13926e-13 9.50859e-13 -7.70237e-13 -3.69525e-13 -8.63214e-13 4.4174e-13 -4.52661e-13 -8.86625e-14 -6.72415e-13 2.30067e-13 2.96157e-13 2.60079e-13 -1.13795e-12 1.1958e-12 1.4755e-12 -6.9786e-13 -2.30748e-13 -1.01911e-12 6.6021e-13 -9.72969e-13 -5.14566e-13 7.13866e-13 5.02157e-13 1.85676e-14 7.26839e-13 -1.7283e-13 5.14607e-13 -3.45276e-13 2.34601e-14 0
				</DataArray>
				<DataArray Name="VitesseY" type="Float32" format="ascii">