<?xml version="1.0"?>
<VTKFile type="PolyData">
	<PolyData>
		<Piece NumberOfPoints="1206" NumberOfPolys="1000">
			<Points>
				<DataArray type="Float32" NumberOfComponents="3" format="ascii">
 0 0 0 0.005 0 0 0.01 0 0 0.015 0 0 0.02 0 0 0.025 0 0 0.03 0 0 0.035 0 0 0.04 0 0 0.045 0 0 0.05 0 0 0.055 0 0 0.06 0 0 0.065 0 0 0.07 0 0 0.075 0 0 0.08 0 0 0.085 0 0 0.09 0 0 0.095 0 0 0.1 0 0 0.105 0 0 0.11 0 0 0.115 0 0 0.12 0 0 0.125 0 0 0.13 0 0 0.135 0 0 0.14 0 0 0.145 0 0 0.15 0 0 0.155 0 0 0.16 0 0 0.165 0 0 0.17 0 0 0.175 0 0 0.18 0 0 0.185 0 0 0.19 0 0 0.195 0 0 0.2 0 0 0.205 0 0 0.21 0 0 0.215 0 0 0.22 0 0 0.225 0 0 0.23 0 0 0.235 0 0 0.24 0 0 0.245 0 0 0.25 0 0 0.255 0 0 0.26 0 0 0.265 0 0 0.27 0 0 0.275 0 0 0.28 0 0 0.285 0 0 0.29 0 0 0.295 0 0 0.3 0 0 0.305 0 0 0.31 0 0 0.315 0 0 0.32 0 0 0.325 0 0 0.33 0 0 0.335 0 0 0.34 0 0 0.345 0 0 0.35 0 0 0.355 0 0 0.36 0 0 0.365 0 0 0.37 0 0 0.375 0 0 0.38 0 0 0.385 0 0 0.39 0 0 0.395 0 0 0.4 0 0 0.405 0 0 0.41 0 0 0.415 0 0 0.42 0 0 0.425 0 0 0.43 0 0 0.435 0 0 0.44 0 0 0.445 0 0 0.45 0 0 0.455 0 0 0.46 0 0 0.465 0 0 0.47 0 0 0.475 0 0 0.48 0 0 0.485 0 0 0.49 0 0 0.495 0 0 0.5 0 0 0.505 0 0 0.51 0 0 0.515 0 0 0.52 0 0 0.525 0 0 0.53 0 0 0.535 0 0 0.54 0 0 0.545 0 0 0.55 0 0 0.555 0 0 0.56 0 0 0.565 0 0 0.57 0 0 0.575 0 0 0.58 0 0 0.585 0 0 0.59 0 0 0.595 0 0 0.6 0 0 0.605 0 0 0.61 0 0 0.615 0 0 0.62 0 0 0.625 0 0 0.63 0 0 0.635 0 0 0.64 0 0 0.645 0 0 0.65 0 0 0.655 0 0 0.66 0 0 0.665 0 0 0.67 0 0 0.675 0 0 0.68 0 0 0.685 0 0 0.69 0 0 0.695 0 0 0.7 0 0 0.705 0 0 0.71 0 0 0.715 0 0 0.72 0 0 0.725 0 0 0.73 0 0 0.735 0 0 0.74 0 0 0.745 0 0 0.75 0 0 0.755 0 0 0.76 0 0 0.765 0 0 0.77 0 0 0.775 0 0 0.78 0 0 0.785 0 0 0.79 0 0 0.795 0 0 0.8 0 0 0.805 0 0 0.81 0 0 0.815 0 0 0.82 0 0 0.825 0 0 0.83 0 0 0.835 0 0 0.84 0 0 0.845 0 0 0.85 0 0 0.855 0 0 0.86 0 0 0.865 0 0 0.87 0 0 0.875 0 0 0.88 0 0 0.885 0 0 0.89 0 0 0.895 0 0 0.9 0 0 0.905 0 0 0.91 0 0 0.915 0 0 0.92 0 0 0.925 0 0 0.93 0 0 0.935 0 0 0.94 0 0 0.945 0 0 0.95 0 0 0.955 0 0 0.96 0 0 0.965 0 0 0.97 0 0 0.975 0 0 0.98 0 0 0.985 0 0 0.99 0 0 0.995 0 0 1 0 0 0 0.02 0 0.005 0.02 0 0.01 0.02 0 0.015 0.02 0 0.02 0.02 0 0.025 0.02 0 0.03 0.02 0 0.035 0.02 0 0.04 0.02 0 0.045 0.02 0 0.05 0.02 0 0.055 0.02 0 0.06 0.02 0 0.065 0.02 0 0.07 0.02 0 0.075 0.02 0 0.08 0.02 0 0.085 0.02 0 0.09 0.02 0 0.095 0.02 0 0.1 0.02 0 0.105 0.02 0 0.11 0.02 0 0.115 0.02 0 0.12 0.02 0 0.125 0.02 0 0.13 0.02 0 0.135 0.02 0 0.14 0.02 0 0.145 0.02 0 0.15 0.02 0 0.155 0.02 0 0.16 0.02 0 0.165 0.02 0 0.17 0.02 0 0.175 0.02 0 0.18 0.02 0 0.185 0.02 0 0.19 0.02 0 0.195 0.02 0 0.2 0.02 0 0.205 0.02 0 0.21 0.02 0 0.215 0.02 0 0.22 0.02 0 0.225 0.02 0 0.23 0.02 0 0.235 0.02 0 0.24 0.02 0 0.245 0.02 0 0.25 0.02 0 0.255 0.02 0 0.26 0.02 0 0.265 0.02 0 0.27 0.02 0 0.275 0.02 0 0.28 0.02 0 0.285 0.02 0 0.29 0.02 0 0.295 0.02 0 0.3 0.02 0 0.305 0.02 0 0.31 0.02 0 0.315 0.02 0 0.32 0.02 0 0.325 0.02 0 0.33 0.02 0 0.335 0.02 0 0.34 0.02 0 0.345 0.02 0 0.35 0.02 0 0.355 0.02 0 0.36 0.02 0 0.365 0.02 0 0.37 0.02 0 0.375 0.02 0 0.38 0.02 0 0.385 0.02 0 0.39 0.02 0 0.395 0.02 0 0.4 0.02 0 0.405 0.02 0 0.41 0.02 0 0.415 0.02 0 0.42 0.02 0 0.425 0.02 0 0.43 0.02 0 0.435 0.02 0 0.44 0.02 0 0.445 0.02 0 0.45 0.02 0 0.455 0.02 0 0.46 0.02 0 0.465 0.02 0 0.47 0.02 0 0.475 0.02 0 0.48 0.02 0 0.485 0.02 0 0.49 0.02 0 0.495 0.02 0 0.5 0.02 0 0.505 0.02 0 0.51 0.02 0 0.515 0.02 0 0.52 0.02 0 0.525 0.02 0 0.53 0.02 0 0.535 0.02 0 0.54 0.02 0 0.545 0.02 0 0.55 0.02 0 0.555 0.02 0 0.56 0.02 0 0.565 0.02 0 0.57 0.02 0 0.575 0.02 0 0.58 0.02 0 0.585 0.02 0 0.59 0.02 0 0.595 0.02 0 0.6 0.02 0 0.605 0.02 0 0.61 0.02 0 0.615 0.02 0 0.62 0.02 0 0.625 0.02 0 0.63 0.02 0 0.635 0.02 0 0.64 0.02 0 0.645 0.02 0 0.65 0.02 0 0.655 0.02 0 0.66 0.02 0 0.665 0.02 0 0.67 0.02 0 0.675 0.02 0 0.68 0.02 0 0.685 0.02 0 0.69 0.02 0 0.695 0.02 0 0.7 0.02 0 0.705 0.02 0 0.71 0.02 0 0.715 0.02 0 0.72 0.02 0 0.725 0.02 0 0.73 0.02 0 0.735 0.02 0 0.74 0.02 0 0.745 0.02 0 0.75 0.02 0 0.755 0.02 0 0.76 0.02 0 0.765 0.02 0 0.77 0.02 0 0.775 0.02 0 0.78 0.02 0 0.785 0.02 0 0.79 0.02 0 0.795 0.02 0 0.8 0.02 0 0.805 0.02 0 0.81 0.02 0 0.815 0.02 0 0.82 0.02 0 0.825 0.02 0 0.83 0.02 0 0.835 0.02 0 0.84 0.02 0 0.845 0.02 0 0.85 0.02 0 0.855 0.02 0 0.86 0.02 0 0.865 0.02 0 0.87 0.02 0 0.875 0.02 0 0.88 0.02 0 0.885 0.02 0 0.89 0.02 0 0.895 0.02 0 0.9 0.02 0 0.905 0.02 0 0.91 0.02 0 0.915 0.02 0 0.92 0.02 0 0.925 0.02 0 0.93 0.02 0 0.935 0.02 0 0.94 0.02 0 0.945 0.02 0 0.95 0.02 0 0.955 0.02 0 0.96 0.02 0 0.965 0.02 0 0.97 0.02 0 0.975 0.02 0 0.98 0.02 0 0.985 0.02 0 0.99 0.02 0 0.995 0.02 0 1 0.02 0 0 0.04 0 0.005 0.04 0 0.01 0.04 0 0.015 0.04 0 0.02 0.04 0 0.025 0.04 0 0.03 0.04 0 0.035 0.04 0 0.04 0.04 0 0.045 0.04 0 0.05 0.04 0 0.055 0.04 0 0.06 0.04 0 0.065 0.04 0 0.07 0.04 0 0.075 0.04 0 0.08 0.04 0 0.085 0.04 0 0.09 0.04 0 0.095 0.04 0 0.1 0.04 0 0.105 0.04 0 0.11 0.04 0 0.115 0.04 0 0.12 0.04 0 0.125 0.04 0 0.13 0.04 0 0.135 0.04 0 0.14 0.04 0 0.145 0.04 0 0.15 0.04 0 0.155 0.04 0 0.16 0.04 0 0.165 0.04 0 0.17 0.04 0 0.175 0.04 0 0.18 0.04 0 0.185 0.04 0 0.19 0.04 0 0.195 0.04 0 0.2 0.04 0 0.205 0.04 0 0.21 0.04 0 0.215 0.04 0 0.22 0.04 0 0.225 0.04 0 0.23 0.04 0 0.235 0.04 0 0.24 0.04 0 0.245 0.04 0 0.25 0.04 0 0.255 0.04 0 0.26 0.04 0 0.265 0.04 0 0.27 0.04 0 0.275 0.04 0 0.28 0.04 0 0.285 0.04 0 0.29 0.04 0 0.295 0.04 0 0.3 0.04 0 0.305 0.04 0 0.31 0.04 0 0.315 0.04 0 0.32 0.04 0 0.325 0.04 0 0.33 0.04 0 0.335 0.04 0 0.34 0.04 0 0.345 0.04 0 0.35 0.04 0 0.355 0.04 0 0.36 0.04 0 0.365 0.04 0 0.37 0.04 0 0.375 0.04 0 0.38 0.04 0 0.385 0.04 0 0.39 0.04 0 0.395 0.04 0 0.4 0.04 0 0.405 0.04 0 0.41 0.04 0 0.415 0.04 0 0.42 0.04 0 0.425 0.04 0 0.43 0.04 0 0.435 0.04 0 0.44 0.04 0 0.445 0.04 0 0.45 0.04 0 0.455 0.04 0 0.46 0.04 0 0.465 0.04 0 0.47 0.04 0 0.475 0.04 0 0.48 0.04 0 0.485 0.04 0 0.49 0.04 0 0.495 0.04 0 0.5 0.04 0 0.505 0.04 0 0.51 0.04 0 0.515 0.04 0 0.52 0.04 0 0.525 0.04 0 0.53 0.04 0 0.535 0.04 0 0.54 0.04 0 0.545 0.04 0 0.55 0.04 0 0.555 0.04 0 0.56 0.04 0 0.565 0.04 0 0.57 0.04 0 0.575 0.04 0 0.58 0.04 0 0.585 0.04 0 0.59 0.04 0 0.595 0.04 0 0.6 0.04 0 0.605 0.04 0 0.61 0.04 0 0.615 0.04 0 0.62 0.04 0 0.625 0.04 0 0.63 0.04 0 0.635 0.04 0 0.64 0.04 0 0.645 0.04 0 0.65 0.04 0 0.655 0.04 0 0.66 0.04 0 0.665 0.04 0 0.67 0.04 0 0.675 0.04 0 0.68 0.04 0 0.685 0.04 0 0.69 0.04 0 0.695 0.04 0 0.7 0.04 0 0.705 0.04 0 0.71 0.04 0 0.715 0.04 0 0.72 0.04 0 0.725 0.04 0 0.73 0.04 0 0.735 0.04 0 0.74 0.04 0 0.745 0.04 0 0.75 0.04 0 0.755 0.04 0 0.76 0.04 0 0.765 0.04 0 0.77 0.04 0 0.775 0.04 0 0.78 0.04 0 0.785 0.04 0 0.79 0.04 0 0.795 0.04 0 0.8 0.04 0 0.805 0.04 0 0.81 0.04 0 0.815 0.04 0 0.82 0.04 0 0.825 0.04 0 0.83 0.04 0 0.835 0.04 0 0.84 0.04 0 0.845 0.04 0 0.85 0.04 0 0.855 0.04 0 0.86 0.04 0 0.865 0.04 0 0.87 0.04 0 0.875 0.04 0 0.88 0.04 0 0.885 0.04 0 0.89 0.04 0 0.895 0.04 0 0.9 0.04 0 0.905 0.04 0 0.91 0.04 0 0.915 0.04 0 0.92 0.04 0 0.925 0.04 0 0.93 0.04 0 0.935 0.04 0 0.94 0.04 0 0.945 0.04 0 0.95 0.04 0 0.955 0.04 0 0.96 0.04 0 0.965 0.04 0 0.97 0.04 0 0.975 0.04 0 0.98 0.04 0 0.985 0.04 0 0.99 0.04 0 0.995 0.04 0 1 0.04 0 0 0.06 0 0.005 0.06 0 0.01 0.06 0 0.015 0.06 0 0.02 0.06 0 0.025 0.06 0 0.03 0.06 0 0.035 0.06 0 0.04 0.06 0 0.045 0.06 0 0.05 0.06 0 0.055 0.06 0 0.06 0.06 0 0.065 0.06 0 0.07 0.06 0 0.075 0.06 0 0.08 0.06 0 0.085 0.06 0 0.09 0.06 0 0.095 0.06 0 0.1 0.06 0 0.105 0.06 0 0.11 0.06 0 0.115 0.06 0 0.12 0.06 0 0.125 0.06 0 0.13 0.06 0 0.135 0.06 0 0.14 0.06 0 0.145 0.06 0 0.15 0.06 0 0.155 0.06 0 0.16 0.06 0 0.165 0.06 0 0.17 0.06 0 0.175 0.06 0 0.18 0.06 0 0.185 0.06 0 0.19 0.06 0 0.195 0.06 0 0.2 0.06 0 0.205 0.06 0 0.21 0.06 0 0.215 0.06 0 0.22 0.06 0 0.225 0.06 0 0.23 0.06 0 0.235 0.06 0 0.24 0.06 0 0.245 0.06 0 0.25 0.06 0 0.255 0.06 0 0.26 0.06 0 0.265 0.06 0 0.27 0.06 0 0.275 0.06 0 0.28 0.06 0 0.285 0.06 0 0.29 0.06 0 0.295 0.06 0 0.3 0.06 0 0.305 0.06 0 0.31 0.06 0 0.315 0.06 0 0.32 0.06 0 0.325 0.06 0 0.33 0.06 0 0.335 0.06 0 0.34 0.06 0 0.345 0.06 0 0.35 0.06 0 0.355 0.06 0 0.36 0.06 0 0.365 0.06 0 0.37 0.06 0 0.375 0.06 0 0.38 0.06 0 0.385 0.06 0 0.39 0.06 0 0.395 0.06 0 0.4 0.06 0 0.405 0.06 0 0.41 0.06 0 0.415 0.06 0 0.42 0.06 0 0.425 0.06 0 0.43 0.06 0 0.435 0.06 0 0.44 0.06 0 0.445 0.06 0 0.45 0.06 0 0.455 0.06 0 0.46 0.06 0 0.465 0.06 0 0.47 0.06 0 0.475 0.06 0 0.48 0.06 0 0.485 0.06 0 0.49 0.06 0 0.495 0.06 0 0.5 0.06 0 0.505 0.06 0 0.51 0.06 0 0.515 0.06 0 0.52 0.06 0 0.525 0.06 0 0.53 0.06 0 0.535 0.06 0 0.54 0.06 0 0.545 0.06 0 0.55 0.06 0 0.555 0.06 0 0.56 0.06 0 0.565 0.06 0 0.57 0.06 0 0.575 0.06 0 0.58 0.06 0 0.585 0.06 0 0.59 0.06 0 0.595 0.06 0 0.6 0.06 0 0.605 0.06 0 0.61 0.06 0 0.615 0.06 0 0.62 0.06 0 0.625 0.06 0 0.63 0.06 0 0.635 0.06 0 0.64 0.06 0 0.645 0.06 0 0.65 0.06 0 0.655 0.06 0 0.66 0.06 0 0.665 0.06 0 0.67 0.06 0 0.675 0.06 0 0.68 0.06 0 0.685 0.06 0 0.69 0.06 0 0.695 0.06 0 0.7 0.06 0 0.705 0.06 0 0.71 0.06 0 0.715 0.06 0 0.72 0.06 0 0.725 0.06 0 0.73 0.06 0 0.735 0.06 0 0.74 0.06 0 0.745 0.06 0 0.75 0.06 0 0.755 0.06 0 0.76 0.06 0 0.765 0.06 0 0.77 0.06 0 0.775 0.06 0 0.78 0.06 0 0.785 0.06 0 0.79 0.06 0 0.795 0.06 0 0.8 0.06 0 0.805 0.06 0 0.81 0.06 0 0.815 0.06 0 0.82 0.06 0 0.825 0.06 0 0.83 0.06 0 0.835 0.06 0 0.84 0.06 0 0.845 0.06 0 0.85 0.06 0 0.855 0.06 0 0.86 0.06 0 0.865 0.06 0 0.87 0.06 0 0.875 0.06 0 0.88 0.06 0 0.885 0.06 0 0.89 0.06 0 0.895 0.06 0 0.9 0.06 0 0.905 0.06 0 0.91 0.06 0 0.915 0.06 0 0.92 0.06 0 0.925 0.06 0 0.93 0.06 0 0.935 0.06 0 0.94 0.06 0 0.945 0.06 0 0.95 0.06 0 0.955 0.06 0 0.96 0.06 0 0.965 0.06 0 0.97 0.06 0 0.975 0.06 0 0.98 0.06 0 0.985 0.06 0 0.99 0.06 0 0.995 0.06 0 1 0.06 0 0 0.08 0 0.005 0.08 0 0.01 0.08 0 0.015 0.08 0 0.02 0.08 0 0.025 0.08 0 0.03 0.08 0 0.035 0.08 0 0.04 0.08 0 0.045 0.08 0 0.05 0.08 0 0.055 0.08 0 0.06 0.08 0 0.065 0.08 0 0.07 0.08 0 0.075 0.08 0 0.08 0.08 0 0.085 0.08 0 0.09 0.08 0 0.095 0.08 0 0.1 0.08 0 0.105 0.08 0 0.11 0.08 0 0.115 0.08 0 0.12 0.08 0 0.125 0.08 0 0.13 0.08 0 0.135 0.08 0 0.14 0.08 0 0.145 0.08 0 0.15 0.08 0 0.155 0.08 0 0.16 0.08 0 0.165 0.08 0
[...]
			<PointData Scalars="VitesseX">
				<DataArray Name="VitesseX" type="Float32" format="ascii">
 0 -2.43178e-15 3.1917e-15 -1.79521e-14 -1.41968e-15 -7.67722e-15 -2.26515e-14 -1.73797e-14 -6.01628e-14 3.35663e-15 -4.52385e-14 -6.04976e-14 -3.03038e-14 -6.15229e-14 -3.46805e-14 -1.78863e-13 4.44003e-14 -9.40616e-14 -2.36134e-14 -3.67072e-14 -1.26862e-13 6.94248e-14 -3.5497e-15 6.88141e-14 -3.84652e-14 -3.08261e-14 -1.32949e-13 4.4193e-14 -1.65739e-13 -4.75836e-14 -1.11384e-13 2.38366e-14 -4.51074e-14 -8.90276e-14 1.93673e-14 -1.82431e-13 8.65726e-14 -5.79002e-14 2.85178e-14 -7.11862e-14 5.1532e-13 1.83365e-12 1.12155e-11 6.83236e-11 3.92014e-10 2.13817e-09 1.10524e-08 5.40329e-08 2.49166e-07 1.08073e-06 4.3946e-06 1.66901e-05 5.89407e-05 0.000192535 0.00057813 0.001584 0.003927 0.00873419 0.0173088 0.0304984 0.0480568 0.0687072 0.0909548 0.113797 0.136794 0.159802 0.182777 0.205701 0.228564 0.251362 0.274091 0.296747 0.319329 0.341832 0.364253 0.386589 0.408834 0.430982 0.453027 0.474961 0.496773 0.518454 0.539989 0.561365 0.582562 0.603561 0.624338 0.644865 0.665109 0.685035 0.704599 0.723755 0.742445 0.76061 0.778179 0.795079 0.811226 0.826535 0.840919 0.854289 0.866567 0.877682 0.887582 0.896241 0.903659 0.909869 0.914938 0.918959 0.922053 0.924353 0.925996 0.927118 0.927842 0.928272 0.928496 0.928584 0.928583 0.928548 0.928489 0.928414 0.928329 0.928238 0.928146 0.928053 0.927963 0.927876 0.927793 0.927713 0.927637 0.927565 0.927496 0.92743 0.927365 0.927303 0.927242 0.927181 0.927122 0.927063 0.927003 0.926943 0.926882 0.926817 0.926746 0.926665 0.926565 0.926434 0.926246 0.925963 0.925516 0.924794 0.923612 0.921677 0.918517 0.913395 0.90519 0.892241 0.872214 0.842047 0.798121 0.736826 0.655672 0.554913 0.439304 0.318935 0.207724 0.118925 0.0593415 0.0262484 0.010703 0.0041795 0.00159979 0.000606767 0.000229026 8.61647e-05 3.23252e-05 1.20925e-05 4.50993e-06 1.67646e-06 6.2095e-07 2.291e-07 8.41711e-08 3.0784e-08 1.12038e-08 4.0564e-09 1.46068e-09 5.22444e-10 1.85882e-10 6.56521e-11 2.25074e-11 7.9758e-12 2.22e-12 3.60247e-13 3.00282e-13 4.17554e-13 -5.25317e-13 2.902e-13 -1.28627e-14 2.46579e-13 4.66932e-14 3.00045e-13 0 0 -8.48864e-15 -1.00754e-14 -7.51122e-16 -2.61309e-14 -3.09265e-14 -1.65265e-14 -3.07071e-14 -1.74443e-14 -6.59266e-14 -2.78424e-14 -3.87432e-14 -5.86138e-14 -4.01788e-14 -8.85804e-14 -3.16411e-14 -1.10235e-13 1.23192e-14 -8.10222e-14 -2.32931e-14 4.25702e-14 -8.06597e-14 -2.98049e-14 -6.08515e-14 2.62698e-14 -2.66833e-14 1.17123e-14 -1.63969e-13 -6.48956e-14 -6.56839e-14 4.70965e-14 -5.43167e-14 -7.28216e-14 -8.64603e-16 -1.48857e-13 6.84042e-14 -1.48234e-13 8.092e-15 -4.11472e-14 1.66047e-13 2.35779e-13 1.75125e-12 1.14746e-11 6.83275e-11 3.91946e-10 2.13793e-09 1.10527e-08 5.40329e-08 2.49166e-07 1.08073e-06 4.3946e-06 1.66901e-05 5.89407e-05 0.000192535 0.00057813 0.001584 0.003927 0.00873419 0.0173088 0.0304984 0.0480568 0.0687072 0.0909548 0.113797 0.136794 0.159802 0.182777 0.205701 0.228564 0.251362 0.274091 0.296747 0.319329 0.341832 0.364253 0.386589 0.408834 0.430982 0.453027 0.474961 0.496773 0.518454 0.539989 0.561365 0.582562 0.603561 0.624338 0.644865 0.665109 0.685035 0.704599 0.723755 0.742445 0.76061 0.778179 0.795079 0.811226 0.826535 0.840919 0.854289 0.866567 0.877682 0.887582 0.896241 0.903659 0.909869 0.914938 0.918959 0.922053 0.924353 0.925996 0.927118 0.927842 0.928272 0.928496 0.928584 0.928583 0.928548 0.928489 0.928414 0.928329 0.928238 0.928146 0.928053 0.927963 0.927876 0.927793 0.927713 0.927637 0.927565 0.927496 0.92743 0.927365 0.927303 0.927242 0.927181 0.927122 0.927063 0.927003 0.926943 0.926882 0.926817 0.926746 0.926665 0.926565 0.926434 0.926246 0.925963 0.925516 0.924794 0.923612 0.921677 0.918517 0.913395 0.90519 0.892241 0.872214 0.842047 0.798121 0.736826 0.655672 0.554913 0.439304 0.318935 0.207724 0.118925 0.0593415 0.0262484 0.010703 0.0041795 0.00159979 0.000606767 0.000229026 8.61647e-05 3.23252e-05 1.20925e-05 4.50993e-06 1.67646e-06 6.2095e-07 2.291e-07 8.41706e-08 3.07842e-08 1.1204e-08 4.05664e-09 1.46047e-09 5.22827e-10 1.85612e-10 6.52506e-11 2.30229e-11 7.46004e-12 2.29318e-12 9.60684e-13 2.58408e-13 2.83741e-14 3.74543e-14 -2.86397e-13 5.49923e-13 -7.03303e-14 -2.55073e-13 -2.73627e-13 0 0 -5.55314e-15 -1.65008e-14 -2.30022e-14 -2.45377e-14 -3.93404e-14 -3.20405e-14 -6.26838e-14 -4.57893e-14 -1.63265e-14 -6.84981e-14 -4.14657e-14 -4.30171e-14 -5.09838e-14 -4.65751e-14 -2.88342e-14 -5.9358e-16 -1.15322e-13 -2.07368e-15 -2.49251e-14 -4.97502e-14 5.81931e-14 -2.848e-14 -8.05814e-14 -8.8434e-14 -7.99119e-14 -1.90355e-14 -6.50994e-14 -6.27802e-14 2.59124e-16 -6.22252e-14 -1.08115e-14 -4.18325e-14 -6.04562e-14 -4.27326e-14 -5.90621e-14 -2.52056e-14 -7.40748e-14 3.80123e-14 1.08618e-13 3.06309e-13 1.79926e-12 1.1347e-11 6.82691e-11 3.92212e-10 2.13799e-09 1.10527e-08 5.40327e-08 2.49166e-07 1.08073e-06 4.3946e-06 1.66901e-05 5.89407e-05 0.000192535 0.00057813 0.001584 0.003927 0.00873419 0.0173088 0.0304984 0.0480568 0.0687072 0.0909548 0.113797 0.136794 0.159802 0.182777 0.205701 0.228564 0.251362 0.274091 0.296747 0.319329 0.341832 0.364253 0.386589 0.408834 0.430982 0.453027 0.474961 0.496773 0.518454 0.539989 0.561365 0.582562 0.603561 0.624338 0.644865 0.665109 0.685035 0.704599 0.723755 0.742445 0.76061 0.778179 0.795079 0.811226 0.826535 0.840919 0.854289 0.866567 0.877682 0.887582 0.896241 0.903659 0.909869 0.914938 0.918959 0.922053 0.924353 0.925996 0.927118 0.927842 0.928272 0.928496 0.928584 0.928583 0.928548 0.928489 0.928414 0.928329 0.928238 0.928146 0.928053 0.927963 0.927876 0.927793 0.927713 0.927637 0.927565 0.927496 0.92743 0.927365 0.927303 0.927242 0.927181 0.927122 0.927063 0.927003 0.926943 0.926882 0.926817 0.926746 0.926665 0.926565 0.926434 0.926246 0.925963 0.925516 0.924794 0.923612 0.921677 0.918517 0.913395 0.90519 0.892241 0.872214 0.842047 0.798121 0.736826 0.655672 0.554913 0.439304 0.318935 0.207724 0.118925 0.0593415 0.0262484 0.010703 0.0041795 0.00159979 0.000606767 0.000229026 8.61647e-05 3.23252e-05 1.20925e-05 4.50993e-06 1.67646e-06 6.2095e-07 2.291e-07 8.41709e-08 3.07841e-08 1.1204e-08 4.0568e-09 1.46074e-09 5.22607e-10 1.85788e-10 6.51197e-11 2.28958e-11 7.59712e-12 2.5032e-12 8.23195e-13 -2.16614e-13 -1.64048e-13 2.52311e-13 1.25664e-13 -1.5988e-13 -4.13839e-13 5.41658e-13 -1.47209e-13 0 0 -3.1341e-15 -1.43284e-14 -2.59752e-14 -2.46365e-14 -3.38536e-14 -4.67413e-14 -4.8494e-14 -6.90361e-14 -4.63263e-14 -5.65705e-14 -7.78747e-14 -2.21159e-14 -2.91383e-14 2.20335e-14 -3.93955e-14 1.37939e-14 -1.06235e-13 -2.92199e-14 -9.21282e-15 -2.55743e-14 -5.59559e-14 -1.49688e-14 -7.77924e-14 -2.62828e-14 -5.80729e-14 -8.86592e-14 -7.00189e-14 -1.87456e-14 -6.49269e-14 -6.72601e-14 -8.48078e-14 -5.84316e-14 -4.97097e-14 7.87616e-14 -1.44427e-13 -1.35673e-14 6.91379e-14 -2.17638e-14 -3.63362e-14 5.21445e-13 1.86417e-12 1.12707e-11 6.82865e-11 3.92179e-10 2.13823e-09 1.10526e-08 5.40327e-08 2.49166e-07 1.08073e-06 4.3946e-06 1.66901e-05 5.89407e-05 0.000192535 0.00057813 0.001584 0.003927 0.00873419 0.0173088 0.0304984 0.0480568 0.0687072 0.0909548 0.113797 0.136794 0.159802 0.182777 0.205701 0.228564 0.251362 0.274091 0.296747 0.319329 0.341832 0.364253 0.386589 0.408834 0.430982 0.453027 0.474961 0.496773 0.518454 0.539989 0.561365 0.582562 0.603561 0.624338 0.644865 0.665109 0.685035 0.704599 0.723755 0.742445 0.76061 0.778179 0.795079 0.811226 0.826535 0.840919 0.854289 0.866567 0.877682 0.887582 0.896241 0.903659 0.909869 0.914938 0.918959 0.922053 0.924353 0.925996 0.927118 0.927842 0.928272 0.928496 0.928584 0.928583 0.928548 0.928489 0.928414 0.928329 0.928238 0.928146 0.928053 0.927963 0.927876 0.927793 0.927713 0.927637 0.927565 0.927496 0.92743 0.927365 0.927303 0.927242 0.927181 0.927122 0.927063 0.927003 0.926943 0.926882 0.926817 0.926746 0.926665 0.926565 0.926434 0.926246 0.925963 0.925516 0.924794 0.923612 0.921677 0.918517 0.913395 0.90519 0.892241 0.872214 0.842047 0.798121 0.736826 0.655672 0.554913 0.439304 0.318935 0.207724 0.118925 0.0593415 0.0262484 0.010703 0.0041795 0.00159979 0.000606767 0.000229026 8.61647e-05 3.23252e-05 1.20925e-05 4.50993e-06 1.67646e-06 6.2095e-07 2.291e-07 8.41709e-08 3.07841e-08 1.1204e-08 4.05664e-09 1.46062e-09 5.22456e-10 1.85844e-10 6.58336e-11 2.25507e-11 7.85883e-12 2.31414e-12 -3.35533e-13 6.01352e-13 -6.50208e-13 -1.66737e-13 1.01067e-13 -1.9204e-13 3.90167e-13 2.51922e-13 3.19936e-13 0 0 -1.05981e-14 -1.08311e-14 -7.04334e-15 -2.61419e-14 -3.78616e-14 -2.73756e-14 -4.32226e-14 -4.03981e-14 -7.3455e-14 -4.42519e-14 -7.01232e-14 -4.42327e-14 -3.01296e-14 -2.7656e-14 2.33401e-15 -9.28285e-14 5.93598e-14 -4.07533e-14 -3.35125e-14 5.41648e-14 -1.55653e-13 -8.75158e-14 -8.2127e-14 2.14878e-14 -3.76971e-14 -4.65481e-14 -1.632e-13 -2.16385e-15 -1.69103e-13 1.48919e-14 -1.66708e-13 -5.36821e-14 6.17188e-14 -5.60958e-15 7.53628e-14 -9.0987e-14 8.90661e-14 -5.85211e-14 -1.77348e-14 2.98675e-13 1.8718e-12 1.14673e-11 6.84099e-11 3.92108e-10 2.13815e-09 1.10529e-08 5.40328e-08 2.49166e-07 1.08073e-06 4.3946e-06 1.66901e-05 5.89407e-05 0.000192535 0.00057813 0.001584 0.003927 0.00873419 0.0173088 0.0304984 0.0480568 0.0687072 0.0909548 0.113797 0.136794 0.159802 0.182777 0.205701 0.228564 0.251362 0.274091 0.296747 0.319329 0.341832 0.364253 0.386589 0.408834 0.430982 0.453027 0.474961 0.496773 0.518454 0.539989 0.561365 0.582562 0.603561 0.624338 0.644865 0.665109 0.685035 0.704599 0.723755 0.742445 0.76061 0.778179 0.795079 0.811226 0.826535 0.840919 0.854289 0.866567 0.877682 0.887582 0.896241 0.903659 0.909869 0.914938 0.918959 0.922053 0.924353 0.925996 0.927118 0.927842 0.928272 0.928496 0.928584 0.928583 0.928548 0.928489 0.928414 0.928329 0.928238 0.928146 0.928053 0.927963 0.927876 0.927793 0.927713 0.927637 0.927565 0.927496 0.92743 0.927365 0.927303 0.927242 0.927181 0.927122 0.927063 0.927003 0.926943 0.926882 0.926817 0.926746 0.926665 0.926565 0.926434 0.926246 0.925963 0.925516 0.924794 0.923612 0.921677 0.918517 0.913395 0.90519 0.892241 0.872214 0.842047 0.798121 0.736826 0.655672 0.554913 0.439304 0.318935 0.207724 0.118925 0.0593415 0.0262484 0.010703 0.0041795 0.00159979 0.000606767 0.000229026 8.61647e-05 3.23252e-05 1.20925e-05 4.50993e-06 1.67646e-06 6.2095e-07 2.291e-07 8.41707e-08 3.07841e-08 1.12041e-08 4.05633e-09 1.46045e-09 5.22805e-10 1.8532e-10 6.56426e-11 2.26571e-11 7.50006e-12 2.18976e-12 3.20647e-13 5.40232e-13 -2.90932e-13 -2.5474e-13 -5.536e-13 4.83459e-13 2.32038e-13 -2.51928e-13 4.13933e-14 0 0 -1.14889e-14 -2.66446e-15 -2.45906e-14 -1.24408e-15 -3.25211e-14 -1.4948e-14 -7.07902e-14 -5.9577e-14 4.82996e-14 -1.01913e-13 -5.04397e-14 -4.33441e-14 -8.51154e-14 -5.00487e-14 -8.97898e-14 5.0438e-14 -1.81554e-14 1.11217e-13 -8.85705e-14 -1.52025e-13 1.47736e-13 -1.45994e-13 2.06851e-14 -1.72331e-13 -9.65318e-14 -1.10223e-13 5.55702e-14 -1.28345e-13 -1.2405e-13 -1.65723e-13 -5.29535e-14 2.63698e-14 1.46464e-14 6.2874e-14 2.21572e-15 1.77791e-13 -1.82377e-13 1.13322e-13 -1.48842e-13 2.10842e-13 1.94494e-12 1.13537e-11 6.84538e-11 3.92405e-10 2.13811e-09 1.10528e-08 5.40327e-08 2.49166e-07 1.08073e-06 4.3946e-06 1.66901e-05 5.89407e-05 0.000192535 0.00057813 0.001584 0.003927 0.00873419 0.0173088 0.0304984 0.0480568 0.0687072 0.0909548 0.113797 0.136794 0.159802 0.182777 0.205701 0.228564 0.251362 0.274091 0.296747 0.319329 0.341832 0.364253 0.386589 0.408834 0.430982 0.453027 0.474961 0.496773 0.518454 0.539989 0.561365 0.582562 0.603561 0.624338 0.644865 0.665109 0.685035 0.704599 0.723755 0.742445 0.76061 0.778179 0.795079 0.811226 0.826535 0.840919 0.854289 0.866567 0.877682 0.887582 0.896241 0.903659 0.909869 0.914938 0.918959 0.922053 0.924353 0.925996 0.927118 0.927842 0.928272 0.928496 0.928584 0.928583 0.928548 0.928489 0.928414 0.928329 0.928238 0.928146 0.928053 0.927963 0.927876 0.927793 0.927713 0.927637 0.927565 0.927496 0.92743 0.927365 0.927303 0.927242 0.927181 0.927122 0.927063 0.927003 0.926943 0.926882 0.926817 0.926746 0.926665 0.926565 0.926434 0.926246 0.925963 0.925516 0.924794 0.923612 0.921677 0.918517 0.913395 0.90519 0.892241 0.872214 0.842047 0.798121 0.736826 0.655672 0.554913 0.439304 0.318935 0.207724 0.118925 0.0593415 0.0262484 0.010703 0.0041795 0.00159979 0.000606767 0.000229026 8.61647e-05 3.23252e-05 1.20925e-05 4.50993e-06 1.67646e-06 6.2095e-07 2.291e-07 8.41713e-08 3.07839e-08 1.12041e-08 4.05609e-09 1.4609e-09 5.22702e-10 1.85186e-10 6.50083e-11 2.24661e-11 7.53241e-12 2.39129e-12 1.39763e-12 -7.72002e-13 7.51261e-13 -2.71609e-13 -1.95012e-13 -8.14715e-14 -7.56696e-13 6.32455e-13 -4.20523e-15 0
				</DataArray>
				<DataArray Name="VitesseY" type="Float32" format="ascii">