<?xml version="1.0"?>
<VTKFile type="PolyData">
	<PolyData>
		<Piece NumberOfPoints="1206" NumberOfPolys="1000">
			<Points>
				<DataArray type="Float32" NumberOfComponents="3" format="ascii">
 0 0 0 0.005 0 0 0.01 0 0 0.015 0 0 0.02 0 0 0.025 0 0 0.03 0 0 0.035 0 0 0.04 0 0 0.045 0 0 0.05 0 0 0.055 0 0 0.06 0 0 0.065 0 0 0.07 0 0 0.075 0 0 0.08 0 0 0.085 0 0 0.09 0 0 0.095 0 0 0.1 0 0 0.105 0 0 0.11 0 0 0.115 0 0 0.12 0 0 0.125 0 0 0.13 0 0 0.135 0 0 0.14 0 0 0.145 0 0 0.15 0 0 0.155 0 0 0.16 0 0 0.165 0 0 0.17 0 0 0.175 0 0 0.18 0 0 0.185 0 0 0.19 0 0 0.195 0 0 0.2 0 0 0.205 0 0 0.21 0 0 0.215 0 0 0.22 0 0 0.225 0 0 0.23 0 0 0.235 0 0 0.24 0 0 0.245 0 0 0.25 0 0 0.255 0 0 0.26 0 0 0.265 0 0 0.27 0 0 0.275 0 0 0.28 0 0 0.285 0 0 0.29 0 0 0.295 0 0 0.3 0 0 0.305 0 0 0.31 0 0 0.315 0 0 0.32 0 0 0.325 0 0 0.33 0 0 0.335 0 0 0.34 0 0 0.345 0 0 0.35 0 0 0.355 0 0 0.36 0 0 0.365 0 0 0.37 0 0 0.375 0 0 0.38 0 0 0.385 0 0 0.39 0 0 0.395 0 0 0.4 0 0 0.405 0 0 0.41 0 0 0.415 0 0 0.42 0 0 0.425 0 0 0.43 0 0 0.435 0 0 0.44 0 0 0.445 0 0 0.45 0 0 0.455 0 0 0.46 0 0 0.465 0 0 0.47 0 0 0.475 0 0 0.48 0 0 0.485 0 0 0.49 0 0 0.495 0 0 0.5 0 0 0.505 0 0 0.51 0 0 0.515 0 0 0.52 0 0 0.525 0 0 0.53 0 0 0.535 0 0 0.54 0 0 0.545 0 0 0.55 0 0 0.555 0 0 0.56 0 0 0.565 0 0 0.57 0 0 0.575 0 0 0.58 0 0 0.585 0 0 0.59 0 0 0.595 0 0 0.6 0 0 0.605 0 0 0.61 0 0 0.615 0 0 0.62 0 0 0.625 0 0 0.63 0 0 0.635 0 0 0.64 0 0 0.645 0 0 0.65 0 0 0.655 0 0 0.66 0 0 0.665 0 0 0.67 0 0 0.675 0 0 0.68 0 0 0.685 0 0 0.69 0 0 0.695 0 0 0.7 0 0 0.705 0 0 0.71 0 0 0.715 0 0 0.72 0 0 0.725 0 0 0.73 0 0 0.735 0 0 0.74 0 0 0.745 0 0 0.75 0 0 0.755 0 0 0.76 0 0 0.765 0 0 0.77 0 0 0.775 0 0 0.78 0 0 0.785 0 0 0.79 0 0 0.795 0 0 0.8 0 0 0.805 0 0 0.81 0 0 0.815 0 0 0.82 0 0 0.825 0 0 0.83 0 0 0.835 0 0 0.84 0 0 0.845 0 0 0.85 0 0 0.855 0 0 0.86 0 0 0.865 0 0 0.87 0 0 0.875 0 0 0.88 0 0 0.885 0 0 0.89 0 0 0.895 0 0 0.9 0 0 0.905 0 0 0.91 0 0 0.915 0 0 0.92 0 0 0.925 0 0 0.93 0 0 0.935 0 0 0.94 0 0 0.945 0 0 0.95 0 0 0.955 0 0 0.96 0 0 0.965 0 0 0.97 0 0 0.975 0 0 0.98 0 0 0.985 0 0 0.99 0 0 0.995 0 0 1 0 0 0 0.02 0 0.005 0.02 0 0.01 0.02 0 0.015 0.02 0 0.02 0.02 0 0.025 0.02 0 0.03 0.02 0 0.035 0.02 0 0.04 0.02 0 0.045 0.02 0 0.05 0.02 0 0.055 0.02 0 0.06 0.02 0 0.065 0.02 0 0.07 0.02 0 0.075 0.02 0 0.08 0.02 0 0.085 0.02 0 0.09 0.02 0 0.095 0.02 0 0.1 0.02 0 0.105 0.02 0 0.11 0.02 0 0.115 0.02 0 0.12 0.02 0 0.125 0.02 0 0.13 0.02 0 0.135 0.02 0 0.14 0.02 0 0.145 0.02 0 0.15 0.02 0 0.155 0.02 0 0.16 0.02 0 0.165 0.02 0 0.17 0.02 0 0.175 0.02 0 0.18 0.02 0 0.185 0.02 0 0.19 0.02 0 0.195 0.02 0 0.2 0.02 0 0.205 0.02 0 0.21 0.02 0 0.215 0.02 0 0.22 0.02 0 0.225 0.02 0 0.23 0.02 0 0.235 0.02 0 0.24 0.02 0 0.245 0.02 0 0.25 0.02 0 0.255 0.02 0 0.26 0.02 0 0.265 0.02 0 0.27 0.02 0 0.275 0.02 0 0.28 0.02 0 0.285 0.02 0 0.29 0.02 0 0.295 0.02 0 0.3 0.02 0 0.305 0.02 0 0.31 0.02 0 0.315 0.02 0 0.32 0.02 0 0.325 0.02 0 0.33 0.02 0 0.335 0.02 0 0.34 0.02 0 0.345 0.02 0 0.35 0.02 0 0.355 0.02 0 0.36 0.02 0 0.365 0.02 0 0.37 0.02 0 0.375 0.02 0 0.38 0.02 0 0.385 0.02 0 0.39 0.02 0 0.395 0.02 0 0.4 0.02 0 0.405 0.02 0 0.41 0.02 0 0.415 0.02 0 0.42 0.02 0 0.425 0.02 0 0.43 0.02 0 0.435 0.02 0 0.44 0.02 0 0.445 0.02 0 0.45 0.02 0 0.455 0.02 0 0.46 0.02 0 0.465 0.02 0 0.47 0.02 0 0.475 0.02 0 0.48 0.02 0 0.485 0.02 0 0.49 0.02 0 0.495 0.02 0 0.5 0.02 0 0.505 0.02 0 0.51 0.02 0 0.515 0.02 0 0.52 0.02 0 0.525 0.02 0 0.53 0.02 0 0.535 0.02 0 0.54 0.02 0 0.545 0.02 0 0.55 0.02 0 0.555 0.02 0 0.56 0.02 0 0.565 0.02 0 0.57 0.02 0 0.575 0.02 0 0.58 0.02 0 0.585 0.02 0 0.59 0.02 0 0.595 0.02 0 0.6 0.02 0 0.605 0.02 0 0.61 0.02 0 0.615 0.02 0 0.62 0.02 0 0.625 0.02 0 0.63 0.02 0 0.635 0.02 0 0.64 0.02 0 0.645 0.02 0 0.65 0.02 0 0.655 0.02 0 0.66 0.02 0 0.665 0.02 0 0.67 0.02 0 0.675 0.02 0 0.68 0.02 0 0.685 0.02 0 0.69 0.02 0 0.695 0.02 0 0.7 0.02 0 0.705 0.02 0 0.71 0.02 0 0.715 0.02 0 0.72 0.02 0 0.725 0.02 0 0.73 0.02 0 0.735 0.02 0 0.74 0.02 0 0.745 0.02 0 0.75 0.02 0 0.755 0.02 0 0.76 0.02 0 0.765 0.02 0 0.77 0.02 0 0.775 0.02 0 0.78 0.02 0 0.785 0.02 0 0.79 0.02 0 0.795 0.02 0 0.8 0.02 0 0.805 0.02 0 0.81 0.02 0 0.815 0.02 0 0.82 0.02 0 0.825 0.02 0 0.83 0.02 0 0.835 0.02 0 0.84 0.02 0 0.845 0.02 0 0.85 0.02 0 0.855 0.02 0 0.86 0.02 0 0.865 0.02 0 0.87 0.02 0 0.875 0.02 0 0.88 0.02 0 0.885 0.02 0 0.89 0.02 0 0.895 0.02 0 0.9 0.02 0 0.905 0.02 0 0.91 0.02 0 0.915 0.02 0 0.92 0.02 0 0.925 0.02 0 0.93 0.02 0 0.935 0.02 0 0.94 0.02 0 0.945 0.02 0 0.95 0.02 0 0.955 0.02 0 0.96 0.02 0 0.965 0.02 0 0.97 0.02 0 0.975 0.02 0 0.98 0.02 0 0.985 0.02 0 0.99 0.02 0 0.995 0.02 0 1 0.02 0 0 0.04 0 0.005 0.04 0 0.01 0.04 0 0.015 0.04 0 0.02 0.04 0 0.025 0.04 0 0.03 0.04 0 0.035 0.04 0 0.04 0.04 0 0.045 0.04 0 0.05 0.04 0 0.055 0.04 0 0.06 0.04 0 0.065 0.04 0 0.07 0.04 0 0.075 0.04 0 0.08 0.04 0 0.085 0.04 0 0.09 0.04 0 0.095 0.04 0 0.1 0.04 0 0.105 0.04 0 0.11 0.04 0 0.115 0.04 0 0.12 0.04 0 0.125 0.04 0 0.13 0.04 0 0.135 0.04 0 0.14 0.04 0 0.145 0.04 0 0.15 0.04 0 0.155 0.04 0 0.16 0.04 0 0.165 0.04 0 0.17 0.04 0 0.175 0.04 0 0.18 0.04 0 0.185 0.04 0 0.19 0.04 0 0.195 0.04 0 0.2 0.04 0 0.205 0.04 0 0.21 0.04 0 0.215 0.04 0 0.22 0.04 0 0.225 0.04 0 0.23 0.04 0 0.235 0.04 0 0.24 0.04 0 0.245 0.04 0 0.25 0.04 0 0.255 0.04 0 0.26 0.04 0 0.265 0.04 0 0.27 0.04 0 0.275 0.04 0 0.28 0.04 0 0.285 0.04 0 0.29 0.04 0 0.295 0.04 0 0.3 0.04 0 0.305 0.04 0 0.31 0.04 0 0.315 0.04 0 0.32 0.04 0 0.325 0.04 0 0.33 0.04 0 0.335 0.04 0 0.34 0.04 0 0.345 0.04 0 0.35 0.04 0 0.355 0.04 0 0.36 0.04 0 0.365 0.04 0 0.37 0.04 0 0.375 0.04 0 0.38 0.04 0 0.385 0.04 0 0.39 0.04 0 0.395 0.04 0 0.4 0.04 0 0.405 0.04 0 0.41 0.04 0 0.415 0.04 0 0.42 0.04 0 0.425 0.04 0 0.43 0.04 0 0.435 0.04 0 0.44 0.04 0 0.445 0.04 0 0.45 0.04 0 0.455 0.04 0 0.46 0.04 0 0.465 0.04 0 0.47 0.04 0 0.475 0.04 0 0.48 0.04 0 0.485 0.04 0 0.49 0.04 0 0.495 0.04 0 0.5 0.04 0 0.505 0.04 0 0.51 0.04 0 0.515 0.04 0 0.52 0.04 0 0.525 0.04 0 0.53 0.04 0 0.535 0.04 0 0.54 0.04 0 0.545 0.04 0 0.55 0.04 0 0.555 0.04 0 0.56 0.04 0 0.565 0.04 0 0.57 0.04 0 0.575 0.04 0 0.58 0.04 0 0.585 0.04 0 0.59 0.04 0 0.595 0.04 0 0.6 0.04 0 0.605 0.04 0 0.61 0.04 0 0.615 0.04 0 0.62 0.04 0 0.625 0.04 0 0.63 0.04 0 0.635 0.04 0 0.64 0.04 0 0.645 0.04 0 0.65 0.04 0 0.655 0.04 0 0.66 0.04 0 0.665 0.04 0 0.67 0.04 0 0.675 0.04 0 0.68 0.04 0 0.685 0.04 0 0.69 0.04 0 0.695 0.04 0 0.7 0.04 0 0.705 0.04 0 0.71 0.04 0 0.715 0.04 0 0.72 0.04 0 0.725 0.04 0 0.73 0.04 0 0.735 0.04 0 0.74 0.04 0 0.745 0.04 0 0.75 0.04 0 0.755 0.04 0 0.76 0.04 0 0.765 0.04 0 0.77 0.04 0 0.775 0.04 0 0.78 0.04 0 0.785 0.04 0 0.79 0.04 0 0.795 0.04 0 0.8 0.04 0 0.805 0.04 0 0.81 0.04 0 0.815 0.04 0 0.82 0.04 0 0.825 0.04 0 0.83 0.04 0 0.835 0.04 0 0.84 0.04 0 0.845 0.04 0 0.85 0.04 0 0.855 0.04 0 0.86 0.04 0 0.865 0.04 0 0.87 0.04 0 0.875 0.04 0 0.88 0.04 0 0.885 0.04 0 0.89 0.04 0 0.895 0.04 0 0.9 0.04 0 0.905 0.04 0 0.91 0.04 0 0.915 0.04 0 0.92 0.04 0 0.925 0.04 0 0.93 0.04 0 0.935 0.04 0 0.94 0.04 0 0.945 0.04 0 0.95 0.04 0 0.955 0.04 0 0.96 0.04 0 0.965 0.04 0 0.97 0.04 0 0.975 0.04 0 0.98 0.04 0 0.985 0.04 0 0.99 0.04 0 0.995 0.04 0 1 0.04 0 0 0.06 0 0.005 0.06 0 0.01 0.06 0 0.015 0.06 0 0.02 0.06 0 0.025 0.06 0 0.03 0.06 0 0.035 0.06 0 0.04 0.06 0 0.045 0.06 0 0.05 0.06 0 0.055 0.06 0 0.06 0.06 0 0.065 0.06 0 0.07 0.06 0 0.075 0.06 0 0.08 0.06 0 0.085 0.06 0 0.09 0.06 0 0.095 0.06 0 0.1 0.06 0 0.105 0.06 0 0.11 0.06 0 0.115 0.06 0 0.12 0.06 0 0.125 0.06 0 0.13 0.06 0 0.135 0.06 0 0.14 0.06 0 0.145 0.06 0 0.15 0.06 0 0.155 0.06 0 0.16 0.06 0 0.165 0.06 0 0.17 0.06 0 0.175 0.06 0 0.18 0.06 0 0.185 0.06 0 0.19 0.06 0 0.195 0.06 0 0.2 0.06 0 0.205 0.06 0 0.21 0.06 0 0.215 0.06 0 0.22 0.06 0 0.225 0.06 0 0.23 0.06 0 0.235 0.06 0 0.24 0.06 0 0.245 0.06 0 0.25 0.06 0 0.255 0.06 0 0.26 0.06 0 0.265 0.06 0 0.27 0.06 0 0.275 0.06 0 0.28 0.06 0 0.285 0.06 0 0.29 0.06 0 0.295 0.06 0 0.3 0.06 0 0.305 0.06 0 0.31 0.06 0 0.315 0.06 0 0.32 0.06 0 0.325 0.06 0 0.33 0.06 0 0.335 0.06 0 0.34 0.06 0 0.345 0.06 0 0.35 0.06 0 0.355 0.06 0 0.36 0.06 0 0.365 0.06 0 0.37 0.06 0 0.375 0.06 0 0.38 0.06 0 0.385 0.06 0 0.39 0.06 0 0.395 0.06 0 0.4 0.06 0 0.405 0.06 0 0.41 0.06 0 0.415 0.06 0 0.42 0.06 0 0.425 0.06 0 0.43 0.06 0 0.435 0.06 0 0.44 0.06 0 0.445 0.06 0 0.45 0.06 0 0.455 0.06 0 0.46 0.06 0 0.465 0.06 0 0.47 0.06 0 0.475 0.06 0 0.48 0.06 0 0.485 0.06 0 0.49 0.06 0 0.495 0.06 0 0.5 0.06 0 0.505 0.06 0 0.51 0.06 0 0.515 0.06 0 0.52 0.06 0 0.525 0.06 0 0.53 0.06 0 0.535 0.06 0 0.54 0.06 0 0.545 0.06 0 0.55 0.06 0 0.555 0.06 0 0.56 0.06 0 0.565 0.06 0 0.57 0.06 0 0.575 0.06 0 0.58 0.06 0 0.585 0.06 0 0.59 0.06 0 0.595 0.06 0 0.6 0.06 0 0.605 0.06 0 0.61 0.06 0 0.615 0.06 0 0.62 0.06 0 0.625 0.06 0 0.63 0.06 0 0.635 0.06 0 0.64 0.06 0 0.645 0.06 0 0.65 0.06 0 0.655 0.06 0 0.66 0.06 0 0.665 0.06 0 0.67 0.06 0 0.675 0.06 0 0.68 0.06 0 0.685 0.06 0 0.69 0.06 0 0.695 0.06 0 0.7 0.06 0 0.705 0.06 0 0.71 0.06 0 0.715 0.06 0 0.72 0.06 0 0.725 0.06 0 0.73 0.06 0 0.735 0.06 0 0.74 0.06 0 0.745 0.06 0 0.75 0.06 0 0.755 0.06 0 0.76 0.06 0 0.765 0.06 0 0.77 0.06 0 0.775 0.06 0 0.78 0.06 0 0.785 0.06 0 0.79 0.06 0 0.795 0.06 0 0.8 0.06 0 0.805 0.06 0 0.81 0.06 0 0.815 0.06 0 0.82 0.06 0 0.825 0.06 0 0.83 0.06 0 0.835 0.06 0 0.84 0.06 0 0.845 0.06 0 0.85 0.06 0 0.855 0.06 0 0.86 0.06 0 0.865 0.06 0 0.87 0.06 0 0.875 0.06 0 0.88 0.06 0 0.885 0.06 0 0.89 0.06 0 0.895 0.06 0 0.9 0.06 0 0.905 0.06 0 0.91 0.06 0 0.915 0.06 0 0.92 0.06 0 0.925 0.06 0 0.93 0.06 0 0.935 0.06 0 0.94 0.06 0 0.945 0.06 0 0.95 0.06 0 0.955 0.06 0 0.96 0.06 0 0.965 0.06 0 0.97 0.06 0 0.975 0.06 0 0.98 0.06 0 0.985 0.06 0 0.99 0.06 0 0.995 0.06 0 1 0.06 0 0 0.08 0 0.005 0.08 0 0.01 0.08 0 0.015 0.08 0 0.02 0.08 0 0.025 0.08 0 0.03 0.08 0 0.035 0.08 0 0.04 0.08 0 0.045 0.08 0 0.05 0.08 0 0.055 0.08 0 0.06 0.08 0 0.065 0.08 0 0.07 0.08 0 0.075 0.08 0 0.08 0.08 0 0.085 0.08 0 0.09 0.08 0 0.095 0.08 0 0.1 0.08 0 0.105 0.08 0 0.11 0.08 0 0.115 0.08 0 0.12 0.08 0 0.125 0.08 0 0.13 0.08 0 0.135 0.08 0 0.14 0.08 0 0.145 0.08 0 0.15 0.08 0 0.155 0.08 0 0.16 0.08 0 0.165 0.08 0
[...]
			<PointData Scalars="VitesseX">
				<DataArray Name="VitesseX" type="Float32" format="ascii">
 0 3.55162e-14 -1.18977e-14 7.21359e-14 -2.13861e-14 -4.38048e-14 2.82769e-14 5.23213e-15 -1.23595e-14 1.28131e-14 -1.83196e-14 -1.35629e-13 7.21273e-14 -1.88311e-13 3.55385e-14 5.10482e-15 -5.6882e-14 3.0552e-14 -1.04925e-13 -7.0634e-14 -1.04003e-13 -9.01625e-14 -1.4203e-13 -6.62798e-14 -7.76373e-14 -1.51426e-13 -8.94384e-14 7.08649e-14 -2.88423e-13 6.24342e-14 -8.55561e-14 -2.14362e-14 -6.73364e-14 -5.19983e-14 8.07699e-14 -2.29412e-13 5.22499e-14 -2.16867e-13 8.63537e-14 -4.30192e-13 -1.8612e-13 -3.64086e-13 -2.87921e-13 8.44643e-14 1.9808e-13 -8.23367e-14 2.93914e-13 -2.19905e-13 3.57833e-14 -8.88051e-14 6.89937e-14 -1.27369e-13 -3.57395e-13 2.89469e-13 -2.81489e-13 -2.39718e-13 9.58088e-14 -3.99139e-13 3.21326e-13 -3.89774e-14 -1.10463e-13 -1.25013e-13 -2.09628e-13 2.58462e-13 -3.42574e-13 -1.33366e-13 1.24938e-13 -4.38565e-13 2.69051e-13 5.08202e-13 7.86948e-12 8.74321e-11 8.7565e-10 8.09175e-09 6.81335e-08 5.19975e-07 3.57184e-06 2.1905e-05 0.000118739 0.000561847 0.00228424 0.00782415 0.0220915 0.050542 0.0937825 0.145527 0.199041 0.25189 0.303864 0.354959 0.405145 0.454368 0.502541 0.549533 0.595169 0.639216 0.68138 0.721304 0.758574 0.792736 0.823326 0.849932 0.872262 0.890216 0.903943 0.913848 0.920535 0.924716 0.927091 0.92827 0.928728 0.928758 0.928633 0.92839 0.928001 0.927357 0.926214 0.924095 0.920144 0.912938 0.900267 0.878989 0.845079 0.794063 0.722015 0.627179 0.512025 0.384968 0.260164 0.153897 0.0780114 0.0339538 0.0131477 0.00474528 0.0016474 0.000558119 0.000185474 6.05438e-05 1.94134e-05 6.11251e-06 1.88898e-06 5.72726e-07 1.70304e-07 4.96516e-08 1.41903e-08 3.975e-09 1.09049e-09 2.93826e-10 7.71015e-11 2.01518e-11 4.36258e-12 -1.13637e-14 7.19376e-13 -5.00636e-14 -4.3672e-14 -8.96053e-13 4.49763e-13 3.51283e-14 5.84007e-13 2.16123e-13 -5.84871e-13 -6.7594e-13 -3.9686e-13 8.51492e-13 6.56556e-13 -3.62977e-13 -1.18012e-12 1.53847e-13 8.94539e-14 3.64827e-13 9.94623e-14 1.16995e-13 -1.91893e-13 -7.10852e-13 7.778e-14 -5.59798e-13 6.08136e-13 -2.30048e-13 -1.72457e-12 6.54408e-13 3.78993e-13 9.49062e-13 -5.79903e-13 -6.03114e-13 -7.35684e-14 4.00172e-13 2.46265e-13 -1.03893e-12 -5.48215e-13 5.9274e-14 -2.51558e-13 -5.79719e-13 -5.65395e-13 -2.60533e-13 1.25551e-13 1.93911e-13 -1.06781e-12 2.51838e-13 2.48475e-13 1.18722e-12 0 0 -7.07739e-15 2.60139e-14 -3.11285e-14 4.32161e-14 5.32071e-14 6.46612e-15 -1.63323e-14 -1.56873e-14 -3.71399e-14 -6.21633e-14 1.37061e-14 -1.3638e-13 5.85818e-14 -8.82769e-14 -1.4087e-14 1.73241e-14 -9.33839e-14 2.76825e-14 -1.04563e-13 -1.05789e-13 -9.91319e-14 -4.92876e-14 -8.75475e-14 -8.78285e-14 -2.68449e-14 -8.6063e-14 -1.76455e-13 1.2294e-13 -1.58388e-13 7.7554e-16 -6.84493e-14 -6.09725e-14 -3.72397e-14 -1.5502e-13 7.01456e-14 -2.15812e-13 -4.31869e-14 -3.21884e-13 5.73978e-14 -3.05826e-13 -7.31129e-14 -5.9464e-14 -6.84605e-14 -1.92485e-14 8.23763e-14 -1.60945e-13 1.77287e-13 3.0209e-14 2.216e-13 -1.7193e-13 -3.54243e-13 6.72796e-14 -3.93999e-13 4.4293e-14 -1.22411e-13 -3.54878e-13 2.68823e-13 -1.3901e-13 -1.25664e-13 -5.33506e-15 -1.07387e-13 8.59518e-14 -2.14536e-13 -3.79183e-14 -1.44973e-13 -3.47358e-13 3.09746e-13 -2.60487e-13 9.05451e-13 8.20549e-12 8.67515e-11 8.76272e-10 8.09112e-09 6.81347e-08 5.19973e-07 3.57184e-06 2.1905e-05 0.000118739 0.000561847 0.00228424 0.00782415 0.0220915 0.050542 0.0937825 0.145527 0.199041 0.25189 0.303864 0.354959 0.405145 0.454368 0.502541 0.549533 0.595169 0.639216 0.68138 0.721304 0.758574 0.792736 0.823326 0.849932 0.872262 0.890216 0.903943 0.913848 0.920535 0.924716 0.927091 0.92827 0.928728 0.928758 0.928633 0.92839 0.928001 0.927357 0.926214 0.924095 0.920144 0.912938 0.900267 0.878989 0.845079 0.794063 0.722015 0.627179 0.512025 0.384968 0.260164 0.153897 0.0780114 0.0339538 0.0131477 0.00474528 0.0016474 0.000558119 0.000185474 6.05438e-05 1.94134e-05 6.11251e-06 1.88898e-06 5.72727e-07 1.70303e-07 4.96518e-08 1.419e-08 3.97467e-09 1.09167e-09 2.93145e-10 7.73126e-11 1.93262e-11 4.82596e-12 1.36351e-12 -6.75614e-13 -1.01919e-13 -5.977e-13 6.45502e-13 3.71176e-14 -2.43949e-13 -5.164e-13 -3.19665e-13 1.1426e-13 7.00879e-13 -2.02987e-13 -7.46721e-13 -1.83486e-13 -2.17798e-13 6.26737e-13 1.49224e-14 9.79264e-14 -6.71744e-13 -6.49432e-14 1.92964e-13 -7.87201e-14 2.56049e-13 -5.9953e-13 -1.34505e-13 -7.78675e-13 -2.94232e-13 5.05718e-13 6.09461e-14 -1.96722e-13 -2.2972e-13 2.70371e-13 5.45221e-13 6.17852e-15 -4.34728e-13 -4.63785e-13 2.26269e-13 2.35924e-13 -6.33371e-13 -5.12139e-13 -2.7014e-13 7.76726e-14 -3.76053e-13 -1.15921e-12 -1.44235e-13 1.17216e-12 4.01895e-13 -4.06819e-13 -1.33497e-12 0 0 -4.46656e-15 -8.14983e-15 2.86493e-14 3.67057e-14 2.54414e-14 3.2908e-14 -1.13122e-14 1.18348e-14 -3.75311e-14 6.142e-15 -8.05636e-14 -3.49314e-14 -4.66023e-14 -1.89656e-14 -2.5363e-14 -5.32229e-14 -2.08879e-14 -1.21484e-13 -1.62387e-14 -6.88854e-14 -2.20011e-14 -6.30992e-14 4.94583e-15 -6.58011e-14 -3.30154e-14 -4.24928e-14 3.15928e-14 -1.57479e-13 -1.1675e-14 -1.71904e-13 -1.84503e-14 -2.05079e-14 -1.02292e-13 -2.47801e-14 -2.57475e-13 1.99416e-14 -1.69768e-13 -1.35339e-13 -1.20405e-13 -8.06755e-16 -1.6617e-13 -3.69618e-14 4.58272e-14 -7.40917e-14 -2.19498e-14 1.50621e-13 -1.6485e-13 4.37037e-16 -1.79927e-13 -6.1321e-14 -2.40449e-14 -1.60079e-13 -5.48307e-14 -1.82332e-13 -1.47641e-13 -1.1762e-13 -1.2352e-13 -4.02986e-14 1.43739e-13 1.42686e-14 -1.81954e-14 -9.56632e-14 -8.1743e-14 -1.80161e-13 8.96659e-14 -4.84197e-14 -3.68279e-13 9.32465e-15 8.9985e-13 8.24791e-12 8.71944e-11 8.7593e-10 8.09177e-09 6.81339e-08 5.19973e-07 3.57184e-06 2.1905e-05 0.000118739 0.000561847 0.00228424 0.00782415 0.0220915 0.050542 0.0937825 0.145527 0.199041 0.25189 0.303864 0.354959 0.405145 0.454368 0.502541 0.549533 0.595169 0.639216 0.68138 0.721304 0.758574 0.792736 0.823326 0.849932 0.872262 0.890216 0.903943 0.913848 0.920535 0.924716 0.927091 0.92827 0.928728 0.928758 0.928633 0.92839 0.928001 0.927357 0.926214 0.924095 0.920144 0.912938 0.900267 0.878989 0.845079 0.794063 0.722015 0.627179 0.512025 0.384968 0.260164 0.153897 0.0780114 0.0339538 0.0131477 0.00474528 0.0016474 0.000558119 0.000185474 6.05438e-05 1.94134e-05 6.11251e-06 1.88898e-06 5.72727e-07 1.70304e-07 4.96515e-08 1.41904e-08 3.97468e-09 1.09092e-09 2.93482e-10 7.7186e-11 1.99257e-11 4.70221e-12 9.50716e-13 -3.76524e-14 -9.74373e-13 1.21522e-13 2.35614e-13 -1.34921e-13 -1.91267e-13 -4.46694e-13 -3.47731e-13 -1.33898e-13 -3.45893e-13 5.73511e-14 2.00297e-13 -7.34356e-13 -7.13537e-14 1.17317e-14 -2.79257e-13 -1.70362e-14 6.7884e-14 7.37659e-14 -1.79774e-13 5.52824e-14 -2.54316e-13 1.21283e-13 -3.91307e-13 -7.13638e-13 -7.56388e-14 -9.41995e-14 5.08424e-13 -1.50814e-13 -1.75217e-13 3.39665e-13 3.19041e-13 2.97797e-14 3.56608e-14 2.84565e-14 5.65231e-16 -2.65534e-13 -1.10484e-13 -1.71805e-13 -3.22457e-13 -4.32173e-13 -2.72867e-13 -1.9714e-13 5.45351e-15 1.41932e-13 3.75549e-13 -1.14895e-13 -1.98753e-13 0 0 3.27425e-14 2.61487e-14 5.00219e-14 7.96127e-16 3.12353e-15 4.94357e-14 -9.37437e-15 -3.09659e-14 -2.79417e-14 -1.17329e-15 -2.06328e-14 2.28786e-14 -7.67514e-14 -1.26793e-14 1.79365e-14 -5.134e-14 -7.91466e-14 -9.59671e-14 -8.83533e-14 -2.69435e-14 2.76552e-14 -6.76332e-14 -4.23554e-14 1.6151e-14 -1.20632e-13 2.32524e-14 9.32619e-15 -1.92427e-13 -6.48523e-14 -6.33065e-14 -1.9015e-14 -2.20554e-13 -7.68631e-14 -1.94759e-14 -9.45389e-14 -5.21561e-14 -1.34714e-13 -5.5325e-14 -1.87503e-13 -1.78626e-13 -1.00243e-13 -5.83249e-14 1.72446e-13 4.93771e-14 -3.06169e-14 1.27829e-13 -2.76243e-13 -1.01666e-13 -6.1106e-14 -6.67604e-15 -1.79702e-13 -2.54288e-13 -6.39594e-14 -2.46827e-13 -2.51411e-13 -7.56762e-14 9.14073e-14 7.2017e-14 1.20752e-13 -1.12741e-14 1.08856e-14 1.30436e-13 5.56117e-14 -1.59216e-13 -1.28548e-13 -2.34885e-13 -2.26287e-13 1.72199e-13 6.76373e-13 7.97463e-12 8.75251e-11 8.76113e-10 8.09154e-09 6.81338e-08 5.19974e-07 3.57184e-06 2.1905e-05 0.000118739 0.000561847 0.00228424 0.00782415 0.0220915 0.050542 0.0937825 0.145527 0.199041 0.25189 0.303864 0.354959 0.405145 0.454368 0.502541 0.549533 0.595169 0.639216 0.68138 0.721304 0.758574 0.792736 0.823326 0.849932 0.872262 0.890216 0.903943 0.913848 0.920535 0.924716 0.927091 0.92827 0.928728 0.928758 0.928633 0.92839 0.928001 0.927357 0.926214 0.924095 0.920144 0.912938 0.900267 0.878989 0.845079 0.794063 0.722015 0.627179 0.512025 0.384968 0.260164 0.153897 0.0780114 0.0339538 0.0131477 0.00474528 0.0016474 0.000558119 0.000185474 6.05438e-05 1.94134e-05 6.11251e-06 1.88898e-06 5.72727e-07 1.70304e-07 4.96517e-08 1.419e-08 3.97457e-09 1.09079e-09 2.9358e-10 7.6949e-11 1.99392e-11 4.85166e-12 5.62078e-13 7.33004e-13 -4.87185e-13 -1.11551e-13 -7.51645e-13 5.95815e-13 -4.43833e-14 3.49319e-13 -3.33552e-13 -5.19529e-13 -2.85526e-13 -2.77897e-13 5.81384e-14 -1.14758e-13 -2.16359e-13 -4.47555e-13 -4.96489e-13 -2.36036e-13 5.32492e-13 -1.49663e-14 2.90149e-14 -4.68768e-13 -5.02536e-13 -7.78906e-15 -3.19996e-13 3.19071e-13 -2.74992e-13 -7.70404e-13 2.39756e-13 2.12059e-13 4.89817e-13 5.26794e-14 -7.24486e-13 1.31404e-13 6.38552e-13 -2.4164e-13 -1.35031e-13 -2.95336e-13 5.00901e-13 -1.15522e-12 -4.56001e-13 -5.75118e-13 4.11626e-14 -3.89342e-14 -3.00361e-13 -4.24076e-13 1.06893e-14 3.24367e-13 1.08709e-12 0 0 -2.26019e-15 3.82885e-14 -1.37098e-14 1.98927e-14 4.32414e-14 -4.88469e-16 -2.50896e-14 -4.63118e-14 -1.39281e-14 -6.2614e-14 7.59415e-14 -7.55878e-14 9.48533e-14 -8.05341e-14 -3.18911e-15 3.26438e-14 -1.10044e-13 3.71364e-14 -1.13198e-13 -3.76648e-14 -1.15317e-14 3.16574e-14 -8.51672e-14 -6.35179e-15 -8.2538e-14 -1.12414e-13 -2.07188e-13 4.51821e-14 -1.76099e-13 2.40883e-14 -6.60914e-14 -1.86622e-13 3.43565e-15 -1.78762e-13 9.56038e-14 -1.89187e-13 6.88829e-14 -3.41607e-13 5.48372e-14 -3.41055e-13 -3.51386e-14 3.6323e-14 7.11106e-15 7.25425e-14 1.13732e-13 -7.18955e-14 1.72998e-13 7.29212e-14 1.73801e-13 -1.45512e-13 -3.34591e-13 -8.35265e-14 -5.8615e-13 -8.9818e-14 -1.77573e-13 -3.78253e-13 5.52971e-13 -1.26897e-13 -6.42239e-14 -1.13113e-13 1.96783e-14 1.18344e-13 -1.92041e-13 -1.33351e-13 -2.35094e-13 -4.8362e-13 3.83869e-13 5.58072e-14 7.27011e-13 8.26334e-12 8.72702e-11 8.76551e-10 8.09107e-09 6.81347e-08 5.19974e-07 3.57184e-06 2.1905e-05 0.000118739 0.000561847 0.00228424 0.00782415 0.0220915 0.050542 0.0937825 0.145527 0.199041 0.25189 0.303864 0.354959 0.405145 0.454368 0.502541 0.549533 0.595169 0.639216 0.68138 0.721304 0.758574 0.792736 0.823326 0.849932 0.872262 0.890216 0.903943 0.913848 0.920535 0.924716 0.927091 0.92827 0.928728 0.928758 0.928633 0.92839 0.928001 0.927357 0.926214 0.924095 0.920144 0.912938 0.900267 0.878989 0.845079 0.794063 0.722015 0.627179 0.512025 0.384968 0.260164 0.153897 0.0780114 0.0339538 0.0131477 0.00474528 0.0016474 0.000558119 0.000185474 6.05438e-05 1.94134e-05 6.11251e-06 1.88898e-06 5.72727e-07 1.70303e-07 4.96519e-08 1.41896e-08 3.97432e-09 1.09164e-09 2.92996e-10 7.71579e-11 1.93704e-11 5.05876e-12 1.37383e-12 -3.66116e-13 -1.16935e-13 -8.12009e-13 7.11277e-14 3.50445e-13 5.24907e-13 1.82898e-13 2.03343e-13 -2.39938e-13 5.30142e-13 -6.24659e-13 -9.56763e-13 -1.8793e-13 -1.64877e-13 5.22404e-13 -2.6117e-14 1.96717e-13 -1.61313e-13 -2.80499e-13 2.26274e-13 -6.89385e-13 -2.00082e-13 -9.04527e-13 -4.21686e-13 -3.1153e-13 -6.24219e-13 4.94186e-13 -6.54585e-13 8.874e-14 5.38127e-14 4.25603e-13 3.95434e-13 -2.91661e-14 -1.92954e-13 -4.53288e-13 5.59728e-13 2.25408e-13 -3.53857e-13 -7.50059e-13 -4.05825e-13 -4.84751e-13 -3.0758e-13 -8.7593e-13 -2.27423e-13 9.97953e-13 1.92407e-13 6.46311e-13 -3.68863e-13 0 0 -2.92674e-14 -5.59457e-14 6.42282e-14 3.78626e-15 -1.91005e-14 -1.86877e-14 -1.6158e-14 1.19929e-14 4.00577e-14 -4.59032e-15 -1.3102e-13 7.80919e-14 -5.54694e-14 3.84515e-14 -5.96982e-14 -3.00085e-14 1.13749e-13 -1.37051e-13 5.63235e-14 -5.16381e-14 -1.42748e-14 2.89279e-14 3.30835e-14 -7.85879e-14 -8.75783e-14 -2.73631e-13 5.39321e-14 -3.74043e-13 1.33366e-13 -2.56125e-13 -1.55911e-14 8.14579e-14 -2.15045e-14 2.26783e-14 -5.04367e-13 2.49696e-13 -6.28353e-14 -1.1312e-13 -3.01118e-13 9.90592e-14 -4.19992e-13 -5.36207e-14 -1.76305e-14 1.34724e-13 -2.29217e-15 5.17595e-13 -5.69631e-15 3.25414e-13 -4.22044e-13 1.25399e-14 2.2325e-13 -4.70589e-13 -7.65752e-14 -4.20722e-13 -1.42502e-13 -3.48297e-14 -2.60696e-13 1.20921e-13 1.29877e-13 -2.74934e-13 7.09553e-14 -5.97041e-13 2.87419e-14 -5.75328e-13 1.2282e-13 2.25345e-13 -5.74303e-13 5.75892e-13 5.98278e-13 8.53172e-12 8.78081e-11 8.75841e-10 8.09211e-09 6.81337e-08 5.19974e-07 3.57184e-06 2.1905e-05 0.000118739 0.000561847 0.00228424 0.00782415 0.0220915 0.050542 0.0937825 0.145527 0.199041 0.25189 0.303864 0.354959 0.405145 0.454368 0.502541 0.549533 0.595169 0.639216 0.68138 0.721304 0.758574 0.792736 0.823326 0.849932 0.872262 0.890216 0.903943 0.913848 0.920535 0.924716 0.927091 0.92827 0.928728 0.928758 0.928633 0.92839 0.928001 0.927357 0.926214 0.924095 0.920144 0.912938 0.900267 0.878989 0.845079 0.794063 0.722015 0.627179 0.512025 0.384968 0.260164 0.153897 0.0780114 0.0339538 0.0131477 0.00474528 0.0016474 0.000558119 0.000185474 6.05438e-05 1.94134e-05 6.11251e-06 1.88898e-06 5.72727e-07 1.70303e-07 4.96516e-08 1.41904e-08 3.97453e-09 1.09069e-09 2.93333e-10 7.7266e-11 2.02133e-11 4.52926e-12 7.86547e-13 -2.02941e-13 -1.05447e-12 -6.14486e-15 -7.02823e-14 -3.85053e-13 1.27907e-12 3.90576e-13 1.23378e-12 -5.22006e-13 -1.13815e-12 -5.69707e-13 7.15726e-13 -5.91529e-13 3.28758e-14 -4.70214e-13 5.06232e-13 7.25034e-13 4.56474e-13 -1.54184e-13 -2.33962e-13 -3.65123e-13 -1.12667e-12 -2.74071e-13 -1.27678e-12 -5.22991e-13 -4.91316e-13 -3.95225e-13 -2.39317e-13 2.24171e-13 1.86058e-13 3.04531e-13 1.18436e-12 -3.47507e-13 -3.22063e-13 8.07453e-13 -1.00815e-13 -5.09641e-13 -6.04467e-13 1.23943e-12 -5.84e-13 -1.40435e-12 -7.51647e-13 3.75708e-13 6.39164e-13 -2.84202e-13 5.62582e-13 1.47621e-12 5.47747e-13 0
				</DataArray>
				<DataArray Name="VitesseY" type="Float32" format="ascii">