<?xml version="1.0"?>
<VTKFile type="PolyData">
	<PolyData>
		<Piece NumberOfPoints="1206" NumberOfPolys="1000">
			<Points>
				<DataArray type="Float32" NumberOfComponents="3" format="ascii">
 0 0 0 0.005 0 0 0.01 0 0 0.015 0 0 0.02 0 0 0.025 0 0 0.03 0 0 0.035 0 0 0.04 0 0 0.045 0 0 0.05 0 0 0.055 0 0 0.06 0 0 0.065 0 0 0.07 0 0 0.075 0 0 0.08 0 0 0.085 0 0 0.09 0 0 0.095 0 0 0.1 0 0 0.105 0 0 0.11 0 0 0.115 0 0 0.12 0 0 0.125 0 0 0.13 0 0 0.135 0 0 0.14 0 0 0.145 0 0 0.15 0 0 0.155 0 0 0.16 0 0 0.165 0 0 0.17 0 0 0.175 0 0 0.18 0 0 0.185 0 0 0.19 0 0 0.195 0 0 0.2 0 0 0.205 0 0 0.21 0 0 0.215 0 0 0.22 0 0 0.225 0 0 0.23 0 0 0.235 0 0 0.24 0 0 0.245 0 0 0.25 0 0 0.255 0 0 0.26 0 0 0.265 0 0 0.27 0 0 0.275 0 0 0.28 0 0 0.285 0 0 0.29 0 0 0.295 0 0 0.3 0 0 0.305 0 0 0.31 0 0 0.315 0 0 0.32 0 0 0.325 0 0 0.33 0 0 0.335 0 0 0.34 0 0 0.345 0 0 0.35 0 0 0.355 0 0 0.36 0 0 0.365 0 0 0.37 0 0 0.375 0 0 0.38 0 0 0.385 0 0 0.39 0 0 0.395 0 0 0.4 0 0 0.405 0 0 0.41 0 0 0.415 0 0 0.42 0 0 0.425 0 0 0.43 0 0 0.435 0 0 0.44 0 0 0.445 0 0 0.45 0 0 0.455 0 0 0.46 0 0 0.465 0 0 0.47 0 0 0.475 0 0 0.48 0 0 0.485 0 0 0.49 0 0 0.495 0 0 0.5 0 0 0.505 0 0 0.51 0 0 0.515 0 0 0.52 0 0 0.525 0 0 0.53 0 0 0.535 0 0 0.54 0 0 0.545 0 0 0.55 0 0 0.555 0 0 0.56 0 0 0.565 0 0 0.57 0 0 0.575 0 0 0.58 0 0 0.585 0 0 0.59 0 0 0.595 0 0 0.6 0 0 0.605 0 0 0.61 0 0 0.615 0 0 0.62 0 0 0.625 0 0 0.63 0 0 0.635 0 0 0.64 0 0 0.645 0 0 0.65 0 0 0.655 0 0 0.66 0 0 0.665 0 0 0.67 0 0 0.675 0 0 0.68 0 0 0.685 0 0 0.69 0 0 0.695 0 0 0.7 0 0 0.705 0 0 0.71 0 0 0.715 0 0 0.72 0 0 0.725 0 0 0.73 0 0 0.735 0 0 0.74 0 0 0.745 0 0 0.75 0 0 0.755 0 0 0.76 0 0 0.765 0 0 0.77 0 0 0.775 0 0 0.78 0 0 0.785 0 0 0.79 0 0 0.795 0 0 0.8 0 0 0.805 0 0 0.81 0 0 0.815 0 0 0.82 0 0 0.825 0 0 0.83 0 0 0.835 0 0 0.84 0 0 0.845 0 0 0.85 0 0 0.855 0 0 0.86 0 0 0.865 0 0 0.87 0 0 0.875 0 0 0.88 0 0 0.885 0 0 0.89 0 0 0.895 0 0 0.9 0 0 0.905 0 0 0.91 0 0 0.915 0 0 0.92 0 0 0.925 0 0 0.93 0 0 0.935 0 0 0.94 0 0 0.945 0 0 0.95 0 0 0.955 0 0 0.96 0 0 0.965 0 0 0.97 0 0 0.975 0 0 0.98 0 0 0.985 0 0 0.99 0 0 0.995 0 0 1 0 0 0 0.02 0 0.005 0.02 0 0.01 0.02 0 0.015 0.02 0 0.02 0.02 0 0.025 0.02 0 0.03 0.02 0 0.035 0.02 0 0.04 0.02 0 0.045 0.02 0 0.05 0.02 0 0.055 0.02 0 0.06 0.02 0 0.065 0.02 0 0.07 0.02 0 0.075 0.02 0 0.08 0.02 0 0.085 0.02 0 0.09 0.02 0 0.095 0.02 0 0.1 0.02 0 0.105 0.02 0 0.11 0.02 0 0.115 0.02 0 0.12 0.02 0 0.125 0.02 0 0.13 0.02 0 0.135 0.02 0 0.14 0.02 0 0.145 0.02 0 0.15 0.02 0 0.155 0.02 0 0.16 0.02 0 0.165 0.02 0 0.17 0.02 0 0.175 0.02 0 0.18 0.02 0 0.185 0.02 0 0.19 0.02 0 0.195 0.02 0 0.2 0.02 0 0.205 0.02 0 0.21 0.02 0 0.215 0.02 0 0.22 0.02 0 0.225 0.02 0 0.23 0.02 0 0.235 0.02 0 0.24 0.02 0 0.245 0.02 0 0.25 0.02 0 0.255 0.02 0 0.26 0.02 0 0.265 0.02 0 0.27 0.02 0 0.275 0.02 0 0.28 0.02 0 0.285 0.02 0 0.29 0.02 0 0.295 0.02 0 0.3 0.02 0 0.305 0.02 0 0.31 0.02 0 0.315 0.02 0 0.32 0.02 0 0.325 0.02 0 0.33 0.02 0 0.335 0.02 0 0.34 0.02 0 0.345 0.02 0 0.35 0.02 0 0.355 0.02 0 0.36 0.02 0 0.365 0.02 0 0.37 0.02 0 0.375 0.02 0 0.38 0.02 0 0.385 0.02 0 0.39 0.02 0 0.395 0.02 0 0.4 0.02 0 0.405 0.02 0 0.41 0.02 0 0.415 0.02 0 0.42 0.02 0 0.425 0.02 0 0.43 0.02 0 0.435 0.02 0 0.44 0.02 0 0.445 0.02 0 0.45 0.02 0 0.455 0.02 0 0.46 0.02 0 0.465 0.02 0 0.47 0.02 0 0.475 0.02 0 0.48 0.02 0 0.485 0.02 0 0.49 0.02 0 0.495 0.02 0 0.5 0.02 0 0.505 0.02 0 0.51 0.02 0 0.515 0.02 0 0.52 0.02 0 0.525 0.02 0 0.53 0.02 0 0.535 0.02 0 0.54 0.02 0 0.545 0.02 0 0.55 0.02 0 0.555 0.02 0 0.56 0.02 0 0.565 0.02 0 0.57 0.02 0 0.575 0.02 0 0.58 0.02 0 0.585 0.02 0 0.59 0.02 0 0.595 0.02 0 0.6 0.02 0 0.605 0.02 0 0.61 0.02 0 0.615 0.02 0 0.62 0.02 0 0.625 0.02 0 0.63 0.02 0 0.635 0.02 0 0.64 0.02 0 0.645 0.02 0 0.65 0.02 0 0.655 0.02 0 0.66 0.02 0 0.665 0.02 0 0.67 0.02 0 0.675 0.02 0 0.68 0.02 0 0.685 0.02 0 0.69 0.02 0 0.695 0.02 0 0.7 0.02 0 0.705 0.02 0 0.71 0.02 0 0.715 0.02 0 0.72 0.02 0 0.725 0.02 0 0.73 0.02 0 0.735 0.02 0 0.74 0.02 0 0.745 0.02 0 0.75 0.02 0 0.755 0.02 0 0.76 0.02 0 0.765 0.02 0 0.77 0.02 0 0.775 0.02 0 0.78 0.02 0 0.785 0.02 0 0.79 0.02 0 0.795 0.02 0 0.8 0.02 0 0.805 0.02 0 0.81 0.02 0 0.815 0.02 0 0.82 0.02 0 0.825 0.02 0 0.83 0.02 0 0.835 0.02 0 0.84 0.02 0 0.845 0.02 0 0.85 0.02 0 0.855 0.02 0 0.86 0.02 0 0.865 0.02 0 0.87 0.02 0 0.875 0.02 0 0.88 0.02 0 0.885 0.02 0 0.89 0.02 0 0.895 0.02 0 0.9 0.02 0 0.905 0.02 0 0.91 0.02 0 0.915 0.02 0 0.92 0.02 0 0.925 0.02 0 0.93 0.02 0 0.935 0.02 0 0.94 0.02 0 0.945 0.02 0 0.95 0.02 0 0.955 0.02 0 0.96 0.02 0 0.965 0.02 0 0.97 0.02 0 0.975 0.02 0 0.98 0.02 0 0.985 0.02 0 0.99 0.02 0 0.995 0.02 0 1 0.02 0 0 0.04 0 0.005 0.04 0 0.01 0.04 0 0.015 0.04 0 0.02 0.04 0 0.025 0.04 0 0.03 0.04 0 0.035 0.04 0 0.04 0.04 0 0.045 0.04 0 0.05 0.04 0 0.055 0.04 0 0.06 0.04 0 0.065 0.04 0 0.07 0.04 0 0.075 0.04 0 0.08 0.04 0 0.085 0.04 0 0.09 0.04 0 0.095 0.04 0 0.1 0.04 0 0.105 0.04 0 0.11 0.04 0 0.115 0.04 0 0.12 0.04 0 0.125 0.04 0 0.13 0.04 0 0.135 0.04 0 0.14 0.04 0 0.145 0.04 0 0.15 0.04 0 0.155 0.04 0 0.16 0.04 0 0.165 0.04 0 0.17 0.04 0 0.175 0.04 0 0.18 0.04 0 0.185 0.04 0 0.19 0.04 0 0.195 0.04 0 0.2 0.04 0 0.205 0.04 0 0.21 0.04 0 0.215 0.04 0 0.22 0.04 0 0.225 0.04 0 0.23 0.04 0 0.235 0.04 0 0.24 0.04 0 0.245 0.04 0 0.25 0.04 0 0.255 0.04 0 0.26 0.04 0 0.265 0.04 0 0.27 0.04 0 0.275 0.04 0 0.28 0.04 0 0.285 0.04 0 0.29 0.04 0 0.295 0.04 0 0.3 0.04 0 0.305 0.04 0 0.31 0.04 0 0.315 0.04 0 0.32 0.04 0 0.325 0.04 0 0.33 0.04 0 0.335 0.04 0 0.34 0.04 0 0.345 0.04 0 0.35 0.04 0 0.355 0.04 0 0.36 0.04 0 0.365 0.04 0 0.37 0.04 0 0.375 0.04 0 0.38 0.04 0 0.385 0.04 0 0.39 0.04 0 0.395 0.04 0 0.4 0.04 0 0.405 0.04 0 0.41 0.04 0 0.415 0.04 0 0.42 0.04 0 0.425 0.04 0 0.43 0.04 0 0.435 0.04 0 0.44 0.04 0 0.445 0.04 0 0.45 0.04 0 0.455 0.04 0 0.46 0.04 0 0.465 0.04 0 0.47 0.04 0 0.475 0.04 0 0.48 0.04 0 0.485 0.04 0 0.49 0.04 0 0.495 0.04 0 0.5 0.04 0 0.505 0.04 0 0.51 0.04 0 0.515 0.04 0 0.52 0.04 0 0.525 0.04 0 0.53 0.04 0 0.535 0.04 0 0.54 0.04 0 0.545 0.04 0 0.55 0.04 0 0.555 0.04 0 0.56 0.04 0 0.565 0.04 0 0.57 0.04 0 0.575 0.04 0 0.58 0.04 0 0.585 0.04 0 0.59 0.04 0 0.595 0.04 0 0.6 0.04 0 0.605 0.04 0 0.61 0.04 0 0.615 0.04 0 0.62 0.04 0 0.625 0.04 0 0.63 0.04 0 0.635 0.04 0 0.64 0.04 0 0.645 0.04 0 0.65 0.04 0 0.655 0.04 0 0.66 0.04 0 0.665 0.04 0 0.67 0.04 0 0.675 0.04 0 0.68 0.04 0 0.685 0.04 0 0.69 0.04 0 0.695 0.04 0 0.7 0.04 0 0.705 0.04 0 0.71 0.04 0 0.715 0.04 0 0.72 0.04 0 0.725 0.04 0 0.73 0.04 0 0.735 0.04 0 0.74 0.04 0 0.745 0.04 0 0.75 0.04 0 0.755 0.04 0 0.76 0.04 0 0.765 0.04 0 0.77 0.04 0 0.775 0.04 0 0.78 0.04 0 0.785 0.04 0 0.79 0.04 0 0.795 0.04 0 0.8 0.04 0 0.805 0.04 0 0.81 0.04 0 0.815 0.04 0 0.82 0.04 0 0.825 0.04 0 0.83 0.04 0 0.835 0.04 0 0.84 0.04 0 0.845 0.04 0 0.85 0.04 0 0.855 0.04 0 0.86 0.04 0 0.865 0.04 0 0.87 0.04 0 0.875 0.04 0 0.88 0.04 0 0.885 0.04 0 0.89 0.04 0 0.895 0.04 0 0.9 0.04 0 0.905 0.04 0 0.91 0.04 0 0.915 0.04 0 0.92 0.04 0 0.925 0.04 0 0.93 0.04 0 0.935 0.04 0 0.94 0.04 0 0.945 0.04 0 0.95 0.04 0 0.955 0.04 0 0.96 0.04 0 0.965 0.04 0 0.97 0.04 0 0.975 0.04 0 0.98 0.04 0 0.985 0.04 0 0.99 0.04 0 0.995 0.04 0 1 0.04 0 0 0.06 0 0.005 0.06 0 0.01 0.06 0 0.015 0.06 0 0.02 0.06 0 0.025 0.06 0 0.03 0.06 0 0.035 0.06 0 0.04 0.06 0 0.045 0.06 0 0.05 0.06 0 0.055 0.06 0 0.06 0.06 0 0.065 0.06 0 0.07 0.06 0 0.075 0.06 0 0.08 0.06 0 0.085 0.06 0 0.09 0.06 0 0.095 0.06 0 0.1 0.06 0 0.105 0.06 0 0.11 0.06 0 0.115 0.06 0 0.12 0.06 0 0.125 0.06 0 0.13 0.06 0 0.135 0.06 0 0.14 0.06 0 0.145 0.06 0 0.15 0.06 0 0.155 0.06 0 0.16 0.06 0 0.165 0.06 0 0.17 0.06 0 0.175 0.06 0 0.18 0.06 0 0.185 0.06 0 0.19 0.06 0 0.195 0.06 0 0.2 0.06 0 0.205 0.06 0 0.21 0.06 0 0.215 0.06 0 0.22 0.06 0 0.225 0.06 0 0.23 0.06 0 0.235 0.06 0 0.24 0.06 0 0.245 0.06 0 0.25 0.06 0 0.255 0.06 0 0.26 0.06 0 0.265 0.06 0 0.27 0.06 0 0.275 0.06 0 0.28 0.06 0 0.285 0.06 0 0.29 0.06 0 0.295 0.06 0 0.3 0.06 0 0.305 0.06 0 0.31 0.06 0 0.315 0.06 0 0.32 0.06 0 0.325 0.06 0 0.33 0.06 0 0.335 0.06 0 0.34 0.06 0 0.345 0.06 0 0.35 0.06 0 0.355 0.06 0 0.36 0.06 0 0.365 0.06 0 0.37 0.06 0 0.375 0.06 0 0.38 0.06 0 0.385 0.06 0 0.39 0.06 0 0.395 0.06 0 0.4 0.06 0 0.405 0.06 0 0.41 0.06 0 0.415 0.06 0 0.42 0.06 0 0.425 0.06 0 0.43 0.06 0 0.435 0.06 0 0.44 0.06 0 0.445 0.06 0 0.45 0.06 0 0.455 0.06 0 0.46 0.06 0 0.465 0.06 0 0.47 0.06 0 0.475 0.06 0 0.48 0.06 0 0.485 0.06 0 0.49 0.06 0 0.495 0.06 0 0.5 0.06 0 0.505 0.06 0 0.51 0.06 0 0.515 0.06 0 0.52 0.06 0 0.525 0.06 0 0.53 0.06 0 0.535 0.06 0 0.54 0.06 0 0.545 0.06 0 0.55 0.06 0 0.555 0.06 0 0.56 0.06 0 0.565 0.06 0 0.57 0.06 0 0.575 0.06 0 0.58 0.06 0 0.585 0.06 0 0.59 0.06 0 0.595 0.06 0 0.6 0.06 0 0.605 0.06 0 0.61 0.06 0 0.615 0.06 0 0.62 0.06 0 0.625 0.06 0 0.63 0.06 0 0.635 0.06 0 0.64 0.06 0 0.645 0.06 0 0.65 0.06 0 0.655 0.06 0 0.66 0.06 0 0.665 0.06 0 0.67 0.06 0 0.675 0.06 0 0.68 0.06 0 0.685 0.06 0 0.69 0.06 0 0.695 0.06 0 0.7 0.06 0 0.705 0.06 0 0.71 0.06 0 0.715 0.06 0 0.72 0.06 0 0.725 0.06 0 0.73 0.06 0 0.735 0.06 0 0.74 0.06 0 0.745 0.06 0 0.75 0.06 0 0.755 0.06 0 0.76 0.06 0 0.765 0.06 0 0.77 0.06 0 0.775 0.06 0 0.78 0.06 0 0.785 0.06 0 0.79 0.06 0 0.795 0.06 0 0.8 0.06 0 0.805 0.06 0 0.81 0.06 0 0.815 0.06 0 0.82 0.06 0 0.825 0.06 0 0.83 0.06 0 0.835 0.06 0 0.84 0.06 0 0.845 0.06 0 0.85 0.06 0 0.855 0.06 0 0.86 0.06 0 0.865 0.06 0 0.87 0.06 0 0.875 0.06 0 0.88 0.06 0 0.885 0.06 0 0.89 0.06 0 0.895 0.06 0 0.9 0.06 0 0.905 0.06 0 0.91 0.06 0 0.915 0.06 0 0.92 0.06 0 0.925 0.06 0 0.93 0.06 0 0.935 0.06 0 0.94 0.06 0 0.945 0.06 0 0.95 0.06 0 0.955 0.06 0 0.96 0.06 0 0.965 0.06 0 0.97 0.06 0 0.975 0.06 0 0.98 0.06 0 0.985 0.06 0 0.99 0.06 0 0.995 0.06 0 1 0.06 0 0 0.08 0 0.005 0.08 0 0.01 0.08 0 0.015 0.08 0 0.02 0.08 0 0.025 0.08 0 0.03 0.08 0 0.035 0.08 0 0.04 0.08 0 0.045 0.08 0 0.05 0.08 0 0.055 0.08 0 0.06 0.08 0 0.065 0.08 0 0.07 0.08 0 0.075 0.08 0 0.08 0.08 0 0.085 0.08 0 0.09 0.08 0 0.095 0.08 0 0.1 0.08 0 0.105 0.08 0 0.11 0.08 0 0.115 0.08 0 0.12 0.08 0 0.125 0.08 0 0.13 0.08 0 0.135 0.08 0 0.14 0.08 0 0.145 0.08 0 0.15 0.08 0 0.155 0.08 0 0.16 0.08 0 0.165 0.08 0
[...]
			<PointData Scalars="VitesseX">
				<DataArray Name="VitesseX" type="Float32" format="ascii">
 0 -5.50425e-15 6.2606e-14 -1.8937e-13 9.97409e-14 2.28143e-14 -8.13923e-14 -9.69268e-14 7.53708e-14 -6.94571e-14 -1.4524e-13 3.25483e-13 -6.00874e-13 5.96222e-13 -3.99615e-13 -2.7119e-14 2.96418e-13 -4.27831e-13 3.90502e-13 -3.22609e-13 2.33244e-14 1.0966e-13 1.89619e-13 1.94447e-14 -4.21714e-13 -1.9533e-13 2.69923e-13 -3.11631e-13 9.95063e-14 -3.12303e-13 5.58029e-13 -4.1446e-13 4.0269e-13 2.84209e-15 -5.97803e-13 4.60244e-13 -6.17024e-13 8.72636e-13 -8.7729e-13 5.67287e-13 -4.45734e-13 4.43142e-13 9.6211e-15 -6.0528e-13 -1.84667e-13 9.42795e-13 -1.28046e-12 1.36285e-12 -7.45274e-13 1.65036e-13 1.81374e-14 -6.17996e-14 1.59326e-12 -2.43031e-12 7.25544e-13 -3.59905e-13 -1.22451e-12 2.03158e-12 -2.35924e-12 1.09872e-12 8.25304e-13 6.02286e-13 5.02791e-14 -8.80697e-13 7.61179e-13 1.07444e-13 -1.82718e-13 -4.48281e-13 -1.85203e-12 1.10621e-12 1.12447e-12 -2.3505e-12 1.58713e-12 -9.28352e-13 2.65929e-12 -1.08841e-12 -5.2963e-13 8.61523e-13 -1.33691e-12 1.90376e-12 -2.46868e-12 4.97351e-13 1.14218e-12 -2.22543e-12 4.6046e-13 2.01379e-12 -9.24148e-13 -3.29927e-13 7.46911e-13 -1.38456e-12 3.25257e-12 7.37156e-11 4.63839e-09 2.23404e-07 8.11174e-06 0.000211858 0.00371434 0.0392133 0.21151 0.508558 0.68027 0.824666 0.824532 0.714884 0.522939 0.309718 0.136763 0.0400463 0.00790565 0.00124293 0.000172294 2.16666e-05 2.49396e-06 2.64094e-07 2.5828e-08 2.34007e-09 1.95766e-10 1.47159e-11 3.72155e-12 -1.51801e-12 2.75108e-12 -1.60869e-12 -5.44166e-13 2.26856e-12 -2.565e-12 2.31673e-12 -1.40313e-12 -7.00116e-13 2.27749e-12 -2.58667e-12 2.41944e-12 -1.29797e-12 -6.50502e-13 2.11169e-12 -2.44273e-12 2.1382e-12 -1.57702e-12 -1.07137e-12 8.00228e-13 -2.34559e-12 1.85228e-12 6.9879e-14 -2.7029e-12 3.47139e-12 9.96421e-13 -1.78797e-12 2.73551e-12 -3.71408e-12 2.87978e-12 2.66448e-13 -2.03112e-12 2.57885e-12 -3.46153e-12 3.24025e-12 -2.4791e-12 2.33706e-12 -2.10662e-12 -2.49802e-13 1.40845e-12 -6.20125e-13 1.2525e-12 -1.7219e-12 1.73619e-13 8.17761e-13 -1.29418e-12 -8.98177e-14 -6.01542e-13 2.48962e-13 2.14815e-12 -2.0357e-12 1.87656e-12 4.26683e-14 -2.07341e-12 2.84563e-12 -2.75474e-12 2.01166e-12 -1.91756e-13 -1.84012e-12 2.69911e-12 -2.54353e-12 1.51451e-12 5.40562e-13 -2.35724e-12 2.88114e-12 -2.61188e-12 1.95175e-12 -9.80152e-14 -2.70379e-12 1.78327e-12 -4.09425e-12 1.22057e-12 3.7145e-12 -7.6159e-12 5.0753e-12 3.35595e-13 1.13379e-12 1.8683e-12 -4.69114e-12 4.38943e-12 -1.27832e-12 0 0 -2.05275e-15 -4.53924e-14 5.22394e-14 -1.3739e-13 -6.07237e-15 3.87364e-14 1.88301e-14 -1.26953e-13 -1.33923e-13 1.48262e-13 -1.44347e-13 1.93624e-13 -4.29908e-13 3.23576e-13 -1.45452e-13 -3.06487e-13 4.04445e-13 -3.7106e-13 2.49524e-13 1.13138e-13 -8.11119e-14 -1.36412e-13 8.71953e-14 2.06994e-13 -9.58323e-14 -5.84648e-13 -4.12963e-14 2.69865e-13 6.02466e-14 -2.45779e-13 4.15015e-13 -3.74208e-13 -1.3953e-13 4.13209e-13 -1.70558e-13 4.5101e-14 -7.80065e-13 7.71142e-13 -3.60867e-13 3.63147e-13 -8.72044e-14 -4.23069e-13 1.92289e-13 2.00521e-13 -5.84886e-13 5.44663e-13 -5.62719e-13 6.14769e-13 5.89878e-15 1.13733e-13 1.0298e-13 -8.78359e-13 8.63366e-13 -1.15821e-12 -5.35017e-13 8.25096e-13 -4.20042e-13 3.90981e-13 -7.05156e-13 4.67699e-13 6.26387e-13 2.12745e-13 2.7024e-13 -5.02122e-13 -3.19198e-14 1.32865e-13 -7.50566e-13 1.04176e-14 -4.41307e-13 -1.95017e-13 6.29605e-13 -6.61655e-13 1.30351e-12 -7.59399e-13 8.67173e-13 9.59803e-14 -6.50102e-13 6.52085e-13 -1.38564e-12 1.05597e-12 -9.90874e-13 -8.69452e-13 1.49392e-12 -1.12457e-13 -1.24623e-12 1.0209e-12 6.40275e-13 -3.79052e-13 7.80024e-13 -4.53714e-13 7.61925e-11 4.63848e-09 2.23403e-07 8.11174e-06 0.000211858 0.00371434 0.0392133 0.21151 0.508558 0.68027 0.824666 0.824532 0.714884 0.522939 0.309718 0.136763 0.0400463 0.00790565 0.00124293 0.000172294 2.16666e-05 2.49396e-06 2.64094e-07 2.58255e-08 2.34049e-09 1.97214e-10 1.60647e-11 1.95746e-13 1.88124e-12 -1.42102e-12 1.62948e-12 1.52619e-13 -1.404e-12 1.20044e-12 -1.44737e-12 1.38239e-12 5.33575e-13 -1.76628e-12 1.34023e-12 -1.45356e-12 1.51148e-12 3.0184e-13 -1.53672e-12 1.33788e-12 -1.55819e-12 1.18508e-12 -2.40365e-13 -2.37192e-12 4.05644e-13 1.46045e-14 -9.51659e-13 2.69311e-12 -1.03854e-12 -1.92998e-13 1.60479e-12 -1.32913e-12 2.69962e-12 -1.95149e-12 -6.75397e-13 1.45005e-12 -1.14985e-12 2.52879e-12 -2.64231e-12 1.09412e-12 -1.32963e-12 1.27505e-12 8.33627e-14 -1.16105e-12 1.659e-13 -2.23587e-13 2.40117e-12 -9.33876e-13 -1.82584e-12 -6.46389e-13 -1.35172e-13 1.97732e-12 -4.28162e-13 -9.13843e-13 2.17922e-12 -1.8686e-12 -2.5041e-13 2.00356e-12 -1.64586e-12 2.12858e-12 -2.2401e-12 1.06227e-13 1.54346e-12 -1.2293e-12 1.62696e-12 -1.6711e-12 -7.2974e-13 2.17039e-12 -1.71236e-12 2.02157e-12 -1.99627e-12 -3.17259e-13 1.30497e-12 -2.51512e-12 9.89404e-13 -2.40542e-12 2.85688e-13 3.45177e-12 -3.27082e-12 4.62506e-13 7.56125e-13 3.47539e-13 4.40651e-12 -3.87475e-12 -3.30345e-13 0 0 4.2115e-15 -1.70977e-14 -6.50067e-15 -3.25345e-14 -1.19637e-13 -1.062e-13 9.63849e-14 -7.59164e-14 -1.37819e-14 -6.0732e-14 -2.44076e-14 -6.17414e-14 -1.32226e-13 -1.07412e-14 -1.55523e-13 1.18026e-14 2.06328e-13 -8.28355e-14 -8.67253e-14 8.41068e-14 -5.63625e-14 2.14654e-13 -9.42707e-14 -1.73154e-13 -6.57072e-14 -1.04984e-14 9.81838e-15 -1.66118e-14 -2.1457e-13 -1.97641e-14 1.62071e-13 5.60124e-14 -1.0001e-13 -2.57847e-13 -5.39406e-15 1.09201e-13 8.28714e-14 -1.08288e-13 -1.62642e-13 5.58786e-14 1.4994e-13 -2.04913e-13 -2.78501e-13 1.35551e-13 1.36172e-13 2.38666e-13 -2.82554e-13 -1.95653e-13 -2.80819e-13 -1.22551e-13 4.44825e-13 2.38628e-13 -2.6166e-13 -1.31204e-12 -3.76479e-13 8.46861e-13 1.7925e-13 -6.47602e-14 -5.61703e-13 5.01938e-13 5.41028e-13 -1.87348e-14 2.39971e-13 -1.43153e-13 1.48811e-13 7.47277e-15 -6.53871e-13 -3.20523e-13 -8.03453e-14 -6.91984e-14 -2.29771e-13 -7.70417e-13 9.66375e-13 6.44826e-13 -2.38092e-13 -3.90339e-13 -3.00936e-13 7.59398e-13 -3.15935e-13 -8.68327e-13 3.64676e-13 -1.514e-13 2.2447e-13 -1.08492e-12 1.13463e-12 6.16647e-13 -4.81451e-13 4.08181e-13 2.29224e-13 2.00719e-12 7.50344e-11 4.63682e-09 2.23404e-07 8.11174e-06 0.000211858 0.00371434 0.0392133 0.21151 0.508558 0.68027 0.824666 0.824532 0.714884 0.522939 0.309718 0.136763 0.0400463 0.00790565 0.00124293 0.000172294 2.16666e-05 2.49396e-06 2.64094e-07 2.58272e-08 2.33945e-09 1.96009e-10 1.62686e-11 1.53414e-12 1.13877e-14 3.87374e-13 -9.31309e-13 1.42934e-12 -5.69252e-14 -5.0673e-13 -5.798e-15 -1.07512e-12 1.42821e-12 -2.53364e-13 -2.54204e-13 1.66142e-13 -1.04787e-12 1.47135e-12 1.4872e-13 -4.46801e-13 1.3242e-13 -1.13903e-12 8.64065e-13 -6.85298e-13 -1.37324e-12 5.86754e-13 6.59638e-15 1.10776e-13 4.26683e-13 7.37107e-13 -8.27666e-13 3.90631e-13 6.49109e-13 -3.64033e-13 4.43665e-13 -1.08106e-12 5.98282e-13 8.76583e-13 -7.26699e-13 -2.31757e-13 5.52556e-13 -1.08918e-12 1.33306e-12 1.23601e-13 6.16893e-13 -6.91872e-13 -1.84046e-12 6.61255e-13 5.38467e-13 5.66929e-14 -7.23017e-13 -1.0019e-12 3.0827e-13 2.41678e-13 2.21379e-13 5.48534e-13 2.20378e-13 1.51531e-13 -5.95355e-13 -2.14172e-13 1.02336e-12 -2.06703e-13 3.7686e-13 -9.03729e-13 -1.42702e-13 8.96833e-13 -7.7782e-14 -3.39693e-14 -8.37776e-13 -1.7871e-13 9.39112e-13 -1.39657e-13 -3.54857e-13 -1.65855e-12 -1.16161e-12 9.74709e-13 4.39714e-13 -1.33899e-12 -8.57626e-13 1.89761e-12 7.22049e-13 -3.65066e-14 -1.37586e-13 -1.22949e-13 8.03872e-13 0 0 -2.11932e-14 4.08351e-14 -9.13656e-14 -1.74716e-14 -5.73408e-14 -4.39803e-14 2.45397e-14 -1.52173e-13 -1.06445e-13 -1.76317e-13 1.75464e-13 -2.37468e-13 1.95237e-13 -3.34955e-13 -8.26074e-14 3.10256e-13 -2.40929e-13 1.50459e-13 -1.13804e-13 1.04918e-13 -1.72065e-13 5.64501e-14 2.08812e-14 -1.5025e-13 -1.62605e-13 -4.17754e-15 -8.48313e-14 7.55918e-14 -1.64466e-13 1.41149e-13 -5.8236e-14 1.44137e-13 -9.96051e-14 -3.51072e-13 1.46886e-14 -3.55902e-13 6.44303e-13 -6.79024e-13 2.97337e-13 2.7663e-14 3.50789e-13 -1.95667e-13 -2.66461e-13 -3.48655e-13 3.44559e-13 -8.47007e-13 8.09157e-13 -4.87311e-13 -3.85959e-14 -2.89457e-13 -3.16859e-13 1.22743e-12 -8.87928e-13 -8.18285e-13 -4.5292e-13 6.48583e-13 8.07058e-13 -6.2864e-13 -3.91758e-13 4.82691e-13 5.56888e-13 3.99092e-13 5.69364e-13 -3.3412e-13 -2.58164e-13 -2.26078e-13 -4.04694e-13 -3.51433e-13 -9.64405e-13 8.46372e-13 -8.11854e-13 -2.30244e-13 4.03716e-13 1.01321e-12 -1.2624e-12 6.20366e-13 -6.82504e-14 3.21448e-13 4.04044e-13 -2.76886e-12 -1.68286e-13 1.50923e-12 -5.94221e-13 -3.23335e-13 1.5897e-12 -5.02152e-13 -6.74528e-14 1.24329e-12 -9.24743e-13 3.23224e-12 7.34741e-11 4.63811e-09 2.23404e-07 8.11174e-06 0.000211858 0.00371434 0.0392133 0.21151 0.508558 0.68027 0.824666 0.824532 0.714884 0.522939 0.309718 0.136763 0.0400463 0.00790565 0.00124293 0.000172294 2.16666e-05 2.49396e-06 2.64093e-07 2.58277e-08 2.33934e-09 1.96075e-10 1.60321e-11 1.59397e-12 -1.12708e-12 1.86284e-12 -1.86946e-12 1.31414e-12 2.0609e-13 -1.2747e-12 1.57672e-12 -1.81006e-12 1.0844e-12 3.02024e-13 -1.21569e-12 1.74523e-12 -1.76104e-12 1.40137e-12 5.34888e-13 -1.71189e-12 1.5545e-12 -1.8855e-12 6.07871e-13 -2.17151e-13 -1.47788e-12 -8.80505e-14 4.28332e-13 -6.78401e-14 1.72028e-13 4.14754e-14 -1.38882e-12 2.49697e-12 -1.67383e-13 -6.64235e-13 -7.50642e-13 -7.13404e-13 2.54951e-12 -1.4737e-13 2.69732e-13 -1.65789e-12 2.33422e-12 -1.57961e-12 9.25683e-13 -6.9591e-13 -8.18592e-13 1.77024e-12 -1.36414e-12 1.09155e-12 -1.81269e-12 -5.51494e-13 7.21212e-13 -1.23896e-12 1.16893e-12 8.12285e-13 -5.25061e-13 7.22808e-13 -1.29207e-12 -4.30608e-13 2.18737e-12 -1.24102e-12 9.94502e-13 -1.35962e-12 -2.85422e-13 1.97182e-12 -7.69013e-13 5.7664e-14 -1.25016e-12 -6.19091e-13 2.22452e-12 -1.38953e-12 6.28491e-13 -1.29212e-12 -5.11474e-13 7.55969e-13 -2.92803e-12 -8.23393e-13 2.18443e-12 -9.31598e-13 1.91432e-13 -8.11966e-13 -2.72871e-13 2.35397e-12 5.08406e-13 -2.05924e-13 -2.50134e-12 0 0 -2.24234e-14 -8.11617e-15 2.61694e-14 -1.66791e-13 -3.24939e-14 1.21203e-14 -8.08225e-14 -1.49015e-13 -1.89658e-13 5.0209e-14 -2.38619e-13 1.92471e-13 -2.88388e-13 1.19501e-13 -1.02084e-13 5.1984e-14 3.52231e-13 -2.56789e-13 6.04104e-14 -2.48583e-14 -2.43221e-13 -4.40293e-13 1.4603e-13 1.46466e-13 -1.76833e-13 -4.86193e-13 1.14105e-13 1.90697e-13 1.44771e-13 -2.13254e-13 2.66511e-13 -2.71727e-13 -1.60249e-13 2.32468e-13 -1.53759e-14 2.41841e-13 -2.02904e-13 3.43131e-13 -5.56142e-13 1.761e-13 -1.52914e-13 -3.59009e-13 6.92472e-14 -3.89204e-14 -4.05132e-13 7.61218e-14 -2.72989e-13 1.77308e-13 1.86777e-14 2.06572e-14 1.06498e-13 -1.69372e-13 4.6508e-13 -1.18966e-12 -6.28315e-13 7.26144e-13 -7.40227e-14 4.36353e-13 -5.15757e-13 5.33006e-13 5.3205e-13 5.10494e-13 3.24701e-13 -5.92105e-13 -3.49313e-13 -2.26436e-14 -4.4724e-13 -1.27837e-13 -1.03946e-12 1.35169e-13 4.95997e-13 -2.9691e-13 1.92508e-12 -5.06199e-13 -1.58707e-13 -4.3584e-13 -9.30441e-13 1.36442e-13 -7.20241e-13 2.50328e-14 -2.91194e-12 3.81268e-13 1.62634e-12 1.70391e-13 -1.74164e-12 3.00236e-13 1.34905e-12 -4.25134e-13 1.29372e-12 5.49396e-15 7.50817e-11 4.64008e-09 2.23402e-07 8.11174e-06 0.000211858 0.00371434 0.0392133 0.21151 0.508558 0.68027 0.824666 0.824532 0.714884 0.522939 0.309718 0.136763 0.0400463 0.00790565 0.00124293 0.000172294 2.16666e-05 2.49396e-06 2.64094e-07 2.58258e-08 2.3403e-09 1.97519e-10 1.55108e-11 4.96105e-13 1.65533e-12 -1.37519e-12 1.63814e-12 -8.91896e-13 -1.06029e-12 1.80551e-12 -1.44792e-12 1.41964e-12 -3.17848e-13 -1.07573e-12 1.44682e-12 -1.345e-12 1.51836e-12 -4.94442e-13 -9.68149e-13 1.50821e-12 -1.53543e-12 1.16003e-12 -1.13014e-12 -2.20754e-12 1.20806e-12 -1.22005e-12 -1.16041e-12 3.23455e-12 -1.81625e-12 -1.18311e-12 2.12223e-12 -1.17351e-12 3.98555e-12 -2.20731e-12 -6.53858e-13 1.69646e-12 -2.4418e-12 2.03397e-12 -2.63936e-12 1.63327e-12 -1.01755e-12 2.97124e-12 -8.11639e-13 -1.53076e-12 -1.22379e-12 5.11645e-13 3.74681e-12 -3.03114e-12 -2.74604e-12 -6.48882e-13 6.25415e-13 1.91583e-12 -3.40723e-12 2.3681e-13 4.40099e-12 -2.06001e-12 -1.52882e-12 1.53784e-12 3.59818e-13 3.53997e-12 -4.29219e-12 -3.34466e-13 8.36631e-13 1.82523e-13 3.38836e-12 -3.4926e-12 -2.00259e-12 1.56593e-12 4.3168e-13 3.24769e-12 -3.94262e-12 -1.00397e-12 1.21116e-12 -1.00618e-12 4.99602e-13 -6.15057e-12 1.21784e-12 6.87111e-12 -3.47939e-12 -1.4746e-12 -4.32909e-14 1.83914e-12 6.54372e-12 -5.45648e-12 -2.56145e-12 0 0 4.56383e-15 2.12928e-14 -7.17806e-14 1.08133e-14 -1.54622e-13 -2.59063e-13 -1.52542e-13 1.83761e-13 4.39818e-15 -1.10176e-13 -2.62803e-13 -2.51726e-13 2.24336e-13 -1.59335e-13 -8.62136e-14 4.16451e-13 3.62255e-13 1.52454e-13 -6.46679e-13 -2.9429e-13 1.68459e-14 -1.01735e-13 -9.31896e-14 -5.88578e-13 -1.63536e-13 4.54191e-13 1.8847e-13 -2.43236e-13 -2.43464e-13 3.01252e-13 -2.70853e-13 4.31403e-13 -3.94054e-14 -7.72832e-13 7.30443e-13 7.06662e-13 9.04096e-13 -5.9184e-13 -7.43221e-13 -7.63398e-13 -8.99773e-14 1.1925e-13 -8.75446e-13 3.04863e-13 8.85528e-13 -4.61926e-14 -2.41108e-13 -1.03688e-12 -2.93853e-13 1.65798e-13 1.4686e-12 1.03363e-12 -1.97435e-12 -3.24854e-13 -3.9362e-13 -1.02586e-12 1.468e-12 -1.14073e-12 1.13763e-12 9.94411e-13 3.81891e-13 -1.89876e-13 -1.43056e-12 9.63147e-13 2.86609e-13 -2.66353e-14 -3.39983e-13 -2.06672e-12 1.67803e-12 -4.62984e-14 -1.45355e-12 1.23627e-12 1.44012e-12 2.42893e-12 -1.09156e-12 -3.61468e-12 -1.64527e-13 -1.49229e-12 1.7946e-12 -7.29487e-13 -2.27885e-12 3.22358e-13 -3.23198e-13 -4.97018e-13 1.12838e-13 -1.27877e-13 2.59629e-13 -1.01547e-12 1.95077e-12 1.72087e-12 7.46146e-11 4.63901e-09 2.23402e-07 8.11174e-06 0.000211858 0.00371434 0.0392133 0.21151 0.508558 0.68027 0.824666 0.824532 0.714884 0.522939 0.309718 0.136763 0.0400463 0.00790565 0.00124293 0.000172294 2.16666e-05 2.49396e-06 2.64095e-07 2.58277e-08 2.33989e-09 1.96247e-10 1.40813e-11 4.2026e-12 3.07101e-13 -1.0819e-13 2.84941e-13 -2.40281e-12 2.42993e-12 1.81096e-13 -8.49394e-13 1.41234e-13 -1.71535e-12 2.54781e-12 -4.50523e-13 -5.21621e-13 1.42113e-13 -2.10309e-12 2.47651e-12 4.28128e-13 -6.60449e-13 -1.34164e-13 -2.33854e-12 1.92679e-13 -5.31466e-13 7.32578e-13 -1.1911e-12 -1.26279e-12 2.42526e-12 4.07468e-13 3.69226e-13 -1.16592e-12 4.90772e-13 2.96855e-12 2.69814e-12 -2.27362e-12 -3.90751e-12 -2.40327e-12 1.25329e-12 1.45147e-12 -6.02099e-13 2.26663e-12 -1.22506e-12 2.30805e-12 -5.28545e-13 -2.20125e-12 1.67387e-14 -4.88149e-12 3.67969e-12 -8.27937e-14 -1.4571e-12 -2.50397e-13 -7.43049e-12 3.30824e-12 3.90074e-12 1.14519e-12 5.10728e-13 -1.84057e-12 1.29153e-12 2.12174e-12 -2.03481e-12 1.23269e-12 -1.92922e-12 -2.2835e-13 2.2319e-12 -4.50161e-13 3.39619e-13 -2.39593e-12 1.04462e-12 2.26199e-12 -1.31971e-12 8.335e-13 -2.57818e-12 -2.78617e-14 -1.54103e-12 -2.67353e-12 2.08938e-12 -1.59201e-12 2.56004e-12 1.88053e-12 1.5248e-12 7.05562e-14 -1.7087e-12 1.39193e-12 8.69895e-13 0
				</DataArray>
				<DataArray Name="VitesseY" type="Float32" format="ascii">