<?xml version="1.0"?>
<VTKFile type="PolyData">
	<PolyData>
		<Piece NumberOfPoints="1206" NumberOfPolys="1000">
			<Points>
				<DataArray type="Float32" NumberOfComponents="3" format="ascii">
 0 0 0 0.005 0 0 0.01 0 0 0.015 0 0 0.02 0 0 0.025 0 0 0.03 0 0 0.035 0 0 0.04 0 0 0.045 0 0 0.05 0 0 0.055 0 0 0.06 0 0 0.065 0 0 0.07 0 0 0.075 0 0 0.08 0 0 0.085 0 0 0.09 0 0 0.095 0 0 0.1 0 0 0.105 0 0 0.11 0 0 0.115 0 0 0.12 0 0 0.125 0 0 0.13 0 0 0.135 0 0 0.14 0 0 0.145 0 0 0.15 0 0 0.155 0 0 0.16 0 0 0.165 0 0 0.17 0 0 0.175 0 0 0.18 0 0 0.185 0 0 0.19 0 0 0.195 0 0 0.2 0 0 0.205 0 0 0.21 0 0 0.215 0 0 0.22 0 0 0.225 0 0 0.23 0 0 0.235 0 0 0.24 0 0 0.245 0 0 0.25 0 0 0.255 0 0 0.26 0 0 0.265 0 0 0.27 0 0 0.275 0 0 0.28 0 0 0.285 0 0 0.29 0 0 0.295 0 0 0.3 0 0 0.305 0 0 0.31 0 0 0.315 0 0 0.32 0 0 0.325 0 0 0.33 0 0 0.335 0 0 0.34 0 0 0.345 0 0 0.35 0 0 0.355 0 0 0.36 0 0 0.365 0 0 0.37 0 0 0.375 0 0 0.38 0 0 0.385 0 0 0.39 0 0 0.395 0 0 0.4 0 0 0.405 0 0 0.41 0 0 0.415 0 0 0.42 0 0 0.425 0 0 0.43 0 0 0.435 0 0 0.44 0 0 0.445 0 0 0.45 0 0 0.455 0 0 0.46 0 0 0.465 0 0 0.47 0 0 0.475 0 0 0.48 0 0 0.485 0 0 0.49 0 0 0.495 0 0 0.5 0 0 0.505 0 0 0.51 0 0 0.515 0 0 0.52 0 0 0.525 0 0 0.53 0 0 0.535 0 0 0.54 0 0 0.545 0 0 0.55 0 0 0.555 0 0 0.56 0 0 0.565 0 0 0.57 0 0 0.575 0 0 0.58 0 0 0.585 0 0 0.59 0 0 0.595 0 0 0.6 0 0 0.605 0 0 0.61 0 0 0.615 0 0 0.62 0 0 0.625 0 0 0.63 0 0 0.635 0 0 0.64 0 0 0.645 0 0 0.65 0 0 0.655 0 0 0.66 0 0 0.665 0 0 0.67 0 0 0.675 0 0 0.68 0 0 0.685 0 0 0.69 0 0 0.695 0 0 0.7 0 0 0.705 0 0 0.71 0 0 0.715 0 0 0.72 0 0 0.725 0 0 0.73 0 0 0.735 0 0 0.74 0 0 0.745 0 0 0.75 0 0 0.755 0 0 0.76 0 0 0.765 0 0 0.77 0 0 0.775 0 0 0.78 0 0 0.785 0 0 0.79 0 0 0.795 0 0 0.8 0 0 0.805 0 0 0.81 0 0 0.815 0 0 0.82 0 0 0.825 0 0 0.83 0 0 0.835 0 0 0.84 0 0 0.845 0 0 0.85 0 0 0.855 0 0 0.86 0 0 0.865 0 0 0.87 0 0 0.875 0 0 0.88 0 0 0.885 0 0 0.89 0 0 0.895 0 0 0.9 0 0 0.905 0 0 0.91 0 0 0.915 0 0 0.92 0 0 0.925 0 0 0.93 0 0 0.935 0 0 0.94 0 0 0.945 0 0 0.95 0 0 0.955 0 0 0.96 0 0 0.965 0 0 0.97 0 0 0.975 0 0 0.98 0 0 0.985 0 0 0.99 0 0 0.995 0 0 1 0 0 0 0.02 0 0.005 0.02 0 0.01 0.02 0 0.015 0.02 0 0.02 0.02 0 0.025 0.02 0 0.03 0.02 0 0.035 0.02 0 0.04 0.02 0 0.045 0.02 0 0.05 0.02 0 0.055 0.02 0 0.06 0.02 0 0.065 0.02 0 0.07 0.02 0 0.075 0.02 0 0.08 0.02 0 0.085 0.02 0 0.09 0.02 0 0.095 0.02 0 0.1 0.02 0 0.105 0.02 0 0.11 0.02 0 0.115 0.02 0 0.12 0.02 0 0.125 0.02 0 0.13 0.02 0 0.135 0.02 0 0.14 0.02 0 0.145 0.02 0 0.15 0.02 0 0.155 0.02 0 0.16 0.02 0 0.165 0.02 0 0.17 0.02 0 0.175 0.02 0 0.18 0.02 0 0.185 0.02 0 0.19 0.02 0 0.195 0.02 0 0.2 0.02 0 0.205 0.02 0 0.21 0.02 0 0.215 0.02 0 0.22 0.02 0 0.225 0.02 0 0.23 0.02 0 0.235 0.02 0 0.24 0.02 0 0.245 0.02 0 0.25 0.02 0 0.255 0.02 0 0.26 0.02 0 0.265 0.02 0 0.27 0.02 0 0.275 0.02 0 0.28 0.02 0 0.285 0.02 0 0.29 0.02 0 0.295 0.02 0 0.3 0.02 0 0.305 0.02 0 0.31 0.02 0 0.315 0.02 0 0.32 0.02 0 0.325 0.02 0 0.33 0.02 0 0.335 0.02 0 0.34 0.02 0 0.345 0.02 0 0.35 0.02 0 0.355 0.02 0 0.36 0.02 0 0.365 0.02 0 0.37 0.02 0 0.375 0.02 0 0.38 0.02 0 0.385 0.02 0 0.39 0.02 0 0.395 0.02 0 0.4 0.02 0 0.405 0.02 0 0.41 0.02 0 0.415 0.02 0 0.42 0.02 0 0.425 0.02 0 0.43 0.02 0 0.435 0.02 0 0.44 0.02 0 0.445 0.02 0 0.45 0.02 0 0.455 0.02 0 0.46 0.02 0 0.465 0.02 0 0.47 0.02 0 0.475 0.02 0 0.48 0.02 0 0.485 0.02 0 0.49 0.02 0 0.495 0.02 0 0.5 0.02 0 0.505 0.02 0 0.51 0.02 0 0.515 0.02 0 0.52 0.02 0 0.525 0.02 0 0.53 0.02 0 0.535 0.02 0 0.54 0.02 0 0.545 0.02 0 0.55 0.02 0 0.555 0.02 0 0.56 0.02 0 0.565 0.02 0 0.57 0.02 0 0.575 0.02 0 0.58 0.02 0 0.585 0.02 0 0.59 0.02 0 0.595 0.02 0 0.6 0.02 0 0.605 0.02 0 0.61 0.02 0 0.615 0.02 0 0.62 0.02 0 0.625 0.02 0 0.63 0.02 0 0.635 0.02 0 0.64 0.02 0 0.645 0.02 0 0.65 0.02 0 0.655 0.02 0 0.66 0.02 0 0.665 0.02 0 0.67 0.02 0 0.675 0.02 0 0.68 0.02 0 0.685 0.02 0 0.69 0.02 0 0.695 0.02 0 0.7 0.02 0 0.705 0.02 0 0.71 0.02 0 0.715 0.02 0 0.72 0.02 0 0.725 0.02 0 0.73 0.02 0 0.735 0.02 0 0.74 0.02 0 0.745 0.02 0 0.75 0.02 0 0.755 0.02 0 0.76 0.02 0 0.765 0.02 0 0.77 0.02 0 0.775 0.02 0 0.78 0.02 0 0.785 0.02 0 0.79 0.02 0 0.795 0.02 0 0.8 0.02 0 0.805 0.02 0 0.81 0.02 0 0.815 0.02 0 0.82 0.02 0 0.825 0.02 0 0.83 0.02 0 0.835 0.02 0 0.84 0.02 0 0.845 0.02 0 0.85 0.02 0 0.855 0.02 0 0.86 0.02 0 0.865 0.02 0 0.87 0.02 0 0.875 0.02 0 0.88 0.02 0 0.885 0.02 0 0.89 0.02 0 0.895 0.02 0 0.9 0.02 0 0.905 0.02 0 0.91 0.02 0 0.915 0.02 0 0.92 0.02 0 0.925 0.02 0 0.93 0.02 0 0.935 0.02 0 0.94 0.02 0 0.945 0.02 0 0.95 0.02 0 0.955 0.02 0 0.96 0.02 0 0.965 0.02 0 0.97 0.02 0 0.975 0.02 0 0.98 0.02 0 0.985 0.02 0 0.99 0.02 0 0.995 0.02 0 1 0.02 0 0 0.04 0 0.005 0.04 0 0.01 0.04 0 0.015 0.04 0 0.02 0.04 0 0.025 0.04 0 0.03 0.04 0 0.035 0.04 0 0.04 0.04 0 0.045 0.04 0 0.05 0.04 0 0.055 0.04 0 0.06 0.04 0 0.065 0.04 0 0.07 0.04 0 0.075 0.04 0 0.08 0.04 0 0.085 0.04 0 0.09 0.04 0 0.095 0.04 0 0.1 0.04 0 0.105 0.04 0 0.11 0.04 0 0.115 0.04 0 0.12 0.04 0 0.125 0.04 0 0.13 0.04 0 0.135 0.04 0 0.14 0.04 0 0.145 0.04 0 0.15 0.04 0 0.155 0.04 0 0.16 0.04 0 0.165 0.04 0 0.17 0.04 0 0.175 0.04 0 0.18 0.04 0 0.185 0.04 0 0.19 0.04 0 0.195 0.04 0 0.2 0.04 0 0.205 0.04 0 0.21 0.04 0 0.215 0.04 0 0.22 0.04 0 0.225 0.04 0 0.23 0.04 0 0.235 0.04 0 0.24 0.04 0 0.245 0.04 0 0.25 0.04 0 0.255 0.04 0 0.26 0.04 0 0.265 0.04 0 0.27 0.04 0 0.275 0.04 0 0.28 0.04 0 0.285 0.04 0 0.29 0.04 0 0.295 0.04 0 0.3 0.04 0 0.305 0.04 0 0.31 0.04 0 0.315 0.04 0 0.32 0.04 0 0.325 0.04 0 0.33 0.04 0 0.335 0.04 0 0.34 0.04 0 0.345 0.04 0 0.35 0.04 0 0.355 0.04 0 0.36 0.04 0 0.365 0.04 0 0.37 0.04 0 0.375 0.04 0 0.38 0.04 0 0.385 0.04 0 0.39 0.04 0 0.395 0.04 0 0.4 0.04 0 0.405 0.04 0 0.41 0.04 0 0.415 0.04 0 0.42 0.04 0 0.425 0.04 0 0.43 0.04 0 0.435 0.04 0 0.44 0.04 0 0.445 0.04 0 0.45 0.04 0 0.455 0.04 0 0.46 0.04 0 0.465 0.04 0 0.47 0.04 0 0.475 0.04 0 0.48 0.04 0 0.485 0.04 0 0.49 0.04 0 0.495 0.04 0 0.5 0.04 0 0.505 0.04 0 0.51 0.04 0 0.515 0.04 0 0.52 0.04 0 0.525 0.04 0 0.53 0.04 0 0.535 0.04 0 0.54 0.04 0 0.545 0.04 0 0.55 0.04 0 0.555 0.04 0 0.56 0.04 0 0.565 0.04 0 0.57 0.04 0 0.575 0.04 0 0.58 0.04 0 0.585 0.04 0 0.59 0.04 0 0.595 0.04 0 0.6 0.04 0 0.605 0.04 0 0.61 0.04 0 0.615 0.04 0 0.62 0.04 0 0.625 0.04 0 0.63 0.04 0 0.635 0.04 0 0.64 0.04 0 0.645 0.04 0 0.65 0.04 0 0.655 0.04 0 0.66 0.04 0 0.665 0.04 0 0.67 0.04 0 0.675 0.04 0 0.68 0.04 0 0.685 0.04 0 0.69 0.04 0 0.695 0.04 0 0.7 0.04 0 0.705 0.04 0 0.71 0.04 0 0.715 0.04 0 0.72 0.04 0 0.725 0.04 0 0.73 0.04 0 0.735 0.04 0 0.74 0.04 0 0.745 0.04 0 0.75 0.04 0 0.755 0.04 0 0.76 0.04 0 0.765 0.04 0 0.77 0.04 0 0.775 0.04 0 0.78 0.04 0 0.785 0.04 0 0.79 0.04 0 0.795 0.04 0 0.8 0.04 0 0.805 0.04 0 0.81 0.04 0 0.815 0.04 0 0.82 0.04 0 0.825 0.04 0 0.83 0.04 0 0.835 0.04 0 0.84 0.04 0 0.845 0.04 0 0.85 0.04 0 0.855 0.04 0 0.86 0.04 0 0.865 0.04 0 0.87 0.04 0 0.875 0.04 0 0.88 0.04 0 0.885 0.04 0 0.89 0.04 0 0.895 0.04 0 0.9 0.04 0 0.905 0.04 0 0.91 0.04 0 0.915 0.04 0 0.92 0.04 0 0.925 0.04 0 0.93 0.04 0 0.935 0.04 0 0.94 0.04 0 0.945 0.04 0 0.95 0.04 0 0.955 0.04 0 0.96 0.04 0 0.965 0.04 0 0.97 0.04 0 0.975 0.04 0 0.98 0.04 0 0.985 0.04 0 0.99 0.04 0 0.995 0.04 0 1 0.04 0 0 0.06 0 0.005 0.06 0 0.01 0.06 0 0.015 0.06 0 0.02 0.06 0 0.025 0.06 0 0.03 0.06 0 0.035 0.06 0 0.04 0.06 0 0.045 0.06 0 0.05 0.06 0 0.055 0.06 0 0.06 0.06 0 0.065 0.06 0 0.07 0.06 0 0.075 0.06 0 0.08 0.06 0 0.085 0.06 0 0.09 0.06 0 0.095 0.06 0 0.1 0.06 0 0.105 0.06 0 0.11 0.06 0 0.115 0.06 0 0.12 0.06 0 0.125 0.06 0 0.13 0.06 0 0.135 0.06 0 0.14 0.06 0 0.145 0.06 0 0.15 0.06 0 0.155 0.06 0 0.16 0.06 0 0.165 0.06 0 0.17 0.06 0 0.175 0.06 0 0.18 0.06 0 0.185 0.06 0 0.19 0.06 0 0.195 0.06 0 0.2 0.06 0 0.205 0.06 0 0.21 0.06 0 0.215 0.06 0 0.22 0.06 0 0.225 0.06 0 0.23 0.06 0 0.235 0.06 0 0.24 0.06 0 0.245 0.06 0 0.25 0.06 0 0.255 0.06 0 0.26 0.06 0 0.265 0.06 0 0.27 0.06 0 0.275 0.06 0 0.28 0.06 0 0.285 0.06 0 0.29 0.06 0 0.295 0.06 0 0.3 0.06 0 0.305 0.06 0 0.31 0.06 0 0.315 0.06 0 0.32 0.06 0 0.325 0.06 0 0.33 0.06 0 0.335 0.06 0 0.34 0.06 0 0.345 0.06 0 0.35 0.06 0 0.355 0.06 0 0.36 0.06 0 0.365 0.06 0 0.37 0.06 0 0.375 0.06 0 0.38 0.06 0 0.385 0.06 0 0.39 0.06 0 0.395 0.06 0 0.4 0.06 0 0.405 0.06 0 0.41 0.06 0 0.415 0.06 0 0.42 0.06 0 0.425 0.06 0 0.43 0.06 0 0.435 0.06 0 0.44 0.06 0 0.445 0.06 0 0.45 0.06 0 0.455 0.06 0 0.46 0.06 0 0.465 0.06 0 0.47 0.06 0 0.475 0.06 0 0.48 0.06 0 0.485 0.06 0 0.49 0.06 0 0.495 0.06 0 0.5 0.06 0 0.505 0.06 0 0.51 0.06 0 0.515 0.06 0 0.52 0.06 0 0.525 0.06 0 0.53 0.06 0 0.535 0.06 0 0.54 0.06 0 0.545 0.06 0 0.55 0.06 0 0.555 0.06 0 0.56 0.06 0 0.565 0.06 0 0.57 0.06 0 0.575 0.06 0 0.58 0.06 0 0.585 0.06 0 0.59 0.06 0 0.595 0.06 0 0.6 0.06 0 0.605 0.06 0 0.61 0.06 0 0.615 0.06 0 0.62 0.06 0 0.625 0.06 0 0.63 0.06 0 0.635 0.06 0 0.64 0.06 0 0.645 0.06 0 0.65 0.06 0 0.655 0.06 0 0.66 0.06 0 0.665 0.06 0 0.67 0.06 0 0.675 0.06 0 0.68 0.06 0 0.685 0.06 0 0.69 0.06 0 0.695 0.06 0 0.7 0.06 0 0.705 0.06 0 0.71 0.06 0 0.715 0.06 0 0.72 0.06 0 0.725 0.06 0 0.73 0.06 0 0.735 0.06 0 0.74 0.06 0 0.745 0.06 0 0.75 0.06 0 0.755 0.06 0 0.76 0.06 0 0.765 0.06 0 0.77 0.06 0 0.775 0.06 0 0.78 0.06 0 0.785 0.06 0 0.79 0.06 0 0.795 0.06 0 0.8 0.06 0 0.805 0.06 0 0.81 0.06 0 0.815 0.06 0 0.82 0.06 0 0.825 0.06 0 0.83 0.06 0 0.835 0.06 0 0.84 0.06 0 0.845 0.06 0 0.85 0.06 0 0.855 0.06 0 0.86 0.06 0 0.865 0.06 0 0.87 0.06 0 0.875 0.06 0 0.88 0.06 0 0.885 0.06 0 0.89 0.06 0 0.895 0.06 0 0.9 0.06 0 0.905 0.06 0 0.91 0.06 0 0.915 0.06 0 0.92 0.06 0 0.925 0.06 0 0.93 0.06 0 0.935 0.06 0 0.94 0.06 0 0.945 0.06 0 0.95 0.06 0 0.955 0.06 0 0.96 0.06 0 0.965 0.06 0 0.97 0.06 0 0.975 0.06 0 0.98 0.06 0 0.985 0.06 0 0.99 0.06 0 0.995 0.06 0 1 0.06 0 0 0.08 0 0.005 0.08 0 0.01 0.08 0 0.015 0.08 0 0.02 0.08 0 0.025 0.08 0 0.03 0.08 0 0.035 0.08 0 0.04 0.08 0 0.045 0.08 0 0.05 0.08 0 0.055 0.08 0 0.06 0.08 0 0.065 0.08 0 0.07 0.08 0 0.075 0.08 0 0.08 0.08 0 0.085 0.08 0 0.09 0.08 0 0.095 0.08 0 0.1 0.08 0 0.105 0.08 0 0.11 0.08 0 0.115 0.08 0 0.12 0.08 0 0.125 0.08 0 0.13 0.08 0 0.135 0.08 0 0.14 0.08 0 0.145 0.08 0 0.15 0.08 0 0.155 0.08 0 0.16 0.08 0 0.165 0.08 0
[...]
			<PointData Scalars="VitesseX">
				<DataArray Name="VitesseX" type="Float32" format="ascii">
 0 7.91716e-16 8.59048e-15 1.85456e-14 1.38757e-15 -3.357e-14 -1.84599e-14 -1.44086e-14 -1.6106e-14 -2.94585e-14 1.05733e-15 -1.48477e-14 3.85441e-14 -4.18634e-14 2.592e-14 -5.44434e-14 4.97834e-14 -7.15314e-14 1.24982e-13 -3.05568e-14 -1.442e-13 4.08978e-14 -9.00277e-14 -6.90594e-15 -1.61583e-13 1.14785e-14 -1.52619e-13 -1.4041e-13 -1.74157e-13 -5.93961e-14 -1.37478e-13 -1.00349e-13 1.4235e-14 -1.10678e-13 1.02384e-13 -1.33642e-13 1.66673e-13 -1.21707e-13 -8.95911e-14 -1.88097e-13 -1.28766e-13 -1.79799e-13 -1.83387e-13 -1.47136e-13 -6.30975e-14 6.07344e-14 -1.68697e-13 -1.32004e-14 -1.70731e-13 -1.24164e-13 -1.17176e-13 -1.14334e-13 -5.14431e-14 7.86683e-14 1.20774e-13 2.42436e-12 1.95603e-11 1.44034e-10 9.92162e-10 6.41793e-09 3.88063e-08 2.1857e-07 1.14226e-06 5.51399e-06 2.44565e-05 9.90401e-05 0.00036341 0.00119703 0.00350022 0.00897414 0.0199465 0.0382165 0.0634906 0.0933309 0.125042 0.157146 0.189191 0.221084 0.252803 0.284335 0.315672 0.346806 0.377727 0.408422 0.438875 0.469066 0.498969 0.528552 0.557778 0.586599 0.614958 0.642789 0.67001 0.696527 0.72223 0.746991 0.770669 0.793106 0.814136 0.833586 0.851294 0.867117 0.880949 0.892737 0.902496 0.910314 0.916349 0.92082 0.923981 0.926098 0.927424 0.928181 0.928552 0.928676 0.928663 0.928593 0.928486 0.928357 0.928215 0.928068 0.927921 0.927779 0.927641 0.927507 0.927378 0.927251 0.927121 0.926982 0.92682 0.926611 0.926312 0.925843 0.925069 0.923759 0.921526 0.917748 0.911445 0.901132 0.884663 0.859129 0.820944 0.766265 0.691939 0.597003 0.484512 0.362884 0.245347 0.146376 0.0758668 0.0343823 0.0141 0.00545745 0.00205221 0.000760411 0.000279195 0.000101768 3.68399e-05 1.32418e-05 4.72416e-06 1.67206e-06 5.86848e-07 2.0415e-07 7.03625e-08 2.40171e-08 8.11581e-09 2.71344e-09 8.97594e-10 2.9324e-10 9.49469e-11 3.07126e-11 9.26451e-12 2.7479e-12 5.57953e-13 -9.42976e-14 1.33899e-13 9.79717e-14 -3.89843e-13 -2.7132e-13 -1.66337e-13 -3.31046e-13 1.10022e-13 1.34041e-13 -2.07407e-13 -7.17964e-13 2.20306e-13 -3.10933e-13 2.39018e-13 1.34807e-13 6.0189e-13 -5.32753e-13 5.88949e-13 -2.23784e-13 5.06473e-13 -3.05015e-14 1.03725e-12 -6.6835e-13 2.27039e-13 -3.50304e-13 1.14879e-12 3.25568e-13 0 0 -4.5847e-16 8.23556e-15 1.71889e-15 -6.47908e-15 2.24683e-14 -3.54169e-15 -4.05085e-14 -1.95255e-14 -1.59111e-14 -2.23616e-14 1.30944e-14 -1.41842e-15 4.50549e-14 -8.17098e-14 3.14145e-14 -3.196e-14 4.2611e-14 -3.66995e-14 -6.18173e-14 7.76504e-14 -1.02566e-13 -2.97771e-14 -1.73088e-13 1.13436e-14 -1.67195e-13 -6.64293e-14 -1.73993e-13 -8.21537e-14 -1.09286e-13 -5.93631e-14 -1.21243e-13 -2.52145e-14 3.95335e-14 -8.49001e-14 6.56939e-14 -1.39442e-13 -3.628e-14 -7.36192e-14 -5.37468e-14 -1.7103e-13 -1.28245e-13 -1.09468e-13 -7.28855e-14 -1.34231e-13 -8.52989e-14 -5.86518e-14 -5.36099e-14 6.35146e-14 3.57528e-14 -1.79507e-13 -1.19507e-13 -2.42448e-13 1.57654e-14 4.08389e-13 2.38442e-12 1.94375e-11 1.43967e-10 9.92106e-10 6.418e-09 3.8806e-08 2.1857e-07 1.14226e-06 5.51399e-06 2.44565e-05 9.90401e-05 0.00036341 0.00119703 0.00350022 0.00897414 0.0199465 0.0382165 0.0634906 0.0933309 0.125042 0.157146 0.189191 0.221084 0.252803 0.284335 0.315672 0.346806 0.377727 0.408422 0.438875 0.469066 0.498969 0.528552 0.557778 0.586599 0.614958 0.642789 0.67001 0.696527 0.72223 0.746991 0.770669 0.793106 0.814136 0.833586 0.851294 0.867117 0.880949 0.892737 0.902496 0.910314 0.916349 0.92082 0.923981 0.926098 0.927424 0.928181 0.928552 0.928676 0.928663 0.928593 0.928486 0.928357 0.928215 0.928068 0.927921 0.927779 0.927641 0.927507 0.927378 0.927251 0.927121 0.926982 0.92682 0.926611 0.926312 0.925843 0.925069 0.923759 0.921526 0.917748 0.911445 0.901132 0.884663 0.859129 0.820944 0.766265 0.691939 0.597003 0.484512 0.362884 0.245347 0.146376 0.0758668 0.0343823 0.0141 0.00545745 0.00205221 0.000760411 0.000279195 0.000101768 3.68399e-05 1.32418e-05 4.72416e-06 1.67206e-06 5.86848e-07 2.04151e-07 7.03624e-08 2.40169e-08 8.11551e-09 2.71395e-09 8.97567e-10 2.93725e-10 9.47788e-11 2.98973e-11 9.6161e-12 2.78137e-12 8.5651e-13 3.28579e-13 -1.64761e-13 -2.13217e-13 -2.46218e-13 -3.94209e-13 -2.47795e-13 2.05142e-13 -4.60285e-13 -2.81089e-13 -2.17724e-13 -6.06587e-14 -4.07374e-13 9.78673e-14 -1.42952e-13 8.5976e-14 -1.19954e-13 6.02743e-13 -3.39932e-13 5.30108e-13 2.44292e-13 2.48195e-13 -4.44055e-13 5.3249e-13 4.13553e-13 8.03589e-13 -7.11787e-13 -4.78278e-13 0 0 -4.15338e-18 3.6711e-15 1.55042e-14 2.20632e-14 -2.69109e-15 5.38672e-15 -2.21386e-14 -9.7096e-15 1.44301e-14 -1.53025e-14 -2.43548e-14 -1.40762e-14 -6.36796e-15 1.62168e-14 -2.95676e-14 2.20931e-14 -3.15819e-14 -4.18415e-14 -3.6808e-14 -1.07946e-13 3.66143e-15 1.63617e-14 -3.54414e-14 -2.15334e-13 -1.02426e-13 -7.06862e-14 -8.07377e-14 -1.75284e-13 -8.57681e-14 -5.96685e-14 4.87296e-14 -5.71037e-14 6.71948e-15 -2.92961e-14 -1.9108e-13 -7.28719e-14 -1.85437e-13 1.7779e-13 -1.34142e-13 -6.81316e-14 -1.8012e-13 -1.94374e-13 -5.83882e-14 1.43656e-14 3.21954e-14 1.56931e-14 -8.94515e-14 -1.29676e-13 -1.14107e-13 4.34788e-14 2.15551e-15 1.64656e-14 -1.28634e-13 2.26212e-13 2.54928e-12 1.94963e-11 1.43651e-10 9.9227e-10 6.41812e-09 3.88058e-08 2.1857e-07 1.14226e-06 5.51399e-06 2.44565e-05 9.90401e-05 0.00036341 0.00119703 0.00350022 0.00897414 0.0199465 0.0382165 0.0634906 0.0933309 0.125042 0.157146 0.189191 0.221084 0.252803 0.284335 0.315672 0.346806 0.377727 0.408422 0.438875 0.469066 0.498969 0.528552 0.557778 0.586599 0.614958 0.642789 0.67001 0.696527 0.72223 0.746991 0.770669 0.793106 0.814136 0.833586 0.851294 0.867117 0.880949 0.892737 0.902496 0.910314 0.916349 0.92082 0.923981 0.926098 0.927424 0.928181 0.928552 0.928676 0.928663 0.928593 0.928486 0.928357 0.928215 0.928068 0.927921 0.927779 0.927641 0.927507 0.927378 0.927251 0.927121 0.926982 0.92682 0.926611 0.926312 0.925843 0.925069 0.923759 0.921526 0.917748 0.911445 0.901132 0.884663 0.859129 0.820944 0.766265 0.691939 0.597003 0.484512 0.362884 0.245347 0.146376 0.0758668 0.0343823 0.0141 0.00545745 0.00205221 0.000760411 0.000279195 0.000101768 3.68399e-05 1.32418e-05 4.72416e-06 1.67206e-06 5.86848e-07 2.04151e-07 7.03625e-08 2.40171e-08 8.11561e-09 2.71397e-09 8.97827e-10 2.93788e-10 9.4959e-11 3.03099e-11 9.29566e-12 2.855e-12 8.85792e-13 7.75146e-14 -1.27492e-13 -3.09114e-13 -3.00177e-13 -3.18209e-13 2.47001e-13 -3.68383e-13 -2.4684e-13 -5.97596e-13 -4.29613e-13 -2.36757e-13 1.95722e-13 -3.14198e-13 -3.98637e-14 -6.56134e-15 -3.8965e-13 -1.26869e-13 6.64346e-13 2.32327e-13 1.03475e-13 -2.69633e-13 3.92448e-13 4.49744e-13 4.92182e-13 -2.10989e-13 2.11676e-13 2.33404e-13 0 0 1.53688e-14 2.19626e-14 2.71125e-14 3.17459e-14 3.60235e-15 1.16922e-14 1.42325e-14 -6.93308e-15 -2.29608e-14 -9.90162e-15 -1.28246e-14 -3.92064e-14 -3.29287e-14 2.5038e-14 -3.70089e-15 8.41568e-15 -9.72633e-14 2.54953e-14 -4.67394e-14 -1.40229e-13 1.12263e-14 -1.48039e-13 -4.64751e-14 -8.38541e-14 -1.51054e-14 -1.29124e-13 -9.34596e-14 -2.4805e-14 -2.84449e-14 -1.08395e-13 5.41186e-14 -3.7783e-14 -8.83804e-14 2.17138e-14 -1.15648e-13 -1.39704e-13 -8.32568e-14 -1.25243e-13 -2.23832e-14 -1.54357e-13 -6.96569e-14 -8.86272e-14 -8.88549e-14 -6.75792e-14 3.93003e-14 -2.34606e-13 -7.98824e-14 -9.07367e-14 1.47557e-13 -2.92878e-14 -1.6784e-13 6.77177e-14 8.18621e-14 2.07309e-13 2.64986e-12 1.9611e-11 1.43674e-10 9.92196e-10 6.418e-09 3.88064e-08 2.1857e-07 1.14226e-06 5.51399e-06 2.44565e-05 9.90401e-05 0.00036341 0.00119703 0.00350022 0.00897414 0.0199465 0.0382165 0.0634906 0.0933309 0.125042 0.157146 0.189191 0.221084 0.252803 0.284335 0.315672 0.346806 0.377727 0.408422 0.438875 0.469066 0.498969 0.528552 0.557778 0.586599 0.614958 0.642789 0.67001 0.696527 0.72223 0.746991 0.770669 0.793106 0.814136 0.833586 0.851294 0.867117 0.880949 0.892737 0.902496 0.910314 0.916349 0.92082 0.923981 0.926098 0.927424 0.928181 0.928552 0.928676 0.928663 0.928593 0.928486 0.928357 0.928215 0.928068 0.927921 0.927779 0.927641 0.927507 0.927378 0.927251 0.927121 0.926982 0.92682 0.926611 0.926312 0.925843 0.925069 0.923759 0.921526 0.917748 0.911445 0.901132 0.884663 0.859129 0.820944 0.766265 0.691939 0.597003 0.484512 0.362884 0.245347 0.146376 0.0758668 0.0343823 0.0141 0.00545745 0.00205221 0.000760411 0.000279195 0.000101768 3.68399e-05 1.32418e-05 4.72416e-06 1.67206e-06 5.86848e-07 2.04151e-07 7.03629e-08 2.40169e-08 8.116e-09 2.71359e-09 8.97625e-10 2.93801e-10 9.51923e-11 3.08365e-11 9.57654e-12 2.93183e-12 4.92914e-13 -4.12563e-13 -1.98563e-13 8.96497e-14 1.10818e-13 -6.36318e-13 -1.30075e-13 -2.00323e-13 -1.04806e-13 3.20209e-14 -1.00807e-13 -5.18534e-13 -8.69428e-14 -5.63593e-14 -2.41506e-13 -2.34692e-13 2.62459e-13 -2.96911e-13 2.07633e-13 -4.61891e-13 6.1996e-13 3.34233e-13 5.72392e-13 -2.52687e-13 2.13719e-13 1.30914e-13 7.46871e-13 2.14074e-13 0 0 2.33618e-14 2.78422e-14 2.85434e-14 1.74494e-14 3.59019e-14 9.11378e-15 1.84531e-14 7.25385e-15 -1.63884e-14 -4.58458e-14 1.108e-14 -4.99494e-14 -1.71326e-14 -9.23648e-14 -2.96296e-14 -8.8099e-14 2.1321e-14 1.16962e-14 -9.4552e-14 1.75947e-14 -9.96773e-14 -8.69751e-14 -1.4077e-13 9.12882e-14 -1.01894e-13 -6.84568e-14 -1.4564e-13 5.7151e-14 -4.27958e-14 -1.26073e-14 -1.19937e-13 -2.94328e-14 5.03476e-15 -5.98217e-14 1.91626e-13 -8.84732e-14 -2.73547e-14 -3.61581e-13 -2.07445e-14 -2.21398e-13 -8.34529e-14 -5.65634e-14 -7.15813e-14 -1.84312e-13 -1.57263e-13 -1.74495e-13 -7.23728e-14 1.64914e-13 2.58621e-13 -2.178e-13 -2.2556e-13 -1.26584e-13 1.06063e-13 3.77033e-13 2.49714e-12 1.97872e-11 1.44048e-10 9.92172e-10 6.41803e-09 3.88064e-08 2.1857e-07 1.14226e-06 5.51399e-06 2.44565e-05 9.90401e-05 0.00036341 0.00119703 0.00350022 0.00897414 0.0199465 0.0382165 0.0634906 0.0933309 0.125042 0.157146 0.189191 0.221084 0.252803 0.284335 0.315672 0.346806 0.377727 0.408422 0.438875 0.469066 0.498969 0.528552 0.557778 0.586599 0.614958 0.642789 0.67001 0.696527 0.72223 0.746991 0.770669 0.793106 0.814136 0.833586 0.851294 0.867117 0.880949 0.892737 0.902496 0.910314 0.916349 0.92082 0.923981 0.926098 0.927424 0.928181 0.928552 0.928676 0.928663 0.928593 0.928486 0.928357 0.928215 0.928068 0.927921 0.927779 0.927641 0.927507 0.927378 0.927251 0.927121 0.926982 0.92682 0.926611 0.926312 0.925843 0.925069 0.923759 0.921526 0.917748 0.911445 0.901132 0.884663 0.859129 0.820944 0.766265 0.691939 0.597003 0.484512 0.362884 0.245347 0.146376 0.0758668 0.0343823 0.0141 0.00545745 0.00205221 0.000760411 0.000279195 0.000101768 3.68399e-05 1.32418e-05 4.72416e-06 1.67206e-06 5.86848e-07 2.04151e-07 7.03626e-08 2.40171e-08 8.11571e-09 2.71395e-09 8.97439e-10 2.93984e-10 9.50172e-11 3.02906e-11 9.89121e-12 2.90252e-12 4.01191e-13 2.67574e-13 -2.52171e-13 8.34737e-14 1.747e-13 -5.41873e-13 -3.78525e-13 6.2059e-14 -4.86427e-13 -6.78043e-14 -4.81429e-14 -2.71101e-13 -3.21031e-13 2.06057e-13 -3.14431e-13 -1.35874e-13 2.53264e-13 3.27319e-13 -7.26092e-13 -2.50231e-13 1.94802e-13 4.2606e-13 -6.94703e-14 4.27546e-13 1.92813e-13 9.73604e-13 -2.37025e-13 -7.22387e-13 0 0 1.76864e-14 1.12209e-14 4.89779e-14 2.98792e-14 -1.92897e-14 -5.75985e-15 3.07723e-14 3.18997e-14 4.43687e-14 -5.67129e-14 -4.19371e-14 -8.25765e-15 -1.13117e-13 -1.30324e-14 -2.28265e-13 -3.51397e-14 1.72514e-14 8.70996e-14 -7.61633e-14 -1.99747e-13 3.15455e-14 1.24378e-13 7.97963e-14 -2.64654e-13 -3.25605e-14 -3.9798e-14 -5.82595e-14 -1.96506e-13 -4.10629e-14 5.34876e-14 -1.08515e-13 -3.28432e-14 1.05243e-14 5.05206e-14 -3.26425e-14 4.02276e-13 -3.08216e-13 -5.94471e-14 -3.4561e-13 -5.70509e-14 -3.11142e-13 -2.89072e-13 -8.35942e-14 6.29604e-16 -9.74044e-14 1.00215e-13 -6.98644e-14 -4.58109e-14 -2.01754e-13 -4.82274e-14 1.35497e-14 7.77804e-14 -1.61729e-13 9.58688e-14 2.44865e-12 2.00304e-11 1.4415e-10 9.9244e-10 6.41823e-09 3.88061e-08 2.1857e-07 1.14226e-06 5.51399e-06 2.44565e-05 9.90401e-05 0.00036341 0.00119703 0.00350022 0.00897414 0.0199465 0.0382165 0.0634906 0.0933309 0.125042 0.157146 0.189191 0.221084 0.252803 0.284335 0.315672 0.346806 0.377727 0.408422 0.438875 0.469066 0.498969 0.528552 0.557778 0.586599 0.614958 0.642789 0.67001 0.696527 0.72223 0.746991 0.770669 0.793106 0.814136 0.833586 0.851294 0.867117 0.880949 0.892737 0.902496 0.910314 0.916349 0.92082 0.923981 0.926098 0.927424 0.928181 0.928552 0.928676 0.928663 0.928593 0.928486 0.928357 0.928215 0.928068 0.927921 0.927779 0.927641 0.927507 0.927378 0.927251 0.927121 0.926982 0.92682 0.926611 0.926312 0.925843 0.925069 0.923759 0.921526 0.917748 0.911445 0.901132 0.884663 0.859129 0.820944 0.766265 0.691939 0.597003 0.484512 0.362884 0.245347 0.146376 0.0758668 0.0343823 0.0141 0.00545745 0.00205221 0.000760411 0.000279195 0.000101768 3.68399e-05 1.32418e-05 4.72416e-06 1.67206e-06 5.86848e-07 2.04151e-07 7.03621e-08 2.40179e-08 8.11546e-09 2.71419e-09 8.97743e-10 2.93733e-10 9.49573e-11 3.04458e-11 9.25295e-12 2.83654e-12 4.33071e-13 7.63847e-13 1.01221e-13 -1.06175e-13 -3.69999e-13 6.95694e-14 3.26355e-13 -9.53333e-13 -2.26331e-13 -6.98623e-13 -5.25858e-13 -5.75292e-13 9.58322e-13 -6.10232e-13 2.99345e-13 1.47367e-13 4.41089e-14 -7.43518e-13 7.30057e-13 -3.96026e-13 -6.25478e-13 -8.82504e-13 1.42653e-12 5.26626e-13 3.42485e-13 -6.94078e-13 1.02793e-12 -1.23989e-13 0
				</DataArray>
				<DataArray Name="VitesseY" type="Float32" format="ascii">