<?xml version="1.0"?>
<VTKFile type="PolyData">
	<PolyData>
		<Piece NumberOfPoints="1206" NumberOfPolys="1000">
			<Points>
				<DataArray type="Float32" NumberOfComponents="3" format="ascii">
 0 0 0 0.005 0 0 0.01 0 0 0.015 0 0 0.02 0 0 0.025 0 0 0.03 0 0 0.035 0 0 0.04 0 0 0.045 0 0 0.05 0 0 0.055 0 0 0.06 0 0 0.065 0 0 0.07 0 0 0.075 0 0 0.08 0 0 0.085 0 0 0.09 0 0 0.095 0 0 0.1 0 0 0.105 0 0 0.11 0 0 0.115 0 0 0.12 0 0 0.125 0 0 0.13 0 0 0.135 0 0 0.14 0 0 0.145 0 0 0.15 0 0 0.155 0 0 0.16 0 0 0.165 0 0 0.17 0 0 0.175 0 0 0.18 0 0 0.185 0 0 0.19 0 0 0.195 0 0 0.2 0 0 0.205 0 0 0.21 0 0 0.215 0 0 0.22 0 0 0.225 0 0 0.23 0 0 0.235 0 0 0.24 0 0 0.245 0 0 0.25 0 0 0.255 0 0 0.26 0 0 0.265 0 0 0.27 0 0 0.275 0 0 0.28 0 0 0.285 0 0 0.29 0 0 0.295 0 0 0.3 0 0 0.305 0 0 0.31 0 0 0.315 0 0 0.32 0 0 0.325 0 0 0.33 0 0 0.335 0 0 0.34 0 0 0.345 0 0 0.35 0 0 0.355 0 0 0.36 0 0 0.365 0 0 0.37 0 0 0.375 0 0 0.38 0 0 0.385 0 0 0.39 0 0 0.395 0 0 0.4 0 0 0.405 0 0 0.41 0 0 0.415 0 0 0.42 0 0 0.425 0 0 0.43 0 0 0.435 0 0 0.44 0 0 0.445 0 0 0.45 0 0 0.455 0 0 0.46 0 0 0.465 0 0 0.47 0 0 0.475 0 0 0.48 0 0 0.485 0 0 0.49 0 0 0.495 0 0 0.5 0 0 0.505 0 0 0.51 0 0 0.515 0 0 0.52 0 0 0.525 0 0 0.53 0 0 0.535 0 0 0.54 0 0 0.545 0 0 0.55 0 0 0.555 0 0 0.56 0 0 0.565 0 0 0.57 0 0 0.575 0 0 0.58 0 0 0.585 0 0 0.59 0 0 0.595 0 0 0.6 0 0 0.605 0 0 0.61 0 0 0.615 0 0 0.62 0 0 0.625 0 0 0.63 0 0 0.635 0 0 0.64 0 0 0.645 0 0 0.65 0 0 0.655 0 0 0.66 0 0 0.665 0 0 0.67 0 0 0.675 0 0 0.68 0 0 0.685 0 0 0.69 0 0 0.695 0 0 0.7 0 0 0.705 0 0 0.71 0 0 0.715 0 0 0.72 0 0 0.725 0 0 0.73 0 0 0.735 0 0 0.74 0 0 0.745 0 0 0.75 0 0 0.755 0 0 0.76 0 0 0.765 0 0 0.77 0 0 0.775 0 0 0.78 0 0 0.785 0 0 0.79 0 0 0.795 0 0 0.8 0 0 0.805 0 0 0.81 0 0 0.815 0 0 0.82 0 0 0.825 0 0 0.83 0 0 0.835 0 0 0.84 0 0 0.845 0 0 0.85 0 0 0.855 0 0 0.86 0 0 0.865 0 0 0.87 0 0 0.875 0 0 0.88 0 0 0.885 0 0 0.89 0 0 0.895 0 0 0.9 0 0 0.905 0 0 0.91 0 0 0.915 0 0 0.92 0 0 0.925 0 0 0.93 0 0 0.935 0 0 0.94 0 0 0.945 0 0 0.95 0 0 0.955 0 0 0.96 0 0 0.965 0 0 0.97 0 0 0.975 0 0 0.98 0 0 0.985 0 0 0.99 0 0 0.995 0 0 1 0 0 0 0.02 0 0.005 0.02 0 0.01 0.02 0 0.015 0.02 0 0.02 0.02 0 0.025 0.02 0 0.03 0.02 0 0.035 0.02 0 0.04 0.02 0 0.045 0.02 0 0.05 0.02 0 0.055 0.02 0 0.06 0.02 0 0.065 0.02 0 0.07 0.02 0 0.075 0.02 0 0.08 0.02 0 0.085 0.02 0 0.09 0.02 0 0.095 0.02 0 0.1 0.02 0 0.105 0.02 0 0.11 0.02 0 0.115 0.02 0 0.12 0.02 0 0.125 0.02 0 0.13 0.02 0 0.135 0.02 0 0.14 0.02 0 0.145 0.02 0 0.15 0.02 0 0.155 0.02 0 0.16 0.02 0 0.165 0.02 0 0.17 0.02 0 0.175 0.02 0 0.18 0.02 0 0.185 0.02 0 0.19 0.02 0 0.195 0.02 0 0.2 0.02 0 0.205 0.02 0 0.21 0.02 0 0.215 0.02 0 0.22 0.02 0 0.225 0.02 0 0.23 0.02 0 0.235 0.02 0 0.24 0.02 0 0.245 0.02 0 0.25 0.02 0 0.255 0.02 0 0.26 0.02 0 0.265 0.02 0 0.27 0.02 0 0.275 0.02 0 0.28 0.02 0 0.285 0.02 0 0.29 0.02 0 0.295 0.02 0 0.3 0.02 0 0.305 0.02 0 0.31 0.02 0 0.315 0.02 0 0.32 0.02 0 0.325 0.02 0 0.33 0.02 0 0.335 0.02 0 0.34 0.02 0 0.345 0.02 0 0.35 0.02 0 0.355 0.02 0 0.36 0.02 0 0.365 0.02 0 0.37 0.02 0 0.375 0.02 0 0.38 0.02 0 0.385 0.02 0 0.39 0.02 0 0.395 0.02 0 0.4 0.02 0 0.405 0.02 0 0.41 0.02 0 0.415 0.02 0 0.42 0.02 0 0.425 0.02 0 0.43 0.02 0 0.435 0.02 0 0.44 0.02 0 0.445 0.02 0 0.45 0.02 0 0.455 0.02 0 0.46 0.02 0 0.465 0.02 0 0.47 0.02 0 0.475 0.02 0 0.48 0.02 0 0.485 0.02 0 0.49 0.02 0 0.495 0.02 0 0.5 0.02 0 0.505 0.02 0 0.51 0.02 0 0.515 0.02 0 0.52 0.02 0 0.525 0.02 0 0.53 0.02 0 0.535 0.02 0 0.54 0.02 0 0.545 0.02 0 0.55 0.02 0 0.555 0.02 0 0.56 0.02 0 0.565 0.02 0 0.57 0.02 0 0.575 0.02 0 0.58 0.02 0 0.585 0.02 0 0.59 0.02 0 0.595 0.02 0 0.6 0.02 0 0.605 0.02 0 0.61 0.02 0 0.615 0.02 0 0.62 0.02 0 0.625 0.02 0 0.63 0.02 0 0.635 0.02 0 0.64 0.02 0 0.645 0.02 0 0.65 0.02 0 0.655 0.02 0 0.66 0.02 0 0.665 0.02 0 0.67 0.02 0 0.675 0.02 0 0.68 0.02 0 0.685 0.02 0 0.69 0.02 0 0.695 0.02 0 0.7 0.02 0 0.705 0.02 0 0.71 0.02 0 0.715 0.02 0 0.72 0.02 0 0.725 0.02 0 0.73 0.02 0 0.735 0.02 0 0.74 0.02 0 0.745 0.02 0 0.75 0.02 0 0.755 0.02 0 0.76 0.02 0 0.765 0.02 0 0.77 0.02 0 0.775 0.02 0 0.78 0.02 0 0.785 0.02 0 0.79 0.02 0 0.795 0.02 0 0.8 0.02 0 0.805 0.02 0 0.81 0.02 0 0.815 0.02 0 0.82 0.02 0 0.825 0.02 0 0.83 0.02 0 0.835 0.02 0 0.84 0.02 0 0.845 0.02 0 0.85 0.02 0 0.855 0.02 0 0.86 0.02 0 0.865 0.02 0 0.87 0.02 0 0.875 0.02 0 0.88 0.02 0 0.885 0.02 0 0.89 0.02 0 0.895 0.02 0 0.9 0.02 0 0.905 0.02 0 0.91 0.02 0 0.915 0.02 0 0.92 0.02 0 0.925 0.02 0 0.93 0.02 0 0.935 0.02 0 0.94 0.02 0 0.945 0.02 0 0.95 0.02 0 0.955 0.02 0 0.96 0.02 0 0.965 0.02 0 0.97 0.02 0 0.975 0.02 0 0.98 0.02 0 0.985 0.02 0 0.99 0.02 0 0.995 0.02 0 1 0.02 0 0 0.04 0 0.005 0.04 0 0.01 0.04 0 0.015 0.04 0 0.02 0.04 0 0.025 0.04 0 0.03 0.04 0 0.035 0.04 0 0.04 0.04 0 0.045 0.04 0 0.05 0.04 0 0.055 0.04 0 0.06 0.04 0 0.065 0.04 0 0.07 0.04 0 0.075 0.04 0 0.08 0.04 0 0.085 0.04 0 0.09 0.04 0 0.095 0.04 0 0.1 0.04 0 0.105 0.04 0 0.11 0.04 0 0.115 0.04 0 0.12 0.04 0 0.125 0.04 0 0.13 0.04 0 0.135 0.04 0 0.14 0.04 0 0.145 0.04 0 0.15 0.04 0 0.155 0.04 0 0.16 0.04 0 0.165 0.04 0 0.17 0.04 0 0.175 0.04 0 0.18 0.04 0 0.185 0.04 0 0.19 0.04 0 0.195 0.04 0 0.2 0.04 0 0.205 0.04 0 0.21 0.04 0 0.215 0.04 0 0.22 0.04 0 0.225 0.04 0 0.23 0.04 0 0.235 0.04 0 0.24 0.04 0 0.245 0.04 0 0.25 0.04 0 0.255 0.04 0 0.26 0.04 0 0.265 0.04 0 0.27 0.04 0 0.275 0.04 0 0.28 0.04 0 0.285 0.04 0 0.29 0.04 0 0.295 0.04 0 0.3 0.04 0 0.305 0.04 0 0.31 0.04 0 0.315 0.04 0 0.32 0.04 0 0.325 0.04 0 0.33 0.04 0 0.335 0.04 0 0.34 0.04 0 0.345 0.04 0 0.35 0.04 0 0.355 0.04 0 0.36 0.04 0 0.365 0.04 0 0.37 0.04 0 0.375 0.04 0 0.38 0.04 0 0.385 0.04 0 0.39 0.04 0 0.395 0.04 0 0.4 0.04 0 0.405 0.04 0 0.41 0.04 0 0.415 0.04 0 0.42 0.04 0 0.425 0.04 0 0.43 0.04 0 0.435 0.04 0 0.44 0.04 0 0.445 0.04 0 0.45 0.04 0 0.455 0.04 0 0.46 0.04 0 0.465 0.04 0 0.47 0.04 0 0.475 0.04 0 0.48 0.04 0 0.485 0.04 0 0.49 0.04 0 0.495 0.04 0 0.5 0.04 0 0.505 0.04 0 0.51 0.04 0 0.515 0.04 0 0.52 0.04 0 0.525 0.04 0 0.53 0.04 0 0.535 0.04 0 0.54 0.04 0 0.545 0.04 0 0.55 0.04 0 0.555 0.04 0 0.56 0.04 0 0.565 0.04 0 0.57 0.04 0 0.575 0.04 0 0.58 0.04 0 0.585 0.04 0 0.59 0.04 0 0.595 0.04 0 0.6 0.04 0 0.605 0.04 0 0.61 0.04 0 0.615 0.04 0 0.62 0.04 0 0.625 0.04 0 0.63 0.04 0 0.635 0.04 0 0.64 0.04 0 0.645 0.04 0 0.65 0.04 0 0.655 0.04 0 0.66 0.04 0 0.665 0.04 0 0.67 0.04 0 0.675 0.04 0 0.68 0.04 0 0.685 0.04 0 0.69 0.04 0 0.695 0.04 0 0.7 0.04 0 0.705 0.04 0 0.71 0.04 0 0.715 0.04 0 0.72 0.04 0 0.725 0.04 0 0.73 0.04 0 0.735 0.04 0 0.74 0.04 0 0.745 0.04 0 0.75 0.04 0 0.755 0.04 0 0.76 0.04 0 0.765 0.04 0 0.77 0.04 0 0.775 0.04 0 0.78 0.04 0 0.785 0.04 0 0.79 0.04 0 0.795 0.04 0 0.8 0.04 0 0.805 0.04 0 0.81 0.04 0 0.815 0.04 0 0.82 0.04 0 0.825 0.04 0 0.83 0.04 0 0.835 0.04 0 0.84 0.04 0 0.845 0.04 0 0.85 0.04 0 0.855 0.04 0 0.86 0.04 0 0.865 0.04 0 0.87 0.04 0 0.875 0.04 0 0.88 0.04 0 0.885 0.04 0 0.89 0.04 0 0.895 0.04 0 0.9 0.04 0 0.905 0.04 0 0.91 0.04 0 0.915 0.04 0 0.92 0.04 0 0.925 0.04 0 0.93 0.04 0 0.935 0.04 0 0.94 0.04 0 0.945 0.04 0 0.95 0.04 0 0.955 0.04 0 0.96 0.04 0 0.965 0.04 0 0.97 0.04 0 0.975 0.04 0 0.98 0.04 0 0.985 0.04 0 0.99 0.04 0 0.995 0.04 0 1 0.04 0 0 0.06 0 0.005 0.06 0 0.01 0.06 0 0.015 0.06 0 0.02 0.06 0 0.025 0.06 0 0.03 0.06 0 0.035 0.06 0 0.04 0.06 0 0.045 0.06 0 0.05 0.06 0 0.055 0.06 0 0.06 0.06 0 0.065 0.06 0 0.07 0.06 0 0.075 0.06 0 0.08 0.06 0 0.085 0.06 0 0.09 0.06 0 0.095 0.06 0 0.1 0.06 0 0.105 0.06 0 0.11 0.06 0 0.115 0.06 0 0.12 0.06 0 0.125 0.06 0 0.13 0.06 0 0.135 0.06 0 0.14 0.06 0 0.145 0.06 0 0.15 0.06 0 0.155 0.06 0 0.16 0.06 0 0.165 0.06 0 0.17 0.06 0 0.175 0.06 0 0.18 0.06 0 0.185 0.06 0 0.19 0.06 0 0.195 0.06 0 0.2 0.06 0 0.205 0.06 0 0.21 0.06 0 0.215 0.06 0 0.22 0.06 0 0.225 0.06 0 0.23 0.06 0 0.235 0.06 0 0.24 0.06 0 0.245 0.06 0 0.25 0.06 0 0.255 0.06 0 0.26 0.06 0 0.265 0.06 0 0.27 0.06 0 0.275 0.06 0 0.28 0.06 0 0.285 0.06 0 0.29 0.06 0 0.295 0.06 0 0.3 0.06 0 0.305 0.06 0 0.31 0.06 0 0.315 0.06 0 0.32 0.06 0 0.325 0.06 0 0.33 0.06 0 0.335 0.06 0 0.34 0.06 0 0.345 0.06 0 0.35 0.06 0 0.355 0.06 0 0.36 0.06 0 0.365 0.06 0 0.37 0.06 0 0.375 0.06 0 0.38 0.06 0 0.385 0.06 0 0.39 0.06 0 0.395 0.06 0 0.4 0.06 0 0.405 0.06 0 0.41 0.06 0 0.415 0.06 0 0.42 0.06 0 0.425 0.06 0 0.43 0.06 0 0.435 0.06 0 0.44 0.06 0 0.445 0.06 0 0.45 0.06 0 0.455 0.06 0 0.46 0.06 0 0.465 0.06 0 0.47 0.06 0 0.475 0.06 0 0.48 0.06 0 0.485 0.06 0 0.49 0.06 0 0.495 0.06 0 0.5 0.06 0 0.505 0.06 0 0.51 0.06 0 0.515 0.06 0 0.52 0.06 0 0.525 0.06 0 0.53 0.06 0 0.535 0.06 0 0.54 0.06 0 0.545 0.06 0 0.55 0.06 0 0.555 0.06 0 0.56 0.06 0 0.565 0.06 0 0.57 0.06 0 0.575 0.06 0 0.58 0.06 0 0.585 0.06 0 0.59 0.06 0 0.595 0.06 0 0.6 0.06 0 0.605 0.06 0 0.61 0.06 0 0.615 0.06 0 0.62 0.06 0 0.625 0.06 0 0.63 0.06 0 0.635 0.06 0 0.64 0.06 0 0.645 0.06 0 0.65 0.06 0 0.655 0.06 0 0.66 0.06 0 0.665 0.06 0 0.67 0.06 0 0.675 0.06 0 0.68 0.06 0 0.685 0.06 0 0.69 0.06 0 0.695 0.06 0 0.7 0.06 0 0.705 0.06 0 0.71 0.06 0 0.715 0.06 0 0.72 0.06 0 0.725 0.06 0 0.73 0.06 0 0.735 0.06 0 0.74 0.06 0 0.745 0.06 0 0.75 0.06 0 0.755 0.06 0 0.76 0.06 0 0.765 0.06 0 0.77 0.06 0 0.775 0.06 0 0.78 0.06 0 0.785 0.06 0 0.79 0.06 0 0.795 0.06 0 0.8 0.06 0 0.805 0.06 0 0.81 0.06 0 0.815 0.06 0 0.82 0.06 0 0.825 0.06 0 0.83 0.06 0 0.835 0.06 0 0.84 0.06 0 0.845 0.06 0 0.85 0.06 0 0.855 0.06 0 0.86 0.06 0 0.865 0.06 0 0.87 0.06 0 0.875 0.06 0 0.88 0.06 0 0.885 0.06 0 0.89 0.06 0 0.895 0.06 0 0.9 0.06 0 0.905 0.06 0 0.91 0.06 0 0.915 0.06 0 0.92 0.06 0 0.925 0.06 0 0.93 0.06 0 0.935 0.06 0 0.94 0.06 0 0.945 0.06 0 0.95 0.06 0 0.955 0.06 0 0.96 0.06 0 0.965 0.06 0 0.97 0.06 0 0.975 0.06 0 0.98 0.06 0 0.985 0.06 0 0.99 0.06 0 0.995 0.06 0 1 0.06 0 0 0.08 0 0.005 0.08 0 0.01 0.08 0 0.015 0.08 0 0.02 0.08 0 0.025 0.08 0 0.03 0.08 0 0.035 0.08 0 0.04 0.08 0 0.045 0.08 0 0.05 0.08 0 0.055 0.08 0 0.06 0.08 0 0.065 0.08 0 0.07 0.08 0 0.075 0.08 0 0.08 0.08 0 0.085 0.08 0 0.09 0.08 0 0.095 0.08 0 0.1 0.08 0 0.105 0.08 0 0.11 0.08 0 0.115 0.08 0 0.12 0.08 0 0.125 0.08 0 0.13 0.08 0 0.135 0.08 0 0.14 0.08 0 0.145 0.08 0 0.15 0.08 0 0.155 0.08 0 0.16 0.08 0 0.165 0.08 0
[...]
			<PointData Scalars="VitesseX">
				<DataArray Name="VitesseX" type="Float32" format="ascii">
 0 -7.01167e-15 -7.14315e-15 7.52771e-14 -1.49201e-13 -5.33221e-14 5.02127e-14 -2.42013e-14 -1.23894e-13 -1.78285e-14 6.57682e-14 -1.96107e-13 1.7852e-13 -3.87877e-13 1.80455e-13 -7.84533e-14 -2.56444e-13 2.73845e-13 -2.57508e-13 1.37492e-13 -3.03752e-15 -1.69851e-13 -3.07788e-13 1.54285e-13 4.4858e-13 1.02809e-13 -4.08529e-13 5.36314e-14 -1.05834e-14 3.84221e-14 -3.42664e-13 4.15801e-13 -4.2331e-13 -3.81469e-13 4.76854e-13 -3.10339e-13 2.22056e-13 -6.20642e-13 7.03433e-13 -4.72703e-13 6.97815e-14 -3.03052e-13 -1.04918e-13 6.4101e-13 1.31259e-13 -5.40722e-13 3.11742e-13 -7.12796e-13 1.91641e-13 -1.24758e-13 3.92128e-14 -3.20309e-13 -1.19373e-12 1.63114e-12 -2.65703e-13 -1.0788e-14 5.28119e-13 -7.5189e-13 1.05122e-12 -5.81201e-13 -5.46602e-13 -3.49068e-13 5.08404e-15 9.23215e-14 -5.85364e-13 8.23516e-14 3.34605e-13 3.66915e-13 8.68996e-13 -8.42887e-13 -4.24346e-13 9.14228e-13 -5.58724e-13 3.27778e-13 -1.99157e-12 4.9971e-13 5.32561e-13 -7.33087e-13 6.28932e-13 -1.12842e-12 2.04938e-12 -7.94497e-13 -1.6743e-14 2.26371e-11 4.31664e-10 8.01011e-09 1.28561e-07 1.75832e-06 2.0172e-05 0.000190145 0.00143281 0.00831311 0.0353459 0.104707 0.214132 0.329031 0.434143 0.531298 0.620386 0.700268 0.769192 0.825278 0.867644 0.896138 0.914243 0.922652 0.920115 0.905104 0.871127 0.811008 0.719533 0.59685 0.451596 0.301866 0.171239 0.0790289 0.0292712 0.00911216 0.00255085 0.000668617 0.000166609 3.96542e-05 9.02816e-06 1.96762e-06 4.10741e-07 8.21745e-08 1.57688e-08 2.90358e-09 5.12103e-10 8.84773e-11 1.23805e-11 3.55272e-12 -8.75419e-14 -1.70651e-12 1.12831e-12 -2.06015e-12 1.97757e-12 2.39543e-13 -1.7415e-12 1.60976e-12 -8.49669e-13 -6.11819e-13 2.87417e-12 -2.22502e-12 -1.61793e-12 1.84053e-12 -1.81468e-12 3.40257e-12 -1.33903e-12 -4.78212e-13 1.48617e-12 -1.64586e-12 2.79024e-12 -2.00546e-12 1.13037e-12 -1.77598e-12 1.66869e-12 3.29126e-13 -1.15657e-12 -2.8624e-13 -1.34369e-12 1.55907e-12 -5.65593e-13 -9.31134e-13 5.27611e-13 -3.60772e-14 8.26787e-13 -5.0683e-13 -1.8431e-12 2.56078e-12 -1.15245e-12 -1.70985e-13 2.17823e-12 -2.29078e-12 2.30068e-12 -1.70121e-12 5.67967e-13 1.23069e-12 -2.05004e-12 1.8854e-12 -1.17144e-12 -2.31926e-13 1.10773e-12 -2.64914e-12 1.32076e-12 -2.12813e-12 2.15519e-13 1.26742e-12 -1.70972e-12 3.13935e-12 -1.89772e-12 -1.60978e-12 4.32385e-12 -2.82782e-12 -1.14869e-12 -1.28376e-13 -1.21759e-12 3.86697e-12 -3.19444e-12 1.09512e-12 0 0 9.77207e-15 9.87868e-15 -8.43311e-14 6.1547e-14 -4.16042e-14 -9.59239e-14 -7.13909e-14 1.37773e-14 -4.70456e-14 -1.26685e-13 6.23837e-14 -2.4343e-13 1.96575e-13 -2.3471e-13 2.19541e-14 1.33772e-13 -2.17681e-13 1.61982e-13 -2.30212e-13 -1.63088e-13 -2.53026e-14 9.30484e-14 -1.89527e-14 -1.30616e-13 1.15146e-13 2.72592e-13 -2.14453e-13 -1.79689e-13 -1.84341e-13 2.57423e-13 -3.0105e-13 1.99164e-13 -5.93697e-14 -5.90831e-13 2.42938e-13 -1.51123e-13 4.63761e-13 -5.25146e-13 1.60219e-13 -4.07697e-13 1.66556e-13 1.32149e-13 -2.02455e-13 -9.59737e-15 2.84021e-13 -5.04984e-13 1.89447e-13 -4.34253e-13 -2.69596e-13 -3.14227e-13 -4.89872e-14 8.07554e-13 -9.38546e-13 5.46338e-13 1.744e-13 -2.47534e-13 6.80303e-13 -8.62236e-13 3.25744e-13 1.16985e-13 -2.19622e-13 -3.91907e-13 -4.80266e-13 3.42068e-13 1.22809e-13 1.80773e-13 2.05712e-13 -5.81252e-13 7.07791e-13 1.21279e-13 -7.77839e-13 9.89534e-14 -8.41492e-13 6.36099e-13 -7.20433e-13 -7.79032e-13 6.75018e-13 -2.26468e-13 9.69397e-13 -1.10078e-12 1.13553e-12 1.78316e-12 1.90723e-11 4.3152e-10 8.01451e-09 1.28559e-07 1.75832e-06 2.0172e-05 0.000190145 0.00143281 0.00831311 0.0353459 0.104707 0.214132 0.329031 0.434143 0.531298 0.620386 0.700268 0.769192 0.825278 0.867644 0.896138 0.914243 0.922652 0.920115 0.905104 0.871127 0.811008 0.719533 0.59685 0.451596 0.301866 0.171239 0.0790289 0.0292712 0.00911216 0.00255085 0.000668617 0.000166609 3.96542e-05 9.02816e-06 1.96762e-06 4.10739e-07 8.21769e-08 1.57663e-08 2.90322e-09 5.14403e-10 8.63758e-11 1.50996e-11 9.49372e-13 -3.77693e-13 6.73185e-13 -1.39881e-12 8.45336e-13 -7.26267e-13 -5.95437e-14 1.37243e-12 -1.26279e-12 6.9321e-13 4.29263e-13 -2.29102e-12 1.60431e-12 9.45856e-14 -1.44389e-12 1.64342e-12 -1.60417e-12 1.93374e-12 4.04664e-13 -1.12919e-12 1.47139e-12 -1.73298e-12 1.6363e-12 -1.04592e-12 1.35215e-12 -9.81386e-13 -2.4044e-13 2.77729e-13 -1.77158e-13 4.93597e-14 -1.407e-12 5.62522e-14 1.07377e-12 -1.65141e-13 -3.72758e-13 -8.1408e-13 1.39358e-13 1.30829e-12 -1.67035e-12 1.31395e-12 3.97103e-13 -1.33657e-12 1.78288e-12 -1.26446e-12 1.30951e-12 -2.46784e-13 -1.07755e-12 1.41311e-12 -1.17631e-12 8.6477e-13 4.4688e-14 -1.6029e-12 7.51338e-13 -1.7319e-12 7.58742e-13 -5.30522e-13 -1.28353e-12 1.50546e-12 -1.77889e-12 1.94424e-12 7.37809e-13 -3.75475e-12 2.13189e-12 1.98573e-13 -3.80363e-13 4.28265e-13 -3.17749e-12 3.08955e-12 1.29562e-13 0 0 -1.10089e-14 -4.47137e-14 -1.21206e-14 -3.1233e-14 -9.32711e-15 -1.67412e-14 -4.82982e-14 -9.95201e-14 -1.15407e-13 -4.23438e-14 -7.2175e-14 5.40356e-14 -1.0714e-13 2.66698e-14 5.02491e-14 -5.06162e-14 -4.07008e-14 -1.53558e-13 1.85368e-14 -1.17833e-13 -9.4056e-14 -1.72083e-13 1.45802e-14 1.10367e-13 5.66036e-14 -2.86317e-14 -1.60402e-14 -1.63964e-13 -9.23598e-14 -9.93879e-14 -5.85877e-14 2.42056e-14 -6.83517e-14 -5.1017e-14 -1.9992e-13 6.60728e-14 -8.69397e-14 -1.29143e-14 -1.47642e-13 2.58667e-14 -8.18933e-14 2.38256e-14 5.88399e-14 -2.1778e-13 -3.45238e-13 -1.14176e-13 -1.93017e-13 2.32743e-13 3.57809e-14 -3.38766e-13 -1.51653e-13 -3.2797e-13 5.98656e-13 8.93873e-14 -1.16654e-13 9.54078e-14 -5.29522e-13 1.8435e-13 5.71137e-14 1.60169e-13 1.88538e-14 -5.64809e-13 7.34947e-14 -2.13158e-13 3.62732e-13 1.71487e-13 -8.5951e-14 -5.23367e-14 -8.3814e-14 2.9038e-14 1.31882e-13 -3.71166e-13 -2.07414e-14 -3.88224e-13 -2.99664e-13 -3.63707e-13 -2.36895e-13 4.01292e-13 -1.31056e-13 9.53926e-14 2.81104e-13 1.15769e-12 2.0495e-11 4.31434e-10 8.01317e-09 1.2856e-07 1.75832e-06 2.0172e-05 0.000190145 0.00143281 0.00831311 0.0353459 0.104707 0.214132 0.329031 0.434143 0.531298 0.620386 0.700268 0.769192 0.825278 0.867644 0.896138 0.914243 0.922652 0.920115 0.905104 0.871127 0.811008 0.719533 0.59685 0.451596 0.301866 0.171239 0.0790289 0.0292712 0.00911216 0.00255085 0.000668617 0.000166609 3.96542e-05 9.02816e-06 1.96762e-06 4.1074e-07 8.21761e-08 1.57673e-08 2.90322e-09 5.12842e-10 8.76967e-11 1.39771e-11 1.88415e-12 8.48073e-14 -9.58762e-13 -1.90143e-13 9.30645e-14 -1.3917e-13 -2.43028e-14 -9.5069e-14 1.62392e-13 -1.11871e-13 -6.51885e-13 -5.90764e-15 3.85877e-13 3.97395e-13 -3.5093e-13 1.97849e-13 1.08457e-13 1.70158e-14 3.3789e-13 2.31844e-13 -6.68665e-15 -2.64795e-13 -4.65585e-13 4.97073e-13 6.00994e-13 -3.90528e-14 -8.06814e-13 -8.39753e-13 3.52691e-14 3.82252e-13 6.99799e-13 -6.01634e-13 -9.12109e-13 2.69859e-13 2.02849e-13 -1.14132e-13 1.55928e-13 -2.66035e-13 1.7955e-13 -2.20888e-13 -2.15254e-13 3.87032e-13 4.72649e-13 7.24836e-13 -2.9232e-13 -1.12179e-12 9.57762e-14 9.48734e-13 4.45783e-13 -5.16135e-13 -9.55564e-13 -4.21044e-13 2.08515e-13 -9.47999e-14 -9.63232e-13 -1.33323e-12 9.13008e-13 4.38368e-13 -6.44669e-13 -3.31328e-13 -7.90985e-13 1.26198e-12 2.6409e-14 2.32931e-13 -8.70713e-13 -3.24381e-13 8.12384e-13 -2.28789e-13 -5.03667e-13 0 0 -3.22509e-14 -2.34452e-14 1.8839e-14 -9.66013e-14 -8.17076e-14 -4.64993e-14 -2.76393e-14 -4.88775e-14 2.29839e-14 6.16744e-15 -1.06118e-13 4.6778e-15 -1.13645e-13 8.34618e-14 -7.51317e-14 -1.46997e-13 2.6241e-14 -2.5946e-13 -6.16567e-14 3.696e-14 -9.18241e-14 -1.46167e-13 -1.93402e-14 2.04143e-13 5.16982e-15 -1.88329e-13 5.33499e-14 -8.4234e-14 -2.23706e-13 -1.76904e-13 2.71367e-13 -9.55156e-14 -6.46038e-14 1.33456e-13 -1.29467e-13 1.26157e-13 -1.81791e-13 2.66673e-13 -4.26395e-13 -1.08532e-13 -2.87354e-13 -1.34716e-13 2.34318e-13 1.26998e-13 -3.75257e-13 1.62085e-13 -3.34535e-13 -2.80586e-14 -5.85572e-14 -6.50538e-14 -1.9733e-13 -3.4851e-13 7.62599e-13 2.2435e-14 -3.34033e-14 1.89925e-14 -5.33483e-13 2.27237e-13 -1.76952e-13 -2.07892e-13 -2.3193e-13 -4.72136e-13 -1.34101e-13 -1.44667e-13 5.20403e-13 3.34993e-13 -1.69672e-14 5.09469e-13 9.79117e-14 8.41061e-14 3.60281e-14 -1.61748e-13 2.13787e-14 -9.37877e-13 -4.89211e-15 -3.30499e-13 -8.07277e-13 1.0803e-13 -1.20613e-13 1.25311e-12 -4.56667e-13 4.34621e-13 2.1122e-11 4.31036e-10 8.01184e-09 1.28561e-07 1.75832e-06 2.0172e-05 0.000190145 0.00143281 0.00831311 0.0353459 0.104707 0.214132 0.329031 0.434143 0.531298 0.620386 0.700268 0.769192 0.825278 0.867644 0.896138 0.914243 0.922652 0.920115 0.905104 0.871127 0.811008 0.719533 0.59685 0.451596 0.301866 0.171239 0.0790289 0.0292712 0.00911216 0.00255085 0.000668617 0.000166609 3.96542e-05 9.02816e-06 1.96762e-06 4.1074e-07 8.21754e-08 1.57677e-08 2.90326e-09 5.12909e-10 8.76865e-11 1.36079e-11 2.19861e-12 -4.15685e-13 -5.71657e-13 3.96642e-13 -9.44385e-13 -7.33708e-14 -2.75369e-13 -6.69553e-13 1.26872e-12 -6.63764e-13 -7.79141e-13 1.2121e-12 8.95534e-14 4.92645e-13 5.69923e-13 -1.86568e-12 9.77179e-13 -5.8683e-14 1.12818e-12 8.79813e-13 -1.48309e-12 2.51902e-14 -6.31664e-13 8.52939e-13 -1.25088e-12 3.57906e-13 -4.55447e-13 -3.88193e-13 1.62951e-13 -8.17552e-13 -1.10141e-13 5.81072e-14 -6.68743e-14 6.80883e-13 -3.30828e-14 -1.10533e-12 -1.29235e-12 -7.277e-13 2.35685e-12 6.1365e-14 -2.63535e-13 8.58269e-13 -8.12384e-13 5.16279e-13 7.55947e-13 -1.86652e-13 7.45544e-14 -1.21592e-12 6.11576e-13 4.22992e-13 -7.08184e-13 6.87907e-13 -1.71886e-12 4.16329e-13 -1.50741e-12 -2.39582e-13 1.01328e-12 -6.85212e-14 9.70276e-13 -1.52098e-12 -1.02649e-12 1.85112e-12 3.83066e-13 -9.95405e-14 -6.67447e-13 -1.6705e-12 9.87615e-13 -1.04338e-13 1.4448e-12 0 0 -9.40066e-15 3.46531e-15 -8.5365e-14 2.10655e-14 -6.85222e-14 -1.11997e-13 -3.21867e-14 7.57593e-14 3.2895e-14 -1.11899e-13 5.15401e-14 -2.4076e-13 2.52332e-13 -2.11133e-13 -1.42762e-13 -4.49809e-14 -2.72792e-13 1.01941e-13 -3.17794e-13 -4.22767e-14 4.25925e-14 1.39497e-13 -6.45602e-14 -1.93974e-13 -3.28273e-14 6.73364e-14 -2.90159e-13 -1.24641e-13 -2.02336e-13 2.79116e-13 -2.27479e-14 3.76402e-13 1.60439e-13 -4.55336e-13 1.81451e-13 -1.47955e-13 2.99143e-13 -4.62161e-13 3.59896e-14 -3.70802e-13 -6.24945e-14 -1.28016e-16 -4.18041e-13 2.47399e-14 2.09505e-13 -4.00987e-13 2.67352e-13 -5.30615e-13 -2.98568e-13 -3.77688e-13 -2.13971e-13 9.09496e-13 -9.62061e-13 5.4558e-13 3.32228e-13 -2.89737e-13 6.8206e-13 -9.46125e-13 1.57062e-13 -1.51471e-13 -4.66883e-13 -2.60359e-13 -5.6017e-13 3.68738e-13 2.51474e-13 3.75664e-13 3.51522e-13 1.39336e-13 8.94959e-13 3.33949e-13 -7.65078e-13 -2.49085e-14 -1.13516e-12 4.24738e-13 -7.47159e-13 -4.93084e-13 3.54925e-13 -3.97316e-13 8.84923e-13 -8.09981e-13 4.15134e-13 1.60181e-12 1.89084e-11 4.31202e-10 8.01403e-09 1.2856e-07 1.75832e-06 2.0172e-05 0.000190145 0.00143281 0.00831311 0.0353459 0.104707 0.214132 0.329031 0.434143 0.531298 0.620386 0.700268 0.769192 0.825278 0.867644 0.896138 0.914243 0.922652 0.920115 0.905104 0.871127 0.811008 0.719533 0.59685 0.451596 0.301866 0.171239 0.0790289 0.0292712 0.00911216 0.00255085 0.000668617 0.000166609 3.96542e-05 9.02816e-06 1.96762e-06 4.10739e-07 8.21765e-08 1.57663e-08 2.90361e-09 5.14475e-10 8.60739e-11 1.47952e-11 1.11251e-12 -4.60848e-13 7.28573e-13 -1.05757e-12 -1.87956e-13 -1.07492e-12 -3.05974e-14 1.12219e-12 -6.92523e-13 1.85596e-13 1.50238e-13 -1.30578e-12 1.83897e-12 1.15157e-12 -7.69325e-13 6.49068e-13 -1.53817e-12 1.94039e-12 9.55029e-13 -4.23189e-13 1.15006e-12 -2.15468e-12 1.13685e-12 -1.74446e-12 -2.31104e-13 -1.59624e-12 -3.44697e-13 7.55743e-13 -5.07912e-13 -6.83848e-13 -1.75349e-12 3.58741e-13 1.34908e-12 -2.99563e-13 -5.93074e-13 -9.61624e-13 4.39964e-15 9.58034e-13 -1.26175e-12 1.1453e-12 2.54011e-13 -1.24936e-12 1.19775e-12 -1.63063e-12 2.0788e-12 1.14951e-12 -6.70394e-13 -2.5405e-13 -1.63141e-12 1.38594e-12 1.20055e-12 -1.17161e-12 -3.20897e-13 -2.5183e-12 2.57002e-13 2.85849e-13 -4.14161e-13 1.23937e-12 -1.10055e-12 1.16563e-12 9.68148e-13 -3.87028e-12 2.58304e-12 -4.64252e-14 -2.32006e-13 -9.25939e-13 -2.69163e-12 3.62743e-12 1.74049e-12 0 0 -2.87303e-15 -6.25069e-14 1.129e-14 -9.94275e-14 3.7603e-14 7.75824e-14 1.28893e-14 -1.01215e-13 -1.3473e-13 -1.68368e-15 -1.49909e-13 2.82574e-13 -2.63354e-13 1.14025e-13 -1.57123e-13 -4.21187e-13 2.97378e-14 -1.65787e-13 1.22715e-13 -7.10021e-14 -3.85247e-14 -2.66724e-13 1.3091e-13 1.34312e-13 -9.02703e-14 -4.99647e-13 -2.36561e-13 -5.9948e-14 2.65124e-13 -1.44246e-13 3.12495e-13 1.70609e-13 5.06525e-14 3.78898e-13 -5.74221e-13 1.08223e-13 -7.60177e-13 2.70228e-13 -1.63657e-13 4.1237e-13 -3.50232e-13 -5.23886e-14 -1.41119e-13 -4.89623e-13 -6.29716e-13 -3.27841e-14 -2.73948e-13 5.2052e-13 5.9741e-15 -6.35132e-13 -5.58921e-13 -9.48761e-13 1.25623e-12 -1.33314e-13 1.38366e-13 5.96543e-13 -7.40453e-13 7.97663e-13 -4.50433e-13 -3.4739e-13 -3.42023e-13 8.28333e-14 3.47705e-13 -6.69005e-13 2.43387e-14 3.97374e-13 5.20566e-13 1.18656e-12 -8.32004e-13 -1.09143e-13 1.13146e-12 -1.22528e-12 -3.43798e-13 -1.31499e-12 -1.43284e-13 1.03804e-12 -2.32508e-13 8.73759e-13 -1.31825e-12 3.15555e-13 -7.59754e-13 1.06669e-12 2.10555e-11 4.31823e-10 8.0118e-09 1.28561e-07 1.75832e-06 2.0172e-05 0.000190145 0.00143281 0.00831311 0.0353459 0.104707 0.214132 0.329031 0.434143 0.531298 0.620386 0.700268 0.769192 0.825278 0.867644 0.896138 0.914243 0.922652 0.920115 0.905104 0.871127 0.811008 0.719533 0.59685 0.451596 0.301866 0.171239 0.0790289 0.0292712 0.00911216 0.00255085 0.000668617 0.000166609 3.96542e-05 9.02816e-06 1.96762e-06 4.1074e-07 8.21749e-08 1.57678e-08 2.9043e-09 5.12112e-10 8.78939e-11 1.251e-11 3.25007e-12 7.47133e-13 -2.36995e-12 6.37225e-13 -2.05184e-12 1.14867e-12 7.99568e-13 -1.09302e-12 5.37634e-13 -7.61111e-13 -9.15355e-13 2.40864e-12 -1.16306e-12 3.05532e-13 1.34796e-12 3.23662e-13 1.79712e-12 -1.17434e-12 -9.58052e-13 1.60223e-12 6.6428e-13 1.36687e-12 -2.6722e-12 -9.78459e-13 -1.23873e-12 -3.54925e-13 -5.82123e-13 -1.10366e-12 -1.20311e-12 -4.10497e-13 2.48598e-12 -1.2801e-12 -2.07099e-12 -5.63282e-13 -4.84578e-15 2.51409e-12 2.11981e-12 -1.62028e-12 -9.76623e-13 -2.05426e-12 -3.60606e-13 1.41017e-12 -8.90963e-13 1.98544e-12 -2.25917e-12 1.49027e-12 2.08746e-12 -1.05505e-12 6.43613e-13 -2.00736e-12 1.58503e-12 -2.47576e-13 -9.38861e-13 -1.27431e-12 -2.04327e-12 -3.39044e-13 2.80561e-12 -1.22814e-12 1.26615e-12 -1.07562e-12 -6.78093e-13 2.91451e-12 -2.63883e-12 -9.73738e-13 -2.38193e-13 -1.23375e-12 4.48823e-12 -2.36757e-12 4.20054e-13 0
				</DataArray>
				<DataArray Name="VitesseY" type="Float32" format="ascii">