<?xml version="1.0"?>
<VTKFile type="PolyData">
	<PolyData>
		<Piece NumberOfPoints="1206" NumberOfPolys="1000">
			<Points>
				<DataArray type="Float32" NumberOfComponents="3" format="ascii">
 0 0 0 0.005 0 0 0.01 0 0 0.015 0 0 0.02 0 0 0.025 0 0 0.03 0 0 0.035 0 0 0.04 0 0 0.045 0 0 0.05 0 0 0.055 0 0 0.06 0 0 0.065 0 0 0.07 0 0 0.075 0 0 0.08 0 0 0.085 0 0 0.09 0 0 0.095 0 0 0.1 0 0 0.105 0 0 0.11 0 0 0.115 0 0 0.12 0 0 0.125 0 0 0.13 0 0 0.135 0 0 0.14 0 0 0.145 0 0 0.15 0 0 0.155 0 0 0.16 0 0 0.165 0 0 0.17 0 0 0.175 0 0 0.18 0 0 0.185 0 0 0.19 0 0 0.195 0 0 0.2 0 0 0.205 0 0 0.21 0 0 0.215 0 0 0.22 0 0 0.225 0 0 0.23 0 0 0.235 0 0 0.24 0 0 0.245 0 0 0.25 0 0 0.255 0 0 0.26 0 0 0.265 0 0 0.27 0 0 0.275 0 0 0.28 0 0 0.285 0 0 0.29 0 0 0.295 0 0 0.3 0 0 0.305 0 0 0.31 0 0 0.315 0 0 0.32 0 0 0.325 0 0 0.33 0 0 0.335 0 0 0.34 0 0 0.345 0 0 0.35 0 0 0.355 0 0 0.36 0 0 0.365 0 0 0.37 0 0 0.375 0 0 0.38 0 0 0.385 0 0 0.39 0 0 0.395 0 0 0.4 0 0 0.405 0 0 0.41 0 0 0.415 0 0 0.42 0 0 0.425 0 0 0.43 0 0 0.435 0 0 0.44 0 0 0.445 0 0 0.45 0 0 0.455 0 0 0.46 0 0 0.465 0 0 0.47 0 0 0.475 0 0 0.48 0 0 0.485 0 0 0.49 0 0 0.495 0 0 0.5 0 0 0.505 0 0 0.51 0 0 0.515 0 0 0.52 0 0 0.525 0 0 0.53 0 0 0.535 0 0 0.54 0 0 0.545 0 0 0.55 0 0 0.555 0 0 0.56 0 0 0.565 0 0 0.57 0 0 0.575 0 0 0.58 0 0 0.585 0 0 0.59 0 0 0.595 0 0 0.6 0 0 0.605 0 0 0.61 0 0 0.615 0 0 0.62 0 0 0.625 0 0 0.63 0 0 0.635 0 0 0.64 0 0 0.645 0 0 0.65 0 0 0.655 0 0 0.66 0 0 0.665 0 0 0.67 0 0 0.675 0 0 0.68 0 0 0.685 0 0 0.69 0 0 0.695 0 0 0.7 0 0 0.705 0 0 0.71 0 0 0.715 0 0 0.72 0 0 0.725 0 0 0.73 0 0 0.735 0 0 0.74 0 0 0.745 0 0 0.75 0 0 0.755 0 0 0.76 0 0 0.765 0 0 0.77 0 0 0.775 0 0 0.78 0 0 0.785 0 0 0.79 0 0 0.795 0 0 0.8 0 0 0.805 0 0 0.81 0 0 0.815 0 0 0.82 0 0 0.825 0 0 0.83 0 0 0.835 0 0 0.84 0 0 0.845 0 0 0.85 0 0 0.855 0 0 0.86 0 0 0.865 0 0 0.87 0 0 0.875 0 0 0.88 0 0 0.885 0 0 0.89 0 0 0.895 0 0 0.9 0 0 0.905 0 0 0.91 0 0 0.915 0 0 0.92 0 0 0.925 0 0 0.93 0 0 0.935 0 0 0.94 0 0 0.945 0 0 0.95 0 0 0.955 0 0 0.96 0 0 0.965 0 0 0.97 0 0 0.975 0 0 0.98 0 0 0.985 0 0 0.99 0 0 0.995 0 0 1 0 0 0 0.02 0 0.005 0.02 0 0.01 0.02 0 0.015 0.02 0 0.02 0.02 0 0.025 0.02 0 0.03 0.02 0 0.035 0.02 0 0.04 0.02 0 0.045 0.02 0 0.05 0.02 0 0.055 0.02 0 0.06 0.02 0 0.065 0.02 0 0.07 0.02 0 0.075 0.02 0 0.08 0.02 0 0.085 0.02 0 0.09 0.02 0 0.095 0.02 0 0.1 0.02 0 0.105 0.02 0 0.11 0.02 0 0.115 0.02 0 0.12 0.02 0 0.125 0.02 0 0.13 0.02 0 0.135 0.02 0 0.14 0.02 0 0.145 0.02 0 0.15 0.02 0 0.155 0.02 0 0.16 0.02 0 0.165 0.02 0 0.17 0.02 0 0.175 0.02 0 0.18 0.02 0 0.185 0.02 0 0.19 0.02 0 0.195 0.02 0 0.2 0.02 0 0.205 0.02 0 0.21 0.02 0 0.215 0.02 0 0.22 0.02 0 0.225 0.02 0 0.23 0.02 0 0.235 0.02 0 0.24 0.02 0 0.245 0.02 0 0.25 0.02 0 0.255 0.02 0 0.26 0.02 0 0.265 0.02 0 0.27 0.02 0 0.275 0.02 0 0.28 0.02 0 0.285 0.02 0 0.29 0.02 0 0.295 0.02 0 0.3 0.02 0 0.305 0.02 0 0.31 0.02 0 0.315 0.02 0 0.32 0.02 0 0.325 0.02 0 0.33 0.02 0 0.335 0.02 0 0.34 0.02 0 0.345 0.02 0 0.35 0.02 0 0.355 0.02 0 0.36 0.02 0 0.365 0.02 0 0.37 0.02 0 0.375 0.02 0 0.38 0.02 0 0.385 0.02 0 0.39 0.02 0 0.395 0.02 0 0.4 0.02 0 0.405 0.02 0 0.41 0.02 0 0.415 0.02 0 0.42 0.02 0 0.425 0.02 0 0.43 0.02 0 0.435 0.02 0 0.44 0.02 0 0.445 0.02 0 0.45 0.02 0 0.455 0.02 0 0.46 0.02 0 0.465 0.02 0 0.47 0.02 0 0.475 0.02 0 0.48 0.02 0 0.485 0.02 0 0.49 0.02 0 0.495 0.02 0 0.5 0.02 0 0.505 0.02 0 0.51 0.02 0 0.515 0.02 0 0.52 0.02 0 0.525 0.02 0 0.53 0.02 0 0.535 0.02 0 0.54 0.02 0 0.545 0.02 0 0.55 0.02 0 0.555 0.02 0 0.56 0.02 0 0.565 0.02 0 0.57 0.02 0 0.575 0.02 0 0.58 0.02 0 0.585 0.02 0 0.59 0.02 0 0.595 0.02 0 0.6 0.02 0 0.605 0.02 0 0.61 0.02 0 0.615 0.02 0 0.62 0.02 0 0.625 0.02 0 0.63 0.02 0 0.635 0.02 0 0.64 0.02 0 0.645 0.02 0 0.65 0.02 0 0.655 0.02 0 0.66 0.02 0 0.665 0.02 0 0.67 0.02 0 0.675 0.02 0 0.68 0.02 0 0.685 0.02 0 0.69 0.02 0 0.695 0.02 0 0.7 0.02 0 0.705 0.02 0 0.71 0.02 0 0.715 0.02 0 0.72 0.02 0 0.725 0.02 0 0.73 0.02 0 0.735 0.02 0 0.74 0.02 0 0.745 0.02 0 0.75 0.02 0 0.755 0.02 0 0.76 0.02 0 0.765 0.02 0 0.77 0.02 0 0.775 0.02 0 0.78 0.02 0 0.785 0.02 0 0.79 0.02 0 0.795 0.02 0 0.8 0.02 0 0.805 0.02 0 0.81 0.02 0 0.815 0.02 0 0.82 0.02 0 0.825 0.02 0 0.83 0.02 0 0.835 0.02 0 0.84 0.02 0 0.845 0.02 0 0.85 0.02 0 0.855 0.02 0 0.86 0.02 0 0.865 0.02 0 0.87 0.02 0 0.875 0.02 0 0.88 0.02 0 0.885 0.02 0 0.89 0.02 0 0.895 0.02 0 0.9 0.02 0 0.905 0.02 0 0.91 0.02 0 0.915 0.02 0 0.92 0.02 0 0.925 0.02 0 0.93 0.02 0 0.935 0.02 0 0.94 0.02 0 0.945 0.02 0 0.95 0.02 0 0.955 0.02 0 0.96 0.02 0 0.965 0.02 0 0.97 0.02 0 0.975 0.02 0 0.98 0.02 0 0.985 0.02 0 0.99 0.02 0 0.995 0.02 0 1 0.02 0 0 0.04 0 0.005 0.04 0 0.01 0.04 0 0.015 0.04 0 0.02 0.04 0 0.025 0.04 0 0.03 0.04 0 0.035 0.04 0 0.04 0.04 0 0.045 0.04 0 0.05 0.04 0 0.055 0.04 0 0.06 0.04 0 0.065 0.04 0 0.07 0.04 0 0.075 0.04 0 0.08 0.04 0 0.085 0.04 0 0.09 0.04 0 0.095 0.04 0 0.1 0.04 0 0.105 0.04 0 0.11 0.04 0 0.115 0.04 0 0.12 0.04 0 0.125 0.04 0 0.13 0.04 0 0.135 0.04 0 0.14 0.04 0 0.145 0.04 0 0.15 0.04 0 0.155 0.04 0 0.16 0.04 0 0.165 0.04 0 0.17 0.04 0 0.175 0.04 0 0.18 0.04 0 0.185 0.04 0 0.19 0.04 0 0.195 0.04 0 0.2 0.04 0 0.205 0.04 0 0.21 0.04 0 0.215 0.04 0 0.22 0.04 0 0.225 0.04 0 0.23 0.04 0 0.235 0.04 0 0.24 0.04 0 0.245 0.04 0 0.25 0.04 0 0.255 0.04 0 0.26 0.04 0 0.265 0.04 0 0.27 0.04 0 0.275 0.04 0 0.28 0.04 0 0.285 0.04 0 0.29 0.04 0 0.295 0.04 0 0.3 0.04 0 0.305 0.04 0 0.31 0.04 0 0.315 0.04 0 0.32 0.04 0 0.325 0.04 0 0.33 0.04 0 0.335 0.04 0 0.34 0.04 0 0.345 0.04 0 0.35 0.04 0 0.355 0.04 0 0.36 0.04 0 0.365 0.04 0 0.37 0.04 0 0.375 0.04 0 0.38 0.04 0 0.385 0.04 0 0.39 0.04 0 0.395 0.04 0 0.4 0.04 0 0.405 0.04 0 0.41 0.04 0 0.415 0.04 0 0.42 0.04 0 0.425 0.04 0 0.43 0.04 0 0.435 0.04 0 0.44 0.04 0 0.445 0.04 0 0.45 0.04 0 0.455 0.04 0 0.46 0.04 0 0.465 0.04 0 0.47 0.04 0 0.475 0.04 0 0.48 0.04 0 0.485 0.04 0 0.49 0.04 0 0.495 0.04 0 0.5 0.04 0 0.505 0.04 0 0.51 0.04 0 0.515 0.04 0 0.52 0.04 0 0.525 0.04 0 0.53 0.04 0 0.535 0.04 0 0.54 0.04 0 0.545 0.04 0 0.55 0.04 0 0.555 0.04 0 0.56 0.04 0 0.565 0.04 0 0.57 0.04 0 0.575 0.04 0 0.58 0.04 0 0.585 0.04 0 0.59 0.04 0 0.595 0.04 0 0.6 0.04 0 0.605 0.04 0 0.61 0.04 0 0.615 0.04 0 0.62 0.04 0 0.625 0.04 0 0.63 0.04 0 0.635 0.04 0 0.64 0.04 0 0.645 0.04 0 0.65 0.04 0 0.655 0.04 0 0.66 0.04 0 0.665 0.04 0 0.67 0.04 0 0.675 0.04 0 0.68 0.04 0 0.685 0.04 0 0.69 0.04 0 0.695 0.04 0 0.7 0.04 0 0.705 0.04 0 0.71 0.04 0 0.715 0.04 0 0.72 0.04 0 0.725 0.04 0 0.73 0.04 0 0.735 0.04 0 0.74 0.04 0 0.745 0.04 0 0.75 0.04 0 0.755 0.04 0 0.76 0.04 0 0.765 0.04 0 0.77 0.04 0 0.775 0.04 0 0.78 0.04 0 0.785 0.04 0 0.79 0.04 0 0.795 0.04 0 0.8 0.04 0 0.805 0.04 0 0.81 0.04 0 0.815 0.04 0 0.82 0.04 0 0.825 0.04 0 0.83 0.04 0 0.835 0.04 0 0.84 0.04 0 0.845 0.04 0 0.85 0.04 0 0.855 0.04 0 0.86 0.04 0 0.865 0.04 0 0.87 0.04 0 0.875 0.04 0 0.88 0.04 0 0.885 0.04 0 0.89 0.04 0 0.895 0.04 0 0.9 0.04 0 0.905 0.04 0 0.91 0.04 0 0.915 0.04 0 0.92 0.04 0 0.925 0.04 0 0.93 0.04 0 0.935 0.04 0 0.94 0.04 0 0.945 0.04 0 0.95 0.04 0 0.955 0.04 0 0.96 0.04 0 0.965 0.04 0 0.97 0.04 0 0.975 0.04 0 0.98 0.04 0 0.985 0.04 0 0.99 0.04 0 0.995 0.04 0 1 0.04 0 0 0.06 0 0.005 0.06 0 0.01 0.06 0 0.015 0.06 0 0.02 0.06 0 0.025 0.06 0 0.03 0.06 0 0.035 0.06 0 0.04 0.06 0 0.045 0.06 0 0.05 0.06 0 0.055 0.06 0 0.06 0.06 0 0.065 0.06 0 0.07 0.06 0 0.075 0.06 0 0.08 0.06 0 0.085 0.06 0 0.09 0.06 0 0.095 0.06 0 0.1 0.06 0 0.105 0.06 0 0.11 0.06 0 0.115 0.06 0 0.12 0.06 0 0.125 0.06 0 0.13 0.06 0 0.135 0.06 0 0.14 0.06 0 0.145 0.06 0 0.15 0.06 0 0.155 0.06 0 0.16 0.06 0 0.165 0.06 0 0.17 0.06 0 0.175 0.06 0 0.18 0.06 0 0.185 0.06 0 0.19 0.06 0 0.195 0.06 0 0.2 0.06 0 0.205 0.06 0 0.21 0.06 0 0.215 0.06 0 0.22 0.06 0 0.225 0.06 0 0.23 0.06 0 0.235 0.06 0 0.24 0.06 0 0.245 0.06 0 0.25 0.06 0 0.255 0.06 0 0.26 0.06 0 0.265 0.06 0 0.27 0.06 0 0.275 0.06 0 0.28 0.06 0 0.285 0.06 0 0.29 0.06 0 0.295 0.06 0 0.3 0.06 0 0.305 0.06 0 0.31 0.06 0 0.315 0.06 0 0.32 0.06 0 0.325 0.06 0 0.33 0.06 0 0.335 0.06 0 0.34 0.06 0 0.345 0.06 0 0.35 0.06 0 0.355 0.06 0 0.36 0.06 0 0.365 0.06 0 0.37 0.06 0 0.375 0.06 0 0.38 0.06 0 0.385 0.06 0 0.39 0.06 0 0.395 0.06 0 0.4 0.06 0 0.405 0.06 0 0.41 0.06 0 0.415 0.06 0 0.42 0.06 0 0.425 0.06 0 0.43 0.06 0 0.435 0.06 0 0.44 0.06 0 0.445 0.06 0 0.45 0.06 0 0.455 0.06 0 0.46 0.06 0 0.465 0.06 0 0.47 0.06 0 0.475 0.06 0 0.48 0.06 0 0.485 0.06 0 0.49 0.06 0 0.495 0.06 0 0.5 0.06 0 0.505 0.06 0 0.51 0.06 0 0.515 0.06 0 0.52 0.06 0 0.525 0.06 0 0.53 0.06 0 0.535 0.06 0 0.54 0.06 0 0.545 0.06 0 0.55 0.06 0 0.555 0.06 0 0.56 0.06 0 0.565 0.06 0 0.57 0.06 0 0.575 0.06 0 0.58 0.06 0 0.585 0.06 0 0.59 0.06 0 0.595 0.06 0 0.6 0.06 0 0.605 0.06 0 0.61 0.06 0 0.615 0.06 0 0.62 0.06 0 0.625 0.06 0 0.63 0.06 0 0.635 0.06 0 0.64 0.06 0 0.645 0.06 0 0.65 0.06 0 0.655 0.06 0 0.66 0.06 0 0.665 0.06 0 0.67 0.06 0 0.675 0.06 0 0.68 0.06 0 0.685 0.06 0 0.69 0.06 0 0.695 0.06 0 0.7 0.06 0 0.705 0.06 0 0.71 0.06 0 0.715 0.06 0 0.72 0.06 0 0.725 0.06 0 0.73 0.06 0 0.735 0.06 0 0.74 0.06 0 0.745 0.06 0 0.75 0.06 0 0.755 0.06 0 0.76 0.06 0 0.765 0.06 0 0.77 0.06 0 0.775 0.06 0 0.78 0.06 0 0.785 0.06 0 0.79 0.06 0 0.795 0.06 0 0.8 0.06 0 0.805 0.06 0 0.81 0.06 0 0.815 0.06 0 0.82 0.06 0 0.825 0.06 0 0.83 0.06 0 0.835 0.06 0 0.84 0.06 0 0.845 0.06 0 0.85 0.06 0 0.855 0.06 0 0.86 0.06 0 0.865 0.06 0 0.87 0.06 0 0.875 0.06 0 0.88 0.06 0 0.885 0.06 0 0.89 0.06 0 0.895 0.06 0 0.9 0.06 0 0.905 0.06 0 0.91 0.06 0 0.915 0.06 0 0.92 0.06 0 0.925 0.06 0 0.93 0.06 0 0.935 0.06 0 0.94 0.06 0 0.945 0.06 0 0.95 0.06 0 0.955 0.06 0 0.96 0.06 0 0.965 0.06 0 0.97 0.06 0 0.975 0.06 0 0.98 0.06 0 0.985 0.06 0 0.99 0.06 0 0.995 0.06 0 1 0.06 0 0 0.08 0 0.005 0.08 0 0.01 0.08 0 0.015 0.08 0 0.02 0.08 0 0.025 0.08 0 0.03 0.08 0 0.035 0.08 0 0.04 0.08 0 0.045 0.08 0 0.05 0.08 0 0.055 0.08 0 0.06 0.08 0 0.065 0.08 0 0.07 0.08 0 0.075 0.08 0 0.08 0.08 0 0.085 0.08 0 0.09 0.08 0 0.095 0.08 0 0.1 0.08 0 0.105 0.08 0 0.11 0.08 0 0.115 0.08 0 0.12 0.08 0 0.125 0.08 0 0.13 0.08 0 0.135 0.08 0 0.14 0.08 0 0.145 0.08 0 0.15 0.08 0 0.155 0.08 0 0.16 0.08 0 0.165 0.08 0
[...]
			<PointData Scalars="VitesseX">
				<DataArray Name="VitesseX" type="Float32" format="ascii">
 0 2.31058e-15 -3.74651e-15 1.74371e-14 -3.40046e-14 -3.44793e-15 -1.7201e-14 -4.80531e-14 -7.21008e-15 -4.23129e-15 -4.69594e-14 -6.18839e-14 -8.55425e-14 -1.41977e-14 -1.1787e-13 -5.2409e-14 -5.27863e-14 -1.24979e-13 3.70858e-15 -6.68939e-14 -4.4195e-14 2.46269e-14 1.15161e-13 6.94916e-14 3.50863e-14 4.99719e-14 2.73667e-15 -8.14111e-15 -1.78536e-13 5.75552e-14 -1.79326e-13 3.23198e-14 -3.31811e-14 -1.11211e-13 4.29778e-14 -3.55718e-14 6.10331e-14 -8.62588e-14 -4.09192e-14 1.32552e-13 4.11682e-13 1.7031e-12 1.12275e-11 6.85602e-11 3.92367e-10 2.13988e-09 1.10625e-08 5.40789e-08 2.49367e-07 1.08156e-06 4.3978e-06 1.67015e-05 5.89783e-05 0.000192648 0.000578442 0.00158477 0.00392868 0.00873739 0.017314 0.0305059 0.0480659 0.0687172 0.090965 0.113807 0.136804 0.159812 0.182786 0.205709 0.228573 0.25137 0.274098 0.296754 0.319335 0.341837 0.364258 0.386593 0.408837 0.430985 0.453029 0.474961 0.496773 0.518452 0.539986 0.561361 0.582557 0.603555 0.62433 0.644856 0.6651 0.685024 0.704588 0.723743 0.742433 0.760598 0.778168 0.795067 0.811216 0.826526 0.840911 0.854284 0.866564 0.877681 0.887584 0.896246 0.903666 0.909879 0.914949 0.918972 0.922066 0.924366 0.926009 0.927131 0.927853 0.928283 0.928506 0.928592 0.928591 0.928555 0.928496 0.92842 0.928334 0.928243 0.928149 0.928056 0.927965 0.927878 0.927794 0.927715 0.927639 0.927566 0.927497 0.92743 0.927365 0.927303 0.927241 0.927181 0.927122 0.927062 0.927003 0.926943 0.926881 0.926816 0.926745 0.926663 0.926564 0.926432 0.926244 0.925961 0.925513 0.924788 0.923605 0.921665 0.918499 0.913367 0.905147 0.892178 0.872127 0.841937 0.798002 0.736739 0.65569 0.555135 0.439806 0.319703 0.208609 0.119704 0.0598656 0.0265255 0.0108266 0.00422972 0.00161934 0.000614235 0.000231857 8.72324e-05 3.27267e-05 1.2243e-05 4.56624e-06 1.69745e-06 6.28751e-07 2.31988e-07 8.52361e-08 3.11751e-08 1.1347e-08 4.10862e-09 1.47959e-09 5.29456e-10 1.88596e-10 6.64941e-11 2.30107e-11 7.88688e-12 2.87008e-12 4.98377e-13 8.16292e-13 -2.22608e-13 2.14284e-13 -3.19536e-13 1.51218e-13 2.50327e-13 -4.74499e-13 3.116e-13 0 0 -4.85851e-15 -1.83362e-15 -1.83473e-14 7.05136e-15 -4.01664e-14 -2.6159e-14 -1.25706e-14 -4.60245e-14 -2.25594e-14 -4.28288e-14 -5.00671e-14 -6.8e-15 -1.10339e-13 -3.3972e-14 -7.38863e-14 -1.08203e-13 -4.21253e-14 -6.71777e-14 -1.74758e-14 4.43652e-14 -6.59993e-15 2.79766e-14 3.96317e-14 7.84392e-14 -2.69228e-14 -4.02942e-14 -6.71659e-14 5.03059e-14 -6.18066e-14 2.16807e-14 -1.41641e-13 -6.12419e-14 7.05246e-14 -5.69596e-14 -6.30213e-14 -6.08275e-14 -3.77202e-15 4.73137e-16 7.48453e-14 1.30223e-13 1.92484e-12 1.1424e-11 6.82414e-11 3.92354e-10 2.14025e-09 1.10623e-08 5.40786e-08 2.49368e-07 1.08156e-06 4.3978e-06 1.67015e-05 5.89783e-05 0.000192648 0.000578442 0.00158477 0.00392868 0.00873739 0.017314 0.0305059 0.0480659 0.0687172 0.090965 0.113807 0.136804 0.159812 0.182786 0.205709 0.228573 0.25137 0.274098 0.296754 0.319335 0.341837 0.364258 0.386593 0.408837 0.430985 0.453029 0.474961 0.496773 0.518452 0.539986 0.561361 0.582557 0.603555 0.62433 0.644856 0.6651 0.685024 0.704588 0.723743 0.742433 0.760598 0.778168 0.795067 0.811216 0.826526 0.840911 0.854284 0.866564 0.877681 0.887584 0.896246 0.903666 0.909879 0.914949 0.918972 0.922066 0.924366 0.926009 0.927131 0.927853 0.928283 0.928506 0.928592 0.928591 0.928555 0.928496 0.92842 0.928334 0.928243 0.928149 0.928056 0.927965 0.927878 0.927794 0.927715 0.927639 0.927566 0.927497 0.92743 0.927365 0.927303 0.927241 0.927181 0.927122 0.927062 0.927003 0.926943 0.926881 0.926816 0.926745 0.926663 0.926564 0.926432 0.926244 0.925961 0.925513 0.924788 0.923605 0.921665 0.918499 0.913367 0.905147 0.892178 0.872127 0.841937 0.798002 0.736739 0.65569 0.555135 0.439806 0.319703 0.208609 0.119704 0.0598656 0.0265255 0.0108266 0.00422972 0.00161934 0.000614235 0.000231857 8.72324e-05 3.27267e-05 1.2243e-05 4.56624e-06 1.69745e-06 6.28751e-07 2.31988e-07 8.52359e-08 3.11752e-08 1.13472e-08 4.10903e-09 1.47929e-09 5.2972e-10 1.8817e-10 6.65081e-11 2.33668e-11 7.84626e-12 2.37295e-12 1.19897e-12 -1.08805e-14 2.00713e-13 -4.36756e-13 7.02504e-13 -1.56027e-13 -2.1552e-13 6.82738e-14 -2.47753e-13 0 0 -8.5233e-15 -2.17138e-14 -1.95068e-14 -2.96837e-14 -1.36474e-14 -3.99969e-14 -7.38676e-14 -4.15338e-14 -4.66483e-14 -4.67825e-14 -1.90967e-14 -5.16423e-14 -6.43565e-15 -6.07634e-14 -9.01512e-14 -3.57344e-14 -4.49729e-14 2.76545e-14 -7.53151e-14 -2.39192e-14 8.98054e-14 3.00712e-14 2.06766e-14 -4.79911e-14 -9.01746e-14 -6.19181e-14 5.36999e-14 -8.95619e-14 3.93888e-14 -5.51286e-14 -3.819e-14 -1.35553e-15 -7.41064e-14 -3.04056e-15 -2.91914e-14 1.43552e-14 -1.49605e-13 5.36116e-15 7.7436e-15 3.74107e-13 1.76654e-12 1.13412e-11 6.82565e-11 3.92515e-10 2.14007e-09 1.10624e-08 5.40784e-08 2.49368e-07 1.08156e-06 4.3978e-06 1.67015e-05 5.89783e-05 0.000192648 0.000578442 0.00158477 0.00392868 0.00873739 0.017314 0.0305059 0.0480659 0.0687172 0.090965 0.113807 0.136804 0.159812 0.182786 0.205709 0.228573 0.25137 0.274098 0.296754 0.319335 0.341837 0.364258 0.386593 0.408837 0.430985 0.453029 0.474961 0.496773 0.518452 0.539986 0.561361 0.582557 0.603555 0.62433 0.644856 0.6651 0.685024 0.704588 0.723743 0.742433 0.760598 0.778168 0.795067 0.811216 0.826526 0.840911 0.854284 0.866564 0.877681 0.887584 0.896246 0.903666 0.909879 0.914949 0.918972 0.922066 0.924366 0.926009 0.927131 0.927853 0.928283 0.928506 0.928592 0.928591 0.928555 0.928496 0.92842 0.928334 0.928243 0.928149 0.928056 0.927965 0.927878 0.927794 0.927715 0.927639 0.927566 0.927497 0.92743 0.927365 0.927303 0.927241 0.927181 0.927122 0.927062 0.927003 0.926943 0.926881 0.926816 0.926745 0.926663 0.926564 0.926432 0.926244 0.925961 0.925513 0.924788 0.923605 0.921665 0.918499 0.913367 0.905147 0.892178 0.872127 0.841937 0.798002 0.736739 0.65569 0.555135 0.439806 0.319703 0.208609 0.119704 0.0598656 0.0265255 0.0108266 0.00422972 0.00161934 0.000614235 0.000231857 8.72324e-05 3.27267e-05 1.2243e-05 4.56624e-06 1.69745e-06 6.28751e-07 2.31988e-07 8.52362e-08 3.11753e-08 1.13474e-08 4.1086e-09 1.47999e-09 5.29486e-10 1.88365e-10 6.62679e-11 2.33585e-11 7.7478e-12 2.92701e-12 1.81408e-13 3.62933e-14 -1.72789e-13 2.10721e-13 2.61439e-13 1.24129e-13 -5.06016e-13 -4.1103e-14 -3.36196e-14 0 0 -9.90643e-15 -1.2191e-14 -2.27545e-14 -4.006e-14 -3.85043e-14 -2.61046e-14 -5.73811e-14 -5.66438e-14 -3.98945e-14 -5.76007e-14 -6.91333e-14 -2.0729e-14 9.33777e-15 -8.23988e-14 -3.65128e-15 -5.97898e-14 -3.60956e-14 2.65869e-14 -7.87855e-15 -8.17698e-14 -1.64432e-14 6.3103e-14 -5.83965e-14 -2.62593e-14 -4.21088e-14 -4.78419e-14 -6.04019e-15 -1.58848e-13 -1.66236e-14 -5.76632e-15 4.5752e-14 5.24525e-14 -5.5783e-14 8.75724e-15 -1.14556e-13 -4.15847e-14 2.46717e-14 -1.17263e-13 1.94502e-13 5.0265e-13 1.65132e-12 1.12333e-11 6.84147e-11 3.92344e-10 2.13995e-09 1.10625e-08 5.40788e-08 2.49367e-07 1.08156e-06 4.3978e-06 1.67015e-05 5.89783e-05 0.000192648 0.000578442 0.00158477 0.00392868 0.00873739 0.017314 0.0305059 0.0480659 0.0687172 0.090965 0.113807 0.136804 0.159812 0.182786 0.205709 0.228573 0.25137 0.274098 0.296754 0.319335 0.341837 0.364258 0.386593 0.408837 0.430985 0.453029 0.474961 0.496773 0.518452 0.539986 0.561361 0.582557 0.603555 0.62433 0.644856 0.6651 0.685024 0.704588 0.723743 0.742433 0.760598 0.778168 0.795067 0.811216 0.826526 0.840911 0.854284 0.866564 0.877681 0.887584 0.896246 0.903666 0.909879 0.914949 0.918972 0.922066 0.924366 0.926009 0.927131 0.927853 0.928283 0.928506 0.928592 0.928591 0.928555 0.928496 0.92842 0.928334 0.928243 0.928149 0.928056 0.927965 0.927878 0.927794 0.927715 0.927639 0.927566 0.927497 0.92743 0.927365 0.927303 0.927241 0.927181 0.927122 0.927062 0.927003 0.926943 0.926881 0.926816 0.926745 0.926663 0.926564 0.926432 0.926244 0.925961 0.925513 0.924788 0.923605 0.921665 0.918499 0.913367 0.905147 0.892178 0.872127 0.841937 0.798002 0.736739 0.65569 0.555135 0.439806 0.319703 0.208609 0.119704 0.0598656 0.0265255 0.0108266 0.00422972 0.00161934 0.000614235 0.000231857 8.72324e-05 3.27267e-05 1.2243e-05 4.56624e-06 1.69745e-06 6.28751e-07 2.31989e-07 8.52359e-08 3.11755e-08 1.13472e-08 4.10864e-09 1.47949e-09 5.29937e-10 1.88709e-10 6.62773e-11 2.33314e-11 8.06791e-12 2.19036e-12 5.96869e-13 2.70464e-13 -7.47509e-13 2.63561e-13 -2.59737e-13 -2.88743e-13 4.50273e-13 -5.50263e-13 3.82186e-13 0 0 -1.33298e-14 -1.3101e-14 -2.53028e-14 -2.68811e-15 -6.7652e-14 -3.94618e-14 1.51739e-14 -4.58592e-14 -5.28216e-14 -4.65076e-14 -7.45991e-14 3.01955e-14 -9.89766e-14 -1.67441e-14 -2.27724e-14 -9.43414e-14 1.15017e-14 -2.32436e-14 2.79746e-14 -2.05362e-14 -9.47906e-14 4.25105e-15 -6.70558e-14 3.38307e-14 -2.73485e-14 -5.67195e-14 -1.3474e-13 2.12028e-14 -1.30506e-13 -3.22379e-14 -4.11857e-14 2.57528e-14 7.04071e-14 -1.15019e-13 -1.2597e-13 -5.7335e-14 1.67705e-13 -2.11359e-14 1.04555e-13 2.86061e-13 1.80214e-12 1.12305e-11 6.83148e-11 3.92319e-10 2.14019e-09 1.10626e-08 5.40787e-08 2.49368e-07 1.08156e-06 4.3978e-06 1.67015e-05 5.89783e-05 0.000192648 0.000578442 0.00158477 0.00392868 0.00873739 0.017314 0.0305059 0.0480659 0.0687172 0.090965 0.113807 0.136804 0.159812 0.182786 0.205709 0.228573 0.25137 0.274098 0.296754 0.319335 0.341837 0.364258 0.386593 0.408837 0.430985 0.453029 0.474961 0.496773 0.518452 0.539986 0.561361 0.582557 0.603555 0.62433 0.644856 0.6651 0.685024 0.704588 0.723743 0.742433 0.760598 0.778168 0.795067 0.811216 0.826526 0.840911 0.854284 0.866564 0.877681 0.887584 0.896246 0.903666 0.909879 0.914949 0.918972 0.922066 0.924366 0.926009 0.927131 0.927853 0.928283 0.928506 0.928592 0.928591 0.928555 0.928496 0.92842 0.928334 0.928243 0.928149 0.928056 0.927965 0.927878 0.927794 0.927715 0.927639 0.927566 0.927497 0.92743 0.927365 0.927303 0.927241 0.927181 0.927122 0.927062 0.927003 0.926943 0.926881 0.926816 0.926745 0.926663 0.926564 0.926432 0.926244 0.925961 0.925513 0.924788 0.923605 0.921665 0.918499 0.913367 0.905147 0.892178 0.872127 0.841937 0.798002 0.736739 0.65569 0.555135 0.439806 0.319703 0.208609 0.119704 0.0598656 0.0265255 0.0108266 0.00422972 0.00161934 0.000614235 0.000231857 8.72324e-05 3.27267e-05 1.2243e-05 4.56624e-06 1.69745e-06 6.28751e-07 2.31989e-07 8.52361e-08 3.11754e-08 1.13469e-08 4.10916e-09 1.479e-09 5.30078e-10 1.87891e-10 6.69821e-11 2.34913e-11 7.98581e-12 1.88017e-12 1.43556e-12 2.47295e-13 -1.34864e-13 -5.9344e-13 7.19639e-14 -5.26162e-13 2.49415e-13 8.70871e-14 3.11116e-14 0 0 -1.18658e-14 -4.53269e-14 1.00218e-14 -3.27308e-14 -8.70543e-15 -7.15912e-14 -2.5537e-14 2.33406e-14 -7.82633e-14 -3.26805e-14 -1.0875e-14 -7.33782e-14 -2.30207e-14 -4.01434e-14 -1.23181e-13 2.30486e-14 -3.54795e-14 9.37119e-14 -1.10866e-13 -5.82964e-14 6.07427e-14 1.64594e-15 1.42629e-14 -9.75945e-14 -4.70111e-14 -5.82664e-14 -2.381e-14 -9.81687e-14 3.21819e-14 -3.85888e-13 6.53465e-14 3.31922e-14 -1.48092e-13 -9.67355e-14 9.25901e-15 1.79898e-13 -9.18592e-14 1.61111e-13 -1.81545e-13 4.66271e-13 1.68815e-12 1.10563e-11 6.83906e-11 3.92637e-10 2.14002e-09 1.10629e-08 5.40785e-08 2.49368e-07 1.08156e-06 4.3978e-06 1.67015e-05 5.89783e-05 0.000192648 0.000578442 0.00158477 0.00392868 0.00873739 0.017314 0.0305059 0.0480659 0.0687172 0.090965 0.113807 0.136804 0.159812 0.182786 0.205709 0.228573 0.25137 0.274098 0.296754 0.319335 0.341837 0.364258 0.386593 0.408837 0.430985 0.453029 0.474961 0.496773 0.518452 0.539986 0.561361 0.582557 0.603555 0.62433 0.644856 0.6651 0.685024 0.704588 0.723743 0.742433 0.760598 0.778168 0.795067 0.811216 0.826526 0.840911 0.854284 0.866564 0.877681 0.887584 0.896246 0.903666 0.909879 0.914949 0.918972 0.922066 0.924366 0.926009 0.927131 0.927853 0.928283 0.928506 0.928592 0.928591 0.928555 0.928496 0.92842 0.928334 0.928243 0.928149 0.928056 0.927965 0.927878 0.927794 0.927715 0.927639 0.927566 0.927497 0.92743 0.927365 0.927303 0.927241 0.927181 0.927122 0.927062 0.927003 0.926943 0.926881 0.926816 0.926745 0.926663 0.926564 0.926432 0.926244 0.925961 0.925513 0.924788 0.923605 0.921665 0.918499 0.913367 0.905147 0.892178 0.872127 0.841937 0.798002 0.736739 0.65569 0.555135 0.439806 0.319703 0.208609 0.119704 0.0598656 0.0265255 0.0108266 0.00422972 0.00161934 0.000614235 0.000231857 8.72324e-05 3.27267e-05 1.2243e-05 4.56624e-06 1.69745e-06 6.28752e-07 2.31988e-07 8.52371e-08 3.11751e-08 1.13468e-08 4.1088e-09 1.48e-09 5.29271e-10 1.87353e-10 6.74231e-11 2.33137e-11 7.52576e-12 3.35784e-12 1.4064e-13 8.64301e-13 2.55676e-13 -2.04763e-13 -5.38264e-13 2.36692e-13 -7.32379e-13 5.81447e-13 3.77176e-14 0
				</DataArray>
				<DataArray Name="VitesseY" type="Float32" format="ascii">