<?xml version="1.0"?>
<VTKFile type="PolyData">
	<PolyData>
		<Piece NumberOfPoints="1206" NumberOfPolys="1000">
			<Points>
				<DataArray type="Float32" NumberOfComponents="3" format="ascii">
 0 0 0 0.005 0 0 0.01 0 0 0.015 0 0 0.02 0 0 0.025 0 0 0.03 0 0 0.035 0 0 0.04 0 0 0.045 0 0 0.05 0 0 0.055 0 0 0.06 0 0 0.065 0 0 0.07 0 0 0.075 0 0 0.08 0 0 0.085 0 0 0.09 0 0 0.095 0 0 0.1 0 0 0.105 0 0 0.11 0 0 0.115 0 0 0.12 0 0 0.125 0 0 0.13 0 0 0.135 0 0 0.14 0 0 0.145 0 0 0.15 0 0 0.155 0 0 0.16 0 0 0.165 0 0 0.17 0 0 0.175 0 0 0.18 0 0 0.185 0 0 0.19 0 0 0.195 0 0 0.2 0 0 0.205 0 0 0.21 0 0 0.215 0 0 0.22 0 0 0.225 0 0 0.23 0 0 0.235 0 0 0.24 0 0 0.245 0 0 0.25 0 0 0.255 0 0 0.26 0 0 0.265 0 0 0.27 0 0 0.275 0 0 0.28 0 0 0.285 0 0 0.29 0 0 0.295 0 0 0.3 0 0 0.305 0 0 0.31 0 0 0.315 0 0 0.32 0 0 0.325 0 0 0.33 0 0 0.335 0 0 0.34 0 0 0.345 0 0 0.35 0 0 0.355 0 0 0.36 0 0 0.365 0 0 0.37 0 0 0.375 0 0 0.38 0 0 0.385 0 0 0.39 0 0 0.395 0 0 0.4 0 0 0.405 0 0 0.41 0 0 0.415 0 0 0.42 0 0 0.425 0 0 0.43 0 0 0.435 0 0 0.44 0 0 0.445 0 0 0.45 0 0 0.455 0 0 0.46 0 0 0.465 0 0 0.47 0 0 0.475 0 0 0.48 0 0 0.485 0 0 0.49 0 0 0.495 0 0 0.5 0 0 0.505 0 0 0.51 0 0 0.515 0 0 0.52 0 0 0.525 0 0 0.53 0 0 0.535 0 0 0.54 0 0 0.545 0 0 0.55 0 0 0.555 0 0 0.56 0 0 0.565 0 0 0.57 0 0 0.575 0 0 0.58 0 0 0.585 0 0 0.59 0 0 0.595 0 0 0.6 0 0 0.605 0 0 0.61 0 0 0.615 0 0 0.62 0 0 0.625 0 0 0.63 0 0 0.635 0 0 0.64 0 0 0.645 0 0 0.65 0 0 0.655 0 0 0.66 0 0 0.665 0 0 0.67 0 0 0.675 0 0 0.68 0 0 0.685 0 0 0.69 0 0 0.695 0 0 0.7 0 0 0.705 0 0 0.71 0 0 0.715 0 0 0.72 0 0 0.725 0 0 0.73 0 0 0.735 0 0 0.74 0 0 0.745 0 0 0.75 0 0 0.755 0 0 0.76 0 0 0.765 0 0 0.77 0 0 0.775 0 0 0.78 0 0 0.785 0 0 0.79 0 0 0.795 0 0 0.8 0 0 0.805 0 0 0.81 0 0 0.815 0 0 0.82 0 0 0.825 0 0 0.83 0 0 0.835 0 0 0.84 0 0 0.845 0 0 0.85 0 0 0.855 0 0 0.86 0 0 0.865 0 0 0.87 0 0 0.875 0 0 0.88 0 0 0.885 0 0 0.89 0 0 0.895 0 0 0.9 0 0 0.905 0 0 0.91 0 0 0.915 0 0 0.92 0 0 0.925 0 0 0.93 0 0 0.935 0 0 0.94 0 0 0.945 0 0 0.95 0 0 0.955 0 0 0.96 0 0 0.965 0 0 0.97 0 0 0.975 0 0 0.98 0 0 0.985 0 0 0.99 0 0 0.995 0 0 1 0 0 0 0.02 0 0.005 0.02 0 0.01 0.02 0 0.015 0.02 0 0.02 0.02 0 0.025 0.02 0 0.03 0.02 0 0.035 0.02 0 0.04 0.02 0 0.045 0.02 0 0.05 0.02 0 0.055 0.02 0 0.06 0.02 0 0.065 0.02 0 0.07 0.02 0 0.075 0.02 0 0.08 0.02 0 0.085 0.02 0 0.09 0.02 0 0.095 0.02 0 0.1 0.02 0 0.105 0.02 0 0.11 0.02 0 0.115 0.02 0 0.12 0.02 0 0.125 0.02 0 0.13 0.02 0 0.135 0.02 0 0.14 0.02 0 0.145 0.02 0 0.15 0.02 0 0.155 0.02 0 0.16 0.02 0 0.165 0.02 0 0.17 0.02 0 0.175 0.02 0 0.18 0.02 0 0.185 0.02 0 0.19 0.02 0 0.195 0.02 0 0.2 0.02 0 0.205 0.02 0 0.21 0.02 0 0.215 0.02 0 0.22 0.02 0 0.225 0.02 0 0.23 0.02 0 0.235 0.02 0 0.24 0.02 0 0.245 0.02 0 0.25 0.02 0 0.255 0.02 0 0.26 0.02 0 0.265 0.02 0 0.27 0.02 0 0.275 0.02 0 0.28 0.02 0 0.285 0.02 0 0.29 0.02 0 0.295 0.02 0 0.3 0.02 0 0.305 0.02 0 0.31 0.02 0 0.315 0.02 0 0.32 0.02 0 0.325 0.02 0 0.33 0.02 0 0.335 0.02 0 0.34 0.02 0 0.345 0.02 0 0.35 0.02 0 0.355 0.02 0 0.36 0.02 0 0.365 0.02 0 0.37 0.02 0 0.375 0.02 0 0.38 0.02 0 0.385 0.02 0 0.39 0.02 0 0.395 0.02 0 0.4 0.02 0 0.405 0.02 0 0.41 0.02 0 0.415 0.02 0 0.42 0.02 0 0.425 0.02 0 0.43 0.02 0 0.435 0.02 0 0.44 0.02 0 0.445 0.02 0 0.45 0.02 0 0.455 0.02 0 0.46 0.02 0 0.465 0.02 0 0.47 0.02 0 0.475 0.02 0 0.48 0.02 0 0.485 0.02 0 0.49 0.02 0 0.495 0.02 0 0.5 0.02 0 0.505 0.02 0 0.51 0.02 0 0.515 0.02 0 0.52 0.02 0 0.525 0.02 0 0.53 0.02 0 0.535 0.02 0 0.54 0.02 0 0.545 0.02 0 0.55 0.02 0 0.555 0.02 0 0.56 0.02 0 0.565 0.02 0 0.57 0.02 0 0.575 0.02 0 0.58 0.02 0 0.585 0.02 0 0.59 0.02 0 0.595 0.02 0 0.6 0.02 0 0.605 0.02 0 0.61 0.02 0 0.615 0.02 0 0.62 0.02 0 0.625 0.02 0 0.63 0.02 0 0.635 0.02 0 0.64 0.02 0 0.645 0.02 0 0.65 0.02 0 0.655 0.02 0 0.66 0.02 0 0.665 0.02 0 0.67 0.02 0 0.675 0.02 0 0.68 0.02 0 0.685 0.02 0 0.69 0.02 0 0.695 0.02 0 0.7 0.02 0 0.705 0.02 0 0.71 0.02 0 0.715 0.02 0 0.72 0.02 0 0.725 0.02 0 0.73 0.02 0 0.735 0.02 0 0.74 0.02 0 0.745 0.02 0 0.75 0.02 0 0.755 0.02 0 0.76 0.02 0 0.765 0.02 0 0.77 0.02 0 0.775 0.02 0 0.78 0.02 0 0.785 0.02 0 0.79 0.02 0 0.795 0.02 0 0.8 0.02 0 0.805 0.02 0 0.81 0.02 0 0.815 0.02 0 0.82 0.02 0 0.825 0.02 0 0.83 0.02 0 0.835 0.02 0 0.84 0.02 0 0.845 0.02 0 0.85 0.02 0 0.855 0.02 0 0.86 0.02 0 0.865 0.02 0 0.87 0.02 0 0.875 0.02 0 0.88 0.02 0 0.885 0.02 0 0.89 0.02 0 0.895 0.02 0 0.9 0.02 0 0.905 0.02 0 0.91 0.02 0 0.915 0.02 0 0.92 0.02 0 0.925 0.02 0 0.93 0.02 0 0.935 0.02 0 0.94 0.02 0 0.945 0.02 0 0.95 0.02 0 0.955 0.02 0 0.96 0.02 0 0.965 0.02 0 0.97 0.02 0 0.975 0.02 0 0.98 0.02 0 0.985 0.02 0 0.99 0.02 0 0.995 0.02 0 1 0.02 0 0 0.04 0 0.005 0.04 0 0.01 0.04 0 0.015 0.04 0 0.02 0.04 0 0.025 0.04 0 0.03 0.04 0 0.035 0.04 0 0.04 0.04 0 0.045 0.04 0 0.05 0.04 0 0.055 0.04 0 0.06 0.04 0 0.065 0.04 0 0.07 0.04 0 0.075 0.04 0 0.08 0.04 0 0.085 0.04 0 0.09 0.04 0 0.095 0.04 0 0.1 0.04 0 0.105 0.04 0 0.11 0.04 0 0.115 0.04 0 0.12 0.04 0 0.125 0.04 0 0.13 0.04 0 0.135 0.04 0 0.14 0.04 0 0.145 0.04 0 0.15 0.04 0 0.155 0.04 0 0.16 0.04 0 0.165 0.04 0 0.17 0.04 0 0.175 0.04 0 0.18 0.04 0 0.185 0.04 0 0.19 0.04 0 0.195 0.04 0 0.2 0.04 0 0.205 0.04 0 0.21 0.04 0 0.215 0.04 0 0.22 0.04 0 0.225 0.04 0 0.23 0.04 0 0.235 0.04 0 0.24 0.04 0 0.245 0.04 0 0.25 0.04 0 0.255 0.04 0 0.26 0.04 0 0.265 0.04 0 0.27 0.04 0 0.275 0.04 0 0.28 0.04 0 0.285 0.04 0 0.29 0.04 0 0.295 0.04 0 0.3 0.04 0 0.305 0.04 0 0.31 0.04 0 0.315 0.04 0 0.32 0.04 0 0.325 0.04 0 0.33 0.04 0 0.335 0.04 0 0.34 0.04 0 0.345 0.04 0 0.35 0.04 0 0.355 0.04 0 0.36 0.04 0 0.365 0.04 0 0.37 0.04 0 0.375 0.04 0 0.38 0.04 0 0.385 0.04 0 0.39 0.04 0 0.395 0.04 0 0.4 0.04 0 0.405 0.04 0 0.41 0.04 0 0.415 0.04 0 0.42 0.04 0 0.425 0.04 0 0.43 0.04 0 0.435 0.04 0 0.44 0.04 0 0.445 0.04 0 0.45 0.04 0 0.455 0.04 0 0.46 0.04 0 0.465 0.04 0 0.47 0.04 0 0.475 0.04 0 0.48 0.04 0 0.485 0.04 0 0.49 0.04 0 0.495 0.04 0 0.5 0.04 0 0.505 0.04 0 0.51 0.04 0 0.515 0.04 0 0.52 0.04 0 0.525 0.04 0 0.53 0.04 0 0.535 0.04 0 0.54 0.04 0 0.545 0.04 0 0.55 0.04 0 0.555 0.04 0 0.56 0.04 0 0.565 0.04 0 0.57 0.04 0 0.575 0.04 0 0.58 0.04 0 0.585 0.04 0 0.59 0.04 0 0.595 0.04 0 0.6 0.04 0 0.605 0.04 0 0.61 0.04 0 0.615 0.04 0 0.62 0.04 0 0.625 0.04 0 0.63 0.04 0 0.635 0.04 0 0.64 0.04 0 0.645 0.04 0 0.65 0.04 0 0.655 0.04 0 0.66 0.04 0 0.665 0.04 0 0.67 0.04 0 0.675 0.04 0 0.68 0.04 0 0.685 0.04 0 0.69 0.04 0 0.695 0.04 0 0.7 0.04 0 0.705 0.04 0 0.71 0.04 0 0.715 0.04 0 0.72 0.04 0 0.725 0.04 0 0.73 0.04 0 0.735 0.04 0 0.74 0.04 0 0.745 0.04 0 0.75 0.04 0 0.755 0.04 0 0.76 0.04 0 0.765 0.04 0 0.77 0.04 0 0.775 0.04 0 0.78 0.04 0 0.785 0.04 0 0.79 0.04 0 0.795 0.04 0 0.8 0.04 0 0.805 0.04 0 0.81 0.04 0 0.815 0.04 0 0.82 0.04 0 0.825 0.04 0 0.83 0.04 0 0.835 0.04 0 0.84 0.04 0 0.845 0.04 0 0.85 0.04 0 0.855 0.04 0 0.86 0.04 0 0.865 0.04 0 0.87 0.04 0 0.875 0.04 0 0.88 0.04 0 0.885 0.04 0 0.89 0.04 0 0.895 0.04 0 0.9 0.04 0 0.905 0.04 0 0.91 0.04 0 0.915 0.04 0 0.92 0.04 0 0.925 0.04 0 0.93 0.04 0 0.935 0.04 0 0.94 0.04 0 0.945 0.04 0 0.95 0.04 0 0.955 0.04 0 0.96 0.04 0 0.965 0.04 0 0.97 0.04 0 0.975 0.04 0 0.98 0.04 0 0.985 0.04 0 0.99 0.04 0 0.995 0.04 0 1 0.04 0 0 0.06 0 0.005 0.06 0 0.01 0.06 0 0.015 0.06 0 0.02 0.06 0 0.025 0.06 0 0.03 0.06 0 0.035 0.06 0 0.04 0.06 0 0.045 0.06 0 0.05 0.06 0 0.055 0.06 0 0.06 0.06 0 0.065 0.06 0 0.07 0.06 0 0.075 0.06 0 0.08 0.06 0 0.085 0.06 0 0.09 0.06 0 0.095 0.06 0 0.1 0.06 0 0.105 0.06 0 0.11 0.06 0 0.115 0.06 0 0.12 0.06 0 0.125 0.06 0 0.13 0.06 0 0.135 0.06 0 0.14 0.06 0 0.145 0.06 0 0.15 0.06 0 0.155 0.06 0 0.16 0.06 0 0.165 0.06 0 0.17 0.06 0 0.175 0.06 0 0.18 0.06 0 0.185 0.06 0 0.19 0.06 0 0.195 0.06 0 0.2 0.06 0 0.205 0.06 0 0.21 0.06 0 0.215 0.06 0 0.22 0.06 0 0.225 0.06 0 0.23 0.06 0 0.235 0.06 0 0.24 0.06 0 0.245 0.06 0 0.25 0.06 0 0.255 0.06 0 0.26 0.06 0 0.265 0.06 0 0.27 0.06 0 0.275 0.06 0 0.28 0.06 0 0.285 0.06 0 0.29 0.06 0 0.295 0.06 0 0.3 0.06 0 0.305 0.06 0 0.31 0.06 0 0.315 0.06 0 0.32 0.06 0 0.325 0.06 0 0.33 0.06 0 0.335 0.06 0 0.34 0.06 0 0.345 0.06 0 0.35 0.06 0 0.355 0.06 0 0.36 0.06 0 0.365 0.06 0 0.37 0.06 0 0.375 0.06 0 0.38 0.06 0 0.385 0.06 0 0.39 0.06 0 0.395 0.06 0 0.4 0.06 0 0.405 0.06 0 0.41 0.06 0 0.415 0.06 0 0.42 0.06 0 0.425 0.06 0 0.43 0.06 0 0.435 0.06 0 0.44 0.06 0 0.445 0.06 0 0.45 0.06 0 0.455 0.06 0 0.46 0.06 0 0.465 0.06 0 0.47 0.06 0 0.475 0.06 0 0.48 0.06 0 0.485 0.06 0 0.49 0.06 0 0.495 0.06 0 0.5 0.06 0 0.505 0.06 0 0.51 0.06 0 0.515 0.06 0 0.52 0.06 0 0.525 0.06 0 0.53 0.06 0 0.535 0.06 0 0.54 0.06 0 0.545 0.06 0 0.55 0.06 0 0.555 0.06 0 0.56 0.06 0 0.565 0.06 0 0.57 0.06 0 0.575 0.06 0 0.58 0.06 0 0.585 0.06 0 0.59 0.06 0 0.595 0.06 0 0.6 0.06 0 0.605 0.06 0 0.61 0.06 0 0.615 0.06 0 0.62 0.06 0 0.625 0.06 0 0.63 0.06 0 0.635 0.06 0 0.64 0.06 0 0.645 0.06 0 0.65 0.06 0 0.655 0.06 0 0.66 0.06 0 0.665 0.06 0 0.67 0.06 0 0.675 0.06 0 0.68 0.06 0 0.685 0.06 0 0.69 0.06 0 0.695 0.06 0 0.7 0.06 0 0.705 0.06 0 0.71 0.06 0 0.715 0.06 0 0.72 0.06 0 0.725 0.06 0 0.73 0.06 0 0.735 0.06 0 0.74 0.06 0 0.745 0.06 0 0.75 0.06 0 0.755 0.06 0 0.76 0.06 0 0.765 0.06 0 0.77 0.06 0 0.775 0.06 0 0.78 0.06 0 0.785 0.06 0 0.79 0.06 0 0.795 0.06 0 0.8 0.06 0 0.805 0.06 0 0.81 0.06 0 0.815 0.06 0 0.82 0.06 0 0.825 0.06 0 0.83 0.06 0 0.835 0.06 0 0.84 0.06 0 0.845 0.06 0 0.85 0.06 0 0.855 0.06 0 0.86 0.06 0 0.865 0.06 0 0.87 0.06 0 0.875 0.06 0 0.88 0.06 0 0.885 0.06 0 0.89 0.06 0 0.895 0.06 0 0.9 0.06 0 0.905 0.06 0 0.91 0.06 0 0.915 0.06 0 0.92 0.06 0 0.925 0.06 0 0.93 0.06 0 0.935 0.06 0 0.94 0.06 0 0.945 0.06 0 0.95 0.06 0 0.955 0.06 0 0.96 0.06 0 0.965 0.06 0 0.97 0.06 0 0.975 0.06 0 0.98 0.06 0 0.985 0.06 0 0.99 0.06 0 0.995 0.06 0 1 0.06 0 0 0.08 0 0.005 0.08 0 0.01 0.08 0 0.015 0.08 0 0.02 0.08 0 0.025 0.08 0 0.03 0.08 0 0.035 0.08 0 0.04 0.08 0 0.045 0.08 0 0.05 0.08 0 0.055 0.08 0 0.06 0.08 0 0.065 0.08 0 0.07 0.08 0 0.075 0.08 0 0.08 0.08 0 0.085 0.08 0 0.09 0.08 0 0.095 0.08 0 0.1 0.08 0 0.105 0.08 0 0.11 0.08 0 0.115 0.08 0 0.12 0.08 0 0.125 0.08 0 0.13 0.08 0 0.135 0.08 0 0.14 0.08 0 0.145 0.08 0 0.15 0.08 0 0.155 0.08 0 0.16 0.08 0 0.165 0.08 0
[...]
			<PointData Scalars="VitesseX">
				<DataArray Name="VitesseX" type="Float32" format="ascii">
 0 -2.07155e-14 -2.04935e-14 -3.77991e-14 -1.7093e-14 -5.16322e-14 -5.23246e-14 -6.42989e-14 -5.8228e-14 -9.42595e-14 -8.09236e-14 -6.56114e-14 -2.54674e-14 -5.83282e-14 -2.20617e-14 2.93344e-14 3.75995e-15 -1.42145e-14 8.383e-14 5.46543e-14 -2.08393e-15 5.86994e-14 -7.38539e-14 2.48584e-14 -1.18598e-13 -1.13011e-13 -1.78236e-15 -1.05137e-13 8.96255e-14 -1.49041e-13 1.85051e-13 -8.56768e-14 2.7306e-14 6.71382e-14 1.11103e-13 7.09756e-13 3.75628e-12 2.24717e-11 1.23561e-10 6.56393e-10 3.31748e-09 1.59437e-08 7.26784e-08 3.13532e-07 1.27663e-06 4.89165e-06 1.7577e-05 5.89909e-05 0.000184038 0.000530716 0.00140532 0.00339164 0.0074036 0.0145259 0.0255524 0.0404613 0.0583442 0.0779495 0.0983074 0.118918 0.139592 0.160266 0.180915 0.201528 0.222098 0.242621 0.263095 0.283518 0.303887 0.3242 0.344455 0.364649 0.38478 0.404844 0.424838 0.444756 0.464593 0.484343 0.503999 0.523552 0.542994 0.562312 0.581495 0.600527 0.619392 0.63807 0.656538 0.674773 0.692744 0.710418 0.727758 0.74472 0.761259 0.77732 0.792845 0.807771 0.82203 0.835553 0.848267 0.860105 0.871001 0.880902 0.889766 0.897571 0.904319 0.910032 0.914761 0.91858 0.921579 0.923865 0.92555 0.926744 0.927552 0.928067 0.928368 0.928517 0.928565 0.928556 0.92852 0.928466 0.928399 0.928324 0.928244 0.928163 0.928083 0.928004 0.927929 0.927856 0.927787 0.927722 0.927659 0.9276 0.927543 0.927489 0.927436 0.927386 0.927336 0.927288 0.92724 0.927193 0.927147 0.9271 0.927054 0.927007 0.92696 0.926911 0.926861 0.926809 0.926752 0.926688 0.926611 0.926514 0.926381 0.926187 0.92589 0.925422 0.924671 0.923452 0.921474 0.918272 0.913122 0.90492 0.89204 0.87219 0.842361 0.798986 0.738488 0.658359 0.55874 0.444139 0.324299 0.212837 0.123001 0.0619952 0.0276686 0.0113606 0.00446064 0.00171586 0.000654084 0.000248249 9.39734e-05 3.54998e-05 1.33841e-05 5.03555e-06 1.89027e-06 7.07818e-07 2.64325e-07 9.84149e-08 3.65239e-08 1.35071e-08 4.97592e-09 1.82597e-09 6.66764e-10 2.42162e-10 8.735e-11 3.18895e-11 1.06979e-11 3.65987e-12 2.09702e-12 -2.20303e-13 0 0 -5.10426e-15 -2.50739e-14 -1.20445e-14 -5.43637e-14 -4.86504e-14 -4.50716e-14 -5.82417e-14 -7.14096e-14 -4.5501e-14 -9.09272e-14 -6.86546e-14 -4.28448e-14 -2.28109e-14 -4.17268e-14 -2.41188e-14 3.31219e-14 7.03677e-14 2.88851e-14 1.52455e-16 3.23344e-14 -3.4837e-14 1.68043e-14 -1.29802e-13 4.07373e-14 3.41821e-16 -1.59373e-13 5.12423e-14 -1.59309e-13 1.15485e-13 -1.59741e-13 1.52104e-13 -1.77309e-14 6.3959e-14 1.45557e-13 6.80489e-13 3.92237e-12 2.21411e-11 1.23763e-10 6.56285e-10 3.3178e-09 1.59434e-08 7.26784e-08 3.13532e-07 1.27663e-06 4.89165e-06 1.7577e-05 5.89909e-05 0.000184038 0.000530716 0.00140532 0.00339164 0.0074036 0.0145259 0.0255524 0.0404613 0.0583442 0.0779495 0.0983074 0.118918 0.139592 0.160266 0.180915 0.201528 0.222098 0.242621 0.263095 0.283518 0.303887 0.3242 0.344455 0.364649 0.38478 0.404844 0.424838 0.444756 0.464593 0.484343 0.503999 0.523552 0.542994 0.562312 0.581495 0.600527 0.619392 0.63807 0.656538 0.674773 0.692744 0.710418 0.727758 0.74472 0.761259 0.77732 0.792845 0.807771 0.82203 0.835553 0.848267 0.860105 0.871001 0.880902 0.889766 0.897571 0.904319 0.910032 0.914761 0.91858 0.921579 0.923865 0.92555 0.926744 0.927552 0.928067 0.928368 0.928517 0.928565 0.928556 0.92852 0.928466 0.928399 0.928324 0.928244 0.928163 0.928083 0.928004 0.927929 0.927856 0.927787 0.927722 0.927659 0.9276 0.927543 0.927489 0.927436 0.927386 0.927336 0.927288 0.92724 0.927193 0.927147 0.9271 0.927054 0.927007 0.92696 0.926911 0.926861 0.926809 0.926752 0.926688 0.926611 0.926514 0.926381 0.926187 0.92589 0.925422 0.924671 0.923452 0.921474 0.918272 0.913122 0.90492 0.89204 0.87219 0.842361 0.798986 0.738488 0.658359 0.55874 0.444139 0.324299 0.212837 0.123001 0.0619952 0.0276686 0.0113606 0.00446064 0.00171586 0.000654084 0.000248249 9.39734e-05 3.54998e-05 1.33841e-05 5.03555e-06 1.89027e-06 7.07818e-07 2.64325e-07 9.84149e-08 3.65237e-08 1.35071e-08 4.97629e-09 1.82558e-09 6.66857e-10 2.42265e-10 8.77535e-11 3.09702e-11 1.14562e-11 3.7121e-12 5.62355e-13 6.65632e-13 0 0 -4.45262e-15 -1.17671e-14 -3.72595e-14 -3.45319e-14 -3.78803e-14 -5.39889e-14 -4.97355e-14 -3.56348e-14 -4.82096e-14 -3.05166e-14 -8.34967e-14 -7.70244e-14 3.7648e-15 -4.13876e-14 -1.1886e-14 2.58174e-14 1.18613e-14 5.03047e-14 -4.88354e-14 -2.54669e-14 -5.36493e-15 -8.80709e-14 2.75896e-14 -3.1013e-14 -3.02987e-14 -3.1106e-15 -9.75761e-14 1.74289e-14 -7.54002e-14 5.77491e-14 -5.19473e-14 6.53662e-14 5.40845e-15 1.43141e-13 7.02869e-13 3.95694e-12 2.2232e-11 1.23657e-10 6.56359e-10 3.31759e-09 1.59435e-08 7.26785e-08 3.13532e-07 1.27663e-06 4.89165e-06 1.7577e-05 5.89909e-05 0.000184038 0.000530716 0.00140532 0.00339164 0.0074036 0.0145259 0.0255524 0.0404613 0.0583442 0.0779495 0.0983074 0.118918 0.139592 0.160266 0.180915 0.201528 0.222098 0.242621 0.263095 0.283518 0.303887 0.3242 0.344455 0.364649 0.38478 0.404844 0.424838 0.444756 0.464593 0.484343 0.503999 0.523552 0.542994 0.562312 0.581495 0.600527 0.619392 0.63807 0.656538 0.674773 0.692744 0.710418 0.727758 0.74472 0.761259 0.77732 0.792845 0.807771 0.82203 0.835553 0.848267 0.860105 0.871001 0.880902 0.889766 0.897571 0.904319 0.910032 0.914761 0.91858 0.921579 0.923865 0.92555 0.926744 0.927552 0.928067 0.928368 0.928517 0.928565 0.928556 0.92852 0.928466 0.928399 0.928324 0.928244 0.928163 0.928083 0.928004 0.927929 0.927856 0.927787 0.927722 0.927659 0.9276 0.927543 0.927489 0.927436 0.927386 0.927336 0.927288 0.92724 0.927193 0.927147 0.9271 0.927054 0.927007 0.92696 0.926911 0.926861 0.926809 0.926752 0.926688 0.926611 0.926514 0.926381 0.926187 0.92589 0.925422 0.924671 0.923452 0.921474 0.918272 0.913122 0.90492 0.89204 0.87219 0.842361 0.798986 0.738488 0.658359 0.55874 0.444139 0.324299 0.212837 0.123001 0.0619952 0.0276686 0.0113606 0.00446064 0.00171586 0.000654084 0.000248249 9.39734e-05 3.54998e-05 1.33841e-05 5.03555e-06 1.89027e-06 7.07818e-07 2.64325e-07 9.84151e-08 3.65235e-08 1.35072e-08 4.97607e-09 1.82587e-09 6.66954e-10 2.424e-10 8.74386e-11 3.12126e-11 1.08441e-11 3.92614e-12 1.18734e-12 6.82901e-13 0 0 -9.93355e-15 -1.38968e-14 -1.16855e-14 -2.15967e-14 -3.70396e-14 -2.68697e-14 -4.67816e-14 -4.50077e-14 -5.35678e-14 -6.70135e-14 5.49079e-15 -3.12584e-14 -5.04909e-14 1.09219e-14 1.82673e-14 -5.31388e-14 -1.09511e-14 -1.7695e-15 2.57072e-14 -2.93481e-14 -7.09119e-14 -3.14044e-14 -2.20371e-14 -6.04384e-14 -3.09716e-14 -8.54392e-14 1.27612e-14 2.49632e-14 -3.51795e-14 5.99865e-14 -5.91479e-14 -3.44871e-14 -8.939e-15 2.3621e-13 7.54899e-13 3.84194e-12 2.23615e-11 1.23482e-10 6.5632e-10 3.31759e-09 1.59435e-08 7.26784e-08 3.13532e-07 1.27663e-06 4.89165e-06 1.7577e-05 5.89909e-05 0.000184038 0.000530716 0.00140532 0.00339164 0.0074036 0.0145259 0.0255524 0.0404613 0.0583442 0.0779495 0.0983074 0.118918 0.139592 0.160266 0.180915 0.201528 0.222098 0.242621 0.263095 0.283518 0.303887 0.3242 0.344455 0.364649 0.38478 0.404844 0.424838 0.444756 0.464593 0.484343 0.503999 0.523552 0.542994 0.562312 0.581495 0.600527 0.619392 0.63807 0.656538 0.674773 0.692744 0.710418 0.727758 0.74472 0.761259 0.77732 0.792845 0.807771 0.82203 0.835553 0.848267 0.860105 0.871001 0.880902 0.889766 0.897571 0.904319 0.910032 0.914761 0.91858 0.921579 0.923865 0.92555 0.926744 0.927552 0.928067 0.928368 0.928517 0.928565 0.928556 0.92852 0.928466 0.928399 0.928324 0.928244 0.928163 0.928083 0.928004 0.927929 0.927856 0.927787 0.927722 0.927659 0.9276 0.927543 0.927489 0.927436 0.927386 0.927336 0.927288 0.92724 0.927193 0.927147 0.9271 0.927054 0.927007 0.92696 0.926911 0.926861 0.926809 0.926752 0.926688 0.926611 0.926514 0.926381 0.926187 0.92589 0.925422 0.924671 0.923452 0.921474 0.918272 0.913122 0.90492 0.89204 0.87219 0.842361 0.798986 0.738488 0.658359 0.55874 0.444139 0.324299 0.212837 0.123001 0.0619952 0.0276686 0.0113606 0.00446064 0.00171586 0.000654084 0.000248249 9.39734e-05 3.54998e-05 1.33841e-05 5.03555e-06 1.89027e-06 7.07818e-07 2.64325e-07 9.84149e-08 3.65238e-08 1.35074e-08 4.97607e-09 1.8259e-09 6.66656e-10 2.42361e-10 8.76555e-11 3.16999e-11 1.11458e-11 4.11387e-12 1.17539e-12 -3.03519e-13 0 0 -6.42204e-15 -1.22991e-14 1.57256e-14 -3.92784e-14 -3.31974e-14 -3.03071e-15 -3.11493e-14 -4.9451e-14 -3.12987e-14 -7.54169e-14 -2.13835e-14 -2.78228e-14 -2.964e-14 7.92733e-15 -1.85996e-15 -4.13965e-14 3.6554e-14 -1.94081e-14 -1.89133e-14 -1.56949e-14 -1.11561e-13 3.85956e-14 -1.95877e-13 2.10057e-14 1.0139e-14 -1.66617e-13 9.70149e-14 -1.67134e-13 1.74397e-13 -1.98662e-13 7.47157e-14 -4.8198e-14 1.00746e-13 2.58882e-13 7.33204e-13 3.94732e-12 2.21681e-11 1.23618e-10 6.5619e-10 3.31791e-09 1.59434e-08 7.26784e-08 3.13532e-07 1.27663e-06 4.89165e-06 1.7577e-05 5.89909e-05 0.000184038 0.000530716 0.00140532 0.00339164 0.0074036 0.0145259 0.0255524 0.0404613 0.0583442 0.0779495 0.0983074 0.118918 0.139592 0.160266 0.180915 0.201528 0.222098 0.242621 0.263095 0.283518 0.303887 0.3242 0.344455 0.364649 0.38478 0.404844 0.424838 0.444756 0.464593 0.484343 0.503999 0.523552 0.542994 0.562312 0.581495 0.600527 0.619392 0.63807 0.656538 0.674773 0.692744 0.710418 0.727758 0.74472 0.761259 0.77732 0.792845 0.807771 0.82203 0.835553 0.848267 0.860105 0.871001 0.880902 0.889766 0.897571 0.904319 0.910032 0.914761 0.91858 0.921579 0.923865 0.92555 0.926744 0.927552 0.928067 0.928368 0.928517 0.928565 0.928556 0.92852 0.928466 0.928399 0.928324 0.928244 0.928163 0.928083 0.928004 0.927929 0.927856 0.927787 0.927722 0.927659 0.9276 0.927543 0.927489 0.927436 0.927386 0.927336 0.927288 0.92724 0.927193 0.927147 0.9271 0.927054 0.927007 0.92696 0.926911 0.926861 0.926809 0.926752 0.926688 0.926611 0.926514 0.926381 0.926187 0.92589 0.925422 0.924671 0.923452 0.921474 0.918272 0.913122 0.90492 0.89204 0.87219 0.842361 0.798986 0.738488 0.658359 0.55874 0.444139 0.324299 0.212837 0.123001 0.0619952 0.0276686 0.0113606 0.00446064 0.00171586 0.000654084 0.000248249 9.39734e-05 3.54998e-05 1.33841e-05 5.03555e-06 1.89027e-06 7.07819e-07 2.64325e-07 9.84148e-08 3.65239e-08 1.35073e-08 4.9762e-09 1.82543e-09 6.66987e-10 2.42769e-10 8.78385e-11 3.14565e-11 1.18437e-11 4.04273e-12 6.98559e-14 -1.96997e-14 0 0 -1.23892e-14 9.31526e-15 -3.34067e-14 -1.27931e-14 -2.24075e-14 -2.24814e-14 -1.60216e-14 4.4351e-15 -5.51385e-14 2.30908e-14 -1.49044e-13 -8.69553e-14 3.65249e-14 -2.73724e-14 1.35456e-14 1.26356e-14 -3.6217e-14 9.13919e-14 -1.32562e-13 -9.038e-14 3.63457e-14 -1.43604e-13 -8.03848e-15 -9.92109e-14 -9.20706e-14 1.48387e-13 -2.34266e-13 5.89073e-14 -1.1166e-13 1.02734e-13 -2.26052e-13 1.66078e-13 1.69407e-13 1.51615e-13 7.11126e-13 4.03619e-12 2.22667e-11 1.23623e-10 6.56281e-10 3.31769e-09 1.59436e-08 7.26787e-08 3.13532e-07 1.27663e-06 4.89165e-06 1.7577e-05 5.89909e-05 0.000184038 0.000530716 0.00140532 0.00339164 0.0074036 0.0145259 0.0255524 0.0404613 0.0583442 0.0779495 0.0983074 0.118918 0.139592 0.160266 0.180915 0.201528 0.222098 0.242621 0.263095 0.283518 0.303887 0.3242 0.344455 0.364649 0.38478 0.404844 0.424838 0.444756 0.464593 0.484343 0.503999 0.523552 0.542994 0.562312 0.581495 0.600527 0.619392 0.63807 0.656538 0.674773 0.692744 0.710418 0.727758 0.74472 0.761259 0.77732 0.792845 0.807771 0.82203 0.835553 0.848267 0.860105 0.871001 0.880902 0.889766 0.897571 0.904319 0.910032 0.914761 0.91858 0.921579 0.923865 0.92555 0.926744 0.927552 0.928067 0.928368 0.928517 0.928565 0.928556 0.92852 0.928466 0.928399 0.928324 0.928244 0.928163 0.928083 0.928004 0.927929 0.927856 0.927787 0.927722 0.927659 0.9276 0.927543 0.927489 0.927436 0.927386 0.927336 0.927288 0.92724 0.927193 0.927147 0.9271 0.927054 0.927007 0.92696 0.926911 0.926861 0.926809 0.926752 0.926688 0.926611 0.926514 0.926381 0.926187 0.92589 0.925422 0.924671 0.923452 0.921474 0.918272 0.913122 0.90492 0.89204 0.87219 0.842361 0.798986 0.738488 0.658359 0.55874 0.444139 0.324299 0.212837 0.123001 0.0619952 0.0276686 0.0113606 0.00446064 0.00171586 0.000654084 0.000248249 9.39734e-05 3.54998e-05 1.33841e-05 5.03554e-06 1.89027e-06 7.07819e-07 2.64325e-07 9.84152e-08 3.65237e-08 1.35071e-08 4.97574e-09 1.8256e-09 6.67618e-10 2.4325e-10 8.7086e-11 3.18876e-11 1.08694e-11 3.94568e-12 1.13592e-12 3.81874e-13 0
				</DataArray>
				<DataArray Name="VitesseY" type="Float32" format="ascii">