<?xml version="1.0"?>
<VTKFile type="PolyData">
	<PolyData>
		<Piece NumberOfPoints="1206" NumberOfPolys="1000">
			<Points>
				<DataArray type="Float32" NumberOfComponents="3" format="ascii">
 0 0 0 0.005 0 0 0.01 0 0 0.015 0 0 0.02 0 0 0.025 0 0 0.03 0 0 0.035 0 0 0.04 0 0 0.045 0 0 0.05 0 0 0.055 0 0 0.06 0 0 0.065 0 0 0.07 0 0 0.075 0 0 0.08 0 0 0.085 0 0 0.09 0 0 0.095 0 0 0.1 0 0 0.105 0 0 0.11 0 0 0.115 0 0 0.12 0 0 0.125 0 0 0.13 0 0 0.135 0 0 0.14 0 0 0.145 0 0 0.15 0 0 0.155 0 0 0.16 0 0 0.165 0 0 0.17 0 0 0.175 0 0 0.18 0 0 0.185 0 0 0.19 0 0 0.195 0 0 0.2 0 0 0.205 0 0 0.21 0 0 0.215 0 0 0.22 0 0 0.225 0 0 0.23 0 0 0.235 0 0 0.24 0 0 0.245 0 0 0.25 0 0 0.255 0 0 0.26 0 0 0.265 0 0 0.27 0 0 0.275 0 0 0.28 0 0 0.285 0 0 0.29 0 0 0.295 0 0 0.3 0 0 0.305 0 0 0.31 0 0 0.315 0 0 0.32 0 0 0.325 0 0 0.33 0 0 0.335 0 0 0.34 0 0 0.345 0 0 0.35 0 0 0.355 0 0 0.36 0 0 0.365 0 0 0.37 0 0 0.375 0 0 0.38 0 0 0.385 0 0 0.39 0 0 0.395 0 0 0.4 0 0 0.405 0 0 0.41 0 0 0.415 0 0 0.42 0 0 0.425 0 0 0.43 0 0 0.435 0 0 0.44 0 0 0.445 0 0 0.45 0 0 0.455 0 0 0.46 0 0 0.465 0 0 0.47 0 0 0.475 0 0 0.48 0 0 0.485 0 0 0.49 0 0 0.495 0 0 0.5 0 0 0.505 0 0 0.51 0 0 0.515 0 0 0.52 0 0 0.525 0 0 0.53 0 0 0.535 0 0 0.54 0 0 0.545 0 0 0.55 0 0 0.555 0 0 0.56 0 0 0.565 0 0 0.57 0 0 0.575 0 0 0.58 0 0 0.585 0 0 0.59 0 0 0.595 0 0 0.6 0 0 0.605 0 0 0.61 0 0 0.615 0 0 0.62 0 0 0.625 0 0 0.63 0 0 0.635 0 0 0.64 0 0 0.645 0 0 0.65 0 0 0.655 0 0 0.66 0 0 0.665 0 0 0.67 0 0 0.675 0 0 0.68 0 0 0.685 0 0 0.69 0 0 0.695 0 0 0.7 0 0 0.705 0 0 0.71 0 0 0.715 0 0 0.72 0 0 0.725 0 0 0.73 0 0 0.735 0 0 0.74 0 0 0.745 0 0 0.75 0 0 0.755 0 0 0.76 0 0 0.765 0 0 0.77 0 0 0.775 0 0 0.78 0 0 0.785 0 0 0.79 0 0 0.795 0 0 0.8 0 0 0.805 0 0 0.81 0 0 0.815 0 0 0.82 0 0 0.825 0 0 0.83 0 0 0.835 0 0 0.84 0 0 0.845 0 0 0.85 0 0 0.855 0 0 0.86 0 0 0.865 0 0 0.87 0 0 0.875 0 0 0.88 0 0 0.885 0 0 0.89 0 0 0.895 0 0 0.9 0 0 0.905 0 0 0.91 0 0 0.915 0 0 0.92 0 0 0.925 0 0 0.93 0 0 0.935 0 0 0.94 0 0 0.945 0 0 0.95 0 0 0.955 0 0 0.96 0 0 0.965 0 0 0.97 0 0 0.975 0 0 0.98 0 0 0.985 0 0 0.99 0 0 0.995 0 0 1 0 0 0 0.02 0 0.005 0.02 0 0.01 0.02 0 0.015 0.02 0 0.02 0.02 0 0.025 0.02 0 0.03 0.02 0 0.035 0.02 0 0.04 0.02 0 0.045 0.02 0 0.05 0.02 0 0.055 0.02 0 0.06 0.02 0 0.065 0.02 0 0.07 0.02 0 0.075 0.02 0 0.08 0.02 0 0.085 0.02 0 0.09 0.02 0 0.095 0.02 0 0.1 0.02 0 0.105 0.02 0 0.11 0.02 0 0.115 0.02 0 0.12 0.02 0 0.125 0.02 0 0.13 0.02 0 0.135 0.02 0 0.14 0.02 0 0.145 0.02 0 0.15 0.02 0 0.155 0.02 0 0.16 0.02 0 0.165 0.02 0 0.17 0.02 0 0.175 0.02 0 0.18 0.02 0 0.185 0.02 0 0.19 0.02 0 0.195 0.02 0 0.2 0.02 0 0.205 0.02 0 0.21 0.02 0 0.215 0.02 0 0.22 0.02 0 0.225 0.02 0 0.23 0.02 0 0.235 0.02 0 0.24 0.02 0 0.245 0.02 0 0.25 0.02 0 0.255 0.02 0 0.26 0.02 0 0.265 0.02 0 0.27 0.02 0 0.275 0.02 0 0.28 0.02 0 0.285 0.02 0 0.29 0.02 0 0.295 0.02 0 0.3 0.02 0 0.305 0.02 0 0.31 0.02 0 0.315 0.02 0 0.32 0.02 0 0.325 0.02 0 0.33 0.02 0 0.335 0.02 0 0.34 0.02 0 0.345 0.02 0 0.35 0.02 0 0.355 0.02 0 0.36 0.02 0 0.365 0.02 0 0.37 0.02 0 0.375 0.02 0 0.38 0.02 0 0.385 0.02 0 0.39 0.02 0 0.395 0.02 0 0.4 0.02 0 0.405 0.02 0 0.41 0.02 0 0.415 0.02 0 0.42 0.02 0 0.425 0.02 0 0.43 0.02 0 0.435 0.02 0 0.44 0.02 0 0.445 0.02 0 0.45 0.02 0 0.455 0.02 0 0.46 0.02 0 0.465 0.02 0 0.47 0.02 0 0.475 0.02 0 0.48 0.02 0 0.485 0.02 0 0.49 0.02 0 0.495 0.02 0 0.5 0.02 0 0.505 0.02 0 0.51 0.02 0 0.515 0.02 0 0.52 0.02 0 0.525 0.02 0 0.53 0.02 0 0.535 0.02 0 0.54 0.02 0 0.545 0.02 0 0.55 0.02 0 0.555 0.02 0 0.56 0.02 0 0.565 0.02 0 0.57 0.02 0 0.575 0.02 0 0.58 0.02 0 0.585 0.02 0 0.59 0.02 0 0.595 0.02 0 0.6 0.02 0 0.605 0.02 0 0.61 0.02 0 0.615 0.02 0 0.62 0.02 0 0.625 0.02 0 0.63 0.02 0 0.635 0.02 0 0.64 0.02 0 0.645 0.02 0 0.65 0.02 0 0.655 0.02 0 0.66 0.02 0 0.665 0.02 0 0.67 0.02 0 0.675 0.02 0 0.68 0.02 0 0.685 0.02 0 0.69 0.02 0 0.695 0.02 0 0.7 0.02 0 0.705 0.02 0 0.71 0.02 0 0.715 0.02 0 0.72 0.02 0 0.725 0.02 0 0.73 0.02 0 0.735 0.02 0 0.74 0.02 0 0.745 0.02 0 0.75 0.02 0 0.755 0.02 0 0.76 0.02 0 0.765 0.02 0 0.77 0.02 0 0.775 0.02 0 0.78 0.02 0 0.785 0.02 0 0.79 0.02 0 0.795 0.02 0 0.8 0.02 0 0.805 0.02 0 0.81 0.02 0 0.815 0.02 0 0.82 0.02 0 0.825 0.02 0 0.83 0.02 0 0.835 0.02 0 0.84 0.02 0 0.845 0.02 0 0.85 0.02 0 0.855 0.02 0 0.86 0.02 0 0.865 0.02 0 0.87 0.02 0 0.875 0.02 0 0.88 0.02 0 0.885 0.02 0 0.89 0.02 0 0.895 0.02 0 0.9 0.02 0 0.905 0.02 0 0.91 0.02 0 0.915 0.02 0 0.92 0.02 0 0.925 0.02 0 0.93 0.02 0 0.935 0.02 0 0.94 0.02 0 0.945 0.02 0 0.95 0.02 0 0.955 0.02 0 0.96 0.02 0 0.965 0.02 0 0.97 0.02 0 0.975 0.02 0 0.98 0.02 0 0.985 0.02 0 0.99 0.02 0 0.995 0.02 0 1 0.02 0 0 0.04 0 0.005 0.04 0 0.01 0.04 0 0.015 0.04 0 0.02 0.04 0 0.025 0.04 0 0.03 0.04 0 0.035 0.04 0 0.04 0.04 0 0.045 0.04 0 0.05 0.04 0 0.055 0.04 0 0.06 0.04 0 0.065 0.04 0 0.07 0.04 0 0.075 0.04 0 0.08 0.04 0 0.085 0.04 0 0.09 0.04 0 0.095 0.04 0 0.1 0.04 0 0.105 0.04 0 0.11 0.04 0 0.115 0.04 0 0.12 0.04 0 0.125 0.04 0 0.13 0.04 0 0.135 0.04 0 0.14 0.04 0 0.145 0.04 0 0.15 0.04 0 0.155 0.04 0 0.16 0.04 0 0.165 0.04 0 0.17 0.04 0 0.175 0.04 0 0.18 0.04 0 0.185 0.04 0 0.19 0.04 0 0.195 0.04 0 0.2 0.04 0 0.205 0.04 0 0.21 0.04 0 0.215 0.04 0 0.22 0.04 0 0.225 0.04 0 0.23 0.04 0 0.235 0.04 0 0.24 0.04 0 0.245 0.04 0 0.25 0.04 0 0.255 0.04 0 0.26 0.04 0 0.265 0.04 0 0.27 0.04 0 0.275 0.04 0 0.28 0.04 0 0.285 0.04 0 0.29 0.04 0 0.295 0.04 0 0.3 0.04 0 0.305 0.04 0 0.31 0.04 0 0.315 0.04 0 0.32 0.04 0 0.325 0.04 0 0.33 0.04 0 0.335 0.04 0 0.34 0.04 0 0.345 0.04 0 0.35 0.04 0 0.355 0.04 0 0.36 0.04 0 0.365 0.04 0 0.37 0.04 0 0.375 0.04 0 0.38 0.04 0 0.385 0.04 0 0.39 0.04 0 0.395 0.04 0 0.4 0.04 0 0.405 0.04 0 0.41 0.04 0 0.415 0.04 0 0.42 0.04 0 0.425 0.04 0 0.43 0.04 0 0.435 0.04 0 0.44 0.04 0 0.445 0.04 0 0.45 0.04 0 0.455 0.04 0 0.46 0.04 0 0.465 0.04 0 0.47 0.04 0 0.475 0.04 0 0.48 0.04 0 0.485 0.04 0 0.49 0.04 0 0.495 0.04 0 0.5 0.04 0 0.505 0.04 0 0.51 0.04 0 0.515 0.04 0 0.52 0.04 0 0.525 0.04 0 0.53 0.04 0 0.535 0.04 0 0.54 0.04 0 0.545 0.04 0 0.55 0.04 0 0.555 0.04 0 0.56 0.04 0 0.565 0.04 0 0.57 0.04 0 0.575 0.04 0 0.58 0.04 0 0.585 0.04 0 0.59 0.04 0 0.595 0.04 0 0.6 0.04 0 0.605 0.04 0 0.61 0.04 0 0.615 0.04 0 0.62 0.04 0 0.625 0.04 0 0.63 0.04 0 0.635 0.04 0 0.64 0.04 0 0.645 0.04 0 0.65 0.04 0 0.655 0.04 0 0.66 0.04 0 0.665 0.04 0 0.67 0.04 0 0.675 0.04 0 0.68 0.04 0 0.685 0.04 0 0.69 0.04 0 0.695 0.04 0 0.7 0.04 0 0.705 0.04 0 0.71 0.04 0 0.715 0.04 0 0.72 0.04 0 0.725 0.04 0 0.73 0.04 0 0.735 0.04 0 0.74 0.04 0 0.745 0.04 0 0.75 0.04 0 0.755 0.04 0 0.76 0.04 0 0.765 0.04 0 0.77 0.04 0 0.775 0.04 0 0.78 0.04 0 0.785 0.04 0 0.79 0.04 0 0.795 0.04 0 0.8 0.04 0 0.805 0.04 0 0.81 0.04 0 0.815 0.04 0 0.82 0.04 0 0.825 0.04 0 0.83 0.04 0 0.835 0.04 0 0.84 0.04 0 0.845 0.04 0 0.85 0.04 0 0.855 0.04 0 0.86 0.04 0 0.865 0.04 0 0.87 0.04 0 0.875 0.04 0 0.88 0.04 0 0.885 0.04 0 0.89 0.04 0 0.895 0.04 0 0.9 0.04 0 0.905 0.04 0 0.91 0.04 0 0.915 0.04 0 0.92 0.04 0 0.925 0.04 0 0.93 0.04 0 0.935 0.04 0 0.94 0.04 0 0.945 0.04 0 0.95 0.04 0 0.955 0.04 0 0.96 0.04 0 0.965 0.04 0 0.97 0.04 0 0.975 0.04 0 0.98 0.04 0 0.985 0.04 0 0.99 0.04 0 0.995 0.04 0 1 0.04 0 0 0.06 0 0.005 0.06 0 0.01 0.06 0 0.015 0.06 0 0.02 0.06 0 0.025 0.06 0 0.03 0.06 0 0.035 0.06 0 0.04 0.06 0 0.045 0.06 0 0.05 0.06 0 0.055 0.06 0 0.06 0.06 0 0.065 0.06 0 0.07 0.06 0 0.075 0.06 0 0.08 0.06 0 0.085 0.06 0 0.09 0.06 0 0.095 0.06 0 0.1 0.06 0 0.105 0.06 0 0.11 0.06 0 0.115 0.06 0 0.12 0.06 0 0.125 0.06 0 0.13 0.06 0 0.135 0.06 0 0.14 0.06 0 0.145 0.06 0 0.15 0.06 0 0.155 0.06 0 0.16 0.06 0 0.165 0.06 0 0.17 0.06 0 0.175 0.06 0 0.18 0.06 0 0.185 0.06 0 0.19 0.06 0 0.195 0.06 0 0.2 0.06 0 0.205 0.06 0 0.21 0.06 0 0.215 0.06 0 0.22 0.06 0 0.225 0.06 0 0.23 0.06 0 0.235 0.06 0 0.24 0.06 0 0.245 0.06 0 0.25 0.06 0 0.255 0.06 0 0.26 0.06 0 0.265 0.06 0 0.27 0.06 0 0.275 0.06 0 0.28 0.06 0 0.285 0.06 0 0.29 0.06 0 0.295 0.06 0 0.3 0.06 0 0.305 0.06 0 0.31 0.06 0 0.315 0.06 0 0.32 0.06 0 0.325 0.06 0 0.33 0.06 0 0.335 0.06 0 0.34 0.06 0 0.345 0.06 0 0.35 0.06 0 0.355 0.06 0 0.36 0.06 0 0.365 0.06 0 0.37 0.06 0 0.375 0.06 0 0.38 0.06 0 0.385 0.06 0 0.39 0.06 0 0.395 0.06 0 0.4 0.06 0 0.405 0.06 0 0.41 0.06 0 0.415 0.06 0 0.42 0.06 0 0.425 0.06 0 0.43 0.06 0 0.435 0.06 0 0.44 0.06 0 0.445 0.06 0 0.45 0.06 0 0.455 0.06 0 0.46 0.06 0 0.465 0.06 0 0.47 0.06 0 0.475 0.06 0 0.48 0.06 0 0.485 0.06 0 0.49 0.06 0 0.495 0.06 0 0.5 0.06 0 0.505 0.06 0 0.51 0.06 0 0.515 0.06 0 0.52 0.06 0 0.525 0.06 0 0.53 0.06 0 0.535 0.06 0 0.54 0.06 0 0.545 0.06 0 0.55 0.06 0 0.555 0.06 0 0.56 0.06 0 0.565 0.06 0 0.57 0.06 0 0.575 0.06 0 0.58 0.06 0 0.585 0.06 0 0.59 0.06 0 0.595 0.06 0 0.6 0.06 0 0.605 0.06 0 0.61 0.06 0 0.615 0.06 0 0.62 0.06 0 0.625 0.06 0 0.63 0.06 0 0.635 0.06 0 0.64 0.06 0 0.645 0.06 0 0.65 0.06 0 0.655 0.06 0 0.66 0.06 0 0.665 0.06 0 0.67 0.06 0 0.675 0.06 0 0.68 0.06 0 0.685 0.06 0 0.69 0.06 0 0.695 0.06 0 0.7 0.06 0 0.705 0.06 0 0.71 0.06 0 0.715 0.06 0 0.72 0.06 0 0.725 0.06 0 0.73 0.06 0 0.735 0.06 0 0.74 0.06 0 0.745 0.06 0 0.75 0.06 0 0.755 0.06 0 0.76 0.06 0 0.765 0.06 0 0.77 0.06 0 0.775 0.06 0 0.78 0.06 0 0.785 0.06 0 0.79 0.06 0 0.795 0.06 0 0.8 0.06 0 0.805 0.06 0 0.81 0.06 0 0.815 0.06 0 0.82 0.06 0 0.825 0.06 0 0.83 0.06 0 0.835 0.06 0 0.84 0.06 0 0.845 0.06 0 0.85 0.06 0 0.855 0.06 0 0.86 0.06 0 0.865 0.06 0 0.87 0.06 0 0.875 0.06 0 0.88 0.06 0 0.885 0.06 0 0.89 0.06 0 0.895 0.06 0 0.9 0.06 0 0.905 0.06 0 0.91 0.06 0 0.915 0.06 0 0.92 0.06 0 0.925 0.06 0 0.93 0.06 0 0.935 0.06 0 0.94 0.06 0 0.945 0.06 0 0.95 0.06 0 0.955 0.06 0 0.96 0.06 0 0.965 0.06 0 0.97 0.06 0 0.975 0.06 0 0.98 0.06 0 0.985 0.06 0 0.99 0.06 0 0.995 0.06 0 1 0.06 0 0 0.08 0 0.005 0.08 0 0.01 0.08 0 0.015 0.08 0 0.02 0.08 0 0.025 0.08 0 0.03 0.08 0 0.035 0.08 0 0.04 0.08 0 0.045 0.08 0 0.05 0.08 0 0.055 0.08 0 0.06 0.08 0 0.065 0.08 0 0.07 0.08 0 0.075 0.08 0 0.08 0.08 0 0.085 0.08 0 0.09 0.08 0 0.095 0.08 0 0.1 0.08 0 0.105 0.08 0 0.11 0.08 0 0.115 0.08 0 0.12 0.08 0 0.125 0.08 0 0.13 0.08 0 0.135 0.08 0 0.14 0.08 0 0.145 0.08 0 0.15 0.08 0 0.155 0.08 0 0.16 0.08 0 0.165 0.08 0
[...]
			<PointData Scalars="VitesseX">
				<DataArray Name="VitesseX" type="Float32" format="ascii">
 0 7.46959e-15 -8.79312e-15 2.05928e-15 3.97334e-14 -3.87774e-14 -9.21976e-14 1.99493e-14 -1.52918e-14 7.53716e-14 -6.91791e-14 -7.63901e-14 -1.1807e-13 9.09628e-15 -8.7054e-14 -1.37467e-13 6.3117e-14 -2.62169e-14 -3.89553e-14 -1.13857e-13 -1.44733e-13 -1.92846e-14 1.48698e-14 -1.89442e-13 -1.50114e-13 -1.60424e-13 1.44572e-13 -1.37261e-13 -7.99744e-14 -1.16599e-13 -6.71185e-15 7.96183e-14 -1.44536e-14 -6.61773e-14 -1.70461e-13 -8.54173e-15 -5.28901e-14 -5.91696e-15 -1.31541e-13 -3.15258e-13 -1.41595e-13 -7.98331e-14 -3.00705e-13 -3.89846e-13 -1.22901e-13 4.59169e-14 2.11508e-13 -8.88266e-14 -2.25529e-13 -1.9191e-13 1.34526e-13 6.985e-13 3.5874e-14 -6.86481e-13 -4.27804e-13 -1.1296e-13 1.66614e-14 -1.21217e-13 -2.62918e-13 1.79206e-13 -1.33856e-13 4.22558e-13 -2.68846e-14 -6.3357e-14 1.19563e-13 -1.46148e-13 -1.67194e-13 -5.89314e-13 -3.09562e-13 2.10066e-13 -2.16523e-13 -1.9035e-13 5.94529e-13 7.40581e-12 8.65287e-11 9.76152e-10 1.00307e-08 9.31586e-08 7.76278e-07 5.7568e-06 3.76211e-05 0.000214019 0.0010435 0.00427455 0.014356 0.0385566 0.0817436 0.139257 0.201112 0.262162 0.321823 0.380138 0.43706 0.492496 0.546282 0.598171 0.64783 0.694827 0.73864 0.778679 0.814328 0.845035 0.870416 0.890371 0.905158 0.915392 0.921939 0.925759 0.927733 0.928596 0.928783 0.928607 0.928048 0.926817 0.924307 0.919394 0.910186 0.893794 0.866263 0.822872 0.758973 0.671497 0.561043 0.434028 0.303478 0.186535 0.0981634 0.0438249 0.0170455 0.00606585 0.00205285 0.000673395 0.000215621 6.75306e-05 2.06927e-05 6.20193e-06 1.8175e-06 5.20618e-07 1.45731e-07 3.98557e-08 1.06489e-08 2.7796e-09 7.07709e-10 1.77181e-10 4.34751e-11 9.60612e-12 2.74295e-12 -3.25442e-13 4.47412e-13 4.62488e-13 -1.15788e-12 2.0961e-13 -8.55746e-13 8.41614e-13 -1.27564e-13 3.72876e-13 -9.74266e-13 2.16584e-13 3.71924e-13 1.80005e-13 -1.00916e-13 -1.55576e-12 6.68609e-13 8.77085e-13 -6.08106e-13 -2.58128e-13 -1.65722e-13 3.81928e-14 7.11562e-13 -8.86157e-13 3.2558e-13 3.76349e-13 -4.26146e-13 4.2036e-13 -1.15199e-12 5.70208e-13 1.58198e-13 -7.09477e-13 -4.49723e-13 -4.30028e-13 2.56323e-13 1.70829e-13 -2.11494e-13 7.97275e-14 -4.50599e-13 1.24727e-12 -1.08837e-13 -1.17083e-12 1.1747e-13 -1.04052e-12 8.46767e-13 2.60207e-13 -2.48046e-12 2.53716e-13 6.79316e-13 2.98023e-13 -7.43013e-13 -2.01116e-12 1.20326e-12 1.39023e-12 0 0 -1.48346e-14 5.12903e-15 -3.50777e-15 -4.08986e-14 2.35296e-14 5.42934e-14 -1.97611e-14 1.01525e-15 -7.53473e-14 5.14066e-15 -1.66316e-14 -3.16927e-14 -1.31719e-13 -5.56463e-14 -1.7283e-14 -1.52473e-13 -1.47846e-14 -3.27841e-14 -3.01278e-14 -3.10097e-14 -1.34866e-13 -1.79552e-13 -3.1168e-14 4.20853e-14 -5.76587e-14 -2.4991e-13 -3.64076e-14 -2.54631e-14 2.66213e-14 -2.6456e-14 -1.00774e-13 -3.63184e-14 -4.28553e-14 6.82947e-14 -1.5275e-13 -5.65333e-14 -1.70485e-13 -1.17856e-13 -1.93793e-14 -2.04744e-13 -2.27288e-13 -9.52334e-14 -7.99594e-14 -1.36603e-13 -1.82822e-13 -1.39021e-13 1.26652e-13 1.57829e-13 2.90848e-13 1.04687e-13 -3.95396e-13 -2.28989e-13 1.03002e-13 -8.6924e-14 -2.81335e-13 -3.24455e-13 -1.197e-13 1.09439e-13 -1.19233e-13 1.31396e-13 -1.71821e-13 1.10448e-13 9.38745e-14 -2.69582e-13 -5.95622e-14 -1.79935e-13 3.56853e-14 -1.10171e-13 -5.37325e-13 -9.85221e-14 4.38585e-13 9.06762e-13 7.20751e-12 8.6214e-11 9.76036e-10 1.00314e-08 9.31586e-08 7.76278e-07 5.7568e-06 3.76211e-05 0.000214019 0.0010435 0.00427455 0.014356 0.0385566 0.0817436 0.139257 0.201112 0.262162 0.321823 0.380138 0.43706 0.492496 0.546282 0.598171 0.64783 0.694827 0.73864 0.778679 0.814328 0.845035 0.870416 0.890371 0.905158 0.915392 0.921939 0.925759 0.927733 0.928596 0.928783 0.928607 0.928048 0.926817 0.924307 0.919394 0.910186 0.893794 0.866263 0.822872 0.758973 0.671497 0.561043 0.434028 0.303478 0.186535 0.0981634 0.0438249 0.0170455 0.00606585 0.00205285 0.000673395 0.000215621 6.75306e-05 2.06927e-05 6.20193e-06 1.8175e-06 5.20617e-07 1.4573e-07 3.98565e-08 1.06486e-08 2.77927e-09 7.0956e-10 1.76049e-10 4.24077e-11 1.07081e-11 2.11976e-12 1.15969e-12 -6.66009e-13 -5.92235e-13 5.71495e-13 -5.70026e-13 4.13463e-13 -7.04586e-13 -5.45932e-14 -1.58222e-13 6.49805e-13 -2.18537e-13 -6.99612e-13 -3.83356e-13 -4.34698e-14 6.94921e-13 -3.61301e-13 -9.16261e-13 6.40531e-14 2.93244e-14 5.47126e-13 -1.44914e-13 -6.83309e-13 1.03807e-12 -4.41723e-13 -4.85552e-14 4.32267e-13 -6.05612e-13 5.07934e-13 -8.81684e-13 -2.31022e-13 7.7918e-14 -9.75479e-14 -1.99499e-14 -6.76889e-13 -2.06907e-13 6.84489e-13 -1.83323e-13 4.69288e-13 -7.3275e-13 1.42089e-13 5.02455e-13 -2.29368e-13 2.02336e-13 -1.10235e-12 -7.34085e-13 1.6322e-12 -1.04853e-12 -7.30403e-13 -6.72464e-13 7.78845e-14 1.18686e-12 -1.39542e-12 -7.89057e-13 0 0 1.56128e-14 4.86499e-15 1.16545e-14 -1.13043e-15 1.2071e-14 1.81137e-14 3.78089e-14 -1.5221e-14 1.14152e-14 -1.9326e-14 -4.3602e-14 -5.43992e-14 -5.47584e-14 -7.48897e-14 -8.7858e-14 -3.07147e-14 -1.70294e-13 1.00306e-13 -1.40658e-13 -8.70651e-14 -8.11067e-14 -2.91875e-14 -3.90365e-14 -1.71987e-13 -6.51992e-14 6.21597e-14 -5.2961e-14 -8.1594e-14 -2.18728e-14 -5.60839e-14 -1.17592e-14 -8.15189e-14 -2.45725e-14 -1.25393e-13 -1.75771e-14 -9.70028e-14 -6.04421e-14 -5.89806e-14 -2.499e-13 -2.04366e-13 -9.18128e-14 -7.17436e-14 -6.09628e-14 1.92061e-14 2.2425e-15 -1.2388e-14 1.74503e-14 -1.79952e-14 -1.18635e-13 -1.12929e-13 1.18604e-13 -3.01366e-14 -9.35933e-14 -1.79624e-13 -4.63303e-14 -1.28967e-13 -3.29169e-13 -1.07282e-13 9.92513e-14 7.99806e-14 -5.41807e-15 -1.17657e-13 -1.21192e-13 1.49566e-15 -1.21042e-13 -1.01434e-13 -1.94921e-13 -3.31794e-13 1.0266e-13 6.63421e-14 1.20869e-13 7.61129e-13 7.58688e-12 8.67767e-11 9.76149e-10 1.00307e-08 9.31587e-08 7.76278e-07 5.7568e-06 3.76211e-05 0.000214019 0.0010435 0.00427455 0.014356 0.0385566 0.0817436 0.139257 0.201112 0.262162 0.321823 0.380138 0.43706 0.492496 0.546282 0.598171 0.64783 0.694827 0.73864 0.778679 0.814328 0.845035 0.870416 0.890371 0.905158 0.915392 0.921939 0.925759 0.927733 0.928596 0.928783 0.928607 0.928048 0.926817 0.924307 0.919394 0.910186 0.893794 0.866263 0.822872 0.758973 0.671497 0.561043 0.434028 0.303478 0.186535 0.0981634 0.0438249 0.0170455 0.00606585 0.00205285 0.000673395 0.000215621 6.75306e-05 2.06927e-05 6.20193e-06 1.8175e-06 5.20618e-07 1.45731e-07 3.98559e-08 1.06492e-08 2.77955e-09 7.08538e-10 1.7684e-10 4.29075e-11 9.69618e-12 2.46557e-12 2.5349e-14 2.57942e-13 1.74254e-13 -2.37807e-13 1.48076e-13 -5.59431e-13 -2.38006e-13 -1.97414e-13 -1.11526e-13 -1.75037e-13 -1.71696e-13 -2.40237e-13 -3.29538e-13 -4.87782e-13 -4.06085e-13 -3.56453e-13 1.18055e-13 2.39561e-13 -2.2507e-13 -5.62728e-13 1.32805e-13 1.54203e-13 5.74302e-14 6.09263e-13 -1.87545e-13 -3.86972e-13 5.45687e-14 -4.34592e-13 2.77939e-13 -2.51502e-14 -4.30721e-13 7.56265e-14 -6.01606e-13 -7.38956e-14 8.29172e-14 6.85648e-14 6.57567e-13 -8.63832e-14 -1.26535e-13 -1.57838e-13 2.36794e-13 5.16025e-13 -8.93581e-13 -2.66654e-13 2.61988e-13 -7.17164e-13 2.13818e-13 -3.74897e-13 -3.95474e-13 -2.50158e-13 -5.53895e-13 8.4388e-13 1.10776e-13 0 0 1.14672e-14 4.72335e-14 5.77494e-14 5.46095e-14 2.38615e-14 -1.69152e-14 1.2482e-14 -2.9652e-14 2.33613e-14 -6.01032e-14 -7.84941e-14 -2.85517e-14 -5.07125e-15 -8.17038e-14 -9.72676e-14 -2.70882e-14 -3.33335e-14 -7.90962e-14 -8.9143e-14 -1.42229e-13 -8.91269e-14 -1.20828e-14 -1.50177e-13 -3.31176e-14 -7.39331e-14 5.95672e-14 2.09234e-14 -1.68216e-13 9.34921e-15 -9.61953e-14 5.75448e-14 -6.96004e-14 -6.17459e-14 -1.80851e-13 -9.98103e-14 -1.28116e-13 -9.25519e-14 -8.80966e-14 -5.81654e-14 -1.46273e-13 -9.12504e-14 -2.49704e-13 -2.28397e-14 -8.35219e-14 -1.05173e-13 2.36756e-13 -6.33574e-14 -2.5552e-13 -7.59141e-14 -1.83114e-14 3.36001e-13 -1.1722e-13 -4.06895e-13 -2.01013e-13 -1.14642e-13 1.13238e-13 -3.31044e-13 -1.13816e-13 9.84718e-14 2.68064e-13 1.34894e-13 2.19901e-14 -1.03737e-13 -1.09316e-13 -1.10908e-13 -3.29703e-13 -4.38254e-13 -1.90565e-13 1.18545e-13 -1.26976e-13 -9.28615e-14 9.19074e-13 7.69322e-12 8.69425e-11 9.76224e-10 1.00312e-08 9.31587e-08 7.76278e-07 5.7568e-06 3.76211e-05 0.000214019 0.0010435 0.00427455 0.014356 0.0385566 0.0817436 0.139257 0.201112 0.262162 0.321823 0.380138 0.43706 0.492496 0.546282 0.598171 0.64783 0.694827 0.73864 0.778679 0.814328 0.845035 0.870416 0.890371 0.905158 0.915392 0.921939 0.925759 0.927733 0.928596 0.928783 0.928607 0.928048 0.926817 0.924307 0.919394 0.910186 0.893794 0.866263 0.822872 0.758973 0.671497 0.561043 0.434028 0.303478 0.186535 0.0981634 0.0438249 0.0170455 0.00606585 0.00205285 0.000673395 0.000215621 6.75306e-05 2.06927e-05 6.20193e-06 1.8175e-06 5.20618e-07 1.45731e-07 3.98561e-08 1.06489e-08 2.77966e-09 7.08326e-10 1.76903e-10 4.32643e-11 9.95969e-12 1.96471e-12 2.85301e-13 -1.87802e-14 3.30986e-13 -1.77398e-13 -4.3963e-13 -4.30655e-13 1.8153e-13 -2.27565e-13 -9.54464e-14 -8.43432e-13 -2.0457e-13 3.85272e-13 2.31921e-13 -3.39168e-13 -1.58577e-12 -2.37216e-13 2.72976e-13 -7.27323e-13 1.50373e-13 -2.29996e-13 4.40288e-13 5.1701e-13 -1.33311e-13 -3.36553e-13 -1.55458e-14 -3.06955e-13 -4.00219e-13 -4.95288e-13 6.97183e-13 4.62875e-14 -4.74044e-13 -4.10586e-13 -6.40652e-13 3.03551e-13 6.68872e-13 2.78845e-13 -1.83638e-13 -1.95423e-13 6.65511e-13 -8.72273e-14 -1.90566e-13 -7.18296e-13 -3.11884e-13 -3.87094e-14 1.69291e-13 -7.39756e-13 -9.72488e-14 6.6988e-14 -2.852e-14 -2.27808e-13 -6.31852e-13 6.30358e-13 1.24334e-12 0 0 8.81567e-15 6.57362e-14 5.55046e-14 2.69346e-14 5.14389e-14 5.71915e-14 -4.51765e-14 1.76466e-15 -9.51931e-14 -5.13275e-14 -4.03617e-14 1.03679e-14 -8.03832e-14 -3.76901e-14 -2.29945e-14 -1.38364e-13 6.23633e-14 -1.79428e-13 1.04909e-15 -3.74529e-14 -1.20043e-13 -1.88113e-13 -4.62782e-14 1.38792e-13 7.74968e-15 -1.85842e-13 1.51067e-14 -4.9827e-14 -3.34634e-14 -5.42123e-14 -1.81341e-13 -1.61373e-13 -1.98958e-14 6.80699e-14 -2.12082e-13 -2.09254e-13 -1.06778e-13 -1.70406e-13 1.528e-13 -1.90865e-13 -1.82338e-13 -9.93428e-14 5.1991e-14 -1.87119e-13 -7.37664e-14 -5.96756e-14 7.57375e-14 1.26188e-13 2.87593e-13 4.96941e-14 -4.73447e-13 -3.22663e-13 1.07348e-13 -1.14678e-13 -3.45349e-13 -3.63155e-13 -1.37081e-13 -2.88754e-14 -1.27694e-13 2.1084e-13 -2.6921e-14 3.16619e-13 1.40732e-13 -2.63901e-13 -3.68587e-13 -2.92925e-13 3.96567e-14 -9.64128e-14 -4.43694e-13 -1.0539e-13 5.66327e-13 1.17465e-12 7.34346e-12 8.67008e-11 9.7625e-10 1.00317e-08 9.31586e-08 7.76278e-07 5.7568e-06 3.76211e-05 0.000214019 0.0010435 0.00427455 0.014356 0.0385566 0.0817436 0.139257 0.201112 0.262162 0.321823 0.380138 0.43706 0.492496 0.546282 0.598171 0.64783 0.694827 0.73864 0.778679 0.814328 0.845035 0.870416 0.890371 0.905158 0.915392 0.921939 0.925759 0.927733 0.928596 0.928783 0.928607 0.928048 0.926817 0.924307 0.919394 0.910186 0.893794 0.866263 0.822872 0.758973 0.671497 0.561043 0.434028 0.303478 0.186535 0.0981634 0.0438249 0.0170455 0.00606585 0.00205285 0.000673395 0.000215621 6.75306e-05 2.06927e-05 6.20193e-06 1.8175e-06 5.20618e-07 1.45731e-07 3.98568e-08 1.06487e-08 2.7793e-09 7.09424e-10 1.76186e-10 4.26201e-11 1.10302e-11 1.50885e-12 1.13353e-12 -8.58169e-13 -7.46267e-13 5.94284e-13 -9.5649e-13 4.26529e-13 -5.4916e-13 -1.05968e-13 -4.55085e-13 1.58757e-13 8.98124e-14 -3.61357e-13 -2.54797e-13 6.254e-14 2.15041e-13 -8.36186e-13 -5.50662e-13 -8.54929e-14 1.21849e-13 5.27506e-13 1.68882e-13 -5.33916e-13 7.83391e-13 -1.00471e-12 -3.56415e-13 1.03241e-13 -6.59089e-13 4.32897e-13 -8.31989e-13 -5.14471e-13 -1.98114e-13 -3.23096e-13 1.47467e-14 -3.3329e-13 4.14779e-13 7.09218e-13 -4.24204e-13 2.14097e-13 -4.4379e-13 1.73848e-13 2.58056e-13 -7.13654e-13 7.15047e-13 -3.88303e-13 -1.05032e-12 1.74168e-12 -9.22598e-13 -6.93915e-13 -4.5839e-13 2.00157e-13 1.36891e-12 -1.35234e-12 -2.63558e-13 0 0 6.30614e-14 2.76843e-14 2.78942e-14 6.39198e-14 -6.53989e-15 -1.63438e-14 1.97724e-14 1.5069e-14 1.17879e-14 -1.00561e-13 -5.40662e-14 -8.56432e-14 1.23943e-14 -3.75134e-14 -1.30071e-13 8.40819e-14 -1.45842e-13 2.65605e-14 -1.54534e-13 -4.72907e-14 2.64025e-14 -3.64609e-14 2.61964e-15 -2.34441e-13 -1.21392e-14 2.77893e-13 -1.82001e-13 4.45408e-14 -2.99212e-13 1.79984e-14 -2.20123e-13 -2.88399e-13 5.40886e-14 -5.99927e-14 3.72613e-14 -2.96104e-13 1.85717e-13 -1.7841e-13 -3.5437e-13 -2.30022e-13 8.94194e-15 4.6998e-14 -2.02192e-13 -1.84766e-14 4.78858e-13 -1.28089e-13 -2.90404e-14 1.86237e-13 -2.8386e-13 -1.64696e-13 1.07604e-13 2.26909e-14 -5.11845e-14 -4.40534e-13 -1.04364e-13 -5.45148e-13 -1.52229e-13 -5.2648e-13 1.63844e-13 -3.51134e-13 4.31732e-13 1.06161e-13 -4.55248e-15 3.52549e-13 -7.84464e-13 6.33632e-14 -9.47049e-14 -5.64503e-13 3.65557e-13 1.56377e-13 4.92595e-13 8.14405e-13 7.46504e-12 8.71705e-11 9.7643e-10 1.00303e-08 9.31588e-08 7.76279e-07 5.7568e-06 3.76211e-05 0.000214019 0.0010435 0.00427455 0.014356 0.0385566 0.0817436 0.139257 0.201112 0.262162 0.321823 0.380138 0.43706 0.492496 0.546282 0.598171 0.64783 0.694827 0.73864 0.778679 0.814328 0.845035 0.870416 0.890371 0.905158 0.915392 0.921939 0.925759 0.927733 0.928596 0.928783 0.928607 0.928048 0.926817 0.924307 0.919394 0.910186 0.893794 0.866263 0.822872 0.758973 0.671497 0.561043 0.434028 0.303478 0.186535 0.0981634 0.0438249 0.0170455 0.00606585 0.00205285 0.000673395 0.000215621 6.75306e-05 2.06927e-05 6.20193e-06 1.8175e-06 5.20618e-07 1.45731e-07 3.98558e-08 1.06496e-08 2.77943e-09 7.07859e-10 1.77329e-10 4.31863e-11 9.72341e-12 2.52288e-12 -8.97665e-13 6.16537e-13 -1.59041e-13 -1.23312e-12 6.12093e-13 -1.08717e-12 3.13394e-13 -1.7001e-13 -2.53008e-13 -6.19572e-13 8.9903e-13 -2.02584e-13 -6.85795e-13 -1.86125e-13 -1.5614e-13 -5.19635e-13 1.29844e-12 1.02657e-12 -8.23964e-13 -8.70426e-13 5.08186e-14 2.84734e-13 -1.01404e-12 1.09123e-12 -5.8337e-13 -1.24423e-12 1.22298e-12 -1.18068e-12 -1.68889e-13 -5.51575e-13 -1.17489e-12 7.16061e-14 -2.82543e-13 1.88627e-13 2.42292e-13 -5.82597e-13 1.28038e-12 -7.42902e-13 2.41093e-13 -1.86541e-13 -8.04907e-13 1.61754e-12 -1.1785e-12 1.81897e-12 -1.86867e-13 -2.21632e-12 1.12772e-12 -1.3148e-13 -7.73495e-15 -5.43167e-13 -1.49115e-12 1.71647e-12 1.7611e-13 0
				</DataArray>
				<DataArray Name="VitesseY" type="Float32" format="ascii">