<?xml version="1.0"?>
<VTKFile type="PolyData">
	<PolyData>
		<Piece NumberOfPoints="1206" NumberOfPolys="1000">
			<Points>
				<DataArray type="Float32" NumberOfComponents="3" format="ascii">
 0 0 0 0.005 0 0 0.01 0 0 0.015 0 0 0.02 0 0 0.025 0 0 0.03 0 0 0.035 0 0 0.04 0 0 0.045 0 0 0.05 0 0 0.055 0 0 0.06 0 0 0.065 0 0 0.07 0 0 0.075 0 0 0.08 0 0 0.085 0 0 0.09 0 0 0.095 0 0 0.1 0 0 0.105 0 0 0.11 0 0 0.115 0 0 0.12 0 0 0.125 0 0 0.13 0 0 0.135 0 0 0.14 0 0 0.145 0 0 0.15 0 0 0.155 0 0 0.16 0 0 0.165 0 0 0.17 0 0 0.175 0 0 0.18 0 0 0.185 0 0 0.19 0 0 0.195 0 0 0.2 0 0 0.205 0 0 0.21 0 0 0.215 0 0 0.22 0 0 0.225 0 0 0.23 0 0 0.235 0 0 0.24 0 0 0.245 0 0 0.25 0 0 0.255 0 0 0.26 0 0 0.265 0 0 0.27 0 0 0.275 0 0 0.28 0 0 0.285 0 0 0.29 0 0 0.295 0 0 0.3 0 0 0.305 0 0 0.31 0 0 0.315 0 0 0.32 0 0 0.325 0 0 0.33 0 0 0.335 0 0 0.34 0 0 0.345 0 0 0.35 0 0 0.355 0 0 0.36 0 0 0.365 0 0 0.37 0 0 0.375 0 0 0.38 0 0 0.385 0 0 0.39 0 0 0.395 0 0 0.4 0 0 0.405 0 0 0.41 0 0 0.415 0 0 0.42 0 0 0.425 0 0 0.43 0 0 0.435 0 0 0.44 0 0 0.445 0 0 0.45 0 0 0.455 0 0 0.46 0 0 0.465 0 0 0.47 0 0 0.475 0 0 0.48 0 0 0.485 0 0 0.49 0 0 0.495 0 0 0.5 0 0 0.505 0 0 0.51 0 0 0.515 0 0 0.52 0 0 0.525 0 0 0.53 0 0 0.535 0 0 0.54 0 0 0.545 0 0 0.55 0 0 0.555 0 0 0.56 0 0 0.565 0 0 0.57 0 0 0.575 0 0 0.58 0 0 0.585 0 0 0.59 0 0 0.595 0 0 0.6 0 0 0.605 0 0 0.61 0 0 0.615 0 0 0.62 0 0 0.625 0 0 0.63 0 0 0.635 0 0 0.64 0 0 0.645 0 0 0.65 0 0 0.655 0 0 0.66 0 0 0.665 0 0 0.67 0 0 0.675 0 0 0.68 0 0 0.685 0 0 0.69 0 0 0.695 0 0 0.7 0 0 0.705 0 0 0.71 0 0 0.715 0 0 0.72 0 0 0.725 0 0 0.73 0 0 0.735 0 0 0.74 0 0 0.745 0 0 0.75 0 0 0.755 0 0 0.76 0 0 0.765 0 0 0.77 0 0 0.775 0 0 0.78 0 0 0.785 0 0 0.79 0 0 0.795 0 0 0.8 0 0 0.805 0 0 0.81 0 0 0.815 0 0 0.82 0 0 0.825 0 0 0.83 0 0 0.835 0 0 0.84 0 0 0.845 0 0 0.85 0 0 0.855 0 0 0.86 0 0 0.865 0 0 0.87 0 0 0.875 0 0 0.88 0 0 0.885 0 0 0.89 0 0 0.895 0 0 0.9 0 0 0.905 0 0 0.91 0 0 0.915 0 0 0.92 0 0 0.925 0 0 0.93 0 0 0.935 0 0 0.94 0 0 0.945 0 0 0.95 0 0 0.955 0 0 0.96 0 0 0.965 0 0 0.97 0 0 0.975 0 0 0.98 0 0 0.985 0 0 0.99 0 0 0.995 0 0 1 0 0 0 0.02 0 0.005 0.02 0 0.01 0.02 0 0.015 0.02 0 0.02 0.02 0 0.025 0.02 0 0.03 0.02 0 0.035 0.02 0 0.04 0.02 0 0.045 0.02 0 0.05 0.02 0 0.055 0.02 0 0.06 0.02 0 0.065 0.02 0 0.07 0.02 0 0.075 0.02 0 0.08 0.02 0 0.085 0.02 0 0.09 0.02 0 0.095 0.02 0 0.1 0.02 0 0.105 0.02 0 0.11 0.02 0 0.115 0.02 0 0.12 0.02 0 0.125 0.02 0 0.13 0.02 0 0.135 0.02 0 0.14 0.02 0 0.145 0.02 0 0.15 0.02 0 0.155 0.02 0 0.16 0.02 0 0.165 0.02 0 0.17 0.02 0 0.175 0.02 0 0.18 0.02 0 0.185 0.02 0 0.19 0.02 0 0.195 0.02 0 0.2 0.02 0 0.205 0.02 0 0.21 0.02 0 0.215 0.02 0 0.22 0.02 0 0.225 0.02 0 0.23 0.02 0 0.235 0.02 0 0.24 0.02 0 0.245 0.02 0 0.25 0.02 0 0.255 0.02 0 0.26 0.02 0 0.265 0.02 0 0.27 0.02 0 0.275 0.02 0 0.28 0.02 0 0.285 0.02 0 0.29 0.02 0 0.295 0.02 0 0.3 0.02 0 0.305 0.02 0 0.31 0.02 0 0.315 0.02 0 0.32 0.02 0 0.325 0.02 0 0.33 0.02 0 0.335 0.02 0 0.34 0.02 0 0.345 0.02 0 0.35 0.02 0 0.355 0.02 0 0.36 0.02 0 0.365 0.02 0 0.37 0.02 0 0.375 0.02 0 0.38 0.02 0 0.385 0.02 0 0.39 0.02 0 0.395 0.02 0 0.4 0.02 0 0.405 0.02 0 0.41 0.02 0 0.415 0.02 0 0.42 0.02 0 0.425 0.02 0 0.43 0.02 0 0.435 0.02 0 0.44 0.02 0 0.445 0.02 0 0.45 0.02 0 0.455 0.02 0 0.46 0.02 0 0.465 0.02 0 0.47 0.02 0 0.475 0.02 0 0.48 0.02 0 0.485 0.02 0 0.49 0.02 0 0.495 0.02 0 0.5 0.02 0 0.505 0.02 0 0.51 0.02 0 0.515 0.02 0 0.52 0.02 0 0.525 0.02 0 0.53 0.02 0 0.535 0.02 0 0.54 0.02 0 0.545 0.02 0 0.55 0.02 0 0.555 0.02 0 0.56 0.02 0 0.565 0.02 0 0.57 0.02 0 0.575 0.02 0 0.58 0.02 0 0.585 0.02 0 0.59 0.02 0 0.595 0.02 0 0.6 0.02 0 0.605 0.02 0 0.61 0.02 0 0.615 0.02 0 0.62 0.02 0 0.625 0.02 0 0.63 0.02 0 0.635 0.02 0 0.64 0.02 0 0.645 0.02 0 0.65 0.02 0 0.655 0.02 0 0.66 0.02 0 0.665 0.02 0 0.67 0.02 0 0.675 0.02 0 0.68 0.02 0 0.685 0.02 0 0.69 0.02 0 0.695 0.02 0 0.7 0.02 0 0.705 0.02 0 0.71 0.02 0 0.715 0.02 0 0.72 0.02 0 0.725 0.02 0 0.73 0.02 0 0.735 0.02 0 0.74 0.02 0 0.745 0.02 0 0.75 0.02 0 0.755 0.02 0 0.76 0.02 0 0.765 0.02 0 0.77 0.02 0 0.775 0.02 0 0.78 0.02 0 0.785 0.02 0 0.79 0.02 0 0.795 0.02 0 0.8 0.02 0 0.805 0.02 0 0.81 0.02 0 0.815 0.02 0 0.82 0.02 0 0.825 0.02 0 0.83 0.02 0 0.835 0.02 0 0.84 0.02 0 0.845 0.02 0 0.85 0.02 0 0.855 0.02 0 0.86 0.02 0 0.865 0.02 0 0.87 0.02 0 0.875 0.02 0 0.88 0.02 0 0.885 0.02 0 0.89 0.02 0 0.895 0.02 0 0.9 0.02 0 0.905 0.02 0 0.91 0.02 0 0.915 0.02 0 0.92 0.02 0 0.925 0.02 0 0.93 0.02 0 0.935 0.02 0 0.94 0.02 0 0.945 0.02 0 0.95 0.02 0 0.955 0.02 0 0.96 0.02 0 0.965 0.02 0 0.97 0.02 0 0.975 0.02 0 0.98 0.02 0 0.985 0.02 0 0.99 0.02 0 0.995 0.02 0 1 0.02 0 0 0.04 0 0.005 0.04 0 0.01 0.04 0 0.015 0.04 0 0.02 0.04 0 0.025 0.04 0 0.03 0.04 0 0.035 0.04 0 0.04 0.04 0 0.045 0.04 0 0.05 0.04 0 0.055 0.04 0 0.06 0.04 0 0.065 0.04 0 0.07 0.04 0 0.075 0.04 0 0.08 0.04 0 0.085 0.04 0 0.09 0.04 0 0.095 0.04 0 0.1 0.04 0 0.105 0.04 0 0.11 0.04 0 0.115 0.04 0 0.12 0.04 0 0.125 0.04 0 0.13 0.04 0 0.135 0.04 0 0.14 0.04 0 0.145 0.04 0 0.15 0.04 0 0.155 0.04 0 0.16 0.04 0 0.165 0.04 0 0.17 0.04 0 0.175 0.04 0 0.18 0.04 0 0.185 0.04 0 0.19 0.04 0 0.195 0.04 0 0.2 0.04 0 0.205 0.04 0 0.21 0.04 0 0.215 0.04 0 0.22 0.04 0 0.225 0.04 0 0.23 0.04 0 0.235 0.04 0 0.24 0.04 0 0.245 0.04 0 0.25 0.04 0 0.255 0.04 0 0.26 0.04 0 0.265 0.04 0 0.27 0.04 0 0.275 0.04 0 0.28 0.04 0 0.285 0.04 0 0.29 0.04 0 0.295 0.04 0 0.3 0.04 0 0.305 0.04 0 0.31 0.04 0 0.315 0.04 0 0.32 0.04 0 0.325 0.04 0 0.33 0.04 0 0.335 0.04 0 0.34 0.04 0 0.345 0.04 0 0.35 0.04 0 0.355 0.04 0 0.36 0.04 0 0.365 0.04 0 0.37 0.04 0 0.375 0.04 0 0.38 0.04 0 0.385 0.04 0 0.39 0.04 0 0.395 0.04 0 0.4 0.04 0 0.405 0.04 0 0.41 0.04 0 0.415 0.04 0 0.42 0.04 0 0.425 0.04 0 0.43 0.04 0 0.435 0.04 0 0.44 0.04 0 0.445 0.04 0 0.45 0.04 0 0.455 0.04 0 0.46 0.04 0 0.465 0.04 0 0.47 0.04 0 0.475 0.04 0 0.48 0.04 0 0.485 0.04 0 0.49 0.04 0 0.495 0.04 0 0.5 0.04 0 0.505 0.04 0 0.51 0.04 0 0.515 0.04 0 0.52 0.04 0 0.525 0.04 0 0.53 0.04 0 0.535 0.04 0 0.54 0.04 0 0.545 0.04 0 0.55 0.04 0 0.555 0.04 0 0.56 0.04 0 0.565 0.04 0 0.57 0.04 0 0.575 0.04 0 0.58 0.04 0 0.585 0.04 0 0.59 0.04 0 0.595 0.04 0 0.6 0.04 0 0.605 0.04 0 0.61 0.04 0 0.615 0.04 0 0.62 0.04 0 0.625 0.04 0 0.63 0.04 0 0.635 0.04 0 0.64 0.04 0 0.645 0.04 0 0.65 0.04 0 0.655 0.04 0 0.66 0.04 0 0.665 0.04 0 0.67 0.04 0 0.675 0.04 0 0.68 0.04 0 0.685 0.04 0 0.69 0.04 0 0.695 0.04 0 0.7 0.04 0 0.705 0.04 0 0.71 0.04 0 0.715 0.04 0 0.72 0.04 0 0.725 0.04 0 0.73 0.04 0 0.735 0.04 0 0.74 0.04 0 0.745 0.04 0 0.75 0.04 0 0.755 0.04 0 0.76 0.04 0 0.765 0.04 0 0.77 0.04 0 0.775 0.04 0 0.78 0.04 0 0.785 0.04 0 0.79 0.04 0 0.795 0.04 0 0.8 0.04 0 0.805 0.04 0 0.81 0.04 0 0.815 0.04 0 0.82 0.04 0 0.825 0.04 0 0.83 0.04 0 0.835 0.04 0 0.84 0.04 0 0.845 0.04 0 0.85 0.04 0 0.855 0.04 0 0.86 0.04 0 0.865 0.04 0 0.87 0.04 0 0.875 0.04 0 0.88 0.04 0 0.885 0.04 0 0.89 0.04 0 0.895 0.04 0 0.9 0.04 0 0.905 0.04 0 0.91 0.04 0 0.915 0.04 0 0.92 0.04 0 0.925 0.04 0 0.93 0.04 0 0.935 0.04 0 0.94 0.04 0 0.945 0.04 0 0.95 0.04 0 0.955 0.04 0 0.96 0.04 0 0.965 0.04 0 0.97 0.04 0 0.975 0.04 0 0.98 0.04 0 0.985 0.04 0 0.99 0.04 0 0.995 0.04 0 1 0.04 0 0 0.06 0 0.005 0.06 0 0.01 0.06 0 0.015 0.06 0 0.02 0.06 0 0.025 0.06 0 0.03 0.06 0 0.035 0.06 0 0.04 0.06 0 0.045 0.06 0 0.05 0.06 0 0.055 0.06 0 0.06 0.06 0 0.065 0.06 0 0.07 0.06 0 0.075 0.06 0 0.08 0.06 0 0.085 0.06 0 0.09 0.06 0 0.095 0.06 0 0.1 0.06 0 0.105 0.06 0 0.11 0.06 0 0.115 0.06 0 0.12 0.06 0 0.125 0.06 0 0.13 0.06 0 0.135 0.06 0 0.14 0.06 0 0.145 0.06 0 0.15 0.06 0 0.155 0.06 0 0.16 0.06 0 0.165 0.06 0 0.17 0.06 0 0.175 0.06 0 0.18 0.06 0 0.185 0.06 0 0.19 0.06 0 0.195 0.06 0 0.2 0.06 0 0.205 0.06 0 0.21 0.06 0 0.215 0.06 0 0.22 0.06 0 0.225 0.06 0 0.23 0.06 0 0.235 0.06 0 0.24 0.06 0 0.245 0.06 0 0.25 0.06 0 0.255 0.06 0 0.26 0.06 0 0.265 0.06 0 0.27 0.06 0 0.275 0.06 0 0.28 0.06 0 0.285 0.06 0 0.29 0.06 0 0.295 0.06 0 0.3 0.06 0 0.305 0.06 0 0.31 0.06 0 0.315 0.06 0 0.32 0.06 0 0.325 0.06 0 0.33 0.06 0 0.335 0.06 0 0.34 0.06 0 0.345 0.06 0 0.35 0.06 0 0.355 0.06 0 0.36 0.06 0 0.365 0.06 0 0.37 0.06 0 0.375 0.06 0 0.38 0.06 0 0.385 0.06 0 0.39 0.06 0 0.395 0.06 0 0.4 0.06 0 0.405 0.06 0 0.41 0.06 0 0.415 0.06 0 0.42 0.06 0 0.425 0.06 0 0.43 0.06 0 0.435 0.06 0 0.44 0.06 0 0.445 0.06 0 0.45 0.06 0 0.455 0.06 0 0.46 0.06 0 0.465 0.06 0 0.47 0.06 0 0.475 0.06 0 0.48 0.06 0 0.485 0.06 0 0.49 0.06 0 0.495 0.06 0 0.5 0.06 0 0.505 0.06 0 0.51 0.06 0 0.515 0.06 0 0.52 0.06 0 0.525 0.06 0 0.53 0.06 0 0.535 0.06 0 0.54 0.06 0 0.545 0.06 0 0.55 0.06 0 0.555 0.06 0 0.56 0.06 0 0.565 0.06 0 0.57 0.06 0 0.575 0.06 0 0.58 0.06 0 0.585 0.06 0 0.59 0.06 0 0.595 0.06 0 0.6 0.06 0 0.605 0.06 0 0.61 0.06 0 0.615 0.06 0 0.62 0.06 0 0.625 0.06 0 0.63 0.06 0 0.635 0.06 0 0.64 0.06 0 0.645 0.06 0 0.65 0.06 0 0.655 0.06 0 0.66 0.06 0 0.665 0.06 0 0.67 0.06 0 0.675 0.06 0 0.68 0.06 0 0.685 0.06 0 0.69 0.06 0 0.695 0.06 0 0.7 0.06 0 0.705 0.06 0 0.71 0.06 0 0.715 0.06 0 0.72 0.06 0 0.725 0.06 0 0.73 0.06 0 0.735 0.06 0 0.74 0.06 0 0.745 0.06 0 0.75 0.06 0 0.755 0.06 0 0.76 0.06 0 0.765 0.06 0 0.77 0.06 0 0.775 0.06 0 0.78 0.06 0 0.785 0.06 0 0.79 0.06 0 0.795 0.06 0 0.8 0.06 0 0.805 0.06 0 0.81 0.06 0 0.815 0.06 0 0.82 0.06 0 0.825 0.06 0 0.83 0.06 0 0.835 0.06 0 0.84 0.06 0 0.845 0.06 0 0.85 0.06 0 0.855 0.06 0 0.86 0.06 0 0.865 0.06 0 0.87 0.06 0 0.875 0.06 0 0.88 0.06 0 0.885 0.06 0 0.89 0.06 0 0.895 0.06 0 0.9 0.06 0 0.905 0.06 0 0.91 0.06 0 0.915 0.06 0 0.92 0.06 0 0.925 0.06 0 0.93 0.06 0 0.935 0.06 0 0.94 0.06 0 0.945 0.06 0 0.95 0.06 0 0.955 0.06 0 0.96 0.06 0 0.965 0.06 0 0.97 0.06 0 0.975 0.06 0 0.98 0.06 0 0.985 0.06 0 0.99 0.06 0 0.995 0.06 0 1 0.06 0 0 0.08 0 0.005 0.08 0 0.01 0.08 0 0.015 0.08 0 0.02 0.08 0 0.025 0.08 0 0.03 0.08 0 0.035 0.08 0 0.04 0.08 0 0.045 0.08 0 0.05 0.08 0 0.055 0.08 0 0.06 0.08 0 0.065 0.08 0 0.07 0.08 0 0.075 0.08 0 0.08 0.08 0 0.085 0.08 0 0.09 0.08 0 0.095 0.08 0 0.1 0.08 0 0.105 0.08 0 0.11 0.08 0 0.115 0.08 0 0.12 0.08 0 0.125 0.08 0 0.13 0.08 0 0.135 0.08 0 0.14 0.08 0 0.145 0.08 0 0.15 0.08 0 0.155 0.08 0 0.16 0.08 0 0.165 0.08 0
[...]
			<PointData Scalars="VitesseX">
				<DataArray Name="VitesseX" type="Float32" format="ascii">
 0 7.72222e-15 -1.68602e-14 -1.33091e-14 1.06746e-14 -3.96032e-14 -3.12621e-14 1.26953e-14 -1.51368e-14 1.75583e-14 3.24722e-15 -4.32978e-14 2.21024e-14 -9.79596e-14 6.0923e-14 2.83947e-14 -2.76981e-14 1.09128e-14 -8.81802e-14 6.55994e-14 -1.24599e-13 5.72737e-14 -5.15436e-14 -1.90564e-14 -1.51998e-13 -4.03306e-14 5.05482e-14 -2.00473e-13 -1.46489e-13 -1.30863e-13 -1.01697e-13 -2.06565e-13 -1.87842e-13 -3.54548e-14 -2.47057e-13 -1.28697e-14 1.51132e-13 7.6349e-14 -3.62455e-15 -1.82049e-13 -5.40144e-14 4.80464e-14 -1.05438e-13 -3.7834e-13 1.64984e-13 -2.49471e-13 1.29209e-13 -3.71872e-13 3.00898e-14 -1.83006e-13 -1.00855e-13 2.90161e-14 -1.59884e-13 5.54935e-14 -6.45694e-13 -8.18654e-14 2.83307e-13 3.50707e-13 3.44029e-12 2.98389e-11 2.26191e-10 1.62431e-09 1.08839e-08 6.78733e-08 3.92333e-07 2.09277e-06 1.02483e-05 4.57915e-05 0.000185315 0.000673129 0.00217045 0.00613242 0.0149792 0.0313147 0.0560199 0.087093 0.121197 0.156053 0.190867 0.225484 0.259873 0.294022 0.327919 0.361555 0.394914 0.427979 0.460726 0.493123 0.525133 0.556708 0.587788 0.618302 0.648163 0.677266 0.70549 0.732691 0.758708 0.783359 0.806448 0.827775 0.847145 0.864388 0.879378 0.892056 0.902442 0.910652 0.916883 0.921402 0.924513 0.926526 0.927731 0.928374 0.92865 0.928694 0.928642 0.928539 0.928404 0.92825 0.928088 0.927925 0.927763 0.927606 0.927452 0.927297 0.927132 0.926943 0.926698 0.926343 0.925778 0.924828 0.923197 0.920389 0.915605 0.907604 0.894543 0.873832 0.842118 0.795532 0.730393 0.644479 0.538791 0.419286 0.29739 0.187824 0.103458 0.0494176 0.0209451 0.00821912 0.00309674 0.00114295 0.000416767 0.000150597 5.39668e-05 1.91775e-05 6.75528e-06 2.35763e-06 8.14842e-07 2.78763e-07 9.43556e-08 3.15856e-08 1.04536e-08 3.41864e-09 1.10466e-09 3.52365e-10 1.10693e-10 3.40932e-11 1.006e-11 3.02406e-12 5.96802e-13 -5.0039e-13 2.57122e-13 -5.36746e-13 3.95179e-14 6.52905e-14 -6.36108e-14 -1.51708e-13 2.02703e-13 -2.30517e-13 1.33121e-13 -6.07169e-13 2.9992e-13 -3.40847e-13 -2.1949e-13 2.42227e-13 -4.3567e-13 2.45843e-13 -3.16706e-13 -1.75002e-13 1.07246e-12 -6.27814e-13 4.35002e-13 3.98601e-14 -9.95761e-14 2.39206e-13 2.65447e-13 6.72361e-13 4.24639e-14 -8.40727e-13 5.16939e-13 2.18004e-13 0 0 -2.15043e-14 -1.28339e-14 -1.94776e-14 -2.33407e-14 7.78942e-15 1.83928e-14 -3.7401e-14 7.36504e-15 -2.19853e-14 -9.68506e-15 1.52709e-14 -6.60172e-15 2.48705e-14 -4.94034e-14 2.95139e-14 -2.66997e-15 -4.84552e-14 -2.22974e-14 -4.08781e-14 6.02276e-14 -9.726e-14 -3.46893e-14 -1.03743e-13 6.44674e-14 -6.82798e-14 -2.45644e-13 -6.58765e-14 -1.62079e-13 -1.24778e-13 -1.81364e-13 -1.45988e-13 -1.48376e-13 -1.44776e-13 8.60724e-14 -5.82158e-14 -2.7861e-15 3.7859e-14 -7.90838e-14 5.69468e-14 -1.46535e-13 -8.59849e-14 -1.68603e-13 5.72126e-14 -3.34738e-13 -6.03948e-14 -1.70287e-13 4.48706e-14 -5.96649e-14 -4.67533e-15 9.61818e-14 -2.93943e-13 -1.28992e-13 -3.62796e-13 2.17441e-13 -7.22876e-14 -2.35972e-13 3.89904e-13 3.73825e-12 2.9531e-11 2.2649e-10 1.62392e-09 1.08841e-08 6.78728e-08 3.92333e-07 2.09277e-06 1.02483e-05 4.57915e-05 0.000185315 0.000673129 0.00217045 0.00613242 0.0149792 0.0313147 0.0560199 0.087093 0.121197 0.156053 0.190867 0.225484 0.259873 0.294022 0.327919 0.361555 0.394914 0.427979 0.460726 0.493123 0.525133 0.556708 0.587788 0.618302 0.648163 0.677266 0.70549 0.732691 0.758708 0.783359 0.806448 0.827775 0.847145 0.864388 0.879378 0.892056 0.902442 0.910652 0.916883 0.921402 0.924513 0.926526 0.927731 0.928374 0.92865 0.928694 0.928642 0.928539 0.928404 0.92825 0.928088 0.927925 0.927763 0.927606 0.927452 0.927297 0.927132 0.926943 0.926698 0.926343 0.925778 0.924828 0.923197 0.920389 0.915605 0.907604 0.894543 0.873832 0.842118 0.795532 0.730393 0.644479 0.538791 0.419286 0.29739 0.187824 0.103458 0.0494176 0.0209451 0.00821912 0.00309674 0.00114295 0.000416767 0.000150597 5.39668e-05 1.91775e-05 6.75528e-06 2.35763e-06 8.14843e-07 2.78763e-07 9.43555e-08 3.15863e-08 1.0453e-08 3.41913e-09 1.10464e-09 3.52224e-10 1.10814e-10 3.40081e-11 1.02167e-11 2.86499e-12 3.55337e-13 2.9413e-13 -5.18701e-13 1.40593e-13 -2.10728e-14 -1.31717e-13 2.26504e-13 -3.13414e-13 -1.27706e-13 6.65006e-14 -2.42781e-13 1.04149e-13 -4.88645e-13 -1.03142e-13 -2.64587e-13 -2.96729e-13 -5.33227e-14 -4.05752e-13 2.18093e-13 -9.11148e-14 -5.39937e-13 1.14032e-12 -3.41691e-13 3.26427e-14 5.14652e-13 -2.56018e-14 1.90819e-13 -8.77166e-14 3.10481e-13 3.55529e-13 -2.41018e-13 -1.16355e-13 0 0 -8.29889e-15 -1.99449e-14 -2.06178e-14 -4.8533e-15 -1.2792e-14 -8.81928e-15 1.15225e-14 -1.43611e-14 1.41119e-14 -4.34541e-14 -1.18965e-14 -4.79149e-15 3.08047e-14 3.18654e-14 -2.01699e-14 9.13526e-15 -1.75604e-14 1.50662e-14 -5.02643e-14 -1.10601e-13 -4.98095e-14 -1.61663e-14 -4.02417e-14 -1.28922e-13 -9.6734e-14 -6.23102e-14 -1.3414e-13 -1.79891e-13 -2.03975e-13 -7.36983e-14 1.12617e-14 -1.80034e-13 -5.9708e-14 -8.94036e-14 5.73623e-14 4.90061e-14 -8.94524e-14 -6.78975e-14 -4.53404e-14 -3.01422e-14 -2.53688e-13 -1.08771e-14 -1.66056e-13 3.61623e-14 -2.68835e-13 -6.8841e-14 -4.77492e-14 5.62857e-14 -1.58931e-13 -1.38801e-13 1.82194e-13 -1.59224e-14 -1.51929e-13 -3.01658e-13 -2.27627e-14 -3.41142e-14 5.713e-13 3.5436e-12 2.95203e-11 2.26392e-10 1.62398e-09 1.08837e-08 6.78732e-08 3.92333e-07 2.09277e-06 1.02483e-05 4.57915e-05 0.000185315 0.000673129 0.00217045 0.00613242 0.0149792 0.0313147 0.0560199 0.087093 0.121197 0.156053 0.190867 0.225484 0.259873 0.294022 0.327919 0.361555 0.394914 0.427979 0.460726 0.493123 0.525133 0.556708 0.587788 0.618302 0.648163 0.677266 0.70549 0.732691 0.758708 0.783359 0.806448 0.827775 0.847145 0.864388 0.879378 0.892056 0.902442 0.910652 0.916883 0.921402 0.924513 0.926526 0.927731 0.928374 0.92865 0.928694 0.928642 0.928539 0.928404 0.92825 0.928088 0.927925 0.927763 0.927606 0.927452 0.927297 0.927132 0.926943 0.926698 0.926343 0.925778 0.924828 0.923197 0.920389 0.915605 0.907604 0.894543 0.873832 0.842118 0.795532 0.730393 0.644479 0.538791 0.419286 0.29739 0.187824 0.103458 0.0494176 0.0209451 0.00821912 0.00309674 0.00114295 0.000416767 0.000150597 5.39668e-05 1.91775e-05 6.75528e-06 2.35763e-06 8.14843e-07 2.78763e-07 9.43556e-08 3.15862e-08 1.04535e-08 3.41907e-09 1.1047e-09 3.52484e-10 1.10779e-10 3.41756e-11 9.98661e-12 2.8287e-12 9.06902e-13 -3.48241e-13 -1.06643e-13 1.17904e-13 -5.84585e-14 3.30861e-13 -4.74516e-13 -1.78818e-13 -2.45717e-13 2.67352e-13 -9.33586e-14 -3.01831e-13 -6.31543e-14 -3.93178e-13 -4.52155e-13 -4.57493e-13 -2.47859e-13 -2.46469e-13 -2.38561e-13 -2.80462e-15 7.94063e-15 -2.3074e-13 4.57877e-13 7.08333e-14 1.00383e-13 3.10296e-13 2.70897e-13 -1.1797e-13 1.85605e-13 1.0519e-13 3.53103e-13 -1.86511e-13 0 0 3.66479e-15 1.40682e-15 -3.57606e-15 8.50539e-15 9.35854e-16 -7.32621e-15 -1.20349e-15 -1.22292e-14 1.23756e-14 -3.75802e-14 -3.45119e-14 8.76885e-15 -5.5906e-14 7.59228e-14 7.76301e-15 -9.18505e-15 1.98382e-14 -4.10068e-14 2.68527e-14 -8.73777e-14 -6.26006e-14 -1.81187e-13 -7.68313e-14 -8.76266e-14 -3.07987e-14 3.42743e-14 -1.93384e-13 -1.60128e-13 -3.85061e-14 -1.45427e-14 -9.80899e-14 -9.20514e-14 -1.61178e-14 -1.00479e-13 -1.02836e-14 9.26484e-14 -8.82671e-14 -1.27257e-13 -1.68752e-13 -3.92974e-14 -1.09535e-13 3.05128e-14 -2.28137e-13 4.38101e-14 -4.54409e-14 -6.32721e-14 -2.31119e-13 -5.6941e-14 -4.85182e-14 -6.05656e-14 7.87913e-14 -1.27215e-13 2.05881e-13 -2.69866e-13 -2.95987e-13 1.08198e-13 6.11524e-13 3.463e-12 2.95834e-11 2.26179e-10 1.62441e-09 1.08838e-08 6.78733e-08 3.92333e-07 2.09277e-06 1.02483e-05 4.57915e-05 0.000185315 0.000673129 0.00217045 0.00613242 0.0149792 0.0313147 0.0560199 0.087093 0.121197 0.156053 0.190867 0.225484 0.259873 0.294022 0.327919 0.361555 0.394914 0.427979 0.460726 0.493123 0.525133 0.556708 0.587788 0.618302 0.648163 0.677266 0.70549 0.732691 0.758708 0.783359 0.806448 0.827775 0.847145 0.864388 0.879378 0.892056 0.902442 0.910652 0.916883 0.921402 0.924513 0.926526 0.927731 0.928374 0.92865 0.928694 0.928642 0.928539 0.928404 0.92825 0.928088 0.927925 0.927763 0.927606 0.927452 0.927297 0.927132 0.926943 0.926698 0.926343 0.925778 0.924828 0.923197 0.920389 0.915605 0.907604 0.894543 0.873832 0.842118 0.795532 0.730393 0.644479 0.538791 0.419286 0.29739 0.187824 0.103458 0.0494176 0.0209451 0.00821912 0.00309674 0.00114295 0.000416767 0.000150597 5.39668e-05 1.91775e-05 6.75528e-06 2.35763e-06 8.14843e-07 2.78763e-07 9.43556e-08 3.15863e-08 1.04536e-08 3.41906e-09 1.10497e-09 3.52381e-10 1.10907e-10 3.4164e-11 1.00823e-11 2.78644e-12 6.86846e-13 -1.38222e-13 -1.28813e-13 1.26048e-13 -9.04187e-14 1.47964e-14 -2.24514e-13 -3.70605e-14 2.14784e-13 6.00858e-14 -8.00502e-13 -1.51676e-13 1.54154e-13 -2.19114e-13 -3.49768e-13 -1.67663e-13 -4.28224e-13 -2.5977e-13 -1.6016e-13 -1.93958e-13 3.45175e-13 -3.88806e-13 2.76141e-13 -2.29715e-13 5.55122e-14 1.01715e-12 -1.56e-13 3.82017e-13 -2.91079e-15 2.41297e-13 3.02682e-13 5.56929e-13 0 0 -3.0027e-15 1.57064e-14 1.82442e-14 1.07716e-16 2.31887e-14 2.41487e-14 -3.93362e-14 1.28719e-14 -1.30444e-14 -1.63376e-14 1.05508e-14 -1.61821e-14 -2.2429e-14 -2.548e-14 -1.02722e-14 -1.68441e-14 -3.14683e-14 -7.03382e-14 -3.94695e-14 5.98803e-14 -8.72457e-14 -1.46886e-13 -1.24941e-13 1.31122e-13 -2.81059e-14 -1.69863e-13 -7.68054e-14 -9.85516e-14 5.4638e-15 -1.51658e-13 -1.66855e-13 1.21043e-14 -4.35903e-14 1.59525e-13 -1.55466e-13 -1.15187e-13 6.72555e-14 -9.9589e-14 1.27069e-14 -1.80785e-13 -6.38924e-14 -1.43805e-13 6.57428e-14 -4.17478e-13 1.2283e-13 -2.41781e-13 -1.72251e-15 -1.15732e-13 1.28485e-13 1.8612e-13 -3.46344e-13 -1.06003e-13 -6.08876e-14 2.50959e-13 -1.54469e-13 -2.61837e-13 4.78752e-13 3.9262e-12 2.96328e-11 2.26399e-10 1.62427e-09 1.08842e-08 6.7873e-08 3.92333e-07 2.09277e-06 1.02483e-05 4.57915e-05 0.000185315 0.000673129 0.00217045 0.00613242 0.0149792 0.0313147 0.0560199 0.087093 0.121197 0.156053 0.190867 0.225484 0.259873 0.294022 0.327919 0.361555 0.394914 0.427979 0.460726 0.493123 0.525133 0.556708 0.587788 0.618302 0.648163 0.677266 0.70549 0.732691 0.758708 0.783359 0.806448 0.827775 0.847145 0.864388 0.879378 0.892056 0.902442 0.910652 0.916883 0.921402 0.924513 0.926526 0.927731 0.928374 0.92865 0.928694 0.928642 0.928539 0.928404 0.92825 0.928088 0.927925 0.927763 0.927606 0.927452 0.927297 0.927132 0.926943 0.926698 0.926343 0.925778 0.924828 0.923197 0.920389 0.915605 0.907604 0.894543 0.873832 0.842118 0.795532 0.730393 0.644479 0.538791 0.419286 0.29739 0.187824 0.103458 0.0494176 0.0209451 0.00821912 0.00309674 0.00114295 0.000416767 0.000150597 5.39668e-05 1.91775e-05 6.75528e-06 2.35763e-06 8.14843e-07 2.78763e-07 9.43558e-08 3.15864e-08 1.0453e-08 3.41932e-09 1.10481e-09 3.52252e-10 1.11207e-10 3.41298e-11 1.03916e-11 2.68574e-12 2.76257e-13 3.6704e-13 -5.25014e-13 1.24201e-13 6.42815e-14 -1.51372e-13 6.29112e-13 -2.77111e-13 6.94621e-14 1.99975e-14 -6.65025e-13 1.66579e-13 -5.63486e-13 -1.40782e-13 -3.02808e-13 -2.75355e-13 -2.53796e-13 -5.71743e-13 2.44961e-13 -2.52954e-13 -6.6486e-13 9.38093e-13 -3.40967e-13 -2.55472e-13 7.46538e-13 4.55608e-13 -1.67154e-14 1.78777e-13 2.04199e-13 5.41031e-13 -3.21513e-13 4.0353e-13 0 0 2.07981e-14 -2.48293e-15 2.80509e-14 3.0854e-14 -3.62604e-14 -2.27366e-14 3.42768e-14 -8.38671e-15 3.89128e-14 -2.18056e-14 -7.50714e-15 -2.41792e-14 -1.91371e-14 2.06549e-14 -1.07043e-13 -1.94056e-14 -2.99106e-14 -7.21158e-14 -8.58175e-14 -1.71741e-13 1.02884e-13 5.41045e-14 1.17275e-14 -1.01279e-13 -9.18533e-14 8.94084e-15 -1.03842e-13 -5.89603e-14 -2.01316e-13 -1.60596e-13 -2.95948e-14 -4.28464e-14 7.97363e-14 -7.80007e-14 -7.2079e-14 -1.60955e-13 1.32771e-13 7.40846e-14 -2.37053e-14 -1.04204e-13 -1.96074e-13 -1.38622e-13 -2.37118e-13 -1.57909e-14 -3.29811e-13 -2.49172e-14 -9.83195e-14 1.4441e-13 -1.3751e-13 -7.74502e-14 1.3102e-13 1.08678e-13 -5.63092e-14 -6.42241e-13 3.00221e-13 -5.30473e-14 4.47952e-13 3.97739e-12 2.99162e-11 2.26437e-10 1.62414e-09 1.08841e-08 6.78733e-08 3.92333e-07 2.09277e-06 1.02483e-05 4.57915e-05 0.000185315 0.000673129 0.00217045 0.00613242 0.0149792 0.0313147 0.0560199 0.087093 0.121197 0.156053 0.190867 0.225484 0.259873 0.294022 0.327919 0.361555 0.394914 0.427979 0.460726 0.493123 0.525133 0.556708 0.587788 0.618302 0.648163 0.677266 0.70549 0.732691 0.758708 0.783359 0.806448 0.827775 0.847145 0.864388 0.879378 0.892056 0.902442 0.910652 0.916883 0.921402 0.924513 0.926526 0.927731 0.928374 0.92865 0.928694 0.928642 0.928539 0.928404 0.92825 0.928088 0.927925 0.927763 0.927606 0.927452 0.927297 0.927132 0.926943 0.926698 0.926343 0.925778 0.924828 0.923197 0.920389 0.915605 0.907604 0.894543 0.873832 0.842118 0.795532 0.730393 0.644479 0.538791 0.419286 0.29739 0.187824 0.103458 0.0494176 0.0209451 0.00821912 0.00309674 0.00114295 0.000416767 0.000150597 5.39668e-05 1.91775e-05 6.75528e-06 2.35763e-06 8.14843e-07 2.78763e-07 9.43562e-08 3.15859e-08 1.04533e-08 3.41903e-09 1.10445e-09 3.52627e-10 1.11224e-10 3.43596e-11 1.02185e-11 2.75008e-12 8.78754e-13 -7.74609e-13 2.88837e-13 -5.85818e-13 2.74147e-13 6.5811e-13 2.41601e-13 -3.62616e-13 -3.23963e-13 9.10094e-14 7.02921e-13 -7.82618e-13 -2.84379e-13 -7.64255e-13 -5.00708e-13 -2.94687e-13 -4.75887e-13 -5.95394e-14 -4.19771e-13 -1.16372e-13 1.48143e-13 -7.16134e-13 7.99923e-13 6.47255e-14 4.53935e-13 -2.12075e-13 7.04171e-13 2.05376e-13 2.06931e-13 -7.41935e-13 4.56793e-13 -2.29106e-13 0
				</DataArray>
				<DataArray Name="VitesseY" type="Float32" format="ascii">