<?xml version="1.0"?>
<VTKFile type="PolyData">
	<PolyData>
		<Piece NumberOfPoints="1206" NumberOfPolys="1000">
			<Points>
				<DataArray type="Float32" NumberOfComponents="3" format="ascii">
 0 0 0 0.005 0 0 0.01 0 0 0.015 0 0 0.02 0 0 0.025 0 0 0.03 0 0 0.035 0 0 0.04 0 0 0.045 0 0 0.05 0 0 0.055 0 0 0.06 0 0 0.065 0 0 0.07 0 0 0.075 0 0 0.08 0 0 0.085 0 0 0.09 0 0 0.095 0 0 0.1 0 0 0.105 0 0 0.11 0 0 0.115 0 0 0.12 0 0 0.125 0 0 0.13 0 0 0.135 0 0 0.14 0 0 0.145 0 0 0.15 0 0 0.155 0 0 0.16 0 0 0.165 0 0 0.17 0 0 0.175 0 0 0.18 0 0 0.185 0 0 0.19 0 0 0.195 0 0 0.2 0 0 0.205 0 0 0.21 0 0 0.215 0 0 0.22 0 0 0.225 0 0 0.23 0 0 0.235 0 0 0.24 0 0 0.245 0 0 0.25 0 0 0.255 0 0 0.26 0 0 0.265 0 0 0.27 0 0 0.275 0 0 0.28 0 0 0.285 0 0 0.29 0 0 0.295 0 0 0.3 0 0 0.305 0 0 0.31 0 0 0.315 0 0 0.32 0 0 0.325 0 0 0.33 0 0 0.335 0 0 0.34 0 0 0.345 0 0 0.35 0 0 0.355 0 0 0.36 0 0 0.365 0 0 0.37 0 0 0.375 0 0 0.38 0 0 0.385 0 0 0.39 0 0 0.395 0 0 0.4 0 0 0.405 0 0 0.41 0 0 0.415 0 0 0.42 0 0 0.425 0 0 0.43 0 0 0.435 0 0 0.44 0 0 0.445 0 0 0.45 0 0 0.455 0 0 0.46 0 0 0.465 0 0 0.47 0 0 0.475 0 0 0.48 0 0 0.485 0 0 0.49 0 0 0.495 0 0 0.5 0 0 0.505 0 0 0.51 0 0 0.515 0 0 0.52 0 0 0.525 0 0 0.53 0 0 0.535 0 0 0.54 0 0 0.545 0 0 0.55 0 0 0.555 0 0 0.56 0 0 0.565 0 0 0.57 0 0 0.575 0 0 0.58 0 0 0.585 0 0 0.59 0 0 0.595 0 0 0.6 0 0 0.605 0 0 0.61 0 0 0.615 0 0 0.62 0 0 0.625 0 0 0.63 0 0 0.635 0 0 0.64 0 0 0.645 0 0 0.65 0 0 0.655 0 0 0.66 0 0 0.665 0 0 0.67 0 0 0.675 0 0 0.68 0 0 0.685 0 0 0.69 0 0 0.695 0 0 0.7 0 0 0.705 0 0 0.71 0 0 0.715 0 0 0.72 0 0 0.725 0 0 0.73 0 0 0.735 0 0 0.74 0 0 0.745 0 0 0.75 0 0 0.755 0 0 0.76 0 0 0.765 0 0 0.77 0 0 0.775 0 0 0.78 0 0 0.785 0 0 0.79 0 0 0.795 0 0 0.8 0 0 0.805 0 0 0.81 0 0 0.815 0 0 0.82 0 0 0.825 0 0 0.83 0 0 0.835 0 0 0.84 0 0 0.845 0 0 0.85 0 0 0.855 0 0 0.86 0 0 0.865 0 0 0.87 0 0 0.875 0 0 0.88 0 0 0.885 0 0 0.89 0 0 0.895 0 0 0.9 0 0 0.905 0 0 0.91 0 0 0.915 0 0 0.92 0 0 0.925 0 0 0.93 0 0 0.935 0 0 0.94 0 0 0.945 0 0 0.95 0 0 0.955 0 0 0.96 0 0 0.965 0 0 0.97 0 0 0.975 0 0 0.98 0 0 0.985 0 0 0.99 0 0 0.995 0 0 1 0 0 0 0.02 0 0.005 0.02 0 0.01 0.02 0 0.015 0.02 0 0.02 0.02 0 0.025 0.02 0 0.03 0.02 0 0.035 0.02 0 0.04 0.02 0 0.045 0.02 0 0.05 0.02 0 0.055 0.02 0 0.06 0.02 0 0.065 0.02 0 0.07 0.02 0 0.075 0.02 0 0.08 0.02 0 0.085 0.02 0 0.09 0.02 0 0.095 0.02 0 0.1 0.02 0 0.105 0.02 0 0.11 0.02 0 0.115 0.02 0 0.12 0.02 0 0.125 0.02 0 0.13 0.02 0 0.135 0.02 0 0.14 0.02 0 0.145 0.02 0 0.15 0.02 0 0.155 0.02 0 0.16 0.02 0 0.165 0.02 0 0.17 0.02 0 0.175 0.02 0 0.18 0.02 0 0.185 0.02 0 0.19 0.02 0 0.195 0.02 0 0.2 0.02 0 0.205 0.02 0 0.21 0.02 0 0.215 0.02 0 0.22 0.02 0 0.225 0.02 0 0.23 0.02 0 0.235 0.02 0 0.24 0.02 0 0.245 0.02 0 0.25 0.02 0 0.255 0.02 0 0.26 0.02 0 0.265 0.02 0 0.27 0.02 0 0.275 0.02 0 0.28 0.02 0 0.285 0.02 0 0.29 0.02 0 0.295 0.02 0 0.3 0.02 0 0.305 0.02 0 0.31 0.02 0 0.315 0.02 0 0.32 0.02 0 0.325 0.02 0 0.33 0.02 0 0.335 0.02 0 0.34 0.02 0 0.345 0.02 0 0.35 0.02 0 0.355 0.02 0 0.36 0.02 0 0.365 0.02 0 0.37 0.02 0 0.375 0.02 0 0.38 0.02 0 0.385 0.02 0 0.39 0.02 0 0.395 0.02 0 0.4 0.02 0 0.405 0.02 0 0.41 0.02 0 0.415 0.02 0 0.42 0.02 0 0.425 0.02 0 0.43 0.02 0 0.435 0.02 0 0.44 0.02 0 0.445 0.02 0 0.45 0.02 0 0.455 0.02 0 0.46 0.02 0 0.465 0.02 0 0.47 0.02 0 0.475 0.02 0 0.48 0.02 0 0.485 0.02 0 0.49 0.02 0 0.495 0.02 0 0.5 0.02 0 0.505 0.02 0 0.51 0.02 0 0.515 0.02 0 0.52 0.02 0 0.525 0.02 0 0.53 0.02 0 0.535 0.02 0 0.54 0.02 0 0.545 0.02 0 0.55 0.02 0 0.555 0.02 0 0.56 0.02 0 0.565 0.02 0 0.57 0.02 0 0.575 0.02 0 0.58 0.02 0 0.585 0.02 0 0.59 0.02 0 0.595 0.02 0 0.6 0.02 0 0.605 0.02 0 0.61 0.02 0 0.615 0.02 0 0.62 0.02 0 0.625 0.02 0 0.63 0.02 0 0.635 0.02 0 0.64 0.02 0 0.645 0.02 0 0.65 0.02 0 0.655 0.02 0 0.66 0.02 0 0.665 0.02 0 0.67 0.02 0 0.675 0.02 0 0.68 0.02 0 0.685 0.02 0 0.69 0.02 0 0.695 0.02 0 0.7 0.02 0 0.705 0.02 0 0.71 0.02 0 0.715 0.02 0 0.72 0.02 0 0.725 0.02 0 0.73 0.02 0 0.735 0.02 0 0.74 0.02 0 0.745 0.02 0 0.75 0.02 0 0.755 0.02 0 0.76 0.02 0 0.765 0.02 0 0.77 0.02 0 0.775 0.02 0 0.78 0.02 0 0.785 0.02 0 0.79 0.02 0 0.795 0.02 0 0.8 0.02 0 0.805 0.02 0 0.81 0.02 0 0.815 0.02 0 0.82 0.02 0 0.825 0.02 0 0.83 0.02 0 0.835 0.02 0 0.84 0.02 0 0.845 0.02 0 0.85 0.02 0 0.855 0.02 0 0.86 0.02 0 0.865 0.02 0 0.87 0.02 0 0.875 0.02 0 0.88 0.02 0 0.885 0.02 0 0.89 0.02 0 0.895 0.02 0 0.9 0.02 0 0.905 0.02 0 0.91 0.02 0 0.915 0.02 0 0.92 0.02 0 0.925 0.02 0 0.93 0.02 0 0.935 0.02 0 0.94 0.02 0 0.945 0.02 0 0.95 0.02 0 0.955 0.02 0 0.96 0.02 0 0.965 0.02 0 0.97 0.02 0 0.975 0.02 0 0.98 0.02 0 0.985 0.02 0 0.99 0.02 0 0.995 0.02 0 1 0.02 0 0 0.04 0 0.005 0.04 0 0.01 0.04 0 0.015 0.04 0 0.02 0.04 0 0.025 0.04 0 0.03 0.04 0 0.035 0.04 0 0.04 0.04 0 0.045 0.04 0 0.05 0.04 0 0.055 0.04 0 0.06 0.04 0 0.065 0.04 0 0.07 0.04 0 0.075 0.04 0 0.08 0.04 0 0.085 0.04 0 0.09 0.04 0 0.095 0.04 0 0.1 0.04 0 0.105 0.04 0 0.11 0.04 0 0.115 0.04 0 0.12 0.04 0 0.125 0.04 0 0.13 0.04 0 0.135 0.04 0 0.14 0.04 0 0.145 0.04 0 0.15 0.04 0 0.155 0.04 0 0.16 0.04 0 0.165 0.04 0 0.17 0.04 0 0.175 0.04 0 0.18 0.04 0 0.185 0.04 0 0.19 0.04 0 0.195 0.04 0 0.2 0.04 0 0.205 0.04 0 0.21 0.04 0 0.215 0.04 0 0.22 0.04 0 0.225 0.04 0 0.23 0.04 0 0.235 0.04 0 0.24 0.04 0 0.245 0.04 0 0.25 0.04 0 0.255 0.04 0 0.26 0.04 0 0.265 0.04 0 0.27 0.04 0 0.275 0.04 0 0.28 0.04 0 0.285 0.04 0 0.29 0.04 0 0.295 0.04 0 0.3 0.04 0 0.305 0.04 0 0.31 0.04 0 0.315 0.04 0 0.32 0.04 0 0.325 0.04 0 0.33 0.04 0 0.335 0.04 0 0.34 0.04 0 0.345 0.04 0 0.35 0.04 0 0.355 0.04 0 0.36 0.04 0 0.365 0.04 0 0.37 0.04 0 0.375 0.04 0 0.38 0.04 0 0.385 0.04 0 0.39 0.04 0 0.395 0.04 0 0.4 0.04 0 0.405 0.04 0 0.41 0.04 0 0.415 0.04 0 0.42 0.04 0 0.425 0.04 0 0.43 0.04 0 0.435 0.04 0 0.44 0.04 0 0.445 0.04 0 0.45 0.04 0 0.455 0.04 0 0.46 0.04 0 0.465 0.04 0 0.47 0.04 0 0.475 0.04 0 0.48 0.04 0 0.485 0.04 0 0.49 0.04 0 0.495 0.04 0 0.5 0.04 0 0.505 0.04 0 0.51 0.04 0 0.515 0.04 0 0.52 0.04 0 0.525 0.04 0 0.53 0.04 0 0.535 0.04 0 0.54 0.04 0 0.545 0.04 0 0.55 0.04 0 0.555 0.04 0 0.56 0.04 0 0.565 0.04 0 0.57 0.04 0 0.575 0.04 0 0.58 0.04 0 0.585 0.04 0 0.59 0.04 0 0.595 0.04 0 0.6 0.04 0 0.605 0.04 0 0.61 0.04 0 0.615 0.04 0 0.62 0.04 0 0.625 0.04 0 0.63 0.04 0 0.635 0.04 0 0.64 0.04 0 0.645 0.04 0 0.65 0.04 0 0.655 0.04 0 0.66 0.04 0 0.665 0.04 0 0.67 0.04 0 0.675 0.04 0 0.68 0.04 0 0.685 0.04 0 0.69 0.04 0 0.695 0.04 0 0.7 0.04 0 0.705 0.04 0 0.71 0.04 0 0.715 0.04 0 0.72 0.04 0 0.725 0.04 0 0.73 0.04 0 0.735 0.04 0 0.74 0.04 0 0.745 0.04 0 0.75 0.04 0 0.755 0.04 0 0.76 0.04 0 0.765 0.04 0 0.77 0.04 0 0.775 0.04 0 0.78 0.04 0 0.785 0.04 0 0.79 0.04 0 0.795 0.04 0 0.8 0.04 0 0.805 0.04 0 0.81 0.04 0 0.815 0.04 0 0.82 0.04 0 0.825 0.04 0 0.83 0.04 0 0.835 0.04 0 0.84 0.04 0 0.845 0.04 0 0.85 0.04 0 0.855 0.04 0 0.86 0.04 0 0.865 0.04 0 0.87 0.04 0 0.875 0.04 0 0.88 0.04 0 0.885 0.04 0 0.89 0.04 0 0.895 0.04 0 0.9 0.04 0 0.905 0.04 0 0.91 0.04 0 0.915 0.04 0 0.92 0.04 0 0.925 0.04 0 0.93 0.04 0 0.935 0.04 0 0.94 0.04 0 0.945 0.04 0 0.95 0.04 0 0.955 0.04 0 0.96 0.04 0 0.965 0.04 0 0.97 0.04 0 0.975 0.04 0 0.98 0.04 0 0.985 0.04 0 0.99 0.04 0 0.995 0.04 0 1 0.04 0 0 0.06 0 0.005 0.06 0 0.01 0.06 0 0.015 0.06 0 0.02 0.06 0 0.025 0.06 0 0.03 0.06 0 0.035 0.06 0 0.04 0.06 0 0.045 0.06 0 0.05 0.06 0 0.055 0.06 0 0.06 0.06 0 0.065 0.06 0 0.07 0.06 0 0.075 0.06 0 0.08 0.06 0 0.085 0.06 0 0.09 0.06 0 0.095 0.06 0 0.1 0.06 0 0.105 0.06 0 0.11 0.06 0 0.115 0.06 0 0.12 0.06 0 0.125 0.06 0 0.13 0.06 0 0.135 0.06 0 0.14 0.06 0 0.145 0.06 0 0.15 0.06 0 0.155 0.06 0 0.16 0.06 0 0.165 0.06 0 0.17 0.06 0 0.175 0.06 0 0.18 0.06 0 0.185 0.06 0 0.19 0.06 0 0.195 0.06 0 0.2 0.06 0 0.205 0.06 0 0.21 0.06 0 0.215 0.06 0 0.22 0.06 0 0.225 0.06 0 0.23 0.06 0 0.235 0.06 0 0.24 0.06 0 0.245 0.06 0 0.25 0.06 0 0.255 0.06 0 0.26 0.06 0 0.265 0.06 0 0.27 0.06 0 0.275 0.06 0 0.28 0.06 0 0.285 0.06 0 0.29 0.06 0 0.295 0.06 0 0.3 0.06 0 0.305 0.06 0 0.31 0.06 0 0.315 0.06 0 0.32 0.06 0 0.325 0.06 0 0.33 0.06 0 0.335 0.06 0 0.34 0.06 0 0.345 0.06 0 0.35 0.06 0 0.355 0.06 0 0.36 0.06 0 0.365 0.06 0 0.37 0.06 0 0.375 0.06 0 0.38 0.06 0 0.385 0.06 0 0.39 0.06 0 0.395 0.06 0 0.4 0.06 0 0.405 0.06 0 0.41 0.06 0 0.415 0.06 0 0.42 0.06 0 0.425 0.06 0 0.43 0.06 0 0.435 0.06 0 0.44 0.06 0 0.445 0.06 0 0.45 0.06 0 0.455 0.06 0 0.46 0.06 0 0.465 0.06 0 0.47 0.06 0 0.475 0.06 0 0.48 0.06 0 0.485 0.06 0 0.49 0.06 0 0.495 0.06 0 0.5 0.06 0 0.505 0.06 0 0.51 0.06 0 0.515 0.06 0 0.52 0.06 0 0.525 0.06 0 0.53 0.06 0 0.535 0.06 0 0.54 0.06 0 0.545 0.06 0 0.55 0.06 0 0.555 0.06 0 0.56 0.06 0 0.565 0.06 0 0.57 0.06 0 0.575 0.06 0 0.58 0.06 0 0.585 0.06 0 0.59 0.06 0 0.595 0.06 0 0.6 0.06 0 0.605 0.06 0 0.61 0.06 0 0.615 0.06 0 0.62 0.06 0 0.625 0.06 0 0.63 0.06 0 0.635 0.06 0 0.64 0.06 0 0.645 0.06 0 0.65 0.06 0 0.655 0.06 0 0.66 0.06 0 0.665 0.06 0 0.67 0.06 0 0.675 0.06 0 0.68 0.06 0 0.685 0.06 0 0.69 0.06 0 0.695 0.06 0 0.7 0.06 0 0.705 0.06 0 0.71 0.06 0 0.715 0.06 0 0.72 0.06 0 0.725 0.06 0 0.73 0.06 0 0.735 0.06 0 0.74 0.06 0 0.745 0.06 0 0.75 0.06 0 0.755 0.06 0 0.76 0.06 0 0.765 0.06 0 0.77 0.06 0 0.775 0.06 0 0.78 0.06 0 0.785 0.06 0 0.79 0.06 0 0.795 0.06 0 0.8 0.06 0 0.805 0.06 0 0.81 0.06 0 0.815 0.06 0 0.82 0.06 0 0.825 0.06 0 0.83 0.06 0 0.835 0.06 0 0.84 0.06 0 0.845 0.06 0 0.85 0.06 0 0.855 0.06 0 0.86 0.06 0 0.865 0.06 0 0.87 0.06 0 0.875 0.06 0 0.88 0.06 0 0.885 0.06 0 0.89 0.06 0 0.895 0.06 0 0.9 0.06 0 0.905 0.06 0 0.91 0.06 0 0.915 0.06 0 0.92 0.06 0 0.925 0.06 0 0.93 0.06 0 0.935 0.06 0 0.94 0.06 0 0.945 0.06 0 0.95 0.06 0 0.955 0.06 0 0.96 0.06 0 0.965 0.06 0 0.97 0.06 0 0.975 0.06 0 0.98 0.06 0 0.985 0.06 0 0.99 0.06 0 0.995 0.06 0 1 0.06 0 0 0.08 0 0.005 0.08 0 0.01 0.08 0 0.015 0.08 0 0.02 0.08 0 0.025 0.08 0 0.03 0.08 0 0.035 0.08 0 0.04 0.08 0 0.045 0.08 0 0.05 0.08 0 0.055 0.08 0 0.06 0.08 0 0.065 0.08 0 0.07 0.08 0 0.075 0.08 0 0.08 0.08 0 0.085 0.08 0 0.09 0.08 0 0.095 0.08 0 0.1 0.08 0 0.105 0.08 0 0.11 0.08 0 0.115 0.08 0 0.12 0.08 0 0.125 0.08 0 0.13 0.08 0 0.135 0.08 0 0.14 0.08 0 0.145 0.08 0 0.15 0.08 0 0.155 0.08 0 0.16 0.08 0 0.165 0.08 0
[...]
			<PointData Scalars="VitesseX">
				<DataArray Name="VitesseX" type="Float32" format="ascii">
 0 6.21852e-16 -1.02826e-14 -1.99632e-14 7.81678e-15 5.13677e-15 -3.77019e-14 -2.36483e-14 1.35642e-14 -4.62831e-14 -2.09329e-14 6.43468e-15 -3.6332e-14 -3.02146e-15 -1.08769e-13 -3.57182e-14 -1.73874e-14 -1.46063e-13 -5.89018e-14 -5.17649e-14 -2.63038e-14 -1.20622e-13 -6.40882e-14 -8.72938e-15 -7.30839e-14 -2.35792e-14 1.28186e-13 -8.70997e-14 -4.65127e-14 -1.33291e-13 4.43047e-14 -8.12494e-15 -1.37989e-13 2.68163e-14 -2.64092e-13 2.01501e-14 -1.66486e-13 -5.91158e-14 -1.59117e-13 2.23712e-14 -1.21274e-13 -2.94733e-13 6.12686e-15 5.33753e-14 -1.02182e-13 -3.0405e-15 7.52333e-13 5.0495e-12 3.252e-11 2.04935e-10 1.22458e-09 6.90657e-09 3.67111e-08 1.83368e-07 8.58002e-07 3.74743e-06 1.52145e-05 5.71394e-05 0.000197353 0.000622504 0.00177832 0.00455734 0.0103757 0.0208273 0.036802 0.057708 0.0817795 0.107259 0.133151 0.159096 0.184995 0.210818 0.236552 0.262191 0.287729 0.313163 0.338486 0.363696 0.388785 0.413746 0.43857 0.463248 0.487765 0.512108 0.536257 0.560192 0.583886 0.607311 0.630431 0.653205 0.675586 0.697518 0.718938 0.739773 0.75994 0.779349 0.797898 0.815481 0.831986 0.847302 0.861325 0.873964 0.885153 0.894855 0.903075 0.90986 0.915299 0.919521 0.922683 0.924958 0.92652 0.927534 0.928143 0.928468 0.928605 0.928617 0.928581 0.928514 0.928427 0.928327 0.92822 0.928111 0.928002 0.927896 0.927794 0.927696 0.927603 0.927513 0.927427 0.927345 0.927264 0.927185 0.927107 0.92703 0.92695 0.926868 0.926777 0.926672 0.92654 0.926359 0.926091 0.925671 0.924988 0.923859 0.921987 0.918894 0.913827 0.905635 0.892617 0.872384 0.841808 0.797215 0.734979 0.652668 0.550709 0.434141 0.31339 0.202589 0.114916 0.0567559 0.0248621 0.0100539 0.00389736 0.0014811 0.000557459 0.000208637 7.77503e-05 2.88583e-05 1.0667e-05 3.92547e-06 1.4377e-06 5.23855e-07 1.89826e-07 6.83814e-08 2.44794e-08 8.70512e-09 3.07416e-09 1.07734e-09 3.74933e-10 1.28981e-10 4.36385e-11 1.50306e-11 4.97952e-12 1.40044e-12 9.10286e-14 6.95907e-13 -1.14275e-13 -4.54716e-13 1.97055e-14 1.40975e-13 -3.63252e-13 1.23211e-13 -1.8799e-13 2.5454e-13 3.29474e-13 2.42606e-13 -6.36057e-13 -2.37339e-13 7.73434e-13 -5.01893e-13 0 0 -6.43469e-15 -1.03695e-14 4.46128e-15 -2.04402e-14 -1.49517e-14 2.27509e-14 -4.11225e-16 -4.70152e-14 3.83056e-16 -3.4726e-14 -6.1054e-14 9.90009e-15 -6.44464e-14 -2.82145e-14 -7.3447e-14 -1.0435e-13 -3.30189e-14 -6.58142e-14 -9.05147e-14 -1.00555e-13 -2.20101e-14 -3.8815e-14 -5.56579e-14 6.07103e-14 6.97983e-15 -1.10263e-13 5.74126e-14 -1.52234e-13 8.40836e-14 -6.78871e-14 -7.6485e-14 -1.04732e-13 -1.82502e-13 -7.72211e-14 -3.11805e-14 -5.18965e-14 -1.00688e-13 -6.07409e-14 -1.8469e-13 -6.77447e-14 -4.42119e-14 -2.22342e-13 -6.17498e-14 1.09794e-13 1.25012e-13 7.219e-13 4.79203e-12 3.24691e-11 2.05045e-10 1.22441e-09 6.9068e-09 3.67111e-08 1.83368e-07 8.58002e-07 3.74743e-06 1.52145e-05 5.71394e-05 0.000197353 0.000622504 0.00177832 0.00455734 0.0103757 0.0208273 0.036802 0.057708 0.0817795 0.107259 0.133151 0.159096 0.184995 0.210818 0.236552 0.262191 0.287729 0.313163 0.338486 0.363696 0.388785 0.413746 0.43857 0.463248 0.487765 0.512108 0.536257 0.560192 0.583886 0.607311 0.630431 0.653205 0.675586 0.697518 0.718938 0.739773 0.75994 0.779349 0.797898 0.815481 0.831986 0.847302 0.861325 0.873964 0.885153 0.894855 0.903075 0.90986 0.915299 0.919521 0.922683 0.924958 0.92652 0.927534 0.928143 0.928468 0.928605 0.928617 0.928581 0.928514 0.928427 0.928327 0.92822 0.928111 0.928002 0.927896 0.927794 0.927696 0.927603 0.927513 0.927427 0.927345 0.927264 0.927185 0.927107 0.92703 0.92695 0.926868 0.926777 0.926672 0.92654 0.926359 0.926091 0.925671 0.924988 0.923859 0.921987 0.918894 0.913827 0.905635 0.892617 0.872384 0.841808 0.797215 0.734979 0.652668 0.550709 0.434141 0.31339 0.202589 0.114916 0.0567559 0.0248621 0.0100539 0.00389736 0.0014811 0.000557459 0.000208637 7.77503e-05 2.88583e-05 1.0667e-05 3.92547e-06 1.4377e-06 5.23855e-07 1.89826e-07 6.83815e-08 2.44793e-08 8.70529e-09 3.07414e-09 1.07763e-09 3.74556e-10 1.29118e-10 4.41108e-11 1.46269e-11 4.82804e-12 1.54192e-12 2.92309e-13 -3.58179e-14 2.25896e-13 5.32093e-14 -4.23955e-13 -3.09409e-14 2.23117e-13 -5.22528e-13 4.40878e-13 -2.34342e-13 2.92595e-13 -1.26822e-13 5.67693e-13 1.55819e-13 -3.69095e-13 2.45164e-13 0 0 1.25093e-15 -5.14961e-16 -4.38691e-15 1.59309e-14 1.72181e-14 -3.97708e-15 -4.26929e-14 1.2819e-14 -4.17221e-14 -2.26276e-14 -2.03804e-14 -1.02264e-13 -4.06077e-14 -6.24621e-14 -9.11664e-14 -5.5123e-14 -6.69894e-14 -3.07177e-14 -8.57602e-14 -4.01178e-14 -6.1896e-14 -2.85216e-14 -2.35468e-15 -6.50898e-14 -2.03353e-14 -3.4369e-14 -5.21663e-14 6.1865e-14 -1.43171e-13 -4.93025e-14 -6.09722e-14 -1.42543e-14 -1.6079e-13 -1.51311e-14 -1.68672e-13 -7.01457e-15 -6.83138e-14 -1.05185e-13 -6.14773e-14 -1.66563e-13 -1.11481e-13 9.19926e-15 -5.93358e-14 -8.51724e-14 8.57721e-14 8.27355e-13 4.79648e-12 3.2723e-11 2.05105e-10 1.22438e-09 6.90674e-09 3.67111e-08 1.83368e-07 8.58002e-07 3.74743e-06 1.52145e-05 5.71394e-05 0.000197353 0.000622504 0.00177832 0.00455734 0.0103757 0.0208273 0.036802 0.057708 0.0817795 0.107259 0.133151 0.159096 0.184995 0.210818 0.236552 0.262191 0.287729 0.313163 0.338486 0.363696 0.388785 0.413746 0.43857 0.463248 0.487765 0.512108 0.536257 0.560192 0.583886 0.607311 0.630431 0.653205 0.675586 0.697518 0.718938 0.739773 0.75994 0.779349 0.797898 0.815481 0.831986 0.847302 0.861325 0.873964 0.885153 0.894855 0.903075 0.90986 0.915299 0.919521 0.922683 0.924958 0.92652 0.927534 0.928143 0.928468 0.928605 0.928617 0.928581 0.928514 0.928427 0.928327 0.92822 0.928111 0.928002 0.927896 0.927794 0.927696 0.927603 0.927513 0.927427 0.927345 0.927264 0.927185 0.927107 0.92703 0.92695 0.926868 0.926777 0.926672 0.92654 0.926359 0.926091 0.925671 0.924988 0.923859 0.921987 0.918894 0.913827 0.905635 0.892617 0.872384 0.841808 0.797215 0.734979 0.652668 0.550709 0.434141 0.31339 0.202589 0.114916 0.0567559 0.0248621 0.0100539 0.00389736 0.0014811 0.000557459 0.000208637 7.77503e-05 2.88583e-05 1.0667e-05 3.92547e-06 1.4377e-06 5.23855e-07 1.89826e-07 6.83816e-08 2.44794e-08 8.7053e-09 3.07414e-09 1.07763e-09 3.74646e-10 1.29278e-10 4.39772e-11 1.48499e-11 4.54175e-12 1.6326e-12 3.07008e-13 -7.42141e-14 -1.07232e-14 2.29179e-13 -1.66567e-13 -3.64358e-13 9.41652e-14 -2.21229e-13 1.38393e-13 3.09846e-13 -2.15569e-13 -2.6939e-13 -1.49042e-13 1.79915e-13 1.27842e-13 -1.09815e-13 0 0 2.22708e-15 2.58544e-15 3.13457e-15 -4.25189e-15 7.19033e-15 2.48696e-15 -4.28992e-14 8.64997e-15 -4.36397e-14 -4.87116e-14 -7.6765e-15 -7.50952e-14 -4.71396e-14 -1.18453e-13 -3.48485e-14 -8.22856e-14 -5.89594e-14 -6.03258e-14 -4.79034e-14 -7.34061e-15 -8.48928e-14 -1.97331e-14 -5.4599e-14 -4.02999e-15 -1.35395e-14 -4.60473e-14 -9.51067e-14 -3.84843e-14 -4.07692e-14 2.32422e-14 -6.33775e-14 -1.40937e-13 5.39714e-14 -1.82577e-13 -8.81045e-14 -1.7598e-13 -6.21709e-14 -6.40549e-14 1.50481e-15 -1.76807e-13 -1.8133e-13 9.17207e-14 -1.75325e-14 -6.50531e-14 2.19338e-13 6.15627e-13 5.09778e-12 3.27505e-11 2.05121e-10 1.22462e-09 6.90655e-09 3.67109e-08 1.83368e-07 8.58002e-07 3.74743e-06 1.52145e-05 5.71394e-05 0.000197353 0.000622504 0.00177832 0.00455734 0.0103757 0.0208273 0.036802 0.057708 0.0817795 0.107259 0.133151 0.159096 0.184995 0.210818 0.236552 0.262191 0.287729 0.313163 0.338486 0.363696 0.388785 0.413746 0.43857 0.463248 0.487765 0.512108 0.536257 0.560192 0.583886 0.607311 0.630431 0.653205 0.675586 0.697518 0.718938 0.739773 0.75994 0.779349 0.797898 0.815481 0.831986 0.847302 0.861325 0.873964 0.885153 0.894855 0.903075 0.90986 0.915299 0.919521 0.922683 0.924958 0.92652 0.927534 0.928143 0.928468 0.928605 0.928617 0.928581 0.928514 0.928427 0.928327 0.92822 0.928111 0.928002 0.927896 0.927794 0.927696 0.927603 0.927513 0.927427 0.927345 0.927264 0.927185 0.927107 0.92703 0.92695 0.926868 0.926777 0.926672 0.92654 0.926359 0.926091 0.925671 0.924988 0.923859 0.921987 0.918894 0.913827 0.905635 0.892617 0.872384 0.841808 0.797215 0.734979 0.652668 0.550709 0.434141 0.31339 0.202589 0.114916 0.0567559 0.0248621 0.0100539 0.00389736 0.0014811 0.000557459 0.000208637 7.77503e-05 2.88583e-05 1.0667e-05 3.92547e-06 1.4377e-06 5.23855e-07 1.89826e-07 6.83817e-08 2.44796e-08 8.70524e-09 3.07418e-09 1.07768e-09 3.74928e-10 1.28886e-10 4.3796e-11 1.49342e-11 4.67346e-12 1.56359e-12 4.60339e-13 -2.2739e-14 -4.02673e-13 -2.72397e-13 5.27484e-14 -7.10923e-13 2.78916e-13 6.25082e-13 -6.01303e-13 4.03239e-14 4.45301e-13 -5.77404e-14 -1.18954e-12 3.18268e-13 2.09117e-14 -7.32364e-13 0 0 -4.65797e-15 -3.55631e-15 1.01298e-14 -3.3327e-14 -3.1286e-14 1.92279e-14 7.73972e-16 -4.6069e-14 -1.41008e-14 -6.01006e-14 -4.9582e-14 2.70732e-15 -6.47785e-14 -4.52378e-14 -8.01386e-14 -7.36995e-14 -6.33447e-14 -5.75199e-14 -7.24586e-14 -1.19461e-13 -1.01893e-15 -5.06352e-14 -7.56677e-14 1.14724e-13 -1.88285e-14 -1.52442e-13 6.05565e-15 -1.74331e-13 1.6147e-13 -8.11134e-14 -7.30738e-14 -1.36747e-13 -1.42651e-13 -8.23003e-14 -1.41599e-13 -6.9007e-14 -8.1689e-15 1.61909e-14 -1.56206e-13 -4.09621e-14 -6.04154e-14 -1.38e-13 -4.70895e-14 6.86009e-14 2.56713e-13 5.66367e-13 5.06079e-12 3.26257e-11 2.05245e-10 1.22464e-09 6.9068e-09 3.67109e-08 1.83368e-07 8.58002e-07 3.74743e-06 1.52145e-05 5.71394e-05 0.000197353 0.000622504 0.00177832 0.00455734 0.0103757 0.0208273 0.036802 0.057708 0.0817795 0.107259 0.133151 0.159096 0.184995 0.210818 0.236552 0.262191 0.287729 0.313163 0.338486 0.363696 0.388785 0.413746 0.43857 0.463248 0.487765 0.512108 0.536257 0.560192 0.583886 0.607311 0.630431 0.653205 0.675586 0.697518 0.718938 0.739773 0.75994 0.779349 0.797898 0.815481 0.831986 0.847302 0.861325 0.873964 0.885153 0.894855 0.903075 0.90986 0.915299 0.919521 0.922683 0.924958 0.92652 0.927534 0.928143 0.928468 0.928605 0.928617 0.928581 0.928514 0.928427 0.928327 0.92822 0.928111 0.928002 0.927896 0.927794 0.927696 0.927603 0.927513 0.927427 0.927345 0.927264 0.927185 0.927107 0.92703 0.92695 0.926868 0.926777 0.926672 0.92654 0.926359 0.926091 0.925671 0.924988 0.923859 0.921987 0.918894 0.913827 0.905635 0.892617 0.872384 0.841808 0.797215 0.734979 0.652668 0.550709 0.434141 0.31339 0.202589 0.114916 0.0567559 0.0248621 0.0100539 0.00389736 0.0014811 0.000557459 0.000208637 7.77503e-05 2.88583e-05 1.0667e-05 3.92547e-06 1.4377e-06 5.23855e-07 1.89826e-07 6.83817e-08 2.44797e-08 8.70533e-09 3.07418e-09 1.07769e-09 3.74496e-10 1.29122e-10 4.4176e-11 1.44234e-11 4.42602e-12 1.68993e-12 2.20715e-13 -2.27583e-13 -1.39327e-13 -1.53973e-13 -5.06262e-13 -2.30411e-13 -1.16506e-13 -1.83759e-13 1.68835e-13 -4.56247e-13 6.33375e-13 2.19673e-13 -1.08004e-13 2.47214e-13 -3.67413e-13 -1.52515e-14 0 0 2.223e-15 -2.85706e-15 -2.36691e-14 2.24088e-14 -7.47617e-15 -5.76759e-14 -2.08653e-14 2.37947e-14 -7.14155e-14 -1.95141e-14 3.97103e-15 -1.05056e-13 9.37817e-15 -3.08336e-14 -1.61737e-13 9.82381e-14 -2.22775e-13 1.69029e-14 -9.13663e-14 -1.29669e-13 -3.26461e-14 -1.05306e-13 5.57396e-14 -8.71764e-14 -8.87872e-14 6.71851e-14 -1.03933e-13 1.09991e-13 -1.83321e-13 -1.27237e-13 3.50801e-15 5.13463e-14 -3.23003e-13 6.06405e-14 -3.61823e-13 1.37224e-13 1.13636e-13 -8.75127e-14 -4.66237e-14 -4.72192e-14 -1.87441e-13 9.76702e-15 -9.10731e-16 -2.24807e-13 -6.76869e-15 8.64723e-13 4.98439e-12 3.2778e-11 2.05303e-10 1.22456e-09 6.90694e-09 3.67111e-08 1.83368e-07 8.58002e-07 3.74743e-06 1.52145e-05 5.71394e-05 0.000197353 0.000622504 0.00177832 0.00455734 0.0103757 0.0208273 0.036802 0.057708 0.0817795 0.107259 0.133151 0.159096 0.184995 0.210818 0.236552 0.262191 0.287729 0.313163 0.338486 0.363696 0.388785 0.413746 0.43857 0.463248 0.487765 0.512108 0.536257 0.560192 0.583886 0.607311 0.630431 0.653205 0.675586 0.697518 0.718938 0.739773 0.75994 0.779349 0.797898 0.815481 0.831986 0.847302 0.861325 0.873964 0.885153 0.894855 0.903075 0.90986 0.915299 0.919521 0.922683 0.924958 0.92652 0.927534 0.928143 0.928468 0.928605 0.928617 0.928581 0.928514 0.928427 0.928327 0.92822 0.928111 0.928002 0.927896 0.927794 0.927696 0.927603 0.927513 0.927427 0.927345 0.927264 0.927185 0.927107 0.92703 0.92695 0.926868 0.926777 0.926672 0.92654 0.926359 0.926091 0.925671 0.924988 0.923859 0.921987 0.918894 0.913827 0.905635 0.892617 0.872384 0.841808 0.797215 0.734979 0.652668 0.550709 0.434141 0.31339 0.202589 0.114916 0.0567559 0.0248621 0.0100539 0.00389736 0.0014811 0.000557459 0.000208637 7.77503e-05 2.88583e-05 1.0667e-05 3.92547e-06 1.4377e-06 5.23855e-07 1.89826e-07 6.83815e-08 2.44797e-08 8.70533e-09 3.07416e-09 1.07737e-09 3.74249e-10 1.29772e-10 4.41314e-11 1.44552e-11 3.91205e-12 1.83447e-12 -3.58821e-13 2.09427e-13 -6.08235e-14 1.34073e-13 -5.8354e-13 4.35165e-13 -1.412e-12 -8.91875e-13 7.47317e-13 3.49774e-13 -3.10704e-13 5.12296e-13 9.35368e-14 -3.31255e-13 9.9066e-13 2.22374e-13 0
				</DataArray>
				<DataArray Name="VitesseY" type="Float32" format="ascii">