<?xml version="1.0"?>
<VTKFile type="PolyData">
	<PolyData>
		<Piece NumberOfPoints="1206" NumberOfPolys="1000">
			<Points>
				<DataArray type="Float32" NumberOfComponents="3" format="ascii">
 0 0 0 0.005 0 0 0.01 0 0 0.015 0 0 0.02 0 0 0.025 0 0 0.03 0 0 0.035 0 0 0.04 0 0 0.045 0 0 0.05 0 0 0.055 0 0 0.06 0 0 0.065 0 0 0.07 0 0 0.075 0 0 0.08 0 0 0.085 0 0 0.09 0 0 0.095 0 0 0.1 0 0 0.105 0 0 0.11 0 0 0.115 0 0 0.12 0 0 0.125 0 0 0.13 0 0 0.135 0 0 0.14 0 0 0.145 0 0 0.15 0 0 0.155 0 0 0.16 0 0 0.165 0 0 0.17 0 0 0.175 0 0 0.18 0 0 0.185 0 0 0.19 0 0 0.195 0 0 0.2 0 0 0.205 0 0 0.21 0 0 0.215 0 0 0.22 0 0 0.225 0 0 0.23 0 0 0.235 0 0 0.24 0 0 0.245 0 0 0.25 0 0 0.255 0 0 0.26 0 0 0.265 0 0 0.27 0 0 0.275 0 0 0.28 0 0 0.285 0 0 0.29 0 0 0.295 0 0 0.3 0 0 0.305 0 0 0.31 0 0 0.315 0 0 0.32 0 0 0.325 0 0 0.33 0 0 0.335 0 0 0.34 0 0 0.345 0 0 0.35 0 0 0.355 0 0 0.36 0 0 0.365 0 0 0.37 0 0 0.375 0 0 0.38 0 0 0.385 0 0 0.39 0 0 0.395 0 0 0.4 0 0 0.405 0 0 0.41 0 0 0.415 0 0 0.42 0 0 0.425 0 0 0.43 0 0 0.435 0 0 0.44 0 0 0.445 0 0 0.45 0 0 0.455 0 0 0.46 0 0 0.465 0 0 0.47 0 0 0.475 0 0 0.48 0 0 0.485 0 0 0.49 0 0 0.495 0 0 0.5 0 0 0.505 0 0 0.51 0 0 0.515 0 0 0.52 0 0 0.525 0 0 0.53 0 0 0.535 0 0 0.54 0 0 0.545 0 0 0.55 0 0 0.555 0 0 0.56 0 0 0.565 0 0 0.57 0 0 0.575 0 0 0.58 0 0 0.585 0 0 0.59 0 0 0.595 0 0 0.6 0 0 0.605 0 0 0.61 0 0 0.615 0 0 0.62 0 0 0.625 0 0 0.63 0 0 0.635 0 0 0.64 0 0 0.645 0 0 0.65 0 0 0.655 0 0 0.66 0 0 0.665 0 0 0.67 0 0 0.675 0 0 0.68 0 0 0.685 0 0 0.69 0 0 0.695 0 0 0.7 0 0 0.705 0 0 0.71 0 0 0.715 0 0 0.72 0 0 0.725 0 0 0.73 0 0 0.735 0 0 0.74 0 0 0.745 0 0 0.75 0 0 0.755 0 0 0.76 0 0 0.765 0 0 0.77 0 0 0.775 0 0 0.78 0 0 0.785 0 0 0.79 0 0 0.795 0 0 0.8 0 0 0.805 0 0 0.81 0 0 0.815 0 0 0.82 0 0 0.825 0 0 0.83 0 0 0.835 0 0 0.84 0 0 0.845 0 0 0.85 0 0 0.855 0 0 0.86 0 0 0.865 0 0 0.87 0 0 0.875 0 0 0.88 0 0 0.885 0 0 0.89 0 0 0.895 0 0 0.9 0 0 0.905 0 0 0.91 0 0 0.915 0 0 0.92 0 0 0.925 0 0 0.93 0 0 0.935 0 0 0.94 0 0 0.945 0 0 0.95 0 0 0.955 0 0 0.96 0 0 0.965 0 0 0.97 0 0 0.975 0 0 0.98 0 0 0.985 0 0 0.99 0 0 0.995 0 0 1 0 0 0 0.02 0 0.005 0.02 0 0.01 0.02 0 0.015 0.02 0 0.02 0.02 0 0.025 0.02 0 0.03 0.02 0 0.035 0.02 0 0.04 0.02 0 0.045 0.02 0 0.05 0.02 0 0.055 0.02 0 0.06 0.02 0 0.065 0.02 0 0.07 0.02 0 0.075 0.02 0 0.08 0.02 0 0.085 0.02 0 0.09 0.02 0 0.095 0.02 0 0.1 0.02 0 0.105 0.02 0 0.11 0.02 0 0.115 0.02 0 0.12 0.02 0 0.125 0.02 0 0.13 0.02 0 0.135 0.02 0 0.14 0.02 0 0.145 0.02 0 0.15 0.02 0 0.155 0.02 0 0.16 0.02 0 0.165 0.02 0 0.17 0.02 0 0.175 0.02 0 0.18 0.02 0 0.185 0.02 0 0.19 0.02 0 0.195 0.02 0 0.2 0.02 0 0.205 0.02 0 0.21 0.02 0 0.215 0.02 0 0.22 0.02 0 0.225 0.02 0 0.23 0.02 0 0.235 0.02 0 0.24 0.02 0 0.245 0.02 0 0.25 0.02 0 0.255 0.02 0 0.26 0.02 0 0.265 0.02 0 0.27 0.02 0 0.275 0.02 0 0.28 0.02 0 0.285 0.02 0 0.29 0.02 0 0.295 0.02 0 0.3 0.02 0 0.305 0.02 0 0.31 0.02 0 0.315 0.02 0 0.32 0.02 0 0.325 0.02 0 0.33 0.02 0 0.335 0.02 0 0.34 0.02 0 0.345 0.02 0 0.35 0.02 0 0.355 0.02 0 0.36 0.02 0 0.365 0.02 0 0.37 0.02 0 0.375 0.02 0 0.38 0.02 0 0.385 0.02 0 0.39 0.02 0 0.395 0.02 0 0.4 0.02 0 0.405 0.02 0 0.41 0.02 0 0.415 0.02 0 0.42 0.02 0 0.425 0.02 0 0.43 0.02 0 0.435 0.02 0 0.44 0.02 0 0.445 0.02 0 0.45 0.02 0 0.455 0.02 0 0.46 0.02 0 0.465 0.02 0 0.47 0.02 0 0.475 0.02 0 0.48 0.02 0 0.485 0.02 0 0.49 0.02 0 0.495 0.02 0 0.5 0.02 0 0.505 0.02 0 0.51 0.02 0 0.515 0.02 0 0.52 0.02 0 0.525 0.02 0 0.53 0.02 0 0.535 0.02 0 0.54 0.02 0 0.545 0.02 0 0.55 0.02 0 0.555 0.02 0 0.56 0.02 0 0.565 0.02 0 0.57 0.02 0 0.575 0.02 0 0.58 0.02 0 0.585 0.02 0 0.59 0.02 0 0.595 0.02 0 0.6 0.02 0 0.605 0.02 0 0.61 0.02 0 0.615 0.02 0 0.62 0.02 0 0.625 0.02 0 0.63 0.02 0 0.635 0.02 0 0.64 0.02 0 0.645 0.02 0 0.65 0.02 0 0.655 0.02 0 0.66 0.02 0 0.665 0.02 0 0.67 0.02 0 0.675 0.02 0 0.68 0.02 0 0.685 0.02 0 0.69 0.02 0 0.695 0.02 0 0.7 0.02 0 0.705 0.02 0 0.71 0.02 0 0.715 0.02 0 0.72 0.02 0 0.725 0.02 0 0.73 0.02 0 0.735 0.02 0 0.74 0.02 0 0.745 0.02 0 0.75 0.02 0 0.755 0.02 0 0.76 0.02 0 0.765 0.02 0 0.77 0.02 0 0.775 0.02 0 0.78 0.02 0 0.785 0.02 0 0.79 0.02 0 0.795 0.02 0 0.8 0.02 0 0.805 0.02 0 0.81 0.02 0 0.815 0.02 0 0.82 0.02 0 0.825 0.02 0 0.83 0.02 0 0.835 0.02 0 0.84 0.02 0 0.845 0.02 0 0.85 0.02 0 0.855 0.02 0 0.86 0.02 0 0.865 0.02 0 0.87 0.02 0 0.875 0.02 0 0.88 0.02 0 0.885 0.02 0 0.89 0.02 0 0.895 0.02 0 0.9 0.02 0 0.905 0.02 0 0.91 0.02 0 0.915 0.02 0 0.92 0.02 0 0.925 0.02 0 0.93 0.02 0 0.935 0.02 0 0.94 0.02 0 0.945 0.02 0 0.95 0.02 0 0.955 0.02 0 0.96 0.02 0 0.965 0.02 0 0.97 0.02 0 0.975 0.02 0 0.98 0.02 0 0.985 0.02 0 0.99 0.02 0 0.995 0.02 0 1 0.02 0 0 0.04 0 0.005 0.04 0 0.01 0.04 0 0.015 0.04 0 0.02 0.04 0 0.025 0.04 0 0.03 0.04 0 0.035 0.04 0 0.04 0.04 0 0.045 0.04 0 0.05 0.04 0 0.055 0.04 0 0.06 0.04 0 0.065 0.04 0 0.07 0.04 0 0.075 0.04 0 0.08 0.04 0 0.085 0.04 0 0.09 0.04 0 0.095 0.04 0 0.1 0.04 0 0.105 0.04 0 0.11 0.04 0 0.115 0.04 0 0.12 0.04 0 0.125 0.04 0 0.13 0.04 0 0.135 0.04 0 0.14 0.04 0 0.145 0.04 0 0.15 0.04 0 0.155 0.04 0 0.16 0.04 0 0.165 0.04 0 0.17 0.04 0 0.175 0.04 0 0.18 0.04 0 0.185 0.04 0 0.19 0.04 0 0.195 0.04 0 0.2 0.04 0 0.205 0.04 0 0.21 0.04 0 0.215 0.04 0 0.22 0.04 0 0.225 0.04 0 0.23 0.04 0 0.235 0.04 0 0.24 0.04 0 0.245 0.04 0 0.25 0.04 0 0.255 0.04 0 0.26 0.04 0 0.265 0.04 0 0.27 0.04 0 0.275 0.04 0 0.28 0.04 0 0.285 0.04 0 0.29 0.04 0 0.295 0.04 0 0.3 0.04 0 0.305 0.04 0 0.31 0.04 0 0.315 0.04 0 0.32 0.04 0 0.325 0.04 0 0.33 0.04 0 0.335 0.04 0 0.34 0.04 0 0.345 0.04 0 0.35 0.04 0 0.355 0.04 0 0.36 0.04 0 0.365 0.04 0 0.37 0.04 0 0.375 0.04 0 0.38 0.04 0 0.385 0.04 0 0.39 0.04 0 0.395 0.04 0 0.4 0.04 0 0.405 0.04 0 0.41 0.04 0 0.415 0.04 0 0.42 0.04 0 0.425 0.04 0 0.43 0.04 0 0.435 0.04 0 0.44 0.04 0 0.445 0.04 0 0.45 0.04 0 0.455 0.04 0 0.46 0.04 0 0.465 0.04 0 0.47 0.04 0 0.475 0.04 0 0.48 0.04 0 0.485 0.04 0 0.49 0.04 0 0.495 0.04 0 0.5 0.04 0 0.505 0.04 0 0.51 0.04 0 0.515 0.04 0 0.52 0.04 0 0.525 0.04 0 0.53 0.04 0 0.535 0.04 0 0.54 0.04 0 0.545 0.04 0 0.55 0.04 0 0.555 0.04 0 0.56 0.04 0 0.565 0.04 0 0.57 0.04 0 0.575 0.04 0 0.58 0.04 0 0.585 0.04 0 0.59 0.04 0 0.595 0.04 0 0.6 0.04 0 0.605 0.04 0 0.61 0.04 0 0.615 0.04 0 0.62 0.04 0 0.625 0.04 0 0.63 0.04 0 0.635 0.04 0 0.64 0.04 0 0.645 0.04 0 0.65 0.04 0 0.655 0.04 0 0.66 0.04 0 0.665 0.04 0 0.67 0.04 0 0.675 0.04 0 0.68 0.04 0 0.685 0.04 0 0.69 0.04 0 0.695 0.04 0 0.7 0.04 0 0.705 0.04 0 0.71 0.04 0 0.715 0.04 0 0.72 0.04 0 0.725 0.04 0 0.73 0.04 0 0.735 0.04 0 0.74 0.04 0 0.745 0.04 0 0.75 0.04 0 0.755 0.04 0 0.76 0.04 0 0.765 0.04 0 0.77 0.04 0 0.775 0.04 0 0.78 0.04 0 0.785 0.04 0 0.79 0.04 0 0.795 0.04 0 0.8 0.04 0 0.805 0.04 0 0.81 0.04 0 0.815 0.04 0 0.82 0.04 0 0.825 0.04 0 0.83 0.04 0 0.835 0.04 0 0.84 0.04 0 0.845 0.04 0 0.85 0.04 0 0.855 0.04 0 0.86 0.04 0 0.865 0.04 0 0.87 0.04 0 0.875 0.04 0 0.88 0.04 0 0.885 0.04 0 0.89 0.04 0 0.895 0.04 0 0.9 0.04 0 0.905 0.04 0 0.91 0.04 0 0.915 0.04 0 0.92 0.04 0 0.925 0.04 0 0.93 0.04 0 0.935 0.04 0 0.94 0.04 0 0.945 0.04 0 0.95 0.04 0 0.955 0.04 0 0.96 0.04 0 0.965 0.04 0 0.97 0.04 0 0.975 0.04 0 0.98 0.04 0 0.985 0.04 0 0.99 0.04 0 0.995 0.04 0 1 0.04 0 0 0.06 0 0.005 0.06 0 0.01 0.06 0 0.015 0.06 0 0.02 0.06 0 0.025 0.06 0 0.03 0.06 0 0.035 0.06 0 0.04 0.06 0 0.045 0.06 0 0.05 0.06 0 0.055 0.06 0 0.06 0.06 0 0.065 0.06 0 0.07 0.06 0 0.075 0.06 0 0.08 0.06 0 0.085 0.06 0 0.09 0.06 0 0.095 0.06 0 0.1 0.06 0 0.105 0.06 0 0.11 0.06 0 0.115 0.06 0 0.12 0.06 0 0.125 0.06 0 0.13 0.06 0 0.135 0.06 0 0.14 0.06 0 0.145 0.06 0 0.15 0.06 0 0.155 0.06 0 0.16 0.06 0 0.165 0.06 0 0.17 0.06 0 0.175 0.06 0 0.18 0.06 0 0.185 0.06 0 0.19 0.06 0 0.195 0.06 0 0.2 0.06 0 0.205 0.06 0 0.21 0.06 0 0.215 0.06 0 0.22 0.06 0 0.225 0.06 0 0.23 0.06 0 0.235 0.06 0 0.24 0.06 0 0.245 0.06 0 0.25 0.06 0 0.255 0.06 0 0.26 0.06 0 0.265 0.06 0 0.27 0.06 0 0.275 0.06 0 0.28 0.06 0 0.285 0.06 0 0.29 0.06 0 0.295 0.06 0 0.3 0.06 0 0.305 0.06 0 0.31 0.06 0 0.315 0.06 0 0.32 0.06 0 0.325 0.06 0 0.33 0.06 0 0.335 0.06 0 0.34 0.06 0 0.345 0.06 0 0.35 0.06 0 0.355 0.06 0 0.36 0.06 0 0.365 0.06 0 0.37 0.06 0 0.375 0.06 0 0.38 0.06 0 0.385 0.06 0 0.39 0.06 0 0.395 0.06 0 0.4 0.06 0 0.405 0.06 0 0.41 0.06 0 0.415 0.06 0 0.42 0.06 0 0.425 0.06 0 0.43 0.06 0 0.435 0.06 0 0.44 0.06 0 0.445 0.06 0 0.45 0.06 0 0.455 0.06 0 0.46 0.06 0 0.465 0.06 0 0.47 0.06 0 0.475 0.06 0 0.48 0.06 0 0.485 0.06 0 0.49 0.06 0 0.495 0.06 0 0.5 0.06 0 0.505 0.06 0 0.51 0.06 0 0.515 0.06 0 0.52 0.06 0 0.525 0.06 0 0.53 0.06 0 0.535 0.06 0 0.54 0.06 0 0.545 0.06 0 0.55 0.06 0 0.555 0.06 0 0.56 0.06 0 0.565 0.06 0 0.57 0.06 0 0.575 0.06 0 0.58 0.06 0 0.585 0.06 0 0.59 0.06 0 0.595 0.06 0 0.6 0.06 0 0.605 0.06 0 0.61 0.06 0 0.615 0.06 0 0.62 0.06 0 0.625 0.06 0 0.63 0.06 0 0.635 0.06 0 0.64 0.06 0 0.645 0.06 0 0.65 0.06 0 0.655 0.06 0 0.66 0.06 0 0.665 0.06 0 0.67 0.06 0 0.675 0.06 0 0.68 0.06 0 0.685 0.06 0 0.69 0.06 0 0.695 0.06 0 0.7 0.06 0 0.705 0.06 0 0.71 0.06 0 0.715 0.06 0 0.72 0.06 0 0.725 0.06 0 0.73 0.06 0 0.735 0.06 0 0.74 0.06 0 0.745 0.06 0 0.75 0.06 0 0.755 0.06 0 0.76 0.06 0 0.765 0.06 0 0.77 0.06 0 0.775 0.06 0 0.78 0.06 0 0.785 0.06 0 0.79 0.06 0 0.795 0.06 0 0.8 0.06 0 0.805 0.06 0 0.81 0.06 0 0.815 0.06 0 0.82 0.06 0 0.825 0.06 0 0.83 0.06 0 0.835 0.06 0 0.84 0.06 0 0.845 0.06 0 0.85 0.06 0 0.855 0.06 0 0.86 0.06 0 0.865 0.06 0 0.87 0.06 0 0.875 0.06 0 0.88 0.06 0 0.885 0.06 0 0.89 0.06 0 0.895 0.06 0 0.9 0.06 0 0.905 0.06 0 0.91 0.06 0 0.915 0.06 0 0.92 0.06 0 0.925 0.06 0 0.93 0.06 0 0.935 0.06 0 0.94 0.06 0 0.945 0.06 0 0.95 0.06 0 0.955 0.06 0 0.96 0.06 0 0.965 0.06 0 0.97 0.06 0 0.975 0.06 0 0.98 0.06 0 0.985 0.06 0 0.99 0.06 0 0.995 0.06 0 1 0.06 0 0 0.08 0 0.005 0.08 0 0.01 0.08 0 0.015 0.08 0 0.02 0.08 0 0.025 0.08 0 0.03 0.08 0 0.035 0.08 0 0.04 0.08 0 0.045 0.08 0 0.05 0.08 0 0.055 0.08 0 0.06 0.08 0 0.065 0.08 0 0.07 0.08 0 0.075 0.08 0 0.08 0.08 0 0.085 0.08 0 0.09 0.08 0 0.095 0.08 0 0.1 0.08 0 0.105 0.08 0 0.11 0.08 0 0.115 0.08 0 0.12 0.08 0 0.125 0.08 0 0.13 0.08 0 0.135 0.08 0 0.14 0.08 0 0.145 0.08 0 0.15 0.08 0 0.155 0.08 0 0.16 0.08 0 0.165 0.08 0
[...]
			<PointData Scalars="VitesseX">
				<DataArray Name="VitesseX" type="Float32" format="ascii">
 0 -8.01014e-15 -6.82049e-15 7.82782e-14 -1.48885e-13 -5.60607e-14 5.62929e-14 -2.04087e-14 -1.24925e-13 -1.6579e-14 6.65881e-14 -1.83755e-13 1.71629e-13 -3.90688e-13 1.73013e-13 -8.5018e-14 -2.36325e-13 2.9163e-13 -2.51677e-13 1.18578e-13 1.09475e-15 -1.71326e-13 -3.08891e-13 1.57169e-13 4.40549e-13 1.04683e-13 -4.09738e-13 3.81614e-14 5.47145e-14 -1.00131e-14 -2.90277e-13 3.8342e-13 -4.41153e-13 -4.03463e-13 5.31817e-13 -2.98192e-13 2.29158e-13 -6.06726e-13 6.34906e-13 -3.95014e-13 2.30872e-16 -3.43066e-13 3.3207e-14 5.63398e-13 1.42848e-13 -5.45776e-13 3.35145e-13 -7.27744e-13 2.24252e-13 -1.90058e-13 9.49418e-14 -3.12673e-13 -1.19537e-12 1.59022e-12 -2.52872e-13 -2.22862e-14 6.22257e-13 -8.27301e-13 1.03114e-12 -6.83144e-13 -3.48976e-13 -3.71363e-13 -1.45757e-13 3.19946e-13 -6.42157e-13 -1.76246e-14 4.19919e-13 3.43824e-13 9.08452e-13 -8.52514e-13 -4.6796e-13 9.01658e-13 -5.57336e-13 3.17324e-13 -1.97824e-12 4.3705e-13 5.15402e-13 -4.78023e-13 4.62501e-13 -1.08183e-12 2.03913e-12 -7.14048e-13 -1.32287e-13 2.27864e-11 4.32542e-10 8.02517e-09 1.28784e-07 1.76107e-06 2.02e-05 0.000190375 0.00143428 0.00831994 0.0353674 0.104748 0.214178 0.329066 0.434165 0.531297 0.620357 0.700213 0.769123 0.825209 0.867592 0.896108 0.914246 0.922687 0.920147 0.905093 0.871042 0.810863 0.719429 0.596977 0.452129 0.30279 0.172262 0.0797826 0.0296415 0.00924428 0.00259005 0.000679186 0.000169288 4.02996e-05 9.17638e-06 2.0001e-06 4.1754e-07 8.35343e-08 1.60288e-08 2.95125e-09 5.20605e-10 8.97596e-11 1.26983e-11 3.56138e-12 1.17215e-13 -1.87217e-12 1.06656e-12 -2.22933e-12 2.11059e-12 2.77656e-13 -1.75697e-12 1.64323e-12 -1.14933e-12 -2.09276e-13 2.65411e-12 -2.09719e-12 -1.62563e-12 1.81956e-12 -1.76972e-12 3.23118e-12 -1.16146e-12 -5.65231e-13 1.66095e-12 -1.75668e-12 2.83324e-12 -1.96043e-12 1.26918e-12 -2.04262e-12 1.68164e-12 2.37794e-13 -1.05726e-12 -2.97306e-13 -1.41259e-12 1.7569e-12 -5.97225e-13 -7.72887e-13 6.91436e-13 1.64653e-15 7.04089e-13 -6.82082e-13 -1.28752e-12 2.14875e-12 -1.25381e-12 6.91131e-15 1.81065e-12 -1.97417e-12 2.15899e-12 -1.80954e-12 6.72757e-13 1.03512e-12 -1.92594e-12 1.84647e-12 -1.2342e-12 -4.55025e-13 1.64294e-12 -2.97749e-12 1.45743e-12 -1.86595e-12 1.3154e-13 1.13103e-12 -1.75987e-12 2.87666e-12 -1.66817e-12 -1.48364e-12 4.15842e-12 -2.82297e-12 -1.40791e-12 -1.03229e-13 -1.03435e-12 3.73779e-12 -3.31606e-12 1.32223e-12 0 0 9.52597e-15 1.52951e-14 -8.74239e-14 6.26626e-14 -3.52188e-14 -9.90452e-14 -6.89627e-14 1.60166e-14 -4.04091e-14 -1.25059e-13 6.13243e-14 -2.46386e-13 1.94198e-13 -2.37617e-13 2.69168e-14 1.39529e-13 -2.02446e-13 1.70863e-13 -2.46962e-13 -1.65564e-13 -1.52187e-14 9.27847e-14 -3.51103e-14 -1.20843e-13 9.83017e-14 2.79115e-13 -1.95107e-13 -1.94971e-13 -1.54648e-13 2.67973e-13 -2.94836e-13 1.56218e-13 -5.37706e-14 -5.83517e-13 2.60179e-13 -1.42798e-13 4.9094e-13 -5.20184e-13 9.35217e-14 -3.08871e-13 1.08366e-13 1.78776e-13 -2.17022e-13 3.77992e-15 1.96006e-13 -4.73015e-13 2.37225e-13 -4.86975e-13 -2.06003e-13 -3.57011e-13 -3.37629e-14 8.07905e-13 -8.90371e-13 5.34232e-13 1.08207e-13 -3.28684e-13 7.37866e-13 -8.45938e-13 4.04998e-13 2.867e-14 -1.16505e-13 -3.22856e-13 -5.86534e-13 3.05324e-13 1.58434e-13 2.55689e-13 1.73172e-13 -6.25394e-13 7.77644e-13 6.82549e-14 -8.21166e-13 1.95212e-13 -9.93806e-13 7.07413e-13 -7.20746e-13 -6.95264e-13 5.94021e-13 -1.35838e-13 9.13813e-13 -1.0779e-12 1.0133e-12 1.92861e-12 1.9038e-11 4.32433e-10 8.02971e-09 1.28782e-07 1.76107e-06 2.02e-05 0.000190375 0.00143428 0.00831994 0.0353674 0.104748 0.214178 0.329066 0.434165 0.531297 0.620357 0.700213 0.769123 0.825209 0.867592 0.896108 0.914246 0.922687 0.920147 0.905093 0.871042 0.810863 0.719429 0.596977 0.452129 0.30279 0.172262 0.0797826 0.0296415 0.00924428 0.00259005 0.000679186 0.000169288 4.02995e-05 9.17638e-06 2.0001e-06 4.17538e-07 8.35367e-08 1.60265e-08 2.95068e-09 5.22706e-10 8.77742e-11 1.54009e-11 1.01118e-12 -3.93501e-13 8.23531e-13 -1.56567e-12 8.57727e-13 -6.91012e-13 -1.16825e-13 1.36199e-12 -1.1605e-12 7.52649e-13 2.36931e-13 -2.14555e-12 1.53965e-12 1.07176e-13 -1.45554e-12 1.62098e-12 -1.55365e-12 1.95644e-12 5.33654e-13 -1.206e-12 1.53563e-12 -1.83374e-12 1.74867e-12 -1.14774e-12 1.44863e-12 -1.07882e-12 -2.70163e-13 4.36566e-13 -1.22899e-13 -5.55795e-14 -1.36938e-12 7.96382e-14 1.21826e-12 -1.67565e-13 -2.17718e-13 -9.63407e-13 2.21319e-13 1.01958e-12 -1.35482e-12 1.24383e-12 3.6312e-13 -1.48955e-12 1.81831e-12 -1.16576e-12 1.27239e-12 -2.94394e-13 -1.16051e-12 1.54526e-12 -1.33911e-12 9.72059e-13 6.40527e-14 -1.77906e-12 9.21835e-13 -1.96485e-12 6.88882e-13 -2.79251e-13 -1.14221e-12 1.34873e-12 -1.63287e-12 1.71237e-12 6.94944e-13 -3.82594e-12 2.10812e-12 2.50148e-13 -5.20763e-13 1.65409e-13 -2.88172e-12 3.11743e-12 6.89395e-14 0 0 -1.15869e-14 -4.22134e-14 -9.58119e-15 -2.82101e-14 -5.09353e-15 -1.84508e-14 -5.37161e-14 -9.64318e-14 -1.14005e-13 -3.95894e-14 -7.27653e-14 5.61078e-14 -9.64089e-14 2.54628e-14 6.91285e-14 -6.22531e-14 -4.12344e-14 -1.47135e-13 1.21721e-14 -9.57887e-14 -1.21304e-13 -1.36154e-13 -2.50466e-16 1.1705e-13 4.08833e-14 -5.32222e-14 -1.81057e-14 -6.22772e-14 -1.61302e-13 -9.70028e-14 -8.10504e-15 -4.40354e-15 -7.92405e-14 -3.50204e-14 -1.62772e-13 8.2993e-14 -1.19126e-13 1.39398e-14 -1.409e-13 -3.79421e-14 -6.85461e-14 6.7279e-14 1.49156e-14 -3.26583e-13 -2.95126e-13 -1.80475e-14 -1.84559e-13 2.66356e-13 2.93738e-14 -3.28382e-13 -1.76211e-13 -3.52589e-13 5.82201e-13 2.1213e-13 -1.05008e-13 -9.36796e-14 -4.62036e-13 1.84025e-13 1.93808e-13 7.93396e-14 1.96348e-13 -4.06742e-13 -3.45487e-13 -8.56895e-14 2.99808e-13 1.93738e-14 4.87168e-14 -2.24375e-14 -2.10774e-14 -2.78943e-14 8.85102e-14 -3.33924e-13 7.59444e-14 -3.58203e-13 -3.46049e-13 -4.35867e-13 -2.6433e-13 5.07033e-13 -1.53453e-13 -5.59307e-14 4.98995e-13 1.08201e-12 2.04693e-11 4.32292e-10 8.02849e-09 1.28783e-07 1.76107e-06 2.02e-05 0.000190375 0.00143428 0.00831994 0.0353674 0.104748 0.214178 0.329066 0.434165 0.531297 0.620357 0.700213 0.769123 0.825209 0.867592 0.896108 0.914246 0.922687 0.920147 0.905093 0.871042 0.810863 0.719429 0.596977 0.452129 0.30279 0.172262 0.0797826 0.0296415 0.00924428 0.00259005 0.000679186 0.000169288 4.02995e-05 9.17638e-06 2.0001e-06 4.17539e-07 8.3536e-08 1.60272e-08 2.95086e-09 5.21339e-10 8.89856e-11 1.43802e-11 2.00805e-12 -3.80329e-13 -4.82672e-13 -9.68408e-14 5.74255e-14 -4.80762e-13 -1.25142e-13 1.47882e-13 1.1642e-13 -9.65151e-14 -2.58962e-13 -1.61833e-13 1.39319e-13 4.01453e-13 -2.61482e-13 -6.35337e-14 5.1757e-13 -1.94634e-13 5.54036e-13 3.23222e-13 -1.07105e-13 -1.42389e-13 -4.76955e-13 5.61501e-13 6.70522e-13 -1.5264e-13 -8.57384e-13 -6.62989e-13 1.73131e-13 2.20817e-13 3.67065e-13 2.09091e-13 -1.18784e-12 -1.15794e-13 3.28131e-13 -2.01021e-13 1.79013e-13 -1.95129e-13 3.1082e-13 -8.17577e-14 -5.39707e-13 3.37291e-13 6.40855e-13 3.93714e-13 -1.23873e-13 -8.64158e-13 1.33055e-13 8.91721e-13 7.92301e-13 -7.33047e-13 -1.22703e-12 -2.19271e-13 -2.68659e-13 -2.96422e-13 -9.79604e-13 -1.00202e-12 4.87787e-13 9.5843e-13 -5.21438e-13 -5.86625e-13 -9.94922e-13 1.11402e-12 1.33728e-13 1.05306e-13 -5.7155e-13 -6.84855e-13 1.15663e-12 -4.15719e-13 -4.06691e-13 0 0 -3.1274e-14 -2.39395e-14 2.10328e-14 -9.45845e-14 -7.37896e-14 -5.24602e-14 -3.23455e-14 -4.23609e-14 1.31541e-14 1.36566e-14 -9.11154e-14 3.59854e-15 -9.00751e-14 1.08724e-13 -1.1183e-13 -1.47151e-13 2.82457e-14 -2.44158e-13 -6.49121e-14 -2.57952e-14 -1.95033e-15 -1.17343e-13 1.38162e-14 1.72029e-13 -2.83558e-14 -2.41643e-13 1.22541e-13 1.1434e-14 -2.82223e-13 -1.8717e-13 2.71821e-13 -5.47285e-14 -8.8811e-14 9.9384e-14 -4.90994e-14 1.44498e-13 -2.43797e-13 2.31136e-13 -2.8046e-13 -2.87465e-13 -2.33888e-13 -5.06739e-14 1.36113e-13 2.45775e-14 -2.69728e-13 2.40097e-13 -3.54651e-13 6.8844e-14 -1.65236e-13 -4.40952e-14 -1.18734e-13 -4.19996e-13 6.84419e-13 1.93587e-13 -1.7992e-14 -1.17725e-13 -6.23946e-13 3.43926e-13 -4.01703e-14 -3.9152e-14 -3.42495e-13 -4.09006e-13 -2.66204e-13 -1.0032e-13 2.06901e-13 3.63161e-13 1.52662e-13 5.84627e-13 -2.97225e-13 1.04077e-13 3.68548e-13 -2.70133e-13 2.54405e-13 -8.93564e-13 -1.51268e-13 -1.84849e-13 -9.46533e-13 9.80181e-14 5.98463e-14 1.17669e-12 -2.09532e-13 1.14312e-13 2.12052e-11 4.31772e-10 8.0271e-09 1.28783e-07 1.76107e-06 2.02e-05 0.000190375 0.00143428 0.00831994 0.0353674 0.104748 0.214178 0.329066 0.434165 0.531297 0.620357 0.700213 0.769123 0.825209 0.867592 0.896108 0.914246 0.922687 0.920147 0.905093 0.871042 0.810863 0.719429 0.596977 0.452129 0.30279 0.172262 0.0797826 0.0296415 0.00924428 0.00259005 0.000679186 0.000169288 4.02995e-05 9.17638e-06 2.0001e-06 4.17539e-07 8.3535e-08 1.60279e-08 2.95086e-09 5.21607e-10 8.90952e-11 1.34986e-11 2.2552e-12 -3.73213e-13 -3.64428e-13 7.26583e-13 -1.15154e-12 -7.33342e-15 -4.04094e-13 -7.80204e-13 1.30701e-12 -3.7552e-13 -8.12241e-13 1.23604e-12 -2.45818e-13 5.53429e-13 8.63468e-13 -1.52797e-12 6.90595e-13 1.6595e-13 9.5856e-13 1.04587e-12 -2.06328e-12 3.26297e-13 -4.63312e-13 1.09267e-12 -1.2462e-12 -2.13248e-13 3.11075e-13 -4.81928e-13 -1.28021e-13 -9.2261e-13 -2.70346e-13 1.9359e-13 -3.35079e-13 5.32245e-13 -2.20622e-13 -5.00696e-13 -1.22543e-12 -2.42296e-13 1.72986e-12 2.61127e-13 -6.02741e-13 9.02719e-13 -6.10316e-13 5.30635e-13 7.73734e-14 5.64272e-13 2.00167e-13 -1.42509e-12 8.45676e-13 1.38515e-13 6.62792e-14 -1.41971e-13 -2.21759e-12 3.16662e-13 -6.6636e-13 -6.69952e-13 6.80549e-13 3.31681e-13 8.01946e-13 -1.22642e-12 -1.59676e-12 2.13361e-12 5.41391e-13 -2.15935e-13 -3.10669e-13 -1.82395e-12 1.08889e-12 -3.82122e-13 1.63527e-12 0 0 -1.06991e-14 9.05619e-15 -8.97946e-14 2.1816e-14 -7.14855e-14 -1.09472e-13 -2.68441e-14 8.18035e-14 3.44538e-14 -1.10359e-13 6.39315e-14 -2.31875e-13 2.67927e-13 -2.45357e-13 -8.75057e-14 -4.27477e-14 -2.65288e-13 7.07823e-14 -2.98283e-13 -3.77847e-14 9.84537e-14 1.31284e-13 -4.54501e-14 -1.81245e-13 -5.54655e-14 4.96426e-14 -2.25029e-13 -1.77913e-13 -1.27981e-13 2.5617e-13 -3.60444e-14 3.80729e-13 1.71285e-13 -4.6507e-13 1.59359e-13 -1.14212e-13 2.99297e-13 -4.67001e-13 3.85175e-14 -2.855e-13 -5.95981e-14 -2.0632e-14 -4.11668e-13 1.49149e-14 1.99036e-13 -4.05121e-13 2.95546e-13 -4.78506e-13 -3.01481e-13 -4.79686e-13 -1.39772e-13 8.64461e-13 -9.6895e-13 5.34548e-13 2.89729e-13 -1.62786e-13 6.37989e-13 -8.95701e-13 9.38462e-14 -1.3025e-13 -4.12912e-13 -3.43323e-13 -3.91583e-13 3.32656e-13 1.65454e-13 5.65592e-13 3.3788e-13 -6.31884e-14 7.31534e-13 3.88088e-13 -6.80232e-13 1.11375e-14 -9.6365e-13 4.52417e-13 -7.38669e-13 -4.67315e-13 1.08349e-13 -3.25689e-13 9.98959e-13 -6.91314e-13 4.29618e-13 1.65457e-12 1.88075e-11 4.3187e-10 8.02925e-09 1.28783e-07 1.76107e-06 2.02e-05 0.000190375 0.00143428 0.00831994 0.0353674 0.104748 0.214178 0.329066 0.434165 0.531297 0.620357 0.700213 0.769123 0.825209 0.867592 0.896108 0.914246 0.922687 0.920147 0.905093 0.871042 0.810863 0.719429 0.596977 0.452129 0.30279 0.172262 0.0797826 0.0296415 0.00924428 0.00259005 0.000679186 0.000169288 4.02995e-05 9.17638e-06 2.0001e-06 4.17537e-07 8.3536e-08 1.60269e-08 2.95086e-09 5.22953e-10 8.76189e-11 1.47289e-11 1.16746e-12 -1.78944e-13 6.30192e-13 -1.19573e-12 2.2941e-13 -8.98206e-13 -3.17875e-13 1.15861e-12 -6.559e-13 4.23044e-13 -9.28571e-14 -9.79105e-13 1.68982e-12 1.20112e-12 -9.17015e-13 9.59542e-13 -1.71344e-12 2.12461e-12 1.07828e-12 -7.55599e-13 1.12471e-12 -1.81812e-12 1.15665e-12 -1.86572e-12 -2.2917e-13 -1.87685e-12 4.04444e-13 5.14755e-13 -6.06527e-13 -7.65539e-13 -1.72385e-12 2.74803e-14 1.51343e-12 -2.63282e-13 -1.05541e-12 -3.21429e-13 1.39504e-13 8.27385e-13 -1.41888e-12 1.17726e-12 3.50537e-13 -1.11907e-12 6.1071e-13 -1.54274e-12 2.37049e-12 9.47065e-13 -7.60245e-13 -2.60096e-13 -1.93602e-12 1.69115e-12 1.63231e-12 -1.76248e-12 -6.06834e-13 -2.1749e-12 3.03896e-13 2.29289e-13 -3.36346e-13 1.19706e-12 -1.26457e-12 1.33042e-12 4.41578e-13 -3.2619e-12 2.64728e-12 -3.16576e-14 -7.12399e-13 -7.82809e-13 -2.48522e-12 3.6738e-12 1.56433e-12 0 0 -9.08599e-15 -5.58461e-14 1.23088e-14 -9.78297e-14 8.79795e-15 1.03458e-13 2.10875e-14 -1.01493e-13 -1.21171e-13 -1.05054e-14 -1.41841e-13 3.05669e-13 -2.55897e-13 -8.98969e-15 4.80538e-14 -4.31084e-13 2.69852e-14 -2.57793e-13 1.70103e-13 1.16666e-13 -1.8269e-13 -2.69514e-13 1.08356e-13 2.09787e-13 -6.43731e-14 -4.91841e-13 -3.02976e-13 -5.85912e-14 2.85163e-13 -1.3355e-13 3.41151e-13 1.0852e-13 6.57891e-14 4.99903e-13 -7.27176e-13 1.63317e-13 -7.4067e-13 3.06879e-13 -2.25903e-13 5.4602e-13 -3.4831e-13 -1.29704e-13 -6.82885e-14 -5.37204e-13 -5.90512e-13 -4.53555e-14 -2.70919e-13 6.36215e-13 8.20538e-15 -7.18982e-13 -6.39644e-13 -9.47449e-13 1.22863e-12 -2.15154e-13 1.66724e-13 1.00214e-12 -7.03234e-13 6.11808e-13 -8.37491e-13 -4.29832e-13 1.13509e-13 -1.82164e-13 5.51284e-13 -5.58231e-13 1.82228e-13 3.5215e-13 4.65348e-13 8.18733e-13 -3.92439e-13 -9.22373e-14 6.2345e-13 -1.05307e-12 2.07156e-14 -1.41751e-12 1.16422e-14 4.69265e-13 -8.49609e-14 9.00828e-13 -1.33814e-12 3.47072e-13 -4.64356e-13 1.25503e-12 2.08536e-11 4.32457e-10 8.02702e-09 1.28784e-07 1.76107e-06 2.02e-05 0.000190375 0.00143428 0.00831994 0.0353674 0.104748 0.214178 0.329066 0.434165 0.531297 0.620357 0.700213 0.769123 0.825209 0.867592 0.896108 0.914246 0.922687 0.920147 0.905093 0.871042 0.810863 0.719429 0.596977 0.452129 0.30279 0.172262 0.0797826 0.0296415 0.00924428 0.00259005 0.000679186 0.000169288 4.02996e-05 9.17638e-06 2.0001e-06 4.17539e-07 8.35349e-08 1.60281e-08 2.95161e-09 5.20562e-10 8.92298e-11 1.31175e-11 3.37964e-12 5.32097e-13 -2.49534e-12 1.59603e-13 -1.06803e-12 7.49342e-13 4.33458e-13 -3.07559e-13 2.71258e-13 -1.25053e-12 2.37705e-13 2.19125e-12 -1.02658e-12 2.58302e-13 6.46714e-13 -1.63738e-13 2.56554e-12 -1.54628e-12 -2.85019e-13 1.11646e-12 1.33383e-12 1.92711e-12 -3.17175e-12 -1.22914e-12 -1.56478e-12 2.06787e-13 -7.49908e-13 -1.26301e-12 -6.62256e-13 -5.45661e-13 2.32279e-12 -6.70539e-13 -1.88807e-12 -7.96074e-13 -5.76234e-13 2.58739e-12 1.96317e-12 -1.57758e-12 -8.17454e-13 -2.07271e-12 1.07813e-13 1.42074e-12 -1.88704e-12 1.1312e-12 -1.58432e-14 2.98815e-13 1.70142e-12 -9.03029e-13 5.45905e-13 -1.53913e-12 9.4868e-14 1.52151e-12 -2.13696e-12 -1.88827e-13 -3.26241e-12 4.8449e-13 2.35724e-12 -8.09709e-13 9.665e-13 -1.15248e-12 -7.86692e-13 3.24732e-12 -2.55997e-12 -1.32904e-12 -1.00826e-12 -6.52582e-13 4.66628e-12 -2.2705e-12 2.29103e-13 0
				</DataArray>
				<DataArray Name="VitesseY" type="Float32" format="ascii">