<?xml version="1.0"?>
<VTKFile type="PolyData">
	<PolyData>
		<Piece NumberOfPoints="1206" NumberOfPolys="1000">
			<Points>
				<DataArray type="Float32" NumberOfComponents="3" format="ascii">
 0 0 0 0.005 0 0 0.01 0 0 0.015 0 0 0.02 0 0 0.025 0 0 0.03 0 0 0.035 0 0 0.04 0 0 0.045 0 0 0.05 0 0 0.055 0 0 0.06 0 0 0.065 0 0 0.07 0 0 0.075 0 0 0.08 0 0 0.085 0 0 0.09 0 0 0.095 0 0 0.1 0 0 0.105 0 0 0.11 0 0 0.115 0 0 0.12 0 0 0.125 0 0 0.13 0 0 0.135 0 0 0.14 0 0 0.145 0 0 0.15 0 0 0.155 0 0 0.16 0 0 0.165 0 0 0.17 0 0 0.175 0 0 0.18 0 0 0.185 0 0 0.19 0 0 0.195 0 0 0.2 0 0 0.205 0 0 0.21 0 0 0.215 0 0 0.22 0 0 0.225 0 0 0.23 0 0 0.235 0 0 0.24 0 0 0.245 0 0 0.25 0 0 0.255 0 0 0.26 0 0 0.265 0 0 0.27 0 0 0.275 0 0 0.28 0 0 0.285 0 0 0.29 0 0 0.295 0 0 0.3 0 0 0.305 0 0 0.31 0 0 0.315 0 0 0.32 0 0 0.325 0 0 0.33 0 0 0.335 0 0 0.34 0 0 0.345 0 0 0.35 0 0 0.355 0 0 0.36 0 0 0.365 0 0 0.37 0 0 0.375 0 0 0.38 0 0 0.385 0 0 0.39 0 0 0.395 0 0 0.4 0 0 0.405 0 0 0.41 0 0 0.415 0 0 0.42 0 0 0.425 0 0 0.43 0 0 0.435 0 0 0.44 0 0 0.445 0 0 0.45 0 0 0.455 0 0 0.46 0 0 0.465 0 0 0.47 0 0 0.475 0 0 0.48 0 0 0.485 0 0 0.49 0 0 0.495 0 0 0.5 0 0 0.505 0 0 0.51 0 0 0.515 0 0 0.52 0 0 0.525 0 0 0.53 0 0 0.535 0 0 0.54 0 0 0.545 0 0 0.55 0 0 0.555 0 0 0.56 0 0 0.565 0 0 0.57 0 0 0.575 0 0 0.58 0 0 0.585 0 0 0.59 0 0 0.595 0 0 0.6 0 0 0.605 0 0 0.61 0 0 0.615 0 0 0.62 0 0 0.625 0 0 0.63 0 0 0.635 0 0 0.64 0 0 0.645 0 0 0.65 0 0 0.655 0 0 0.66 0 0 0.665 0 0 0.67 0 0 0.675 0 0 0.68 0 0 0.685 0 0 0.69 0 0 0.695 0 0 0.7 0 0 0.705 0 0 0.71 0 0 0.715 0 0 0.72 0 0 0.725 0 0 0.73 0 0 0.735 0 0 0.74 0 0 0.745 0 0 0.75 0 0 0.755 0 0 0.76 0 0 0.765 0 0 0.77 0 0 0.775 0 0 0.78 0 0 0.785 0 0 0.79 0 0 0.795 0 0 0.8 0 0 0.805 0 0 0.81 0 0 0.815 0 0 0.82 0 0 0.825 0 0 0.83 0 0 0.835 0 0 0.84 0 0 0.845 0 0 0.85 0 0 0.855 0 0 0.86 0 0 0.865 0 0 0.87 0 0 0.875 0 0 0.88 0 0 0.885 0 0 0.89 0 0 0.895 0 0 0.9 0 0 0.905 0 0 0.91 0 0 0.915 0 0 0.92 0 0 0.925 0 0 0.93 0 0 0.935 0 0 0.94 0 0 0.945 0 0 0.95 0 0 0.955 0 0 0.96 0 0 0.965 0 0 0.97 0 0 0.975 0 0 0.98 0 0 0.985 0 0 0.99 0 0 0.995 0 0 1 0 0 0 0.02 0 0.005 0.02 0 0.01 0.02 0 0.015 0.02 0 0.02 0.02 0 0.025 0.02 0 0.03 0.02 0 0.035 0.02 0 0.04 0.02 0 0.045 0.02 0 0.05 0.02 0 0.055 0.02 0 0.06 0.02 0 0.065 0.02 0 0.07 0.02 0 0.075 0.02 0 0.08 0.02 0 0.085 0.02 0 0.09 0.02 0 0.095 0.02 0 0.1 0.02 0 0.105 0.02 0 0.11 0.02 0 0.115 0.02 0 0.12 0.02 0 0.125 0.02 0 0.13 0.02 0 0.135 0.02 0 0.14 0.02 0 0.145 0.02 0 0.15 0.02 0 0.155 0.02 0 0.16 0.02 0 0.165 0.02 0 0.17 0.02 0 0.175 0.02 0 0.18 0.02 0 0.185 0.02 0 0.19 0.02 0 0.195 0.02 0 0.2 0.02 0 0.205 0.02 0 0.21 0.02 0 0.215 0.02 0 0.22 0.02 0 0.225 0.02 0 0.23 0.02 0 0.235 0.02 0 0.24 0.02 0 0.245 0.02 0 0.25 0.02 0 0.255 0.02 0 0.26 0.02 0 0.265 0.02 0 0.27 0.02 0 0.275 0.02 0 0.28 0.02 0 0.285 0.02 0 0.29 0.02 0 0.295 0.02 0 0.3 0.02 0 0.305 0.02 0 0.31 0.02 0 0.315 0.02 0 0.32 0.02 0 0.325 0.02 0 0.33 0.02 0 0.335 0.02 0 0.34 0.02 0 0.345 0.02 0 0.35 0.02 0 0.355 0.02 0 0.36 0.02 0 0.365 0.02 0 0.37 0.02 0 0.375 0.02 0 0.38 0.02 0 0.385 0.02 0 0.39 0.02 0 0.395 0.02 0 0.4 0.02 0 0.405 0.02 0 0.41 0.02 0 0.415 0.02 0 0.42 0.02 0 0.425 0.02 0 0.43 0.02 0 0.435 0.02 0 0.44 0.02 0 0.445 0.02 0 0.45 0.02 0 0.455 0.02 0 0.46 0.02 0 0.465 0.02 0 0.47 0.02 0 0.475 0.02 0 0.48 0.02 0 0.485 0.02 0 0.49 0.02 0 0.495 0.02 0 0.5 0.02 0 0.505 0.02 0 0.51 0.02 0 0.515 0.02 0 0.52 0.02 0 0.525 0.02 0 0.53 0.02 0 0.535 0.02 0 0.54 0.02 0 0.545 0.02 0 0.55 0.02 0 0.555 0.02 0 0.56 0.02 0 0.565 0.02 0 0.57 0.02 0 0.575 0.02 0 0.58 0.02 0 0.585 0.02 0 0.59 0.02 0 0.595 0.02 0 0.6 0.02 0 0.605 0.02 0 0.61 0.02 0 0.615 0.02 0 0.62 0.02 0 0.625 0.02 0 0.63 0.02 0 0.635 0.02 0 0.64 0.02 0 0.645 0.02 0 0.65 0.02 0 0.655 0.02 0 0.66 0.02 0 0.665 0.02 0 0.67 0.02 0 0.675 0.02 0 0.68 0.02 0 0.685 0.02 0 0.69 0.02 0 0.695 0.02 0 0.7 0.02 0 0.705 0.02 0 0.71 0.02 0 0.715 0.02 0 0.72 0.02 0 0.725 0.02 0 0.73 0.02 0 0.735 0.02 0 0.74 0.02 0 0.745 0.02 0 0.75 0.02 0 0.755 0.02 0 0.76 0.02 0 0.765 0.02 0 0.77 0.02 0 0.775 0.02 0 0.78 0.02 0 0.785 0.02 0 0.79 0.02 0 0.795 0.02 0 0.8 0.02 0 0.805 0.02 0 0.81 0.02 0 0.815 0.02 0 0.82 0.02 0 0.825 0.02 0 0.83 0.02 0 0.835 0.02 0 0.84 0.02 0 0.845 0.02 0 0.85 0.02 0 0.855 0.02 0 0.86 0.02 0 0.865 0.02 0 0.87 0.02 0 0.875 0.02 0 0.88 0.02 0 0.885 0.02 0 0.89 0.02 0 0.895 0.02 0 0.9 0.02 0 0.905 0.02 0 0.91 0.02 0 0.915 0.02 0 0.92 0.02 0 0.925 0.02 0 0.93 0.02 0 0.935 0.02 0 0.94 0.02 0 0.945 0.02 0 0.95 0.02 0 0.955 0.02 0 0.96 0.02 0 0.965 0.02 0 0.97 0.02 0 0.975 0.02 0 0.98 0.02 0 0.985 0.02 0 0.99 0.02 0 0.995 0.02 0 1 0.02 0 0 0.04 0 0.005 0.04 0 0.01 0.04 0 0.015 0.04 0 0.02 0.04 0 0.025 0.04 0 0.03 0.04 0 0.035 0.04 0 0.04 0.04 0 0.045 0.04 0 0.05 0.04 0 0.055 0.04 0 0.06 0.04 0 0.065 0.04 0 0.07 0.04 0 0.075 0.04 0 0.08 0.04 0 0.085 0.04 0 0.09 0.04 0 0.095 0.04 0 0.1 0.04 0 0.105 0.04 0 0.11 0.04 0 0.115 0.04 0 0.12 0.04 0 0.125 0.04 0 0.13 0.04 0 0.135 0.04 0 0.14 0.04 0 0.145 0.04 0 0.15 0.04 0 0.155 0.04 0 0.16 0.04 0 0.165 0.04 0 0.17 0.04 0 0.175 0.04 0 0.18 0.04 0 0.185 0.04 0 0.19 0.04 0 0.195 0.04 0 0.2 0.04 0 0.205 0.04 0 0.21 0.04 0 0.215 0.04 0 0.22 0.04 0 0.225 0.04 0 0.23 0.04 0 0.235 0.04 0 0.24 0.04 0 0.245 0.04 0 0.25 0.04 0 0.255 0.04 0 0.26 0.04 0 0.265 0.04 0 0.27 0.04 0 0.275 0.04 0 0.28 0.04 0 0.285 0.04 0 0.29 0.04 0 0.295 0.04 0 0.3 0.04 0 0.305 0.04 0 0.31 0.04 0 0.315 0.04 0 0.32 0.04 0 0.325 0.04 0 0.33 0.04 0 0.335 0.04 0 0.34 0.04 0 0.345 0.04 0 0.35 0.04 0 0.355 0.04 0 0.36 0.04 0 0.365 0.04 0 0.37 0.04 0 0.375 0.04 0 0.38 0.04 0 0.385 0.04 0 0.39 0.04 0 0.395 0.04 0 0.4 0.04 0 0.405 0.04 0 0.41 0.04 0 0.415 0.04 0 0.42 0.04 0 0.425 0.04 0 0.43 0.04 0 0.435 0.04 0 0.44 0.04 0 0.445 0.04 0 0.45 0.04 0 0.455 0.04 0 0.46 0.04 0 0.465 0.04 0 0.47 0.04 0 0.475 0.04 0 0.48 0.04 0 0.485 0.04 0 0.49 0.04 0 0.495 0.04 0 0.5 0.04 0 0.505 0.04 0 0.51 0.04 0 0.515 0.04 0 0.52 0.04 0 0.525 0.04 0 0.53 0.04 0 0.535 0.04 0 0.54 0.04 0 0.545 0.04 0 0.55 0.04 0 0.555 0.04 0 0.56 0.04 0 0.565 0.04 0 0.57 0.04 0 0.575 0.04 0 0.58 0.04 0 0.585 0.04 0 0.59 0.04 0 0.595 0.04 0 0.6 0.04 0 0.605 0.04 0 0.61 0.04 0 0.615 0.04 0 0.62 0.04 0 0.625 0.04 0 0.63 0.04 0 0.635 0.04 0 0.64 0.04 0 0.645 0.04 0 0.65 0.04 0 0.655 0.04 0 0.66 0.04 0 0.665 0.04 0 0.67 0.04 0 0.675 0.04 0 0.68 0.04 0 0.685 0.04 0 0.69 0.04 0 0.695 0.04 0 0.7 0.04 0 0.705 0.04 0 0.71 0.04 0 0.715 0.04 0 0.72 0.04 0 0.725 0.04 0 0.73 0.04 0 0.735 0.04 0 0.74 0.04 0 0.745 0.04 0 0.75 0.04 0 0.755 0.04 0 0.76 0.04 0 0.765 0.04 0 0.77 0.04 0 0.775 0.04 0 0.78 0.04 0 0.785 0.04 0 0.79 0.04 0 0.795 0.04 0 0.8 0.04 0 0.805 0.04 0 0.81 0.04 0 0.815 0.04 0 0.82 0.04 0 0.825 0.04 0 0.83 0.04 0 0.835 0.04 0 0.84 0.04 0 0.845 0.04 0 0.85 0.04 0 0.855 0.04 0 0.86 0.04 0 0.865 0.04 0 0.87 0.04 0 0.875 0.04 0 0.88 0.04 0 0.885 0.04 0 0.89 0.04 0 0.895 0.04 0 0.9 0.04 0 0.905 0.04 0 0.91 0.04 0 0.915 0.04 0 0.92 0.04 0 0.925 0.04 0 0.93 0.04 0 0.935 0.04 0 0.94 0.04 0 0.945 0.04 0 0.95 0.04 0 0.955 0.04 0 0.96 0.04 0 0.965 0.04 0 0.97 0.04 0 0.975 0.04 0 0.98 0.04 0 0.985 0.04 0 0.99 0.04 0 0.995 0.04 0 1 0.04 0 0 0.06 0 0.005 0.06 0 0.01 0.06 0 0.015 0.06 0 0.02 0.06 0 0.025 0.06 0 0.03 0.06 0 0.035 0.06 0 0.04 0.06 0 0.045 0.06 0 0.05 0.06 0 0.055 0.06 0 0.06 0.06 0 0.065 0.06 0 0.07 0.06 0 0.075 0.06 0 0.08 0.06 0 0.085 0.06 0 0.09 0.06 0 0.095 0.06 0 0.1 0.06 0 0.105 0.06 0 0.11 0.06 0 0.115 0.06 0 0.12 0.06 0 0.125 0.06 0 0.13 0.06 0 0.135 0.06 0 0.14 0.06 0 0.145 0.06 0 0.15 0.06 0 0.155 0.06 0 0.16 0.06 0 0.165 0.06 0 0.17 0.06 0 0.175 0.06 0 0.18 0.06 0 0.185 0.06 0 0.19 0.06 0 0.195 0.06 0 0.2 0.06 0 0.205 0.06 0 0.21 0.06 0 0.215 0.06 0 0.22 0.06 0 0.225 0.06 0 0.23 0.06 0 0.235 0.06 0 0.24 0.06 0 0.245 0.06 0 0.25 0.06 0 0.255 0.06 0 0.26 0.06 0 0.265 0.06 0 0.27 0.06 0 0.275 0.06 0 0.28 0.06 0 0.285 0.06 0 0.29 0.06 0 0.295 0.06 0 0.3 0.06 0 0.305 0.06 0 0.31 0.06 0 0.315 0.06 0 0.32 0.06 0 0.325 0.06 0 0.33 0.06 0 0.335 0.06 0 0.34 0.06 0 0.345 0.06 0 0.35 0.06 0 0.355 0.06 0 0.36 0.06 0 0.365 0.06 0 0.37 0.06 0 0.375 0.06 0 0.38 0.06 0 0.385 0.06 0 0.39 0.06 0 0.395 0.06 0 0.4 0.06 0 0.405 0.06 0 0.41 0.06 0 0.415 0.06 0 0.42 0.06 0 0.425 0.06 0 0.43 0.06 0 0.435 0.06 0 0.44 0.06 0 0.445 0.06 0 0.45 0.06 0 0.455 0.06 0 0.46 0.06 0 0.465 0.06 0 0.47 0.06 0 0.475 0.06 0 0.48 0.06 0 0.485 0.06 0 0.49 0.06 0 0.495 0.06 0 0.5 0.06 0 0.505 0.06 0 0.51 0.06 0 0.515 0.06 0 0.52 0.06 0 0.525 0.06 0 0.53 0.06 0 0.535 0.06 0 0.54 0.06 0 0.545 0.06 0 0.55 0.06 0 0.555 0.06 0 0.56 0.06 0 0.565 0.06 0 0.57 0.06 0 0.575 0.06 0 0.58 0.06 0 0.585 0.06 0 0.59 0.06 0 0.595 0.06 0 0.6 0.06 0 0.605 0.06 0 0.61 0.06 0 0.615 0.06 0 0.62 0.06 0 0.625 0.06 0 0.63 0.06 0 0.635 0.06 0 0.64 0.06 0 0.645 0.06 0 0.65 0.06 0 0.655 0.06 0 0.66 0.06 0 0.665 0.06 0 0.67 0.06 0 0.675 0.06 0 0.68 0.06 0 0.685 0.06 0 0.69 0.06 0 0.695 0.06 0 0.7 0.06 0 0.705 0.06 0 0.71 0.06 0 0.715 0.06 0 0.72 0.06 0 0.725 0.06 0 0.73 0.06 0 0.735 0.06 0 0.74 0.06 0 0.745 0.06 0 0.75 0.06 0 0.755 0.06 0 0.76 0.06 0 0.765 0.06 0 0.77 0.06 0 0.775 0.06 0 0.78 0.06 0 0.785 0.06 0 0.79 0.06 0 0.795 0.06 0 0.8 0.06 0 0.805 0.06 0 0.81 0.06 0 0.815 0.06 0 0.82 0.06 0 0.825 0.06 0 0.83 0.06 0 0.835 0.06 0 0.84 0.06 0 0.845 0.06 0 0.85 0.06 0 0.855 0.06 0 0.86 0.06 0 0.865 0.06 0 0.87 0.06 0 0.875 0.06 0 0.88 0.06 0 0.885 0.06 0 0.89 0.06 0 0.895 0.06 0 0.9 0.06 0 0.905 0.06 0 0.91 0.06 0 0.915 0.06 0 0.92 0.06 0 0.925 0.06 0 0.93 0.06 0 0.935 0.06 0 0.94 0.06 0 0.945 0.06 0 0.95 0.06 0 0.955 0.06 0 0.96 0.06 0 0.965 0.06 0 0.97 0.06 0 0.975 0.06 0 0.98 0.06 0 0.985 0.06 0 0.99 0.06 0 0.995 0.06 0 1 0.06 0 0 0.08 0 0.005 0.08 0 0.01 0.08 0 0.015 0.08 0 0.02 0.08 0 0.025 0.08 0 0.03 0.08 0 0.035 0.08 0 0.04 0.08 0 0.045 0.08 0 0.05 0.08 0 0.055 0.08 0 0.06 0.08 0 0.065 0.08 0 0.07 0.08 0 0.075 0.08 0 0.08 0.08 0 0.085 0.08 0 0.09 0.08 0 0.095 0.08 0 0.1 0.08 0 0.105 0.08 0 0.11 0.08 0 0.115 0.08 0 0.12 0.08 0 0.125 0.08 0 0.13 0.08 0 0.135 0.08 0 0.14 0.08 0 0.145 0.08 0 0.15 0.08 0 0.155 0.08 0 0.16 0.08 0 0.165 0.08 0
[...]
			<PointData Scalars="VitesseX">
				<DataArray Name="VitesseX" type="Float32" format="ascii">
 0 4.37571e-15 -1.25704e-14 -4.45283e-14 -1.69399e-14 6.33926e-15 -2.8425e-14 1.26258e-14 -1.73716e-14 7.39673e-14 -4.31557e-14 1.56583e-14 -1.05433e-13 1.06646e-13 -9.0182e-14 -3.72074e-14 1.7721e-14 1.86822e-14 -2.12683e-14 -1.43838e-13 2.10162e-14 -2.78016e-14 2.88074e-14 -1.09192e-13 -1.00953e-13 -5.56638e-14 -1.7178e-14 -9.5487e-14 -6.01047e-14 -1.84171e-13 -1.70428e-13 -3.74158e-14 -2.67164e-13 -6.27058e-14 -4.1887e-13 5.59416e-14 -1.67516e-13 -4.61618e-14 1.71036e-13 1.62108e-13 -3.88984e-14 2.43374e-14 3.0616e-14 -8.87178e-14 -3.91845e-14 -1.97994e-13 -2.1026e-13 -9.31207e-14 -5.67818e-14 6.62764e-16 -3.30969e-13 1.99823e-13 1.1769e-13 -5.70855e-13 -1.92695e-14 -1.93933e-13 -2.12742e-13 -5.48029e-14 -1.15287e-13 -1.15267e-13 6.43172e-13 5.16826e-12 4.29204e-11 3.44917e-10 2.59284e-09 1.81135e-08 1.17161e-07 6.98447e-07 3.81807e-06 1.90248e-05 8.57908e-05 0.000347059 0.00124597 0.00391778 0.0106297 0.0245445 0.0479201 0.0798064 0.116481 0.154582 0.192703 0.230562 0.268118 0.305356 0.342263 0.378825 0.41502 0.450821 0.486192 0.521084 0.555437 0.589176 0.622208 0.654419 0.685672 0.715806 0.744634 0.771946 0.79751 0.821087 0.842442 0.861369 0.877717 0.891418 0.902506 0.91113 0.917543 0.922076 0.925097 0.926973 0.928031 0.92854 0.928707 0.928688 0.928595 0.928456 0.928289 0.928108 0.927924 0.927738 0.927552 0.927355 0.927132 0.926843 0.926422 0.925742 0.924578 0.922546 0.919006 0.912936 0.902767 0.886221 0.860223 0.821004 0.764596 0.687862 0.590094 0.474907 0.351506 0.233838 0.13658 0.0690015 0.0304429 0.0121769 0.00460591 0.00169282 0.000612166 0.000218845 7.74477e-05 2.71352e-05 9.40932e-06 3.22756e-06 1.09461e-06 3.66868e-07 1.21458e-07 3.97045e-08 1.28111e-08 4.0782e-09 1.28103e-09 3.96206e-10 1.21076e-10 3.65232e-11 1.03253e-11 2.74174e-12 1.42348e-13 3.7838e-13 -5.80858e-13 2.50016e-13 7.76084e-14 -1.42952e-12 9.06351e-14 -3.43679e-13 2.61311e-14 4.23442e-13 -1.05151e-12 7.09524e-13 -2.15176e-13 3.73621e-13 -6.57257e-15 -4.30864e-13 -1.79994e-13 -1.38342e-13 -2.55383e-13 3.8786e-13 -4.55578e-14 2.73529e-13 -5.94257e-13 9.281e-14 -5.04221e-13 1.46828e-13 8.31428e-14 3.49636e-13 -1.68201e-13 5.92019e-13 -2.7974e-13 3.97928e-13 1.70099e-13 6.65176e-14 -5.62439e-13 -5.95501e-13 0 0 -2.22247e-14 -1.97744e-14 -1.5951e-15 -5.09987e-14 -3.65463e-14 1.57775e-14 -9.50929e-15 2.41964e-14 -3.27108e-14 4.01677e-14 -2.31009e-14 7.60503e-14 -1.03646e-13 1.61822e-14 -1.93356e-14 -1.51519e-15 -3.23151e-14 -6.07908e-14 5.09499e-14 -1.16038e-13 -2.51361e-14 -5.44977e-14 -4.19806e-14 -2.91695e-14 -6.5273e-14 -1.38288e-13 -5.76461e-14 -1.77825e-13 -6.58782e-14 -2.03859e-13 -2.28767e-13 -7.41172e-14 -2.31972e-13 2.31379e-14 -2.50935e-13 3.19562e-14 2.45386e-14 3.7173e-14 -3.24228e-14 5.79581e-14 -1.58296e-13 -7.27452e-14 5.58098e-14 -2.1599e-13 -7.59386e-14 -1.7947e-13 -3.75638e-14 -1.747e-13 -1.53921e-13 1.22359e-13 -1.82266e-13 -1.95496e-13 1.65508e-13 -1.96535e-13 -1.24166e-13 -1.54793e-13 -2.20671e-13 2.19241e-14 3.4068e-14 6.22626e-13 5.01526e-12 4.27781e-11 3.45059e-10 2.59259e-09 1.81139e-08 1.17162e-07 6.98447e-07 3.81807e-06 1.90248e-05 8.57908e-05 0.000347059 0.00124597 0.00391778 0.0106297 0.0245445 0.0479201 0.0798064 0.116481 0.154582 0.192703 0.230562 0.268118 0.305356 0.342263 0.378825 0.41502 0.450821 0.486192 0.521084 0.555437 0.589176 0.622208 0.654419 0.685672 0.715806 0.744634 0.771946 0.79751 0.821087 0.842442 0.861369 0.877717 0.891418 0.902506 0.91113 0.917543 0.922076 0.925097 0.926973 0.928031 0.92854 0.928707 0.928688 0.928595 0.928456 0.928289 0.928108 0.927924 0.927738 0.927552 0.927355 0.927132 0.926843 0.926422 0.925742 0.924578 0.922546 0.919006 0.912936 0.902767 0.886221 0.860223 0.821004 0.764596 0.687862 0.590094 0.474907 0.351506 0.233838 0.13658 0.0690015 0.0304429 0.0121769 0.00460591 0.00169282 0.000612166 0.000218845 7.74477e-05 2.71352e-05 9.40932e-06 3.22756e-06 1.09462e-06 3.66868e-07 1.21459e-07 3.97043e-08 1.28111e-08 4.07896e-09 1.2807e-09 3.96743e-10 1.20765e-10 3.59995e-11 1.0672e-11 2.93985e-12 6.36732e-13 -2.02288e-13 -4.50324e-13 -3.77671e-13 -4.2938e-13 5.35873e-13 -6.91932e-13 -1.22776e-13 -2.56312e-13 -5.94501e-13 5.69484e-13 -7.37247e-14 1.78886e-13 -7.03011e-14 -2.51086e-13 -7.79974e-14 -1.01239e-13 6.25312e-14 9.36777e-14 -8.16848e-13 2.56955e-13 -4.59543e-13 2.95511e-13 -2.80172e-13 -2.48007e-13 -1.75785e-13 2.33807e-13 -5.38612e-14 3.31947e-13 -7.86542e-14 8.42358e-13 -3.37273e-13 -4.84179e-13 4.8749e-14 5.00124e-13 3.62343e-13 0 0 -1.36739e-14 -2.3554e-14 -4.16006e-14 -8.2939e-15 -3.60985e-14 -2.40557e-14 -1.0531e-14 -1.94816e-14 1.04181e-14 5.4236e-15 1.58487e-14 -1.26804e-14 4.52258e-14 -2.62489e-14 -1.41779e-14 -1.47314e-14 3.11686e-14 2.70883e-14 -4.6242e-14 -8.58657e-14 -7.61924e-14 -1.204e-13 -3.93214e-14 -6.36002e-14 -7.24754e-14 -5.91574e-14 -1.89615e-13 -7.80423e-14 -1.90418e-13 -9.59354e-14 -1.57685e-13 -1.23014e-13 -5.87515e-14 -1.84079e-13 2.37596e-14 3.60142e-14 5.6771e-14 -7.78087e-14 -1.23536e-13 -2.03523e-13 1.00799e-13 6.14161e-14 -1.88226e-13 -1.62558e-13 -1.47317e-13 -2.01295e-13 -1.89356e-13 9.92457e-14 -3.57956e-14 -1.42436e-13 -1.25026e-13 -1.10488e-13 1.69565e-13 -1.81014e-13 -9.54897e-14 -1.1669e-13 -6.57261e-14 -8.42174e-14 7.13253e-14 5.66859e-13 5.00986e-12 4.28489e-11 3.44777e-10 2.59273e-09 1.81141e-08 1.17161e-07 6.98447e-07 3.81807e-06 1.90248e-05 8.57908e-05 0.000347059 0.00124597 0.00391778 0.0106297 0.0245445 0.0479201 0.0798064 0.116481 0.154582 0.192703 0.230562 0.268118 0.305356 0.342263 0.378825 0.41502 0.450821 0.486192 0.521084 0.555437 0.589176 0.622208 0.654419 0.685672 0.715806 0.744634 0.771946 0.79751 0.821087 0.842442 0.861369 0.877717 0.891418 0.902506 0.91113 0.917543 0.922076 0.925097 0.926973 0.928031 0.92854 0.928707 0.928688 0.928595 0.928456 0.928289 0.928108 0.927924 0.927738 0.927552 0.927355 0.927132 0.926843 0.926422 0.925742 0.924578 0.922546 0.919006 0.912936 0.902767 0.886221 0.860223 0.821004 0.764596 0.687862 0.590094 0.474907 0.351506 0.233838 0.13658 0.0690015 0.0304429 0.0121769 0.00460591 0.00169282 0.000612166 0.000218845 7.74477e-05 2.71352e-05 9.40932e-06 3.22756e-06 1.09461e-06 3.66868e-07 1.21458e-07 3.97047e-08 1.28114e-08 4.07903e-09 1.28098e-09 3.96459e-10 1.21154e-10 3.63755e-11 1.06113e-11 2.53765e-12 8.01141e-13 8.9823e-15 -4.68e-13 -5.74197e-13 -2.90263e-13 -2.41876e-13 1.16367e-13 -5.85477e-13 -2.47227e-13 4.69369e-14 1.07821e-13 2.60783e-13 -3.89849e-13 -3.85398e-14 9.36478e-14 -3.2012e-13 1.01498e-13 -2.83823e-13 8.60375e-14 -2.45728e-13 -8.08279e-13 -2.66895e-13 -2.5542e-13 -2.19378e-13 3.64451e-13 -3.23137e-13 -2.47004e-13 5.01233e-13 4.48485e-13 -2.57033e-13 -1.42776e-13 5.08955e-13 -1.24132e-13 -4.6039e-15 1.32531e-13 -2.77159e-13 0 0 -8.96914e-15 -3.72498e-14 -3.02049e-14 -2.70418e-14 -2.58731e-14 -2.73354e-14 -1.92095e-14 -1.60803e-14 3.2614e-14 1.73859e-14 2.7968e-14 -4.95544e-14 3.46014e-14 -6.93861e-14 2.46401e-14 -5.09039e-15 2.7434e-14 3.10922e-14 -3.6383e-14 -3.62542e-14 -1.11797e-13 -1.48642e-14 -1.22674e-13 -7.71527e-14 -1.32855e-13 -3.45301e-14 -6.72702e-14 -1.19886e-13 -1.35716e-13 -3.15918e-14 -1.21038e-13 -1.37222e-13 -1.94448e-14 -1.02546e-13 5.54218e-14 -7.17791e-14 -1.00231e-13 1.18695e-13 -1.17558e-13 -6.43244e-14 -1.34313e-13 1.2855e-13 -1.23504e-13 -1.09679e-13 -1.72455e-13 -4.91393e-14 -1.11984e-13 -8.0179e-14 -9.01498e-14 -1.22641e-13 1.31151e-14 -5.3812e-14 -1.10722e-13 -1.0392e-14 -3.22961e-14 -1.9709e-13 -2.2533e-13 1.44895e-14 6.66155e-14 5.38465e-13 4.88166e-12 4.30411e-11 3.44835e-10 2.59291e-09 1.81138e-08 1.17161e-07 6.98447e-07 3.81807e-06 1.90248e-05 8.57908e-05 0.000347059 0.00124597 0.00391778 0.0106297 0.0245445 0.0479201 0.0798064 0.116481 0.154582 0.192703 0.230562 0.268118 0.305356 0.342263 0.378825 0.41502 0.450821 0.486192 0.521084 0.555437 0.589176 0.622208 0.654419 0.685672 0.715806 0.744634 0.771946 0.79751 0.821087 0.842442 0.861369 0.877717 0.891418 0.902506 0.91113 0.917543 0.922076 0.925097 0.926973 0.928031 0.92854 0.928707 0.928688 0.928595 0.928456 0.928289 0.928108 0.927924 0.927738 0.927552 0.927355 0.927132 0.926843 0.926422 0.925742 0.924578 0.922546 0.919006 0.912936 0.902767 0.886221 0.860223 0.821004 0.764596 0.687862 0.590094 0.474907 0.351506 0.233838 0.13658 0.0690015 0.0304429 0.0121769 0.00460591 0.00169282 0.000612166 0.000218845 7.74477e-05 2.71352e-05 9.40932e-06 3.22756e-06 1.09462e-06 3.66868e-07 1.21458e-07 3.97046e-08 1.28112e-08 4.07911e-09 1.28126e-09 3.9672e-10 1.21081e-10 3.64676e-11 1.05107e-11 3.10773e-12 3.89149e-13 2.24622e-13 -1.65454e-13 -3.03733e-13 -5.56249e-13 -9.1014e-13 -2.44961e-13 -5.7253e-14 1.38274e-13 -1.71085e-13 -1.76711e-13 4.33016e-13 -1.70175e-13 -1.72595e-13 1.07254e-13 2.02073e-13 -2.24699e-13 -7.44265e-13 -2.44166e-13 3.2167e-13 -8.06934e-13 -3.96122e-13 -3.99161e-13 -1.78267e-13 -6.18627e-14 1.96765e-13 3.93343e-13 -2.0382e-13 2.59349e-13 2.80775e-13 -2.03237e-13 4.28856e-13 6.17857e-13 2.2755e-13 -7.08508e-13 2.80829e-13 0 0 -1.85463e-14 -2.87362e-14 -2.42917e-15 -4.81243e-14 -3.6983e-14 1.2152e-14 -2.78822e-14 2.68995e-14 -2.20951e-14 4.06391e-14 -1.815e-14 6.89901e-14 -8.64727e-14 1.7911e-14 3.93712e-14 2.92739e-14 -3.32289e-14 -1.00785e-13 5.80167e-14 -9.76161e-14 -5.79269e-14 -4.83776e-14 -9.90365e-14 -2.03823e-15 -8.83317e-14 -1.13596e-13 -1.35828e-16 -1.66361e-13 -2.27808e-14 -1.48838e-13 -1.81742e-13 2.12056e-14 -1.53987e-13 1.09587e-13 -9.31287e-14 -6.90117e-14 -1.90034e-14 2.98451e-14 -3.1128e-14 1.77529e-13 -3.55217e-13 -6.82758e-14 7.58693e-14 -1.95034e-13 -7.64484e-14 -1.93733e-14 -1.47104e-13 -2.87232e-13 -1.87113e-13 2.34855e-13 -2.33887e-14 -1.22256e-13 1.10163e-13 3.94272e-15 -1.64263e-14 -1.3967e-13 -3.80842e-13 -1.30383e-13 1.74313e-13 7.458e-13 5.10053e-12 4.28835e-11 3.45281e-10 2.59271e-09 1.81139e-08 1.17161e-07 6.98446e-07 3.81807e-06 1.90248e-05 8.57908e-05 0.000347059 0.00124597 0.00391778 0.0106297 0.0245445 0.0479201 0.0798064 0.116481 0.154582 0.192703 0.230562 0.268118 0.305356 0.342263 0.378825 0.41502 0.450821 0.486192 0.521084 0.555437 0.589176 0.622208 0.654419 0.685672 0.715806 0.744634 0.771946 0.79751 0.821087 0.842442 0.861369 0.877717 0.891418 0.902506 0.91113 0.917543 0.922076 0.925097 0.926973 0.928031 0.92854 0.928707 0.928688 0.928595 0.928456 0.928289 0.928108 0.927924 0.927738 0.927552 0.927355 0.927132 0.926843 0.926422 0.925742 0.924578 0.922546 0.919006 0.912936 0.902767 0.886221 0.860223 0.821004 0.764596 0.687862 0.590094 0.474907 0.351506 0.233838 0.13658 0.0690015 0.0304429 0.0121769 0.00460591 0.00169282 0.000612166 0.000218845 7.74477e-05 2.71352e-05 9.40932e-06 3.22756e-06 1.09462e-06 3.66868e-07 1.21459e-07 3.97044e-08 1.2811e-08 4.07899e-09 1.28116e-09 3.97127e-10 1.21151e-10 3.61457e-11 1.07708e-11 3.2255e-12 6.69644e-13 -2.26356e-13 -2.29324e-13 -3.41096e-13 -6.19182e-13 4.66551e-14 -1.22526e-12 1.94007e-13 1.72231e-14 -2.33275e-13 5.44201e-13 -1.33783e-13 1.82353e-13 -2.63638e-13 -2.34587e-13 2.92197e-13 -2.66454e-13 -2.86626e-13 -2.64823e-13 -6.50567e-13 -1.15409e-13 -7.80348e-13 5.76354e-14 -3.02718e-13 -4.49169e-13 2.6201e-13 4.89931e-13 1.22464e-13 3.35128e-13 2.83012e-13 8.03027e-13 -2.68809e-13 -1.08172e-13 1.41757e-13 2.43648e-13 7.34932e-13 0 0 2.32304e-15 -3.10242e-15 -6.89879e-14 2.63047e-14 -1.49851e-14 -2.91164e-14 -6.76315e-15 -1.87681e-14 5.08068e-14 -6.61374e-14 1.32148e-15 -4.58049e-14 1.62241e-13 -4.49936e-16 2.57025e-15 6.00173e-14 2.43237e-14 -1.09264e-13 -1.49423e-13 -4.13623e-14 -2.21744e-14 -1.70025e-13 -5.6598e-14 -1.95855e-14 1.89776e-14 -1.70485e-14 -2.25157e-13 4.65127e-14 -2.0738e-13 -1.89074e-13 -1.66592e-14 -4.81033e-14 1.46512e-14 -4.09038e-13 3.08231e-13 -1.53866e-13 1.80758e-13 -2.36628e-13 1.52741e-13 -7.81551e-14 1.00719e-13 -9.47138e-14 -1.78044e-13 -1.0303e-13 -1.48738e-13 -1.94378e-13 -4.66946e-13 7.70039e-14 4.29868e-14 -1.45565e-13 2.41295e-13 1.50817e-13 -1.20974e-13 4.04424e-14 -1.0484e-13 -2.16949e-14 -5.59356e-14 -6.17314e-13 1.74643e-13 9.46309e-13 5.5952e-12 4.27469e-11 3.45246e-10 2.5927e-09 1.81142e-08 1.17161e-07 6.98446e-07 3.81807e-06 1.90248e-05 8.57908e-05 0.000347059 0.00124597 0.00391778 0.0106297 0.0245445 0.0479201 0.0798064 0.116481 0.154582 0.192703 0.230562 0.268118 0.305356 0.342263 0.378825 0.41502 0.450821 0.486192 0.521084 0.555437 0.589176 0.622208 0.654419 0.685672 0.715806 0.744634 0.771946 0.79751 0.821087 0.842442 0.861369 0.877717 0.891418 0.902506 0.91113 0.917543 0.922076 0.925097 0.926973 0.928031 0.92854 0.928707 0.928688 0.928595 0.928456 0.928289 0.928108 0.927924 0.927738 0.927552 0.927355 0.927132 0.926843 0.926422 0.925742 0.924578 0.922546 0.919006 0.912936 0.902767 0.886221 0.860223 0.821004 0.764596 0.687862 0.590094 0.474907 0.351506 0.233838 0.13658 0.0690015 0.0304429 0.0121769 0.00460591 0.00169282 0.000612166 0.000218845 7.74477e-05 2.71352e-05 9.40932e-06 3.22756e-06 1.09462e-06 3.66868e-07 1.21459e-07 3.9705e-08 1.28112e-08 4.07811e-09 1.28139e-09 3.96454e-10 1.21994e-10 3.66314e-11 1.07241e-11 2.17288e-12 1.03216e-12 -1.01035e-13 -7.43949e-13 -2.17762e-13 2.29976e-13 -1.07143e-12 -2.53369e-13 -7.66561e-13 -1.978e-13 1.58194e-12 -5.3301e-13 2.44939e-13 -6.47589e-13 2.55057e-13 -7.87069e-16 -7.34862e-13 1.4197e-13 8.42273e-14 -3.11978e-13 -4.14375e-13 -7.92974e-13 -1.09627e-13 -7.82527e-13 -3.45032e-14 -5.39191e-14 -1.73869e-14 -6.85303e-13 2.11239e-12 2.16432e-13 2.39735e-13 -2.37481e-13 6.95056e-13 -5.61863e-13 -2.11774e-13 6.06686e-13 -9.66297e-13 0
				</DataArray>
				<DataArray Name="VitesseY" type="Float32" format="ascii">