<?xml version="1.0"?>
<VTKFile type="PolyData">
	<PolyData>
		<Piece NumberOfPoints="1206" NumberOfPolys="1000">
			<Points>
				<DataArray type="Float32" NumberOfComponents="3" format="ascii">
 0 0 0 0.005 0 0 0.01 0 0 0.015 0 0 0.02 0 0 0.025 0 0 0.03 0 0 0.035 0 0 0.04 0 0 0.045 0 0 0.05 0 0 0.055 0 0 0.06 0 0 0.065 0 0 0.07 0 0 0.075 0 0 0.08 0 0 0.085 0 0 0.09 0 0 0.095 0 0 0.1 0 0 0.105 0 0 0.11 0 0 0.115 0 0 0.12 0 0 0.125 0 0 0.13 0 0 0.135 0 0 0.14 0 0 0.145 0 0 0.15 0 0 0.155 0 0 0.16 0 0 0.165 0 0 0.17 0 0 0.175 0 0 0.18 0 0 0.185 0 0 0.19 0 0 0.195 0 0 0.2 0 0 0.205 0 0 0.21 0 0 0.215 0 0 0.22 0 0 0.225 0 0 0.23 0 0 0.235 0 0 0.24 0 0 0.245 0 0 0.25 0 0 0.255 0 0 0.26 0 0 0.265 0 0 0.27 0 0 0.275 0 0 0.28 0 0 0.285 0 0 0.29 0 0 0.295 0 0 0.3 0 0 0.305 0 0 0.31 0 0 0.315 0 0 0.32 0 0 0.325 0 0 0.33 0 0 0.335 0 0 0.34 0 0 0.345 0 0 0.35 0 0 0.355 0 0 0.36 0 0 0.365 0 0 0.37 0 0 0.375 0 0 0.38 0 0 0.385 0 0 0.39 0 0 0.395 0 0 0.4 0 0 0.405 0 0 0.41 0 0 0.415 0 0 0.42 0 0 0.425 0 0 0.43 0 0 0.435 0 0 0.44 0 0 0.445 0 0 0.45 0 0 0.455 0 0 0.46 0 0 0.465 0 0 0.47 0 0 0.475 0 0 0.48 0 0 0.485 0 0 0.49 0 0 0.495 0 0 0.5 0 0 0.505 0 0 0.51 0 0 0.515 0 0 0.52 0 0 0.525 0 0 0.53 0 0 0.535 0 0 0.54 0 0 0.545 0 0 0.55 0 0 0.555 0 0 0.56 0 0 0.565 0 0 0.57 0 0 0.575 0 0 0.58 0 0 0.585 0 0 0.59 0 0 0.595 0 0 0.6 0 0 0.605 0 0 0.61 0 0 0.615 0 0 0.62 0 0 0.625 0 0 0.63 0 0 0.635 0 0 0.64 0 0 0.645 0 0 0.65 0 0 0.655 0 0 0.66 0 0 0.665 0 0 0.67 0 0 0.675 0 0 0.68 0 0 0.685 0 0 0.69 0 0 0.695 0 0 0.7 0 0 0.705 0 0 0.71 0 0 0.715 0 0 0.72 0 0 0.725 0 0 0.73 0 0 0.735 0 0 0.74 0 0 0.745 0 0 0.75 0 0 0.755 0 0 0.76 0 0 0.765 0 0 0.77 0 0 0.775 0 0 0.78 0 0 0.785 0 0 0.79 0 0 0.795 0 0 0.8 0 0 0.805 0 0 0.81 0 0 0.815 0 0 0.82 0 0 0.825 0 0 0.83 0 0 0.835 0 0 0.84 0 0 0.845 0 0 0.85 0 0 0.855 0 0 0.86 0 0 0.865 0 0 0.87 0 0 0.875 0 0 0.88 0 0 0.885 0 0 0.89 0 0 0.895 0 0 0.9 0 0 0.905 0 0 0.91 0 0 0.915 0 0 0.92 0 0 0.925 0 0 0.93 0 0 0.935 0 0 0.94 0 0 0.945 0 0 0.95 0 0 0.955 0 0 0.96 0 0 0.965 0 0 0.97 0 0 0.975 0 0 0.98 0 0 0.985 0 0 0.99 0 0 0.995 0 0 1 0 0 0 0.02 0 0.005 0.02 0 0.01 0.02 0 0.015 0.02 0 0.02 0.02 0 0.025 0.02 0 0.03 0.02 0 0.035 0.02 0 0.04 0.02 0 0.045 0.02 0 0.05 0.02 0 0.055 0.02 0 0.06 0.02 0 0.065 0.02 0 0.07 0.02 0 0.075 0.02 0 0.08 0.02 0 0.085 0.02 0 0.09 0.02 0 0.095 0.02 0 0.1 0.02 0 0.105 0.02 0 0.11 0.02 0 0.115 0.02 0 0.12 0.02 0 0.125 0.02 0 0.13 0.02 0 0.135 0.02 0 0.14 0.02 0 0.145 0.02 0 0.15 0.02 0 0.155 0.02 0 0.16 0.02 0 0.165 0.02 0 0.17 0.02 0 0.175 0.02 0 0.18 0.02 0 0.185 0.02 0 0.19 0.02 0 0.195 0.02 0 0.2 0.02 0 0.205 0.02 0 0.21 0.02 0 0.215 0.02 0 0.22 0.02 0 0.225 0.02 0 0.23 0.02 0 0.235 0.02 0 0.24 0.02 0 0.245 0.02 0 0.25 0.02 0 0.255 0.02 0 0.26 0.02 0 0.265 0.02 0 0.27 0.02 0 0.275 0.02 0 0.28 0.02 0 0.285 0.02 0 0.29 0.02 0 0.295 0.02 0 0.3 0.02 0 0.305 0.02 0 0.31 0.02 0 0.315 0.02 0 0.32 0.02 0 0.325 0.02 0 0.33 0.02 0 0.335 0.02 0 0.34 0.02 0 0.345 0.02 0 0.35 0.02 0 0.355 0.02 0 0.36 0.02 0 0.365 0.02 0 0.37 0.02 0 0.375 0.02 0 0.38 0.02 0 0.385 0.02 0 0.39 0.02 0 0.395 0.02 0 0.4 0.02 0 0.405 0.02 0 0.41 0.02 0 0.415 0.02 0 0.42 0.02 0 0.425 0.02 0 0.43 0.02 0 0.435 0.02 0 0.44 0.02 0 0.445 0.02 0 0.45 0.02 0 0.455 0.02 0 0.46 0.02 0 0.465 0.02 0 0.47 0.02 0 0.475 0.02 0 0.48 0.02 0 0.485 0.02 0 0.49 0.02 0 0.495 0.02 0 0.5 0.02 0 0.505 0.02 0 0.51 0.02 0 0.515 0.02 0 0.52 0.02 0 0.525 0.02 0 0.53 0.02 0 0.535 0.02 0 0.54 0.02 0 0.545 0.02 0 0.55 0.02 0 0.555 0.02 0 0.56 0.02 0 0.565 0.02 0 0.57 0.02 0 0.575 0.02 0 0.58 0.02 0 0.585 0.02 0 0.59 0.02 0 0.595 0.02 0 0.6 0.02 0 0.605 0.02 0 0.61 0.02 0 0.615 0.02 0 0.62 0.02 0 0.625 0.02 0 0.63 0.02 0 0.635 0.02 0 0.64 0.02 0 0.645 0.02 0 0.65 0.02 0 0.655 0.02 0 0.66 0.02 0 0.665 0.02 0 0.67 0.02 0 0.675 0.02 0 0.68 0.02 0 0.685 0.02 0 0.69 0.02 0 0.695 0.02 0 0.7 0.02 0 0.705 0.02 0 0.71 0.02 0 0.715 0.02 0 0.72 0.02 0 0.725 0.02 0 0.73 0.02 0 0.735 0.02 0 0.74 0.02 0 0.745 0.02 0 0.75 0.02 0 0.755 0.02 0 0.76 0.02 0 0.765 0.02 0 0.77 0.02 0 0.775 0.02 0 0.78 0.02 0 0.785 0.02 0 0.79 0.02 0 0.795 0.02 0 0.8 0.02 0 0.805 0.02 0 0.81 0.02 0 0.815 0.02 0 0.82 0.02 0 0.825 0.02 0 0.83 0.02 0 0.835 0.02 0 0.84 0.02 0 0.845 0.02 0 0.85 0.02 0 0.855 0.02 0 0.86 0.02 0 0.865 0.02 0 0.87 0.02 0 0.875 0.02 0 0.88 0.02 0 0.885 0.02 0 0.89 0.02 0 0.895 0.02 0 0.9 0.02 0 0.905 0.02 0 0.91 0.02 0 0.915 0.02 0 0.92 0.02 0 0.925 0.02 0 0.93 0.02 0 0.935 0.02 0 0.94 0.02 0 0.945 0.02 0 0.95 0.02 0 0.955 0.02 0 0.96 0.02 0 0.965 0.02 0 0.97 0.02 0 0.975 0.02 0 0.98 0.02 0 0.985 0.02 0 0.99 0.02 0 0.995 0.02 0 1 0.02 0 0 0.04 0 0.005 0.04 0 0.01 0.04 0 0.015 0.04 0 0.02 0.04 0 0.025 0.04 0 0.03 0.04 0 0.035 0.04 0 0.04 0.04 0 0.045 0.04 0 0.05 0.04 0 0.055 0.04 0 0.06 0.04 0 0.065 0.04 0 0.07 0.04 0 0.075 0.04 0 0.08 0.04 0 0.085 0.04 0 0.09 0.04 0 0.095 0.04 0 0.1 0.04 0 0.105 0.04 0 0.11 0.04 0 0.115 0.04 0 0.12 0.04 0 0.125 0.04 0 0.13 0.04 0 0.135 0.04 0 0.14 0.04 0 0.145 0.04 0 0.15 0.04 0 0.155 0.04 0 0.16 0.04 0 0.165 0.04 0 0.17 0.04 0 0.175 0.04 0 0.18 0.04 0 0.185 0.04 0 0.19 0.04 0 0.195 0.04 0 0.2 0.04 0 0.205 0.04 0 0.21 0.04 0 0.215 0.04 0 0.22 0.04 0 0.225 0.04 0 0.23 0.04 0 0.235 0.04 0 0.24 0.04 0 0.245 0.04 0 0.25 0.04 0 0.255 0.04 0 0.26 0.04 0 0.265 0.04 0 0.27 0.04 0 0.275 0.04 0 0.28 0.04 0 0.285 0.04 0 0.29 0.04 0 0.295 0.04 0 0.3 0.04 0 0.305 0.04 0 0.31 0.04 0 0.315 0.04 0 0.32 0.04 0 0.325 0.04 0 0.33 0.04 0 0.335 0.04 0 0.34 0.04 0 0.345 0.04 0 0.35 0.04 0 0.355 0.04 0 0.36 0.04 0 0.365 0.04 0 0.37 0.04 0 0.375 0.04 0 0.38 0.04 0 0.385 0.04 0 0.39 0.04 0 0.395 0.04 0 0.4 0.04 0 0.405 0.04 0 0.41 0.04 0 0.415 0.04 0 0.42 0.04 0 0.425 0.04 0 0.43 0.04 0 0.435 0.04 0 0.44 0.04 0 0.445 0.04 0 0.45 0.04 0 0.455 0.04 0 0.46 0.04 0 0.465 0.04 0 0.47 0.04 0 0.475 0.04 0 0.48 0.04 0 0.485 0.04 0 0.49 0.04 0 0.495 0.04 0 0.5 0.04 0 0.505 0.04 0 0.51 0.04 0 0.515 0.04 0 0.52 0.04 0 0.525 0.04 0 0.53 0.04 0 0.535 0.04 0 0.54 0.04 0 0.545 0.04 0 0.55 0.04 0 0.555 0.04 0 0.56 0.04 0 0.565 0.04 0 0.57 0.04 0 0.575 0.04 0 0.58 0.04 0 0.585 0.04 0 0.59 0.04 0 0.595 0.04 0 0.6 0.04 0 0.605 0.04 0 0.61 0.04 0 0.615 0.04 0 0.62 0.04 0 0.625 0.04 0 0.63 0.04 0 0.635 0.04 0 0.64 0.04 0 0.645 0.04 0 0.65 0.04 0 0.655 0.04 0 0.66 0.04 0 0.665 0.04 0 0.67 0.04 0 0.675 0.04 0 0.68 0.04 0 0.685 0.04 0 0.69 0.04 0 0.695 0.04 0 0.7 0.04 0 0.705 0.04 0 0.71 0.04 0 0.715 0.04 0 0.72 0.04 0 0.725 0.04 0 0.73 0.04 0 0.735 0.04 0 0.74 0.04 0 0.745 0.04 0 0.75 0.04 0 0.755 0.04 0 0.76 0.04 0 0.765 0.04 0 0.77 0.04 0 0.775 0.04 0 0.78 0.04 0 0.785 0.04 0 0.79 0.04 0 0.795 0.04 0 0.8 0.04 0 0.805 0.04 0 0.81 0.04 0 0.815 0.04 0 0.82 0.04 0 0.825 0.04 0 0.83 0.04 0 0.835 0.04 0 0.84 0.04 0 0.845 0.04 0 0.85 0.04 0 0.855 0.04 0 0.86 0.04 0 0.865 0.04 0 0.87 0.04 0 0.875 0.04 0 0.88 0.04 0 0.885 0.04 0 0.89 0.04 0 0.895 0.04 0 0.9 0.04 0 0.905 0.04 0 0.91 0.04 0 0.915 0.04 0 0.92 0.04 0 0.925 0.04 0 0.93 0.04 0 0.935 0.04 0 0.94 0.04 0 0.945 0.04 0 0.95 0.04 0 0.955 0.04 0 0.96 0.04 0 0.965 0.04 0 0.97 0.04 0 0.975 0.04 0 0.98 0.04 0 0.985 0.04 0 0.99 0.04 0 0.995 0.04 0 1 0.04 0 0 0.06 0 0.005 0.06 0 0.01 0.06 0 0.015 0.06 0 0.02 0.06 0 0.025 0.06 0 0.03 0.06 0 0.035 0.06 0 0.04 0.06 0 0.045 0.06 0 0.05 0.06 0 0.055 0.06 0 0.06 0.06 0 0.065 0.06 0 0.07 0.06 0 0.075 0.06 0 0.08 0.06 0 0.085 0.06 0 0.09 0.06 0 0.095 0.06 0 0.1 0.06 0 0.105 0.06 0 0.11 0.06 0 0.115 0.06 0 0.12 0.06 0 0.125 0.06 0 0.13 0.06 0 0.135 0.06 0 0.14 0.06 0 0.145 0.06 0 0.15 0.06 0 0.155 0.06 0 0.16 0.06 0 0.165 0.06 0 0.17 0.06 0 0.175 0.06 0 0.18 0.06 0 0.185 0.06 0 0.19 0.06 0 0.195 0.06 0 0.2 0.06 0 0.205 0.06 0 0.21 0.06 0 0.215 0.06 0 0.22 0.06 0 0.225 0.06 0 0.23 0.06 0 0.235 0.06 0 0.24 0.06 0 0.245 0.06 0 0.25 0.06 0 0.255 0.06 0 0.26 0.06 0 0.265 0.06 0 0.27 0.06 0 0.275 0.06 0 0.28 0.06 0 0.285 0.06 0 0.29 0.06 0 0.295 0.06 0 0.3 0.06 0 0.305 0.06 0 0.31 0.06 0 0.315 0.06 0 0.32 0.06 0 0.325 0.06 0 0.33 0.06 0 0.335 0.06 0 0.34 0.06 0 0.345 0.06 0 0.35 0.06 0 0.355 0.06 0 0.36 0.06 0 0.365 0.06 0 0.37 0.06 0 0.375 0.06 0 0.38 0.06 0 0.385 0.06 0 0.39 0.06 0 0.395 0.06 0 0.4 0.06 0 0.405 0.06 0 0.41 0.06 0 0.415 0.06 0 0.42 0.06 0 0.425 0.06 0 0.43 0.06 0 0.435 0.06 0 0.44 0.06 0 0.445 0.06 0 0.45 0.06 0 0.455 0.06 0 0.46 0.06 0 0.465 0.06 0 0.47 0.06 0 0.475 0.06 0 0.48 0.06 0 0.485 0.06 0 0.49 0.06 0 0.495 0.06 0 0.5 0.06 0 0.505 0.06 0 0.51 0.06 0 0.515 0.06 0 0.52 0.06 0 0.525 0.06 0 0.53 0.06 0 0.535 0.06 0 0.54 0.06 0 0.545 0.06 0 0.55 0.06 0 0.555 0.06 0 0.56 0.06 0 0.565 0.06 0 0.57 0.06 0 0.575 0.06 0 0.58 0.06 0 0.585 0.06 0 0.59 0.06 0 0.595 0.06 0 0.6 0.06 0 0.605 0.06 0 0.61 0.06 0 0.615 0.06 0 0.62 0.06 0 0.625 0.06 0 0.63 0.06 0 0.635 0.06 0 0.64 0.06 0 0.645 0.06 0 0.65 0.06 0 0.655 0.06 0 0.66 0.06 0 0.665 0.06 0 0.67 0.06 0 0.675 0.06 0 0.68 0.06 0 0.685 0.06 0 0.69 0.06 0 0.695 0.06 0 0.7 0.06 0 0.705 0.06 0 0.71 0.06 0 0.715 0.06 0 0.72 0.06 0 0.725 0.06 0 0.73 0.06 0 0.735 0.06 0 0.74 0.06 0 0.745 0.06 0 0.75 0.06 0 0.755 0.06 0 0.76 0.06 0 0.765 0.06 0 0.77 0.06 0 0.775 0.06 0 0.78 0.06 0 0.785 0.06 0 0.79 0.06 0 0.795 0.06 0 0.8 0.06 0 0.805 0.06 0 0.81 0.06 0 0.815 0.06 0 0.82 0.06 0 0.825 0.06 0 0.83 0.06 0 0.835 0.06 0 0.84 0.06 0 0.845 0.06 0 0.85 0.06 0 0.855 0.06 0 0.86 0.06 0 0.865 0.06 0 0.87 0.06 0 0.875 0.06 0 0.88 0.06 0 0.885 0.06 0 0.89 0.06 0 0.895 0.06 0 0.9 0.06 0 0.905 0.06 0 0.91 0.06 0 0.915 0.06 0 0.92 0.06 0 0.925 0.06 0 0.93 0.06 0 0.935 0.06 0 0.94 0.06 0 0.945 0.06 0 0.95 0.06 0 0.955 0.06 0 0.96 0.06 0 0.965 0.06 0 0.97 0.06 0 0.975 0.06 0 0.98 0.06 0 0.985 0.06 0 0.99 0.06 0 0.995 0.06 0 1 0.06 0 0 0.08 0 0.005 0.08 0 0.01 0.08 0 0.015 0.08 0 0.02 0.08 0 0.025 0.08 0 0.03 0.08 0 0.035 0.08 0 0.04 0.08 0 0.045 0.08 0 0.05 0.08 0 0.055 0.08 0 0.06 0.08 0 0.065 0.08 0 0.07 0.08 0 0.075 0.08 0 0.08 0.08 0 0.085 0.08 0 0.09 0.08 0 0.095 0.08 0 0.1 0.08 0 0.105 0.08 0 0.11 0.08 0 0.115 0.08 0 0.12 0.08 0 0.125 0.08 0 0.13 0.08 0 0.135 0.08 0 0.14 0.08 0 0.145 0.08 0 0.15 0.08 0 0.155 0.08 0 0.16 0.08 0 0.165 0.08 0
[...]
			<PointData Scalars="VitesseX">
				<DataArray Name="VitesseX" type="Float32" format="ascii">
 0 7.53713e-15 3.17645e-15 1.06475e-14 -7.67144e-16 6.22004e-15 -2.39338e-14 -1.35232e-14 1.41226e-14 -2.7778e-14 1.53172e-14 -2.21652e-14 -5.47236e-14 -6.44712e-14 -5.15609e-14 -9.6409e-14 -6.01918e-14 -8.95122e-14 -1.47581e-13 -7.48583e-16 -3.91727e-14 -3.35826e-14 -6.19317e-14 4.19257e-14 -2.21109e-14 1.42297e-13 3.3839e-14 1.12475e-13 -6.14247e-14 -6.03867e-14 -7.19586e-14 5.66823e-14 -2.02792e-13 3.36654e-14 -1.4744e-13 -5.42414e-14 -2.24643e-14 3.05187e-14 -1.00906e-13 -1.10725e-13 -3.77905e-16 -5.78486e-14 3.56984e-14 5.27687e-13 3.15244e-12 1.89862e-11 1.18982e-10 6.9523e-10 3.85251e-09 2.01752e-08 9.96272e-08 4.62548e-07 2.01266e-06 8.17756e-06 3.08929e-05 0.000107964 0.000346948 0.00101784 0.00270311 0.00643909 0.0136417 0.0255758 0.0425245 0.0634449 0.086639 0.11075 0.135112 0.159499 0.183847 0.208133 0.232346 0.256481 0.280532 0.304497 0.328372 0.352152 0.375834 0.399412 0.422879 0.446228 0.469449 0.492531 0.515462 0.538227 0.560807 0.58318 0.605324 0.627208 0.6488 0.67006 0.690944 0.711401 0.73137 0.750785 0.769572 0.787647 0.80492 0.821295 0.836674 0.850958 0.864057 0.875892 0.886403 0.895559 0.903362 0.909852 0.915104 0.919229 0.922362 0.924655 0.926264 0.927336 0.928006 0.928385 0.928565 0.928614 0.928595 0.928544 0.928471 0.928383 0.928286 0.928186 0.928085 0.927985 0.927889 0.927796 0.927708 0.927624 0.927543 0.927466 0.927392 0.92732 0.927249 0.927181 0.927113 0.927045 0.926977 0.926907 0.926834 0.926754 0.926662 0.926547 0.926393 0.926169 0.925824 0.92527 0.924366 0.922877 0.920426 0.916417 0.909926 0.899563 0.883324 0.858481 0.821632 0.769063 0.697588 0.605946 0.496563 0.376966 0.259555 0.15855 0.0845294 0.0394513 0.0166176 0.00658656 0.00253406 0.000961695 0.000362485 0.000136046 5.08833e-05 1.89671e-05 7.04519e-06 2.60693e-06 9.60664e-07 3.52429e-07 1.2867e-07 4.67351e-08 1.68813e-08 6.06224e-09 2.16374e-09 7.66902e-10 2.7027e-10 9.40426e-11 3.24279e-11 1.13352e-11 3.28278e-12 1.22077e-12 6.41232e-13 -2.68699e-13 4.36077e-13 -4.27757e-13 3.48881e-13 1.26024e-13 3.45675e-13 -4.98267e-13 8.02237e-13 -2.10416e-13 -5.29706e-14 -2.2616e-13 0 0 -2.50697e-15 -1.03702e-15 -1.57817e-15 -3.13984e-15 -1.35466e-14 9.48511e-15 -1.58342e-14 -1.74664e-14 -1.55493e-14 -5.12866e-14 -1.92252e-14 -1.49651e-14 -3.33086e-14 -5.92517e-14 -5.80742e-14 -9.57434e-14 -1.21635e-13 -3.93876e-14 -1.03792e-13 -4.46776e-14 -2.55499e-15 1.78267e-14 -2.48152e-14 1.15351e-13 5.74248e-14 1.43944e-14 -6.84096e-14 3.83833e-14 -2.92174e-14 3.08551e-14 -1.30764e-13 2.97521e-14 -1.47424e-13 -6.46318e-14 -7.90278e-14 -9.10489e-14 -1.04576e-14 -8.7466e-15 -3.66908e-14 -1.05095e-13 -4.62886e-14 7.46552e-14 3.22502e-13 2.92383e-12 1.94809e-11 1.18869e-10 6.95232e-10 3.85206e-09 2.01754e-08 9.96271e-08 4.62548e-07 2.01266e-06 8.17756e-06 3.08929e-05 0.000107964 0.000346948 0.00101784 0.00270311 0.00643909 0.0136417 0.0255758 0.0425245 0.0634449 0.086639 0.11075 0.135112 0.159499 0.183847 0.208133 0.232346 0.256481 0.280532 0.304497 0.328372 0.352152 0.375834 0.399412 0.422879 0.446228 0.469449 0.492531 0.515462 0.538227 0.560807 0.58318 0.605324 0.627208 0.6488 0.67006 0.690944 0.711401 0.73137 0.750785 0.769572 0.787647 0.80492 0.821295 0.836674 0.850958 0.864057 0.875892 0.886403 0.895559 0.903362 0.909852 0.915104 0.919229 0.922362 0.924655 0.926264 0.927336 0.928006 0.928385 0.928565 0.928614 0.928595 0.928544 0.928471 0.928383 0.928286 0.928186 0.928085 0.927985 0.927889 0.927796 0.927708 0.927624 0.927543 0.927466 0.927392 0.92732 0.927249 0.927181 0.927113 0.927045 0.926977 0.926907 0.926834 0.926754 0.926662 0.926547 0.926393 0.926169 0.925824 0.92527 0.924366 0.922877 0.920426 0.916417 0.909926 0.899563 0.883324 0.858481 0.821632 0.769063 0.697588 0.605946 0.496563 0.376966 0.259555 0.15855 0.0845294 0.0394513 0.0166176 0.00658656 0.00253406 0.000961695 0.000362485 0.000136046 5.08833e-05 1.89671e-05 7.04519e-06 2.60693e-06 9.60664e-07 3.52429e-07 1.28671e-07 4.6735e-08 1.68816e-08 6.06228e-09 2.16335e-09 7.67386e-10 2.69835e-10 9.44805e-11 3.25678e-11 1.08852e-11 3.7576e-12 1.08073e-12 4.20565e-13 4.10777e-13 -4.04478e-13 2.53836e-13 -2.32198e-13 2.56325e-13 1.44477e-13 2.47345e-13 -3.5619e-13 4.76056e-13 4.12494e-14 1.82546e-13 0 0 1.87379e-15 -4.88921e-15 -8.64198e-15 -1.80176e-14 -8.06394e-15 -2.54045e-14 -4.20662e-14 -2.57312e-14 -4.33608e-14 -4.47124e-14 -3.12173e-14 -4.64431e-14 -2.78547e-14 -7.71455e-14 -5.08648e-14 -1.71444e-14 -2.59955e-14 -9.07029e-14 -7.56617e-14 -1.85509e-14 -2.20652e-14 1.1088e-14 5.40594e-14 -5.55082e-14 5.56599e-14 6.19752e-14 -8.79638e-14 -5.76697e-14 3.60968e-14 -5.82412e-14 -1.75415e-14 -5.78005e-14 -6.6379e-14 -4.25547e-14 -9.96265e-14 -6.10852e-14 -2.63354e-14 -1.12063e-13 2.35121e-14 -6.06029e-14 -5.10931e-14 2.86236e-14 4.70391e-13 2.87379e-12 1.92542e-11 1.18917e-10 6.95364e-10 3.85207e-09 2.01753e-08 9.96269e-08 4.62548e-07 2.01266e-06 8.17756e-06 3.08929e-05 0.000107964 0.000346948 0.00101784 0.00270311 0.00643909 0.0136417 0.0255758 0.0425245 0.0634449 0.086639 0.11075 0.135112 0.159499 0.183847 0.208133 0.232346 0.256481 0.280532 0.304497 0.328372 0.352152 0.375834 0.399412 0.422879 0.446228 0.469449 0.492531 0.515462 0.538227 0.560807 0.58318 0.605324 0.627208 0.6488 0.67006 0.690944 0.711401 0.73137 0.750785 0.769572 0.787647 0.80492 0.821295 0.836674 0.850958 0.864057 0.875892 0.886403 0.895559 0.903362 0.909852 0.915104 0.919229 0.922362 0.924655 0.926264 0.927336 0.928006 0.928385 0.928565 0.928614 0.928595 0.928544 0.928471 0.928383 0.928286 0.928186 0.928085 0.927985 0.927889 0.927796 0.927708 0.927624 0.927543 0.927466 0.927392 0.92732 0.927249 0.927181 0.927113 0.927045 0.926977 0.926907 0.926834 0.926754 0.926662 0.926547 0.926393 0.926169 0.925824 0.92527 0.924366 0.922877 0.920426 0.916417 0.909926 0.899563 0.883324 0.858481 0.821632 0.769063 0.697588 0.605946 0.496563 0.376966 0.259555 0.15855 0.0845294 0.0394513 0.0166176 0.00658656 0.00253406 0.000961695 0.000362485 0.000136046 5.08833e-05 1.89671e-05 7.04519e-06 2.60693e-06 9.60664e-07 3.52429e-07 1.2867e-07 4.67351e-08 1.68819e-08 6.06245e-09 2.16387e-09 7.66926e-10 2.70093e-10 9.45174e-11 3.255e-11 1.13211e-11 3.74725e-12 7.74564e-13 1.66519e-13 3.6581e-13 9.17553e-15 -5.57465e-13 1.27503e-13 8.28953e-14 3.94071e-13 -1.43532e-13 4.05891e-13 -2.03745e-13 -5.01045e-13 1.65202e-13 0 0 -3.3083e-15 -1.04656e-14 -1.77547e-14 -2.3425e-14 -3.15967e-14 -3.96536e-14 -3.69879e-14 -2.22203e-14 -4.31464e-14 -1.70211e-14 -6.68167e-14 -5.24191e-14 -7.54843e-14 -7.7683e-14 -1.18359e-14 -5.03543e-15 -6.22125e-14 -5.71526e-14 3.83475e-14 -3.39529e-14 -7.85583e-14 1.22816e-14 -4.52417e-15 1.30377e-14 2.73379e-14 -8.01808e-14 3.95667e-14 -1.64158e-13 -6.63226e-14 -6.56042e-14 4.35054e-14 -5.83725e-14 9.60361e-14 -1.00775e-13 -7.88526e-14 -1.2458e-14 -2.32183e-14 -5.98564e-14 -9.65602e-14 -5.49123e-14 -4.3498e-14 9.83195e-14 4.89764e-13 2.97359e-12 1.91879e-11 1.19042e-10 6.95305e-10 3.85227e-09 2.01752e-08 9.96269e-08 4.62548e-07 2.01266e-06 8.17756e-06 3.08929e-05 0.000107964 0.000346948 0.00101784 0.00270311 0.00643909 0.0136417 0.0255758 0.0425245 0.0634449 0.086639 0.11075 0.135112 0.159499 0.183847 0.208133 0.232346 0.256481 0.280532 0.304497 0.328372 0.352152 0.375834 0.399412 0.422879 0.446228 0.469449 0.492531 0.515462 0.538227 0.560807 0.58318 0.605324 0.627208 0.6488 0.67006 0.690944 0.711401 0.73137 0.750785 0.769572 0.787647 0.80492 0.821295 0.836674 0.850958 0.864057 0.875892 0.886403 0.895559 0.903362 0.909852 0.915104 0.919229 0.922362 0.924655 0.926264 0.927336 0.928006 0.928385 0.928565 0.928614 0.928595 0.928544 0.928471 0.928383 0.928286 0.928186 0.928085 0.927985 0.927889 0.927796 0.927708 0.927624 0.927543 0.927466 0.927392 0.92732 0.927249 0.927181 0.927113 0.927045 0.926977 0.926907 0.926834 0.926754 0.926662 0.926547 0.926393 0.926169 0.925824 0.92527 0.924366 0.922877 0.920426 0.916417 0.909926 0.899563 0.883324 0.858481 0.821632 0.769063 0.697588 0.605946 0.496563 0.376966 0.259555 0.15855 0.0845294 0.0394513 0.0166176 0.00658656 0.00253406 0.000961695 0.000362485 0.000136046 5.08833e-05 1.89671e-05 7.04519e-06 2.60693e-06 9.60665e-07 3.52429e-07 1.2867e-07 4.67352e-08 1.68819e-08 6.0624e-09 2.16387e-09 7.66997e-10 2.7002e-10 9.42161e-11 3.24347e-11 1.13991e-11 4.2228e-12 8.93462e-13 3.90902e-13 -6.83458e-13 -1.2866e-13 3.89185e-13 -1.80778e-13 -2.80606e-13 4.2861e-13 -5.32581e-14 -2.25375e-13 -2.14565e-13 -7.17378e-13 -4.11675e-13 0 0 -8.90835e-15 -9.24267e-15 -3.20427e-14 -1.3439e-14 -4.55414e-14 -3.20866e-14 -4.17107e-14 -3.32015e-14 -1.62195e-14 -4.3685e-14 -4.76689e-14 -2.107e-15 -3.23222e-14 -2.33604e-14 -1.92151e-14 -4.63703e-14 -1.29078e-13 -2.31087e-14 -3.536e-14 -8.21074e-14 -2.88426e-14 1.36997e-14 -9.21832e-14 1.50781e-13 -3.12071e-14 -5.67754e-14 -7.34874e-14 -6.85876e-14 -8.12373e-14 -6.16475e-14 -1.32424e-13 5.7393e-14 9.71659e-15 -2.39943e-14 6.95124e-15 -8.46796e-14 -1.01771e-13 2.27706e-14 -1.91261e-13 -9.67701e-14 1.07193e-14 1.80828e-13 3.62906e-13 2.89913e-12 1.95126e-11 1.18892e-10 6.95241e-10 3.85226e-09 2.01754e-08 9.9627e-08 4.62548e-07 2.01266e-06 8.17756e-06 3.08929e-05 0.000107964 0.000346948 0.00101784 0.00270311 0.00643909 0.0136417 0.0255758 0.0425245 0.0634449 0.086639 0.11075 0.135112 0.159499 0.183847 0.208133 0.232346 0.256481 0.280532 0.304497 0.328372 0.352152 0.375834 0.399412 0.422879 0.446228 0.469449 0.492531 0.515462 0.538227 0.560807 0.58318 0.605324 0.627208 0.6488 0.67006 0.690944 0.711401 0.73137 0.750785 0.769572 0.787647 0.80492 0.821295 0.836674 0.850958 0.864057 0.875892 0.886403 0.895559 0.903362 0.909852 0.915104 0.919229 0.922362 0.924655 0.926264 0.927336 0.928006 0.928385 0.928565 0.928614 0.928595 0.928544 0.928471 0.928383 0.928286 0.928186 0.928085 0.927985 0.927889 0.927796 0.927708 0.927624 0.927543 0.927466 0.927392 0.92732 0.927249 0.927181 0.927113 0.927045 0.926977 0.926907 0.926834 0.926754 0.926662 0.926547 0.926393 0.926169 0.925824 0.92527 0.924366 0.922877 0.920426 0.916417 0.909926 0.899563 0.883324 0.858481 0.821632 0.769063 0.697588 0.605946 0.496563 0.376966 0.259555 0.15855 0.0845294 0.0394513 0.0166176 0.00658656 0.00253406 0.000961695 0.000362485 0.000136046 5.08833e-05 1.89671e-05 7.04519e-06 2.60693e-06 9.60664e-07 3.52429e-07 1.28671e-07 4.67353e-08 1.68817e-08 6.06253e-09 2.16337e-09 7.67489e-10 2.69895e-10 9.43457e-11 3.29036e-11 1.06783e-11 4.04592e-12 5.40796e-13 3.68177e-13 3.22962e-13 -6.56509e-13 1.01226e-12 -4.16906e-13 -9.78228e-14 -1.14796e-13 2.25704e-13 -1.18416e-12 2.45024e-13 -1.46134e-13 -2.75665e-13 0 0 5.09856e-15 -2.08209e-15 -3.20561e-14 -1.05506e-14 -1.0704e-14 -7.85791e-14 -7.54328e-14 -2.43694e-14 -2.95472e-14 -2.48621e-14 -7.85377e-15 -1.70554e-14 3.27607e-14 2.12966e-14 -9.67486e-14 1.43367e-14 -3.19643e-14 -1.82124e-13 -9.19023e-14 -8.32281e-14 2.68285e-14 -7.25729e-14 2.43567e-14 -8.83437e-14 2.16774e-14 1.75811e-13 -1.52741e-13 -6.23907e-14 4.04125e-14 -2.42238e-13 -6.87305e-14 -1.46366e-13 2.31169e-14 5.02751e-14 7.6169e-14 -1.0698e-13 -1.58342e-13 -1.42284e-13 -1.79721e-13 4.89125e-15 4.09769e-14 1.08652e-13 5.69749e-13 2.90343e-12 1.9182e-11 1.18777e-10 6.95365e-10 3.8525e-09 2.01754e-08 9.9627e-08 4.62548e-07 2.01266e-06 8.17756e-06 3.08929e-05 0.000107964 0.000346948 0.00101784 0.00270311 0.00643909 0.0136417 0.0255758 0.0425245 0.0634449 0.086639 0.11075 0.135112 0.159499 0.183847 0.208133 0.232346 0.256481 0.280532 0.304497 0.328372 0.352152 0.375834 0.399412 0.422879 0.446228 0.469449 0.492531 0.515462 0.538227 0.560807 0.58318 0.605324 0.627208 0.6488 0.67006 0.690944 0.711401 0.73137 0.750785 0.769572 0.787647 0.80492 0.821295 0.836674 0.850958 0.864057 0.875892 0.886403 0.895559 0.903362 0.909852 0.915104 0.919229 0.922362 0.924655 0.926264 0.927336 0.928006 0.928385 0.928565 0.928614 0.928595 0.928544 0.928471 0.928383 0.928286 0.928186 0.928085 0.927985 0.927889 0.927796 0.927708 0.927624 0.927543 0.927466 0.927392 0.92732 0.927249 0.927181 0.927113 0.927045 0.926977 0.926907 0.926834 0.926754 0.926662 0.926547 0.926393 0.926169 0.925824 0.92527 0.924366 0.922877 0.920426 0.916417 0.909926 0.899563 0.883324 0.858481 0.821632 0.769063 0.697588 0.605946 0.496563 0.376966 0.259555 0.15855 0.0845294 0.0394513 0.0166176 0.00658656 0.00253406 0.000961695 0.000362485 0.000136046 5.08833e-05 1.89671e-05 7.04519e-06 2.60693e-06 9.60663e-07 3.5243e-07 1.2867e-07 4.67355e-08 1.68813e-08 6.06282e-09 2.16378e-09 7.66966e-10 2.70536e-10 9.43756e-11 3.33299e-11 1.07654e-11 2.90831e-12 -9.68982e-14 8.76911e-14 1.65421e-12 2.07687e-13 -8.04208e-13 5.96027e-13 1.44732e-13 -2.41948e-13 -7.22098e-13 4.08825e-13 -6.50838e-13 4.92595e-15 1.11718e-14 0
				</DataArray>
				<DataArray Name="VitesseY" type="Float32" format="ascii">