<?xml version="1.0"?>
<VTKFile type="PolyData">
	<PolyData>
		<Piece NumberOfPoints="1206" NumberOfPolys="1000">
			<Points>
				<DataArray type="Float32" NumberOfComponents="3" format="ascii">
 0 0 0 0.005 0 0 0.01 0 0 0.015 0 0 0.02 0 0 0.025 0 0 0.03 0 0 0.035 0 0 0.04 0 0 0.045 0 0 0.05 0 0 0.055 0 0 0.06 0 0 0.065 0 0 0.07 0 0 0.075 0 0 0.08 0 0 0.085 0 0 0.09 0 0 0.095 0 0 0.1 0 0 0.105 0 0 0.11 0 0 0.115 0 0 0.12 0 0 0.125 0 0 0.13 0 0 0.135 0 0 0.14 0 0 0.145 0 0 0.15 0 0 0.155 0 0 0.16 0 0 0.165 0 0 0.17 0 0 0.175 0 0 0.18 0 0 0.185 0 0 0.19 0 0 0.195 0 0 0.2 0 0 0.205 0 0 0.21 0 0 0.215 0 0 0.22 0 0 0.225 0 0 0.23 0 0 0.235 0 0 0.24 0 0 0.245 0 0 0.25 0 0 0.255 0 0 0.26 0 0 0.265 0 0 0.27 0 0 0.275 0 0 0.28 0 0 0.285 0 0 0.29 0 0 0.295 0 0 0.3 0 0 0.305 0 0 0.31 0 0 0.315 0 0 0.32 0 0 0.325 0 0 0.33 0 0 0.335 0 0 0.34 0 0 0.345 0 0 0.35 0 0 0.355 0 0 0.36 0 0 0.365 0 0 0.37 0 0 0.375 0 0 0.38 0 0 0.385 0 0 0.39 0 0 0.395 0 0 0.4 0 0 0.405 0 0 0.41 0 0 0.415 0 0 0.42 0 0 0.425 0 0 0.43 0 0 0.435 0 0 0.44 0 0 0.445 0 0 0.45 0 0 0.455 0 0 0.46 0 0 0.465 0 0 0.47 0 0 0.475 0 0 0.48 0 0 0.485 0 0 0.49 0 0 0.495 0 0 0.5 0 0 0.505 0 0 0.51 0 0 0.515 0 0 0.52 0 0 0.525 0 0 0.53 0 0 0.535 0 0 0.54 0 0 0.545 0 0 0.55 0 0 0.555 0 0 0.56 0 0 0.565 0 0 0.57 0 0 0.575 0 0 0.58 0 0 0.585 0 0 0.59 0 0 0.595 0 0 0.6 0 0 0.605 0 0 0.61 0 0 0.615 0 0 0.62 0 0 0.625 0 0 0.63 0 0 0.635 0 0 0.64 0 0 0.645 0 0 0.65 0 0 0.655 0 0 0.66 0 0 0.665 0 0 0.67 0 0 0.675 0 0 0.68 0 0 0.685 0 0 0.69 0 0 0.695 0 0 0.7 0 0 0.705 0 0 0.71 0 0 0.715 0 0 0.72 0 0 0.725 0 0 0.73 0 0 0.735 0 0 0.74 0 0 0.745 0 0 0.75 0 0 0.755 0 0 0.76 0 0 0.765 0 0 0.77 0 0 0.775 0 0 0.78 0 0 0.785 0 0 0.79 0 0 0.795 0 0 0.8 0 0 0.805 0 0 0.81 0 0 0.815 0 0 0.82 0 0 0.825 0 0 0.83 0 0 0.835 0 0 0.84 0 0 0.845 0 0 0.85 0 0 0.855 0 0 0.86 0 0 0.865 0 0 0.87 0 0 0.875 0 0 0.88 0 0 0.885 0 0 0.89 0 0 0.895 0 0 0.9 0 0 0.905 0 0 0.91 0 0 0.915 0 0 0.92 0 0 0.925 0 0 0.93 0 0 0.935 0 0 0.94 0 0 0.945 0 0 0.95 0 0 0.955 0 0 0.96 0 0 0.965 0 0 0.97 0 0 0.975 0 0 0.98 0 0 0.985 0 0 0.99 0 0 0.995 0 0 1 0 0 0 0.02 0 0.005 0.02 0 0.01 0.02 0 0.015 0.02 0 0.02 0.02 0 0.025 0.02 0 0.03 0.02 0 0.035 0.02 0 0.04 0.02 0 0.045 0.02 0 0.05 0.02 0 0.055 0.02 0 0.06 0.02 0 0.065 0.02 0 0.07 0.02 0 0.075 0.02 0 0.08 0.02 0 0.085 0.02 0 0.09 0.02 0 0.095 0.02 0 0.1 0.02 0 0.105 0.02 0 0.11 0.02 0 0.115 0.02 0 0.12 0.02 0 0.125 0.02 0 0.13 0.02 0 0.135 0.02 0 0.14 0.02 0 0.145 0.02 0 0.15 0.02 0 0.155 0.02 0 0.16 0.02 0 0.165 0.02 0 0.17 0.02 0 0.175 0.02 0 0.18 0.02 0 0.185 0.02 0 0.19 0.02 0 0.195 0.02 0 0.2 0.02 0 0.205 0.02 0 0.21 0.02 0 0.215 0.02 0 0.22 0.02 0 0.225 0.02 0 0.23 0.02 0 0.235 0.02 0 0.24 0.02 0 0.245 0.02 0 0.25 0.02 0 0.255 0.02 0 0.26 0.02 0 0.265 0.02 0 0.27 0.02 0 0.275 0.02 0 0.28 0.02 0 0.285 0.02 0 0.29 0.02 0 0.295 0.02 0 0.3 0.02 0 0.305 0.02 0 0.31 0.02 0 0.315 0.02 0 0.32 0.02 0 0.325 0.02 0 0.33 0.02 0 0.335 0.02 0 0.34 0.02 0 0.345 0.02 0 0.35 0.02 0 0.355 0.02 0 0.36 0.02 0 0.365 0.02 0 0.37 0.02 0 0.375 0.02 0 0.38 0.02 0 0.385 0.02 0 0.39 0.02 0 0.395 0.02 0 0.4 0.02 0 0.405 0.02 0 0.41 0.02 0 0.415 0.02 0 0.42 0.02 0 0.425 0.02 0 0.43 0.02 0 0.435 0.02 0 0.44 0.02 0 0.445 0.02 0 0.45 0.02 0 0.455 0.02 0 0.46 0.02 0 0.465 0.02 0 0.47 0.02 0 0.475 0.02 0 0.48 0.02 0 0.485 0.02 0 0.49 0.02 0 0.495 0.02 0 0.5 0.02 0 0.505 0.02 0 0.51 0.02 0 0.515 0.02 0 0.52 0.02 0 0.525 0.02 0 0.53 0.02 0 0.535 0.02 0 0.54 0.02 0 0.545 0.02 0 0.55 0.02 0 0.555 0.02 0 0.56 0.02 0 0.565 0.02 0 0.57 0.02 0 0.575 0.02 0 0.58 0.02 0 0.585 0.02 0 0.59 0.02 0 0.595 0.02 0 0.6 0.02 0 0.605 0.02 0 0.61 0.02 0 0.615 0.02 0 0.62 0.02 0 0.625 0.02 0 0.63 0.02 0 0.635 0.02 0 0.64 0.02 0 0.645 0.02 0 0.65 0.02 0 0.655 0.02 0 0.66 0.02 0 0.665 0.02 0 0.67 0.02 0 0.675 0.02 0 0.68 0.02 0 0.685 0.02 0 0.69 0.02 0 0.695 0.02 0 0.7 0.02 0 0.705 0.02 0 0.71 0.02 0 0.715 0.02 0 0.72 0.02 0 0.725 0.02 0 0.73 0.02 0 0.735 0.02 0 0.74 0.02 0 0.745 0.02 0 0.75 0.02 0 0.755 0.02 0 0.76 0.02 0 0.765 0.02 0 0.77 0.02 0 0.775 0.02 0 0.78 0.02 0 0.785 0.02 0 0.79 0.02 0 0.795 0.02 0 0.8 0.02 0 0.805 0.02 0 0.81 0.02 0 0.815 0.02 0 0.82 0.02 0 0.825 0.02 0 0.83 0.02 0 0.835 0.02 0 0.84 0.02 0 0.845 0.02 0 0.85 0.02 0 0.855 0.02 0 0.86 0.02 0 0.865 0.02 0 0.87 0.02 0 0.875 0.02 0 0.88 0.02 0 0.885 0.02 0 0.89 0.02 0 0.895 0.02 0 0.9 0.02 0 0.905 0.02 0 0.91 0.02 0 0.915 0.02 0 0.92 0.02 0 0.925 0.02 0 0.93 0.02 0 0.935 0.02 0 0.94 0.02 0 0.945 0.02 0 0.95 0.02 0 0.955 0.02 0 0.96 0.02 0 0.965 0.02 0 0.97 0.02 0 0.975 0.02 0 0.98 0.02 0 0.985 0.02 0 0.99 0.02 0 0.995 0.02 0 1 0.02 0 0 0.04 0 0.005 0.04 0 0.01 0.04 0 0.015 0.04 0 0.02 0.04 0 0.025 0.04 0 0.03 0.04 0 0.035 0.04 0 0.04 0.04 0 0.045 0.04 0 0.05 0.04 0 0.055 0.04 0 0.06 0.04 0 0.065 0.04 0 0.07 0.04 0 0.075 0.04 0 0.08 0.04 0 0.085 0.04 0 0.09 0.04 0 0.095 0.04 0 0.1 0.04 0 0.105 0.04 0 0.11 0.04 0 0.115 0.04 0 0.12 0.04 0 0.125 0.04 0 0.13 0.04 0 0.135 0.04 0 0.14 0.04 0 0.145 0.04 0 0.15 0.04 0 0.155 0.04 0 0.16 0.04 0 0.165 0.04 0 0.17 0.04 0 0.175 0.04 0 0.18 0.04 0 0.185 0.04 0 0.19 0.04 0 0.195 0.04 0 0.2 0.04 0 0.205 0.04 0 0.21 0.04 0 0.215 0.04 0 0.22 0.04 0 0.225 0.04 0 0.23 0.04 0 0.235 0.04 0 0.24 0.04 0 0.245 0.04 0 0.25 0.04 0 0.255 0.04 0 0.26 0.04 0 0.265 0.04 0 0.27 0.04 0 0.275 0.04 0 0.28 0.04 0 0.285 0.04 0 0.29 0.04 0 0.295 0.04 0 0.3 0.04 0 0.305 0.04 0 0.31 0.04 0 0.315 0.04 0 0.32 0.04 0 0.325 0.04 0 0.33 0.04 0 0.335 0.04 0 0.34 0.04 0 0.345 0.04 0 0.35 0.04 0 0.355 0.04 0 0.36 0.04 0 0.365 0.04 0 0.37 0.04 0 0.375 0.04 0 0.38 0.04 0 0.385 0.04 0 0.39 0.04 0 0.395 0.04 0 0.4 0.04 0 0.405 0.04 0 0.41 0.04 0 0.415 0.04 0 0.42 0.04 0 0.425 0.04 0 0.43 0.04 0 0.435 0.04 0 0.44 0.04 0 0.445 0.04 0 0.45 0.04 0 0.455 0.04 0 0.46 0.04 0 0.465 0.04 0 0.47 0.04 0 0.475 0.04 0 0.48 0.04 0 0.485 0.04 0 0.49 0.04 0 0.495 0.04 0 0.5 0.04 0 0.505 0.04 0 0.51 0.04 0 0.515 0.04 0 0.52 0.04 0 0.525 0.04 0 0.53 0.04 0 0.535 0.04 0 0.54 0.04 0 0.545 0.04 0 0.55 0.04 0 0.555 0.04 0 0.56 0.04 0 0.565 0.04 0 0.57 0.04 0 0.575 0.04 0 0.58 0.04 0 0.585 0.04 0 0.59 0.04 0 0.595 0.04 0 0.6 0.04 0 0.605 0.04 0 0.61 0.04 0 0.615 0.04 0 0.62 0.04 0 0.625 0.04 0 0.63 0.04 0 0.635 0.04 0 0.64 0.04 0 0.645 0.04 0 0.65 0.04 0 0.655 0.04 0 0.66 0.04 0 0.665 0.04 0 0.67 0.04 0 0.675 0.04 0 0.68 0.04 0 0.685 0.04 0 0.69 0.04 0 0.695 0.04 0 0.7 0.04 0 0.705 0.04 0 0.71 0.04 0 0.715 0.04 0 0.72 0.04 0 0.725 0.04 0 0.73 0.04 0 0.735 0.04 0 0.74 0.04 0 0.745 0.04 0 0.75 0.04 0 0.755 0.04 0 0.76 0.04 0 0.765 0.04 0 0.77 0.04 0 0.775 0.04 0 0.78 0.04 0 0.785 0.04 0 0.79 0.04 0 0.795 0.04 0 0.8 0.04 0 0.805 0.04 0 0.81 0.04 0 0.815 0.04 0 0.82 0.04 0 0.825 0.04 0 0.83 0.04 0 0.835 0.04 0 0.84 0.04 0 0.845 0.04 0 0.85 0.04 0 0.855 0.04 0 0.86 0.04 0 0.865 0.04 0 0.87 0.04 0 0.875 0.04 0 0.88 0.04 0 0.885 0.04 0 0.89 0.04 0 0.895 0.04 0 0.9 0.04 0 0.905 0.04 0 0.91 0.04 0 0.915 0.04 0 0.92 0.04 0 0.925 0.04 0 0.93 0.04 0 0.935 0.04 0 0.94 0.04 0 0.945 0.04 0 0.95 0.04 0 0.955 0.04 0 0.96 0.04 0 0.965 0.04 0 0.97 0.04 0 0.975 0.04 0 0.98 0.04 0 0.985 0.04 0 0.99 0.04 0 0.995 0.04 0 1 0.04 0 0 0.06 0 0.005 0.06 0 0.01 0.06 0 0.015 0.06 0 0.02 0.06 0 0.025 0.06 0 0.03 0.06 0 0.035 0.06 0 0.04 0.06 0 0.045 0.06 0 0.05 0.06 0 0.055 0.06 0 0.06 0.06 0 0.065 0.06 0 0.07 0.06 0 0.075 0.06 0 0.08 0.06 0 0.085 0.06 0 0.09 0.06 0 0.095 0.06 0 0.1 0.06 0 0.105 0.06 0 0.11 0.06 0 0.115 0.06 0 0.12 0.06 0 0.125 0.06 0 0.13 0.06 0 0.135 0.06 0 0.14 0.06 0 0.145 0.06 0 0.15 0.06 0 0.155 0.06 0 0.16 0.06 0 0.165 0.06 0 0.17 0.06 0 0.175 0.06 0 0.18 0.06 0 0.185 0.06 0 0.19 0.06 0 0.195 0.06 0 0.2 0.06 0 0.205 0.06 0 0.21 0.06 0 0.215 0.06 0 0.22 0.06 0 0.225 0.06 0 0.23 0.06 0 0.235 0.06 0 0.24 0.06 0 0.245 0.06 0 0.25 0.06 0 0.255 0.06 0 0.26 0.06 0 0.265 0.06 0 0.27 0.06 0 0.275 0.06 0 0.28 0.06 0 0.285 0.06 0 0.29 0.06 0 0.295 0.06 0 0.3 0.06 0 0.305 0.06 0 0.31 0.06 0 0.315 0.06 0 0.32 0.06 0 0.325 0.06 0 0.33 0.06 0 0.335 0.06 0 0.34 0.06 0 0.345 0.06 0 0.35 0.06 0 0.355 0.06 0 0.36 0.06 0 0.365 0.06 0 0.37 0.06 0 0.375 0.06 0 0.38 0.06 0 0.385 0.06 0 0.39 0.06 0 0.395 0.06 0 0.4 0.06 0 0.405 0.06 0 0.41 0.06 0 0.415 0.06 0 0.42 0.06 0 0.425 0.06 0 0.43 0.06 0 0.435 0.06 0 0.44 0.06 0 0.445 0.06 0 0.45 0.06 0 0.455 0.06 0 0.46 0.06 0 0.465 0.06 0 0.47 0.06 0 0.475 0.06 0 0.48 0.06 0 0.485 0.06 0 0.49 0.06 0 0.495 0.06 0 0.5 0.06 0 0.505 0.06 0 0.51 0.06 0 0.515 0.06 0 0.52 0.06 0 0.525 0.06 0 0.53 0.06 0 0.535 0.06 0 0.54 0.06 0 0.545 0.06 0 0.55 0.06 0 0.555 0.06 0 0.56 0.06 0 0.565 0.06 0 0.57 0.06 0 0.575 0.06 0 0.58 0.06 0 0.585 0.06 0 0.59 0.06 0 0.595 0.06 0 0.6 0.06 0 0.605 0.06 0 0.61 0.06 0 0.615 0.06 0 0.62 0.06 0 0.625 0.06 0 0.63 0.06 0 0.635 0.06 0 0.64 0.06 0 0.645 0.06 0 0.65 0.06 0 0.655 0.06 0 0.66 0.06 0 0.665 0.06 0 0.67 0.06 0 0.675 0.06 0 0.68 0.06 0 0.685 0.06 0 0.69 0.06 0 0.695 0.06 0 0.7 0.06 0 0.705 0.06 0 0.71 0.06 0 0.715 0.06 0 0.72 0.06 0 0.725 0.06 0 0.73 0.06 0 0.735 0.06 0 0.74 0.06 0 0.745 0.06 0 0.75 0.06 0 0.755 0.06 0 0.76 0.06 0 0.765 0.06 0 0.77 0.06 0 0.775 0.06 0 0.78 0.06 0 0.785 0.06 0 0.79 0.06 0 0.795 0.06 0 0.8 0.06 0 0.805 0.06 0 0.81 0.06 0 0.815 0.06 0 0.82 0.06 0 0.825 0.06 0 0.83 0.06 0 0.835 0.06 0 0.84 0.06 0 0.845 0.06 0 0.85 0.06 0 0.855 0.06 0 0.86 0.06 0 0.865 0.06 0 0.87 0.06 0 0.875 0.06 0 0.88 0.06 0 0.885 0.06 0 0.89 0.06 0 0.895 0.06 0 0.9 0.06 0 0.905 0.06 0 0.91 0.06 0 0.915 0.06 0 0.92 0.06 0 0.925 0.06 0 0.93 0.06 0 0.935 0.06 0 0.94 0.06 0 0.945 0.06 0 0.95 0.06 0 0.955 0.06 0 0.96 0.06 0 0.965 0.06 0 0.97 0.06 0 0.975 0.06 0 0.98 0.06 0 0.985 0.06 0 0.99 0.06 0 0.995 0.06 0 1 0.06 0 0 0.08 0 0.005 0.08 0 0.01 0.08 0 0.015 0.08 0 0.02 0.08 0 0.025 0.08 0 0.03 0.08 0 0.035 0.08 0 0.04 0.08 0 0.045 0.08 0 0.05 0.08 0 0.055 0.08 0 0.06 0.08 0 0.065 0.08 0 0.07 0.08 0 0.075 0.08 0 0.08 0.08 0 0.085 0.08 0 0.09 0.08 0 0.095 0.08 0 0.1 0.08 0 0.105 0.08 0 0.11 0.08 0 0.115 0.08 0 0.12 0.08 0 0.125 0.08 0 0.13 0.08 0 0.135 0.08 0 0.14 0.08 0 0.145 0.08 0 0.15 0.08 0 0.155 0.08 0 0.16 0.08 0 0.165 0.08 0
[...]
			<PointData Scalars="VitesseX">
				<DataArray Name="VitesseX" type="Float32" format="ascii">
 0 2.07778e-15 -1.14158e-14 -7.88073e-15 -8.30508e-15 -2.8122e-14 -4.70979e-14 -3.6223e-15 4.22912e-15 -1.83022e-14 -3.15478e-14 -2.25987e-14 -5.23255e-14 1.06076e-14 -5.34449e-14 -1.07087e-14 -5.34218e-14 1.09057e-14 -2.80685e-14 -3.63459e-14 -7.26497e-14 -6.95846e-14 5.29046e-15 -2.82497e-14 -2.10292e-13 6.1632e-14 -6.05282e-14 -1.73485e-13 -2.32827e-13 -6.18511e-14 -1.43448e-13 -2.82182e-13 -8.54935e-14 -1.25189e-13 -1.18273e-13 -1.34421e-15 -2.56605e-14 -8.43227e-14 9.15557e-14 -1.47971e-13 -9.99672e-14 -4.83691e-15 -2.00194e-13 -1.56778e-13 -7.00076e-15 -4.71145e-14 1.00334e-14 -2.86499e-13 3.90389e-14 -2.3531e-13 -1.88798e-13 -4.01607e-14 3.46626e-14 -1.06765e-13 -5.97596e-13 2.17502e-13 5.11053e-14 3.15786e-13 3.48305e-12 2.96426e-11 2.25993e-10 1.62228e-09 1.08716e-08 6.78007e-08 3.91935e-07 2.09078e-06 1.02392e-05 4.57539e-05 0.000185175 0.000672672 0.00216915 0.00612925 0.0149728 0.0313041 0.0560057 0.0870771 0.121181 0.156038 0.190853 0.22547 0.259861 0.294011 0.327909 0.361546 0.394908 0.427974 0.460723 0.493123 0.525136 0.556713 0.587796 0.618313 0.648175 0.677281 0.705507 0.732709 0.758727 0.783377 0.806465 0.82779 0.847157 0.864396 0.879382 0.892054 0.902436 0.910642 0.916869 0.921386 0.924495 0.926509 0.927714 0.928358 0.928636 0.928682 0.928631 0.928529 0.928395 0.928243 0.928082 0.927919 0.927759 0.927602 0.927449 0.927294 0.92713 0.926941 0.926697 0.926343 0.925779 0.924832 0.923205 0.920403 0.915629 0.907644 0.894605 0.873922 0.842233 0.795656 0.730479 0.644444 0.538529 0.418726 0.296572 0.186928 0.102716 0.0489519 0.0207143 0.00812135 0.00305861 0.00112864 0.000411498 0.000148678 5.32744e-05 1.89297e-05 6.66739e-06 2.32673e-06 8.04083e-07 2.75054e-07 9.309e-08 3.11591e-08 1.03106e-08 3.37203e-09 1.08915e-09 3.4745e-10 1.09289e-10 3.32861e-11 1.00817e-11 2.57945e-12 6.25527e-13 -9.56601e-14 -2.53859e-13 -2.89127e-13 2.4223e-13 -3.2229e-13 1.04774e-13 4.65963e-13 -4.19297e-13 2.15851e-13 -2.50407e-13 -6.44938e-13 1.2419e-13 2.33516e-13 -7.54166e-13 5.84146e-14 -1.35694e-13 -3.73887e-13 2.17975e-13 -1.67483e-13 7.36223e-13 -9.25472e-13 9.21047e-13 3.02135e-13 -2.62933e-13 3.93486e-13 2.35378e-13 2.18321e-13 3.82407e-13 -5.0913e-13 4.23158e-13 1.31186e-13 0 0 -1.75009e-14 -1.62724e-14 -3.13512e-14 -2.64983e-14 -1.60931e-14 6.30679e-15 -1.62834e-14 -1.5848e-14 -3.22141e-14 -1.96185e-14 -9.47448e-15 -1.03255e-14 -5.73129e-14 1.31907e-15 -3.06987e-14 3.16448e-14 -8.28143e-14 -3.21536e-14 -8.06568e-14 -4.5592e-14 -2.9244e-14 -7.62642e-14 -9.86677e-14 7.65414e-14 -2.14572e-13 -9.10655e-14 -1.07008e-13 -5.18278e-14 -2.42465e-13 -1.23124e-13 -1.12995e-13 -1.98417e-13 -9.24923e-14 -4.22195e-14 -1.40912e-13 2.02061e-14 3.16136e-14 -1.31208e-13 -5.68105e-14 -7.14754e-14 -2.45934e-13 4.51917e-14 -1.41992e-13 -1.21967e-13 -9.02624e-14 -1.13149e-13 4.91173e-14 -6.26756e-14 -3.70389e-14 4.65739e-15 -2.27667e-13 -3.54308e-13 -1.46601e-13 2.60804e-13 -2.80855e-13 -5.51002e-14 3.59401e-13 3.59255e-12 2.94412e-11 2.26219e-10 1.62213e-09 1.08716e-08 6.78003e-08 3.91936e-07 2.09078e-06 1.02392e-05 4.57539e-05 0.000185175 0.000672672 0.00216915 0.00612925 0.0149728 0.0313041 0.0560057 0.0870771 0.121181 0.156038 0.190853 0.22547 0.259861 0.294011 0.327909 0.361546 0.394908 0.427974 0.460723 0.493123 0.525136 0.556713 0.587796 0.618313 0.648175 0.677281 0.705507 0.732709 0.758727 0.783377 0.806465 0.82779 0.847157 0.864396 0.879382 0.892054 0.902436 0.910642 0.916869 0.921386 0.924495 0.926509 0.927714 0.928358 0.928636 0.928682 0.928631 0.928529 0.928395 0.928243 0.928082 0.927919 0.927759 0.927602 0.927449 0.927294 0.92713 0.926941 0.926697 0.926343 0.925779 0.924832 0.923205 0.920403 0.915629 0.907644 0.894605 0.873922 0.842233 0.795656 0.730479 0.644444 0.538529 0.418726 0.296572 0.186928 0.102716 0.0489519 0.0207143 0.00812135 0.00305861 0.00112864 0.000411498 0.000148678 5.32744e-05 1.89297e-05 6.66739e-06 2.32673e-06 8.04083e-07 2.75054e-07 9.30903e-08 3.11591e-08 1.03109e-08 3.37195e-09 1.08925e-09 3.47326e-10 1.09052e-10 3.36604e-11 9.78178e-12 3.01565e-12 6.13808e-14 1.50994e-13 2.96993e-15 -1.99361e-13 -2.5057e-13 1.84294e-13 2.13569e-13 -4.56761e-13 2.17604e-13 -2.62767e-13 -2.04261e-13 1.42854e-13 -3.36505e-13 -2.46205e-13 9.39601e-14 -7.23957e-13 -2.87235e-13 -4.5256e-16 -1.20555e-14 4.35407e-13 -6.85944e-13 7.45067e-13 -3.32563e-13 -2.3807e-13 9.21524e-13 -1.88884e-13 4.09237e-13 2.33166e-13 -2.20772e-13 1.85502e-13 -1.07754e-13 1.02628e-14 0 0 -9.62769e-15 -2.56296e-14 -2.73655e-14 -3.10659e-14 -1.76311e-14 -1.77921e-14 -1.90948e-14 -3.43085e-14 2.41178e-14 -3.18105e-14 -2.08491e-14 -2.1691e-14 4.28075e-14 -3.24977e-14 2.84806e-14 -3.62676e-14 -2.88731e-14 -2.16661e-14 -6.39062e-14 -1.05434e-13 -2.07835e-14 -3.70163e-14 -6.4569e-14 -2.07998e-13 -1.261e-13 -9.60281e-14 -5.40451e-14 -1.64078e-13 -5.84103e-14 -1.3558e-13 -1.11147e-13 -1.23621e-13 -6.1821e-14 -1.09623e-13 -3.25333e-14 -6.32011e-14 -2.22309e-14 -6.41749e-14 -1.15973e-13 -1.59679e-13 -3.45538e-14 -1.81933e-13 -1.87194e-13 3.19745e-14 -1.35377e-13 1.17678e-13 -6.12286e-14 -8.87317e-14 -2.21369e-13 -5.83513e-14 1.1767e-13 -1.02114e-13 -2.23375e-13 -2.06093e-13 -7.05982e-14 -6.06486e-14 4.82363e-13 3.73208e-12 2.94383e-11 2.26009e-10 1.62217e-09 1.08716e-08 6.78003e-08 3.91936e-07 2.09078e-06 1.02392e-05 4.57539e-05 0.000185175 0.000672672 0.00216915 0.00612925 0.0149728 0.0313041 0.0560057 0.0870771 0.121181 0.156038 0.190853 0.22547 0.259861 0.294011 0.327909 0.361546 0.394908 0.427974 0.460723 0.493123 0.525136 0.556713 0.587796 0.618313 0.648175 0.677281 0.705507 0.732709 0.758727 0.783377 0.806465 0.82779 0.847157 0.864396 0.879382 0.892054 0.902436 0.910642 0.916869 0.921386 0.924495 0.926509 0.927714 0.928358 0.928636 0.928682 0.928631 0.928529 0.928395 0.928243 0.928082 0.927919 0.927759 0.927602 0.927449 0.927294 0.92713 0.926941 0.926697 0.926343 0.925779 0.924832 0.923205 0.920403 0.915629 0.907644 0.894605 0.873922 0.842233 0.795656 0.730479 0.644444 0.538529 0.418726 0.296572 0.186928 0.102716 0.0489519 0.0207143 0.00812135 0.00305861 0.00112864 0.000411498 0.000148678 5.32744e-05 1.89297e-05 6.66739e-06 2.32673e-06 8.04083e-07 2.75054e-07 9.30905e-08 3.11594e-08 1.03108e-08 3.37208e-09 1.08924e-09 3.47493e-10 1.08999e-10 3.37454e-11 1.00055e-11 2.65559e-12 6.21977e-13 -1.70771e-13 -2.02151e-13 -1.11218e-13 1.10509e-13 -1.55484e-13 -1.47988e-13 -4.4441e-13 1.80345e-13 -2.97265e-13 2.67095e-13 -1.7437e-13 -6.85499e-14 -4.85743e-13 -5.02522e-13 -1.89923e-13 -2.94775e-13 -2.73148e-13 -1.05261e-13 -1.91624e-13 -1.16796e-13 -2.04144e-13 4.10426e-13 6.82459e-14 6.36354e-14 3.84165e-13 2.60187e-13 -7.94643e-14 1.63748e-13 -6.62407e-14 2.01038e-13 -2.26446e-13 0 0 6.45168e-15 1.37465e-15 7.16593e-15 -1.00588e-14 -2.96288e-14 -7.11053e-15 -4.50014e-14 -7.6283e-15 -4.49852e-14 -2.21767e-14 -8.04838e-15 -4.9992e-15 -1.49334e-14 3.71721e-14 1.0916e-14 2.69206e-14 -1.35053e-14 -8.42679e-14 5.18961e-15 -1.30177e-14 -1.44035e-13 -9.89863e-14 -8.81754e-14 -1.83778e-13 -5.91449e-14 -1.1397e-13 -9.42731e-14 -1.80924e-13 -6.2013e-14 -7.57608e-14 -5.0284e-14 -6.87374e-14 -8.13887e-14 -6.36534e-14 4.89484e-14 -2.1217e-14 -2.23319e-13 2.45443e-14 -2.11568e-13 -1.54852e-13 3.05198e-14 -9.44935e-14 -1.95893e-13 4.05054e-14 -2.49595e-13 -4.98011e-14 -2.0474e-13 8.96831e-14 8.26709e-14 -1.73686e-13 -1.55891e-14 4.19103e-14 -1.12828e-13 -3.12794e-13 -3.3371e-14 3.12034e-14 4.92873e-13 3.73622e-12 2.97015e-11 2.26014e-10 1.62223e-09 1.08716e-08 6.78005e-08 3.91936e-07 2.09078e-06 1.02392e-05 4.57539e-05 0.000185175 0.000672672 0.00216915 0.00612925 0.0149728 0.0313041 0.0560057 0.0870771 0.121181 0.156038 0.190853 0.22547 0.259861 0.294011 0.327909 0.361546 0.394908 0.427974 0.460723 0.493123 0.525136 0.556713 0.587796 0.618313 0.648175 0.677281 0.705507 0.732709 0.758727 0.783377 0.806465 0.82779 0.847157 0.864396 0.879382 0.892054 0.902436 0.910642 0.916869 0.921386 0.924495 0.926509 0.927714 0.928358 0.928636 0.928682 0.928631 0.928529 0.928395 0.928243 0.928082 0.927919 0.927759 0.927602 0.927449 0.927294 0.92713 0.926941 0.926697 0.926343 0.925779 0.924832 0.923205 0.920403 0.915629 0.907644 0.894605 0.873922 0.842233 0.795656 0.730479 0.644444 0.538529 0.418726 0.296572 0.186928 0.102716 0.0489519 0.0207143 0.00812135 0.00305861 0.00112864 0.000411498 0.000148678 5.32744e-05 1.89297e-05 6.66739e-06 2.32673e-06 8.04083e-07 2.75054e-07 9.30905e-08 3.11595e-08 1.0311e-08 3.37198e-09 1.08927e-09 3.47466e-10 1.09312e-10 3.3511e-11 9.81383e-12 2.89249e-12 5.76117e-13 -7.34814e-14 -2.45694e-13 -3.38356e-13 3.27055e-13 -5.721e-13 1.51732e-13 -5.54423e-14 -2.09097e-13 3.68341e-15 1.0874e-13 -1.17235e-13 -5.30189e-13 -2.73906e-13 -7.02851e-13 -1.19499e-13 -3.01526e-13 -2.61064e-13 -4.99162e-14 -8.04121e-14 3.85558e-13 -3.51243e-13 2.97895e-13 -2.84715e-14 7.82008e-15 4.58133e-13 5.62754e-13 3.50517e-13 -4.12156e-14 -1.50672e-13 -2.75777e-14 6.6684e-13 0 0 5.76187e-15 1.56633e-14 7.39437e-15 1.94721e-15 -1.85238e-14 1.56081e-14 -3.8428e-14 2.8667e-15 -4.15677e-14 -3.04182e-14 -3.42948e-14 1.25409e-14 -7.53814e-14 3.58986e-14 -2.97538e-14 3.99799e-14 -5.17304e-14 -4.31476e-14 -4.07625e-14 2.04324e-14 -1.0086e-13 -1.50076e-13 -1.30825e-13 9.74248e-14 -1.46578e-13 -1.08561e-13 -8.67541e-14 -5.88083e-15 -2.93151e-13 -7.95433e-14 -2.45395e-14 -6.89798e-14 -5.67892e-14 4.8806e-14 -4.71926e-14 -1.92541e-14 1.42134e-14 -1.1832e-13 -1.21701e-13 -8.09223e-14 -2.57512e-13 5.65141e-14 -1.48235e-13 -1.96021e-13 -1.4487e-13 -3.42152e-13 1.00861e-14 3.51305e-14 2.94273e-13 -7.96624e-15 -3.57196e-13 -1.68785e-13 -1.22395e-14 1.42952e-13 -2.87488e-13 2.03825e-14 6.03517e-13 3.84303e-12 2.9831e-11 2.26246e-10 1.62226e-09 1.08717e-08 6.78004e-08 3.91936e-07 2.09078e-06 1.02392e-05 4.57539e-05 0.000185175 0.000672672 0.00216915 0.00612925 0.0149728 0.0313041 0.0560057 0.0870771 0.121181 0.156038 0.190853 0.22547 0.259861 0.294011 0.327909 0.361546 0.394908 0.427974 0.460723 0.493123 0.525136 0.556713 0.587796 0.618313 0.648175 0.677281 0.705507 0.732709 0.758727 0.783377 0.806465 0.82779 0.847157 0.864396 0.879382 0.892054 0.902436 0.910642 0.916869 0.921386 0.924495 0.926509 0.927714 0.928358 0.928636 0.928682 0.928631 0.928529 0.928395 0.928243 0.928082 0.927919 0.927759 0.927602 0.927449 0.927294 0.92713 0.926941 0.926697 0.926343 0.925779 0.924832 0.923205 0.920403 0.915629 0.907644 0.894605 0.873922 0.842233 0.795656 0.730479 0.644444 0.538529 0.418726 0.296572 0.186928 0.102716 0.0489519 0.0207143 0.00812135 0.00305861 0.00112864 0.000411498 0.000148678 5.32744e-05 1.89297e-05 6.66739e-06 2.32673e-06 8.04083e-07 2.75054e-07 9.30903e-08 3.11589e-08 1.03111e-08 3.37166e-09 1.08938e-09 3.47233e-10 1.09112e-10 3.37271e-11 9.56182e-12 3.17043e-12 -5.54957e-14 1.75528e-13 -2.5085e-14 -1.65029e-13 -1.65551e-13 -1.28798e-13 2.293e-13 -1.82504e-13 1.45652e-13 -6.56844e-14 -1.22778e-13 2.01894e-13 -7.26488e-13 -5.99328e-14 -5.48875e-14 -5.86251e-13 -4.21295e-13 4.01553e-14 -2.41159e-13 2.1664e-14 2.02272e-13 6.99931e-13 -7.30564e-13 -3.5409e-14 6.42252e-13 -1.78105e-13 4.45835e-13 1.94357e-13 -4.85614e-13 2.21741e-13 -1.6649e-13 6.37979e-13 0 0 1.64446e-14 -1.55288e-15 5.4753e-16 6.57195e-15 -8.98814e-15 -4.98584e-14 3.90177e-15 -1.17018e-14 1.01197e-13 -7.24145e-14 -9.78408e-14 -3.99763e-14 8.99522e-14 -1.23626e-13 2.63101e-14 -1.63128e-13 4.23378e-14 7.51471e-14 -9.4749e-14 -1.25433e-13 3.36863e-14 -1.83936e-14 -4.53524e-14 -2.16965e-13 6.37094e-14 -5.96367e-14 -5.25209e-14 -1.07242e-13 -1.56018e-13 -1.75924e-13 -2.26996e-13 6.36151e-14 -1.4647e-14 -2.81615e-14 2.31305e-14 -1.88549e-13 2.83053e-13 -6.01071e-14 -8.65623e-14 -1.28515e-13 -1.5814e-13 -3.52428e-13 -1.51867e-13 -1.7217e-13 7.21071e-14 -1.13014e-13 -7.75391e-14 -1.22179e-13 -1.80766e-13 1.6624e-14 -3.27017e-14 1.17658e-13 -5.91369e-14 -6.19898e-13 1.2978e-13 1.83668e-14 7.82999e-13 3.97575e-12 2.98956e-11 2.26036e-10 1.62242e-09 1.08716e-08 6.78006e-08 3.91936e-07 2.09078e-06 1.02392e-05 4.57539e-05 0.000185175 0.000672672 0.00216915 0.00612925 0.0149728 0.0313041 0.0560057 0.0870771 0.121181 0.156038 0.190853 0.22547 0.259861 0.294011 0.327909 0.361546 0.394908 0.427974 0.460723 0.493123 0.525136 0.556713 0.587796 0.618313 0.648175 0.677281 0.705507 0.732709 0.758727 0.783377 0.806465 0.82779 0.847157 0.864396 0.879382 0.892054 0.902436 0.910642 0.916869 0.921386 0.924495 0.926509 0.927714 0.928358 0.928636 0.928682 0.928631 0.928529 0.928395 0.928243 0.928082 0.927919 0.927759 0.927602 0.927449 0.927294 0.92713 0.926941 0.926697 0.926343 0.925779 0.924832 0.923205 0.920403 0.915629 0.907644 0.894605 0.873922 0.842233 0.795656 0.730479 0.644444 0.538529 0.418726 0.296572 0.186928 0.102716 0.0489519 0.0207143 0.00812135 0.00305861 0.00112864 0.000411498 0.000148678 5.32744e-05 1.89297e-05 6.66739e-06 2.32673e-06 8.04083e-07 2.75054e-07 9.30902e-08 3.11584e-08 1.03106e-08 3.37166e-09 1.08935e-09 3.47317e-10 1.08783e-10 3.38883e-11 1.00251e-11 2.41521e-12 4.83494e-13 -2.4117e-13 -2.22885e-13 2.33814e-13 -2.08244e-14 -1.15244e-13 -4.63204e-13 2.36543e-13 2.15681e-13 8.11888e-15 2.29268e-13 -6.41127e-13 2.67504e-13 1.82389e-13 -6.51203e-13 1.92979e-13 -3.90312e-13 -3.16839e-13 -3.50922e-13 -1.21739e-12 1.50795e-12 -7.21547e-13 3.50108e-13 9.00891e-13 -7.09846e-13 2.6711e-13 -2.96559e-13 -7.19258e-13 2.6265e-13 -2.6779e-13 7.62919e-13 -3.99955e-13 0
				</DataArray>
				<DataArray Name="VitesseY" type="Float32" format="ascii">