<?xml version="1.0"?>
<VTKFile type="PolyData">
	<PolyData>
		<Piece NumberOfPoints="1206" NumberOfPolys="1000">
			<Points>
				<DataArray type="Float32" NumberOfComponents="3" format="ascii">
 0 0 0 0.005 0 0 0.01 0 0 0.015 0 0 0.02 0 0 0.025 0 0 0.03 0 0 0.035 0 0 0.04 0 0 0.045 0 0 0.05 0 0 0.055 0 0 0.06 0 0 0.065 0 0 0.07 0 0 0.075 0 0 0.08 0 0 0.085 0 0 0.09 0 0 0.095 0 0 0.1 0 0 0.105 0 0 0.11 0 0 0.115 0 0 0.12 0 0 0.125 0 0 0.13 0 0 0.135 0 0 0.14 0 0 0.145 0 0 0.15 0 0 0.155 0 0 0.16 0 0 0.165 0 0 0.17 0 0 0.175 0 0 0.18 0 0 0.185 0 0 0.19 0 0 0.195 0 0 0.2 0 0 0.205 0 0 0.21 0 0 0.215 0 0 0.22 0 0 0.225 0 0 0.23 0 0 0.235 0 0 0.24 0 0 0.245 0 0 0.25 0 0 0.255 0 0 0.26 0 0 0.265 0 0 0.27 0 0 0.275 0 0 0.28 0 0 0.285 0 0 0.29 0 0 0.295 0 0 0.3 0 0 0.305 0 0 0.31 0 0 0.315 0 0 0.32 0 0 0.325 0 0 0.33 0 0 0.335 0 0 0.34 0 0 0.345 0 0 0.35 0 0 0.355 0 0 0.36 0 0 0.365 0 0 0.37 0 0 0.375 0 0 0.38 0 0 0.385 0 0 0.39 0 0 0.395 0 0 0.4 0 0 0.405 0 0 0.41 0 0 0.415 0 0 0.42 0 0 0.425 0 0 0.43 0 0 0.435 0 0 0.44 0 0 0.445 0 0 0.45 0 0 0.455 0 0 0.46 0 0 0.465 0 0 0.47 0 0 0.475 0 0 0.48 0 0 0.485 0 0 0.49 0 0 0.495 0 0 0.5 0 0 0.505 0 0 0.51 0 0 0.515 0 0 0.52 0 0 0.525 0 0 0.53 0 0 0.535 0 0 0.54 0 0 0.545 0 0 0.55 0 0 0.555 0 0 0.56 0 0 0.565 0 0 0.57 0 0 0.575 0 0 0.58 0 0 0.585 0 0 0.59 0 0 0.595 0 0 0.6 0 0 0.605 0 0 0.61 0 0 0.615 0 0 0.62 0 0 0.625 0 0 0.63 0 0 0.635 0 0 0.64 0 0 0.645 0 0 0.65 0 0 0.655 0 0 0.66 0 0 0.665 0 0 0.67 0 0 0.675 0 0 0.68 0 0 0.685 0 0 0.69 0 0 0.695 0 0 0.7 0 0 0.705 0 0 0.71 0 0 0.715 0 0 0.72 0 0 0.725 0 0 0.73 0 0 0.735 0 0 0.74 0 0 0.745 0 0 0.75 0 0 0.755 0 0 0.76 0 0 0.765 0 0 0.77 0 0 0.775 0 0 0.78 0 0 0.785 0 0 0.79 0 0 0.795 0 0 0.8 0 0 0.805 0 0 0.81 0 0 0.815 0 0 0.82 0 0 0.825 0 0 0.83 0 0 0.835 0 0 0.84 0 0 0.845 0 0 0.85 0 0 0.855 0 0 0.86 0 0 0.865 0 0 0.87 0 0 0.875 0 0 0.88 0 0 0.885 0 0 0.89 0 0 0.895 0 0 0.9 0 0 0.905 0 0 0.91 0 0 0.915 0 0 0.92 0 0 0.925 0 0 0.93 0 0 0.935 0 0 0.94 0 0 0.945 0 0 0.95 0 0 0.955 0 0 0.96 0 0 0.965 0 0 0.97 0 0 0.975 0 0 0.98 0 0 0.985 0 0 0.99 0 0 0.995 0 0 1 0 0 0 0.02 0 0.005 0.02 0 0.01 0.02 0 0.015 0.02 0 0.02 0.02 0 0.025 0.02 0 0.03 0.02 0 0.035 0.02 0 0.04 0.02 0 0.045 0.02 0 0.05 0.02 0 0.055 0.02 0 0.06 0.02 0 0.065 0.02 0 0.07 0.02 0 0.075 0.02 0 0.08 0.02 0 0.085 0.02 0 0.09 0.02 0 0.095 0.02 0 0.1 0.02 0 0.105 0.02 0 0.11 0.02 0 0.115 0.02 0 0.12 0.02 0 0.125 0.02 0 0.13 0.02 0 0.135 0.02 0 0.14 0.02 0 0.145 0.02 0 0.15 0.02 0 0.155 0.02 0 0.16 0.02 0 0.165 0.02 0 0.17 0.02 0 0.175 0.02 0 0.18 0.02 0 0.185 0.02 0 0.19 0.02 0 0.195 0.02 0 0.2 0.02 0 0.205 0.02 0 0.21 0.02 0 0.215 0.02 0 0.22 0.02 0 0.225 0.02 0 0.23 0.02 0 0.235 0.02 0 0.24 0.02 0 0.245 0.02 0 0.25 0.02 0 0.255 0.02 0 0.26 0.02 0 0.265 0.02 0 0.27 0.02 0 0.275 0.02 0 0.28 0.02 0 0.285 0.02 0 0.29 0.02 0 0.295 0.02 0 0.3 0.02 0 0.305 0.02 0 0.31 0.02 0 0.315 0.02 0 0.32 0.02 0 0.325 0.02 0 0.33 0.02 0 0.335 0.02 0 0.34 0.02 0 0.345 0.02 0 0.35 0.02 0 0.355 0.02 0 0.36 0.02 0 0.365 0.02 0 0.37 0.02 0 0.375 0.02 0 0.38 0.02 0 0.385 0.02 0 0.39 0.02 0 0.395 0.02 0 0.4 0.02 0 0.405 0.02 0 0.41 0.02 0 0.415 0.02 0 0.42 0.02 0 0.425 0.02 0 0.43 0.02 0 0.435 0.02 0 0.44 0.02 0 0.445 0.02 0 0.45 0.02 0 0.455 0.02 0 0.46 0.02 0 0.465 0.02 0 0.47 0.02 0 0.475 0.02 0 0.48 0.02 0 0.485 0.02 0 0.49 0.02 0 0.495 0.02 0 0.5 0.02 0 0.505 0.02 0 0.51 0.02 0 0.515 0.02 0 0.52 0.02 0 0.525 0.02 0 0.53 0.02 0 0.535 0.02 0 0.54 0.02 0 0.545 0.02 0 0.55 0.02 0 0.555 0.02 0 0.56 0.02 0 0.565 0.02 0 0.57 0.02 0 0.575 0.02 0 0.58 0.02 0 0.585 0.02 0 0.59 0.02 0 0.595 0.02 0 0.6 0.02 0 0.605 0.02 0 0.61 0.02 0 0.615 0.02 0 0.62 0.02 0 0.625 0.02 0 0.63 0.02 0 0.635 0.02 0 0.64 0.02 0 0.645 0.02 0 0.65 0.02 0 0.655 0.02 0 0.66 0.02 0 0.665 0.02 0 0.67 0.02 0 0.675 0.02 0 0.68 0.02 0 0.685 0.02 0 0.69 0.02 0 0.695 0.02 0 0.7 0.02 0 0.705 0.02 0 0.71 0.02 0 0.715 0.02 0 0.72 0.02 0 0.725 0.02 0 0.73 0.02 0 0.735 0.02 0 0.74 0.02 0 0.745 0.02 0 0.75 0.02 0 0.755 0.02 0 0.76 0.02 0 0.765 0.02 0 0.77 0.02 0 0.775 0.02 0 0.78 0.02 0 0.785 0.02 0 0.79 0.02 0 0.795 0.02 0 0.8 0.02 0 0.805 0.02 0 0.81 0.02 0 0.815 0.02 0 0.82 0.02 0 0.825 0.02 0 0.83 0.02 0 0.835 0.02 0 0.84 0.02 0 0.845 0.02 0 0.85 0.02 0 0.855 0.02 0 0.86 0.02 0 0.865 0.02 0 0.87 0.02 0 0.875 0.02 0 0.88 0.02 0 0.885 0.02 0 0.89 0.02 0 0.895 0.02 0 0.9 0.02 0 0.905 0.02 0 0.91 0.02 0 0.915 0.02 0 0.92 0.02 0 0.925 0.02 0 0.93 0.02 0 0.935 0.02 0 0.94 0.02 0 0.945 0.02 0 0.95 0.02 0 0.955 0.02 0 0.96 0.02 0 0.965 0.02 0 0.97 0.02 0 0.975 0.02 0 0.98 0.02 0 0.985 0.02 0 0.99 0.02 0 0.995 0.02 0 1 0.02 0 0 0.04 0 0.005 0.04 0 0.01 0.04 0 0.015 0.04 0 0.02 0.04 0 0.025 0.04 0 0.03 0.04 0 0.035 0.04 0 0.04 0.04 0 0.045 0.04 0 0.05 0.04 0 0.055 0.04 0 0.06 0.04 0 0.065 0.04 0 0.07 0.04 0 0.075 0.04 0 0.08 0.04 0 0.085 0.04 0 0.09 0.04 0 0.095 0.04 0 0.1 0.04 0 0.105 0.04 0 0.11 0.04 0 0.115 0.04 0 0.12 0.04 0 0.125 0.04 0 0.13 0.04 0 0.135 0.04 0 0.14 0.04 0 0.145 0.04 0 0.15 0.04 0 0.155 0.04 0 0.16 0.04 0 0.165 0.04 0 0.17 0.04 0 0.175 0.04 0 0.18 0.04 0 0.185 0.04 0 0.19 0.04 0 0.195 0.04 0 0.2 0.04 0 0.205 0.04 0 0.21 0.04 0 0.215 0.04 0 0.22 0.04 0 0.225 0.04 0 0.23 0.04 0 0.235 0.04 0 0.24 0.04 0 0.245 0.04 0 0.25 0.04 0 0.255 0.04 0 0.26 0.04 0 0.265 0.04 0 0.27 0.04 0 0.275 0.04 0 0.28 0.04 0 0.285 0.04 0 0.29 0.04 0 0.295 0.04 0 0.3 0.04 0 0.305 0.04 0 0.31 0.04 0 0.315 0.04 0 0.32 0.04 0 0.325 0.04 0 0.33 0.04 0 0.335 0.04 0 0.34 0.04 0 0.345 0.04 0 0.35 0.04 0 0.355 0.04 0 0.36 0.04 0 0.365 0.04 0 0.37 0.04 0 0.375 0.04 0 0.38 0.04 0 0.385 0.04 0 0.39 0.04 0 0.395 0.04 0 0.4 0.04 0 0.405 0.04 0 0.41 0.04 0 0.415 0.04 0 0.42 0.04 0 0.425 0.04 0 0.43 0.04 0 0.435 0.04 0 0.44 0.04 0 0.445 0.04 0 0.45 0.04 0 0.455 0.04 0 0.46 0.04 0 0.465 0.04 0 0.47 0.04 0 0.475 0.04 0 0.48 0.04 0 0.485 0.04 0 0.49 0.04 0 0.495 0.04 0 0.5 0.04 0 0.505 0.04 0 0.51 0.04 0 0.515 0.04 0 0.52 0.04 0 0.525 0.04 0 0.53 0.04 0 0.535 0.04 0 0.54 0.04 0 0.545 0.04 0 0.55 0.04 0 0.555 0.04 0 0.56 0.04 0 0.565 0.04 0 0.57 0.04 0 0.575 0.04 0 0.58 0.04 0 0.585 0.04 0 0.59 0.04 0 0.595 0.04 0 0.6 0.04 0 0.605 0.04 0 0.61 0.04 0 0.615 0.04 0 0.62 0.04 0 0.625 0.04 0 0.63 0.04 0 0.635 0.04 0 0.64 0.04 0 0.645 0.04 0 0.65 0.04 0 0.655 0.04 0 0.66 0.04 0 0.665 0.04 0 0.67 0.04 0 0.675 0.04 0 0.68 0.04 0 0.685 0.04 0 0.69 0.04 0 0.695 0.04 0 0.7 0.04 0 0.705 0.04 0 0.71 0.04 0 0.715 0.04 0 0.72 0.04 0 0.725 0.04 0 0.73 0.04 0 0.735 0.04 0 0.74 0.04 0 0.745 0.04 0 0.75 0.04 0 0.755 0.04 0 0.76 0.04 0 0.765 0.04 0 0.77 0.04 0 0.775 0.04 0 0.78 0.04 0 0.785 0.04 0 0.79 0.04 0 0.795 0.04 0 0.8 0.04 0 0.805 0.04 0 0.81 0.04 0 0.815 0.04 0 0.82 0.04 0 0.825 0.04 0 0.83 0.04 0 0.835 0.04 0 0.84 0.04 0 0.845 0.04 0 0.85 0.04 0 0.855 0.04 0 0.86 0.04 0 0.865 0.04 0 0.87 0.04 0 0.875 0.04 0 0.88 0.04 0 0.885 0.04 0 0.89 0.04 0 0.895 0.04 0 0.9 0.04 0 0.905 0.04 0 0.91 0.04 0 0.915 0.04 0 0.92 0.04 0 0.925 0.04 0 0.93 0.04 0 0.935 0.04 0 0.94 0.04 0 0.945 0.04 0 0.95 0.04 0 0.955 0.04 0 0.96 0.04 0 0.965 0.04 0 0.97 0.04 0 0.975 0.04 0 0.98 0.04 0 0.985 0.04 0 0.99 0.04 0 0.995 0.04 0 1 0.04 0 0 0.06 0 0.005 0.06 0 0.01 0.06 0 0.015 0.06 0 0.02 0.06 0 0.025 0.06 0 0.03 0.06 0 0.035 0.06 0 0.04 0.06 0 0.045 0.06 0 0.05 0.06 0 0.055 0.06 0 0.06 0.06 0 0.065 0.06 0 0.07 0.06 0 0.075 0.06 0 0.08 0.06 0 0.085 0.06 0 0.09 0.06 0 0.095 0.06 0 0.1 0.06 0 0.105 0.06 0 0.11 0.06 0 0.115 0.06 0 0.12 0.06 0 0.125 0.06 0 0.13 0.06 0 0.135 0.06 0 0.14 0.06 0 0.145 0.06 0 0.15 0.06 0 0.155 0.06 0 0.16 0.06 0 0.165 0.06 0 0.17 0.06 0 0.175 0.06 0 0.18 0.06 0 0.185 0.06 0 0.19 0.06 0 0.195 0.06 0 0.2 0.06 0 0.205 0.06 0 0.21 0.06 0 0.215 0.06 0 0.22 0.06 0 0.225 0.06 0 0.23 0.06 0 0.235 0.06 0 0.24 0.06 0 0.245 0.06 0 0.25 0.06 0 0.255 0.06 0 0.26 0.06 0 0.265 0.06 0 0.27 0.06 0 0.275 0.06 0 0.28 0.06 0 0.285 0.06 0 0.29 0.06 0 0.295 0.06 0 0.3 0.06 0 0.305 0.06 0 0.31 0.06 0 0.315 0.06 0 0.32 0.06 0 0.325 0.06 0 0.33 0.06 0 0.335 0.06 0 0.34 0.06 0 0.345 0.06 0 0.35 0.06 0 0.355 0.06 0 0.36 0.06 0 0.365 0.06 0 0.37 0.06 0 0.375 0.06 0 0.38 0.06 0 0.385 0.06 0 0.39 0.06 0 0.395 0.06 0 0.4 0.06 0 0.405 0.06 0 0.41 0.06 0 0.415 0.06 0 0.42 0.06 0 0.425 0.06 0 0.43 0.06 0 0.435 0.06 0 0.44 0.06 0 0.445 0.06 0 0.45 0.06 0 0.455 0.06 0 0.46 0.06 0 0.465 0.06 0 0.47 0.06 0 0.475 0.06 0 0.48 0.06 0 0.485 0.06 0 0.49 0.06 0 0.495 0.06 0 0.5 0.06 0 0.505 0.06 0 0.51 0.06 0 0.515 0.06 0 0.52 0.06 0 0.525 0.06 0 0.53 0.06 0 0.535 0.06 0 0.54 0.06 0 0.545 0.06 0 0.55 0.06 0 0.555 0.06 0 0.56 0.06 0 0.565 0.06 0 0.57 0.06 0 0.575 0.06 0 0.58 0.06 0 0.585 0.06 0 0.59 0.06 0 0.595 0.06 0 0.6 0.06 0 0.605 0.06 0 0.61 0.06 0 0.615 0.06 0 0.62 0.06 0 0.625 0.06 0 0.63 0.06 0 0.635 0.06 0 0.64 0.06 0 0.645 0.06 0 0.65 0.06 0 0.655 0.06 0 0.66 0.06 0 0.665 0.06 0 0.67 0.06 0 0.675 0.06 0 0.68 0.06 0 0.685 0.06 0 0.69 0.06 0 0.695 0.06 0 0.7 0.06 0 0.705 0.06 0 0.71 0.06 0 0.715 0.06 0 0.72 0.06 0 0.725 0.06 0 0.73 0.06 0 0.735 0.06 0 0.74 0.06 0 0.745 0.06 0 0.75 0.06 0 0.755 0.06 0 0.76 0.06 0 0.765 0.06 0 0.77 0.06 0 0.775 0.06 0 0.78 0.06 0 0.785 0.06 0 0.79 0.06 0 0.795 0.06 0 0.8 0.06 0 0.805 0.06 0 0.81 0.06 0 0.815 0.06 0 0.82 0.06 0 0.825 0.06 0 0.83 0.06 0 0.835 0.06 0 0.84 0.06 0 0.845 0.06 0 0.85 0.06 0 0.855 0.06 0 0.86 0.06 0 0.865 0.06 0 0.87 0.06 0 0.875 0.06 0 0.88 0.06 0 0.885 0.06 0 0.89 0.06 0 0.895 0.06 0 0.9 0.06 0 0.905 0.06 0 0.91 0.06 0 0.915 0.06 0 0.92 0.06 0 0.925 0.06 0 0.93 0.06 0 0.935 0.06 0 0.94 0.06 0 0.945 0.06 0 0.95 0.06 0 0.955 0.06 0 0.96 0.06 0 0.965 0.06 0 0.97 0.06 0 0.975 0.06 0 0.98 0.06 0 0.985 0.06 0 0.99 0.06 0 0.995 0.06 0 1 0.06 0 0 0.08 0 0.005 0.08 0 0.01 0.08 0 0.015 0.08 0 0.02 0.08 0 0.025 0.08 0 0.03 0.08 0 0.035 0.08 0 0.04 0.08 0 0.045 0.08 0 0.05 0.08 0 0.055 0.08 0 0.06 0.08 0 0.065 0.08 0 0.07 0.08 0 0.075 0.08 0 0.08 0.08 0 0.085 0.08 0 0.09 0.08 0 0.095 0.08 0 0.1 0.08 0 0.105 0.08 0 0.11 0.08 0 0.115 0.08 0 0.12 0.08 0 0.125 0.08 0 0.13 0.08 0 0.135 0.08 0 0.14 0.08 0 0.145 0.08 0 0.15 0.08 0 0.155 0.08 0 0.16 0.08 0 0.165 0.08 0
[...]
			<PointData Scalars="VitesseX">
				<DataArray Name="VitesseX" type="Float32" format="ascii">
 0 -1.89682e-14 -2.78655e-15 -6.67911e-14 -3.89148e-14 2.27262e-15 2.69769e-14 -6.11868e-14 -5.01839e-14 -1.06999e-13 -4.72903e-14 4.7826e-14 -9.45979e-14 1.10834e-14 -1.26455e-13 -1.12698e-14 -2.4625e-14 -2.53672e-13 -4.80087e-14 2.28821e-14 -2.94962e-14 -8.0769e-14 -1.69536e-14 1.24296e-13 7.7545e-14 -3.26258e-14 -1.89061e-13 -5.99119e-14 9.39231e-14 1.84827e-14 9.40116e-14 -3.25468e-13 -8.31395e-14 -6.73674e-14 4.77347e-14 -1.67833e-13 -3.01954e-13 1.03283e-13 -8.62823e-14 2.4921e-13 -1.60982e-13 -1.68097e-13 9.18509e-14 1.1511e-13 -2.69716e-13 -8.67035e-14 -5.80881e-13 4.19118e-14 -7.85126e-14 2.87948e-13 -1.9056e-13 -5.95706e-13 2.68337e-13 -6.94298e-14 8.34515e-13 -1.72281e-13 -4.0617e-13 2.32418e-13 -3.32151e-13 1.18063e-13 -2.08506e-13 -3.17406e-13 -1.15098e-13 -5.78274e-15 -1.46944e-13 5.60416e-14 -9.4759e-14 5.70145e-13 -1.40044e-13 -2.76125e-13 1.12932e-13 -2.3568e-13 1.25268e-13 -6.13911e-13 -2.33861e-13 -5.69638e-13 4.51121e-13 -1.28207e-14 -4.79146e-13 4.09769e-12 5.5354e-11 8.82592e-10 1.24192e-08 1.53924e-07 1.66269e-06 1.54581e-05 0.000121775 0.000796617 0.00421299 0.0173946 0.0539257 0.122668 0.210786 0.299062 0.382886 0.462815 0.538719 0.610191 0.676454 0.736463 0.789006 0.832947 0.86755 0.892827 0.909751 0.919834 0.925569 0.927547 0.926142 0.920224 0.90653 0.880218 0.835306 0.766046 0.669156 0.546535 0.407628 0.269548 0.152638 0.0717427 0.0279507 0.00944259 0.00292662 0.000860581 0.000243282 6.63924e-05 1.75099e-05 4.46384e-06 1.10008e-06 2.62106e-07 6.03874e-08 1.34571e-08 2.90111e-09 6.0466e-10 1.22091e-10 2.42964e-11 4.92643e-12 3.53756e-13 -2.83917e-13 2.37603e-13 -9.6979e-14 -1.43549e-13 1.03771e-12 -4.88804e-13 -7.59534e-13 -4.00218e-13 6.93778e-13 1.59022e-13 -5.03232e-13 -4.22203e-13 1.37179e-12 2.94865e-13 4.01552e-13 -2.16526e-13 -5.1664e-13 3.1151e-13 3.37296e-13 -8.51202e-14 -1.06149e-12 -9.04462e-13 3.9566e-13 1.64911e-12 -6.4082e-13 -1.56883e-12 -5.04636e-13 7.33569e-13 6.82799e-13 -3.62589e-13 -1.53605e-13 3.60254e-13 -5.03428e-13 2.27602e-14 6.23718e-13 2.63076e-13 9.18413e-13 -9.4862e-13 -4.35401e-13 3.93156e-13 9.4521e-13 -2.90691e-13 -1.1999e-12 -7.59598e-13 -5.43266e-15 3.93323e-13 -2.42387e-13 -1.37608e-12 -8.75357e-14 1.12974e-12 8.32989e-13 3.34995e-13 -2.182e-12 9.2124e-14 2.03141e-12 -7.01812e-13 -1.77146e-12 -1.13331e-12 1.20586e-12 1.37533e-12 -1.83994e-12 -2.39377e-12 0 0 6.44041e-15 -3.11985e-14 1.382e-14 -1.81808e-14 -6.70487e-14 -7.46566e-14 -1.9931e-14 -1.91112e-14 2.84323e-14 -3.84918e-14 -9.70275e-14 1.12003e-14 -5.535e-14 -5.47999e-15 -8.86042e-14 -8.65597e-14 1.28137e-15 -1.42821e-13 -1.97843e-13 -9.43423e-14 2.9677e-14 1.13667e-13 -8.3417e-14 -4.09714e-16 -7.26374e-14 1.56678e-14 -2.71575e-14 -1.25211e-13 4.68984e-14 -7.11401e-14 9.41524e-14 -1.48935e-13 -9.36089e-14 -2.45263e-13 -5.30516e-14 8.79703e-14 2.24513e-14 -5.07867e-14 -2.17356e-13 1.5858e-14 -3.11326e-14 -1.7251e-13 -2.47264e-13 1.40994e-13 -1.93386e-13 1.54226e-13 -4.01332e-13 -2.61708e-13 -4.43977e-13 1.23366e-13 3.80528e-13 1.55641e-13 9.95559e-14 -3.52094e-13 1.83559e-13 2.26909e-13 -3.59098e-13 1.71531e-13 -2.69062e-13 -2.04349e-13 4.25519e-14 -3.22048e-13 -7.46787e-14 -2.52913e-14 1.00463e-13 7.57548e-14 -2.59465e-13 1.82272e-13 2.76657e-13 -1.74539e-13 -1.03472e-13 -4.86727e-13 7.05144e-14 -2.02139e-13 -9.35527e-14 -5.23043e-13 -1.65818e-13 5.92432e-13 3.26641e-12 5.62421e-11 8.82534e-10 1.24181e-08 1.53924e-07 1.66269e-06 1.54581e-05 0.000121775 0.000796617 0.00421299 0.0173946 0.0539257 0.122668 0.210786 0.299062 0.382886 0.462815 0.538719 0.610191 0.676454 0.736463 0.789006 0.832947 0.86755 0.892827 0.909751 0.919834 0.925569 0.927547 0.926142 0.920224 0.90653 0.880218 0.835306 0.766046 0.669156 0.546535 0.407628 0.269548 0.152638 0.0717427 0.0279507 0.00944259 0.00292662 0.000860581 0.000243282 6.63924e-05 1.75099e-05 4.46384e-06 1.10008e-06 2.62106e-07 6.03875e-08 1.34561e-08 2.9011e-09 6.05404e-10 1.22274e-10 2.3769e-11 4.11209e-12 8.32893e-13 2.43133e-13 -5.15572e-13 9.11629e-14 2.14659e-13 -4.21112e-13 2.89367e-13 5.27071e-13 -4.20365e-13 -4.7557e-13 -2.83527e-13 3.77549e-13 7.56193e-13 -2.24765e-13 1.74523e-13 2.65156e-13 4.27011e-13 1.91006e-13 -3.61132e-13 -9.42986e-13 9.42665e-14 2.27423e-13 3.50087e-13 -5.46126e-13 -1.4432e-12 5.22071e-13 7.33668e-13 -1.24502e-13 -6.16621e-13 -5.63518e-13 3.67538e-13 4.35805e-13 -4.36562e-13 6.00474e-13 1.74616e-13 -2.54395e-13 3.63249e-13 -7.58333e-13 1.17767e-12 3.3306e-13 4.52021e-14 -1.14418e-12 -3.6343e-13 4.09456e-13 1.05817e-13 -4.1315e-13 -1.23939e-12 -4.61525e-13 6.5288e-13 2.29393e-13 -3.27632e-13 -3.85755e-13 -5.94305e-13 1.02101e-12 -1.3269e-13 -1.39004e-12 4.99828e-13 7.96394e-13 -1.43763e-13 -1.16574e-12 -1.47651e-12 6.30929e-13 6.92885e-13 0 0 -8.36267e-15 1.07863e-14 -7.43758e-15 -3.98874e-14 -3.2838e-14 -3.79594e-14 -3.7064e-14 -1.92502e-14 -1.42135e-14 -1.1398e-14 4.31353e-15 -4.12591e-14 -6.69355e-14 -6.65607e-14 -2.35253e-14 -6.20104e-14 -8.87021e-14 -1.01122e-13 -1.38285e-13 -7.97357e-14 -2.14319e-14 -4.9533e-14 2.28519e-14 -1.3624e-13 -4.69925e-14 -7.71466e-14 -1.4009e-14 5.14577e-14 5.55808e-14 -1.35919e-13 5.0735e-15 -7.99211e-14 -8.51978e-14 -6.22294e-15 -1.11163e-13 -5.6041e-14 -1.74764e-13 -3.50633e-14 6.64523e-14 -1.46059e-14 -1.63453e-13 -1.609e-13 -1.7529e-13 -9.4838e-14 -5.97941e-14 -1.14826e-13 -5.3045e-14 -2.40157e-13 -9.79845e-14 2.06774e-13 2.41982e-13 1.22364e-13 -1.95249e-13 -3.37404e-13 5.7234e-14 1.82081e-13 2.99657e-13 -1.45063e-13 -6.28031e-13 -1.71602e-13 -1.49777e-13 1.21535e-13 -7.44263e-14 -5.62919e-14 -2.0323e-13 2.95859e-14 3.33136e-13 3.73987e-13 -1.9771e-13 -7.62883e-14 -2.6288e-14 -6.58892e-14 -1.65827e-13 -1.64402e-13 -2.89502e-13 -4.98757e-14 1.2383e-14 2.95661e-13 3.24264e-12 5.6182e-11 8.81898e-10 1.24181e-08 1.53924e-07 1.66269e-06 1.54581e-05 0.000121775 0.000796617 0.00421299 0.0173946 0.0539257 0.122668 0.210786 0.299062 0.382886 0.462815 0.538719 0.610191 0.676454 0.736463 0.789006 0.832947 0.86755 0.892827 0.909751 0.919834 0.925569 0.927547 0.926142 0.920224 0.90653 0.880218 0.835306 0.766046 0.669156 0.546535 0.407628 0.269548 0.152638 0.0717427 0.0279507 0.00944259 0.00292662 0.000860581 0.000243282 6.63924e-05 1.75099e-05 4.46384e-06 1.10008e-06 2.62106e-07 6.03872e-08 1.34566e-08 2.90079e-09 6.05096e-10 1.22262e-10 2.337e-11 4.47216e-12 6.18424e-13 -1.27802e-13 -1.2304e-13 -2.41581e-13 6.42027e-14 4.18521e-13 -4.72789e-13 2.50748e-13 7.01931e-13 -2.14482e-13 2.30406e-13 -2.93254e-13 -6.8447e-13 7.08442e-13 2.53337e-13 4.78868e-13 -2.34968e-13 -8.87827e-15 -2.54164e-13 -2.7821e-13 -5.87693e-13 -2.0755e-13 -3.1267e-13 -1.62444e-13 1.93535e-13 -8.82257e-14 -4.15161e-14 -5.85285e-13 -1.35478e-13 4.04291e-13 5.53061e-13 -2.33123e-13 1.03903e-14 -7.61178e-13 4.07976e-13 2.94324e-13 -5.38154e-14 7.15762e-13 -7.31828e-13 2.10661e-13 3.90346e-13 -2.74181e-13 -1.99414e-13 -3.56802e-13 -2.72171e-13 -2.19605e-13 -5.33503e-13 -2.33813e-13 -2.15401e-13 5.25183e-13 -4.30391e-13 -9.30843e-13 4.85412e-13 -3.6276e-13 3.33753e-13 6.53311e-14 -7.32493e-13 -5.25491e-15 2.50134e-13 -2.42389e-13 -3.57507e-13 -5.70149e-13 -2.05137e-13 0 0 -7.92813e-15 -1.60274e-14 -6.02889e-14 -4.9825e-14 2.39725e-15 3.71348e-14 9.64308e-15 -2.03098e-14 -2.28466e-14 -2.71597e-14 -2.13514e-15 -4.50758e-14 -9.10919e-14 -1.3289e-13 -2.57818e-14 -3.91061e-14 -2.06313e-13 2.902e-14 -1.3399e-14 -6.74178e-14 -1.42638e-13 -1.11363e-13 -1.19067e-14 -1.55228e-15 -1.16042e-13 -1.5176e-13 -6.30651e-14 1.00046e-13 4.94765e-14 2.87689e-14 -6.78865e-14 -4.01013e-14 4.11166e-14 -6.83547e-14 -3.3167e-14 -2.59211e-13 -4.44587e-14 -3.09753e-14 1.10095e-13 -1.70343e-13 -8.87185e-14 -1.54785e-13 -7.64426e-15 -2.61777e-13 -4.41758e-14 -3.50654e-13 2.02341e-14 4.00204e-14 2.91726e-13 -8.6023e-14 -3.03749e-13 1.94716e-13 8.63621e-14 -9.55267e-15 -1.96861e-13 -1.13418e-13 9.98215e-14 -2.91867e-13 -9.66397e-14 -3.51928e-13 -4.1786e-13 3.29346e-14 -9.05649e-14 -8.37724e-15 4.77849e-14 2.36551e-13 7.30069e-13 9.59972e-14 -1.80585e-13 -5.62239e-14 2.54747e-13 -9.74495e-14 -3.42879e-13 -2.00583e-13 -4.07629e-13 1.70145e-13 6.24665e-14 1.68373e-13 3.66989e-12 5.53584e-11 8.82221e-10 1.24186e-08 1.53924e-07 1.66269e-06 1.54581e-05 0.000121775 0.000796617 0.00421299 0.0173946 0.0539257 0.122668 0.210786 0.299062 0.382886 0.462815 0.538719 0.610191 0.676454 0.736463 0.789006 0.832947 0.86755 0.892827 0.909751 0.919834 0.925569 0.927547 0.926142 0.920224 0.90653 0.880218 0.835306 0.766046 0.669156 0.546535 0.407628 0.269548 0.152638 0.0717427 0.0279507 0.00944259 0.00292662 0.000860581 0.000243282 6.63924e-05 1.75099e-05 4.46384e-06 1.10008e-06 2.62106e-07 6.03874e-08 1.34569e-08 2.90079e-09 6.04745e-10 1.21782e-10 2.36783e-11 4.5265e-12 7.16515e-13 -8.85029e-14 -2.43948e-13 2.72283e-13 1.72749e-13 4.97816e-13 -2.08109e-13 -1.58441e-13 3.00712e-13 1.24189e-12 -1.03985e-13 -5.49193e-13 6.902e-14 3.03713e-13 -1.48483e-13 -1.80491e-13 -4.85891e-13 -6.73707e-13 2.8345e-13 3.98165e-13 -4.16988e-13 -1.02653e-12 -1.14061e-12 -6.052e-13 1.42251e-12 -2.40522e-13 -6.10467e-13 1.54973e-13 3.63795e-14 -3.42848e-13 -3.96169e-13 -3.01188e-13 8.7985e-14 -6.7443e-14 2.17071e-13 3.65199e-13 6.99725e-13 5.26077e-13 -8.87535e-13 -3.18267e-13 -1.52233e-14 1.17124e-12 6.32039e-13 -1.53525e-12 -3.95932e-13 -8.23116e-13 6.23318e-13 -6.94001e-13 -9.81529e-14 3.30533e-13 -4.05717e-13 3.37594e-13 2.19563e-13 -5.55446e-13 -8.35344e-14 1.1065e-12 -2.2087e-13 -5.98337e-13 -2.2888e-13 6.69747e-13 3.98024e-13 -1.30823e-12 -1.73706e-12 0 0 1.77073e-15 -5.19964e-14 -8.65658e-15 -1.25919e-15 -1.20224e-14 1.47117e-14 3.98416e-14 1.09662e-14 5.61379e-14 -4.34329e-14 -1.1239e-13 2.18971e-14 -1.26825e-13 -1.15714e-13 -1.27857e-13 -1.19706e-13 -9.33759e-15 -6.21743e-14 -1.66626e-13 -1.00199e-13 -5.88173e-14 4.26354e-14 -1.46874e-13 4.82129e-14 -1.40842e-13 3.16239e-14 -3.71429e-14 -1.18378e-13 7.69984e-15 8.73348e-14 1.12219e-13 -3.03044e-14 -6.61437e-14 -2.88036e-13 -1.0464e-13 5.13734e-14 1.40167e-13 -1.12289e-13 -2.01274e-13 -1.22598e-13 1.3202e-14 -1.92075e-13 -1.42962e-13 -1.59217e-13 -2.13382e-13 6.54948e-14 -4.23068e-13 -1.62999e-13 -1.64439e-13 9.04815e-14 1.20924e-13 -1.25706e-14 2.5004e-13 -4.30256e-13 7.90194e-14 1.73053e-13 -5.19659e-13 1.89277e-15 -6.03827e-14 -3.52742e-13 -1.7188e-13 -5.19829e-13 -1.92246e-14 2.24343e-13 2.82161e-13 4.95098e-13 1.53019e-13 7.71006e-14 4.32821e-13 -1.23693e-13 -2.14244e-13 -6.17518e-13 -1.17252e-13 3.38804e-14 3.29635e-14 -5.80163e-13 7.18322e-14 9.08299e-13 3.56454e-12 5.58491e-11 8.8255e-10 1.24183e-08 1.53924e-07 1.66269e-06 1.54581e-05 0.000121775 0.000796617 0.00421299 0.0173946 0.0539257 0.122668 0.210786 0.299062 0.382886 0.462815 0.538719 0.610191 0.676454 0.736463 0.789006 0.832947 0.86755 0.892827 0.909751 0.919834 0.925569 0.927547 0.926142 0.920224 0.90653 0.880218 0.835306 0.766046 0.669156 0.546535 0.407628 0.269548 0.152638 0.0717427 0.0279507 0.00944259 0.00292662 0.000860581 0.000243282 6.63924e-05 1.75099e-05 4.46384e-06 1.10008e-06 2.62106e-07 6.03874e-08 1.34562e-08 2.90091e-09 6.05133e-10 1.21719e-10 2.37583e-11 3.94094e-12 9.24355e-13 3.40448e-13 -3.96437e-13 5.614e-13 7.88226e-13 -2.15701e-13 5.73133e-13 4.36026e-13 -4.02009e-13 1.7398e-13 -1.85247e-13 6.1568e-13 1.42138e-12 -1.31784e-12 1.346e-13 -3.48139e-13 -3.14442e-14 -6.66717e-13 -4.19166e-13 -6.95627e-13 -2.54109e-13 -6.22472e-13 -5.78352e-13 -1.55351e-12 -1.12783e-12 1.36148e-12 1.36593e-12 3.71268e-13 -1.76959e-13 -1.65717e-12 -4.65247e-13 2.60478e-13 -3.5598e-13 1.01371e-12 -1.94841e-13 -5.46165e-13 1.5779e-13 -6.88933e-13 1.32101e-12 1.70843e-13 -4.58153e-14 -1.01533e-13 4.27484e-13 -4.13674e-13 -3.08386e-13 -1.09407e-12 -5.96229e-13 -6.18722e-13 1.13498e-12 -8.76306e-16 -1.64815e-13 5.96348e-13 -9.87017e-13 1.04518e-12 -5.18861e-13 -7.03404e-13 1.10031e-12 5.16237e-13 -1.13092e-13 -7.36531e-13 -1.5549e-12 -3.83954e-13 2.3325e-13 0 0 -2.91766e-14 9.24501e-15 -6.04163e-15 1.48038e-14 4.18547e-14 5.55253e-14 -3.50559e-14 1.20901e-14 -3.43211e-14 -2.5649e-14 2.99992e-14 -6.5571e-14 -8.35529e-14 -2.14264e-13 -8.52618e-14 -1.36726e-13 -3.96879e-14 -1.46999e-13 -1.64456e-13 -6.58461e-14 -1.53451e-14 -3.53561e-14 6.68986e-14 -9.45856e-14 -3.09367e-14 -7.92239e-15 1.82293e-14 1.04124e-14 -4.77059e-14 8.15846e-14 -1.43415e-13 7.44826e-14 -2.65066e-13 8.64516e-14 -4.27e-13 3.1192e-14 7.81031e-14 -2.17463e-13 1.94089e-13 -1.26421e-13 -2.28896e-13 4.04918e-14 -1.1577e-14 -5.36261e-13 -1.57932e-13 -2.86687e-13 -1.48118e-13 -4.41449e-13 6.76051e-14 3.29265e-13 -2.34527e-14 -2.12791e-13 -3.31684e-13 2.24888e-14 1.26831e-13 7.71137e-14 3.10967e-13 -3.77819e-13 -5.2736e-13 -1.4464e-13 -2.10104e-13 -3.33459e-13 1.37403e-13 2.56495e-13 -8.25928e-14 3.29998e-13 6.01248e-13 2.05592e-13 1.95175e-15 1.74494e-13 -1.01929e-12 -7.31921e-14 -6.35341e-13 3.1054e-13 -8.03521e-14 -1.03161e-13 3.62313e-13 4.07164e-13 3.83945e-12 5.62152e-11 8.81977e-10 1.24185e-08 1.53925e-07 1.66269e-06 1.54581e-05 0.000121775 0.000796617 0.00421299 0.0173946 0.0539257 0.122668 0.210786 0.299062 0.382886 0.462815 0.538719 0.610191 0.676454 0.736463 0.789006 0.832947 0.86755 0.892827 0.909751 0.919834 0.925569 0.927547 0.926142 0.920224 0.90653 0.880218 0.835306 0.766046 0.669156 0.546535 0.407628 0.269548 0.152638 0.0717427 0.0279507 0.00944259 0.00292662 0.000860581 0.000243282 6.63924e-05 1.75099e-05 4.46384e-06 1.10008e-06 2.62107e-07 6.03868e-08 1.34566e-08 2.90074e-09 6.0482e-10 1.21943e-10 2.36581e-11 4.47544e-12 3.40497e-13 -1.67885e-13 7.17689e-13 -1.84234e-13 7.86493e-13 1.28995e-12 -4.50634e-13 -1.23246e-13 4.38934e-13 -9.19871e-13 1.02436e-12 4.84908e-13 -5.98818e-13 -4.89915e-15 1.01866e-12 4.93681e-13 -6.31592e-13 -9.02428e-13 -8.79785e-13 -5.20735e-13 -1.12328e-12 -1.12333e-12 -1.10545e-12 -7.33592e-13 -1.781e-13 1.34259e-12 8.33585e-13 -9.93614e-13 1.26918e-12 -1.02204e-14 -1.29698e-13 -3.6813e-13 3.66228e-13 -1.06443e-12 -3.34343e-13 -1.01572e-13 -1.65492e-12 1.43658e-12 -3.50535e-13 2.98021e-13 1.02226e-12 1.39662e-13 -3.71767e-13 -4.89252e-13 -1.34048e-12 -1.60248e-13 -6.33997e-13 3.63595e-13 -6.46382e-13 -1.58775e-13 1.40603e-12 2.60324e-13 8.12695e-14 -1.7483e-12 1.54357e-13 1.32234e-12 -5.24089e-13 -1.14561e-12 -1.13945e-13 2.39999e-13 -2.92508e-13 -2.39355e-12 -2.4919e-13 0
				</DataArray>
				<DataArray Name="VitesseY" type="Float32" format="ascii">