<?xml version="1.0"?>
<VTKFile type="PolyData">
	<PolyData>
		<Piece NumberOfPoints="1206" NumberOfPolys="1000">
			<Points>
				<DataArray type="Float32" NumberOfComponents="3" format="ascii">
 0 0 0 0.005 0 0 0.01 0 0 0.015 0 0 0.02 0 0 0.025 0 0 0.03 0 0 0.035 0 0 0.04 0 0 0.045 0 0 0.05 0 0 0.055 0 0 0.06 0 0 0.065 0 0 0.07 0 0 0.075 0 0 0.08 0 0 0.085 0 0 0.09 0 0 0.095 0 0 0.1 0 0 0.105 0 0 0.11 0 0 0.115 0 0 0.12 0 0 0.125 0 0 0.13 0 0 0.135 0 0 0.14 0 0 0.145 0 0 0.15 0 0 0.155 0 0 0.16 0 0 0.165 0 0 0.17 0 0 0.175 0 0 0.18 0 0 0.185 0 0 0.19 0 0 0.195 0 0 0.2 0 0 0.205 0 0 0.21 0 0 0.215 0 0 0.22 0 0 0.225 0 0 0.23 0 0 0.235 0 0 0.24 0 0 0.245 0 0 0.25 0 0 0.255 0 0 0.26 0 0 0.265 0 0 0.27 0 0 0.275 0 0 0.28 0 0 0.285 0 0 0.29 0 0 0.295 0 0 0.3 0 0 0.305 0 0 0.31 0 0 0.315 0 0 0.32 0 0 0.325 0 0 0.33 0 0 0.335 0 0 0.34 0 0 0.345 0 0 0.35 0 0 0.355 0 0 0.36 0 0 0.365 0 0 0.37 0 0 0.375 0 0 0.38 0 0 0.385 0 0 0.39 0 0 0.395 0 0 0.4 0 0 0.405 0 0 0.41 0 0 0.415 0 0 0.42 0 0 0.425 0 0 0.43 0 0 0.435 0 0 0.44 0 0 0.445 0 0 0.45 0 0 0.455 0 0 0.46 0 0 0.465 0 0 0.47 0 0 0.475 0 0 0.48 0 0 0.485 0 0 0.49 0 0 0.495 0 0 0.5 0 0 0.505 0 0 0.51 0 0 0.515 0 0 0.52 0 0 0.525 0 0 0.53 0 0 0.535 0 0 0.54 0 0 0.545 0 0 0.55 0 0 0.555 0 0 0.56 0 0 0.565 0 0 0.57 0 0 0.575 0 0 0.58 0 0 0.585 0 0 0.59 0 0 0.595 0 0 0.6 0 0 0.605 0 0 0.61 0 0 0.615 0 0 0.62 0 0 0.625 0 0 0.63 0 0 0.635 0 0 0.64 0 0 0.645 0 0 0.65 0 0 0.655 0 0 0.66 0 0 0.665 0 0 0.67 0 0 0.675 0 0 0.68 0 0 0.685 0 0 0.69 0 0 0.695 0 0 0.7 0 0 0.705 0 0 0.71 0 0 0.715 0 0 0.72 0 0 0.725 0 0 0.73 0 0 0.735 0 0 0.74 0 0 0.745 0 0 0.75 0 0 0.755 0 0 0.76 0 0 0.765 0 0 0.77 0 0 0.775 0 0 0.78 0 0 0.785 0 0 0.79 0 0 0.795 0 0 0.8 0 0 0.805 0 0 0.81 0 0 0.815 0 0 0.82 0 0 0.825 0 0 0.83 0 0 0.835 0 0 0.84 0 0 0.845 0 0 0.85 0 0 0.855 0 0 0.86 0 0 0.865 0 0 0.87 0 0 0.875 0 0 0.88 0 0 0.885 0 0 0.89 0 0 0.895 0 0 0.9 0 0 0.905 0 0 0.91 0 0 0.915 0 0 0.92 0 0 0.925 0 0 0.93 0 0 0.935 0 0 0.94 0 0 0.945 0 0 0.95 0 0 0.955 0 0 0.96 0 0 0.965 0 0 0.97 0 0 0.975 0 0 0.98 0 0 0.985 0 0 0.99 0 0 0.995 0 0 1 0 0 0 0.02 0 0.005 0.02 0 0.01 0.02 0 0.015 0.02 0 0.02 0.02 0 0.025 0.02 0 0.03 0.02 0 0.035 0.02 0 0.04 0.02 0 0.045 0.02 0 0.05 0.02 0 0.055 0.02 0 0.06 0.02 0 0.065 0.02 0 0.07 0.02 0 0.075 0.02 0 0.08 0.02 0 0.085 0.02 0 0.09 0.02 0 0.095 0.02 0 0.1 0.02 0 0.105 0.02 0 0.11 0.02 0 0.115 0.02 0 0.12 0.02 0 0.125 0.02 0 0.13 0.02 0 0.135 0.02 0 0.14 0.02 0 0.145 0.02 0 0.15 0.02 0 0.155 0.02 0 0.16 0.02 0 0.165 0.02 0 0.17 0.02 0 0.175 0.02 0 0.18 0.02 0 0.185 0.02 0 0.19 0.02 0 0.195 0.02 0 0.2 0.02 0 0.205 0.02 0 0.21 0.02 0 0.215 0.02 0 0.22 0.02 0 0.225 0.02 0 0.23 0.02 0 0.235 0.02 0 0.24 0.02 0 0.245 0.02 0 0.25 0.02 0 0.255 0.02 0 0.26 0.02 0 0.265 0.02 0 0.27 0.02 0 0.275 0.02 0 0.28 0.02 0 0.285 0.02 0 0.29 0.02 0 0.295 0.02 0 0.3 0.02 0 0.305 0.02 0 0.31 0.02 0 0.315 0.02 0 0.32 0.02 0 0.325 0.02 0 0.33 0.02 0 0.335 0.02 0 0.34 0.02 0 0.345 0.02 0 0.35 0.02 0 0.355 0.02 0 0.36 0.02 0 0.365 0.02 0 0.37 0.02 0 0.375 0.02 0 0.38 0.02 0 0.385 0.02 0 0.39 0.02 0 0.395 0.02 0 0.4 0.02 0 0.405 0.02 0 0.41 0.02 0 0.415 0.02 0 0.42 0.02 0 0.425 0.02 0 0.43 0.02 0 0.435 0.02 0 0.44 0.02 0 0.445 0.02 0 0.45 0.02 0 0.455 0.02 0 0.46 0.02 0 0.465 0.02 0 0.47 0.02 0 0.475 0.02 0 0.48 0.02 0 0.485 0.02 0 0.49 0.02 0 0.495 0.02 0 0.5 0.02 0 0.505 0.02 0 0.51 0.02 0 0.515 0.02 0 0.52 0.02 0 0.525 0.02 0 0.53 0.02 0 0.535 0.02 0 0.54 0.02 0 0.545 0.02 0 0.55 0.02 0 0.555 0.02 0 0.56 0.02 0 0.565 0.02 0 0.57 0.02 0 0.575 0.02 0 0.58 0.02 0 0.585 0.02 0 0.59 0.02 0 0.595 0.02 0 0.6 0.02 0 0.605 0.02 0 0.61 0.02 0 0.615 0.02 0 0.62 0.02 0 0.625 0.02 0 0.63 0.02 0 0.635 0.02 0 0.64 0.02 0 0.645 0.02 0 0.65 0.02 0 0.655 0.02 0 0.66 0.02 0 0.665 0.02 0 0.67 0.02 0 0.675 0.02 0 0.68 0.02 0 0.685 0.02 0 0.69 0.02 0 0.695 0.02 0 0.7 0.02 0 0.705 0.02 0 0.71 0.02 0 0.715 0.02 0 0.72 0.02 0 0.725 0.02 0 0.73 0.02 0 0.735 0.02 0 0.74 0.02 0 0.745 0.02 0 0.75 0.02 0 0.755 0.02 0 0.76 0.02 0 0.765 0.02 0 0.77 0.02 0 0.775 0.02 0 0.78 0.02 0 0.785 0.02 0 0.79 0.02 0 0.795 0.02 0 0.8 0.02 0 0.805 0.02 0 0.81 0.02 0 0.815 0.02 0 0.82 0.02 0 0.825 0.02 0 0.83 0.02 0 0.835 0.02 0 0.84 0.02 0 0.845 0.02 0 0.85 0.02 0 0.855 0.02 0 0.86 0.02 0 0.865 0.02 0 0.87 0.02 0 0.875 0.02 0 0.88 0.02 0 0.885 0.02 0 0.89 0.02 0 0.895 0.02 0 0.9 0.02 0 0.905 0.02 0 0.91 0.02 0 0.915 0.02 0 0.92 0.02 0 0.925 0.02 0 0.93 0.02 0 0.935 0.02 0 0.94 0.02 0 0.945 0.02 0 0.95 0.02 0 0.955 0.02 0 0.96 0.02 0 0.965 0.02 0 0.97 0.02 0 0.975 0.02 0 0.98 0.02 0 0.985 0.02 0 0.99 0.02 0 0.995 0.02 0 1 0.02 0 0 0.04 0 0.005 0.04 0 0.01 0.04 0 0.015 0.04 0 0.02 0.04 0 0.025 0.04 0 0.03 0.04 0 0.035 0.04 0 0.04 0.04 0 0.045 0.04 0 0.05 0.04 0 0.055 0.04 0 0.06 0.04 0 0.065 0.04 0 0.07 0.04 0 0.075 0.04 0 0.08 0.04 0 0.085 0.04 0 0.09 0.04 0 0.095 0.04 0 0.1 0.04 0 0.105 0.04 0 0.11 0.04 0 0.115 0.04 0 0.12 0.04 0 0.125 0.04 0 0.13 0.04 0 0.135 0.04 0 0.14 0.04 0 0.145 0.04 0 0.15 0.04 0 0.155 0.04 0 0.16 0.04 0 0.165 0.04 0 0.17 0.04 0 0.175 0.04 0 0.18 0.04 0 0.185 0.04 0 0.19 0.04 0 0.195 0.04 0 0.2 0.04 0 0.205 0.04 0 0.21 0.04 0 0.215 0.04 0 0.22 0.04 0 0.225 0.04 0 0.23 0.04 0 0.235 0.04 0 0.24 0.04 0 0.245 0.04 0 0.25 0.04 0 0.255 0.04 0 0.26 0.04 0 0.265 0.04 0 0.27 0.04 0 0.275 0.04 0 0.28 0.04 0 0.285 0.04 0 0.29 0.04 0 0.295 0.04 0 0.3 0.04 0 0.305 0.04 0 0.31 0.04 0 0.315 0.04 0 0.32 0.04 0 0.325 0.04 0 0.33 0.04 0 0.335 0.04 0 0.34 0.04 0 0.345 0.04 0 0.35 0.04 0 0.355 0.04 0 0.36 0.04 0 0.365 0.04 0 0.37 0.04 0 0.375 0.04 0 0.38 0.04 0 0.385 0.04 0 0.39 0.04 0 0.395 0.04 0 0.4 0.04 0 0.405 0.04 0 0.41 0.04 0 0.415 0.04 0 0.42 0.04 0 0.425 0.04 0 0.43 0.04 0 0.435 0.04 0 0.44 0.04 0 0.445 0.04 0 0.45 0.04 0 0.455 0.04 0 0.46 0.04 0 0.465 0.04 0 0.47 0.04 0 0.475 0.04 0 0.48 0.04 0 0.485 0.04 0 0.49 0.04 0 0.495 0.04 0 0.5 0.04 0 0.505 0.04 0 0.51 0.04 0 0.515 0.04 0 0.52 0.04 0 0.525 0.04 0 0.53 0.04 0 0.535 0.04 0 0.54 0.04 0 0.545 0.04 0 0.55 0.04 0 0.555 0.04 0 0.56 0.04 0 0.565 0.04 0 0.57 0.04 0 0.575 0.04 0 0.58 0.04 0 0.585 0.04 0 0.59 0.04 0 0.595 0.04 0 0.6 0.04 0 0.605 0.04 0 0.61 0.04 0 0.615 0.04 0 0.62 0.04 0 0.625 0.04 0 0.63 0.04 0 0.635 0.04 0 0.64 0.04 0 0.645 0.04 0 0.65 0.04 0 0.655 0.04 0 0.66 0.04 0 0.665 0.04 0 0.67 0.04 0 0.675 0.04 0 0.68 0.04 0 0.685 0.04 0 0.69 0.04 0 0.695 0.04 0 0.7 0.04 0 0.705 0.04 0 0.71 0.04 0 0.715 0.04 0 0.72 0.04 0 0.725 0.04 0 0.73 0.04 0 0.735 0.04 0 0.74 0.04 0 0.745 0.04 0 0.75 0.04 0 0.755 0.04 0 0.76 0.04 0 0.765 0.04 0 0.77 0.04 0 0.775 0.04 0 0.78 0.04 0 0.785 0.04 0 0.79 0.04 0 0.795 0.04 0 0.8 0.04 0 0.805 0.04 0 0.81 0.04 0 0.815 0.04 0 0.82 0.04 0 0.825 0.04 0 0.83 0.04 0 0.835 0.04 0 0.84 0.04 0 0.845 0.04 0 0.85 0.04 0 0.855 0.04 0 0.86 0.04 0 0.865 0.04 0 0.87 0.04 0 0.875 0.04 0 0.88 0.04 0 0.885 0.04 0 0.89 0.04 0 0.895 0.04 0 0.9 0.04 0 0.905 0.04 0 0.91 0.04 0 0.915 0.04 0 0.92 0.04 0 0.925 0.04 0 0.93 0.04 0 0.935 0.04 0 0.94 0.04 0 0.945 0.04 0 0.95 0.04 0 0.955 0.04 0 0.96 0.04 0 0.965 0.04 0 0.97 0.04 0 0.975 0.04 0 0.98 0.04 0 0.985 0.04 0 0.99 0.04 0 0.995 0.04 0 1 0.04 0 0 0.06 0 0.005 0.06 0 0.01 0.06 0 0.015 0.06 0 0.02 0.06 0 0.025 0.06 0 0.03 0.06 0 0.035 0.06 0 0.04 0.06 0 0.045 0.06 0 0.05 0.06 0 0.055 0.06 0 0.06 0.06 0 0.065 0.06 0 0.07 0.06 0 0.075 0.06 0 0.08 0.06 0 0.085 0.06 0 0.09 0.06 0 0.095 0.06 0 0.1 0.06 0 0.105 0.06 0 0.11 0.06 0 0.115 0.06 0 0.12 0.06 0 0.125 0.06 0 0.13 0.06 0 0.135 0.06 0 0.14 0.06 0 0.145 0.06 0 0.15 0.06 0 0.155 0.06 0 0.16 0.06 0 0.165 0.06 0 0.17 0.06 0 0.175 0.06 0 0.18 0.06 0 0.185 0.06 0 0.19 0.06 0 0.195 0.06 0 0.2 0.06 0 0.205 0.06 0 0.21 0.06 0 0.215 0.06 0 0.22 0.06 0 0.225 0.06 0 0.23 0.06 0 0.235 0.06 0 0.24 0.06 0 0.245 0.06 0 0.25 0.06 0 0.255 0.06 0 0.26 0.06 0 0.265 0.06 0 0.27 0.06 0 0.275 0.06 0 0.28 0.06 0 0.285 0.06 0 0.29 0.06 0 0.295 0.06 0 0.3 0.06 0 0.305 0.06 0 0.31 0.06 0 0.315 0.06 0 0.32 0.06 0 0.325 0.06 0 0.33 0.06 0 0.335 0.06 0 0.34 0.06 0 0.345 0.06 0 0.35 0.06 0 0.355 0.06 0 0.36 0.06 0 0.365 0.06 0 0.37 0.06 0 0.375 0.06 0 0.38 0.06 0 0.385 0.06 0 0.39 0.06 0 0.395 0.06 0 0.4 0.06 0 0.405 0.06 0 0.41 0.06 0 0.415 0.06 0 0.42 0.06 0 0.425 0.06 0 0.43 0.06 0 0.435 0.06 0 0.44 0.06 0 0.445 0.06 0 0.45 0.06 0 0.455 0.06 0 0.46 0.06 0 0.465 0.06 0 0.47 0.06 0 0.475 0.06 0 0.48 0.06 0 0.485 0.06 0 0.49 0.06 0 0.495 0.06 0 0.5 0.06 0 0.505 0.06 0 0.51 0.06 0 0.515 0.06 0 0.52 0.06 0 0.525 0.06 0 0.53 0.06 0 0.535 0.06 0 0.54 0.06 0 0.545 0.06 0 0.55 0.06 0 0.555 0.06 0 0.56 0.06 0 0.565 0.06 0 0.57 0.06 0 0.575 0.06 0 0.58 0.06 0 0.585 0.06 0 0.59 0.06 0 0.595 0.06 0 0.6 0.06 0 0.605 0.06 0 0.61 0.06 0 0.615 0.06 0 0.62 0.06 0 0.625 0.06 0 0.63 0.06 0 0.635 0.06 0 0.64 0.06 0 0.645 0.06 0 0.65 0.06 0 0.655 0.06 0 0.66 0.06 0 0.665 0.06 0 0.67 0.06 0 0.675 0.06 0 0.68 0.06 0 0.685 0.06 0 0.69 0.06 0 0.695 0.06 0 0.7 0.06 0 0.705 0.06 0 0.71 0.06 0 0.715 0.06 0 0.72 0.06 0 0.725 0.06 0 0.73 0.06 0 0.735 0.06 0 0.74 0.06 0 0.745 0.06 0 0.75 0.06 0 0.755 0.06 0 0.76 0.06 0 0.765 0.06 0 0.77 0.06 0 0.775 0.06 0 0.78 0.06 0 0.785 0.06 0 0.79 0.06 0 0.795 0.06 0 0.8 0.06 0 0.805 0.06 0 0.81 0.06 0 0.815 0.06 0 0.82 0.06 0 0.825 0.06 0 0.83 0.06 0 0.835 0.06 0 0.84 0.06 0 0.845 0.06 0 0.85 0.06 0 0.855 0.06 0 0.86 0.06 0 0.865 0.06 0 0.87 0.06 0 0.875 0.06 0 0.88 0.06 0 0.885 0.06 0 0.89 0.06 0 0.895 0.06 0 0.9 0.06 0 0.905 0.06 0 0.91 0.06 0 0.915 0.06 0 0.92 0.06 0 0.925 0.06 0 0.93 0.06 0 0.935 0.06 0 0.94 0.06 0 0.945 0.06 0 0.95 0.06 0 0.955 0.06 0 0.96 0.06 0 0.965 0.06 0 0.97 0.06 0 0.975 0.06 0 0.98 0.06 0 0.985 0.06 0 0.99 0.06 0 0.995 0.06 0 1 0.06 0 0 0.08 0 0.005 0.08 0 0.01 0.08 0 0.015 0.08 0 0.02 0.08 0 0.025 0.08 0 0.03 0.08 0 0.035 0.08 0 0.04 0.08 0 0.045 0.08 0 0.05 0.08 0 0.055 0.08 0 0.06 0.08 0 0.065 0.08 0 0.07 0.08 0 0.075 0.08 0 0.08 0.08 0 0.085 0.08 0 0.09 0.08 0 0.095 0.08 0 0.1 0.08 0 0.105 0.08 0 0.11 0.08 0 0.115 0.08 0 0.12 0.08 0 0.125 0.08 0 0.13 0.08 0 0.135 0.08 0 0.14 0.08 0 0.145 0.08 0 0.15 0.08 0 0.155 0.08 0 0.16 0.08 0 0.165 0.08 0
[...]
			<PointData Scalars="VitesseX">
				<DataArray Name="VitesseX" type="Float32" format="ascii">
 0 -6.43611e-15 -1.9241e-14 -9.30897e-15 -1.18389e-14 -3.9657e-14 -1.63393e-14 -4.54743e-14 -2.75012e-14 -1.95831e-14 -9.17927e-14 -6.49313e-14 -4.55664e-14 -5.49197e-14 -1.00361e-13 3.07239e-14 -2.79883e-14 -5.13693e-14 5.44856e-15 -5.14084e-14 -3.84953e-14 3.50656e-14 -1.88361e-14 -3.14617e-14 -3.26772e-14 -1.79444e-13 -2.15389e-14 -1.02274e-13 -8.52753e-15 -7.53375e-14 2.57167e-14 -1.0448e-13 5.96446e-14 -5.44385e-14 -1.02494e-13 1.32241e-13 6.27137e-14 1.75047e-13 1.19131e-12 6.6778e-12 3.89861e-11 2.20495e-10 1.18504e-09 6.05455e-09 2.93348e-08 1.34454e-07 5.8152e-07 2.36634e-06 9.02933e-06 3.21815e-05 0.000106644 0.000326803 0.000920132 0.00236254 0.00548708 0.0114403 0.0213096 0.0354951 0.0533464 0.0735344 0.094825 0.116502 0.138276 0.160054 0.181804 0.20351 0.225166 0.246768 0.26831 0.289793 0.311212 0.332565 0.35385 0.375063 0.396201 0.417258 0.438231 0.459113 0.479897 0.500574 0.521135 0.54157 0.561864 0.582003 0.60197 0.621745 0.641305 0.660623 0.679668 0.698406 0.716796 0.734794 0.752349 0.769402 0.785892 0.801748 0.816898 0.831263 0.844764 0.857324 0.868872 0.879346 0.888701 0.896912 0.903979 0.909932 0.914826 0.918745 0.921794 0.92409 0.925758 0.926921 0.92769 0.928166 0.928431 0.928551 0.928573 0.928552 0.928505 0.928441 0.928366 0.928283 0.928198 0.928112 0.928027 0.927944 0.927865 0.92779 0.927718 0.927649 0.927584 0.927522 0.927462 0.927404 0.927348 0.927293 0.927239 0.927186 0.927134 0.927081 0.927029 0.926976 0.926923 0.926867 0.926809 0.926746 0.926674 0.926587 0.926474 0.926317 0.926083 0.92572 0.92514 0.9242 0.922667 0.92017 0.916124 0.909625 0.899316 0.883235 0.858703 0.822363 0.770513 0.69992 0.60919 0.500536 0.381255 0.263612 0.161873 0.0868434 0.0408051 0.0172971 0.00689528 0.00266756 0.00101825 0.000386257 0.000146008 5.50507e-05 2.07074e-05 7.77021e-06 2.90806e-06 1.08526e-06 4.03742e-07 1.49691e-07 5.52941e-08 2.03437e-08 7.45272e-09 2.71739e-09 9.85741e-10 3.55742e-10 1.27415e-10 4.5682e-11 1.5691e-11 5.30355e-12 2.18396e-12 5.40893e-13 -5.33819e-15 2.32228e-13 -2.17169e-14 1.19343e-13 0 0 -5.65374e-15 -6.33285e-15 -2.38657e-14 -2.38553e-14 -2.51374e-14 -4.74595e-14 -3.05409e-14 -5.39522e-14 -5.55911e-14 -4.69554e-14 -2.96204e-14 -4.48369e-14 -8.90916e-14 -1.12123e-14 -2.78231e-14 -2.97181e-14 -8.46072e-15 -3.05102e-14 -1.7782e-14 -2.9628e-14 -5.3946e-14 2.64324e-15 -7.04899e-14 -7.71158e-14 3.63731e-14 -1.62699e-13 -3.91975e-14 -1.63476e-13 6.19387e-14 -6.61063e-14 8.48986e-14 -5.18002e-14 -3.64224e-14 9.87449e-14 -1.79038e-13 7.16061e-14 3.33487e-13 1.10209e-12 6.61425e-12 3.91235e-11 2.20376e-10 1.18512e-09 6.05487e-09 2.93344e-08 1.34454e-07 5.8152e-07 2.36634e-06 9.02933e-06 3.21815e-05 0.000106644 0.000326803 0.000920132 0.00236254 0.00548708 0.0114403 0.0213096 0.0354951 0.0533464 0.0735344 0.094825 0.116502 0.138276 0.160054 0.181804 0.20351 0.225166 0.246768 0.26831 0.289793 0.311212 0.332565 0.35385 0.375063 0.396201 0.417258 0.438231 0.459113 0.479897 0.500574 0.521135 0.54157 0.561864 0.582003 0.60197 0.621745 0.641305 0.660623 0.679668 0.698406 0.716796 0.734794 0.752349 0.769402 0.785892 0.801748 0.816898 0.831263 0.844764 0.857324 0.868872 0.879346 0.888701 0.896912 0.903979 0.909932 0.914826 0.918745 0.921794 0.92409 0.925758 0.926921 0.92769 0.928166 0.928431 0.928551 0.928573 0.928552 0.928505 0.928441 0.928366 0.928283 0.928198 0.928112 0.928027 0.927944 0.927865 0.92779 0.927718 0.927649 0.927584 0.927522 0.927462 0.927404 0.927348 0.927293 0.927239 0.927186 0.927134 0.927081 0.927029 0.926976 0.926923 0.926867 0.926809 0.926746 0.926674 0.926587 0.926474 0.926317 0.926083 0.92572 0.92514 0.9242 0.922667 0.92017 0.916124 0.909625 0.899316 0.883235 0.858703 0.822363 0.770513 0.69992 0.60919 0.500536 0.381255 0.263612 0.161873 0.0868434 0.0408051 0.0172971 0.00689528 0.00266756 0.00101825 0.000386257 0.000146008 5.50507e-05 2.07074e-05 7.77021e-06 2.90806e-06 1.08526e-06 4.03742e-07 1.49691e-07 5.52945e-08 2.03437e-08 7.45254e-09 2.71749e-09 9.85929e-10 3.55561e-10 1.27389e-10 4.5191e-11 1.61549e-11 5.57946e-12 1.73663e-12 2.34795e-13 4.6186e-13 1.73917e-13 -2.76588e-13 -6.20215e-14 0 0 -9.87493e-15 -2.12547e-14 -2.78396e-14 -4.96698e-14 -2.29108e-14 -4.97465e-14 -6.42271e-14 -4.57975e-14 -6.79795e-14 -1.07751e-14 -5.78242e-14 -1.88407e-14 -2.01077e-14 -5.4772e-14 -6.09903e-14 1.86857e-14 -4.42037e-14 1.81566e-14 -3.47929e-14 -7.68386e-14 2.87994e-14 -8.94828e-14 -7.5068e-15 -8.63603e-14 -8.45462e-14 -5.74092e-14 -6.02622e-14 -1.14362e-13 1.45673e-14 3.11945e-14 -8.07738e-14 -2.10958e-15 2.74233e-14 -5.89494e-14 2.74841e-14 1.33004e-13 1.58982e-13 1.15895e-12 6.60547e-12 3.90846e-11 2.20541e-10 1.18517e-09 6.05488e-09 2.93344e-08 1.34454e-07 5.8152e-07 2.36634e-06 9.02933e-06 3.21815e-05 0.000106644 0.000326803 0.000920132 0.00236254 0.00548708 0.0114403 0.0213096 0.0354951 0.0533464 0.0735344 0.094825 0.116502 0.138276 0.160054 0.181804 0.20351 0.225166 0.246768 0.26831 0.289793 0.311212 0.332565 0.35385 0.375063 0.396201 0.417258 0.438231 0.459113 0.479897 0.500574 0.521135 0.54157 0.561864 0.582003 0.60197 0.621745 0.641305 0.660623 0.679668 0.698406 0.716796 0.734794 0.752349 0.769402 0.785892 0.801748 0.816898 0.831263 0.844764 0.857324 0.868872 0.879346 0.888701 0.896912 0.903979 0.909932 0.914826 0.918745 0.921794 0.92409 0.925758 0.926921 0.92769 0.928166 0.928431 0.928551 0.928573 0.928552 0.928505 0.928441 0.928366 0.928283 0.928198 0.928112 0.928027 0.927944 0.927865 0.92779 0.927718 0.927649 0.927584 0.927522 0.927462 0.927404 0.927348 0.927293 0.927239 0.927186 0.927134 0.927081 0.927029 0.926976 0.926923 0.926867 0.926809 0.926746 0.926674 0.926587 0.926474 0.926317 0.926083 0.92572 0.92514 0.9242 0.922667 0.92017 0.916124 0.909625 0.899316 0.883235 0.858703 0.822363 0.770513 0.69992 0.60919 0.500536 0.381255 0.263612 0.161873 0.0868434 0.0408051 0.0172971 0.00689528 0.00266756 0.00101825 0.000386257 0.000146008 5.50507e-05 2.07074e-05 7.77021e-06 2.90806e-06 1.08526e-06 4.03742e-07 1.49691e-07 5.52944e-08 2.03438e-08 7.4527e-09 2.7176e-09 9.85586e-10 3.55852e-10 1.27567e-10 4.48929e-11 1.58026e-11 5.64759e-12 1.75151e-12 3.97273e-13 -1.25673e-13 -2.42785e-13 6.47641e-13 2.4197e-13 0 0 -8.221e-15 -2.62624e-14 -1.26337e-14 -5.17077e-14 -6.12228e-14 -3.77528e-14 -6.06239e-14 -4.61545e-14 -5.54967e-14 -6.31452e-14 -7.27847e-15 -1.94751e-14 -1.39171e-14 -8.5982e-14 -4.7218e-15 -5.13997e-14 3.2495e-14 -4.00079e-14 -1.50929e-14 -2.04336e-14 -3.72771e-14 -6.82251e-14 -4.56939e-14 -3.42759e-14 -8.86943e-14 -3.17035e-14 -1.68619e-13 -6.21578e-14 -7.86048e-14 6.7348e-14 -4.38796e-14 -5.42326e-14 2.87544e-15 -1.14429e-13 1.89967e-13 1.13992e-13 2.01065e-13 1.23512e-12 6.75034e-12 3.89248e-11 2.20605e-10 1.18515e-09 6.0548e-09 2.93346e-08 1.34454e-07 5.8152e-07 2.36634e-06 9.02933e-06 3.21815e-05 0.000106644 0.000326803 0.000920132 0.00236254 0.00548708 0.0114403 0.0213096 0.0354951 0.0533464 0.0735344 0.094825 0.116502 0.138276 0.160054 0.181804 0.20351 0.225166 0.246768 0.26831 0.289793 0.311212 0.332565 0.35385 0.375063 0.396201 0.417258 0.438231 0.459113 0.479897 0.500574 0.521135 0.54157 0.561864 0.582003 0.60197 0.621745 0.641305 0.660623 0.679668 0.698406 0.716796 0.734794 0.752349 0.769402 0.785892 0.801748 0.816898 0.831263 0.844764 0.857324 0.868872 0.879346 0.888701 0.896912 0.903979 0.909932 0.914826 0.918745 0.921794 0.92409 0.925758 0.926921 0.92769 0.928166 0.928431 0.928551 0.928573 0.928552 0.928505 0.928441 0.928366 0.928283 0.928198 0.928112 0.928027 0.927944 0.927865 0.92779 0.927718 0.927649 0.927584 0.927522 0.927462 0.927404 0.927348 0.927293 0.927239 0.927186 0.927134 0.927081 0.927029 0.926976 0.926923 0.926867 0.926809 0.926746 0.926674 0.926587 0.926474 0.926317 0.926083 0.92572 0.92514 0.9242 0.922667 0.92017 0.916124 0.909625 0.899316 0.883235 0.858703 0.822363 0.770513 0.69992 0.60919 0.500536 0.381255 0.263612 0.161873 0.0868434 0.0408051 0.0172971 0.00689528 0.00266756 0.00101825 0.000386257 0.000146008 5.50507e-05 2.07074e-05 7.77021e-06 2.90806e-06 1.08526e-06 4.03742e-07 1.49691e-07 5.52945e-08 2.03435e-08 7.4529e-09 2.71745e-09 9.86026e-10 3.5576e-10 1.27378e-10 4.53289e-11 1.52308e-11 5.40692e-12 1.74066e-12 3.3097e-13 -1.30494e-13 3.16045e-14 2.59518e-13 1.85986e-13 0 0 -9.34126e-15 -3.82937e-15 -2.10978e-14 -1.80902e-14 -6.28031e-14 -3.8755e-14 -4.25568e-14 -7.96451e-14 -6.13513e-14 -6.18718e-14 1.59914e-14 -2.90126e-14 -3.86376e-14 -2.49367e-15 -3.15217e-14 -4.01801e-14 4.63477e-14 -4.23441e-14 -2.9654e-14 4.0754e-15 -1.29038e-13 -1.01473e-14 -1.39686e-13 -4.01005e-14 6.32463e-14 -1.77626e-13 -1.2611e-13 -1.36287e-13 -3.41967e-15 -5.93166e-14 1.3324e-13 -4.34605e-14 7.94403e-15 8.10238e-14 -5.388e-14 1.00958e-13 3.1785e-13 1.15417e-12 6.76985e-12 3.90281e-11 2.20439e-10 1.1852e-09 6.05491e-09 2.93345e-08 1.34454e-07 5.8152e-07 2.36634e-06 9.02933e-06 3.21815e-05 0.000106644 0.000326803 0.000920132 0.00236254 0.00548708 0.0114403 0.0213096 0.0354951 0.0533464 0.0735344 0.094825 0.116502 0.138276 0.160054 0.181804 0.20351 0.225166 0.246768 0.26831 0.289793 0.311212 0.332565 0.35385 0.375063 0.396201 0.417258 0.438231 0.459113 0.479897 0.500574 0.521135 0.54157 0.561864 0.582003 0.60197 0.621745 0.641305 0.660623 0.679668 0.698406 0.716796 0.734794 0.752349 0.769402 0.785892 0.801748 0.816898 0.831263 0.844764 0.857324 0.868872 0.879346 0.888701 0.896912 0.903979 0.909932 0.914826 0.918745 0.921794 0.92409 0.925758 0.926921 0.92769 0.928166 0.928431 0.928551 0.928573 0.928552 0.928505 0.928441 0.928366 0.928283 0.928198 0.928112 0.928027 0.927944 0.927865 0.92779 0.927718 0.927649 0.927584 0.927522 0.927462 0.927404 0.927348 0.927293 0.927239 0.927186 0.927134 0.927081 0.927029 0.926976 0.926923 0.926867 0.926809 0.926746 0.926674 0.926587 0.926474 0.926317 0.926083 0.92572 0.92514 0.9242 0.922667 0.92017 0.916124 0.909625 0.899316 0.883235 0.858703 0.822363 0.770513 0.69992 0.60919 0.500536 0.381255 0.263612 0.161873 0.0868434 0.0408051 0.0172971 0.00689528 0.00266756 0.00101825 0.000386257 0.000146008 5.50507e-05 2.07074e-05 7.77021e-06 2.90806e-06 1.08526e-06 4.03743e-07 1.49691e-07 5.52945e-08 2.03438e-08 7.45254e-09 2.71733e-09 9.86438e-10 3.5555e-10 1.274e-10 4.48914e-11 1.58644e-11 5.26144e-12 1.06839e-12 7.92309e-14 5.85194e-13 2.41654e-13 -3.34356e-13 -2.66572e-13 0 0 -1.7119e-14 -4.21853e-15 -3.41851e-14 3.76687e-15 -3.83643e-14 -2.29176e-14 -7.67124e-14 -7.81729e-14 -5.60691e-14 -1.68853e-14 -7.47992e-14 -1.26491e-14 3.36069e-14 -2.05042e-14 -8.92103e-14 9.12584e-14 -9.515e-14 9.81096e-14 -1.14553e-13 -8.38984e-14 1.70343e-14 -8.69326e-14 -9.34789e-14 -6.28154e-14 -1.17401e-13 -1.02804e-13 -5.93854e-14 -5.85575e-14 -1.971e-14 -3.3011e-14 -8.15858e-14 1.8057e-13 8.33901e-14 -2.69781e-14 5.75894e-14 1.59441e-13 5.96069e-14 1.14311e-12 6.69924e-12 3.91148e-11 2.20491e-10 1.18523e-09 6.05482e-09 2.93345e-08 1.34454e-07 5.8152e-07 2.36634e-06 9.02933e-06 3.21815e-05 0.000106644 0.000326803 0.000920132 0.00236254 0.00548708 0.0114403 0.0213096 0.0354951 0.0533464 0.0735344 0.094825 0.116502 0.138276 0.160054 0.181804 0.20351 0.225166 0.246768 0.26831 0.289793 0.311212 0.332565 0.35385 0.375063 0.396201 0.417258 0.438231 0.459113 0.479897 0.500574 0.521135 0.54157 0.561864 0.582003 0.60197 0.621745 0.641305 0.660623 0.679668 0.698406 0.716796 0.734794 0.752349 0.769402 0.785892 0.801748 0.816898 0.831263 0.844764 0.857324 0.868872 0.879346 0.888701 0.896912 0.903979 0.909932 0.914826 0.918745 0.921794 0.92409 0.925758 0.926921 0.92769 0.928166 0.928431 0.928551 0.928573 0.928552 0.928505 0.928441 0.928366 0.928283 0.928198 0.928112 0.928027 0.927944 0.927865 0.92779 0.927718 0.927649 0.927584 0.927522 0.927462 0.927404 0.927348 0.927293 0.927239 0.927186 0.927134 0.927081 0.927029 0.926976 0.926923 0.926867 0.926809 0.926746 0.926674 0.926587 0.926474 0.926317 0.926083 0.92572 0.92514 0.9242 0.922667 0.92017 0.916124 0.909625 0.899316 0.883235 0.858703 0.822363 0.770513 0.69992 0.60919 0.500536 0.381255 0.263612 0.161873 0.0868434 0.0408051 0.0172971 0.00689528 0.00266756 0.00101825 0.000386257 0.000146008 5.50507e-05 2.07074e-05 7.77021e-06 2.90806e-06 1.08526e-06 4.03742e-07 1.49692e-07 5.52938e-08 2.03443e-08 7.45231e-09 2.71735e-09 9.85879e-10 3.55905e-10 1.27816e-10 4.42107e-11 1.62535e-11 5.14885e-12 8.69189e-13 3.62372e-13 2.5097e-13 -1.81076e-13 6.38992e-13 -1.77789e-13 0
				</DataArray>
				<DataArray Name="VitesseY" type="Float32" format="ascii">