<?xml version="1.0"?>
<VTKFile type="PolyData">
	<PolyData>
		<Piece NumberOfPoints="1206" NumberOfPolys="1000">
			<Points>
				<DataArray type="Float32" NumberOfComponents="3" format="ascii">
 0 0 0 0.005 0 0 0.01 0 0 0.015 0 0 0.02 0 0 0.025 0 0 0.03 0 0 0.035 0 0 0.04 0 0 0.045 0 0 0.05 0 0 0.055 0 0 0.06 0 0 0.065 0 0 0.07 0 0 0.075 0 0 0.08 0 0 0.085 0 0 0.09 0 0 0.095 0 0 0.1 0 0 0.105 0 0 0.11 0 0 0.115 0 0 0.12 0 0 0.125 0 0 0.13 0 0 0.135 0 0 0.14 0 0 0.145 0 0 0.15 0 0 0.155 0 0 0.16 0 0 0.165 0 0 0.17 0 0 0.175 0 0 0.18 0 0 0.185 0 0 0.19 0 0 0.195 0 0 0.2 0 0 0.205 0 0 0.21 0 0 0.215 0 0 0.22 0 0 0.225 0 0 0.23 0 0 0.235 0 0 0.24 0 0 0.245 0 0 0.25 0 0 0.255 0 0 0.26 0 0 0.265 0 0 0.27 0 0 0.275 0 0 0.28 0 0 0.285 0 0 0.29 0 0 0.295 0 0 0.3 0 0 0.305 0 0 0.31 0 0 0.315 0 0 0.32 0 0 0.325 0 0 0.33 0 0 0.335 0 0 0.34 0 0 0.345 0 0 0.35 0 0 0.355 0 0 0.36 0 0 0.365 0 0 0.37 0 0 0.375 0 0 0.38 0 0 0.385 0 0 0.39 0 0 0.395 0 0 0.4 0 0 0.405 0 0 0.41 0 0 0.415 0 0 0.42 0 0 0.425 0 0 0.43 0 0 0.435 0 0 0.44 0 0 0.445 0 0 0.45 0 0 0.455 0 0 0.46 0 0 0.465 0 0 0.47 0 0 0.475 0 0 0.48 0 0 0.485 0 0 0.49 0 0 0.495 0 0 0.5 0 0 0.505 0 0 0.51 0 0 0.515 0 0 0.52 0 0 0.525 0 0 0.53 0 0 0.535 0 0 0.54 0 0 0.545 0 0 0.55 0 0 0.555 0 0 0.56 0 0 0.565 0 0 0.57 0 0 0.575 0 0 0.58 0 0 0.585 0 0 0.59 0 0 0.595 0 0 0.6 0 0 0.605 0 0 0.61 0 0 0.615 0 0 0.62 0 0 0.625 0 0 0.63 0 0 0.635 0 0 0.64 0 0 0.645 0 0 0.65 0 0 0.655 0 0 0.66 0 0 0.665 0 0 0.67 0 0 0.675 0 0 0.68 0 0 0.685 0 0 0.69 0 0 0.695 0 0 0.7 0 0 0.705 0 0 0.71 0 0 0.715 0 0 0.72 0 0 0.725 0 0 0.73 0 0 0.735 0 0 0.74 0 0 0.745 0 0 0.75 0 0 0.755 0 0 0.76 0 0 0.765 0 0 0.77 0 0 0.775 0 0 0.78 0 0 0.785 0 0 0.79 0 0 0.795 0 0 0.8 0 0 0.805 0 0 0.81 0 0 0.815 0 0 0.82 0 0 0.825 0 0 0.83 0 0 0.835 0 0 0.84 0 0 0.845 0 0 0.85 0 0 0.855 0 0 0.86 0 0 0.865 0 0 0.87 0 0 0.875 0 0 0.88 0 0 0.885 0 0 0.89 0 0 0.895 0 0 0.9 0 0 0.905 0 0 0.91 0 0 0.915 0 0 0.92 0 0 0.925 0 0 0.93 0 0 0.935 0 0 0.94 0 0 0.945 0 0 0.95 0 0 0.955 0 0 0.96 0 0 0.965 0 0 0.97 0 0 0.975 0 0 0.98 0 0 0.985 0 0 0.99 0 0 0.995 0 0 1 0 0 0 0.02 0 0.005 0.02 0 0.01 0.02 0 0.015 0.02 0 0.02 0.02 0 0.025 0.02 0 0.03 0.02 0 0.035 0.02 0 0.04 0.02 0 0.045 0.02 0 0.05 0.02 0 0.055 0.02 0 0.06 0.02 0 0.065 0.02 0 0.07 0.02 0 0.075 0.02 0 0.08 0.02 0 0.085 0.02 0 0.09 0.02 0 0.095 0.02 0 0.1 0.02 0 0.105 0.02 0 0.11 0.02 0 0.115 0.02 0 0.12 0.02 0 0.125 0.02 0 0.13 0.02 0 0.135 0.02 0 0.14 0.02 0 0.145 0.02 0 0.15 0.02 0 0.155 0.02 0 0.16 0.02 0 0.165 0.02 0 0.17 0.02 0 0.175 0.02 0 0.18 0.02 0 0.185 0.02 0 0.19 0.02 0 0.195 0.02 0 0.2 0.02 0 0.205 0.02 0 0.21 0.02 0 0.215 0.02 0 0.22 0.02 0 0.225 0.02 0 0.23 0.02 0 0.235 0.02 0 0.24 0.02 0 0.245 0.02 0 0.25 0.02 0 0.255 0.02 0 0.26 0.02 0 0.265 0.02 0 0.27 0.02 0 0.275 0.02 0 0.28 0.02 0 0.285 0.02 0 0.29 0.02 0 0.295 0.02 0 0.3 0.02 0 0.305 0.02 0 0.31 0.02 0 0.315 0.02 0 0.32 0.02 0 0.325 0.02 0 0.33 0.02 0 0.335 0.02 0 0.34 0.02 0 0.345 0.02 0 0.35 0.02 0 0.355 0.02 0 0.36 0.02 0 0.365 0.02 0 0.37 0.02 0 0.375 0.02 0 0.38 0.02 0 0.385 0.02 0 0.39 0.02 0 0.395 0.02 0 0.4 0.02 0 0.405 0.02 0 0.41 0.02 0 0.415 0.02 0 0.42 0.02 0 0.425 0.02 0 0.43 0.02 0 0.435 0.02 0 0.44 0.02 0 0.445 0.02 0 0.45 0.02 0 0.455 0.02 0 0.46 0.02 0 0.465 0.02 0 0.47 0.02 0 0.475 0.02 0 0.48 0.02 0 0.485 0.02 0 0.49 0.02 0 0.495 0.02 0 0.5 0.02 0 0.505 0.02 0 0.51 0.02 0 0.515 0.02 0 0.52 0.02 0 0.525 0.02 0 0.53 0.02 0 0.535 0.02 0 0.54 0.02 0 0.545 0.02 0 0.55 0.02 0 0.555 0.02 0 0.56 0.02 0 0.565 0.02 0 0.57 0.02 0 0.575 0.02 0 0.58 0.02 0 0.585 0.02 0 0.59 0.02 0 0.595 0.02 0 0.6 0.02 0 0.605 0.02 0 0.61 0.02 0 0.615 0.02 0 0.62 0.02 0 0.625 0.02 0 0.63 0.02 0 0.635 0.02 0 0.64 0.02 0 0.645 0.02 0 0.65 0.02 0 0.655 0.02 0 0.66 0.02 0 0.665 0.02 0 0.67 0.02 0 0.675 0.02 0 0.68 0.02 0 0.685 0.02 0 0.69 0.02 0 0.695 0.02 0 0.7 0.02 0 0.705 0.02 0 0.71 0.02 0 0.715 0.02 0 0.72 0.02 0 0.725 0.02 0 0.73 0.02 0 0.735 0.02 0 0.74 0.02 0 0.745 0.02 0 0.75 0.02 0 0.755 0.02 0 0.76 0.02 0 0.765 0.02 0 0.77 0.02 0 0.775 0.02 0 0.78 0.02 0 0.785 0.02 0 0.79 0.02 0 0.795 0.02 0 0.8 0.02 0 0.805 0.02 0 0.81 0.02 0 0.815 0.02 0 0.82 0.02 0 0.825 0.02 0 0.83 0.02 0 0.835 0.02 0 0.84 0.02 0 0.845 0.02 0 0.85 0.02 0 0.855 0.02 0 0.86 0.02 0 0.865 0.02 0 0.87 0.02 0 0.875 0.02 0 0.88 0.02 0 0.885 0.02 0 0.89 0.02 0 0.895 0.02 0 0.9 0.02 0 0.905 0.02 0 0.91 0.02 0 0.915 0.02 0 0.92 0.02 0 0.925 0.02 0 0.93 0.02 0 0.935 0.02 0 0.94 0.02 0 0.945 0.02 0 0.95 0.02 0 0.955 0.02 0 0.96 0.02 0 0.965 0.02 0 0.97 0.02 0 0.975 0.02 0 0.98 0.02 0 0.985 0.02 0 0.99 0.02 0 0.995 0.02 0 1 0.02 0 0 0.04 0 0.005 0.04 0 0.01 0.04 0 0.015 0.04 0 0.02 0.04 0 0.025 0.04 0 0.03 0.04 0 0.035 0.04 0 0.04 0.04 0 0.045 0.04 0 0.05 0.04 0 0.055 0.04 0 0.06 0.04 0 0.065 0.04 0 0.07 0.04 0 0.075 0.04 0 0.08 0.04 0 0.085 0.04 0 0.09 0.04 0 0.095 0.04 0 0.1 0.04 0 0.105 0.04 0 0.11 0.04 0 0.115 0.04 0 0.12 0.04 0 0.125 0.04 0 0.13 0.04 0 0.135 0.04 0 0.14 0.04 0 0.145 0.04 0 0.15 0.04 0 0.155 0.04 0 0.16 0.04 0 0.165 0.04 0 0.17 0.04 0 0.175 0.04 0 0.18 0.04 0 0.185 0.04 0 0.19 0.04 0 0.195 0.04 0 0.2 0.04 0 0.205 0.04 0 0.21 0.04 0 0.215 0.04 0 0.22 0.04 0 0.225 0.04 0 0.23 0.04 0 0.235 0.04 0 0.24 0.04 0 0.245 0.04 0 0.25 0.04 0 0.255 0.04 0 0.26 0.04 0 0.265 0.04 0 0.27 0.04 0 0.275 0.04 0 0.28 0.04 0 0.285 0.04 0 0.29 0.04 0 0.295 0.04 0 0.3 0.04 0 0.305 0.04 0 0.31 0.04 0 0.315 0.04 0 0.32 0.04 0 0.325 0.04 0 0.33 0.04 0 0.335 0.04 0 0.34 0.04 0 0.345 0.04 0 0.35 0.04 0 0.355 0.04 0 0.36 0.04 0 0.365 0.04 0 0.37 0.04 0 0.375 0.04 0 0.38 0.04 0 0.385 0.04 0 0.39 0.04 0 0.395 0.04 0 0.4 0.04 0 0.405 0.04 0 0.41 0.04 0 0.415 0.04 0 0.42 0.04 0 0.425 0.04 0 0.43 0.04 0 0.435 0.04 0 0.44 0.04 0 0.445 0.04 0 0.45 0.04 0 0.455 0.04 0 0.46 0.04 0 0.465 0.04 0 0.47 0.04 0 0.475 0.04 0 0.48 0.04 0 0.485 0.04 0 0.49 0.04 0 0.495 0.04 0 0.5 0.04 0 0.505 0.04 0 0.51 0.04 0 0.515 0.04 0 0.52 0.04 0 0.525 0.04 0 0.53 0.04 0 0.535 0.04 0 0.54 0.04 0 0.545 0.04 0 0.55 0.04 0 0.555 0.04 0 0.56 0.04 0 0.565 0.04 0 0.57 0.04 0 0.575 0.04 0 0.58 0.04 0 0.585 0.04 0 0.59 0.04 0 0.595 0.04 0 0.6 0.04 0 0.605 0.04 0 0.61 0.04 0 0.615 0.04 0 0.62 0.04 0 0.625 0.04 0 0.63 0.04 0 0.635 0.04 0 0.64 0.04 0 0.645 0.04 0 0.65 0.04 0 0.655 0.04 0 0.66 0.04 0 0.665 0.04 0 0.67 0.04 0 0.675 0.04 0 0.68 0.04 0 0.685 0.04 0 0.69 0.04 0 0.695 0.04 0 0.7 0.04 0 0.705 0.04 0 0.71 0.04 0 0.715 0.04 0 0.72 0.04 0 0.725 0.04 0 0.73 0.04 0 0.735 0.04 0 0.74 0.04 0 0.745 0.04 0 0.75 0.04 0 0.755 0.04 0 0.76 0.04 0 0.765 0.04 0 0.77 0.04 0 0.775 0.04 0 0.78 0.04 0 0.785 0.04 0 0.79 0.04 0 0.795 0.04 0 0.8 0.04 0 0.805 0.04 0 0.81 0.04 0 0.815 0.04 0 0.82 0.04 0 0.825 0.04 0 0.83 0.04 0 0.835 0.04 0 0.84 0.04 0 0.845 0.04 0 0.85 0.04 0 0.855 0.04 0 0.86 0.04 0 0.865 0.04 0 0.87 0.04 0 0.875 0.04 0 0.88 0.04 0 0.885 0.04 0 0.89 0.04 0 0.895 0.04 0 0.9 0.04 0 0.905 0.04 0 0.91 0.04 0 0.915 0.04 0 0.92 0.04 0 0.925 0.04 0 0.93 0.04 0 0.935 0.04 0 0.94 0.04 0 0.945 0.04 0 0.95 0.04 0 0.955 0.04 0 0.96 0.04 0 0.965 0.04 0 0.97 0.04 0 0.975 0.04 0 0.98 0.04 0 0.985 0.04 0 0.99 0.04 0 0.995 0.04 0 1 0.04 0 0 0.06 0 0.005 0.06 0 0.01 0.06 0 0.015 0.06 0 0.02 0.06 0 0.025 0.06 0 0.03 0.06 0 0.035 0.06 0 0.04 0.06 0 0.045 0.06 0 0.05 0.06 0 0.055 0.06 0 0.06 0.06 0 0.065 0.06 0 0.07 0.06 0 0.075 0.06 0 0.08 0.06 0 0.085 0.06 0 0.09 0.06 0 0.095 0.06 0 0.1 0.06 0 0.105 0.06 0 0.11 0.06 0 0.115 0.06 0 0.12 0.06 0 0.125 0.06 0 0.13 0.06 0 0.135 0.06 0 0.14 0.06 0 0.145 0.06 0 0.15 0.06 0 0.155 0.06 0 0.16 0.06 0 0.165 0.06 0 0.17 0.06 0 0.175 0.06 0 0.18 0.06 0 0.185 0.06 0 0.19 0.06 0 0.195 0.06 0 0.2 0.06 0 0.205 0.06 0 0.21 0.06 0 0.215 0.06 0 0.22 0.06 0 0.225 0.06 0 0.23 0.06 0 0.235 0.06 0 0.24 0.06 0 0.245 0.06 0 0.25 0.06 0 0.255 0.06 0 0.26 0.06 0 0.265 0.06 0 0.27 0.06 0 0.275 0.06 0 0.28 0.06 0 0.285 0.06 0 0.29 0.06 0 0.295 0.06 0 0.3 0.06 0 0.305 0.06 0 0.31 0.06 0 0.315 0.06 0 0.32 0.06 0 0.325 0.06 0 0.33 0.06 0 0.335 0.06 0 0.34 0.06 0 0.345 0.06 0 0.35 0.06 0 0.355 0.06 0 0.36 0.06 0 0.365 0.06 0 0.37 0.06 0 0.375 0.06 0 0.38 0.06 0 0.385 0.06 0 0.39 0.06 0 0.395 0.06 0 0.4 0.06 0 0.405 0.06 0 0.41 0.06 0 0.415 0.06 0 0.42 0.06 0 0.425 0.06 0 0.43 0.06 0 0.435 0.06 0 0.44 0.06 0 0.445 0.06 0 0.45 0.06 0 0.455 0.06 0 0.46 0.06 0 0.465 0.06 0 0.47 0.06 0 0.475 0.06 0 0.48 0.06 0 0.485 0.06 0 0.49 0.06 0 0.495 0.06 0 0.5 0.06 0 0.505 0.06 0 0.51 0.06 0 0.515 0.06 0 0.52 0.06 0 0.525 0.06 0 0.53 0.06 0 0.535 0.06 0 0.54 0.06 0 0.545 0.06 0 0.55 0.06 0 0.555 0.06 0 0.56 0.06 0 0.565 0.06 0 0.57 0.06 0 0.575 0.06 0 0.58 0.06 0 0.585 0.06 0 0.59 0.06 0 0.595 0.06 0 0.6 0.06 0 0.605 0.06 0 0.61 0.06 0 0.615 0.06 0 0.62 0.06 0 0.625 0.06 0 0.63 0.06 0 0.635 0.06 0 0.64 0.06 0 0.645 0.06 0 0.65 0.06 0 0.655 0.06 0 0.66 0.06 0 0.665 0.06 0 0.67 0.06 0 0.675 0.06 0 0.68 0.06 0 0.685 0.06 0 0.69 0.06 0 0.695 0.06 0 0.7 0.06 0 0.705 0.06 0 0.71 0.06 0 0.715 0.06 0 0.72 0.06 0 0.725 0.06 0 0.73 0.06 0 0.735 0.06 0 0.74 0.06 0 0.745 0.06 0 0.75 0.06 0 0.755 0.06 0 0.76 0.06 0 0.765 0.06 0 0.77 0.06 0 0.775 0.06 0 0.78 0.06 0 0.785 0.06 0 0.79 0.06 0 0.795 0.06 0 0.8 0.06 0 0.805 0.06 0 0.81 0.06 0 0.815 0.06 0 0.82 0.06 0 0.825 0.06 0 0.83 0.06 0 0.835 0.06 0 0.84 0.06 0 0.845 0.06 0 0.85 0.06 0 0.855 0.06 0 0.86 0.06 0 0.865 0.06 0 0.87 0.06 0 0.875 0.06 0 0.88 0.06 0 0.885 0.06 0 0.89 0.06 0 0.895 0.06 0 0.9 0.06 0 0.905 0.06 0 0.91 0.06 0 0.915 0.06 0 0.92 0.06 0 0.925 0.06 0 0.93 0.06 0 0.935 0.06 0 0.94 0.06 0 0.945 0.06 0 0.95 0.06 0 0.955 0.06 0 0.96 0.06 0 0.965 0.06 0 0.97 0.06 0 0.975 0.06 0 0.98 0.06 0 0.985 0.06 0 0.99 0.06 0 0.995 0.06 0 1 0.06 0 0 0.08 0 0.005 0.08 0 0.01 0.08 0 0.015 0.08 0 0.02 0.08 0 0.025 0.08 0 0.03 0.08 0 0.035 0.08 0 0.04 0.08 0 0.045 0.08 0 0.05 0.08 0 0.055 0.08 0 0.06 0.08 0 0.065 0.08 0 0.07 0.08 0 0.075 0.08 0 0.08 0.08 0 0.085 0.08 0 0.09 0.08 0 0.095 0.08 0 0.1 0.08 0 0.105 0.08 0 0.11 0.08 0 0.115 0.08 0 0.12 0.08 0 0.125 0.08 0 0.13 0.08 0 0.135 0.08 0 0.14 0.08 0 0.145 0.08 0 0.15 0.08 0 0.155 0.08 0 0.16 0.08 0 0.165 0.08 0
[...]
			<PointData Scalars="VitesseX">
				<DataArray Name="VitesseX" type="Float32" format="ascii">
 0 -9.38571e-15 -1.87335e-14 -1.32574e-14 -5.19983e-14 -3.29891e-14 -3.90315e-14 -5.40848e-14 -1.59887e-14 -9.55415e-14 -2.76874e-14 -6.67005e-14 -7.45946e-14 3.57155e-14 -5.01724e-14 -3.08741e-14 2.21922e-14 -3.53127e-14 -1.8305e-15 -1.12372e-15 -3.8876e-14 1.37852e-14 -1.61142e-13 -2.12746e-14 -8.90107e-14 -1.07063e-13 9.89218e-15 -1.42047e-13 3.60968e-14 -3.87387e-14 4.11653e-14 -6.39734e-14 5.32127e-14 6.16403e-14 6.37212e-16 9.30304e-13 3.89834e-12 2.21877e-11 1.23617e-10 6.55819e-10 3.31464e-09 1.59303e-08 7.26213e-08 3.13297e-07 1.27572e-06 4.88834e-06 1.75658e-05 5.89557e-05 0.000183936 0.000530446 0.00140468 0.00339026 0.00740099 0.0145216 0.0255463 0.0404536 0.0583356 0.0779405 0.0982985 0.118909 0.139584 0.160257 0.180907 0.20152 0.22209 0.242614 0.263089 0.283512 0.303881 0.324194 0.34445 0.364645 0.384777 0.404842 0.424836 0.444754 0.464592 0.484343 0.504 0.523554 0.542997 0.562316 0.5815 0.600533 0.619398 0.638077 0.656547 0.674782 0.692754 0.710428 0.727768 0.744731 0.761269 0.77733 0.792854 0.80778 0.822038 0.835559 0.848273 0.860108 0.871002 0.880901 0.889763 0.897566 0.904311 0.910023 0.914751 0.918568 0.921567 0.923853 0.925537 0.926732 0.927541 0.928057 0.928358 0.928509 0.928558 0.928549 0.928514 0.92846 0.928394 0.92832 0.928241 0.92816 0.92808 0.928002 0.927927 0.927855 0.927786 0.927721 0.927659 0.927599 0.927543 0.927489 0.927436 0.927386 0.927337 0.927288 0.927241 0.927194 0.927147 0.927101 0.927055 0.927008 0.926961 0.926912 0.926862 0.92681 0.926753 0.926689 0.926613 0.926515 0.926382 0.926189 0.925893 0.925426 0.924676 0.92346 0.921486 0.91829 0.91315 0.904963 0.892102 0.872276 0.84247 0.799103 0.738576 0.658344 0.558527 0.443648 0.323539 0.211954 0.122214 0.0614595 0.0273821 0.0112316 0.00440793 0.00169524 0.000646169 0.000245235 9.28302e-05 3.50672e-05 1.32207e-05 4.97398e-06 1.86711e-06 6.99129e-07 2.61072e-07 9.72007e-08 3.60718e-08 1.33394e-08 4.91426e-09 1.80282e-09 6.58504e-10 2.38958e-10 8.68869e-11 3.0968e-11 1.09183e-11 3.55751e-12 1.95465e-12 -2.83302e-13 0 0 -5.95498e-15 -1.3092e-14 -2.72276e-14 -2.25786e-14 -5.55247e-14 -4.19057e-14 -3.52464e-14 -7.5848e-14 4.35477e-15 -9.02146e-14 -3.05129e-14 -5.9862e-15 -8.64747e-14 5.0058e-15 1.38588e-14 -3.09944e-14 9.25265e-15 -5.85936e-14 1.05968e-15 -3.19982e-14 -8.81821e-14 3.34666e-14 -1.16735e-13 -3.56527e-14 -2.96773e-14 -1.71089e-13 -1.56535e-14 -6.91631e-14 3.67727e-14 -5.87799e-14 7.24238e-14 -3.91929e-14 5.33609e-14 2.70782e-13 5.96851e-13 3.96898e-12 2.22584e-11 1.23617e-10 6.55699e-10 3.31485e-09 1.59304e-08 7.26211e-08 3.13297e-07 1.27572e-06 4.88834e-06 1.75658e-05 5.89557e-05 0.000183936 0.000530446 0.00140468 0.00339026 0.00740099 0.0145216 0.0255463 0.0404536 0.0583356 0.0779405 0.0982985 0.118909 0.139584 0.160257 0.180907 0.20152 0.22209 0.242614 0.263089 0.283512 0.303881 0.324194 0.34445 0.364645 0.384777 0.404842 0.424836 0.444754 0.464592 0.484343 0.504 0.523554 0.542997 0.562316 0.5815 0.600533 0.619398 0.638077 0.656547 0.674782 0.692754 0.710428 0.727768 0.744731 0.761269 0.77733 0.792854 0.80778 0.822038 0.835559 0.848273 0.860108 0.871002 0.880901 0.889763 0.897566 0.904311 0.910023 0.914751 0.918568 0.921567 0.923853 0.925537 0.926732 0.927541 0.928057 0.928358 0.928509 0.928558 0.928549 0.928514 0.92846 0.928394 0.92832 0.928241 0.92816 0.92808 0.928002 0.927927 0.927855 0.927786 0.927721 0.927659 0.927599 0.927543 0.927489 0.927436 0.927386 0.927337 0.927288 0.927241 0.927194 0.927147 0.927101 0.927055 0.927008 0.926961 0.926912 0.926862 0.92681 0.926753 0.926689 0.926613 0.926515 0.926382 0.926189 0.925893 0.925426 0.924676 0.92346 0.921486 0.91829 0.91315 0.904963 0.892102 0.872276 0.84247 0.799103 0.738576 0.658344 0.558527 0.443648 0.323539 0.211954 0.122214 0.0614595 0.0273821 0.0112316 0.00440793 0.00169524 0.000646169 0.000245235 9.28302e-05 3.50672e-05 1.32207e-05 4.97398e-06 1.86711e-06 6.99129e-07 2.61073e-07 9.72006e-08 3.60717e-08 1.33393e-08 4.91416e-09 1.80275e-09 6.58357e-10 2.39436e-10 8.63903e-11 3.10782e-11 1.09059e-11 3.86761e-12 8.27541e-13 9.22823e-13 0 0 -9.74012e-15 -2.35896e-14 -2.41529e-14 -4.10437e-14 -3.33449e-14 -4.28885e-14 -4.99791e-14 -4.42313e-14 -2.25833e-14 -4.59785e-14 -3.05614e-14 -5.48098e-14 -2.84254e-14 -2.97128e-14 -2.13472e-14 1.62165e-14 -3.09902e-14 4.30999e-15 -9.13345e-14 -2.64854e-14 -5.23685e-14 -8.3893e-14 -2.57514e-14 -2.97593e-14 -7.84332e-14 -1.32243e-15 -1.00857e-13 -2.46754e-15 -6.38807e-14 9.75514e-15 3.56084e-14 4.09975e-14 2.18755e-14 2.40878e-13 7.41822e-13 3.81655e-12 2.23657e-11 1.23484e-10 6.55787e-10 3.31487e-09 1.59304e-08 7.26213e-08 3.13296e-07 1.27572e-06 4.88834e-06 1.75658e-05 5.89557e-05 0.000183936 0.000530446 0.00140468 0.00339026 0.00740099 0.0145216 0.0255463 0.0404536 0.0583356 0.0779405 0.0982985 0.118909 0.139584 0.160257 0.180907 0.20152 0.22209 0.242614 0.263089 0.283512 0.303881 0.324194 0.34445 0.364645 0.384777 0.404842 0.424836 0.444754 0.464592 0.484343 0.504 0.523554 0.542997 0.562316 0.5815 0.600533 0.619398 0.638077 0.656547 0.674782 0.692754 0.710428 0.727768 0.744731 0.761269 0.77733 0.792854 0.80778 0.822038 0.835559 0.848273 0.860108 0.871002 0.880901 0.889763 0.897566 0.904311 0.910023 0.914751 0.918568 0.921567 0.923853 0.925537 0.926732 0.927541 0.928057 0.928358 0.928509 0.928558 0.928549 0.928514 0.92846 0.928394 0.92832 0.928241 0.92816 0.92808 0.928002 0.927927 0.927855 0.927786 0.927721 0.927659 0.927599 0.927543 0.927489 0.927436 0.927386 0.927337 0.927288 0.927241 0.927194 0.927147 0.927101 0.927055 0.927008 0.926961 0.926912 0.926862 0.92681 0.926753 0.926689 0.926613 0.926515 0.926382 0.926189 0.925893 0.925426 0.924676 0.92346 0.921486 0.91829 0.91315 0.904963 0.892102 0.872276 0.84247 0.799103 0.738576 0.658344 0.558527 0.443648 0.323539 0.211954 0.122214 0.0614595 0.0273821 0.0112316 0.00440793 0.00169524 0.000646169 0.000245235 9.28302e-05 3.50672e-05 1.32207e-05 4.97398e-06 1.86711e-06 6.9913e-07 2.61072e-07 9.72007e-08 3.6072e-08 1.33394e-08 4.91376e-09 1.80281e-09 6.5851e-10 2.39423e-10 8.62495e-11 3.09461e-11 1.09574e-11 3.66969e-12 9.05408e-13 7.28925e-13 0 0 -1.01755e-14 -2.5418e-14 -2.53833e-14 -4.16582e-14 -4.7752e-14 -3.94297e-14 -4.49166e-14 -2.5207e-14 -4.04954e-14 -1.11087e-14 -3.95174e-14 -3.57473e-14 -2.84906e-14 -6.61846e-14 -3.27943e-14 -3.62876e-14 -3.24486e-14 -7.41289e-15 5.24261e-15 -1.44873e-13 3.64974e-14 -3.66395e-14 -5.07589e-14 -9.2842e-14 -3.24318e-14 -4.36529e-14 9.83763e-15 -1.49846e-13 7.59387e-14 -7.96691e-15 -5.18018e-15 6.10614e-14 1.92801e-14 1.59447e-13 7.51926e-13 3.99539e-12 2.23412e-11 1.23587e-10 6.55793e-10 3.31491e-09 1.59303e-08 7.26213e-08 3.13297e-07 1.27572e-06 4.88833e-06 1.75658e-05 5.89557e-05 0.000183936 0.000530446 0.00140468 0.00339026 0.00740099 0.0145216 0.0255463 0.0404536 0.0583356 0.0779405 0.0982985 0.118909 0.139584 0.160257 0.180907 0.20152 0.22209 0.242614 0.263089 0.283512 0.303881 0.324194 0.34445 0.364645 0.384777 0.404842 0.424836 0.444754 0.464592 0.484343 0.504 0.523554 0.542997 0.562316 0.5815 0.600533 0.619398 0.638077 0.656547 0.674782 0.692754 0.710428 0.727768 0.744731 0.761269 0.77733 0.792854 0.80778 0.822038 0.835559 0.848273 0.860108 0.871002 0.880901 0.889763 0.897566 0.904311 0.910023 0.914751 0.918568 0.921567 0.923853 0.925537 0.926732 0.927541 0.928057 0.928358 0.928509 0.928558 0.928549 0.928514 0.92846 0.928394 0.92832 0.928241 0.92816 0.92808 0.928002 0.927927 0.927855 0.927786 0.927721 0.927659 0.927599 0.927543 0.927489 0.927436 0.927386 0.927337 0.927288 0.927241 0.927194 0.927147 0.927101 0.927055 0.927008 0.926961 0.926912 0.926862 0.92681 0.926753 0.926689 0.926613 0.926515 0.926382 0.926189 0.925893 0.925426 0.924676 0.92346 0.921486 0.91829 0.91315 0.904963 0.892102 0.872276 0.84247 0.799103 0.738576 0.658344 0.558527 0.443648 0.323539 0.211954 0.122214 0.0614595 0.0273821 0.0112316 0.00440793 0.00169524 0.000646169 0.000245235 9.28302e-05 3.50672e-05 1.32207e-05 4.97398e-06 1.86711e-06 6.9913e-07 2.61072e-07 9.72013e-08 3.60713e-08 1.33394e-08 4.91421e-09 1.80256e-09 6.58821e-10 2.39103e-10 8.65518e-11 3.0909e-11 1.08472e-11 3.81255e-12 4.62983e-13 -4.80955e-13 0 0 -8.90118e-15 -1.11159e-14 -3.61865e-14 -1.14417e-14 -6.17053e-14 -3.55122e-14 -5.44292e-14 -3.95234e-14 -8.14856e-15 -5.06292e-14 -1.08709e-14 2.64111e-14 -8.87161e-14 -1.88778e-15 -8.07236e-15 -6.65512e-14 -3.05452e-14 -4.69627e-14 3.52285e-14 -1.2328e-13 -5.67828e-14 7.78795e-14 -8.3758e-14 -7.24119e-14 -2.41384e-14 -1.85574e-13 6.96118e-14 -1.34987e-13 1.06345e-13 -5.59208e-14 7.84833e-14 -1.04218e-14 9.51161e-14 2.66638e-13 5.47351e-13 4.07897e-12 2.23747e-11 1.23672e-10 6.55748e-10 3.31503e-09 1.59303e-08 7.26211e-08 3.13297e-07 1.27572e-06 4.88833e-06 1.75658e-05 5.89557e-05 0.000183936 0.000530446 0.00140468 0.00339026 0.00740099 0.0145216 0.0255463 0.0404536 0.0583356 0.0779405 0.0982985 0.118909 0.139584 0.160257 0.180907 0.20152 0.22209 0.242614 0.263089 0.283512 0.303881 0.324194 0.34445 0.364645 0.384777 0.404842 0.424836 0.444754 0.464592 0.484343 0.504 0.523554 0.542997 0.562316 0.5815 0.600533 0.619398 0.638077 0.656547 0.674782 0.692754 0.710428 0.727768 0.744731 0.761269 0.77733 0.792854 0.80778 0.822038 0.835559 0.848273 0.860108 0.871002 0.880901 0.889763 0.897566 0.904311 0.910023 0.914751 0.918568 0.921567 0.923853 0.925537 0.926732 0.927541 0.928057 0.928358 0.928509 0.928558 0.928549 0.928514 0.92846 0.928394 0.92832 0.928241 0.92816 0.92808 0.928002 0.927927 0.927855 0.927786 0.927721 0.927659 0.927599 0.927543 0.927489 0.927436 0.927386 0.927337 0.927288 0.927241 0.927194 0.927147 0.927101 0.927055 0.927008 0.926961 0.926912 0.926862 0.92681 0.926753 0.926689 0.926613 0.926515 0.926382 0.926189 0.925893 0.925426 0.924676 0.92346 0.921486 0.91829 0.91315 0.904963 0.892102 0.872276 0.84247 0.799103 0.738576 0.658344 0.558527 0.443648 0.323539 0.211954 0.122214 0.0614595 0.0273821 0.0112316 0.00440793 0.00169524 0.000646169 0.000245235 9.28302e-05 3.50672e-05 1.32207e-05 4.97398e-06 1.86711e-06 6.99129e-07 2.61073e-07 9.72009e-08 3.60716e-08 1.33394e-08 4.91421e-09 1.80271e-09 6.58389e-10 2.39367e-10 8.63096e-11 3.09541e-11 1.06191e-11 3.99399e-12 -1.21549e-13 3.66436e-14 0 0 -1.44074e-14 -1.11244e-14 -2.87144e-14 -2.84954e-14 -1.6536e-14 -3.3162e-14 -1.02575e-13 1.86117e-14 -8.47239e-14 -1.82565e-14 -9.50441e-15 -4.7925e-14 3.13632e-14 8.98394e-15 -5.18422e-14 5.60866e-14 -1.11992e-13 4.4877e-14 -1.2594e-13 1.53356e-14 -1.01148e-13 -1.66823e-13 9.46947e-14 -3.63638e-14 -1.87988e-13 6.55821e-14 -1.92906e-13 1.99206e-13 -1.79232e-13 8.23276e-14 2.97229e-14 7.06272e-14 1.50341e-13 1.5521e-13 8.11097e-13 3.76065e-12 2.24694e-11 1.2352e-10 6.55903e-10 3.31493e-09 1.59304e-08 7.26213e-08 3.13296e-07 1.27572e-06 4.88833e-06 1.75658e-05 5.89557e-05 0.000183936 0.000530446 0.00140468 0.00339026 0.00740099 0.0145216 0.0255463 0.0404536 0.0583356 0.0779405 0.0982985 0.118909 0.139584 0.160257 0.180907 0.20152 0.22209 0.242614 0.263089 0.283512 0.303881 0.324194 0.34445 0.364645 0.384777 0.404842 0.424836 0.444754 0.464592 0.484343 0.504 0.523554 0.542997 0.562316 0.5815 0.600533 0.619398 0.638077 0.656547 0.674782 0.692754 0.710428 0.727768 0.744731 0.761269 0.77733 0.792854 0.80778 0.822038 0.835559 0.848273 0.860108 0.871002 0.880901 0.889763 0.897566 0.904311 0.910023 0.914751 0.918568 0.921567 0.923853 0.925537 0.926732 0.927541 0.928057 0.928358 0.928509 0.928558 0.928549 0.928514 0.92846 0.928394 0.92832 0.928241 0.92816 0.92808 0.928002 0.927927 0.927855 0.927786 0.927721 0.927659 0.927599 0.927543 0.927489 0.927436 0.927386 0.927337 0.927288 0.927241 0.927194 0.927147 0.927101 0.927055 0.927008 0.926961 0.926912 0.926862 0.92681 0.926753 0.926689 0.926613 0.926515 0.926382 0.926189 0.925893 0.925426 0.924676 0.92346 0.921486 0.91829 0.91315 0.904963 0.892102 0.872276 0.84247 0.799103 0.738576 0.658344 0.558527 0.443648 0.323539 0.211954 0.122214 0.0614595 0.0273821 0.0112316 0.00440793 0.00169524 0.000646169 0.000245235 9.28302e-05 3.50672e-05 1.32207e-05 4.97398e-06 1.86711e-06 6.9913e-07 2.61072e-07 9.71999e-08 3.60729e-08 1.33394e-08 4.91345e-09 1.80324e-09 6.57947e-10 2.39458e-10 8.61207e-11 3.0794e-11 1.05652e-11 3.52457e-12 9.41323e-13 3.64099e-13 0
				</DataArray>
				<DataArray Name="VitesseY" type="Float32" format="ascii">