<?xml version="1.0"?>
<VTKFile type="PolyData">
	<PolyData>
		<Piece NumberOfPoints="1206" NumberOfPolys="1000">
			<Points>
				<DataArray type="Float32" NumberOfComponents="3" format="ascii">
 0 0 0 0.005 0 0 0.01 0 0 0.015 0 0 0.02 0 0 0.025 0 0 0.03 0 0 0.035 0 0 0.04 0 0 0.045 0 0 0.05 0 0 0.055 0 0 0.06 0 0 0.065 0 0 0.07 0 0 0.075 0 0 0.08 0 0 0.085 0 0 0.09 0 0 0.095 0 0 0.1 0 0 0.105 0 0 0.11 0 0 0.115 0 0 0.12 0 0 0.125 0 0 0.13 0 0 0.135 0 0 0.14 0 0 0.145 0 0 0.15 0 0 0.155 0 0 0.16 0 0 0.165 0 0 0.17 0 0 0.175 0 0 0.18 0 0 0.185 0 0 0.19 0 0 0.195 0 0 0.2 0 0 0.205 0 0 0.21 0 0 0.215 0 0 0.22 0 0 0.225 0 0 0.23 0 0 0.235 0 0 0.24 0 0 0.245 0 0 0.25 0 0 0.255 0 0 0.26 0 0 0.265 0 0 0.27 0 0 0.275 0 0 0.28 0 0 0.285 0 0 0.29 0 0 0.295 0 0 0.3 0 0 0.305 0 0 0.31 0 0 0.315 0 0 0.32 0 0 0.325 0 0 0.33 0 0 0.335 0 0 0.34 0 0 0.345 0 0 0.35 0 0 0.355 0 0 0.36 0 0 0.365 0 0 0.37 0 0 0.375 0 0 0.38 0 0 0.385 0 0 0.39 0 0 0.395 0 0 0.4 0 0 0.405 0 0 0.41 0 0 0.415 0 0 0.42 0 0 0.425 0 0 0.43 0 0 0.435 0 0 0.44 0 0 0.445 0 0 0.45 0 0 0.455 0 0 0.46 0 0 0.465 0 0 0.47 0 0 0.475 0 0 0.48 0 0 0.485 0 0 0.49 0 0 0.495 0 0 0.5 0 0 0.505 0 0 0.51 0 0 0.515 0 0 0.52 0 0 0.525 0 0 0.53 0 0 0.535 0 0 0.54 0 0 0.545 0 0 0.55 0 0 0.555 0 0 0.56 0 0 0.565 0 0 0.57 0 0 0.575 0 0 0.58 0 0 0.585 0 0 0.59 0 0 0.595 0 0 0.6 0 0 0.605 0 0 0.61 0 0 0.615 0 0 0.62 0 0 0.625 0 0 0.63 0 0 0.635 0 0 0.64 0 0 0.645 0 0 0.65 0 0 0.655 0 0 0.66 0 0 0.665 0 0 0.67 0 0 0.675 0 0 0.68 0 0 0.685 0 0 0.69 0 0 0.695 0 0 0.7 0 0 0.705 0 0 0.71 0 0 0.715 0 0 0.72 0 0 0.725 0 0 0.73 0 0 0.735 0 0 0.74 0 0 0.745 0 0 0.75 0 0 0.755 0 0 0.76 0 0 0.765 0 0 0.77 0 0 0.775 0 0 0.78 0 0 0.785 0 0 0.79 0 0 0.795 0 0 0.8 0 0 0.805 0 0 0.81 0 0 0.815 0 0 0.82 0 0 0.825 0 0 0.83 0 0 0.835 0 0 0.84 0 0 0.845 0 0 0.85 0 0 0.855 0 0 0.86 0 0 0.865 0 0 0.87 0 0 0.875 0 0 0.88 0 0 0.885 0 0 0.89 0 0 0.895 0 0 0.9 0 0 0.905 0 0 0.91 0 0 0.915 0 0 0.92 0 0 0.925 0 0 0.93 0 0 0.935 0 0 0.94 0 0 0.945 0 0 0.95 0 0 0.955 0 0 0.96 0 0 0.965 0 0 0.97 0 0 0.975 0 0 0.98 0 0 0.985 0 0 0.99 0 0 0.995 0 0 1 0 0 0 0.02 0 0.005 0.02 0 0.01 0.02 0 0.015 0.02 0 0.02 0.02 0 0.025 0.02 0 0.03 0.02 0 0.035 0.02 0 0.04 0.02 0 0.045 0.02 0 0.05 0.02 0 0.055 0.02 0 0.06 0.02 0 0.065 0.02 0 0.07 0.02 0 0.075 0.02 0 0.08 0.02 0 0.085 0.02 0 0.09 0.02 0 0.095 0.02 0 0.1 0.02 0 0.105 0.02 0 0.11 0.02 0 0.115 0.02 0 0.12 0.02 0 0.125 0.02 0 0.13 0.02 0 0.135 0.02 0 0.14 0.02 0 0.145 0.02 0 0.15 0.02 0 0.155 0.02 0 0.16 0.02 0 0.165 0.02 0 0.17 0.02 0 0.175 0.02 0 0.18 0.02 0 0.185 0.02 0 0.19 0.02 0 0.195 0.02 0 0.2 0.02 0 0.205 0.02 0 0.21 0.02 0 0.215 0.02 0 0.22 0.02 0 0.225 0.02 0 0.23 0.02 0 0.235 0.02 0 0.24 0.02 0 0.245 0.02 0 0.25 0.02 0 0.255 0.02 0 0.26 0.02 0 0.265 0.02 0 0.27 0.02 0 0.275 0.02 0 0.28 0.02 0 0.285 0.02 0 0.29 0.02 0 0.295 0.02 0 0.3 0.02 0 0.305 0.02 0 0.31 0.02 0 0.315 0.02 0 0.32 0.02 0 0.325 0.02 0 0.33 0.02 0 0.335 0.02 0 0.34 0.02 0 0.345 0.02 0 0.35 0.02 0 0.355 0.02 0 0.36 0.02 0 0.365 0.02 0 0.37 0.02 0 0.375 0.02 0 0.38 0.02 0 0.385 0.02 0 0.39 0.02 0 0.395 0.02 0 0.4 0.02 0 0.405 0.02 0 0.41 0.02 0 0.415 0.02 0 0.42 0.02 0 0.425 0.02 0 0.43 0.02 0 0.435 0.02 0 0.44 0.02 0 0.445 0.02 0 0.45 0.02 0 0.455 0.02 0 0.46 0.02 0 0.465 0.02 0 0.47 0.02 0 0.475 0.02 0 0.48 0.02 0 0.485 0.02 0 0.49 0.02 0 0.495 0.02 0 0.5 0.02 0 0.505 0.02 0 0.51 0.02 0 0.515 0.02 0 0.52 0.02 0 0.525 0.02 0 0.53 0.02 0 0.535 0.02 0 0.54 0.02 0 0.545 0.02 0 0.55 0.02 0 0.555 0.02 0 0.56 0.02 0 0.565 0.02 0 0.57 0.02 0 0.575 0.02 0 0.58 0.02 0 0.585 0.02 0 0.59 0.02 0 0.595 0.02 0 0.6 0.02 0 0.605 0.02 0 0.61 0.02 0 0.615 0.02 0 0.62 0.02 0 0.625 0.02 0 0.63 0.02 0 0.635 0.02 0 0.64 0.02 0 0.645 0.02 0 0.65 0.02 0 0.655 0.02 0 0.66 0.02 0 0.665 0.02 0 0.67 0.02 0 0.675 0.02 0 0.68 0.02 0 0.685 0.02 0 0.69 0.02 0 0.695 0.02 0 0.7 0.02 0 0.705 0.02 0 0.71 0.02 0 0.715 0.02 0 0.72 0.02 0 0.725 0.02 0 0.73 0.02 0 0.735 0.02 0 0.74 0.02 0 0.745 0.02 0 0.75 0.02 0 0.755 0.02 0 0.76 0.02 0 0.765 0.02 0 0.77 0.02 0 0.775 0.02 0 0.78 0.02 0 0.785 0.02 0 0.79 0.02 0 0.795 0.02 0 0.8 0.02 0 0.805 0.02 0 0.81 0.02 0 0.815 0.02 0 0.82 0.02 0 0.825 0.02 0 0.83 0.02 0 0.835 0.02 0 0.84 0.02 0 0.845 0.02 0 0.85 0.02 0 0.855 0.02 0 0.86 0.02 0 0.865 0.02 0 0.87 0.02 0 0.875 0.02 0 0.88 0.02 0 0.885 0.02 0 0.89 0.02 0 0.895 0.02 0 0.9 0.02 0 0.905 0.02 0 0.91 0.02 0 0.915 0.02 0 0.92 0.02 0 0.925 0.02 0 0.93 0.02 0 0.935 0.02 0 0.94 0.02 0 0.945 0.02 0 0.95 0.02 0 0.955 0.02 0 0.96 0.02 0 0.965 0.02 0 0.97 0.02 0 0.975 0.02 0 0.98 0.02 0 0.985 0.02 0 0.99 0.02 0 0.995 0.02 0 1 0.02 0 0 0.04 0 0.005 0.04 0 0.01 0.04 0 0.015 0.04 0 0.02 0.04 0 0.025 0.04 0 0.03 0.04 0 0.035 0.04 0 0.04 0.04 0 0.045 0.04 0 0.05 0.04 0 0.055 0.04 0 0.06 0.04 0 0.065 0.04 0 0.07 0.04 0 0.075 0.04 0 0.08 0.04 0 0.085 0.04 0 0.09 0.04 0 0.095 0.04 0 0.1 0.04 0 0.105 0.04 0 0.11 0.04 0 0.115 0.04 0 0.12 0.04 0 0.125 0.04 0 0.13 0.04 0 0.135 0.04 0 0.14 0.04 0 0.145 0.04 0 0.15 0.04 0 0.155 0.04 0 0.16 0.04 0 0.165 0.04 0 0.17 0.04 0 0.175 0.04 0 0.18 0.04 0 0.185 0.04 0 0.19 0.04 0 0.195 0.04 0 0.2 0.04 0 0.205 0.04 0 0.21 0.04 0 0.215 0.04 0 0.22 0.04 0 0.225 0.04 0 0.23 0.04 0 0.235 0.04 0 0.24 0.04 0 0.245 0.04 0 0.25 0.04 0 0.255 0.04 0 0.26 0.04 0 0.265 0.04 0 0.27 0.04 0 0.275 0.04 0 0.28 0.04 0 0.285 0.04 0 0.29 0.04 0 0.295 0.04 0 0.3 0.04 0 0.305 0.04 0 0.31 0.04 0 0.315 0.04 0 0.32 0.04 0 0.325 0.04 0 0.33 0.04 0 0.335 0.04 0 0.34 0.04 0 0.345 0.04 0 0.35 0.04 0 0.355 0.04 0 0.36 0.04 0 0.365 0.04 0 0.37 0.04 0 0.375 0.04 0 0.38 0.04 0 0.385 0.04 0 0.39 0.04 0 0.395 0.04 0 0.4 0.04 0 0.405 0.04 0 0.41 0.04 0 0.415 0.04 0 0.42 0.04 0 0.425 0.04 0 0.43 0.04 0 0.435 0.04 0 0.44 0.04 0 0.445 0.04 0 0.45 0.04 0 0.455 0.04 0 0.46 0.04 0 0.465 0.04 0 0.47 0.04 0 0.475 0.04 0 0.48 0.04 0 0.485 0.04 0 0.49 0.04 0 0.495 0.04 0 0.5 0.04 0 0.505 0.04 0 0.51 0.04 0 0.515 0.04 0 0.52 0.04 0 0.525 0.04 0 0.53 0.04 0 0.535 0.04 0 0.54 0.04 0 0.545 0.04 0 0.55 0.04 0 0.555 0.04 0 0.56 0.04 0 0.565 0.04 0 0.57 0.04 0 0.575 0.04 0 0.58 0.04 0 0.585 0.04 0 0.59 0.04 0 0.595 0.04 0 0.6 0.04 0 0.605 0.04 0 0.61 0.04 0 0.615 0.04 0 0.62 0.04 0 0.625 0.04 0 0.63 0.04 0 0.635 0.04 0 0.64 0.04 0 0.645 0.04 0 0.65 0.04 0 0.655 0.04 0 0.66 0.04 0 0.665 0.04 0 0.67 0.04 0 0.675 0.04 0 0.68 0.04 0 0.685 0.04 0 0.69 0.04 0 0.695 0.04 0 0.7 0.04 0 0.705 0.04 0 0.71 0.04 0 0.715 0.04 0 0.72 0.04 0 0.725 0.04 0 0.73 0.04 0 0.735 0.04 0 0.74 0.04 0 0.745 0.04 0 0.75 0.04 0 0.755 0.04 0 0.76 0.04 0 0.765 0.04 0 0.77 0.04 0 0.775 0.04 0 0.78 0.04 0 0.785 0.04 0 0.79 0.04 0 0.795 0.04 0 0.8 0.04 0 0.805 0.04 0 0.81 0.04 0 0.815 0.04 0 0.82 0.04 0 0.825 0.04 0 0.83 0.04 0 0.835 0.04 0 0.84 0.04 0 0.845 0.04 0 0.85 0.04 0 0.855 0.04 0 0.86 0.04 0 0.865 0.04 0 0.87 0.04 0 0.875 0.04 0 0.88 0.04 0 0.885 0.04 0 0.89 0.04 0 0.895 0.04 0 0.9 0.04 0 0.905 0.04 0 0.91 0.04 0 0.915 0.04 0 0.92 0.04 0 0.925 0.04 0 0.93 0.04 0 0.935 0.04 0 0.94 0.04 0 0.945 0.04 0 0.95 0.04 0 0.955 0.04 0 0.96 0.04 0 0.965 0.04 0 0.97 0.04 0 0.975 0.04 0 0.98 0.04 0 0.985 0.04 0 0.99 0.04 0 0.995 0.04 0 1 0.04 0 0 0.06 0 0.005 0.06 0 0.01 0.06 0 0.015 0.06 0 0.02 0.06 0 0.025 0.06 0 0.03 0.06 0 0.035 0.06 0 0.04 0.06 0 0.045 0.06 0 0.05 0.06 0 0.055 0.06 0 0.06 0.06 0 0.065 0.06 0 0.07 0.06 0 0.075 0.06 0 0.08 0.06 0 0.085 0.06 0 0.09 0.06 0 0.095 0.06 0 0.1 0.06 0 0.105 0.06 0 0.11 0.06 0 0.115 0.06 0 0.12 0.06 0 0.125 0.06 0 0.13 0.06 0 0.135 0.06 0 0.14 0.06 0 0.145 0.06 0 0.15 0.06 0 0.155 0.06 0 0.16 0.06 0 0.165 0.06 0 0.17 0.06 0 0.175 0.06 0 0.18 0.06 0 0.185 0.06 0 0.19 0.06 0 0.195 0.06 0 0.2 0.06 0 0.205 0.06 0 0.21 0.06 0 0.215 0.06 0 0.22 0.06 0 0.225 0.06 0 0.23 0.06 0 0.235 0.06 0 0.24 0.06 0 0.245 0.06 0 0.25 0.06 0 0.255 0.06 0 0.26 0.06 0 0.265 0.06 0 0.27 0.06 0 0.275 0.06 0 0.28 0.06 0 0.285 0.06 0 0.29 0.06 0 0.295 0.06 0 0.3 0.06 0 0.305 0.06 0 0.31 0.06 0 0.315 0.06 0 0.32 0.06 0 0.325 0.06 0 0.33 0.06 0 0.335 0.06 0 0.34 0.06 0 0.345 0.06 0 0.35 0.06 0 0.355 0.06 0 0.36 0.06 0 0.365 0.06 0 0.37 0.06 0 0.375 0.06 0 0.38 0.06 0 0.385 0.06 0 0.39 0.06 0 0.395 0.06 0 0.4 0.06 0 0.405 0.06 0 0.41 0.06 0 0.415 0.06 0 0.42 0.06 0 0.425 0.06 0 0.43 0.06 0 0.435 0.06 0 0.44 0.06 0 0.445 0.06 0 0.45 0.06 0 0.455 0.06 0 0.46 0.06 0 0.465 0.06 0 0.47 0.06 0 0.475 0.06 0 0.48 0.06 0 0.485 0.06 0 0.49 0.06 0 0.495 0.06 0 0.5 0.06 0 0.505 0.06 0 0.51 0.06 0 0.515 0.06 0 0.52 0.06 0 0.525 0.06 0 0.53 0.06 0 0.535 0.06 0 0.54 0.06 0 0.545 0.06 0 0.55 0.06 0 0.555 0.06 0 0.56 0.06 0 0.565 0.06 0 0.57 0.06 0 0.575 0.06 0 0.58 0.06 0 0.585 0.06 0 0.59 0.06 0 0.595 0.06 0 0.6 0.06 0 0.605 0.06 0 0.61 0.06 0 0.615 0.06 0 0.62 0.06 0 0.625 0.06 0 0.63 0.06 0 0.635 0.06 0 0.64 0.06 0 0.645 0.06 0 0.65 0.06 0 0.655 0.06 0 0.66 0.06 0 0.665 0.06 0 0.67 0.06 0 0.675 0.06 0 0.68 0.06 0 0.685 0.06 0 0.69 0.06 0 0.695 0.06 0 0.7 0.06 0 0.705 0.06 0 0.71 0.06 0 0.715 0.06 0 0.72 0.06 0 0.725 0.06 0 0.73 0.06 0 0.735 0.06 0 0.74 0.06 0 0.745 0.06 0 0.75 0.06 0 0.755 0.06 0 0.76 0.06 0 0.765 0.06 0 0.77 0.06 0 0.775 0.06 0 0.78 0.06 0 0.785 0.06 0 0.79 0.06 0 0.795 0.06 0 0.8 0.06 0 0.805 0.06 0 0.81 0.06 0 0.815 0.06 0 0.82 0.06 0 0.825 0.06 0 0.83 0.06 0 0.835 0.06 0 0.84 0.06 0 0.845 0.06 0 0.85 0.06 0 0.855 0.06 0 0.86 0.06 0 0.865 0.06 0 0.87 0.06 0 0.875 0.06 0 0.88 0.06 0 0.885 0.06 0 0.89 0.06 0 0.895 0.06 0 0.9 0.06 0 0.905 0.06 0 0.91 0.06 0 0.915 0.06 0 0.92 0.06 0 0.925 0.06 0 0.93 0.06 0 0.935 0.06 0 0.94 0.06 0 0.945 0.06 0 0.95 0.06 0 0.955 0.06 0 0.96 0.06 0 0.965 0.06 0 0.97 0.06 0 0.975 0.06 0 0.98 0.06 0 0.985 0.06 0 0.99 0.06 0 0.995 0.06 0 1 0.06 0 0 0.08 0 0.005 0.08 0 0.01 0.08 0 0.015 0.08 0 0.02 0.08 0 0.025 0.08 0 0.03 0.08 0 0.035 0.08 0 0.04 0.08 0 0.045 0.08 0 0.05 0.08 0 0.055 0.08 0 0.06 0.08 0 0.065 0.08 0 0.07 0.08 0 0.075 0.08 0 0.08 0.08 0 0.085 0.08 0 0.09 0.08 0 0.095 0.08 0 0.1 0.08 0 0.105 0.08 0 0.11 0.08 0 0.115 0.08 0 0.12 0.08 0 0.125 0.08 0 0.13 0.08 0 0.135 0.08 0 0.14 0.08 0 0.145 0.08 0 0.15 0.08 0 0.155 0.08 0 0.16 0.08 0 0.165 0.08 0
[...]
			<PointData Scalars="VitesseX">
				<DataArray Name="VitesseX" type="Float32" format="ascii">
 0 -9.04237e-15 3.48963e-16 -3.39974e-14 1.3789e-14 -2.35431e-14 -2.41894e-14 -2.78783e-14 1.84343e-14 -3.02731e-14 -4.4671e-14 9.1566e-15 -4.36381e-14 -9.10661e-14 2.89878e-14 -3.32506e-14 -5.21335e-14 -1.68342e-14 -1.13978e-13 -1.87433e-14 -2.59223e-14 -7.06947e-14 -1.31069e-13 -6.40051e-14 -7.41042e-14 -1.43132e-13 4.92195e-14 -1.746e-13 1.02021e-13 -7.45876e-14 4.55851e-14 -4.80068e-14 6.14004e-14 -2.12885e-13 7.95986e-15 -2.92669e-13 -7.09521e-14 -1.20355e-13 -8.88504e-14 -1.81881e-13 -1.58543e-13 -1.73656e-13 4.96628e-14 -1.74277e-13 -1.74053e-13 7.86725e-14 5.82856e-14 -1.31868e-13 1.58759e-14 1.32436e-12 7.98229e-12 5.41218e-11 3.51052e-10 2.14496e-09 1.23467e-08 6.67291e-08 3.37663e-07 1.59406e-06 6.99234e-06 2.83649e-05 0.000105813 0.000360549 0.00111306 0.00308334 0.00758386 0.0164026 0.0310319 0.0515469 0.0763421 0.10327 0.130882 0.158598 0.186262 0.213831 0.241292 0.268634 0.295853 0.322943 0.349899 0.376713 0.403378 0.429884 0.456218 0.482366 0.50831 0.534028 0.559494 0.584677 0.609542 0.634044 0.658134 0.681752 0.704829 0.727287 0.749034 0.76997 0.789982 0.808948 0.826744 0.843241 0.85832 0.871876 0.883832 0.894148 0.902829 0.909933 0.915567 0.919882 0.923062 0.925304 0.926805 0.927748 0.928287 0.928551 0.928635 0.928621 0.928565 0.928479 0.928375 0.928261 0.928142 0.928022 0.927905 0.927791 0.927682 0.927578 0.927478 0.927381 0.927288 0.927197 0.927106 0.927015 0.92692 0.926817 0.926697 0.926544 0.92633 0.926008 0.925494 0.924647 0.923233 0.920873 0.916957 0.910539 0.900191 0.883852 0.858717 0.8213 0.767817 0.695066 0.601881 0.490947 0.370223 0.252581 0.152466 0.0801587 0.0368906 0.0153524 0.00602421 0.00229653 0.000863433 0.000322158 0.000119552 4.41513e-05 1.62262e-05 5.93268e-06 2.15718e-06 7.79735e-07 2.80063e-07 9.99167e-08 3.53938e-08 1.24438e-08 4.34053e-09 1.50149e-09 5.14771e-10 1.7467e-10 5.83798e-11 1.9183e-11 6.15272e-12 1.89088e-12 1.06299e-13 -1.23012e-13 -1.92296e-13 8.30864e-13 -6.67518e-13 2.69952e-13 1.97195e-13 2.39256e-13 -3.58721e-13 3.92032e-13 -3.62441e-13 2.52383e-13 2.05488e-13 -3.45947e-13 4.11089e-13 -1.46596e-13 4.63521e-14 4.07151e-13 -2.5201e-13 -3.01816e-13 0 0 -2.22969e-15 -9.07589e-15 1.88097e-14 -3.27214e-14 -4.58947e-15 4.59636e-15 -1.45693e-14 -4.06597e-14 -1.01218e-14 -7.0217e-15 -4.10529e-14 -1.85777e-14 -2.19174e-14 -8.9064e-14 8.58044e-15 -3.67982e-14 -1.27065e-13 2.84676e-14 -1.02514e-13 -1.30479e-13 4.0348e-15 -3.10375e-14 -1.09748e-13 -8.07999e-14 4.70199e-14 -1.8197e-13 1.2548e-14 -1.41141e-13 1.64444e-13 -6.12468e-14 -3.95658e-14 -1.21936e-13 -3.62948e-14 -1.67548e-13 -1.26542e-13 -1.3151e-13 -8.09881e-14 -9.60485e-14 -1.35982e-13 -7.41946e-14 -9.7432e-14 -1.4886e-13 -9.42592e-14 6.46259e-14 -1.62381e-13 -1.76623e-13 -5.51004e-14 2.8863e-13 1.02121e-12 8.01011e-12 5.42831e-11 3.5107e-10 2.14533e-09 1.23459e-08 6.67293e-08 3.37663e-07 1.59406e-06 6.99234e-06 2.83649e-05 0.000105813 0.000360549 0.00111306 0.00308334 0.00758386 0.0164026 0.0310319 0.0515469 0.0763421 0.10327 0.130882 0.158598 0.186262 0.213831 0.241292 0.268634 0.295853 0.322943 0.349899 0.376713 0.403378 0.429884 0.456218 0.482366 0.50831 0.534028 0.559494 0.584677 0.609542 0.634044 0.658134 0.681752 0.704829 0.727287 0.749034 0.76997 0.789982 0.808948 0.826744 0.843241 0.85832 0.871876 0.883832 0.894148 0.902829 0.909933 0.915567 0.919882 0.923062 0.925304 0.926805 0.927748 0.928287 0.928551 0.928635 0.928621 0.928565 0.928479 0.928375 0.928261 0.928142 0.928022 0.927905 0.927791 0.927682 0.927578 0.927478 0.927381 0.927288 0.927197 0.927106 0.927015 0.92692 0.926817 0.926697 0.926544 0.92633 0.926008 0.925494 0.924647 0.923233 0.920873 0.916957 0.910539 0.900191 0.883852 0.858717 0.8213 0.767817 0.695066 0.601881 0.490947 0.370223 0.252581 0.152466 0.0801587 0.0368906 0.0153524 0.00602421 0.00229653 0.000863433 0.000322158 0.000119552 4.41513e-05 1.62262e-05 5.93268e-06 2.15718e-06 7.79734e-07 2.80063e-07 9.9917e-08 3.53934e-08 1.24438e-08 4.34069e-09 1.50155e-09 5.14813e-10 1.74846e-10 5.84221e-11 1.91892e-11 6.03645e-12 1.52974e-12 8.13189e-13 -2.22268e-13 -2.24974e-13 -2.19225e-13 3.64571e-13 -4.35504e-14 2.15426e-13 -6.54039e-14 5.09245e-13 -7.25774e-13 4.57642e-13 -2.35209e-13 -1.0583e-14 5.14131e-13 -5.8584e-13 2.60238e-13 4.11169e-13 5.47946e-14 -6.14518e-14 1.89489e-13 0 0 1.22351e-15 3.0839e-15 -2.84041e-15 3.38737e-14 7.48692e-15 -6.66396e-15 -1.60599e-14 1.55022e-14 -1.46692e-14 -3.45346e-14 -1.37048e-14 -4.48605e-14 -3.47129e-14 -7.83161e-14 -9.44459e-14 -5.55694e-14 -1.04184e-13 -3.61696e-14 -5.26027e-14 -2.56391e-14 -7.35489e-14 -8.91275e-14 -1.32566e-14 -3.92405e-14 -8.68986e-14 2.10345e-14 -4.96812e-14 -2.57749e-14 -1.78428e-13 -4.71456e-15 -1.30379e-14 -2.76077e-14 -6.19809e-14 -2.17968e-13 -4.33297e-14 -1.69732e-13 -8.89907e-14 -6.55806e-14 -5.45149e-14 -8.08593e-14 -1.77587e-13 6.02052e-14 -3.56328e-14 -1.7377e-13 -1.86208e-13 -7.9605e-14 7.64079e-14 9.35079e-14 1.19106e-12 8.1486e-12 5.42032e-11 3.50953e-10 2.14537e-09 1.23462e-08 6.67292e-08 3.37663e-07 1.59406e-06 6.99234e-06 2.83649e-05 0.000105813 0.000360549 0.00111306 0.00308334 0.00758386 0.0164026 0.0310319 0.0515469 0.0763421 0.10327 0.130882 0.158598 0.186262 0.213831 0.241292 0.268634 0.295853 0.322943 0.349899 0.376713 0.403378 0.429884 0.456218 0.482366 0.50831 0.534028 0.559494 0.584677 0.609542 0.634044 0.658134 0.681752 0.704829 0.727287 0.749034 0.76997 0.789982 0.808948 0.826744 0.843241 0.85832 0.871876 0.883832 0.894148 0.902829 0.909933 0.915567 0.919882 0.923062 0.925304 0.926805 0.927748 0.928287 0.928551 0.928635 0.928621 0.928565 0.928479 0.928375 0.928261 0.928142 0.928022 0.927905 0.927791 0.927682 0.927578 0.927478 0.927381 0.927288 0.927197 0.927106 0.927015 0.92692 0.926817 0.926697 0.926544 0.92633 0.926008 0.925494 0.924647 0.923233 0.920873 0.916957 0.910539 0.900191 0.883852 0.858717 0.8213 0.767817 0.695066 0.601881 0.490947 0.370223 0.252581 0.152466 0.0801587 0.0368906 0.0153524 0.00602421 0.00229653 0.000863433 0.000322158 0.000119552 4.41513e-05 1.62262e-05 5.93268e-06 2.15718e-06 7.79735e-07 2.80063e-07 9.99169e-08 3.53938e-08 1.24438e-08 4.34056e-09 1.50183e-09 5.14994e-10 1.74634e-10 5.87093e-11 1.91263e-11 6.11991e-12 1.87197e-12 1.82021e-14 3.36411e-13 -1.66782e-13 -6.62163e-13 1.57207e-13 4.64395e-13 -2.33977e-13 1.69472e-13 2.28133e-13 3.60792e-14 -5.95195e-13 1.44682e-15 1.80843e-14 -2.10151e-14 -1.84052e-13 2.31607e-13 -1.34438e-13 2.43533e-13 3.55826e-13 3.70616e-13 0 0 -1.89017e-15 -9.18035e-16 -3.15301e-15 2.01179e-14 5.92483e-15 -7.49427e-15 1.42943e-14 1.72866e-14 1.04617e-14 -1.62599e-14 -6.50211e-14 -1.47989e-14 -8.91456e-14 -4.22801e-14 -9.42919e-14 -1.06961e-13 -9.03532e-14 -1.66052e-13 2.40902e-14 -4.52295e-14 -3.36509e-14 -3.7294e-14 -8.90222e-15 -5.50226e-14 -5.93328e-14 5.23973e-14 -1.14265e-13 -6.52443e-14 -5.87564e-14 -4.43063e-14 -4.01433e-14 -3.93377e-14 -1.28642e-13 -6.05114e-14 -5.52239e-14 -1.3641e-13 -1.66503e-13 -1.15062e-13 -1.68047e-13 -5.81133e-14 4.22392e-14 -1.77367e-13 7.63389e-15 -6.32364e-14 7.85187e-15 -2.34749e-16 -1.364e-13 3.74472e-14 1.29224e-12 8.04584e-12 5.43895e-11 3.51059e-10 2.14524e-09 1.23462e-08 6.67292e-08 3.37663e-07 1.59406e-06 6.99234e-06 2.83649e-05 0.000105813 0.000360549 0.00111306 0.00308334 0.00758386 0.0164026 0.0310319 0.0515469 0.0763421 0.10327 0.130882 0.158598 0.186262 0.213831 0.241292 0.268634 0.295853 0.322943 0.349899 0.376713 0.403378 0.429884 0.456218 0.482366 0.50831 0.534028 0.559494 0.584677 0.609542 0.634044 0.658134 0.681752 0.704829 0.727287 0.749034 0.76997 0.789982 0.808948 0.826744 0.843241 0.85832 0.871876 0.883832 0.894148 0.902829 0.909933 0.915567 0.919882 0.923062 0.925304 0.926805 0.927748 0.928287 0.928551 0.928635 0.928621 0.928565 0.928479 0.928375 0.928261 0.928142 0.928022 0.927905 0.927791 0.927682 0.927578 0.927478 0.927381 0.927288 0.927197 0.927106 0.927015 0.92692 0.926817 0.926697 0.926544 0.92633 0.926008 0.925494 0.924647 0.923233 0.920873 0.916957 0.910539 0.900191 0.883852 0.858717 0.8213 0.767817 0.695066 0.601881 0.490947 0.370223 0.252581 0.152466 0.0801587 0.0368906 0.0153524 0.00602421 0.00229653 0.000863433 0.000322158 0.000119552 4.41513e-05 1.62262e-05 5.93268e-06 2.15718e-06 7.79734e-07 2.80063e-07 9.9917e-08 3.53939e-08 1.2444e-08 4.34084e-09 1.50163e-09 5.14803e-10 1.7485e-10 5.85273e-11 1.9294e-11 6.24251e-12 1.90915e-12 -5.18186e-14 1.54995e-14 2.71119e-13 -7.35121e-14 -3.42468e-13 1.33804e-13 -3.70531e-13 -3.77115e-13 -2.29195e-13 6.34305e-13 -4.63649e-13 -5.95715e-14 2.48625e-13 -2.90407e-13 2.64088e-13 -1.60104e-13 -3.03141e-14 -4.7362e-13 2.96796e-13 -3.66189e-13 0 0 -9.24694e-16 -1.0468e-14 1.8588e-14 -3.47219e-14 -2.52162e-15 7.90505e-15 2.06008e-14 -3.16322e-14 -7.74043e-15 9.55142e-15 -9.82276e-14 9.95278e-15 -3.29817e-14 -7.98247e-14 -3.03922e-14 -1.26993e-13 -8.78569e-14 -2.91687e-14 -9.42122e-14 -1.60159e-13 4.66068e-15 2.90747e-14 -1.2342e-13 -7.09924e-14 9.21679e-14 -1.15064e-13 -4.92064e-14 -1.35953e-13 2.13155e-13 -6.82657e-14 -1.2029e-13 -1.17836e-13 -3.33713e-14 -5.88492e-14 -1.8513e-13 -1.44632e-14 -6.72297e-15 -1.52338e-13 -2.81143e-13 -6.27957e-14 5.70984e-14 -2.95944e-13 -7.14049e-14 1.72526e-13 -6.61576e-14 -1.13123e-13 -1.36563e-13 2.55406e-13 1.14233e-12 8.04766e-12 5.45302e-11 3.51228e-10 2.14532e-09 1.23459e-08 6.67294e-08 3.37663e-07 1.59406e-06 6.99234e-06 2.83649e-05 0.000105813 0.000360549 0.00111306 0.00308334 0.00758386 0.0164026 0.0310319 0.0515469 0.0763421 0.10327 0.130882 0.158598 0.186262 0.213831 0.241292 0.268634 0.295853 0.322943 0.349899 0.376713 0.403378 0.429884 0.456218 0.482366 0.50831 0.534028 0.559494 0.584677 0.609542 0.634044 0.658134 0.681752 0.704829 0.727287 0.749034 0.76997 0.789982 0.808948 0.826744 0.843241 0.85832 0.871876 0.883832 0.894148 0.902829 0.909933 0.915567 0.919882 0.923062 0.925304 0.926805 0.927748 0.928287 0.928551 0.928635 0.928621 0.928565 0.928479 0.928375 0.928261 0.928142 0.928022 0.927905 0.927791 0.927682 0.927578 0.927478 0.927381 0.927288 0.927197 0.927106 0.927015 0.92692 0.926817 0.926697 0.926544 0.92633 0.926008 0.925494 0.924647 0.923233 0.920873 0.916957 0.910539 0.900191 0.883852 0.858717 0.8213 0.767817 0.695066 0.601881 0.490947 0.370223 0.252581 0.152466 0.0801587 0.0368906 0.0153524 0.00602421 0.00229653 0.000863433 0.000322158 0.000119552 4.41513e-05 1.62262e-05 5.93268e-06 2.15718e-06 7.79734e-07 2.80063e-07 9.99172e-08 3.53934e-08 1.24442e-08 4.34071e-09 1.50152e-09 5.14677e-10 1.7512e-10 5.8315e-11 1.91938e-11 5.88593e-12 1.59541e-12 8.03532e-13 -1.42669e-13 2.32063e-13 -1.50249e-13 -1.81991e-13 -3.76191e-13 -2.28187e-13 -2.67346e-13 9.26778e-14 -5.54025e-13 4.98581e-13 -5.6892e-13 -1.37021e-13 2.15801e-13 -1.3608e-13 2.37005e-13 5.95464e-13 -4.17143e-13 -8.45195e-14 -2.65413e-13 0 0 -2.05011e-16 5.56867e-15 -3.38157e-14 3.72995e-14 -1.62832e-14 -1.59114e-14 -1.82464e-14 3.29206e-14 -7.57721e-14 -4.80741e-14 -2.56003e-15 -4.67005e-14 -4.32922e-15 -2.46056e-14 -1.11504e-13 -1.2974e-13 3.39194e-14 3.05147e-14 -1.55526e-13 -4.61022e-14 -1.49239e-13 -1.14511e-13 -1.00058e-13 -2.29249e-14 -1.07967e-13 1.20305e-13 -1.6894e-13 1.91336e-13 -2.16509e-13 1.10731e-13 -1.55243e-13 9.306e-14 -7.37164e-14 -8.95551e-14 -3.86058e-13 9.64976e-14 1.83199e-13 -1.02468e-13 -2.4514e-13 -1.81237e-13 -3.04248e-13 2.3064e-13 -2.15102e-13 -1.79319e-13 -1.17e-13 2.65455e-14 1.30822e-13 6.15489e-14 1.36424e-12 8.2629e-12 5.42435e-11 3.51158e-10 2.14521e-09 1.23466e-08 6.67292e-08 3.37662e-07 1.59406e-06 6.99234e-06 2.83649e-05 0.000105813 0.000360549 0.00111306 0.00308334 0.00758386 0.0164026 0.0310319 0.0515469 0.0763421 0.10327 0.130882 0.158598 0.186262 0.213831 0.241292 0.268634 0.295853 0.322943 0.349899 0.376713 0.403378 0.429884 0.456218 0.482366 0.50831 0.534028 0.559494 0.584677 0.609542 0.634044 0.658134 0.681752 0.704829 0.727287 0.749034 0.76997 0.789982 0.808948 0.826744 0.843241 0.85832 0.871876 0.883832 0.894148 0.902829 0.909933 0.915567 0.919882 0.923062 0.925304 0.926805 0.927748 0.928287 0.928551 0.928635 0.928621 0.928565 0.928479 0.928375 0.928261 0.928142 0.928022 0.927905 0.927791 0.927682 0.927578 0.927478 0.927381 0.927288 0.927197 0.927106 0.927015 0.92692 0.926817 0.926697 0.926544 0.92633 0.926008 0.925494 0.924647 0.923233 0.920873 0.916957 0.910539 0.900191 0.883852 0.858717 0.8213 0.767817 0.695066 0.601881 0.490947 0.370223 0.252581 0.152466 0.0801587 0.0368906 0.0153524 0.00602421 0.00229653 0.000863433 0.000322158 0.000119552 4.41513e-05 1.62262e-05 5.93268e-06 2.15718e-06 7.79735e-07 2.80064e-07 9.9917e-08 3.53936e-08 1.24441e-08 4.34001e-09 1.50183e-09 5.1488e-10 1.74786e-10 5.85296e-11 1.88569e-11 5.6065e-12 1.94786e-12 2.27027e-13 6.78009e-13 -1.54022e-13 -2.08484e-13 -7.61291e-13 2.65854e-13 -4.16924e-13 9.28545e-13 -2.772e-13 -4.60922e-13 -5.43653e-13 -2.93002e-13 -5.0847e-13 -4.03823e-13 4.14328e-13 5.90361e-13 2.06695e-13 8.97581e-13 -1.80086e-13 2.61989e-13 0
				</DataArray>
				<DataArray Name="VitesseY" type="Float32" format="ascii">