<?xml version="1.0"?>
<VTKFile type="PolyData">
	<PolyData>
		<Piece NumberOfPoints="1206" NumberOfPolys="1000">
			<Points>
				<DataArray type="Float32" NumberOfComponents="3" format="ascii">
 0 0 0 0.005 0 0 0.01 0 0 0.015 0 0 0.02 0 0 0.025 0 0 0.03 0 0 0.035 0 0 0.04 0 0 0.045 0 0 0.05 0 0 0.055 0 0 0.06 0 0 0.065 0 0 0.07 0 0 0.075 0 0 0.08 0 0 0.085 0 0 0.09 0 0 0.095 0 0 0.1 0 0 0.105 0 0 0.11 0 0 0.115 0 0 0.12 0 0 0.125 0 0 0.13 0 0 0.135 0 0 0.14 0 0 0.145 0 0 0.15 0 0 0.155 0 0 0.16 0 0 0.165 0 0 0.17 0 0 0.175 0 0 0.18 0 0 0.185 0 0 0.19 0 0 0.195 0 0 0.2 0 0 0.205 0 0 0.21 0 0 0.215 0 0 0.22 0 0 0.225 0 0 0.23 0 0 0.235 0 0 0.24 0 0 0.245 0 0 0.25 0 0 0.255 0 0 0.26 0 0 0.265 0 0 0.27 0 0 0.275 0 0 0.28 0 0 0.285 0 0 0.29 0 0 0.295 0 0 0.3 0 0 0.305 0 0 0.31 0 0 0.315 0 0 0.32 0 0 0.325001 0 0 0.330002 0 0 0.335007 0 0 0.340021 0 0 0.345055 0 0 0.350128 0 0 0.355266 0 0 0.360497 0 0 0.365848 0 0 0.371341 0 0 0.376994 0 0 0.382824 0 0 0.388849 0 0 0.395085 0 0 0.40155 0 0 0.408267 0 0 0.415258 0 0 0.422549 0 0 0.430172 0 0 0.438159 0 0 0.446553 0 0 0.455399 0 0 0.464749 0 0 0.474666 0 0 0.485212 0 0 0.496444 0 0 0.508361 0 0 0.520746 0 0 0.533092 0 0 0.545272 0 0 0.557292 0 0 0.569203 0 0 0.581056 0 0 0.592884 0 0 0.604703 0 0 0.616516 0 0 0.618795 0 0 0.621075 0 0 0.623355 0 0 0.625634 0 0 0.627915 0 0 0.630196 0 0 0.632473 0 0 0.634749 0 0 0.63703 0 0 0.63931 0 0 0.64159 0 0 0.643869 0 0 0.646148 0 0 0.648427 0 0 0.650706 0 0 0.652986 0 0 0.655268 0 0 0.657552 0 0 0.659835 0 0 0.662118 0 0 0.6644 0 0 0.66668 0 0 0.668959 0 0 0.671238 0 0 0.673517 0 0 0.675795 0 0 0.678077 0 0 0.680365 0 0 0.682654 0 0 0.684941 0 0 0.687226 0 0 0.689508 0 0 0.691792 0 0 0.69407 0 0 0.69635 0 0 0.69864 0 0 0.700988 0 0 0.70343 0 0 0.705952 0 0 0.708636 0 0 0.711507 0 0 0.714647 0 0 0.718097 0 0 0.721901 0 0 0.726057 0 0 0.730527 0 0 0.735237 0 0 0.740098 0 0 0.745038 0 0 0.750015 0 0 0.755006 0 0 0.760002 0 0 0.765001 0 0 0.77 0 0 0.775 0 0 0.78 0 0 0.785 0 0 0.79 0 0 0.795 0 0 0.8 0 0 0.805 0 0 0.81 0 0 0.815 0 0 0.82 0 0 0.825 0 0 0.83 0 0 0.835 0 0 0.84 0 0 0.845 0 0 0.85 0 0 0.855 0 0 0.86 0 0 0.865 0 0 0.87 0 0 0.875 0 0 0.88 0 0 0.885 0 0 0.89 0 0 0.895 0 0 0.9 0 0 0.905 0 0 0.91 0 0 0.915 0 0 0.92 0 0 0.925 0 0 0.93 0 0 0.935 0 0 0.94 0 0 0.945 0 0 0.95 0 0 0.955 0 0 0.96 0 0 0.965 0 0 0.97 0 0 0.975 0 0 0.98 0 0 0.985 0 0 0.99 0 0 0.995 0 0 1 0 0 0 0.02 0 0.005 0.02 0 0.01 0.02 0 0.015 0.02 0 0.02 0.02 0 0.025 0.02 0 0.03 0.02 0 0.035 0.02 0 0.04 0.02 0 0.045 0.02 0 0.05 0.02 0 0.055 0.02 0 0.06 0.02 0 0.065 0.02 0 0.07 0.02 0 0.075 0.02 0 0.08 0.02 0 0.085 0.02 0 0.09 0.02 0 0.095 0.02 0 0.1 0.02 0 0.105 0.02 0 0.11 0.02 0 0.115 0.02 0 0.12 0.02 0 0.125 0.02 0 0.13 0.02 0 0.135 0.02 0 0.14 0.02 0 0.145 0.02 0 0.15 0.02 0 0.155 0.02 0 0.16 0.02 0 0.165 0.02 0 0.17 0.02 0 0.175 0.02 0 0.18 0.02 0 0.185 0.02 0 0.19 0.02 0 0.195 0.02 0 0.2 0.02 0 0.205 0.02 0 0.21 0.02 0 0.215 0.02 0 0.22 0.02 0 0.225 0.02 0 0.23 0.02 0 0.235 0.02 0 0.24 0.02 0 0.245 0.02 0 0.25 0.02 0 0.255 0.02 0 0.26 0.02 0 0.265 0.02 0 0.27 0.02 0 0.275 0.02 0 0.28 0.02 0 0.285 0.02 0 0.29 0.02 0 0.295 0.02 0 0.3 0.02 0 0.305 0.02 0 0.31 0.02 0 0.315 0.02 0 0.32 0.02 0 0.325001 0.02 0 0.330002 0.02 0 0.335007 0.02 0 0.340021 0.02 0 0.345055 0.02 0 0.350128 0.02 0 0.355266 0.02 0 0.360497 0.02 0 0.365848 0.02 0 0.371341 0.02 0 0.376994 0.02 0 0.382824 0.02 0 0.388849 0.02 0 0.395085 0.02 0 0.40155 0.02 0 0.408267 0.02 0 0.415258 0.02 0 0.422549 0.02 0 0.430172 0.02 0 0.438159 0.02 0 0.446553 0.02 0 0.455399 0.02 0 0.464749 0.02 0 0.474666 0.02 0 0.485212 0.02 0 0.496444 0.02 0 0.508361 0.02 0 0.520746 0.02 0 0.533092 0.02 0 0.545272 0.02 0 0.557292 0.02 0 0.569203 0.02 0 0.581056 0.02 0 0.592884 0.02 0 0.604703 0.02 0 0.616516 0.02 0 0.618795 0.02 0 0.621075 0.02 0 0.623355 0.02 0 0.625634 0.02 0 0.627915 0.02 0 0.630196 0.02 0 0.632473 0.02 0 0.634749 0.02 0 0.63703 0.02 0 0.63931 0.02 0 0.64159 0.02 0 0.643869 0.02 0 0.646148 0.02 0 0.648427 0.02 0 0.650706 0.02 0 0.652986 0.02 0 0.655268 0.02 0 0.657552 0.02 0 0.659835 0.02 0 0.662118 0.02 0 0.6644 0.02 0 0.66668 0.02 0 0.668959 0.02 0 0.671238 0.02 0 0.673517 0.02 0 0.675795 0.02 0 0.678077 0.02 0 0.680365 0.02 0 0.682654 0.02 0 0.684941 0.02 0 0.687226 0.02 0 0.689508 0.02 0 0.691792 0.02 0 0.69407 0.02 0 0.69635 0.02 0 0.69864 0.02 0 0.700988 0.02 0 0.70343 0.02 0 0.705952 0.02 0 0.708636 0.02 0 0.711507 0.02 0 0.714647 0.02 0 0.718097 0.02 0 0.721901 0.02 0 0.726057 0.02 0 0.730527 0.02 0 0.735237 0.02 0 0.740098 0.02 0 0.745038 0.02 0 0.750015 0.02 0 0.755006 0.02 0 0.760002 0.02 0 0.765001 0.02 0 0.77 0.02 0 0.775 0.02 0 0.78 0.02 0 0.785 0.02 0 0.79 0.02 0 0.795 0.02 0 0.8 0.02 0 0.805 0.02 0 0.81 0.02 0 0.815 0.02 0 0.82 0.02 0 0.825 0.02 0 0.83 0.02 0 0.835 0.02 0 0.84 0.02 0 0.845 0.02 0 0.85 0.02 0 0.855 0.02 0 0.86 0.02 0 0.865 0.02 0 0.87 0.02 0 0.875 0.02 0 0.88 0.02 0 0.885 0.02 0 0.89 0.02 0 0.895 0.02 0 0.9 0.02 0 0.905 0.02 0 0.91 0.02 0 0.915 0.02 0 0.92 0.02 0 0.925 0.02 0 0.93 0.02 0 0.935 0.02 0 0.94 0.02 0 0.945 0.02 0 0.95 0.02 0 0.955 0.02 0 0.96 0.02 0 0.965 0.02 0 0.97 0.02 0 0.975 0.02 0 0.98 0.02 0 0.985 0.02 0 0.99 0.02 0 0.995 0.02 0 1 0.02 0 0 0.04 0 0.005 0.04 0 0.01 0.04 0 0.015 0.04 0 0.02 0.04 0 0.025 0.04 0 0.03 0.04 0 0.035 0.04 0 0.04 0.04 0 0.045 0.04 0 0.05 0.04 0 0.055 0.04 0 0.06 0.04 0 0.065 0.04 0 0.07 0.04 0 0.075 0.04 0 0.08 0.04 0 0.085 0.04 0 0.09 0.04 0 0.095 0.04 0 0.1 0.04 0 0.105 0.04 0 0.11 0.04 0 0.115 0.04 0 0.12 0.04 0 0.125 0.04 0 0.13 0.04 0 0.135 0.04 0 0.14 0.04 0 0.145 0.04 0 0.15 0.04 0 0.155 0.04 0 0.16 0.04 0 0.165 0.04 0 0.17 0.04 0 0.175 0.04 0 0.18 0.04 0 0.185 0.04 0 0.19 0.04 0 0.195 0.04 0 0.2 0.04 0 0.205 0.04 0 0.21 0.04 0 0.215 0.04 0 0.22 0.04 0 0.225 0.04 0 0.23 0.04 0 0.235 0.04 0 0.24 0.04 0 0.245 0.04 0 0.25 0.04 0 0.255 0.04 0 0.26 0.04 0 0.265 0.04 0 0.27 0.04 0 0.275 0.04 0 0.28 0.04 0 0.285 0.04 0 0.29 0.04 0 0.295 0.04 0 0.3 0.04 0 0.305 0.04 0 0.31 0.04 0 0.315 0.04 0 0.32 0.04 0 0.325001 0.04 0 0.330002 0.04 0 0.335007 0.04 0 0.340021 0.04 0 0.345055 0.04 0 0.350128 0.04 0 0.355266 0.04 0 0.360497 0.04 0 0.365848 0.04 0 0.371341 0.04 0 0.376994 0.04 0 0.382824 0.04 0 0.388849 0.04 0 0.395085 0.04 0 0.40155 0.04 0 0.408267 0.04 0 0.415258 0.04 0 0.422549 0.04 0 0.430172 0.04 0 0.438159 0.04 0 0.446553 0.04 0 0.455399 0.04 0 0.464749 0.04 0 0.474666 0.04 0 0.485212 0.04 0 0.496444 0.04 0 0.508361 0.04 0 0.520746 0.04 0 0.533092 0.04 0 0.545272 0.04 0 0.557292 0.04 0 0.569203 0.04 0 0.581056 0.04 0 0.592884 0.04 0 0.604703 0.04 0 0.616516 0.04 0 0.618795 0.04 0 0.621075 0.04 0 0.623355 0.04 0 0.625634 0.04 0 0.627915 0.04 0 0.630196 0.04 0 0.632473 0.04 0 0.634749 0.04 0 0.63703 0.04 0 0.63931 0.04 0 0.64159 0.04 0 0.643869 0.04 0 0.646148 0.04 0 0.648427 0.04 0 0.650706 0.04 0 0.652986 0.04 0 0.655268 0.04 0 0.657552 0.04 0 0.659835 0.04 0 0.662118 0.04 0 0.6644 0.04 0 0.66668 0.04 0 0.668959 0.04 0 0.671238 0.04 0 0.673517 0.04 0 0.675795 0.04 0 0.678077 0.04 0 0.680365 0.04 0 0.682654 0.04 0 0.684941 0.04 0 0.687226 0.04 0 0.689508 0.04 0 0.691792 0.04 0 0.69407 0.04 0 0.69635 0.04 0 0.69864 0.04 0 0.700988 0.04 0 0.70343 0.04 0 0.705952 0.04 0 0.708636 0.04 0 0.711507 0.04 0 0.714647 0.04 0 0.718097 0.04 0 0.721901 0.04 0 0.726057 0.04 0 0.730527 0.04 0 0.735237 0.04 0 0.740098 0.04 0 0.745038 0.04 0 0.750015 0.04 0 0.755006 0.04 0 0.760002 0.04 0 0.765001 0.04 0 0.77 0.04 0 0.775 0.04 0 0.78 0.04 0 0.785 0.04 0 0.79 0.04 0 0.795 0.04 0 0.8 0.04 0 0.805 0.04 0 0.81 0.04 0 0.815 0.04 0 0.82 0.04 0 0.825 0.04 0 0.83 0.04 0 0.835 0.04 0 0.84 0.04 0 0.845 0.04 0 0.85 0.04 0 0.855 0.04 0 0.86 0.04 0 0.865 0.04 0 0.87 0.04 0 0.875 0.04 0 0.88 0.04 0 0.885 0.04 0 0.89 0.04 0 0.895 0.04 0 0.9 0.04 0 0.905 0.04 0 0.91 0.04 0 0.915 0.04 0 0.92 0.04 0 0.925 0.04 0 0.93 0.04 0 0.935 0.04 0 0.94 0.04 0 0.945 0.04 0 0.95 0.04 0 0.955 0.04 0 0.96 0.04 0 0.965 0.04 0 0.97 0.04 0 0.975 0.04 0 0.98 0.04 0 0.985 0.04 0 0.99 0.04 0 0.995 0.04 0 1 0.04 0 0 0.06 0 0.005 0.06 0 0.01 0.06 0 0.015 0.06 0 0.02 0.06 0 0.025 0.06 0 0.03 0.06 0 0.035 0.06 0 0.04 0.06 0 0.045 0.06 0 0.05 0.06 0 0.055 0.06 0 0.06 0.06 0 0.065 0.06 0 0.07 0.06 0 0.075 0.06 0 0.08 0.06 0 0.085 0.06 0 0.09 0.06 0 0.095 0.06 0 0.1 0.06 0 0.105 0.06 0 0.11 0.06 0 0.115 0.06 0 0.12 0.06 0 0.125 0.06 0 0.13 0.06 0 0.135 0.06 0 0.14 0.06 0 0.145 0.06 0 0.15 0.06 0 0.155 0.06 0 0.16 0.06 0 0.165 0.06 0 0.17 0.06 0 0.175 0.06 0 0.18 0.06 0 0.185 0.06 0 0.19 0.06 0 0.195 0.06 0 0.2 0.06 0 0.205 0.06 0 0.21 0.06 0 0.215 0.06 0 0.22 0.06 0 0.225 0.06 0 0.23 0.06 0 0.235 0.06 0 0.24 0.06 0 0.245 0.06 0 0.25 0.06 0 0.255 0.06 0 0.26 0.06 0 0.265 0.06 0 0.27 0.06 0 0.275 0.06 0 0.28 0.06 0 0.285 0.06 0 0.29 0.06 0 0.295 0.06 0 0.3 0.06 0 0.305 0.06 0 0.31 0.06 0 0.315 0.06 0 0.32 0.06 0 0.325001 0.06 0 0.330002 0.06 0 0.335007 0.06 0 0.340021 0.06 0 0.345055 0.06 0 0.350128 0.06 0 0.355266 0.06 0 0.360497 0.06 0 0.365848 0.06 0 0.371341 0.06 0 0.376994 0.06 0 0.382824 0.06 0 0.388849 0.06 0 0.395085 0.06 0 0.40155 0.06 0 0.408267 0.06 0 0.415258 0.06 0 0.422549 0.06 0 0.430172 0.06 0 0.438159 0.06 0 0.446553 0.06 0 0.455399 0.06 0 0.464749 0.06 0 0.474666 0.06 0 0.485212 0.06 0 0.496444 0.06 0 0.508361 0.06 0 0.520746 0.06 0 0.533092 0.06 0 0.545272 0.06 0 0.557292 0.06 0 0.569203 0.06 0 0.581056 0.06 0 0.592884 0.06 0 0.604703 0.06 0 0.616516 0.06 0 0.618795 0.06 0 0.621075 0.06 0 0.623355 0.06 0 0.625634 0.06 0 0.627915 0.06 0 0.630196 0.06 0 0.632473 0.06 0 0.634749 0.06 0 0.63703 0.06 0 0.63931 0.06 0 0.64159 0.06 0 0.643869 0.06 0 0.646148 0.06 0 0.648427 0.06 0 0.650706 0.06 0 0.652986 0.06 0 0.655268 0.06 0 0.657552 0.06 0 0.659835 0.06 0 0.662118 0.06 0 0.6644 0.06 0 0.66668 0.06 0 0.668959 0.06 0 0.671238 0.06 0 0.673517 0.06 0 0.675795 0.06 0 0.678077 0.06 0 0.680365 0.06 0 0.682654 0.06 0 0.684941 0.06 0 0.687226 0.06 0 0.689508 0.06 0 0.691792 0.06 0 0.69407 0.06 0 0.69635 0.06 0 0.69864 0.06 0 0.700988 0.06 0 0.70343 0.06 0 0.705952 0.06 0 0.708636 0
[...]
			<PointData Scalars="VitesseX">
				<DataArray Name="VitesseX" type="Float32" format="ascii">
 0 1.466e-15 3.68318e-15 7.65054e-16 -3.15488e-15 5.02908e-15 -1.62373e-15 -4.85962e-15 6.25889e-15 3.38114e-15 -5.52369e-15 2.03159e-15 1.63178e-15 3.22541e-15 1.26184e-14 2.44955e-15 -3.26746e-15 8.7888e-15 1.28606e-15 6.47063e-15 1.7575e-15 1.32691e-14 -7.12371e-15 -1.1168e-14 1.23259e-14 1.13811e-15 3.7292e-15 -2.3954e-15 1.23479e-14 1.22375e-14 3.17388e-14 1.87692e-14 9.73833e-15 -3.56726e-15 -1.65535e-14 1.12538e-14 7.88036e-15 5.88896e-15 -8.86101e-16 -2.12785e-14 3.35221e-14 6.01721e-15 -2.77651e-14 2.82268e-14 9.06802e-15 -2.20524e-14 1.32576e-14 1.71819e-14 -2.34819e-15 -2.59063e-14 6.7985e-14 7.6478e-14 7.25525e-14 1.0986e-13 1.10271e-12 9.15584e-12 6.74288e-11 4.70768e-10 3.0743e-09 1.87694e-08 1.06728e-07 5.63168e-07 2.74582e-06 1.23088e-05 5.04326e-05 0.000187541 0.000627681 0.00187274 0.00493206 0.0113754 0.0229222 0.0406106 0.0642394 0.0926666 0.124588 0.159054 0.195541 0.233819 0.273814 0.315541 0.359063 0.404476 0.451903 0.501485 0.553382 0.607757 0.664753 0.724434 0.786635 0.850533 0.913339 0.965976 0.981859 0.966817 0.953526 0.943457 0.937819 0.935316 0.934263 0.933646 0.932974 0.932936 0.932919 0.932936 0.93323 0.934055 0.934172 0.933965 0.933715 0.933366 0.933077 0.932779 0.93254 0.932376 0.932288 0.932304 0.932969 0.934557 0.934342 0.933921 0.933286 0.932446 0.931698 0.931075 0.930585 0.930448 0.930821 0.934332 0.935174 0.934115 0.933323 0.932117 0.931839 0.930776 0.92867 0.932069 0.914417 0.884378 0.882736 0.807831 0.768511 0.669973 0.581189 0.458091 0.337625 0.221834 0.128158 0.0641917 0.0283738 0.0115346 0.00448492 0.00170669 0.000642091 0.00023968 8.88393e-05 3.26872e-05 1.19296e-05 4.3148e-06 1.54521e-06 5.47425e-07 1.917e-07 6.63069e-08 2.26385e-08 7.6251e-09 2.53227e-09 8.28899e-10 2.67327e-10 8.49276e-11 2.65469e-11 8.20255e-12 2.46959e-12 7.47362e-13 1.36146e-13 1.04458e-13 1.08087e-13 -1.2242e-13 -8.31312e-14 -1.44547e-13 -9.04853e-14 -2.29246e-14 3.34535e-14 -2.26028e-14 5.94007e-15 4.96006e-14 -1.20105e-13 6.20078e-14 -1.13832e-14 -8.51404e-14 4.37086e-14 -5.79597e-14 -9.52391e-14 -1.11317e-14 -6.76908e-14 -6.94777e-14 -1.47215e-14 9.74378e-14 -6.87587e-14 -7.34069e-14 -1.92027e-14 1.92496e-14 0 0 -6.92893e-16 -1.26345e-15 -4.79947e-17 6.99419e-17 1.02506e-15 -5.33729e-16 5.8666e-15 -1.62243e-15 1.14474e-15 -2.7946e-15 1.51169e-15 3.63976e-16 1.08953e-14 7.7356e-15 1.3033e-15 -9.70457e-15 7.56033e-15 9.06646e-15 4.41571e-15 4.5567e-15 3.07958e-15 -9.07389e-15 7.50066e-15 2.81815e-15 2.26403e-14 -6.01244e-15 1.60733e-14 -2.64251e-14 2.37981e-14 2.09595e-14 7.27771e-15 6.42295e-16 1.14643e-14 3.06956e-14 -2.87488e-14 -2.80962e-15 9.98795e-15 7.61941e-15 9.38915e-15 -1.8102e-14 2.04898e-14 2.40165e-14 -6.97514e-15 -4.6572e-15 4.87171e-15 -9.8445e-15 -8.66114e-15 3.07493e-14 -2.34127e-15 5.83735e-14 5.77889e-14 1.02629e-13 1.09458e-13 1.10779e-12 9.08315e-12 6.75065e-11 4.70564e-10 3.07453e-09 1.87694e-08 1.06728e-07 5.63168e-07 2.74582e-06 1.23088e-05 5.04326e-05 0.000187541 0.000627681 0.00187274 0.00493206 0.0113754 0.0229222 0.0406106 0.0642394 0.0926666 0.124588 0.159054 0.195541 0.233819 0.273814 0.315541 0.359063 0.404476 0.451903 0.501485 0.553382 0.607757 0.664753 0.724434 0.786635 0.850533 0.913339 0.965976 0.981859 0.966817 0.953526 0.943457 0.937819 0.935316 0.934263 0.933646 0.932974 0.932936 0.932919 0.932936 0.93323 0.934055 0.934172 0.933965 0.933715 0.933366 0.933077 0.932779 0.93254 0.932376 0.932288 0.932304 0.932969 0.934557 0.934342 0.933921 0.933286 0.932446 0.931698 0.931075 0.930585 0.930448 0.930821 0.934332 0.935174 0.934115 0.933323 0.932117 0.931839 0.930776 0.92867 0.932069 0.914417 0.884378 0.882736 0.807831 0.768511 0.669973 0.581189 0.458091 0.337625 0.221834 0.128158 0.0641917 0.0283738 0.0115346 0.00448492 0.00170669 0.000642091 0.00023968 8.88393e-05 3.26872e-05 1.19296e-05 4.3148e-06 1.54521e-06 5.47425e-07 1.917e-07 6.63069e-08 2.26386e-08 7.62493e-09 2.53233e-09 8.2888e-10 2.67248e-10 8.49273e-11 2.65709e-11 8.165e-12 2.48838e-12 7.82058e-13 1.78214e-13 5.12341e-14 -8.01565e-14 4.26389e-14 -8.04746e-14 -5.07305e-14 -4.42014e-14 -1.00954e-13 8.14638e-14 -5.11229e-14 -5.47413e-14 -5.81291e-14 6.44107e-14 9.78383e-15 -1.25149e-13 4.92554e-14 -3.11192e-14 -4.487e-14 -6.62106e-14 -7.20313e-14 4.37993e-14 -4.37094e-14 4.85808e-14 3.10589e-14 -8.04489e-14 2.48563e-14 -1.00678e-13 6.9766e-14 0 0 5.43031e-16 -2.07368e-15 -7.348e-16 1.66769e-15 -2.63113e-15 2.76802e-15 5.11698e-15 -1.35249e-15 -3.47679e-15 -9.45152e-16 9.93242e-15 -5.91899e-15 4.3762e-15 1.22045e-14 2.27327e-15 -1.15821e-15 5.72624e-15 6.23965e-15 2.89151e-15 -5.04199e-15 -6.13154e-15 6.84644e-15 1.2108e-14 3.076e-15 1.49564e-14 9.75873e-15 8.0453e-16 -1.35249e-14 2.11337e-14 -1.0024e-14 1.38355e-14 -1.17965e-14 2.26329e-14 3.09382e-14 -3.28103e-14 -1.84442e-14 1.0797e-14 -8.01099e-16 3.2763e-14 -1.14118e-14 -1.27747e-14 2.85315e-14 1.5013e-14 -1.31023e-14 3.09552e-14 -2.70479e-14 2.02007e-14 7.29532e-15 3.05741e-14 -8.79611e-16 6.85209e-14 9.00125e-14 2.76846e-13 1.0537e-12 8.98169e-12 6.75562e-11 4.70478e-10 3.0745e-09 1.87695e-08 1.06728e-07 5.63168e-07 2.74582e-06 1.23088e-05 5.04326e-05 0.000187541 0.000627681 0.00187274 0.00493206 0.0113754 0.0229222 0.0406106 0.0642394 0.0926666 0.124588 0.159054 0.195541 0.233819 0.273814 0.315541 0.359063 0.404476 0.451903 0.501485 0.553382 0.607757 0.664753 0.724434 0.786635 0.850533 0.913339 0.965976 0.981859 0.966817 0.953526 0.943457 0.937819 0.935316 0.934263 0.933646 0.932974 0.932936 0.932919 0.932936 0.93323 0.934055 0.934172 0.933965 0.933715 0.933366 0.933077 0.932779 0.93254 0.932376 0.932288 0.932304 0.932969 0.934557 0.934342 0.933921 0.933286 0.932446 0.931698 0.931075 0.930585 0.930448 0.930821 0.934332 0.935174 0.934115 0.933323 0.932117 0.931839 0.930776 0.92867 0.932069 0.914417 0.884378 0.882736 0.807831 0.768511 0.669973 0.581189 0.458091 0.337625 0.221834 0.128158 0.0641917 0.0283738 0.0115346 0.00448492 0.00170669 0.000642091 0.00023968 8.88393e-05 3.26872e-05 1.19296e-05 4.3148e-06 1.54521e-06 5.47425e-07 1.917e-07 6.6307e-08 2.26385e-08 7.62511e-09 2.53222e-09 8.28946e-10 2.67241e-10 8.48607e-11 2.66609e-11 8.15296e-12 2.48471e-12 7.1437e-13 1.89325e-13 -2.15611e-13 7.73403e-14 4.32782e-14 -8.26796e-14 9.6941e-14 9.75185e-14 -1.32341e-13 -7.58748e-14 1.17005e-13 -3.0514e-13 -7.14152e-15 1.51311e-13 -1.42011e-13 -2.13512e-14 3.76697e-14 -1.23042e-13 -6.43211e-14 -5.7142e-15 1.42112e-14 1.59159e-14 1.65412e-15 1.26868e-13 -8.0874e-15 2.40278e-14 -9.34347e-14 -4.50343e-14 -1.77459e-15 0 0 6.93242e-16 9.94271e-16 1.87933e-15 -1.80695e-15 -2.08266e-15 5.10514e-15 -5.37349e-15 1.05618e-14 -1.78758e-15 5.1973e-15 1.50288e-15 7.52499e-15 -1.53505e-14 6.04044e-15 9.18419e-15 7.59853e-17 -7.73674e-15 1.65468e-14 6.81936e-15 2.92114e-14 -1.18813e-14 -8.93191e-15 5.91467e-15 -7.58784e-15 1.6578e-14 2.71007e-14 -1.207e-14 -7.32984e-15 3.97879e-14 -5.4489e-15 -2.06787e-14 2.24815e-15 -1.0838e-14 -3.20152e-15 3.70634e-15 1.0242e-14 7.55959e-15 -2.39823e-14 2.31602e-14 1.52335e-15 -2.01017e-14 -2.94221e-15 3.80577e-14 1.74903e-14 -1.24257e-14 -3.89414e-14 4.59751e-14 3.53653e-14 1.67754e-14 2.60314e-14 3.32392e-14 8.09932e-14 3.39369e-13 1.05268e-12 9.00162e-12 6.74918e-11 4.70543e-10 3.07443e-09 1.87695e-08 1.06728e-07 5.63168e-07 2.74582e-06 1.23088e-05 5.04326e-05 0.000187541 0.000627681 0.00187274 0.00493206 0.0113754 0.0229222 0.0406106 0.0642394 0.0926666 0.124588 0.159054 0.195541 0.233819 0.273814 0.315541 0.359063 0.404476 0.451903 0.501485 0.553382 0.607757 0.664753 0.724434 0.786635 0.850533 0.913339 0.965976 0.981859 0.966817 0.953526 0.943457 0.937819 0.935316 0.934263 0.933646 0.932974 0.932936 0.932919 0.932936 0.93323 0.934055 0.934172 0.933965 0.933715 0.933366 0.933077 0.932779 0.93254 0.932376 0.932288 0.932304 0.932969 0.934557 0.934342 0.933921 0.933286 0.932446 0.931698 0.931075 0.930585 0.930448 0.930821 0.934332 0.935174 0.934115 0.933323 0.932117 0.931839 0.930776 0.92867 0.932069 0.914417 0.884378 0.882736 0.807831 0.768511 0.669973 0.581189 0.458091 0.337625 0.221834 0.128158 0.0641917 0.0283738 0.0115346 0.00448492 0.00170669 0.000642091 0.00023968 8.88393e-05 3.26872e-05 1.19296e-05 4.3148e-06 1.54521e-06 5.47425e-07 1.917e-07 6.6307e-08 2.26385e-08 7.62516e-09 2.53231e-09 8.28957e-10 2.67424e-10 8.49141e-11 2.65639e-11 8.28583e-12 2.55958e-12 5.2049e-13 1.52569e-13 -1.47075e-13 1.65412e-13 -1.04899e-13 -9.23982e-15 6.47255e-14 1.2484e-13 1.13632e-13 -3.56827e-13 1.86865e-14 -4.7778e-14 -2.60925e-14 -8.31057e-14 -9.14304e-15 -7.30227e-14 -1.8449e-13 7.38277e-14 -6.47872e-14 -6.17935e-14 9.96379e-14 -1.28801e-13 2.43016e-13 3.48972e-14 1.26735e-14 2.17593e-14 -1.04845e-13 -3.19361e-14 -1.06826e-14 0 0 -3.60713e-15 5.80311e-16 2.94149e-15 -3.11386e-15 -4.76177e-15 1.12325e-15 -5.63029e-15 1.59907e-14 4.97178e-15 1.95002e-14 -5.07439e-15 -6.3431e-15 -1.20079e-14 -2.09019e-15 -1.02308e-14 6.09369e-16 2.17378e-15 1.08661e-14 1.90979e-15 2.96745e-14 4.88205e-15 9.11798e-15 -6.56407e-15 3.81601e-15 2.30798e-14 -2.10716e-14 1.52711e-14 -2.94436e-14 4.55216e-14 -2.44565e-14 -2.15077e-14 -9.76128e-16 -1.11702e-14 -4.27063e-15 1.63373e-14 1.52465e-14 1.12907e-14 3.67374e-15 -8.50948e-15 -9.85072e-15 6.45029e-15 6.62889e-14 -2.67637e-14 1.34113e-14 2.57306e-15 -3.64329e-14 2.01373e-14 3.63474e-14 -7.68103e-15 7.35453e-14 5.39726e-14 1.23565e-13 3.54576e-13 1.00258e-12 9.00548e-12 6.74438e-11 4.70487e-10 3.07456e-09 1.87693e-08 1.06728e-07 5.63168e-07 2.74582e-06 1.23088e-05 5.04326e-05 0.000187541 0.000627681 0.00187274 0.00493206 0.0113754 0.0229222 0.0406106 0.0642394 0.0926666 0.124588 0.159054 0.195541 0.233819 0.273814 0.315541 0.359063 0.404476 0.451903 0.501485 0.553382 0.607757 0.664753 0.724434 0.786635 0.850533 0.913339 0.965976 0.981859 0.966817 0.953526 0.943457 0.937819 0.935316 0.934263 0.933646 0.932974 0.932936 0.932919 0.932936 0.93323 0.934055 0.934172 0.933965 0.933715 0.933366 0.933077 0.932779 0.93254 0.932376 0.932288 0.932304 0.932969 0.934557 0.934342 0.933921 0.933286 0.932446 0.931698 0.931075 0.930585 0.930448 0.930821 0.934332 0.935174 0.934115 0.933323 0.932117 0.931839 0.930776 0.92867 0.932069 0.914417 0.884378 0.882736 0.807831 0.768511 0.669973 0.581189 0.458091 0.337625 0.221834 0.128158 0.0641917 0.0283738 0.0115346 0.00448492 0.00170669 0.000642091 0.00023968 8.88393e-05 3.26872e-05 1.19296e-05 4.3148e-06 1.54521e-06 5.47425e-07 1.917e-07 6.63069e-08 2.26387e-08 7.625e-09 2.53241e-09 8.28915e-10 2.67476e-10 8.50884e-11 2.65784e-11 8.37548e-12 2.39402e-12 6.06277e-13 2.52192e-14 3.45746e-13 -1.25631e-13 -3.43602e-14 -6.98113e-14 -2.1233e-14 6.40471e-14 1.43382e-13 -2.95095e-13 -2.97273e-14 8.21093e-14 -6.82552e-14 -1.30787e-13 6.87005e-14 -4.89622e-13 -1.13983e-13 1.28014e-13 4.85792e-14 -1.20803e-13 8.84731e-14 -3.94301e-14 1.40155e-13 1.0763e-13 2.15572e-14 -3.87788e-14 6.9303e-15 -7.07851e-14 -8.8352e-14 0 0 -4.66289e-15 1.23481e-15 1.51577e-15 -2.5732e-15 -7.64153e-15 -2.98399e-15 -6.87246e-15 1.76566e-14 7.6568e-15 2.67809e-14 5.71854e-15 -3.86703e-14 -3.12746e-15 5.29496e-15 -3.44404e-14 1.4892e-14 2.49417e-14 -1.57291e-14 -6.39692e-15 -1.65135e-14 2.83735e-14 6.08167e-14 -2.69109e-14 3.56493e-14 -1.22582e-15 -6.1073e-14 2.17494e-14 -6.07909e-15 1.8376e-14 -6.82433e-14 3.02269e-14 -2.15878e-14 1.81057e-14 -1.82066e-14 2.83926e-14 -1.33797e-14 1.49693e-14 3.7585e-14 -3.78702e-14 2.41545e-14 -7.40777e-15 1.19727e-13 -5.74396e-14 -1.59803e-14 6.01121e-14 -1.61322e-14 2.32301e-14 -4.7292e-14 -8.98835e-15 4.45067e-14 1.39409e-13 1.32463e-13 4.7505e-13 8.94334e-13 8.96063e-12 6.74324e-11 4.70485e-10 3.07452e-09 1.87693e-08 1.06728e-07 5.63168e-07 2.74582e-06 1.23088e-05 5.04326e-05 0.000187541 0.000627681 0.00187274 0.00493206 0.0113754 0.0229222 0.0406106 0.0642394 0.0926666 0.124588 0.159054 0.195541 0.233819 0.273814 0.315541 0.359063 0.404476 0.451903 0.501485 0.553382 0.607757 0.664753 0.724434 0.786635 0.850533 0.913339 0.965976 0.981859 0.966817 0.953526 0.943457 0.937819 0.935316 0.934263 0.933646 0.932974 0.932936 0.932919 0.932936 0.93323 0.934055 0.934172 0.933965 0.933715 0.933366 0.933077 0.932779 0.93254 0.932376 0.932288 0.932304 0.932969 0.934557 0.934342 0.933921 0.933286 0.932446 0.931698 0.931075 0.930585 0.930448 0.930821 0.934332 0.935174 0.934115 0.933323 0.932117 0.931839 0.930776 0.92867 0.932069 0.914417 0.884378 0.882736 0.807831 0.768511 0.669973 0.581189 0.458091 0.337625 0.221834 0.128158 0.0641917 0.0283738 0.0115346 0.00448492 0.00170669 0.000642091 0.00023968 8.88393e-05 3.26872e-05 1.19296e-05 4.3148e-06 1.54521e-06 5.47425e-07 1.917e-07 6.63069e-08 2.26388e-08 7.62511e-09 2.53225e-09 8.28946e-10 2.67416e-10 8.51433e-11 2.67559e-11 8.35753e-12 2.1308e-12 7.83308e-13 -9.62429e-14 5.56238e-13 -1.5941e-13 1.96956e-14 -2.08656e-13 -2.1063e-14 7.13877e-14 -2.62044e-14 -1.58342e-13 2.16734e-13 -2.34655e-13 6.68825e-14 -4.21226e-14 -8.6075e-14 -6.37e-13 3.26138e-14 -3.196e-14 1.30023e-13 -9.23845e-14 1.38447e-13 5.50092e-14 -1.84721e-13 2.86816e-13 3.63434e-14 1.96037e-14 -8.61675e-14 1.34131e-14 -2.7995e-13 0
				</DataArray>
				<DataArray Name="VitesseY" type="Float32" format="ascii">