<?xml version="1.0"?>
<VTKFile type="PolyData">
	<PolyData>
		<Piece NumberOfPoints="1206" NumberOfPolys="1000">
			<Points>
				<DataArray type="Float32" NumberOfComponents="3" format="ascii">
 0 0 0 0.005 0 0 0.01 0 0 0.015 0 0 0.02 0 0 0.025 0 0 0.03 0 0 0.035 0 0 0.04 0 0 0.045 0 0 0.05 0 0 0.055 0 0 0.06 0 0 0.065 0 0 0.07 0 0 0.075 0 0 0.08 0 0 0.085 0 0 0.09 0 0 0.095 0 0 0.1 0 0 0.105 0 0 0.11 0 0 0.115 0 0 0.12 0 0 0.125 0 0 0.13 0 0 0.135 0 0 0.14 0 0 0.145 0 0 0.15 0 0 0.155 0 0 0.16 0 0 0.165 0 0 0.17 0 0 0.175 0 0 0.18 0 0 0.185 0 0 0.19 0 0 0.195 0 0 0.2 0 0 0.205 0 0 0.21 0 0 0.215 0 0 0.22 0 0 0.225 0 0 0.23 0 0 0.235 0 0 0.24 0 0 0.245 0 0 0.25 0 0 0.255 0 0 0.26 0 0 0.265 0 0 0.27 0 0 0.275 0 0 0.28 0 0 0.285 0 0 0.29 0 0 0.295 0 0 0.3 0 0 0.305 0 0 0.31 0 0 0.315001 0 0 0.320004 0 0 0.325013 0 0 0.330035 0 0 0.335083 0 0 0.340179 0 0 0.345346 0 0 0.35061 0 0 0.355993 0 0 0.361512 0 0 0.367183 0 0 0.37302 0 0 0.379037 0 0 0.385248 0 0 0.391669 0 0 0.398319 0 0 0.405215 0 0 0.41238 0 0 0.419838 0 0 0.427617 0 0 0.435749 0 0 0.44427 0 0 0.45322 0 0 0.462649 0 0 0.472608 0 0 0.483153 0 0 0.494335 0 0 0.506161 0 0 0.518479 0 0 0.530838 0 0 0.543045 0 0 0.555099 0 0 0.567035 0 0 0.578901 0 0 0.590735 0 0 0.602554 0 0 0.614367 0 0 0.626176 0 0 0.628459 0 0 0.630741 0 0 0.633022 0 0 0.635303 0 0 0.637584 0 0 0.639862 0 0 0.642137 0 0 0.64441 0 0 0.64669 0 0 0.648969 0 0 0.651248 0 0 0.653529 0 0 0.655811 0 0 0.658091 0 0 0.660372 0 0 0.662653 0 0 0.664932 0 0 0.667211 0 0 0.669489 0 0 0.671768 0 0 0.674047 0 0 0.676329 0 0 0.678613 0 0 0.680897 0 0 0.683182 0 0 0.685464 0 0 0.687745 0 0 0.690024 0 0 0.692304 0 0 0.694584 0 0 0.696861 0 0 0.69914 0 0 0.701423 0 0 0.703712 0 0 0.705999 0 0 0.708281 0 0 0.710558 0 0 0.712834 0 0 0.715122 0 0 0.717449 0 0 0.71984 0 0 0.722308 0 0 0.724874 0 0 0.727653 0 0 0.73065 0 0 0.733908 0 0 0.737516 0 0 0.741478 0 0 0.745783 0 0 0.750372 0 0 0.755161 0 0 0.760065 0 0 0.765025 0 0 0.77001 0 0 0.775004 0 0 0.780001 0 0 0.785001 0 0 0.79 0 0 0.795 0 0 0.8 0 0 0.805 0 0 0.81 0 0 0.815 0 0 0.82 0 0 0.825 0 0 0.83 0 0 0.835 0 0 0.84 0 0 0.845 0 0 0.85 0 0 0.855 0 0 0.86 0 0 0.865 0 0 0.87 0 0 0.875 0 0 0.88 0 0 0.885 0 0 0.89 0 0 0.895 0 0 0.9 0 0 0.905 0 0 0.91 0 0 0.915 0 0 0.92 0 0 0.925 0 0 0.93 0 0 0.935 0 0 0.94 0 0 0.945 0 0 0.95 0 0 0.955 0 0 0.96 0 0 0.965 0 0 0.97 0 0 0.975 0 0 0.98 0 0 0.985 0 0 0.99 0 0 0.995 0 0 1 0 0 0 0.02 0 0.005 0.02 0 0.01 0.02 0 0.015 0.02 0 0.02 0.02 0 0.025 0.02 0 0.03 0.02 0 0.035 0.02 0 0.04 0.02 0 0.045 0.02 0 0.05 0.02 0 0.055 0.02 0 0.06 0.02 0 0.065 0.02 0 0.07 0.02 0 0.075 0.02 0 0.08 0.02 0 0.085 0.02 0 0.09 0.02 0 0.095 0.02 0 0.1 0.02 0 0.105 0.02 0 0.11 0.02 0 0.115 0.02 0 0.12 0.02 0 0.125 0.02 0 0.13 0.02 0 0.135 0.02 0 0.14 0.02 0 0.145 0.02 0 0.15 0.02 0 0.155 0.02 0 0.16 0.02 0 0.165 0.02 0 0.17 0.02 0 0.175 0.02 0 0.18 0.02 0 0.185 0.02 0 0.19 0.02 0 0.195 0.02 0 0.2 0.02 0 0.205 0.02 0 0.21 0.02 0 0.215 0.02 0 0.22 0.02 0 0.225 0.02 0 0.23 0.02 0 0.235 0.02 0 0.24 0.02 0 0.245 0.02 0 0.25 0.02 0 0.255 0.02 0 0.26 0.02 0 0.265 0.02 0 0.27 0.02 0 0.275 0.02 0 0.28 0.02 0 0.285 0.02 0 0.29 0.02 0 0.295 0.02 0 0.3 0.02 0 0.305 0.02 0 0.31 0.02 0 0.315001 0.02 0 0.320004 0.02 0 0.325013 0.02 0 0.330035 0.02 0 0.335083 0.02 0 0.340179 0.02 0 0.345346 0.02 0 0.35061 0.02 0 0.355993 0.02 0 0.361512 0.02 0 0.367183 0.02 0 0.37302 0.02 0 0.379037 0.02 0 0.385248 0.02 0 0.391669 0.02 0 0.398319 0.02 0 0.405215 0.02 0 0.41238 0.02 0 0.419838 0.02 0 0.427617 0.02 0 0.435749 0.02 0 0.44427 0.02 0 0.45322 0.02 0 0.462649 0.02 0 0.472608 0.02 0 0.483153 0.02 0 0.494335 0.02 0 0.506161 0.02 0 0.518479 0.02 0 0.530838 0.02 0 0.543045 0.02 0 0.555099 0.02 0 0.567035 0.02 0 0.578901 0.02 0 0.590735 0.02 0 0.602554 0.02 0 0.614367 0.02 0 0.626176 0.02 0 0.628459 0.02 0 0.630741 0.02 0 0.633022 0.02 0 0.635303 0.02 0 0.637584 0.02 0 0.639862 0.02 0 0.642137 0.02 0 0.64441 0.02 0 0.64669 0.02 0 0.648969 0.02 0 0.651248 0.02 0 0.653529 0.02 0 0.655811 0.02 0 0.658091 0.02 0 0.660372 0.02 0 0.662653 0.02 0 0.664932 0.02 0 0.667211 0.02 0 0.669489 0.02 0 0.671768 0.02 0 0.674047 0.02 0 0.676329 0.02 0 0.678613 0.02 0 0.680897 0.02 0 0.683182 0.02 0 0.685464 0.02 0 0.687745 0.02 0 0.690024 0.02 0 0.692304 0.02 0 0.694584 0.02 0 0.696861 0.02 0 0.69914 0.02 0 0.701423 0.02 0 0.703712 0.02 0 0.705999 0.02 0 0.708281 0.02 0 0.710558 0.02 0 0.712834 0.02 0 0.715122 0.02 0 0.717449 0.02 0 0.71984 0.02 0 0.722308 0.02 0 0.724874 0.02 0 0.727653 0.02 0 0.73065 0.02 0 0.733908 0.02 0 0.737516 0.02 0 0.741478 0.02 0 0.745783 0.02 0 0.750372 0.02 0 0.755161 0.02 0 0.760065 0.02 0 0.765025 0.02 0 0.77001 0.02 0 0.775004 0.02 0 0.780001 0.02 0 0.785001 0.02 0 0.79 0.02 0 0.795 0.02 0 0.8 0.02 0 0.805 0.02 0 0.81 0.02 0 0.815 0.02 0 0.82 0.02 0 0.825 0.02 0 0.83 0.02 0 0.835 0.02 0 0.84 0.02 0 0.845 0.02 0 0.85 0.02 0 0.855 0.02 0 0.86 0.02 0 0.865 0.02 0 0.87 0.02 0 0.875 0.02 0 0.88 0.02 0 0.885 0.02 0 0.89 0.02 0 0.895 0.02 0 0.9 0.02 0 0.905 0.02 0 0.91 0.02 0 0.915 0.02 0 0.92 0.02 0 0.925 0.02 0 0.93 0.02 0 0.935 0.02 0 0.94 0.02 0 0.945 0.02 0 0.95 0.02 0 0.955 0.02 0 0.96 0.02 0 0.965 0.02 0 0.97 0.02 0 0.975 0.02 0 0.98 0.02 0 0.985 0.02 0 0.99 0.02 0 0.995 0.02 0 1 0.02 0 0 0.04 0 0.005 0.04 0 0.01 0.04 0 0.015 0.04 0 0.02 0.04 0 0.025 0.04 0 0.03 0.04 0 0.035 0.04 0 0.04 0.04 0 0.045 0.04 0 0.05 0.04 0 0.055 0.04 0 0.06 0.04 0 0.065 0.04 0 0.07 0.04 0 0.075 0.04 0 0.08 0.04 0 0.085 0.04 0 0.09 0.04 0 0.095 0.04 0 0.1 0.04 0 0.105 0.04 0 0.11 0.04 0 0.115 0.04 0 0.12 0.04 0 0.125 0.04 0 0.13 0.04 0 0.135 0.04 0 0.14 0.04 0 0.145 0.04 0 0.15 0.04 0 0.155 0.04 0 0.16 0.04 0 0.165 0.04 0 0.17 0.04 0 0.175 0.04 0 0.18 0.04 0 0.185 0.04 0 0.19 0.04 0 0.195 0.04 0 0.2 0.04 0 0.205 0.04 0 0.21 0.04 0 0.215 0.04 0 0.22 0.04 0 0.225 0.04 0 0.23 0.04 0 0.235 0.04 0 0.24 0.04 0 0.245 0.04 0 0.25 0.04 0 0.255 0.04 0 0.26 0.04 0 0.265 0.04 0 0.27 0.04 0 0.275 0.04 0 0.28 0.04 0 0.285 0.04 0 0.29 0.04 0 0.295 0.04 0 0.3 0.04 0 0.305 0.04 0 0.31 0.04 0 0.315001 0.04 0 0.320004 0.04 0 0.325013 0.04 0 0.330035 0.04 0 0.335083 0.04 0 0.340179 0.04 0 0.345346 0.04 0 0.35061 0.04 0 0.355993 0.04 0 0.361512 0.04 0 0.367183 0.04 0 0.37302 0.04 0 0.379037 0.04 0 0.385248 0.04 0 0.391669 0.04 0 0.398319 0.04 0 0.405215 0.04 0 0.41238 0.04 0 0.419838 0.04 0 0.427617 0.04 0 0.435749 0.04 0 0.44427 0.04 0 0.45322 0.04 0 0.462649 0.04 0 0.472608 0.04 0 0.483153 0.04 0 0.494335 0.04 0 0.506161 0.04 0 0.518479 0.04 0 0.530838 0.04 0 0.543045 0.04 0 0.555099 0.04 0 0.567035 0.04 0 0.578901 0.04 0 0.590735 0.04 0 0.602554 0.04 0 0.614367 0.04 0 0.626176 0.04 0 0.628459 0.04 0 0.630741 0.04 0 0.633022 0.04 0 0.635303 0.04 0 0.637584 0.04 0 0.639862 0.04 0 0.642137 0.04 0 0.64441 0.04 0 0.64669 0.04 0 0.648969 0.04 0 0.651248 0.04 0 0.653529 0.04 0 0.655811 0.04 0 0.658091 0.04 0 0.660372 0.04 0 0.662653 0.04 0 0.664932 0.04 0 0.667211 0.04 0 0.669489 0.04 0 0.671768 0.04 0 0.674047 0.04 0 0.676329 0.04 0 0.678613 0.04 0 0.680897 0.04 0 0.683182 0.04 0 0.685464 0.04 0 0.687745 0.04 0 0.690024 0.04 0 0.692304 0.04 0 0.694584 0.04 0 0.696861 0.04 0 0.69914 0.04 0 0.701423 0.04 0 0.703712 0.04 0 0.705999 0.04 0 0.708281 0.04 0 0.710558 0.04 0 0.712834 0.04 0 0.715122 0.04 0 0.717449 0.04 0 0.71984 0.04 0 0.722308 0.04 0 0.724874 0.04 0 0.727653 0.04 0 0.73065 0.04 0 0.733908 0.04 0 0.737516 0.04 0 0.741478 0.04 0 0.745783 0.04 0 0.750372 0.04 0 0.755161 0.04 0 0.760065 0.04 0 0.765025 0.04 0 0.77001 0.04 0 0.775004 0.04 0 0.780001 0.04 0 0.785001 0.04 0 0.79 0.04 0 0.795 0.04 0 0.8 0.04 0 0.805 0.04 0 0.81 0.04 0 0.815 0.04 0 0.82 0.04 0 0.825 0.04 0 0.83 0.04 0 0.835 0.04 0 0.84 0.04 0 0.845 0.04 0 0.85 0.04 0 0.855 0.04 0 0.86 0.04 0 0.865 0.04 0 0.87 0.04 0 0.875 0.04 0 0.88 0.04 0 0.885 0.04 0 0.89 0.04 0 0.895 0.04 0 0.9 0.04 0 0.905 0.04 0 0.91 0.04 0 0.915 0.04 0 0.92 0.04 0 0.925 0.04 0 0.93 0.04 0 0.935 0.04 0 0.94 0.04 0 0.945 0.04 0 0.95 0.04 0 0.955 0.04 0 0.96 0.04 0 0.965 0.04 0 0.97 0.04 0 0.975 0.04 0 0.98 0.04 0 0.985 0.04 0 0.99 0.04 0 0.995 0.04 0 1 0.04 0 0 0.06 0 0.005 0.06 0 0.01 0.06 0 0.015 0.06 0 0.02 0.06 0 0.025 0.06 0 0.03 0.06 0 0.035 0.06 0 0.04 0.06 0 0.045 0.06 0 0.05 0.06 0 0.055 0.06 0 0.06 0.06 0 0.065 0.06 0 0.07 0.06 0 0.075 0.06 0 0.08 0.06 0 0.085 0.06 0 0.09 0.06 0 0.095 0.06 0 0.1 0.06 0 0.105 0.06 0 0.11 0.06 0 0.115 0.06 0 0.12 0.06 0 0.125 0.06 0 0.13 0.06 0 0.135 0.06 0 0.14 0.06 0 0.145 0.06 0 0.15 0.06 0 0.155 0.06 0 0.16 0.06 0 0.165 0.06 0 0.17 0.06 0 0.175 0.06 0 0.18 0.06 0 0.185 0.06 0 0.19 0.06 0 0.195 0.06 0 0.2 0.06 0 0.205 0.06 0 0.21 0.06 0 0.215 0.06 0 0.22 0.06 0 0.225 0.06 0 0.23 0.06 0 0.235 0.06 0 0.24 0.06 0 0.245 0.06 0 0.25 0.06 0 0.255 0.06 0 0.26 0.06 0 0.265 0.06 0 0.27 0.06 0 0.275 0.06 0 0.28 0.06 0 0.285 0.06 0 0.29 0.06 0 0.295 0.06 0 0.3 0.06 0 0.305 0.06 0 0.31 0.06 0 0.315001 0.06 0 0.320004 0.06 0 0.325013 0.06 0 0.330035 0.06 0 0.335083 0.06 0 0.340179 0.06 0 0.345346 0.06 0 0.35061 0.06 0 0.355993 0.06 0 0.361512 0.06 0 0.367183 0.06 0 0.37302 0.06 0 0.379037 0.06 0 0.385248 0.06 0 0.391669 0.06 0 0.398319 0.06 0 0.405215 0.06 0 0.41238 0.06 0 0.419838 0.06 0 0.427617 0.06 0 0.435749 0.06 0 0.44427 0.06 0 0.45322 0.06 0 0.462649 0.06 0 0.472608 0.06 0 0.483153 0.06 0 0.494335 0.06 0 0.506161 0.06 0 0.518479 0.06 0 0.530838 0.06 0 0.543045 0.06 0 0.555099 0.06 0 0.567035 0.06 0 0.578901 0.06 0 0.590735 0.06 0 0.602554 0.06 0 0.614367 0.06 0 0.626176 0.06 0 0.628459 0.06 0 0.630741 0.06 0 0.633022 0.06 0 0.635303 0.06 0 0.637584 0.06 0 0.639862 0.06 0 0.642137 0.06 0 0.64441 0.06 0 0.64669 0.06 0 0.648969 0.06 0 0.651248 0.06 0 0.653529 0.06 0 0.655811 0.06 0 0.658091 0.06 0 0.660372 0.06 0 0.662653 0.06 0 0.664932 0.06 0 0.667211 0.06 0 0.669489 0.06 0 0.671768 0.06 0 0.674047 0.06 0 0.676329 0.06 0 0.678613 0.06 0 0.680897 0.06 0 0.683182 0.06 0 0.685464 0.06 0 0.687745 0.06 0 0.690024 0.06 0 0.692304 0.06 0 0.694584 0.06 0 0.696861 0.06 0 0.69914 0.06 0 0.701423 0.06 0 0.703712 0.06 0 0.705999 0.06 0 0
[...]
			<PointData Scalars="VitesseX">
				<DataArray Name="VitesseX" type="Float32" format="ascii">
 0 1.40874e-15 8.48074e-16 -1.63719e-15 2.55516e-15 -3.49713e-15 2.7618e-15 -1.34246e-15 3.95214e-15 -3.49814e-15 1.39381e-15 8.27463e-15 -4.95178e-15 1.35846e-14 1.175e-14 -6.41612e-15 1.38413e-14 7.01118e-15 -1.30255e-14 1.29756e-14 5.34449e-15 3.34603e-15 -1.10337e-14 1.53935e-14 -9.18573e-15 2.77697e-15 2.46403e-14 -5.77806e-15 1.72277e-14 -2.02347e-15 3.13599e-14 2.34508e-14 -8.53018e-15 4.66172e-15 -9.71867e-15 1.18622e-14 -7.13019e-15 -9.41849e-15 2.28122e-14 8.02465e-15 2.82295e-16 -2.2369e-14 -4.95996e-16 2.61184e-14 -1.17367e-14 4.17122e-14 2.51872e-14 2.66149e-14 5.98648e-14 1.07688e-13 9.6517e-14 8.90111e-13 6.65769e-12 4.8279e-11 3.23027e-10 2.03628e-09 1.20417e-08 6.65991e-08 3.4336e-07 1.64393e-06 7.27704e-06 2.96298e-05 0.000110293 0.000372607 0.00113284 0.00307126 0.00736254 0.0155285 0.0288625 0.0477564 0.0715664 0.0991348 0.129405 0.161687 0.195619 0.231045 0.267919 0.306254 0.346099 0.387527 0.430632 0.475523 0.522326 0.571172 0.622195 0.675508 0.731155 0.788986 0.848334 0.907032 0.9583 0.981433 0.968836 0.956483 0.945853 0.939238 0.935978 0.934551 0.93383 0.933338 0.933467 0.93362 0.933669 0.933616 0.933479 0.933329 0.933196 0.933074 0.933003 0.932983 0.933055 0.933742 0.934246 0.934003 0.933549 0.933237 0.932776 0.932421 0.932105 0.931939 0.931907 0.932586 0.934671 0.93455 0.934113 0.933532 0.932689 0.932019 0.931382 0.930816 0.930435 0.930298 0.930594 0.933821 0.934575 0.933094 0.929962 0.930006 0.929449 0.916723 0.93093 0.86027 0.888242 0.768503 0.699748 0.66038 0.520263 0.408961 0.283245 0.176401 0.0953972 0.0450116 0.0190861 0.00759543 0.00292907 0.00111281 0.000419372 0.000157129 5.85529e-05 2.16917e-05 7.98324e-06 2.91639e-06 1.05663e-06 3.79367e-07 1.34868e-07 4.74414e-08 1.65012e-08 5.67178e-09 1.92553e-09 6.45267e-10 2.1342e-10 6.96252e-11 2.25136e-11 7.11132e-12 2.16168e-12 6.24073e-13 2.2941e-13 -4.84491e-14 -8.21952e-14 -8.74139e-14 -2.43387e-14 1.42246e-13 -1.80867e-13 9.54408e-14 8.34111e-14 -1.74058e-13 -6.50583e-14 7.56366e-14 -7.35254e-14 -9.43036e-16 -3.83217e-14 -2.47657e-14 -1.06664e-14 -3.61968e-14 4.0948e-14 -6.04484e-14 7.37056e-14 -4.32749e-14 3.57605e-14 2.97865e-14 0 0 -1.24144e-15 1.67724e-15 1.68091e-16 -1.38905e-17 1.77112e-15 3.35968e-16 -6.35965e-16 -1.98204e-15 5.9095e-15 6.44874e-15 -2.69249e-16 6.9665e-15 -8.02737e-17 8.8245e-15 2.49424e-15 -1.39591e-15 3.91963e-15 8.34079e-15 -3.93256e-15 1.21578e-14 1.11598e-14 -8.262e-15 4.99933e-15 -8.89523e-15 1.73064e-14 1.52107e-14 -1.1076e-14 9.39603e-15 4.18506e-15 2.31549e-14 -5.13311e-15 2.36051e-14 -6.13626e-15 8.62474e-15 -1.11074e-15 -7.38094e-15 6.94552e-15 1.15109e-14 2.47797e-17 -4.95881e-15 1.57582e-15 8.79173e-15 1.19451e-14 1.55581e-14 -1.38614e-14 2.8988e-14 4.87648e-14 5.9182e-14 5.96947e-14 1.73291e-13 8.73292e-13 6.71516e-12 4.81867e-11 3.22978e-10 2.03634e-09 1.20417e-08 6.65992e-08 3.4336e-07 1.64393e-06 7.27704e-06 2.96298e-05 0.000110293 0.000372607 0.00113284 0.00307126 0.00736254 0.0155285 0.0288625 0.0477564 0.0715664 0.0991348 0.129405 0.161687 0.195619 0.231045 0.267919 0.306254 0.346099 0.387527 0.430632 0.475523 0.522326 0.571172 0.622195 0.675508 0.731155 0.788986 0.848334 0.907032 0.9583 0.981433 0.968836 0.956483 0.945853 0.939238 0.935978 0.934551 0.93383 0.933338 0.933467 0.93362 0.933669 0.933616 0.933479 0.933329 0.933196 0.933074 0.933003 0.932983 0.933055 0.933742 0.934246 0.934003 0.933549 0.933237 0.932776 0.932421 0.932105 0.931939 0.931907 0.932586 0.934671 0.93455 0.934113 0.933532 0.932689 0.932019 0.931382 0.930816 0.930435 0.930298 0.930594 0.933821 0.934575 0.933094 0.929962 0.930006 0.929449 0.916723 0.93093 0.86027 0.888242 0.768503 0.699748 0.66038 0.520263 0.408961 0.283245 0.176401 0.0953972 0.0450116 0.0190861 0.00759543 0.00292907 0.00111281 0.000419372 0.000157129 5.85529e-05 2.16917e-05 7.98324e-06 2.91639e-06 1.05663e-06 3.79367e-07 1.34868e-07 4.74414e-08 1.65011e-08 5.67184e-09 1.92546e-09 6.45336e-10 2.13477e-10 6.95411e-11 2.25054e-11 7.09287e-12 2.24419e-12 6.44951e-13 1.86596e-13 -9.93173e-15 -8.53869e-14 -3.0829e-14 6.65788e-15 -5.31221e-14 1.4201e-14 -8.85085e-14 -5.36488e-15 7.48407e-14 -5.25653e-14 -9.76409e-14 9.23656e-14 -6.63258e-14 -5.17132e-14 -4.80044e-14 4.15149e-15 6.54489e-14 -1.24738e-14 -1.66626e-14 -3.65798e-14 1.07865e-13 -5.42619e-14 -4.2308e-14 0 0 2.78343e-16 4.32152e-16 1.23082e-15 -3.37765e-17 5.07214e-15 -6.06423e-16 1.05402e-15 -4.31222e-15 3.66674e-15 5.96664e-15 -5.65759e-15 2.49071e-15 8.68134e-15 1.30305e-14 -7.52067e-16 -1.25516e-14 9.82766e-15 6.53994e-15 4.30079e-15 7.8229e-15 2.78123e-15 -4.36751e-15 1.37479e-14 1.16783e-14 1.59393e-14 -2.12526e-14 2.20608e-14 1.02636e-14 -2.71342e-14 1.04813e-14 -6.0978e-15 2.06919e-14 5.40747e-15 -3.79289e-15 9.69319e-15 -1.49522e-14 1.46408e-14 2.20923e-14 -1.58191e-14 -1.51492e-14 3.19539e-14 1.02907e-14 -8.94102e-15 3.81813e-14 -2.61094e-14 7.23463e-14 -4.17491e-15 1.59914e-14 6.90306e-14 1.90045e-13 9.50415e-13 6.68018e-12 4.81572e-11 3.22951e-10 2.03639e-09 1.20416e-08 6.65993e-08 3.4336e-07 1.64393e-06 7.27704e-06 2.96298e-05 0.000110293 0.000372607 0.00113284 0.00307126 0.00736254 0.0155285 0.0288625 0.0477564 0.0715664 0.0991348 0.129405 0.161687 0.195619 0.231045 0.267919 0.306254 0.346099 0.387527 0.430632 0.475523 0.522326 0.571172 0.622195 0.675508 0.731155 0.788986 0.848334 0.907032 0.9583 0.981433 0.968836 0.956483 0.945853 0.939238 0.935978 0.934551 0.93383 0.933338 0.933467 0.93362 0.933669 0.933616 0.933479 0.933329 0.933196 0.933074 0.933003 0.932983 0.933055 0.933742 0.934246 0.934003 0.933549 0.933237 0.932776 0.932421 0.932105 0.931939 0.931907 0.932586 0.934671 0.93455 0.934113 0.933532 0.932689 0.932019 0.931382 0.930816 0.930435 0.930298 0.930594 0.933821 0.934575 0.933094 0.929962 0.930006 0.929449 0.916723 0.93093 0.86027 0.888242 0.768503 0.699748 0.66038 0.520263 0.408961 0.283245 0.176401 0.0953972 0.0450116 0.0190861 0.00759543 0.00292907 0.00111281 0.000419372 0.000157129 5.85529e-05 2.16917e-05 7.98324e-06 2.91639e-06 1.05663e-06 3.79367e-07 1.34868e-07 4.74413e-08 1.65012e-08 5.67188e-09 1.92544e-09 6.45352e-10 2.13464e-10 6.96456e-11 2.24442e-11 7.13704e-12 2.19229e-12 7.65861e-13 1.74094e-13 8.39281e-14 -3.01681e-13 9.88595e-14 6.56226e-14 -1.61639e-13 -5.65334e-14 -5.74116e-14 -1.2828e-13 8.7572e-14 7.66738e-14 -1.26102e-13 8.37837e-14 -7.83027e-14 -9.97662e-14 -4.23183e-15 6.99915e-14 -1.03411e-14 -3.28349e-15 -3.07044e-14 7.99138e-14 -9.38974e-15 -3.45688e-14 6.38862e-14 0 0 2.05353e-15 1.14633e-15 2.13658e-15 2.32197e-15 9.39293e-15 1.70376e-16 4.3443e-15 -7.15179e-16 -3.87988e-15 -8.19762e-15 4.74179e-15 -2.92614e-15 1.53891e-14 4.70778e-16 -9.95089e-15 5.52467e-15 1.95019e-14 3.26124e-15 3.55792e-15 -6.47733e-15 3.46953e-15 1.27051e-14 6.65678e-15 2.59827e-14 -5.58017e-15 -2.31e-15 3.57534e-14 -1.37321e-15 -2.9224e-14 -1.07357e-14 2.80037e-14 -2.04333e-14 1.31799e-14 -1.40169e-14 3.21064e-14 -3.7521e-14 1.07e-14 1.7829e-14 1.07506e-14 4.32756e-14 -8.78808e-16 -1.03001e-14 -5.83725e-15 1.89563e-15 3.28313e-14 3.11153e-14 2.58487e-14 -2.4097e-14 1.13543e-13 1.62826e-13 9.83947e-13 6.67026e-12 4.81122e-11 3.23026e-10 2.0363e-09 1.20416e-08 6.65991e-08 3.43361e-07 1.64393e-06 7.27704e-06 2.96298e-05 0.000110293 0.000372607 0.00113284 0.00307126 0.00736254 0.0155285 0.0288625 0.0477564 0.0715664 0.0991348 0.129405 0.161687 0.195619 0.231045 0.267919 0.306254 0.346099 0.387527 0.430632 0.475523 0.522326 0.571172 0.622195 0.675508 0.731155 0.788986 0.848334 0.907032 0.9583 0.981433 0.968836 0.956483 0.945853 0.939238 0.935978 0.934551 0.93383 0.933338 0.933467 0.93362 0.933669 0.933616 0.933479 0.933329 0.933196 0.933074 0.933003 0.932983 0.933055 0.933742 0.934246 0.934003 0.933549 0.933237 0.932776 0.932421 0.932105 0.931939 0.931907 0.932586 0.934671 0.93455 0.934113 0.933532 0.932689 0.932019 0.931382 0.930816 0.930435 0.930298 0.930594 0.933821 0.934575 0.933094 0.929962 0.930006 0.929449 0.916723 0.93093 0.86027 0.888242 0.768503 0.699748 0.66038 0.520263 0.408961 0.283245 0.176401 0.0953972 0.0450116 0.0190861 0.00759543 0.00292907 0.00111281 0.000419372 0.000157129 5.85529e-05 2.16917e-05 7.98324e-06 2.91639e-06 1.05663e-06 3.79367e-07 1.34868e-07 4.74413e-08 1.65013e-08 5.67183e-09 1.92546e-09 6.45289e-10 2.13582e-10 6.97602e-11 2.2366e-11 7.112e-12 2.19195e-12 8.00012e-13 1.34866e-13 1.22609e-13 -2.27948e-13 -1.17068e-13 8.52096e-14 -3.41029e-15 -1.29082e-13 -2.62332e-14 -1.35574e-13 1.30502e-13 7.0547e-15 -3.96119e-14 -1.50213e-13 -6.09527e-14 7.05823e-14 -1.03736e-13 4.65404e-14 -1.54741e-13 8.21661e-15 1.01753e-13 1.10981e-13 -1.19e-13 1.52336e-13 1.08055e-13 0 0 3.35738e-15 4.70338e-15 1.45091e-15 6.59252e-15 8.55574e-15 1.65569e-15 -1.1145e-16 -3.14459e-15 1.1203e-15 -1.83547e-14 5.94895e-15 4.24455e-15 1.32877e-15 -7.41825e-15 4.68783e-15 7.04757e-15 7.04899e-15 3.35578e-14 -2.06586e-14 1.49951e-14 1.31953e-14 -8.30979e-15 -1.04995e-14 -1.6246e-15 1.74719e-14 -4.43111e-16 3.1533e-14 -2.84705e-14 -2.03999e-15 -1.0219e-14 2.35661e-14 -4.62207e-15 -2.3861e-14 6.0415e-15 3.61051e-14 -4.05311e-14 6.77941e-15 -2.00053e-14 3.97276e-14 1.01182e-13 -2.31597e-14 -1.57692e-14 2.71065e-14 -5.4974e-15 -2.25754e-14 -4.26133e-14 6.82964e-14 4.63456e-14 1.01018e-13 2.58702e-13 9.29483e-13 6.73899e-12 4.79523e-11 3.23087e-10 2.03625e-09 1.20417e-08 6.65991e-08 3.4336e-07 1.64393e-06 7.27704e-06 2.96298e-05 0.000110293 0.000372607 0.00113284 0.00307126 0.00736254 0.0155285 0.0288625 0.0477564 0.0715664 0.0991348 0.129405 0.161687 0.195619 0.231045 0.267919 0.306254 0.346099 0.387527 0.430632 0.475523 0.522326 0.571172 0.622195 0.675508 0.731155 0.788986 0.848334 0.907032 0.9583 0.981433 0.968836 0.956483 0.945853 0.939238 0.935978 0.934551 0.93383 0.933338 0.933467 0.93362 0.933669 0.933616 0.933479 0.933329 0.933196 0.933074 0.933003 0.932983 0.933055 0.933742 0.934246 0.934003 0.933549 0.933237 0.932776 0.932421 0.932105 0.931939 0.931907 0.932586 0.934671 0.93455 0.934113 0.933532 0.932689 0.932019 0.931382 0.930816 0.930435 0.930298 0.930594 0.933821 0.934575 0.933094 0.929962 0.930006 0.929449 0.916723 0.93093 0.86027 0.888242 0.768503 0.699748 0.66038 0.520263 0.408961 0.283245 0.176401 0.0953972 0.0450116 0.0190861 0.00759543 0.00292907 0.00111281 0.000419372 0.000157129 5.85529e-05 2.16917e-05 7.98324e-06 2.91639e-06 1.05663e-06 3.79366e-07 1.34868e-07 4.74414e-08 1.65013e-08 5.67192e-09 1.92555e-09 6.45344e-10 2.13622e-10 6.9604e-11 2.23635e-11 7.17928e-12 2.2981e-12 7.05715e-13 2.23317e-13 5.65668e-14 -1.40952e-13 -4.93739e-14 1.13292e-13 -7.3585e-14 3.34041e-15 -9.68465e-14 -1.80672e-13 9.51781e-14 2.54758e-14 -1.01861e-13 -2.56353e-13 -1.34381e-13 9.00678e-14 -7.02008e-14 -6.63011e-14 7.82667e-14 -1.21174e-14 1.29191e-13 -1.0089e-13 9.43325e-14 2.13465e-13 5.22267e-15 0 0 7.05602e-15 5.47199e-15 -8.83077e-16 1.10565e-14 1.43055e-15 3.84764e-15 -6.874e-15 -5.56706e-15 2.01669e-15 -1.98846e-14 -8.775e-17 4.37998e-16 2.98711e-15 4.38406e-15 1.63687e-14 -5.4243e-15 -6.0786e-15 4.3966e-14 -1.89907e-14 3.96196e-14 6.04025e-15 -4.52746e-14 -1.42198e-15 -2.32533e-14 4.61468e-14 -4.45525e-14 5.20549e-14 -3.52318e-14 -1.02938e-14 7.04611e-15 1.26463e-14 1.72659e-14 -4.63327e-14 5.56278e-15 4.14674e-14 -2.8293e-14 -1.86911e-15 -3.16936e-14 3.42908e-14 9.57148e-14 -6.1746e-15 -8.43624e-15 5.02337e-14 1.87237e-14 -9.35972e-14 -3.55534e-14 5.63078e-15 1.14369e-13 1.0131e-13 3.21777e-13 9.3543e-13 6.72521e-12 4.79003e-11 3.23095e-10 2.03627e-09 1.20416e-08 6.65992e-08 3.4336e-07 1.64393e-06 7.27704e-06 2.96298e-05 0.000110293 0.000372607 0.00113284 0.00307126 0.00736254 0.0155285 0.0288625 0.0477564 0.0715664 0.0991348 0.129405 0.161687 0.195619 0.231045 0.267919 0.306254 0.346099 0.387527 0.430632 0.475523 0.522326 0.571172 0.622195 0.675508 0.731155 0.788986 0.848334 0.907032 0.9583 0.981433 0.968836 0.956483 0.945853 0.939238 0.935978 0.934551 0.93383 0.933338 0.933467 0.93362 0.933669 0.933616 0.933479 0.933329 0.933196 0.933074 0.933003 0.932983 0.933055 0.933742 0.934246 0.934003 0.933549 0.933237 0.932776 0.932421 0.932105 0.931939 0.931907 0.932586 0.934671 0.93455 0.934113 0.933532 0.932689 0.932019 0.931382 0.930816 0.930435 0.930298 0.930594 0.933821 0.934575 0.933094 0.929962 0.930006 0.929449 0.916723 0.93093 0.86027 0.888242 0.768503 0.699748 0.66038 0.520263 0.408961 0.283245 0.176401 0.0953972 0.0450116 0.0190861 0.00759543 0.00292907 0.00111281 0.000419372 0.000157129 5.85529e-05 2.16917e-05 7.98324e-06 2.91639e-06 1.05663e-06 3.79366e-07 1.34868e-07 4.74415e-08 1.65011e-08 5.67205e-09 1.92566e-09 6.4541e-10 2.13474e-10 6.95221e-11 2.23864e-11 7.33391e-12 2.26984e-12 6.77266e-13 3.81579e-13 7.30148e-15 -3.4081e-13 3.07269e-13 1.49078e-13 -2.15211e-13 -5.70062e-14 1.59646e-14 -2.53146e-13 -2.19519e-13 2.30137e-13 -1.0574e-13 -3.02975e-13 -1.7162e-13 -9.5614e-14 1.29386e-13 -1.04888e-13 2.78085e-13 1.82168e-14 -3.42621e-14 -1.16392e-13 1.49454e-13 1.96658e-13 3.5711e-14 0
				</DataArray>
				<DataArray Name="VitesseY" type="Float32" format="ascii">