<?xml version="1.0"?>
<VTKFile type="PolyData">
	<PolyData>
		<Piece NumberOfPoints="1206" NumberOfPolys="1000">
			<Points>
				<DataArray type="Float32" NumberOfComponents="3" format="ascii">
 0 0 0 0.005 0 0 0.01 0 0 0.015 0 0 0.02 0 0 0.025 0 0 0.03 0 0 0.035 0 0 0.04 0 0 0.045 0 0 0.05 0 0 0.055 0 0 0.06 0 0 0.065 0 0 0.07 0 0 0.075 0 0 0.08 0 0 0.085 0 0 0.09 0 0 0.095 0 0 0.1 0 0 0.105 0 0 0.11 0 0 0.115 0 0 0.12 0 0 0.125 0 0 0.13 0 0 0.135 0 0 0.14 0 0 0.145 0 0 0.15 0 0 0.155 0 0 0.16 0 0 0.165 0 0 0.17 0 0 0.175 0 0 0.18 0 0 0.185 0 0 0.19 0 0 0.195 0 0 0.2 0 0 0.205 0 0 0.21 0 0 0.215 0 0 0.22 0 0 0.225 0 0 0.23 0 0 0.235 0 0 0.24 0 0 0.245 0 0 0.25 0 0 0.255 0 0 0.26 0 0 0.265 0 0 0.27 0 0 0.275 0 0 0.28 0 0 0.285 0 0 0.29 0 0 0.295 0 0 0.3 0 0 0.305 0 0 0.31 0 0 0.315 0 0 0.32 0 0 0.325 0 0 0.33 0 0 0.335 0 0 0.340001 0 0 0.345004 0 0 0.350012 0 0 0.355035 0 0 0.360088 0 0 0.365198 0 0 0.370394 0 0 0.37571 0 0 0.381173 0 0 0.386806 0 0 0.392629 0 0 0.398662 0 0 0.404927 0 0 0.411446 0 0 0.418243 0 0 0.425349 0 0 0.432795 0 0 0.440621 0 0 0.44887 0 0 0.457595 0 0 0.466857 0 0 0.476724 0 0 0.487271 0 0 0.498562 0 0 0.510581 0 0 0.523021 0 0 0.535347 0 0 0.547493 0 0 0.559478 0 0 0.571365 0 0 0.583208 0 0 0.595033 0 0 0.606853 0 0 0.609134 0 0 0.611415 0 0 0.613696 0 0 0.615976 0 0 0.618256 0 0 0.620535 0 0 0.622809 0 0 0.625083 0 0 0.627362 0 0 0.629642 0 0 0.631924 0 0 0.634207 0 0 0.63649 0 0 0.638772 0 0 0.641053 0 0 0.643334 0 0 0.645615 0 0 0.647894 0 0 0.650173 0 0 0.652452 0 0 0.654732 0 0 0.657014 0 0 0.6593 0 0 0.661588 0 0 0.663876 0 0 0.666162 0 0 0.668445 0 0 0.670725 0 0 0.673005 0 0 0.675283 0 0 0.677557 0 0 0.679852 0 0 0.682189 0 0 0.684579 0 0 0.687039 0 0 0.689658 0 0 0.692455 0 0 0.695449 0 0 0.698756 0 0 0.702393 0 0 0.706393 0 0 0.710729 0 0 0.715342 0 0 0.720146 0 0 0.725058 0 0 0.730022 0 0 0.735008 0 0 0.740003 0 0 0.745001 0 0 0.75 0 0 0.755 0 0 0.76 0 0 0.765 0 0 0.77 0 0 0.775 0 0 0.78 0 0 0.785 0 0 0.79 0 0 0.795 0 0 0.8 0 0 0.805 0 0 0.81 0 0 0.815 0 0 0.82 0 0 0.825 0 0 0.83 0 0 0.835 0 0 0.84 0 0 0.845 0 0 0.85 0 0 0.855 0 0 0.86 0 0 0.865 0 0 0.87 0 0 0.875 0 0 0.88 0 0 0.885 0 0 0.89 0 0 0.895 0 0 0.9 0 0 0.905 0 0 0.91 0 0 0.915 0 0 0.92 0 0 0.925 0 0 0.93 0 0 0.935 0 0 0.94 0 0 0.945 0 0 0.95 0 0 0.955 0 0 0.96 0 0 0.965 0 0 0.97 0 0 0.975 0 0 0.98 0 0 0.985 0 0 0.99 0 0 0.995 0 0 1 0 0 0 0.02 0 0.005 0.02 0 0.01 0.02 0 0.015 0.02 0 0.02 0.02 0 0.025 0.02 0 0.03 0.02 0 0.035 0.02 0 0.04 0.02 0 0.045 0.02 0 0.05 0.02 0 0.055 0.02 0 0.06 0.02 0 0.065 0.02 0 0.07 0.02 0 0.075 0.02 0 0.08 0.02 0 0.085 0.02 0 0.09 0.02 0 0.095 0.02 0 0.1 0.02 0 0.105 0.02 0 0.11 0.02 0 0.115 0.02 0 0.12 0.02 0 0.125 0.02 0 0.13 0.02 0 0.135 0.02 0 0.14 0.02 0 0.145 0.02 0 0.15 0.02 0 0.155 0.02 0 0.16 0.02 0 0.165 0.02 0 0.17 0.02 0 0.175 0.02 0 0.18 0.02 0 0.185 0.02 0 0.19 0.02 0 0.195 0.02 0 0.2 0.02 0 0.205 0.02 0 0.21 0.02 0 0.215 0.02 0 0.22 0.02 0 0.225 0.02 0 0.23 0.02 0 0.235 0.02 0 0.24 0.02 0 0.245 0.02 0 0.25 0.02 0 0.255 0.02 0 0.26 0.02 0 0.265 0.02 0 0.27 0.02 0 0.275 0.02 0 0.28 0.02 0 0.285 0.02 0 0.29 0.02 0 0.295 0.02 0 0.3 0.02 0 0.305 0.02 0 0.31 0.02 0 0.315 0.02 0 0.32 0.02 0 0.325 0.02 0 0.33 0.02 0 0.335 0.02 0 0.340001 0.02 0 0.345004 0.02 0 0.350012 0.02 0 0.355035 0.02 0 0.360088 0.02 0 0.365198 0.02 0 0.370394 0.02 0 0.37571 0.02 0 0.381173 0.02 0 0.386806 0.02 0 0.392629 0.02 0 0.398662 0.02 0 0.404927 0.02 0 0.411446 0.02 0 0.418243 0.02 0 0.425349 0.02 0 0.432795 0.02 0 0.440621 0.02 0 0.44887 0.02 0 0.457595 0.02 0 0.466857 0.02 0 0.476724 0.02 0 0.487271 0.02 0 0.498562 0.02 0 0.510581 0.02 0 0.523021 0.02 0 0.535347 0.02 0 0.547493 0.02 0 0.559478 0.02 0 0.571365 0.02 0 0.583208 0.02 0 0.595033 0.02 0 0.606853 0.02 0 0.609134 0.02 0 0.611415 0.02 0 0.613696 0.02 0 0.615976 0.02 0 0.618256 0.02 0 0.620535 0.02 0 0.622809 0.02 0 0.625083 0.02 0 0.627362 0.02 0 0.629642 0.02 0 0.631924 0.02 0 0.634207 0.02 0 0.63649 0.02 0 0.638772 0.02 0 0.641053 0.02 0 0.643334 0.02 0 0.645615 0.02 0 0.647894 0.02 0 0.650173 0.02 0 0.652452 0.02 0 0.654732 0.02 0 0.657014 0.02 0 0.6593 0.02 0 0.661588 0.02 0 0.663876 0.02 0 0.666162 0.02 0 0.668445 0.02 0 0.670725 0.02 0 0.673005 0.02 0 0.675283 0.02 0 0.677557 0.02 0 0.679852 0.02 0 0.682189 0.02 0 0.684579 0.02 0 0.687039 0.02 0 0.689658 0.02 0 0.692455 0.02 0 0.695449 0.02 0 0.698756 0.02 0 0.702393 0.02 0 0.706393 0.02 0 0.710729 0.02 0 0.715342 0.02 0 0.720146 0.02 0 0.725058 0.02 0 0.730022 0.02 0 0.735008 0.02 0 0.740003 0.02 0 0.745001 0.02 0 0.75 0.02 0 0.755 0.02 0 0.76 0.02 0 0.765 0.02 0 0.77 0.02 0 0.775 0.02 0 0.78 0.02 0 0.785 0.02 0 0.79 0.02 0 0.795 0.02 0 0.8 0.02 0 0.805 0.02 0 0.81 0.02 0 0.815 0.02 0 0.82 0.02 0 0.825 0.02 0 0.83 0.02 0 0.835 0.02 0 0.84 0.02 0 0.845 0.02 0 0.85 0.02 0 0.855 0.02 0 0.86 0.02 0 0.865 0.02 0 0.87 0.02 0 0.875 0.02 0 0.88 0.02 0 0.885 0.02 0 0.89 0.02 0 0.895 0.02 0 0.9 0.02 0 0.905 0.02 0 0.91 0.02 0 0.915 0.02 0 0.92 0.02 0 0.925 0.02 0 0.93 0.02 0 0.935 0.02 0 0.94 0.02 0 0.945 0.02 0 0.95 0.02 0 0.955 0.02 0 0.96 0.02 0 0.965 0.02 0 0.97 0.02 0 0.975 0.02 0 0.98 0.02 0 0.985 0.02 0 0.99 0.02 0 0.995 0.02 0 1 0.02 0 0 0.04 0 0.005 0.04 0 0.01 0.04 0 0.015 0.04 0 0.02 0.04 0 0.025 0.04 0 0.03 0.04 0 0.035 0.04 0 0.04 0.04 0 0.045 0.04 0 0.05 0.04 0 0.055 0.04 0 0.06 0.04 0 0.065 0.04 0 0.07 0.04 0 0.075 0.04 0 0.08 0.04 0 0.085 0.04 0 0.09 0.04 0 0.095 0.04 0 0.1 0.04 0 0.105 0.04 0 0.11 0.04 0 0.115 0.04 0 0.12 0.04 0 0.125 0.04 0 0.13 0.04 0 0.135 0.04 0 0.14 0.04 0 0.145 0.04 0 0.15 0.04 0 0.155 0.04 0 0.16 0.04 0 0.165 0.04 0 0.17 0.04 0 0.175 0.04 0 0.18 0.04 0 0.185 0.04 0 0.19 0.04 0 0.195 0.04 0 0.2 0.04 0 0.205 0.04 0 0.21 0.04 0 0.215 0.04 0 0.22 0.04 0 0.225 0.04 0 0.23 0.04 0 0.235 0.04 0 0.24 0.04 0 0.245 0.04 0 0.25 0.04 0 0.255 0.04 0 0.26 0.04 0 0.265 0.04 0 0.27 0.04 0 0.275 0.04 0 0.28 0.04 0 0.285 0.04 0 0.29 0.04 0 0.295 0.04 0 0.3 0.04 0 0.305 0.04 0 0.31 0.04 0 0.315 0.04 0 0.32 0.04 0 0.325 0.04 0 0.33 0.04 0 0.335 0.04 0 0.340001 0.04 0 0.345004 0.04 0 0.350012 0.04 0 0.355035 0.04 0 0.360088 0.04 0 0.365198 0.04 0 0.370394 0.04 0 0.37571 0.04 0 0.381173 0.04 0 0.386806 0.04 0 0.392629 0.04 0 0.398662 0.04 0 0.404927 0.04 0 0.411446 0.04 0 0.418243 0.04 0 0.425349 0.04 0 0.432795 0.04 0 0.440621 0.04 0 0.44887 0.04 0 0.457595 0.04 0 0.466857 0.04 0 0.476724 0.04 0 0.487271 0.04 0 0.498562 0.04 0 0.510581 0.04 0 0.523021 0.04 0 0.535347 0.04 0 0.547493 0.04 0 0.559478 0.04 0 0.571365 0.04 0 0.583208 0.04 0 0.595033 0.04 0 0.606853 0.04 0 0.609134 0.04 0 0.611415 0.04 0 0.613696 0.04 0 0.615976 0.04 0 0.618256 0.04 0 0.620535 0.04 0 0.622809 0.04 0 0.625083 0.04 0 0.627362 0.04 0 0.629642 0.04 0 0.631924 0.04 0 0.634207 0.04 0 0.63649 0.04 0 0.638772 0.04 0 0.641053 0.04 0 0.643334 0.04 0 0.645615 0.04 0 0.647894 0.04 0 0.650173 0.04 0 0.652452 0.04 0 0.654732 0.04 0 0.657014 0.04 0 0.6593 0.04 0 0.661588 0.04 0 0.663876 0.04 0 0.666162 0.04 0 0.668445 0.04 0 0.670725 0.04 0 0.673005 0.04 0 0.675283 0.04 0 0.677557 0.04 0 0.679852 0.04 0 0.682189 0.04 0 0.684579 0.04 0 0.687039 0.04 0 0.689658 0.04 0 0.692455 0.04 0 0.695449 0.04 0 0.698756 0.04 0 0.702393 0.04 0 0.706393 0.04 0 0.710729 0.04 0 0.715342 0.04 0 0.720146 0.04 0 0.725058 0.04 0 0.730022 0.04 0 0.735008 0.04 0 0.740003 0.04 0 0.745001 0.04 0 0.75 0.04 0 0.755 0.04 0 0.76 0.04 0 0.765 0.04 0 0.77 0.04 0 0.775 0.04 0 0.78 0.04 0 0.785 0.04 0 0.79 0.04 0 0.795 0.04 0 0.8 0.04 0 0.805 0.04 0 0.81 0.04 0 0.815 0.04 0 0.82 0.04 0 0.825 0.04 0 0.83 0.04 0 0.835 0.04 0 0.84 0.04 0 0.845 0.04 0 0.85 0.04 0 0.855 0.04 0 0.86 0.04 0 0.865 0.04 0 0.87 0.04 0 0.875 0.04 0 0.88 0.04 0 0.885 0.04 0 0.89 0.04 0 0.895 0.04 0 0.9 0.04 0 0.905 0.04 0 0.91 0.04 0 0.915 0.04 0 0.92 0.04 0 0.925 0.04 0 0.93 0.04 0 0.935 0.04 0 0.94 0.04 0 0.945 0.04 0 0.95 0.04 0 0.955 0.04 0 0.96 0.04 0 0.965 0.04 0 0.97 0.04 0 0.975 0.04 0 0.98 0.04 0 0.985 0.04 0 0.99 0.04 0 0.995 0.04 0 1 0.04 0 0 0.06 0 0.005 0.06 0 0.01 0.06 0 0.015 0.06 0 0.02 0.06 0 0.025 0.06 0 0.03 0.06 0 0.035 0.06 0 0.04 0.06 0 0.045 0.06 0 0.05 0.06 0 0.055 0.06 0 0.06 0.06 0 0.065 0.06 0 0.07 0.06 0 0.075 0.06 0 0.08 0.06 0 0.085 0.06 0 0.09 0.06 0 0.095 0.06 0 0.1 0.06 0 0.105 0.06 0 0.11 0.06 0 0.115 0.06 0 0.12 0.06 0 0.125 0.06 0 0.13 0.06 0 0.135 0.06 0 0.14 0.06 0 0.145 0.06 0 0.15 0.06 0 0.155 0.06 0 0.16 0.06 0 0.165 0.06 0 0.17 0.06 0 0.175 0.06 0 0.18 0.06 0 0.185 0.06 0 0.19 0.06 0 0.195 0.06 0 0.2 0.06 0 0.205 0.06 0 0.21 0.06 0 0.215 0.06 0 0.22 0.06 0 0.225 0.06 0 0.23 0.06 0 0.235 0.06 0 0.24 0.06 0 0.245 0.06 0 0.25 0.06 0 0.255 0.06 0 0.26 0.06 0 0.265 0.06 0 0.27 0.06 0 0.275 0.06 0 0.28 0.06 0 0.285 0.06 0 0.29 0.06 0 0.295 0.06 0 0.3 0.06 0 0.305 0.06 0 0.31 0.06 0 0.315 0.06 0 0.32 0.06 0 0.325 0.06 0 0.33 0.06 0 0.335 0.06 0 0.340001 0.06 0 0.345004 0.06 0 0.350012 0.06 0 0.355035 0.06 0 0.360088 0.06 0 0.365198 0.06 0 0.370394 0.06 0 0.37571 0.06 0 0.381173 0.06 0 0.386806 0.06 0 0.392629 0.06 0 0.398662 0.06 0 0.404927 0.06 0 0.411446 0.06 0 0.418243 0.06 0 0.425349 0.06 0 0.432795 0.06 0 0.440621 0.06 0 0.44887 0.06 0 0.457595 0.06 0 0.466857 0.06 0 0.476724 0.06 0 0.487271 0.06 0 0.498562 0.06 0 0.510581 0.06 0 0.523021 0.06 0 0.535347 0.06 0 0.547493 0.06 0 0.559478 0.06 0 0.571365 0.06 0 0.583208 0.06 0 0.595033 0.06 0 0.606853 0.06 0 0.609134 0.06 0 0.611415 0.06 0 0.613696 0.06 0 0.615976 0.06 0 0.618256 0.06 0 0.620535 0.06 0 0.622809 0.06 0 0.625083 0.06 0 0.627362 0.06 0 0.629642 0.06 0 0.631924 0.06 0 0.634207 0.06 0 0.63649 0.06 0 0.638772 0.06 0 0.641053 0.06 0 0.643334 0.06 0 0.645615 0.06 0 0.647894 0.06 0 0.650173 0.06 0 0.652452 0.06 0 0.654732 0.06 0 0.657014 0.06 0 0.6593 0.06 0 0.661588 0.06 0 0.663876 0.06 0 0.666162 0.06 0 0.668445 0.06 0 0.670725 0.06 0 0.673005 0.06 0 0.675283 0.06 0 0.677557 0.06 0 0.679852 0.06 0 0.682189 0.06 0 0.684579 0.06 0 0.687039 0.06 0 0.689658 0.06 0 0.692455 0.06 0 0.695449 0.06 0 0.698756 0.06 0 0.702393 0.06 0 0.706393 0.06 0 0.710729 0.06 0 0.715342 0.06 0 0.72
[...]
			<PointData Scalars="VitesseX">
				<DataArray Name="VitesseX" type="Float32" format="ascii">
 0 -3.87964e-16 1.62232e-15 9.92775e-16 -4.13972e-16 1.18994e-15 5.7182e-16 -1.93111e-15 2.23155e-15 5.63333e-15 1.33843e-15 6.51056e-16 1.06472e-15 -4.41356e-15 -3.60141e-15 1.43578e-14 -7.12162e-15 7.55714e-15 1.5673e-14 -1.52409e-15 -1.92883e-15 8.04476e-15 6.4463e-15 2.86546e-15 -1.08482e-14 4.76727e-16 1.28695e-15 1.69509e-15 5.55656e-15 1.74043e-14 1.63458e-14 8.57745e-15 -1.38489e-14 2.2366e-14 3.47572e-14 -2.0025e-14 1.73053e-14 -1.41135e-16 -1.98088e-14 1.72078e-14 1.31081e-14 1.13435e-14 -8.19931e-16 -4.96561e-15 1.78019e-14 -4.54009e-15 -2.88266e-14 8.90393e-15 6.85895e-16 -2.37546e-14 1.88386e-14 5.08857e-15 3.56153e-14 5.53583e-14 3.64487e-14 -2.67014e-15 2.77949e-13 1.28667e-12 1.19192e-11 9.19787e-11 6.71103e-10 4.56853e-09 2.89385e-08 1.6993e-07 9.21183e-07 4.58781e-06 2.08723e-05 8.61567e-05 0.000320047 0.00105961 0.00309321 0.00788073 0.0174123 0.0334205 0.056405 0.0854658 0.119093 0.15601 0.195456 0.237083 0.280782 0.326564 0.374514 0.424759 0.477464 0.532815 0.591014 0.652244 0.716602 0.783902 0.853119 0.920594 0.973968 0.980684 0.96429 0.950299 0.941167 0.93664 0.934785 0.934015 0.933535 0.93334 0.93313 0.932919 0.932718 0.932545 0.932412 0.932336 0.932308 0.93247 0.933463 0.934548 0.933968 0.933689 0.93332 0.932796 0.932323 0.931867 0.931515 0.9313 0.931214 0.931571 0.933847 0.935215 0.934561 0.933262 0.932132 0.930829 0.930175 0.93124 0.92248 0.929974 0.929524 0.896527 0.909542 0.82333 0.757477 0.751815 0.612891 0.523124 0.391448 0.272806 0.166915 0.0890695 0.0414255 0.0173561 0.00683554 0.00260888 0.000979503 0.000363851 0.000133929 4.88429e-05 1.76348e-05 6.2976e-06 2.22229e-06 7.74206e-07 2.66067e-07 9.01341e-08 3.008e-08 9.88377e-09 3.19603e-09 1.01662e-09 3.18075e-10 9.78661e-11 2.96812e-11 8.86564e-12 2.58429e-12 7.79549e-13 1.90591e-13 1.03557e-13 8.25752e-14 -1.1097e-13 -9.91654e-15 -1.28372e-13 -2.43348e-15 9.47947e-14 -1.10525e-13 -3.1263e-14 -8.22734e-14 -2.47356e-14 -6.28815e-14 -2.20437e-14 2.15788e-14 2.32997e-14 -9.57133e-15 -4.73903e-14 -4.94625e-14 -2.14331e-15 -1.03502e-13 1.03089e-13 -1.26167e-13 -2.85525e-14 -1.15115e-13 2.25511e-14 -3.24776e-14 -1.03153e-13 9.94124e-15 -5.86455e-14 5.51393e-14 -1.1902e-13 0 0 -3.16481e-17 -2.3896e-15 -2.59067e-15 1.28199e-15 -5.4744e-16 1.31184e-15 4.49582e-15 3.4819e-15 -6.00199e-15 2.17749e-15 -1.05031e-15 1.30185e-15 7.52686e-15 -9.31122e-15 1.12339e-14 8.58023e-15 -2.54884e-15 1.13888e-14 9.02685e-16 1.17062e-14 -8.82109e-15 -6.87543e-15 1.44824e-14 -4.47314e-15 1.14245e-14 -1.42815e-14 1.91633e-14 1.50705e-14 -3.10017e-15 1.78283e-14 2.34979e-14 -1.87249e-14 1.53177e-14 -8.55258e-15 2.8663e-14 1.48433e-14 -2.32321e-14 1.67874e-15 -5.55474e-15 1.65528e-14 2.60885e-15 4.08411e-15 2.55311e-15 1.40992e-15 1.6253e-14 -1.46462e-14 -1.66185e-14 2.66645e-14 -3.29296e-15 2.77752e-15 2.17431e-14 -1.43774e-14 7.22104e-14 3.4116e-14 7.48624e-14 1.62621e-13 1.38955e-12 1.17925e-11 9.20626e-11 6.71034e-10 4.56858e-09 2.89386e-08 1.69929e-07 9.21183e-07 4.58781e-06 2.08723e-05 8.61567e-05 0.000320047 0.00105961 0.00309321 0.00788073 0.0174123 0.0334205 0.056405 0.0854658 0.119093 0.15601 0.195456 0.237083 0.280782 0.326564 0.374514 0.424759 0.477464 0.532815 0.591014 0.652244 0.716602 0.783902 0.853119 0.920594 0.973968 0.980684 0.96429 0.950299 0.941167 0.93664 0.934785 0.934015 0.933535 0.93334 0.93313 0.932919 0.932718 0.932545 0.932412 0.932336 0.932308 0.93247 0.933463 0.934548 0.933968 0.933689 0.93332 0.932796 0.932323 0.931867 0.931515 0.9313 0.931214 0.931571 0.933847 0.935215 0.934561 0.933262 0.932132 0.930829 0.930175 0.93124 0.92248 0.929974 0.929524 0.896527 0.909542 0.82333 0.757477 0.751815 0.612891 0.523124 0.391448 0.272806 0.166915 0.0890695 0.0414255 0.0173561 0.00683554 0.00260888 0.000979503 0.000363851 0.000133929 4.88429e-05 1.76348e-05 6.2976e-06 2.22229e-06 7.74206e-07 2.66067e-07 9.01341e-08 3.008e-08 9.8837e-09 3.19611e-09 1.01673e-09 3.18114e-10 9.78041e-11 2.95405e-11 8.84086e-12 2.68266e-12 8.06974e-13 9.76253e-14 4.24105e-14 -4.3048e-14 1.02193e-13 -7.11198e-14 -2.03749e-14 -1.13333e-13 1.66705e-14 1.03621e-13 -1.53708e-13 1.38116e-14 -8.9119e-14 -6.52561e-14 -5.06193e-14 7.25472e-14 -1.71558e-14 3.10753e-15 -9.77948e-14 -5.6254e-14 3.54077e-14 -1.01182e-13 7.87726e-14 -4.35112e-14 -7.41849e-14 -3.98234e-14 -2.69607e-15 -2.05147e-14 -1.14558e-13 8.59135e-14 -6.94598e-14 -7.70923e-14 1.0001e-13 0 0 -7.52438e-16 -2.21494e-16 -2.01973e-15 -6.09258e-16 1.94098e-15 -1.89141e-15 3.6998e-15 -6.51586e-16 -5.89963e-15 7.66445e-15 8.40487e-16 -2.84649e-16 1.31667e-14 -1.23713e-14 6.54639e-15 1.23144e-14 5.02489e-15 -5.54702e-15 8.74916e-16 4.26257e-15 8.42568e-15 -3.45502e-15 -2.16503e-15 6.15569e-15 -5.04607e-15 1.50155e-14 9.45778e-15 2.61366e-14 -1.69753e-14 3.02791e-14 2.27306e-14 -1.35715e-14 -5.11935e-15 -2.95173e-14 3.2449e-14 2.75438e-14 -1.20859e-14 -2.36782e-14 -1.90017e-14 1.69345e-14 1.54908e-14 -2.14402e-14 -6.41492e-16 -2.23089e-15 1.663e-14 1.28568e-14 2.33125e-15 2.50226e-14 1.58886e-15 3.45141e-14 5.84279e-15 -6.22929e-15 2.89587e-14 5.0262e-14 1.15944e-13 1.51911e-13 1.41786e-12 1.17069e-11 9.20084e-11 6.71069e-10 4.56865e-09 2.89386e-08 1.69929e-07 9.21183e-07 4.58781e-06 2.08723e-05 8.61567e-05 0.000320047 0.00105961 0.00309321 0.00788073 0.0174123 0.0334205 0.056405 0.0854658 0.119093 0.15601 0.195456 0.237083 0.280782 0.326564 0.374514 0.424759 0.477464 0.532815 0.591014 0.652244 0.716602 0.783902 0.853119 0.920594 0.973968 0.980684 0.96429 0.950299 0.941167 0.93664 0.934785 0.934015 0.933535 0.93334 0.93313 0.932919 0.932718 0.932545 0.932412 0.932336 0.932308 0.93247 0.933463 0.934548 0.933968 0.933689 0.93332 0.932796 0.932323 0.931867 0.931515 0.9313 0.931214 0.931571 0.933847 0.935215 0.934561 0.933262 0.932132 0.930829 0.930175 0.93124 0.92248 0.929974 0.929524 0.896527 0.909542 0.82333 0.757477 0.751815 0.612891 0.523124 0.391448 0.272806 0.166915 0.0890695 0.0414255 0.0173561 0.00683554 0.00260888 0.000979503 0.000363851 0.000133929 4.88429e-05 1.76348e-05 6.2976e-06 2.22229e-06 7.74205e-07 2.66067e-07 9.01342e-08 3.00799e-08 9.88373e-09 3.19615e-09 1.01672e-09 3.18057e-10 9.78902e-11 2.95942e-11 8.77846e-12 2.66205e-12 8.30515e-13 2.30629e-14 6.36792e-16 -1.00239e-13 -5.62448e-14 -2.74831e-14 3.21307e-14 -9.47412e-14 5.61221e-15 4.97525e-15 4.07215e-14 1.35697e-14 -3.29451e-14 -8.68081e-14 -1.06949e-13 1.77198e-13 8.36373e-16 -1.39714e-13 -1.01566e-13 -9.88341e-14 -4.13525e-14 5.1723e-14 -2.24995e-14 4.98504e-14 6.73801e-14 -7.04627e-14 -2.8249e-14 -2.42599e-14 3.04853e-14 -1.03917e-14 5.47818e-14 -1.24952e-13 -3.17824e-14 0 0 -1.79208e-15 -1.79336e-16 -4.35611e-15 -1.69617e-15 1.27522e-15 1.65624e-15 -2.74997e-15 -5.964e-15 6.78943e-15 7.84615e-15 8.92199e-15 -1.87727e-15 1.28498e-14 -2.0739e-15 -1.69939e-15 -1.62883e-14 1.77014e-14 -5.83341e-15 -5.39617e-15 1.34198e-15 1.99232e-14 1.65364e-14 -3.50861e-15 2.64526e-15 -6.61352e-15 -3.93556e-15 3.03933e-14 4.7088e-15 1.76628e-14 -1.40551e-16 1.77078e-14 -1.30651e-14 -7.26837e-15 -1.47587e-14 5.2785e-15 3.59211e-15 2.35085e-14 -2.19892e-14 7.89677e-15 -3.193e-14 2.38563e-14 -1.91084e-14 -2.81575e-14 -9.1421e-15 3.93088e-14 2.30086e-14 2.10046e-14 -2.03384e-14 2.22318e-14 5.31574e-14 2.60894e-14 1.36886e-16 8.88605e-15 3.63805e-14 1.52268e-13 2.54786e-13 1.33065e-12 1.17508e-11 9.1893e-11 6.71118e-10 4.56866e-09 2.89385e-08 1.69929e-07 9.21183e-07 4.58781e-06 2.08723e-05 8.61567e-05 0.000320047 0.00105961 0.00309321 0.00788073 0.0174123 0.0334205 0.056405 0.0854658 0.119093 0.15601 0.195456 0.237083 0.280782 0.326564 0.374514 0.424759 0.477464 0.532815 0.591014 0.652244 0.716602 0.783902 0.853119 0.920594 0.973968 0.980684 0.96429 0.950299 0.941167 0.93664 0.934785 0.934015 0.933535 0.93334 0.93313 0.932919 0.932718 0.932545 0.932412 0.932336 0.932308 0.93247 0.933463 0.934548 0.933968 0.933689 0.93332 0.932796 0.932323 0.931867 0.931515 0.9313 0.931214 0.931571 0.933847 0.935215 0.934561 0.933262 0.932132 0.930829 0.930175 0.93124 0.92248 0.929974 0.929524 0.896527 0.909542 0.82333 0.757477 0.751815 0.612891 0.523124 0.391448 0.272806 0.166915 0.0890695 0.0414255 0.0173561 0.00683554 0.00260888 0.000979503 0.000363851 0.000133929 4.88429e-05 1.76348e-05 6.2976e-06 2.22229e-06 7.74205e-07 2.66067e-07 9.01342e-08 3.008e-08 9.88368e-09 3.19621e-09 1.0166e-09 3.18162e-10 9.78975e-11 2.95358e-11 8.94576e-12 2.66387e-12 6.71094e-13 2.40843e-13 8.01226e-14 -1.65363e-13 -1.13246e-13 -3.29662e-14 -5.64608e-14 7.78265e-14 -9.73238e-14 -6.74626e-14 2.64825e-13 -1.01341e-13 1.11131e-13 -5.45782e-14 -2.96244e-14 -8.33207e-14 -1.09365e-13 -7.11004e-14 -2.14654e-13 -9.69198e-14 -1.47011e-14 -5.12614e-15 7.11846e-14 2.34469e-14 3.81674e-14 1.40727e-13 6.25949e-15 5.70959e-14 5.27645e-14 -1.45744e-13 -7.27204e-14 -3.66239e-14 -7.80022e-14 0 0 -3.15104e-15 -6.95641e-15 -8.51729e-15 -4.65263e-15 -1.39459e-15 3.62748e-15 -1.54012e-15 3.11533e-15 1.22166e-15 4.77911e-15 1.33048e-14 5.36312e-16 2.07547e-15 -3.15302e-15 2.02712e-15 -1.93136e-14 1.23145e-15 7.30132e-15 -1.01829e-14 1.34117e-14 -3.21254e-15 1.45792e-14 5.24084e-15 2.30116e-14 7.25373e-15 -1.32082e-14 2.47503e-14 -2.37873e-14 2.46262e-14 -3.02916e-14 2.97299e-14 -2.82796e-14 5.8628e-15 -3.34161e-15 -4.36216e-16 -1.67669e-14 2.18323e-14 2.43536e-14 3.01403e-14 -4.68695e-14 -9.52445e-15 8.80327e-15 -3.60143e-14 6.12069e-15 5.59443e-14 3.44655e-14 -5.83957e-16 -1.13232e-14 2.24792e-14 -1.40099e-14 4.30102e-14 9.25232e-15 4.87512e-14 1.48003e-14 1.91533e-13 2.60502e-13 1.34199e-12 1.17002e-11 9.19815e-11 6.71024e-10 4.56861e-09 2.89384e-08 1.69929e-07 9.21182e-07 4.58781e-06 2.08723e-05 8.61567e-05 0.000320047 0.00105961 0.00309321 0.00788073 0.0174123 0.0334205 0.056405 0.0854658 0.119093 0.15601 0.195456 0.237083 0.280782 0.326564 0.374514 0.424759 0.477464 0.532815 0.591014 0.652244 0.716602 0.783902 0.853119 0.920594 0.973968 0.980684 0.96429 0.950299 0.941167 0.93664 0.934785 0.934015 0.933535 0.93334 0.93313 0.932919 0.932718 0.932545 0.932412 0.932336 0.932308 0.93247 0.933463 0.934548 0.933968 0.933689 0.93332 0.932796 0.932323 0.931867 0.931515 0.9313 0.931214 0.931571 0.933847 0.935215 0.934561 0.933262 0.932132 0.930829 0.930175 0.93124 0.92248 0.929974 0.929524 0.896527 0.909542 0.82333 0.757477 0.751815 0.612891 0.523124 0.391448 0.272806 0.166915 0.0890695 0.0414255 0.0173561 0.00683554 0.00260888 0.000979503 0.000363851 0.000133929 4.88429e-05 1.76348e-05 6.2976e-06 2.22229e-06 7.74205e-07 2.66067e-07 9.01342e-08 3.00801e-08 9.88366e-09 3.19636e-09 1.01671e-09 3.18306e-10 9.78862e-11 2.94302e-11 9.0766e-12 2.63676e-12 4.35473e-13 1.62362e-13 9.67078e-15 1.84225e-13 1.77683e-13 -2.66673e-14 -2.34098e-13 1.89823e-14 -1.51785e-13 9.52547e-14 8.96652e-14 -8.52879e-14 5.70702e-14 -2.17382e-13 9.80602e-14 -3.37326e-13 -1.23544e-14 2.16557e-13 -5.08323e-13 8.26466e-14 1.59917e-13 -1.02315e-13 -6.72811e-14 3.77218e-14 2.00016e-14 1.06731e-13 6.98186e-14 -2.26158e-15 4.28227e-14 1.72926e-15 -2.15318e-13 -6.98265e-14 5.14381e-14 0 0 -4.54745e-15 -7.59562e-15 -6.1877e-15 -1.01094e-14 8.27164e-16 -1.89219e-15 -1.10345e-15 1.21232e-14 -5.29748e-15 6.17829e-15 1.31983e-14 2.71888e-15 -1.46825e-14 -1.18799e-14 1.24357e-14 -5.70401e-15 -1.02354e-14 8.07078e-15 -1.1153e-14 7.32343e-15 -3.73323e-15 9.37267e-15 -1.29304e-14 5.11421e-14 -4.72995e-15 4.13355e-14 -2.9002e-14 -2.93036e-14 3.58098e-15 -1.90546e-14 3.10869e-14 -3.39708e-14 7.75424e-15 1.56618e-14 -2.38825e-14 1.98834e-15 1.87989e-14 2.21628e-14 3.4801e-14 -1.60075e-14 -2.96542e-14 3.95473e-15 -2.70685e-14 4.10458e-14 2.94848e-14 4.90932e-14 3.62629e-15 1.54325e-14 -1.34962e-14 -5.20228e-14 7.12962e-15 7.01424e-14 4.85853e-14 2.55801e-14 1.58023e-13 2.67961e-13 1.36597e-12 1.16469e-11 9.20473e-11 6.70986e-10 4.56858e-09 2.89383e-08 1.6993e-07 9.21182e-07 4.58781e-06 2.08723e-05 8.61567e-05 0.000320047 0.00105961 0.00309321 0.00788073 0.0174123 0.0334205 0.056405 0.0854658 0.119093 0.15601 0.195456 0.237083 0.280782 0.326564 0.374514 0.424759 0.477464 0.532815 0.591014 0.652244 0.716602 0.783902 0.853119 0.920594 0.973968 0.980684 0.96429 0.950299 0.941167 0.93664 0.934785 0.934015 0.933535 0.93334 0.93313 0.932919 0.932718 0.932545 0.932412 0.932336 0.932308 0.93247 0.933463 0.934548 0.933968 0.933689 0.93332 0.932796 0.932323 0.931867 0.931515 0.9313 0.931214 0.931571 0.933847 0.935215 0.934561 0.933262 0.932132 0.930829 0.930175 0.93124 0.92248 0.929974 0.929524 0.896527 0.909542 0.82333 0.757477 0.751815 0.612891 0.523124 0.391448 0.272806 0.166915 0.0890695 0.0414255 0.0173561 0.00683554 0.00260888 0.000979503 0.000363851 0.000133929 4.88429e-05 1.76348e-05 6.2976e-06 2.22229e-06 7.74205e-07 2.66067e-07 9.01341e-08 3.00802e-08 9.88379e-09 3.1964e-09 1.01683e-09 3.18247e-10 9.80157e-11 2.95768e-11 9.00174e-12 2.4885e-12 3.55431e-13 -1.15424e-13 -1.21013e-13 6.67121e-13 1.53742e-13 9.00818e-14 -3.7871e-13 -8.34e-14 -3.65994e-14 1.76269e-14 7.46731e-15 -5.06327e-14 -2.0555e-14 -4.32099e-13 1.20536e-13 -2.76701e-13 2.53126e-13 2.79814e-13 -6.42357e-13 2.24555e-13 1.93539e-13 7.73479e-15 -3.76234e-13 8.89862e-14 2.17537e-13 -2.44814e-13 9.81643e-14 -1.5924e-13 1.66462e-13 1.1265e-13 -9.51062e-14 -1.07807e-13 -1.24409e-13 0
				</DataArray>
				<DataArray Name="VitesseY" type="Float32" format="ascii">