<?xml version="1.0"?>
<VTKFile type="PolyData">
	<PolyData>
		<Piece NumberOfPoints="1206" NumberOfPolys="1000">
			<Points>
				<DataArray type="Float32" NumberOfComponents="3" format="ascii">
 0 0 0 0.005 0 0 0.01 0 0 0.015 0 0 0.02 0 0 0.025 0 0 0.03 0 0 0.035 0 0 0.04 0 0 0.045 0 0 0.05 0 0 0.055 0 0 0.06 0 0 0.065 0 0 0.07 0 0 0.075 0 0 0.08 0 0 0.085 0 0 0.09 0 0 0.095 0 0 0.1 0 0 0.105 0 0 0.11 0 0 0.115 0 0 0.12 0 0 0.125 0 0 0.13 0 0 0.135 0 0 0.14 0 0 0.145 0 0 0.15 0 0 0.155 0 0 0.16 0 0 0.165 0 0 0.17 0 0 0.175 0 0 0.18 0 0 0.185 0 0 0.19 0 0 0.195 0 0 0.2 0 0 0.205 0 0 0.21 0 0 0.215 0 0 0.22 0 0 0.225 0 0 0.23 0 0 0.235 0 0 0.24 0 0 0.245 0 0 0.25 0 0 0.255 0 0 0.26 0 0 0.265 0 0 0.27 0 0 0.275001 0 0 0.280003 0 0 0.285008 0 0 0.290022 0 0 0.295051 0 0 0.30011 0 0 0.305216 0 0 0.310388 0 0 0.315642 0 0 0.320995 0 0 0.326459 0 0 0.332042 0 0 0.337756 0 0 0.343608 0 0 0.349607 0 0 0.355764 0 0 0.362088 0 0 0.368591 0 0 0.375284 0 0 0.38218 0 0 0.389294 0 0 0.396641 0 0 0.40424 0 0 0.41211 0 0 0.420273 0 0 0.428753 0 0 0.437578 0 0 0.446779 0 0 0.45639 0 0 0.466448 0 0 0.476993 0 0 0.488062 0 0 0.49967 0 0 0.511768 0 0 0.524109 0 0 0.536366 0 0 0.548503 0 0 0.560516 0 0 0.572436 0 0 0.584297 0 0 0.596129 0 0 0.607946 0 0 0.619757 0 0 0.631566 0 0 0.643376 0 0 0.655186 0 0 0.657466 0 0 0.659746 0 0 0.662026 0 0 0.664306 0 0 0.666586 0 0 0.668866 0 0 0.671141 0 0 0.673416 0 0 0.675697 0 0 0.677976 0 0 0.680255 0 0 0.682533 0 0 0.684812 0 0 0.687091 0 0 0.689369 0 0 0.691648 0 0 0.693927 0 0 0.696206 0 0 0.698486 0 0 0.700767 0 0 0.703047 0 0 0.705327 0 0 0.707607 0 0 0.709888 0 0 0.712169 0 0 0.714449 0 0 0.716729 0 0 0.719008 0 0 0.721289 0 0 0.72357 0 0 0.725849 0 0 0.72813 0 0 0.730411 0 0 0.732692 0 0 0.734972 0 0 0.737251 0 0 0.739532 0 0 0.741814 0 0 0.744096 0 0 0.746378 0 0 0.74866 0 0 0.750941 0 0 0.753222 0 0 0.755503 0 0 0.757785 0 0 0.760066 0 0 0.762347 0 0 0.764623 0 0 0.766894 0 0 0.769189 0 0 0.771545 0 0 0.77393 0 0 0.776443 0 0 0.779109 0 0 0.781922 0 0 0.785009 0 0 0.788385 0 0 0.792116 0 0 0.796202 0 0 0.800614 0 0 0.805282 0 0 0.810119 0 0 0.815047 0 0 0.820018 0 0 0.825007 0 0 0.830003 0 0 0.835001 0 0 0.84 0 0 0.845 0 0 0.85 0 0 0.855 0 0 0.86 0 0 0.865 0 0 0.87 0 0 0.875 0 0 0.88 0 0 0.885 0 0 0.89 0 0 0.895 0 0 0.9 0 0 0.905 0 0 0.91 0 0 0.915 0 0 0.92 0 0 0.925 0 0 0.93 0 0 0.935 0 0 0.94 0 0 0.945 0 0 0.95 0 0 0.955 0 0 0.96 0 0 0.965 0 0 0.97 0 0 0.975 0 0 0.98 0 0 0.985 0 0 0.99 0 0 0.995 0 0 1 0 0 0 0.02 0 0.005 0.02 0 0.01 0.02 0 0.015 0.02 0 0.02 0.02 0 0.025 0.02 0 0.03 0.02 0 0.035 0.02 0 0.04 0.02 0 0.045 0.02 0 0.05 0.02 0 0.055 0.02 0 0.06 0.02 0 0.065 0.02 0 0.07 0.02 0 0.075 0.02 0 0.08 0.02 0 0.085 0.02 0 0.09 0.02 0 0.095 0.02 0 0.1 0.02 0 0.105 0.02 0 0.11 0.02 0 0.115 0.02 0 0.12 0.02 0 0.125 0.02 0 0.13 0.02 0 0.135 0.02 0 0.14 0.02 0 0.145 0.02 0 0.15 0.02 0 0.155 0.02 0 0.16 0.02 0 0.165 0.02 0 0.17 0.02 0 0.175 0.02 0 0.18 0.02 0 0.185 0.02 0 0.19 0.02 0 0.195 0.02 0 0.2 0.02 0 0.205 0.02 0 0.21 0.02 0 0.215 0.02 0 0.22 0.02 0 0.225 0.02 0 0.23 0.02 0 0.235 0.02 0 0.24 0.02 0 0.245 0.02 0 0.25 0.02 0 0.255 0.02 0 0.26 0.02 0 0.265 0.02 0 0.27 0.02 0 0.275001 0.02 0 0.280003 0.02 0 0.285008 0.02 0 0.290022 0.02 0 0.295051 0.02 0 0.30011 0.02 0 0.305216 0.02 0 0.310388 0.02 0 0.315642 0.02 0 0.320995 0.02 0 0.326459 0.02 0 0.332042 0.02 0 0.337756 0.02 0 0.343608 0.02 0 0.349607 0.02 0 0.355764 0.02 0 0.362088 0.02 0 0.368591 0.02 0 0.375284 0.02 0 0.38218 0.02 0 0.389294 0.02 0 0.396641 0.02 0 0.40424 0.02 0 0.41211 0.02 0 0.420273 0.02 0 0.428753 0.02 0 0.437578 0.02 0 0.446779 0.02 0 0.45639 0.02 0 0.466448 0.02 0 0.476993 0.02 0 0.488062 0.02 0 0.49967 0.02 0 0.511768 0.02 0 0.524109 0.02 0 0.536366 0.02 0 0.548503 0.02 0 0.560516 0.02 0 0.572436 0.02 0 0.584297 0.02 0 0.596129 0.02 0 0.607946 0.02 0 0.619757 0.02 0 0.631566 0.02 0 0.643376 0.02 0 0.655186 0.02 0 0.657466 0.02 0 0.659746 0.02 0 0.662026 0.02 0 0.664306 0.02 0 0.666586 0.02 0 0.668866 0.02 0 0.671141 0.02 0 0.673416 0.02 0 0.675697 0.02 0 0.677976 0.02 0 0.680255 0.02 0 0.682533 0.02 0 0.684812 0.02 0 0.687091 0.02 0 0.689369 0.02 0 0.691648 0.02 0 0.693927 0.02 0 0.696206 0.02 0 0.698486 0.02 0 0.700767 0.02 0 0.703047 0.02 0 0.705327 0.02 0 0.707607 0.02 0 0.709888 0.02 0 0.712169 0.02 0 0.714449 0.02 0 0.716729 0.02 0 0.719008 0.02 0 0.721289 0.02 0 0.72357 0.02 0 0.725849 0.02 0 0.72813 0.02 0 0.730411 0.02 0 0.732692 0.02 0 0.734972 0.02 0 0.737251 0.02 0 0.739532 0.02 0 0.741814 0.02 0 0.744096 0.02 0 0.746378 0.02 0 0.74866 0.02 0 0.750941 0.02 0 0.753222 0.02 0 0.755503 0.02 0 0.757785 0.02 0 0.760066 0.02 0 0.762347 0.02 0 0.764623 0.02 0 0.766894 0.02 0 0.769189 0.02 0 0.771545 0.02 0 0.77393 0.02 0 0.776443 0.02 0 0.779109 0.02 0 0.781922 0.02 0 0.785009 0.02 0 0.788385 0.02 0 0.792116 0.02 0 0.796202 0.02 0 0.800614 0.02 0 0.805282 0.02 0 0.810119 0.02 0 0.815047 0.02 0 0.820018 0.02 0 0.825007 0.02 0 0.830003 0.02 0 0.835001 0.02 0 0.84 0.02 0 0.845 0.02 0 0.85 0.02 0 0.855 0.02 0 0.86 0.02 0 0.865 0.02 0 0.87 0.02 0 0.875 0.02 0 0.88 0.02 0 0.885 0.02 0 0.89 0.02 0 0.895 0.02 0 0.9 0.02 0 0.905 0.02 0 0.91 0.02 0 0.915 0.02 0 0.92 0.02 0 0.925 0.02 0 0.93 0.02 0 0.935 0.02 0 0.94 0.02 0 0.945 0.02 0 0.95 0.02 0 0.955 0.02 0 0.96 0.02 0 0.965 0.02 0 0.97 0.02 0 0.975 0.02 0 0.98 0.02 0 0.985 0.02 0 0.99 0.02 0 0.995 0.02 0 1 0.02 0 0 0.04 0 0.005 0.04 0 0.01 0.04 0 0.015 0.04 0 0.02 0.04 0 0.025 0.04 0 0.03 0.04 0 0.035 0.04 0 0.04 0.04 0 0.045 0.04 0 0.05 0.04 0 0.055 0.04 0 0.06 0.04 0 0.065 0.04 0 0.07 0.04 0 0.075 0.04 0 0.08 0.04 0 0.085 0.04 0 0.09 0.04 0 0.095 0.04 0 0.1 0.04 0 0.105 0.04 0 0.11 0.04 0 0.115 0.04 0 0.12 0.04 0 0.125 0.04 0 0.13 0.04 0 0.135 0.04 0 0.14 0.04 0 0.145 0.04 0 0.15 0.04 0 0.155 0.04 0 0.16 0.04 0 0.165 0.04 0 0.17 0.04 0 0.175 0.04 0 0.18 0.04 0 0.185 0.04 0 0.19 0.04 0 0.195 0.04 0 0.2 0.04 0 0.205 0.04 0 0.21 0.04 0 0.215 0.04 0 0.22 0.04 0 0.225 0.04 0 0.23 0.04 0 0.235 0.04 0 0.24 0.04 0 0.245 0.04 0 0.25 0.04 0 0.255 0.04 0 0.26 0.04 0 0.265 0.04 0 0.27 0.04 0 0.275001 0.04 0 0.280003 0.04 0 0.285008 0.04 0 0.290022 0.04 0 0.295051 0.04 0 0.30011 0.04 0 0.305216 0.04 0 0.310388 0.04 0 0.315642 0.04 0 0.320995 0.04 0 0.326459 0.04 0 0.332042 0.04 0 0.337756 0.04 0 0.343608 0.04 0 0.349607 0.04 0 0.355764 0.04 0 0.362088 0.04 0 0.368591 0.04 0 0.375284 0.04 0 0.38218 0.04 0 0.389294 0.04 0 0.396641 0.04 0 0.40424 0.04 0 0.41211 0.04 0 0.420273 0.04 0 0.428753 0.04 0 0.437578 0.04 0 0.446779 0.04 0 0.45639 0.04 0 0.466448 0.04 0 0.476993 0.04 0 0.488062 0.04 0 0.49967 0.04 0 0.511768 0.04 0 0.524109 0.04 0 0.536366 0.04 0 0.548503 0.04 0 0.560516 0.04 0 0.572436 0.04 0 0.584297 0.04 0 0.596129 0.04 0 0.607946 0.04 0 0.619757 0.04 0 0.631566 0.04 0 0.643376 0.04 0 0.655186 0.04 0 0.657466 0.04 0 0.659746 0.04 0 0.662026 0.04 0 0.664306 0.04 0 0.666586 0.04 0 0.668866 0.04 0 0.671141 0.04 0 0.673416 0.04 0 0.675697 0.04 0 0.677976 0.04 0 0.680255 0.04 0 0.682533 0.04 0 0.684812 0.04 0 0.687091 0.04 0 0.689369 0.04 0 0.691648 0.04 0 0.693927 0.04 0 0.696206 0.04 0 0.698486 0.04 0 0.700767 0.04 0 0.703047 0.04 0 0.705327 0.04 0 0.707607 0.04 0 0.709888 0.04 0 0.712169 0.04 0 0.714449 0.04 0 0.716729 0.04 0 0.719008 0.04 0 0.721289 0.04 0 0.72357 0.04 0 0.725849 0.04 0 0.72813 0.04 0 0.730411 0.04 0 0.732692 0.04 0 0.734972 0.04 0 0.737251 0.04 0 0.739532 0.04 0 0.741814 0.04 0 0.744096 0.04 0 0.746378 0.04 0 0.74866 0.04 0 0.750941 0.04 0 0.753222 0.04 0 0.755503 0.04 0 0.757785 0.04 0 0.760066 0.04 0 0.762347 0.04 0 0.764623 0.04 0 0.766894 0.04 0 0.769189 0.04 0 0.771545 0.04 0 0.77393 0.04 0 0.776443 0.04 0 0.779109 0.04 0 0.781922 0.04 0 0.785009 0.04 0 0.788385 0.04 0 0.792116 0.04 0 0.796202 0.04 0 0.800614 0.04 0 0.805282 0.04 0 0.810119 0.04 0 0.815047 0.04 0 0.820018 0.04 0 0.825007 0.04 0 0.830003 0.04 0 0.835001 0.04 0 0.84 0.04 0 0.845 0.04 0 0.85 0.04 0 0.855 0.04 0 0.86 0.04 0 0.865 0.04 0 0.87 0.04 0 0.875 0.04 0 0.88 0.04 0 0.885 0.04 0 0.89 0.04 0 0.895 0.04 0 0.9 0.04 0 0.905 0.04 0 0.91 0.04 0 0.915 0.04 0 0.92 0.04 0 0.925 0.04 0 0.93 0.04 0 0.935 0.04 0 0.94 0.04 0 0.945 0.04 0 0.95 0.04 0 0.955 0.04 0 0.96 0.04 0 0.965 0.04 0 0.97 0.04 0 0.975 0.04 0 0.98 0.04 0 0.985 0.04 0 0.99 0.04 0 0.995 0.04 0 1 0.04 0 0 0.06 0 0.005 0.06 0 0.01 0.06 0 0.015 0.06 0 0.02 0.06 0 0.025 0.06 0 0.03 0.06 0 0.035 0.06 0 0.04 0.06 0 0.045 0.06 0 0.05 0.06 0 0.055 0.06 0 0.06 0.06 0 0.065 0.06 0 0.07 0.06 0 0.075 0.06 0 0.08 0.06 0 0.085 0.06 0 0.09 0.06 0 0.095 0.06 0 0.1 0.06 0 0.105 0.06 0 0.11 0.06 0 0.115 0.06 0 0.12 0.06 0 0.125 0.06 0 0.13 0.06 0 0.135 0.06 0 0.14 0.06 0 0.145 0.06 0 0.15 0.06 0 0.155 0.06 0 0.16 0.06 0 0.165 0.06 0 0.17 0.06 0 0.175 0.06 0 0.18 0.06 0 0.185 0.06 0 0.19 0.06 0 0.195 0.06 0 0.2 0.06 0 0.205 0.06 0 0.21 0.06 0 0.215 0.06 0 0.22 0.06 0 0.225 0.06 0 0.23 0.06 0 0.235 0.06 0 0.24 0.06 0 0.245 0.06 0 0.25 0.06 0 0.255 0.06 0 0.26 0.06 0 0.265 0.06 0 0.27 0.06 0 0.275001 0.06 0 0.280003 0.06 0 0.285008 0.06 0 0.290022 0.06 0 0.295051 0.06 0 0.30011 0.06 0 0.305216 0.06 0 0.310388 0.06 0 0.315642 0.06 0 0.320995 0.06 0 0.326459 0.06 0 0.332042 0.06 0 0.337756 0.06 0 0.343608 0.06 0 0.349607 0.06 0 0.355764 0.06 0 0.362088 0.06 0 0.368591 0.06 0 0.375284 0.06 0 0.38218 0.06 0 0.389294 0.06 0 0.396641 0.06 0 0.40424 0.06 0 0.41211 0.06 0 0.420273 0.06 0 0.428753 0.06 0 0.437578 0.06 0 0.446779 0.06 0 0.45639 0.06 0 0.466448 0.06 0 0.476993 0.06 0 0.488062 0.06 0 0.49967 0.06 0 0.511768 0.06 0 0.524109 0.06 0 0.536366 0.06 0 0.548503 0.06 0 0.560516 0.06 0 0.572436 0.06 0 0.584297 0.06 0 0.596129 0.06 0 0.607946 0.06 0 0.619757 0.06 0 0.631566 0.06 0 0.643376 0.06 0 0.655186 0.06 0 0.657466 0.06 0 0.659746 0.06 0 0.662026 0.06 0 0.664306 0.06 0 0.666586 0.06 0 0.668866 0.06 0 0.671141 0.06 0 0.673416 0.06 0 0.675697 0.06 0 0.677976 0.06 0 0.680255 0.06 0 0.682533 0.06 0 0.684812 0.06 0 0.687091 0.06 0 0.689369 0.06 0 0.691648 0.06 0 0.693927 0.06 0 0.696206 0.06 0 0.698486 0.06 0 0.700767 0.06 0 0.703047 0.0
[...]
			<PointData Scalars="VitesseX">
				<DataArray Name="VitesseX" type="Float32" format="ascii">
 0 1.54235e-15 1.49197e-15 2.16503e-15 3.32997e-15 4.38914e-15 1.59143e-15 7.56409e-15 5.99491e-15 6.13027e-15 -6.97144e-15 -1.44216e-15 6.39628e-15 1.3489e-14 2.57675e-15 1.11742e-14 9.59171e-15 -1.12838e-14 7.70163e-15 3.08493e-15 6.80061e-15 1.60955e-14 7.52218e-15 -6.33672e-15 7.41707e-15 2.01988e-14 1.55243e-14 -1.01091e-14 -3.47332e-15 -7.4315e-15 -1.42037e-14 1.16707e-14 2.12644e-14 -2.71252e-14 1.40239e-14 6.95884e-15 2.26725e-14 2.83332e-14 -3.92129e-15 8.66705e-14 2.61446e-14 1.08154e-13 3.82977e-13 2.53887e-12 1.57021e-11 9.59139e-11 5.57036e-10 3.05792e-09 1.58557e-08 7.74677e-08 3.55657e-07 1.52951e-06 6.13928e-06 2.29037e-05 7.90289e-05 0.000250754 0.000726746 0.00190979 0.00451756 0.00956664 0.018111 0.0307945 0.0475474 0.0677044 0.0904071 0.114941 0.140846 0.167867 0.195882 0.22484 0.254727 0.285555 0.317348 0.350146 0.383992 0.418943 0.45506 0.492412 0.531074 0.571125 0.612646 0.655715 0.700388 0.746677 0.794479 0.843409 0.892358 0.93818 0.971819 0.973625 0.963165 0.952747 0.944396 0.938938 0.935993 0.934596 0.933969 0.933719 0.933662 0.933653 0.933527 0.933432 0.933346 0.933284 0.933268 0.933472 0.933835 0.933816 0.933742 0.933637 0.933471 0.933321 0.933165 0.933026 0.93292 0.93286 0.932854 0.93315 0.933658 0.933624 0.933595 0.9336 0.933621 0.933678 0.933639 0.933607 0.933537 0.933458 0.933363 0.933275 0.933187 0.933103 0.933027 0.932954 0.932907 0.932875 0.932872 0.932938 0.932854 0.932732 0.932543 0.932334 0.93216 0.931923 0.931763 0.931478 0.93133 0.930114 0.930873 0.922001 0.926725 0.9196 0.861499 0.798118 0.810799 0.677323 0.614298 0.480979 0.364124 0.243678 0.14481 0.0746416 0.0338244 0.0139913 0.00550755 0.00211922 0.000807435 0.000306213 0.000115803 4.36899e-05 1.64412e-05 6.16873e-06 2.30639e-06 8.58789e-07 3.1826e-07 1.17312e-07 4.29824e-08 1.56444e-08 5.65303e-09 2.02675e-09 7.20593e-10 2.53955e-10 8.86302e-11 3.06345e-11 1.0499e-11 3.51604e-12 1.28701e-12 3.40407e-13 1.42044e-13 4.33018e-14 1.53923e-13 -9.23763e-14 -9.37441e-14 9.22544e-14 1.00721e-13 -1.02688e-13 -1.23204e-14 6.94544e-14 -1.95655e-14 -7.15529e-14 0 0 1.69974e-15 -9.80871e-16 1.31239e-15 1.50843e-15 2.97143e-15 3.3731e-15 4.20691e-15 6.84909e-15 -3.20843e-15 7.8868e-15 -1.14763e-15 -4.79998e-15 1.47016e-14 1.77375e-14 1.40931e-14 -4.88318e-15 -9.41279e-15 1.23384e-14 3.6457e-15 3.70848e-16 4.1481e-15 5.88392e-15 7.04958e-15 1.00191e-14 1.85497e-14 -1.21911e-14 2.84852e-14 -4.34443e-15 -1.15317e-14 -1.48317e-14 8.09925e-15 1.69686e-14 -8.6667e-15 6.02128e-15 1.8959e-16 1.76599e-14 3.16176e-14 4.19706e-14 5.4137e-14 3.63365e-14 7.92638e-14 4.04193e-13 2.47347e-12 1.57368e-11 9.59888e-11 5.57017e-10 3.0579e-09 1.58557e-08 7.74677e-08 3.55657e-07 1.52951e-06 6.13928e-06 2.29037e-05 7.90289e-05 0.000250754 0.000726746 0.00190979 0.00451756 0.00956664 0.018111 0.0307945 0.0475474 0.0677044 0.0904071 0.114941 0.140846 0.167867 0.195882 0.22484 0.254727 0.285555 0.317348 0.350146 0.383992 0.418943 0.45506 0.492412 0.531074 0.571125 0.612646 0.655715 0.700388 0.746677 0.794479 0.843409 0.892358 0.93818 0.971819 0.973625 0.963165 0.952747 0.944396 0.938938 0.935993 0.934596 0.933969 0.933719 0.933662 0.933653 0.933527 0.933432 0.933346 0.933284 0.933268 0.933472 0.933835 0.933816 0.933742 0.933637 0.933471 0.933321 0.933165 0.933026 0.93292 0.93286 0.932854 0.93315 0.933658 0.933624 0.933595 0.9336 0.933621 0.933678 0.933639 0.933607 0.933537 0.933458 0.933363 0.933275 0.933187 0.933103 0.933027 0.932954 0.932907 0.932875 0.932872 0.932938 0.932854 0.932732 0.932543 0.932334 0.93216 0.931923 0.931763 0.931478 0.93133 0.930114 0.930873 0.922001 0.926725 0.9196 0.861499 0.798118 0.810799 0.677323 0.614298 0.480979 0.364124 0.243678 0.14481 0.0746416 0.0338244 0.0139913 0.00550755 0.00211922 0.000807435 0.000306213 0.000115803 4.36899e-05 1.64412e-05 6.16873e-06 2.30639e-06 8.58789e-07 3.1826e-07 1.17312e-07 4.29825e-08 1.56444e-08 5.65306e-09 2.02673e-09 7.20564e-10 2.53984e-10 8.86408e-11 3.07071e-11 1.04182e-11 3.67929e-12 1.12573e-12 4.33847e-13 1.74147e-13 -1.05667e-13 1.30857e-13 -4.2922e-14 -1.02007e-13 1.34889e-13 -9.68911e-14 6.50898e-14 -2.32277e-14 -4.9718e-14 4.37876e-14 -4.44351e-14 0 0 -1.94473e-15 -4.01234e-16 -1.54033e-15 -5.45851e-16 -1.37567e-15 5.08553e-15 2.41936e-15 3.94948e-16 6.30641e-15 1.66381e-15 5.3767e-15 -2.44521e-16 1.16458e-14 1.08099e-14 1.62198e-15 -4.65258e-15 7.72612e-15 8.83907e-15 1.22979e-15 7.6777e-16 -6.75492e-15 1.83487e-14 -5.04019e-15 -5.73075e-15 3.01146e-14 -1.62218e-14 1.46868e-14 3.10424e-14 -2.59337e-15 -2.34103e-14 -1.405e-14 2.79629e-14 2.90195e-14 -9.14459e-15 4.40175e-17 1.31398e-14 3.96995e-14 7.43928e-14 2.08791e-14 7.96717e-14 6.34365e-14 4.02082e-13 2.38408e-12 1.57759e-11 9.60589e-11 5.57018e-10 3.05783e-09 1.58557e-08 7.74676e-08 3.55657e-07 1.52951e-06 6.13928e-06 2.29037e-05 7.90289e-05 0.000250754 0.000726746 0.00190979 0.00451756 0.00956664 0.018111 0.0307945 0.0475474 0.0677044 0.0904071 0.114941 0.140846 0.167867 0.195882 0.22484 0.254727 0.285555 0.317348 0.350146 0.383992 0.418943 0.45506 0.492412 0.531074 0.571125 0.612646 0.655715 0.700388 0.746677 0.794479 0.843409 0.892358 0.93818 0.971819 0.973625 0.963165 0.952747 0.944396 0.938938 0.935993 0.934596 0.933969 0.933719 0.933662 0.933653 0.933527 0.933432 0.933346 0.933284 0.933268 0.933472 0.933835 0.933816 0.933742 0.933637 0.933471 0.933321 0.933165 0.933026 0.93292 0.93286 0.932854 0.93315 0.933658 0.933624 0.933595 0.9336 0.933621 0.933678 0.933639 0.933607 0.933537 0.933458 0.933363 0.933275 0.933187 0.933103 0.933027 0.932954 0.932907 0.932875 0.932872 0.932938 0.932854 0.932732 0.932543 0.932334 0.93216 0.931923 0.931763 0.931478 0.93133 0.930114 0.930873 0.922001 0.926725 0.9196 0.861499 0.798118 0.810799 0.677323 0.614298 0.480979 0.364124 0.243678 0.14481 0.0746416 0.0338244 0.0139913 0.00550755 0.00211922 0.000807435 0.000306213 0.000115803 4.36899e-05 1.64412e-05 6.16873e-06 2.30639e-06 8.58789e-07 3.1826e-07 1.17312e-07 4.29825e-08 1.56444e-08 5.653e-09 2.02686e-09 7.20601e-10 2.53943e-10 8.87313e-11 3.06927e-11 1.05142e-11 3.68561e-12 1.13405e-12 4.09159e-13 9.24647e-14 -1.24869e-13 7.18396e-14 1.10767e-14 -1.04253e-13 6.51966e-14 -7.15703e-14 6.12429e-15 2.89461e-14 -4.45186e-14 -1.81465e-14 -7.15196e-14 0 0 -2.99671e-15 -3.30904e-15 -8.61909e-16 3.13579e-17 5.42262e-16 7.74636e-16 7.48295e-15 2.48473e-15 7.2936e-15 3.06862e-15 4.79071e-15 1.43507e-14 -9.63642e-16 -3.4848e-15 2.5826e-15 -9.29614e-15 7.40158e-15 6.45911e-15 -2.73143e-16 -4.73372e-15 -1.10523e-14 1.76952e-14 -4.07295e-15 -3.28677e-16 9.09413e-15 1.91126e-14 -1.09442e-14 2.76061e-14 2.08452e-14 -1.57579e-14 -2.63283e-14 2.6297e-14 2.42199e-14 1.32783e-14 2.68508e-14 4.45873e-15 2.57165e-14 4.92649e-14 4.79467e-14 6.49331e-14 1.00184e-13 3.92646e-13 2.38102e-12 1.56894e-11 9.61016e-11 5.57005e-10 3.05772e-09 1.58558e-08 7.74676e-08 3.55657e-07 1.52951e-06 6.13928e-06 2.29037e-05 7.90289e-05 0.000250754 0.000726746 0.00190979 0.00451756 0.00956664 0.018111 0.0307945 0.0475474 0.0677044 0.0904071 0.114941 0.140846 0.167867 0.195882 0.22484 0.254727 0.285555 0.317348 0.350146 0.383992 0.418943 0.45506 0.492412 0.531074 0.571125 0.612646 0.655715 0.700388 0.746677 0.794479 0.843409 0.892358 0.93818 0.971819 0.973625 0.963165 0.952747 0.944396 0.938938 0.935993 0.934596 0.933969 0.933719 0.933662 0.933653 0.933527 0.933432 0.933346 0.933284 0.933268 0.933472 0.933835 0.933816 0.933742 0.933637 0.933471 0.933321 0.933165 0.933026 0.93292 0.93286 0.932854 0.93315 0.933658 0.933624 0.933595 0.9336 0.933621 0.933678 0.933639 0.933607 0.933537 0.933458 0.933363 0.933275 0.933187 0.933103 0.933027 0.932954 0.932907 0.932875 0.932872 0.932938 0.932854 0.932732 0.932543 0.932334 0.93216 0.931923 0.931763 0.931478 0.93133 0.930114 0.930873 0.922001 0.926725 0.9196 0.861499 0.798118 0.810799 0.677323 0.614298 0.480979 0.364124 0.243678 0.14481 0.0746416 0.0338244 0.0139913 0.00550755 0.00211922 0.000807435 0.000306213 0.000115803 4.36899e-05 1.64412e-05 6.16873e-06 2.30639e-06 8.58789e-07 3.1826e-07 1.17312e-07 4.29826e-08 1.56443e-08 5.65292e-09 2.02699e-09 7.20612e-10 2.54088e-10 8.87198e-11 3.06995e-11 1.047e-11 3.67493e-12 1.3777e-12 2.29079e-13 -5.37722e-14 8.47638e-14 -2.10798e-13 4.62457e-14 7.65747e-14 1.14091e-13 4.14737e-14 -1.92424e-13 7.89564e-14 -1.25811e-13 -9.8298e-14 -1.40945e-13 0 0 -3.74487e-15 -7.75411e-15 -6.11773e-15 -4.18925e-15 -4.42161e-15 3.09807e-16 9.76233e-15 1.12162e-14 2.71469e-15 2.2632e-14 -1.65183e-15 -3.20546e-15 7.23505e-16 -8.20409e-16 -1.00219e-15 -1.06408e-14 5.30889e-15 -4.0674e-16 -1.01585e-14 7.16158e-15 2.00692e-15 -6.83581e-15 9.04273e-15 2.21776e-14 -1.93134e-14 1.84164e-14 2.10235e-15 6.76362e-15 2.32068e-14 1.62004e-14 9.33209e-15 9.19618e-15 5.46563e-15 9.2091e-15 1.00639e-14 3.3267e-14 5.86752e-15 4.46491e-14 8.34189e-14 8.50174e-14 5.68567e-14 4.22759e-13 2.40284e-12 1.56771e-11 9.6087e-11 5.56925e-10 3.05769e-09 1.58558e-08 7.74676e-08 3.55657e-07 1.52951e-06 6.13928e-06 2.29037e-05 7.90289e-05 0.000250754 0.000726746 0.00190979 0.00451756 0.00956664 0.018111 0.0307945 0.0475474 0.0677044 0.0904071 0.114941 0.140846 0.167867 0.195882 0.22484 0.254727 0.285555 0.317348 0.350146 0.383992 0.418943 0.45506 0.492412 0.531074 0.571125 0.612646 0.655715 0.700388 0.746677 0.794479 0.843409 0.892358 0.93818 0.971819 0.973625 0.963165 0.952747 0.944396 0.938938 0.935993 0.934596 0.933969 0.933719 0.933662 0.933653 0.933527 0.933432 0.933346 0.933284 0.933268 0.933472 0.933835 0.933816 0.933742 0.933637 0.933471 0.933321 0.933165 0.933026 0.93292 0.93286 0.932854 0.93315 0.933658 0.933624 0.933595 0.9336 0.933621 0.933678 0.933639 0.933607 0.933537 0.933458 0.933363 0.933275 0.933187 0.933103 0.933027 0.932954 0.932907 0.932875 0.932872 0.932938 0.932854 0.932732 0.932543 0.932334 0.93216 0.931923 0.931763 0.931478 0.93133 0.930114 0.930873 0.922001 0.926725 0.9196 0.861499 0.798118 0.810799 0.677323 0.614298 0.480979 0.364124 0.243678 0.14481 0.0746416 0.0338244 0.0139913 0.00550755 0.00211922 0.000807435 0.000306213 0.000115803 4.36899e-05 1.64412e-05 6.16873e-06 2.30639e-06 8.58789e-07 3.1826e-07 1.17312e-07 4.29826e-08 1.56443e-08 5.65292e-09 2.02693e-09 7.20677e-10 2.54105e-10 8.87253e-11 3.08366e-11 1.04677e-11 4.03806e-12 1.08577e-12 2.33524e-13 -6.28918e-14 5.1822e-14 -6.675e-14 -3.49098e-14 6.96845e-14 1.05281e-13 -7.61574e-14 -8.15541e-14 6.75005e-14 -2.48867e-13 -2.79025e-13 -2.5741e-14 0 0 -7.24291e-15 -6.23889e-15 -1.40521e-14 -9.21981e-15 -1.42328e-14 4.08664e-15 8.54775e-15 1.05496e-14 1.60021e-14 1.97093e-14 -1.27859e-15 -1.96051e-14 1.07517e-14 -5.94961e-15 -2.09375e-14 7.36365e-15 1.88086e-14 -1.30288e-14 -2.15177e-14 3.13851e-14 2.04079e-14 -1.66102e-14 -4.28491e-15 2.09301e-14 -1.34866e-14 6.0703e-15 -1.16128e-14 2.56154e-14 1.51683e-14 3.25556e-14 3.8693e-14 9.05127e-15 1.07386e-14 -2.44461e-14 -2.69061e-14 7.12489e-14 4.79906e-15 5.16916e-14 9.10991e-14 1.52983e-13 -1.01551e-14 4.3898e-13 2.40374e-12 1.57558e-11 9.60251e-11 5.5688e-10 3.05772e-09 1.58557e-08 7.74676e-08 3.55657e-07 1.52951e-06 6.13928e-06 2.29037e-05 7.90289e-05 0.000250754 0.000726746 0.00190979 0.00451756 0.00956664 0.018111 0.0307945 0.0475474 0.0677044 0.0904071 0.114941 0.140846 0.167867 0.195882 0.22484 0.254727 0.285555 0.317348 0.350146 0.383992 0.418943 0.45506 0.492412 0.531074 0.571125 0.612646 0.655715 0.700388 0.746677 0.794479 0.843409 0.892358 0.93818 0.971819 0.973625 0.963165 0.952747 0.944396 0.938938 0.935993 0.934596 0.933969 0.933719 0.933662 0.933653 0.933527 0.933432 0.933346 0.933284 0.933268 0.933472 0.933835 0.933816 0.933742 0.933637 0.933471 0.933321 0.933165 0.933026 0.93292 0.93286 0.932854 0.93315 0.933658 0.933624 0.933595 0.9336 0.933621 0.933678 0.933639 0.933607 0.933537 0.933458 0.933363 0.933275 0.933187 0.933103 0.933027 0.932954 0.932907 0.932875 0.932872 0.932938 0.932854 0.932732 0.932543 0.932334 0.93216 0.931923 0.931763 0.931478 0.93133 0.930114 0.930873 0.922001 0.926725 0.9196 0.861499 0.798118 0.810799 0.677323 0.614298 0.480979 0.364124 0.243678 0.14481 0.0746416 0.0338244 0.0139913 0.00550755 0.00211922 0.000807435 0.000306213 0.000115803 4.36899e-05 1.64412e-05 6.16873e-06 2.30639e-06 8.58789e-07 3.18261e-07 1.17312e-07 4.29824e-08 1.56443e-08 5.65291e-09 2.0269e-09 7.20799e-10 2.53906e-10 8.88222e-11 3.08791e-11 1.06858e-11 4.25478e-12 7.19629e-13 2.99981e-13 -3.95477e-14 -6.07196e-14 3.24075e-13 -1.47229e-13 -1.12292e-13 -6.46016e-14 -8.4098e-14 4.93627e-16 6.98655e-14 -1.65552e-13 -5.05482e-13 1.03849e-13 0
				</DataArray>
				<DataArray Name="VitesseY" type="Float32" format="ascii">