<?xml version="1.0"?>
<VTKFile type="PolyData">
	<PolyData>
		<Piece NumberOfPoints="1206" NumberOfPolys="1000">
			<Points>
				<DataArray type="Float32" NumberOfComponents="3" format="ascii">
 0 0 0 0.005 0 0 0.01 0 0 0.015 0 0 0.02 0 0 0.025 0 0 0.03 0 0 0.035 0 0 0.04 0 0 0.045 0 0 0.05 0 0 0.055 0 0 0.06 0 0 0.065 0 0 0.07 0 0 0.075 0 0 0.08 0 0 0.085 0 0 0.09 0 0 0.095 0 0 0.1 0 0 0.105 0 0 0.11 0 0 0.115 0 0 0.12 0 0 0.125 0 0 0.13 0 0 0.135 0 0 0.14 0 0 0.145 0 0 0.15 0 0 0.155 0 0 0.16 0 0 0.165 0 0 0.17 0 0 0.175 0 0 0.18 0 0 0.185 0 0 0.19 0 0 0.195 0 0 0.2 0 0 0.205 0 0 0.21 0 0 0.215 0 0 0.22 0 0 0.225 0 0 0.23 0 0 0.235001 0 0 0.240002 0 0 0.245005 0 0 0.250014 0 0 0.255032 0 0 0.26007 0 0 0.265139 0 0 0.270253 0 0 0.275427 0 0 0.280675 0 0 0.286007 0 0 0.291431 0 0 0.296955 0 0 0.302586 0 0 0.30833 0 0 0.314192 0 0 0.320179 0 0 0.326299 0 0 0.332557 0 0 0.338962 0 0 0.345521 0 0 0.352244 0 0 0.35914 0 0 0.366218 0 0 0.373491 0 0 0.38097 0 0 0.388669 0 0 0.396603 0 0 0.404786 0 0 0.413238 0 0 0.421978 0 0 0.431027 0 0 0.440409 0 0 0.45015 0 0 0.460279 0 0 0.470824 0 0 0.481812 0 0 0.493263 0 0 0.505161 0 0 0.517396 0 0 0.529676 0 0 0.541863 0 0 0.553943 0 0 0.565923 0 0 0.577827 0 0 0.589683 0 0 0.601512 0 0 0.613328 0 0 0.625139 0 0 0.636948 0 0 0.648756 0 0 0.660564 0 0 0.672372 0 0 0.68418 0 0 0.68646 0 0 0.68874 0 0 0.691021 0 0 0.693301 0 0 0.695582 0 0 0.697861 0 0 0.700136 0 0 0.70241 0 0 0.70469 0 0 0.70697 0 0 0.709248 0 0 0.711528 0 0 0.713807 0 0 0.716086 0 0 0.718366 0 0 0.720645 0 0 0.722925 0 0 0.725203 0 0 0.727482 0 0 0.729762 0 0 0.732041 0 0 0.73432 0 0 0.736598 0 0 0.738877 0 0 0.741157 0 0 0.743435 0 0 0.745712 0 0 0.74799 0 0 0.750268 0 0 0.752547 0 0 0.754824 0 0 0.757101 0 0 0.75938 0 0 0.76166 0 0 0.763941 0 0 0.766222 0 0 0.768504 0 0 0.770786 0 0 0.773068 0 0 0.775348 0 0 0.777628 0 0 0.779906 0 0 0.782184 0 0 0.784462 0 0 0.786739 0 0 0.789019 0 0 0.791303 0 0 0.793586 0 0 0.79587 0 0 0.798153 0 0 0.800435 0 0 0.802716 0 0 0.804995 0 0 0.807274 0 0 0.809558 0 0 0.811841 0 0 0.814124 0 0 0.816406 0 0 0.818688 0 0 0.82097 0 0 0.823265 0 0 0.825623 0 0 0.828041 0 0 0.830605 0 0 0.833319 0 0 0.836222 0 0 0.839403 0 0 0.842903 0 0 0.846758 0 0 0.850963 0 0 0.855473 0 0 0.86021 0 0 0.865086 0 0 0.870034 0 0 0.875013 0 0 0.880005 0 0 0.885002 0 0 0.890001 0 0 0.895 0 0 0.9 0 0 0.905 0 0 0.91 0 0 0.915 0 0 0.92 0 0 0.925 0 0 0.93 0 0 0.935 0 0 0.94 0 0 0.945 0 0 0.95 0 0 0.955 0 0 0.96 0 0 0.965 0 0 0.97 0 0 0.975 0 0 0.98 0 0 0.985 0 0 0.99 0 0 0.995 0 0 1 0 0 0 0.02 0 0.005 0.02 0 0.01 0.02 0 0.015 0.02 0 0.02 0.02 0 0.025 0.02 0 0.03 0.02 0 0.035 0.02 0 0.04 0.02 0 0.045 0.02 0 0.05 0.02 0 0.055 0.02 0 0.06 0.02 0 0.065 0.02 0 0.07 0.02 0 0.075 0.02 0 0.08 0.02 0 0.085 0.02 0 0.09 0.02 0 0.095 0.02 0 0.1 0.02 0 0.105 0.02 0 0.11 0.02 0 0.115 0.02 0 0.12 0.02 0 0.125 0.02 0 0.13 0.02 0 0.135 0.02 0 0.14 0.02 0 0.145 0.02 0 0.15 0.02 0 0.155 0.02 0 0.16 0.02 0 0.165 0.02 0 0.17 0.02 0 0.175 0.02 0 0.18 0.02 0 0.185 0.02 0 0.19 0.02 0 0.195 0.02 0 0.2 0.02 0 0.205 0.02 0 0.21 0.02 0 0.215 0.02 0 0.22 0.02 0 0.225 0.02 0 0.23 0.02 0 0.235001 0.02 0 0.240002 0.02 0 0.245005 0.02 0 0.250014 0.02 0 0.255032 0.02 0 0.26007 0.02 0 0.265139 0.02 0 0.270253 0.02 0 0.275427 0.02 0 0.280675 0.02 0 0.286007 0.02 0 0.291431 0.02 0 0.296955 0.02 0 0.302586 0.02 0 0.30833 0.02 0 0.314192 0.02 0 0.320179 0.02 0 0.326299 0.02 0 0.332557 0.02 0 0.338962 0.02 0 0.345521 0.02 0 0.352244 0.02 0 0.35914 0.02 0 0.366218 0.02 0 0.373491 0.02 0 0.38097 0.02 0 0.388669 0.02 0 0.396603 0.02 0 0.404786 0.02 0 0.413238 0.02 0 0.421978 0.02 0 0.431027 0.02 0 0.440409 0.02 0 0.45015 0.02 0 0.460279 0.02 0 0.470824 0.02 0 0.481812 0.02 0 0.493263 0.02 0 0.505161 0.02 0 0.517396 0.02 0 0.529676 0.02 0 0.541863 0.02 0 0.553943 0.02 0 0.565923 0.02 0 0.577827 0.02 0 0.589683 0.02 0 0.601512 0.02 0 0.613328 0.02 0 0.625139 0.02 0 0.636948 0.02 0 0.648756 0.02 0 0.660564 0.02 0 0.672372 0.02 0 0.68418 0.02 0 0.68646 0.02 0 0.68874 0.02 0 0.691021 0.02 0 0.693301 0.02 0 0.695582 0.02 0 0.697861 0.02 0 0.700136 0.02 0 0.70241 0.02 0 0.70469 0.02 0 0.70697 0.02 0 0.709248 0.02 0 0.711528 0.02 0 0.713807 0.02 0 0.716086 0.02 0 0.718366 0.02 0 0.720645 0.02 0 0.722925 0.02 0 0.725203 0.02 0 0.727482 0.02 0 0.729762 0.02 0 0.732041 0.02 0 0.73432 0.02 0 0.736598 0.02 0 0.738877 0.02 0 0.741157 0.02 0 0.743435 0.02 0 0.745712 0.02 0 0.74799 0.02 0 0.750268 0.02 0 0.752547 0.02 0 0.754824 0.02 0 0.757101 0.02 0 0.75938 0.02 0 0.76166 0.02 0 0.763941 0.02 0 0.766222 0.02 0 0.768504 0.02 0 0.770786 0.02 0 0.773068 0.02 0 0.775348 0.02 0 0.777628 0.02 0 0.779906 0.02 0 0.782184 0.02 0 0.784462 0.02 0 0.786739 0.02 0 0.789019 0.02 0 0.791303 0.02 0 0.793586 0.02 0 0.79587 0.02 0 0.798153 0.02 0 0.800435 0.02 0 0.802716 0.02 0 0.804995 0.02 0 0.807274 0.02 0 0.809558 0.02 0 0.811841 0.02 0 0.814124 0.02 0 0.816406 0.02 0 0.818688 0.02 0 0.82097 0.02 0 0.823265 0.02 0 0.825623 0.02 0 0.828041 0.02 0 0.830605 0.02 0 0.833319 0.02 0 0.836222 0.02 0 0.839403 0.02 0 0.842903 0.02 0 0.846758 0.02 0 0.850963 0.02 0 0.855473 0.02 0 0.86021 0.02 0 0.865086 0.02 0 0.870034 0.02 0 0.875013 0.02 0 0.880005 0.02 0 0.885002 0.02 0 0.890001 0.02 0 0.895 0.02 0 0.9 0.02 0 0.905 0.02 0 0.91 0.02 0 0.915 0.02 0 0.92 0.02 0 0.925 0.02 0 0.93 0.02 0 0.935 0.02 0 0.94 0.02 0 0.945 0.02 0 0.95 0.02 0 0.955 0.02 0 0.96 0.02 0 0.965 0.02 0 0.97 0.02 0 0.975 0.02 0 0.98 0.02 0 0.985 0.02 0 0.99 0.02 0 0.995 0.02 0 1 0.02 0 0 0.04 0 0.005 0.04 0 0.01 0.04 0 0.015 0.04 0 0.02 0.04 0 0.025 0.04 0 0.03 0.04 0 0.035 0.04 0 0.04 0.04 0 0.045 0.04 0 0.05 0.04 0 0.055 0.04 0 0.06 0.04 0 0.065 0.04 0 0.07 0.04 0 0.075 0.04 0 0.08 0.04 0 0.085 0.04 0 0.09 0.04 0 0.095 0.04 0 0.1 0.04 0 0.105 0.04 0 0.11 0.04 0 0.115 0.04 0 0.12 0.04 0 0.125 0.04 0 0.13 0.04 0 0.135 0.04 0 0.14 0.04 0 0.145 0.04 0 0.15 0.04 0 0.155 0.04 0 0.16 0.04 0 0.165 0.04 0 0.17 0.04 0 0.175 0.04 0 0.18 0.04 0 0.185 0.04 0 0.19 0.04 0 0.195 0.04 0 0.2 0.04 0 0.205 0.04 0 0.21 0.04 0 0.215 0.04 0 0.22 0.04 0 0.225 0.04 0 0.23 0.04 0 0.235001 0.04 0 0.240002 0.04 0 0.245005 0.04 0 0.250014 0.04 0 0.255032 0.04 0 0.26007 0.04 0 0.265139 0.04 0 0.270253 0.04 0 0.275427 0.04 0 0.280675 0.04 0 0.286007 0.04 0 0.291431 0.04 0 0.296955 0.04 0 0.302586 0.04 0 0.30833 0.04 0 0.314192 0.04 0 0.320179 0.04 0 0.326299 0.04 0 0.332557 0.04 0 0.338962 0.04 0 0.345521 0.04 0 0.352244 0.04 0 0.35914 0.04 0 0.366218 0.04 0 0.373491 0.04 0 0.38097 0.04 0 0.388669 0.04 0 0.396603 0.04 0 0.404786 0.04 0 0.413238 0.04 0 0.421978 0.04 0 0.431027 0.04 0 0.440409 0.04 0 0.45015 0.04 0 0.460279 0.04 0 0.470824 0.04 0 0.481812 0.04 0 0.493263 0.04 0 0.505161 0.04 0 0.517396 0.04 0 0.529676 0.04 0 0.541863 0.04 0 0.553943 0.04 0 0.565923 0.04 0 0.577827 0.04 0 0.589683 0.04 0 0.601512 0.04 0 0.613328 0.04 0 0.625139 0.04 0 0.636948 0.04 0 0.648756 0.04 0 0.660564 0.04 0 0.672372 0.04 0 0.68418 0.04 0 0.68646 0.04 0 0.68874 0.04 0 0.691021 0.04 0 0.693301 0.04 0 0.695582 0.04 0 0.697861 0.04 0 0.700136 0.04 0 0.70241 0.04 0 0.70469 0.04 0 0.70697 0.04 0 0.709248 0.04 0 0.711528 0.04 0 0.713807 0.04 0 0.716086 0.04 0 0.718366 0.04 0 0.720645 0.04 0 0.722925 0.04 0 0.725203 0.04 0 0.727482 0.04 0 0.729762 0.04 0 0.732041 0.04 0 0.73432 0.04 0 0.736598 0.04 0 0.738877 0.04 0 0.741157 0.04 0 0.743435 0.04 0 0.745712 0.04 0 0.74799 0.04 0 0.750268 0.04 0 0.752547 0.04 0 0.754824 0.04 0 0.757101 0.04 0 0.75938 0.04 0 0.76166 0.04 0 0.763941 0.04 0 0.766222 0.04 0 0.768504 0.04 0 0.770786 0.04 0 0.773068 0.04 0 0.775348 0.04 0 0.777628 0.04 0 0.779906 0.04 0 0.782184 0.04 0 0.784462 0.04 0 0.786739 0.04 0 0.789019 0.04 0 0.791303 0.04 0 0.793586 0.04 0 0.79587 0.04 0 0.798153 0.04 0 0.800435 0.04 0 0.802716 0.04 0 0.804995 0.04 0 0.807274 0.04 0 0.809558 0.04 0 0.811841 0.04 0 0.814124 0.04 0 0.816406 0.04 0 0.818688 0.04 0 0.82097 0.04 0 0.823265 0.04 0 0.825623 0.04 0 0.828041 0.04 0 0.830605 0.04 0 0.833319 0.04 0 0.836222 0.04 0 0.839403 0.04 0 0.842903 0.04 0 0.846758 0.04 0 0.850963 0.04 0 0.855473 0.04 0 0.86021 0.04 0 0.865086 0.04 0 0.870034 0.04 0 0.875013 0.04 0 0.880005 0.04 0 0.885002 0.04 0 0.890001 0.04 0 0.895 0.04 0 0.9 0.04 0 0.905 0.04 0 0.91 0.04 0 0.915 0.04 0 0.92 0.04 0 0.925 0.04 0 0.93 0.04 0 0.935 0.04 0 0.94 0.04 0 0.945 0.04 0 0.95 0.04 0 0.955 0.04 0 0.96 0.04 0 0.965 0.04 0 0.97 0.04 0 0.975 0.04 0 0.98 0.04 0 0.985 0.04 0 0.99 0.04 0 0.995 0.04 0 1 0.04 0 0 0.06 0 0.005 0.06 0 0.01 0.06 0 0.015 0.06 0 0.02 0.06 0 0.025 0.06 0 0.03 0.06 0 0.035 0.06 0 0.04 0.06 0 0.045 0.06 0 0.05 0.06 0 0.055 0.06 0 0.06 0.06 0 0.065 0.06 0 0.07 0.06 0 0.075 0.06 0 0.08 0.06 0 0.085 0.06 0 0.09 0.06 0 0.095 0.06 0 0.1 0.06 0 0.105 0.06 0 0.11 0.06 0 0.115 0.06 0 0.12 0.06 0 0.125 0.06 0 0.13 0.06 0 0.135 0.06 0 0.14 0.06 0 0.145 0.06 0 0.15 0.06 0 0.155 0.06 0 0.16 0.06 0 0.165 0.06 0 0.17 0.06 0 0.175 0.06 0 0.18 0.06 0 0.185 0.06 0 0.19 0.06 0 0.195 0.06 0 0.2 0.06 0 0.205 0.06 0 0.21 0.06 0 0.215 0.06 0 0.22 0.06 0 0.225 0.06 0 0.23 0.06 0 0.235001 0.06 0 0.240002 0.06 0 0.245005 0.06 0 0.250014 0.06 0 0.255032 0.06 0 0.26007 0.06 0 0.265139 0.06 0 0.270253 0.06 0 0.275427 0.06 0 0.280675 0.06 0 0.286007 0.06 0 0.291431 0.06 0 0.296955 0.06 0 0.302586 0.06 0 0.30833 0.06 0 0.314192 0.06 0 0.320179 0.06 0 0.326299 0.06 0 0.332557 0.06 0 0.338962 0.06 0 0.345521 0.06 0 0.352244 0.06 0 0.35914 0.06 0 0.366218 0.06 0 0.373491 0.06 0 0.38097 0.06 0 0.388669 0.06 0 0.396603 0.06 0 0.404786 0.06 0 0.413238 0.06 0 0.421978 0.06 0 0.431027 0.06 0 0.440409 0.06 0 0.45015 0.06 0 0.460279 0.06 0 0.470824 0.06 0 0.481812 0.06 0 0.493263 0.06 0 0.505161 0.06 0 0.517396 0.06 0 0.529676 0.06 0 0.541863 0.06 0 0.553943 0.06 0 0.565923 0.06 0 0.577827 0.06 0 0.589683 0.06 0 0.601512 0.06 0 0.613328 0.06 0 0.625139 0.06 0 0.636948 0.06 0 0.648756 0.06 0 0.660564 0.06 0 0.672372 0.06 0 0.68418 0.06 0 0.68646 0.06 0 0.68874 0.06 0 0.691021 0.06 0 0.693301 0.06 0 0.695582 0.06 0 0.697861 0.06 0 0.700136 0.06 0 0.70241 0.06 0 0.
[...]
			<PointData Scalars="VitesseX">
				<DataArray Name="VitesseX" type="Float32" format="ascii">
 0 -9.34864e-16 -1.83347e-15 -1.74533e-15 2.04142e-15 -5.99946e-16 4.0073e-16 4.92792e-15 8.01135e-15 6.3705e-15 2.77867e-15 -4.508e-15 5.52047e-15 -1.46768e-15 1.18226e-14 1.39921e-14 -2.37972e-15 9.03691e-15 1.32704e-14 8.20282e-15 -4.68088e-16 -6.10501e-15 1.57729e-15 3.0384e-15 2.67096e-15 -5.04591e-15 -1.1025e-15 4.53963e-14 2.80924e-15 4.32691e-14 3.13248e-14 1.31933e-14 7.54279e-14 1.10043e-13 8.31997e-13 4.59554e-12 2.59828e-11 1.41966e-10 7.39229e-10 3.66246e-09 1.7234e-08 7.68565e-08 3.24067e-07 1.28855e-06 4.81688e-06 1.68699e-05 5.51296e-05 0.000167314 0.00046901 0.00120695 0.00283355 0.00603596 0.0116315 0.020301 0.0322968 0.0473545 0.0648768 0.0842193 0.104877 0.126527 0.148986 0.172158 0.195996 0.220484 0.245617 0.271404 0.29786 0.325008 0.352872 0.381483 0.410875 0.441087 0.472161 0.504141 0.537076 0.571018 0.60602 0.642134 0.679406 0.717868 0.75752 0.798289 0.83994 0.881845 0.922368 0.957081 0.973959 0.966652 0.958341 0.949781 0.942987 0.938475 0.935915 0.934642 0.934072 0.933844 0.933762 0.933726 0.933695 0.933631 0.933466 0.933608 0.933889 0.9341 0.93403 0.934021 0.933997 0.933954 0.933904 0.933858 0.933809 0.933769 0.933728 0.933695 0.933663 0.933633 0.933601 0.933566 0.933526 0.93348 0.933424 0.933357 0.933277 0.933183 0.933076 0.932957 0.932832 0.932706 0.932588 0.932487 0.932413 0.932369 0.932368 0.932641 0.933699 0.934786 0.934274 0.934087 0.933661 0.933225 0.932764 0.932368 0.932075 0.93187 0.931832 0.932023 0.933799 0.935503 0.934231 0.933661 0.933107 0.932274 0.931971 0.931742 0.932842 0.932904 0.932437 0.93195 0.934866 0.935355 0.93031 0.902456 0.922327 0.844932 0.792836 0.766239 0.658258 0.562025 0.441897 0.320527 0.206732 0.116915 0.0573796 0.0250331 0.0101311 0.00394922 0.00151466 0.000577061 0.000219224 8.3159e-05 3.1511e-05 1.19275e-05 4.50909e-06 1.70201e-06 6.41247e-07 2.41051e-07 9.03715e-08 3.37752e-08 1.2578e-08 4.66492e-09 1.72237e-09 6.32593e-10 2.31208e-10 8.38877e-11 3.03498e-11 1.08221e-11 3.81117e-12 1.44641e-12 4.89789e-13 7.16972e-14 0 0 -1.57045e-15 -9.6113e-16 2.2541e-16 1.50056e-15 3.7638e-15 2.88128e-15 4.65778e-15 2.47925e-15 6.39131e-15 -1.44179e-15 8.19615e-15 3.14036e-15 9.26725e-15 -8.38117e-15 6.14134e-15 8.64329e-15 9.13972e-15 1.20956e-14 1.34163e-15 9.15378e-15 -1.22479e-15 -2.62048e-15 -5.35229e-15 -1.84434e-15 1.35336e-14 -2.93674e-15 2.28391e-14 3.02733e-14 2.94405e-14 2.39547e-14 3.32556e-14 7.60452e-14 1.59274e-13 7.71264e-13 4.56617e-12 2.59766e-11 1.41994e-10 7.39177e-10 3.6625e-09 1.72341e-08 7.68564e-08 3.24067e-07 1.28855e-06 4.81688e-06 1.68699e-05 5.51296e-05 0.000167314 0.00046901 0.00120695 0.00283355 0.00603596 0.0116315 0.020301 0.0322968 0.0473545 0.0648768 0.0842193 0.104877 0.126527 0.148986 0.172158 0.195996 0.220484 0.245617 0.271404 0.29786 0.325008 0.352872 0.381483 0.410875 0.441087 0.472161 0.504141 0.537076 0.571018 0.60602 0.642134 0.679406 0.717868 0.75752 0.798289 0.83994 0.881845 0.922368 0.957081 0.973959 0.966652 0.958341 0.949781 0.942987 0.938475 0.935915 0.934642 0.934072 0.933844 0.933762 0.933726 0.933695 0.933631 0.933466 0.933608 0.933889 0.9341 0.93403 0.934021 0.933997 0.933954 0.933904 0.933858 0.933809 0.933769 0.933728 0.933695 0.933663 0.933633 0.933601 0.933566 0.933526 0.93348 0.933424 0.933357 0.933277 0.933183 0.933076 0.932957 0.932832 0.932706 0.932588 0.932487 0.932413 0.932369 0.932368 0.932641 0.933699 0.934786 0.934274 0.934087 0.933661 0.933225 0.932764 0.932368 0.932075 0.93187 0.931832 0.932023 0.933799 0.935503 0.934231 0.933661 0.933107 0.932274 0.931971 0.931742 0.932842 0.932904 0.932437 0.93195 0.934866 0.935355 0.93031 0.902456 0.922327 0.844932 0.792836 0.766239 0.658258 0.562025 0.441897 0.320527 0.206732 0.116915 0.0573796 0.0250331 0.0101311 0.00394922 0.00151466 0.000577061 0.000219224 8.3159e-05 3.1511e-05 1.19275e-05 4.50909e-06 1.70201e-06 6.41247e-07 2.41051e-07 9.03715e-08 3.37753e-08 1.25779e-08 4.66492e-09 1.72242e-09 6.32713e-10 2.3114e-10 8.39103e-11 3.03614e-11 1.08569e-11 3.90184e-12 1.35005e-12 4.8185e-13 1.25094e-13 0 0 1.54717e-16 4.20448e-16 1.99274e-15 3.39562e-15 8.10568e-15 2.23242e-15 7.05951e-15 -2.80248e-15 -4.63566e-15 2.66178e-15 2.11101e-15 7.68948e-15 5.89818e-15 -9.63908e-16 -1.66948e-15 9.3398e-17 6.17244e-15 1.34319e-14 -2.70957e-15 9.68109e-15 6.63823e-16 -7.80689e-16 -4.73834e-15 1.19117e-14 7.10209e-15 2.53269e-14 1.90935e-14 2.07196e-14 2.80972e-14 6.65989e-14 3.38049e-14 8.32878e-14 1.97592e-13 7.17735e-13 4.51181e-12 2.59903e-11 1.4198e-10 7.39098e-10 3.66258e-09 1.72342e-08 7.68564e-08 3.24067e-07 1.28855e-06 4.81688e-06 1.68699e-05 5.51296e-05 0.000167314 0.00046901 0.00120695 0.00283355 0.00603596 0.0116315 0.020301 0.0322968 0.0473545 0.0648768 0.0842193 0.104877 0.126527 0.148986 0.172158 0.195996 0.220484 0.245617 0.271404 0.29786 0.325008 0.352872 0.381483 0.410875 0.441087 0.472161 0.504141 0.537076 0.571018 0.60602 0.642134 0.679406 0.717868 0.75752 0.798289 0.83994 0.881845 0.922368 0.957081 0.973959 0.966652 0.958341 0.949781 0.942987 0.938475 0.935915 0.934642 0.934072 0.933844 0.933762 0.933726 0.933695 0.933631 0.933466 0.933608 0.933889 0.9341 0.93403 0.934021 0.933997 0.933954 0.933904 0.933858 0.933809 0.933769 0.933728 0.933695 0.933663 0.933633 0.933601 0.933566 0.933526 0.93348 0.933424 0.933357 0.933277 0.933183 0.933076 0.932957 0.932832 0.932706 0.932588 0.932487 0.932413 0.932369 0.932368 0.932641 0.933699 0.934786 0.934274 0.934087 0.933661 0.933225 0.932764 0.932368 0.932075 0.93187 0.931832 0.932023 0.933799 0.935503 0.934231 0.933661 0.933107 0.932274 0.931971 0.931742 0.932842 0.932904 0.932437 0.93195 0.934866 0.935355 0.93031 0.902456 0.922327 0.844932 0.792836 0.766239 0.658258 0.562025 0.441897 0.320527 0.206732 0.116915 0.0573796 0.0250331 0.0101311 0.00394922 0.00151466 0.000577061 0.000219224 8.3159e-05 3.1511e-05 1.19275e-05 4.50909e-06 1.70201e-06 6.41247e-07 2.41051e-07 9.03714e-08 3.37753e-08 1.2578e-08 4.66493e-09 1.72242e-09 6.32718e-10 2.31204e-10 8.40126e-11 3.02642e-11 1.09159e-11 4.01686e-12 1.37141e-12 3.65581e-13 6.11729e-14 0 0 2.34314e-15 3.69308e-15 4.17507e-15 3.32887e-15 4.74434e-16 -1.32501e-15 -2.96704e-15 1.26463e-15 -5.68559e-15 5.13098e-15 -4.80192e-15 1.9264e-16 -4.08017e-15 7.72009e-15 6.48081e-15 -9.0696e-15 7.21949e-15 6.75937e-15 9.22763e-15 1.42263e-14 1.33854e-15 1.08558e-14 -3.67351e-15 1.22679e-14 2.02507e-14 3.07491e-14 5.11184e-16 1.19295e-14 5.2984e-14 8.31396e-14 3.25697e-14 8.83769e-14 2.11679e-13 7.2109e-13 4.50159e-12 2.59882e-11 1.41954e-10 7.39112e-10 3.66253e-09 1.72341e-08 7.68563e-08 3.24067e-07 1.28855e-06 4.81688e-06 1.68699e-05 5.51296e-05 0.000167314 0.00046901 0.00120695 0.00283355 0.00603596 0.0116315 0.020301 0.0322968 0.0473545 0.0648768 0.0842193 0.104877 0.126527 0.148986 0.172158 0.195996 0.220484 0.245617 0.271404 0.29786 0.325008 0.352872 0.381483 0.410875 0.441087 0.472161 0.504141 0.537076 0.571018 0.60602 0.642134 0.679406 0.717868 0.75752 0.798289 0.83994 0.881845 0.922368 0.957081 0.973959 0.966652 0.958341 0.949781 0.942987 0.938475 0.935915 0.934642 0.934072 0.933844 0.933762 0.933726 0.933695 0.933631 0.933466 0.933608 0.933889 0.9341 0.93403 0.934021 0.933997 0.933954 0.933904 0.933858 0.933809 0.933769 0.933728 0.933695 0.933663 0.933633 0.933601 0.933566 0.933526 0.93348 0.933424 0.933357 0.933277 0.933183 0.933076 0.932957 0.932832 0.932706 0.932588 0.932487 0.932413 0.932369 0.932368 0.932641 0.933699 0.934786 0.934274 0.934087 0.933661 0.933225 0.932764 0.932368 0.932075 0.93187 0.931832 0.932023 0.933799 0.935503 0.934231 0.933661 0.933107 0.932274 0.931971 0.931742 0.932842 0.932904 0.932437 0.93195 0.934866 0.935355 0.93031 0.902456 0.922327 0.844932 0.792836 0.766239 0.658258 0.562025 0.441897 0.320527 0.206732 0.116915 0.0573796 0.0250331 0.0101311 0.00394922 0.00151466 0.000577061 0.000219224 8.3159e-05 3.1511e-05 1.19275e-05 4.50909e-06 1.70201e-06 6.41247e-07 2.41051e-07 9.03713e-08 3.37754e-08 1.25779e-08 4.66505e-09 1.72241e-09 6.32762e-10 2.31202e-10 8.40828e-11 3.03021e-11 1.09495e-11 4.03608e-12 1.35878e-12 1.6426e-13 -3.99408e-14 0 0 4.34242e-15 5.62314e-15 5.08677e-15 5.91684e-15 1.02207e-14 -2.52808e-15 -6.78967e-15 -3.86957e-15 -5.28493e-15 -2.97494e-15 5.51269e-15 -5.98763e-15 4.77017e-15 6.16042e-16 1.54004e-14 -9.74227e-15 6.89214e-15 5.31831e-15 4.82116e-15 2.01865e-14 1.03519e-14 1.87395e-14 2.00107e-15 4.59878e-15 3.50027e-14 5.147e-15 -2.32605e-14 5.33731e-14 3.86657e-14 6.48266e-14 1.01694e-13 5.46135e-14 1.90843e-13 7.3513e-13 4.49993e-12 2.59425e-11 1.41965e-10 7.3917e-10 3.66242e-09 1.72341e-08 7.68562e-08 3.24067e-07 1.28855e-06 4.81688e-06 1.68699e-05 5.51296e-05 0.000167314 0.00046901 0.00120695 0.00283355 0.00603596 0.0116315 0.020301 0.0322968 0.0473545 0.0648768 0.0842193 0.104877 0.126527 0.148986 0.172158 0.195996 0.220484 0.245617 0.271404 0.29786 0.325008 0.352872 0.381483 0.410875 0.441087 0.472161 0.504141 0.537076 0.571018 0.60602 0.642134 0.679406 0.717868 0.75752 0.798289 0.83994 0.881845 0.922368 0.957081 0.973959 0.966652 0.958341 0.949781 0.942987 0.938475 0.935915 0.934642 0.934072 0.933844 0.933762 0.933726 0.933695 0.933631 0.933466 0.933608 0.933889 0.9341 0.93403 0.934021 0.933997 0.933954 0.933904 0.933858 0.933809 0.933769 0.933728 0.933695 0.933663 0.933633 0.933601 0.933566 0.933526 0.93348 0.933424 0.933357 0.933277 0.933183 0.933076 0.932957 0.932832 0.932706 0.932588 0.932487 0.932413 0.932369 0.932368 0.932641 0.933699 0.934786 0.934274 0.934087 0.933661 0.933225 0.932764 0.932368 0.932075 0.93187 0.931832 0.932023 0.933799 0.935503 0.934231 0.933661 0.933107 0.932274 0.931971 0.931742 0.932842 0.932904 0.932437 0.93195 0.934866 0.935355 0.93031 0.902456 0.922327 0.844932 0.792836 0.766239 0.658258 0.562025 0.441897 0.320527 0.206732 0.116915 0.0573796 0.0250331 0.0101311 0.00394922 0.00151466 0.000577061 0.000219224 8.3159e-05 3.1511e-05 1.19275e-05 4.50909e-06 1.70201e-06 6.41247e-07 2.41051e-07 9.03715e-08 3.37753e-08 1.25778e-08 4.66522e-09 1.72233e-09 6.32848e-10 2.3122e-10 8.40036e-11 3.05311e-11 1.08948e-11 4.00386e-12 1.32494e-12 1.85317e-13 -8.54086e-14 0 0 6.51401e-15 4.78981e-15 3.61273e-15 1.10075e-14 2.75764e-14 -3.30313e-15 2.08614e-15 -1.28205e-14 -1.48821e-14 -5.226e-15 3.95094e-15 2.25815e-15 9.49488e-15 1.24491e-14 1.62096e-14 -2.08248e-14 2.44766e-15 1.30609e-14 -8.71254e-15 1.25068e-14 1.5699e-14 2.10244e-14 1.56155e-14 1.48448e-14 1.15952e-14 4.22047e-15 -9.63839e-15 6.65892e-14 1.19461e-14 7.99873e-14 1.5254e-13 2.23863e-14 1.45008e-13 7.5302e-13 4.4835e-12 2.59186e-11 1.41961e-10 7.39186e-10 3.66241e-09 1.72341e-08 7.68563e-08 3.24067e-07 1.28855e-06 4.81688e-06 1.68699e-05 5.51296e-05 0.000167314 0.00046901 0.00120695 0.00283355 0.00603596 0.0116315 0.020301 0.0322968 0.0473545 0.0648768 0.0842193 0.104877 0.126527 0.148986 0.172158 0.195996 0.220484 0.245617 0.271404 0.29786 0.325008 0.352872 0.381483 0.410875 0.441087 0.472161 0.504141 0.537076 0.571018 0.60602 0.642134 0.679406 0.717868 0.75752 0.798289 0.83994 0.881845 0.922368 0.957081 0.973959 0.966652 0.958341 0.949781 0.942987 0.938475 0.935915 0.934642 0.934072 0.933844 0.933762 0.933726 0.933695 0.933631 0.933466 0.933608 0.933889 0.9341 0.93403 0.934021 0.933997 0.933954 0.933904 0.933858 0.933809 0.933769 0.933728 0.933695 0.933663 0.933633 0.933601 0.933566 0.933526 0.93348 0.933424 0.933357 0.933277 0.933183 0.933076 0.932957 0.932832 0.932706 0.932588 0.932487 0.932413 0.932369 0.932368 0.932641 0.933699 0.934786 0.934274 0.934087 0.933661 0.933225 0.932764 0.932368 0.932075 0.93187 0.931832 0.932023 0.933799 0.935503 0.934231 0.933661 0.933107 0.932274 0.931971 0.931742 0.932842 0.932904 0.932437 0.93195 0.934866 0.935355 0.93031 0.902456 0.922327 0.844932 0.792836 0.766239 0.658258 0.562025 0.441897 0.320527 0.206732 0.116915 0.0573796 0.0250331 0.0101311 0.00394922 0.00151466 0.000577061 0.000219224 8.3159e-05 3.1511e-05 1.19275e-05 4.50909e-06 1.70201e-06 6.41247e-07 2.41051e-07 9.03717e-08 3.37752e-08 1.2578e-08 4.6653e-09 1.72221e-09 6.32775e-10 2.31374e-10 8.39339e-11 3.06129e-11 1.08301e-11 3.97763e-12 1.42236e-12 2.98735e-13 -1.48201e-13 0
				</DataArray>
				<DataArray Name="VitesseY" type="Float32" format="ascii">