<?xml version="1.0"?>
<VTKFile type="PolyData">
	<PolyData>
		<Piece NumberOfPoints="1206" NumberOfPolys="1000">
			<Points>
				<DataArray type="Float32" NumberOfComponents="3" format="ascii">
 0 0 0 0.005 0 0 0.01 0 0 0.015 0 0 0.02 0 0 0.025 0 0 0.03 0 0 0.035 0 0 0.04 0 0 0.045 0 0 0.05 0 0 0.055 0 0 0.06 0 0 0.065 0 0 0.07 0 0 0.075 0 0 0.08 0 0 0.085 0 0 0.09 0 0 0.095 0 0 0.1 0 0 0.105 0 0 0.11 0 0 0.115 0 0 0.12 0 0 0.125 0 0 0.13 0 0 0.135 0 0 0.14 0 0 0.145 0 0 0.15 0 0 0.155 0 0 0.16 0 0 0.165 0 0 0.17 0 0 0.175 0 0 0.18 0 0 0.185 0 0 0.19 0 0 0.195 0 0 0.2 0 0 0.205 0 0 0.21 0 0 0.215 0 0 0.22 0 0 0.225 0 0 0.23 0 0 0.235 0 0 0.24 0 0 0.245 0 0 0.25 0 0 0.255 0 0 0.26 0 0 0.265 0 0 0.27 0 0 0.275 0 0 0.28 0 0 0.285 0 0 0.290002 0 0 0.295005 0 0 0.300013 0 0 0.305034 0 0 0.310078 0 0 0.315163 0 0 0.320308 0 0 0.325535 0 0 0.33086 0 0 0.336299 0 0 0.341863 0 0 0.347564 0 0 0.353412 0 0 0.359417 0 0 0.365589 0 0 0.371941 0 0 0.378485 0 0 0.385236 0 0 0.392208 0 0 0.399418 0 0 0.406885 0 0 0.41463 0 0 0.422678 0 0 0.431053 0 0 0.439788 0 0 0.448915 0 0 0.458472 0 0 0.468501 0 0 0.479046 0 0 0.490147 0 0 0.50182 0 0 0.513992 0 0 0.526349 0 0 0.538594 0 0 0.550706 0 0 0.562694 0 0 0.574595 0 0 0.586445 0 0 0.59827 0 0 0.610085 0 0 0.621896 0 0 0.633705 0 0 0.645516 0 0 0.647797 0 0 0.650078 0 0 0.652359 0 0 0.654639 0 0 0.656919 0 0 0.659198 0 0 0.661472 0 0 0.663746 0 0 0.666025 0 0 0.668304 0 0 0.670583 0 0 0.672864 0 0 0.675145 0 0 0.677425 0 0 0.679706 0 0 0.681986 0 0 0.684265 0 0 0.686544 0 0 0.688822 0 0 0.691101 0 0 0.693379 0 0 0.695658 0 0 0.697937 0 0 0.700218 0 0 0.702499 0 0 0.70478 0 0 0.707059 0 0 0.709339 0 0 0.711622 0 0 0.713904 0 0 0.716185 0 0 0.718466 0 0 0.720748 0 0 0.72303 0 0 0.72531 0 0 0.727591 0 0 0.729873 0 0 0.732156 0 0 0.734438 0 0 0.736721 0 0 0.739003 0 0 0.741284 0 0 0.743569 0 0 0.745853 0 0 0.748131 0 0 0.750413 0 0 0.752728 0 0 0.755078 0 0 0.757544 0 0 0.760129 0 0 0.762872 0 0 0.76583 0 0 0.769074 0 0 0.772642 0 0 0.77657 0 0 0.780842 0 0 0.785405 0 0 0.790176 0 0 0.795072 0 0 0.800028 0 0 0.805011 0 0 0.810004 0 0 0.815002 0 0 0.820001 0 0 0.825 0 0 0.83 0 0 0.835 0 0 0.84 0 0 0.845 0 0 0.85 0 0 0.855 0 0 0.86 0 0 0.865 0 0 0.87 0 0 0.875 0 0 0.88 0 0 0.885 0 0 0.89 0 0 0.895 0 0 0.9 0 0 0.905 0 0 0.91 0 0 0.915 0 0 0.92 0 0 0.925 0 0 0.93 0 0 0.935 0 0 0.94 0 0 0.945 0 0 0.95 0 0 0.955 0 0 0.96 0 0 0.965 0 0 0.97 0 0 0.975 0 0 0.98 0 0 0.985 0 0 0.99 0 0 0.995 0 0 1 0 0 0 0.02 0 0.005 0.02 0 0.01 0.02 0 0.015 0.02 0 0.02 0.02 0 0.025 0.02 0 0.03 0.02 0 0.035 0.02 0 0.04 0.02 0 0.045 0.02 0 0.05 0.02 0 0.055 0.02 0 0.06 0.02 0 0.065 0.02 0 0.07 0.02 0 0.075 0.02 0 0.08 0.02 0 0.085 0.02 0 0.09 0.02 0 0.095 0.02 0 0.1 0.02 0 0.105 0.02 0 0.11 0.02 0 0.115 0.02 0 0.12 0.02 0 0.125 0.02 0 0.13 0.02 0 0.135 0.02 0 0.14 0.02 0 0.145 0.02 0 0.15 0.02 0 0.155 0.02 0 0.16 0.02 0 0.165 0.02 0 0.17 0.02 0 0.175 0.02 0 0.18 0.02 0 0.185 0.02 0 0.19 0.02 0 0.195 0.02 0 0.2 0.02 0 0.205 0.02 0 0.21 0.02 0 0.215 0.02 0 0.22 0.02 0 0.225 0.02 0 0.23 0.02 0 0.235 0.02 0 0.24 0.02 0 0.245 0.02 0 0.25 0.02 0 0.255 0.02 0 0.26 0.02 0 0.265 0.02 0 0.27 0.02 0 0.275 0.02 0 0.28 0.02 0 0.285 0.02 0 0.290002 0.02 0 0.295005 0.02 0 0.300013 0.02 0 0.305034 0.02 0 0.310078 0.02 0 0.315163 0.02 0 0.320308 0.02 0 0.325535 0.02 0 0.33086 0.02 0 0.336299 0.02 0 0.341863 0.02 0 0.347564 0.02 0 0.353412 0.02 0 0.359417 0.02 0 0.365589 0.02 0 0.371941 0.02 0 0.378485 0.02 0 0.385236 0.02 0 0.392208 0.02 0 0.399418 0.02 0 0.406885 0.02 0 0.41463 0.02 0 0.422678 0.02 0 0.431053 0.02 0 0.439788 0.02 0 0.448915 0.02 0 0.458472 0.02 0 0.468501 0.02 0 0.479046 0.02 0 0.490147 0.02 0 0.50182 0.02 0 0.513992 0.02 0 0.526349 0.02 0 0.538594 0.02 0 0.550706 0.02 0 0.562694 0.02 0 0.574595 0.02 0 0.586445 0.02 0 0.59827 0.02 0 0.610085 0.02 0 0.621896 0.02 0 0.633705 0.02 0 0.645516 0.02 0 0.647797 0.02 0 0.650078 0.02 0 0.652359 0.02 0 0.654639 0.02 0 0.656919 0.02 0 0.659198 0.02 0 0.661472 0.02 0 0.663746 0.02 0 0.666025 0.02 0 0.668304 0.02 0 0.670583 0.02 0 0.672864 0.02 0 0.675145 0.02 0 0.677425 0.02 0 0.679706 0.02 0 0.681986 0.02 0 0.684265 0.02 0 0.686544 0.02 0 0.688822 0.02 0 0.691101 0.02 0 0.693379 0.02 0 0.695658 0.02 0 0.697937 0.02 0 0.700218 0.02 0 0.702499 0.02 0 0.70478 0.02 0 0.707059 0.02 0 0.709339 0.02 0 0.711622 0.02 0 0.713904 0.02 0 0.716185 0.02 0 0.718466 0.02 0 0.720748 0.02 0 0.72303 0.02 0 0.72531 0.02 0 0.727591 0.02 0 0.729873 0.02 0 0.732156 0.02 0 0.734438 0.02 0 0.736721 0.02 0 0.739003 0.02 0 0.741284 0.02 0 0.743569 0.02 0 0.745853 0.02 0 0.748131 0.02 0 0.750413 0.02 0 0.752728 0.02 0 0.755078 0.02 0 0.757544 0.02 0 0.760129 0.02 0 0.762872 0.02 0 0.76583 0.02 0 0.769074 0.02 0 0.772642 0.02 0 0.77657 0.02 0 0.780842 0.02 0 0.785405 0.02 0 0.790176 0.02 0 0.795072 0.02 0 0.800028 0.02 0 0.805011 0.02 0 0.810004 0.02 0 0.815002 0.02 0 0.820001 0.02 0 0.825 0.02 0 0.83 0.02 0 0.835 0.02 0 0.84 0.02 0 0.845 0.02 0 0.85 0.02 0 0.855 0.02 0 0.86 0.02 0 0.865 0.02 0 0.87 0.02 0 0.875 0.02 0 0.88 0.02 0 0.885 0.02 0 0.89 0.02 0 0.895 0.02 0 0.9 0.02 0 0.905 0.02 0 0.91 0.02 0 0.915 0.02 0 0.92 0.02 0 0.925 0.02 0 0.93 0.02 0 0.935 0.02 0 0.94 0.02 0 0.945 0.02 0 0.95 0.02 0 0.955 0.02 0 0.96 0.02 0 0.965 0.02 0 0.97 0.02 0 0.975 0.02 0 0.98 0.02 0 0.985 0.02 0 0.99 0.02 0 0.995 0.02 0 1 0.02 0 0 0.04 0 0.005 0.04 0 0.01 0.04 0 0.015 0.04 0 0.02 0.04 0 0.025 0.04 0 0.03 0.04 0 0.035 0.04 0 0.04 0.04 0 0.045 0.04 0 0.05 0.04 0 0.055 0.04 0 0.06 0.04 0 0.065 0.04 0 0.07 0.04 0 0.075 0.04 0 0.08 0.04 0 0.085 0.04 0 0.09 0.04 0 0.095 0.04 0 0.1 0.04 0 0.105 0.04 0 0.11 0.04 0 0.115 0.04 0 0.12 0.04 0 0.125 0.04 0 0.13 0.04 0 0.135 0.04 0 0.14 0.04 0 0.145 0.04 0 0.15 0.04 0 0.155 0.04 0 0.16 0.04 0 0.165 0.04 0 0.17 0.04 0 0.175 0.04 0 0.18 0.04 0 0.185 0.04 0 0.19 0.04 0 0.195 0.04 0 0.2 0.04 0 0.205 0.04 0 0.21 0.04 0 0.215 0.04 0 0.22 0.04 0 0.225 0.04 0 0.23 0.04 0 0.235 0.04 0 0.24 0.04 0 0.245 0.04 0 0.25 0.04 0 0.255 0.04 0 0.26 0.04 0 0.265 0.04 0 0.27 0.04 0 0.275 0.04 0 0.28 0.04 0 0.285 0.04 0 0.290002 0.04 0 0.295005 0.04 0 0.300013 0.04 0 0.305034 0.04 0 0.310078 0.04 0 0.315163 0.04 0 0.320308 0.04 0 0.325535 0.04 0 0.33086 0.04 0 0.336299 0.04 0 0.341863 0.04 0 0.347564 0.04 0 0.353412 0.04 0 0.359417 0.04 0 0.365589 0.04 0 0.371941 0.04 0 0.378485 0.04 0 0.385236 0.04 0 0.392208 0.04 0 0.399418 0.04 0 0.406885 0.04 0 0.41463 0.04 0 0.422678 0.04 0 0.431053 0.04 0 0.439788 0.04 0 0.448915 0.04 0 0.458472 0.04 0 0.468501 0.04 0 0.479046 0.04 0 0.490147 0.04 0 0.50182 0.04 0 0.513992 0.04 0 0.526349 0.04 0 0.538594 0.04 0 0.550706 0.04 0 0.562694 0.04 0 0.574595 0.04 0 0.586445 0.04 0 0.59827 0.04 0 0.610085 0.04 0 0.621896 0.04 0 0.633705 0.04 0 0.645516 0.04 0 0.647797 0.04 0 0.650078 0.04 0 0.652359 0.04 0 0.654639 0.04 0 0.656919 0.04 0 0.659198 0.04 0 0.661472 0.04 0 0.663746 0.04 0 0.666025 0.04 0 0.668304 0.04 0 0.670583 0.04 0 0.672864 0.04 0 0.675145 0.04 0 0.677425 0.04 0 0.679706 0.04 0 0.681986 0.04 0 0.684265 0.04 0 0.686544 0.04 0 0.688822 0.04 0 0.691101 0.04 0 0.693379 0.04 0 0.695658 0.04 0 0.697937 0.04 0 0.700218 0.04 0 0.702499 0.04 0 0.70478 0.04 0 0.707059 0.04 0 0.709339 0.04 0 0.711622 0.04 0 0.713904 0.04 0 0.716185 0.04 0 0.718466 0.04 0 0.720748 0.04 0 0.72303 0.04 0 0.72531 0.04 0 0.727591 0.04 0 0.729873 0.04 0 0.732156 0.04 0 0.734438 0.04 0 0.736721 0.04 0 0.739003 0.04 0 0.741284 0.04 0 0.743569 0.04 0 0.745853 0.04 0 0.748131 0.04 0 0.750413 0.04 0 0.752728 0.04 0 0.755078 0.04 0 0.757544 0.04 0 0.760129 0.04 0 0.762872 0.04 0 0.76583 0.04 0 0.769074 0.04 0 0.772642 0.04 0 0.77657 0.04 0 0.780842 0.04 0 0.785405 0.04 0 0.790176 0.04 0 0.795072 0.04 0 0.800028 0.04 0 0.805011 0.04 0 0.810004 0.04 0 0.815002 0.04 0 0.820001 0.04 0 0.825 0.04 0 0.83 0.04 0 0.835 0.04 0 0.84 0.04 0 0.845 0.04 0 0.85 0.04 0 0.855 0.04 0 0.86 0.04 0 0.865 0.04 0 0.87 0.04 0 0.875 0.04 0 0.88 0.04 0 0.885 0.04 0 0.89 0.04 0 0.895 0.04 0 0.9 0.04 0 0.905 0.04 0 0.91 0.04 0 0.915 0.04 0 0.92 0.04 0 0.925 0.04 0 0.93 0.04 0 0.935 0.04 0 0.94 0.04 0 0.945 0.04 0 0.95 0.04 0 0.955 0.04 0 0.96 0.04 0 0.965 0.04 0 0.97 0.04 0 0.975 0.04 0 0.98 0.04 0 0.985 0.04 0 0.99 0.04 0 0.995 0.04 0 1 0.04 0 0 0.06 0 0.005 0.06 0 0.01 0.06 0 0.015 0.06 0 0.02 0.06 0 0.025 0.06 0 0.03 0.06 0 0.035 0.06 0 0.04 0.06 0 0.045 0.06 0 0.05 0.06 0 0.055 0.06 0 0.06 0.06 0 0.065 0.06 0 0.07 0.06 0 0.075 0.06 0 0.08 0.06 0 0.085 0.06 0 0.09 0.06 0 0.095 0.06 0 0.1 0.06 0 0.105 0.06 0 0.11 0.06 0 0.115 0.06 0 0.12 0.06 0 0.125 0.06 0 0.13 0.06 0 0.135 0.06 0 0.14 0.06 0 0.145 0.06 0 0.15 0.06 0 0.155 0.06 0 0.16 0.06 0 0.165 0.06 0 0.17 0.06 0 0.175 0.06 0 0.18 0.06 0 0.185 0.06 0 0.19 0.06 0 0.195 0.06 0 0.2 0.06 0 0.205 0.06 0 0.21 0.06 0 0.215 0.06 0 0.22 0.06 0 0.225 0.06 0 0.23 0.06 0 0.235 0.06 0 0.24 0.06 0 0.245 0.06 0 0.25 0.06 0 0.255 0.06 0 0.26 0.06 0 0.265 0.06 0 0.27 0.06 0 0.275 0.06 0 0.28 0.06 0 0.285 0.06 0 0.290002 0.06 0 0.295005 0.06 0 0.300013 0.06 0 0.305034 0.06 0 0.310078 0.06 0 0.315163 0.06 0 0.320308 0.06 0 0.325535 0.06 0 0.33086 0.06 0 0.336299 0.06 0 0.341863 0.06 0 0.347564 0.06 0 0.353412 0.06 0 0.359417 0.06 0 0.365589 0.06 0 0.371941 0.06 0 0.378485 0.06 0 0.385236 0.06 0 0.392208 0.06 0 0.399418 0.06 0 0.406885 0.06 0 0.41463 0.06 0 0.422678 0.06 0 0.431053 0.06 0 0.439788 0.06 0 0.448915 0.06 0 0.458472 0.06 0 0.468501 0.06 0 0.479046 0.06 0 0.490147 0.06 0 0.50182 0.06 0 0.513992 0.06 0 0.526349 0.06 0 0.538594 0.06 0 0.550706 0.06 0 0.562694 0.06 0 0.574595 0.06 0 0.586445 0.06 0 0.59827 0.06 0 0.610085 0.06 0 0.621896 0.06 0 0.633705 0.06 0 0.645516 0.06 0 0.647797 0.06 0 0.650078 0.06 0 0.652359 0.06 0 0.654639 0.06 0 0.656919 0.06 0 0.659198 0.06 0 0.661472 0.06 0 0.663746 0.06 0 0.666025 0.06 0 0.668304 0.06 0 0.670583 0.06 0 0.672864 0.06 0 0.675145 0.06 0 0.677425 0.06 0 0.679706 0.06 0 0.681986 0.06 0 0.684265 0.06 0 0.686544 0.06 0 0.688822 0.06 0 0.691101 0.06 0 0.693379 0.06 0 0.695658 0.06 0 0.697937 0.06 0 0.700218 0.06 0 0.702499 0.06
[...]
			<PointData Scalars="VitesseX">
				<DataArray Name="VitesseX" type="Float32" format="ascii">
 0 -8.45153e-17 1.56748e-15 1.52173e-15 1.07926e-15 3.38716e-15 3.9744e-15 4.59468e-15 5.10384e-16 8.73973e-15 2.35379e-15 1.10985e-15 6.56672e-15 -5.65058e-15 3.88086e-15 1.03226e-14 2.83728e-15 2.41324e-15 1.29031e-14 4.2936e-15 9.54327e-15 -3.32783e-15 3.34043e-15 2.36992e-14 -8.60138e-15 1.53548e-14 9.02071e-15 2.1602e-14 -1.66105e-14 6.50411e-15 -9.92575e-15 -1.11018e-14 2.17923e-14 1.00145e-15 2.44436e-14 -1.94058e-14 2.81371e-14 6.08984e-15 -1.10665e-14 -2.44841e-14 3.14336e-14 7.04854e-14 5.2331e-14 2.75605e-14 1.14245e-13 5.61624e-13 3.45723e-12 2.31876e-11 1.45606e-10 8.65802e-10 4.85785e-09 2.56693e-08 1.27403e-07 5.92108e-07 2.56784e-06 1.03496e-05 3.85848e-05 0.000132321 0.000414686 0.00117876 0.00301501 0.00688976 0.0140087 0.0253823 0.0413355 0.0613954 0.0846502 0.110215 0.137468 0.166056 0.195804 0.226638 0.258538 0.291517 0.325606 0.36085 0.397307 0.435045 0.474141 0.514681 0.556755 0.600461 0.645889 0.69311 0.742143 0.792871 0.844837 0.896671 0.944371 0.976266 0.972088 0.961351 0.950563 0.942584 0.937792 0.935398 0.934302 0.933796 0.933616 0.933598 0.933422 0.933723 0.933668 0.933641 0.933567 0.933465 0.933345 0.933228 0.933143 0.933105 0.93317 0.933815 0.934027 0.933888 0.933585 0.933373 0.933147 0.932908 0.932723 0.932588 0.932518 0.932517 0.932866 0.933567 0.933374 0.933376 0.933314 0.933294 0.933351 0.933684 0.933364 0.933154 0.932928 0.932686 0.932612 0.932637 0.932741 0.932563 0.932106 0.931807 0.931551 0.931511 0.932296 0.933217 0.932293 0.932735 0.92336 0.932377 0.873417 0.83815 0.805981 0.73964 0.63341 0.544823 0.415936 0.295939 0.186294 0.102406 0.0489701 0.0209685 0.00839658 0.00325367 0.00124253 0.000471308 0.000178075 6.70697e-05 2.51783e-05 9.41677e-06 3.50661e-06 1.29925e-06 4.78643e-07 1.75204e-07 6.36784e-08 2.2965e-08 8.21274e-09 2.91068e-09 1.02182e-09 3.55134e-10 1.22162e-10 4.15577e-11 1.40108e-11 4.51276e-12 1.63428e-12 3.22141e-13 1.5603e-13 1.01604e-13 -1.46966e-13 4.76782e-14 1.11817e-13 5.75319e-14 -1.21245e-13 -1.26841e-13 1.06269e-13 4.72677e-14 4.36951e-14 -4.91219e-14 3.45598e-14 7.36264e-14 -3.36257e-14 4.03682e-14 0 0 -3.05098e-16 -1.13212e-15 9.15217e-16 2.22687e-15 2.1586e-15 4.14841e-15 2.09788e-15 4.82538e-15 2.42848e-15 4.33938e-15 6.61566e-15 2.90917e-15 -6.17772e-16 1.55561e-15 5.12014e-16 8.1953e-15 1.79854e-14 -3.22847e-15 1.13987e-14 -4.68779e-16 -2.98197e-15 2.52557e-15 9.55612e-15 1.73499e-14 -1.56041e-14 2.4581e-14 5.9584e-15 2.01451e-14 -1.66355e-14 -1.13022e-14 1.75372e-14 -2.7117e-15 2.91546e-14 -3.12419e-14 2.50049e-14 -4.88698e-15 1.65973e-14 1.64554e-16 -1.56452e-15 3.24693e-14 4.06523e-14 5.24821e-14 4.33722e-14 1.02342e-13 5.54389e-13 3.53472e-12 2.31138e-11 1.45611e-10 8.65812e-10 4.85779e-09 2.56692e-08 1.27403e-07 5.92109e-07 2.56784e-06 1.03496e-05 3.85848e-05 0.000132321 0.000414686 0.00117876 0.00301501 0.00688976 0.0140087 0.0253823 0.0413355 0.0613954 0.0846502 0.110215 0.137468 0.166056 0.195804 0.226638 0.258538 0.291517 0.325606 0.36085 0.397307 0.435045 0.474141 0.514681 0.556755 0.600461 0.645889 0.69311 0.742143 0.792871 0.844837 0.896671 0.944371 0.976266 0.972088 0.961351 0.950563 0.942584 0.937792 0.935398 0.934302 0.933796 0.933616 0.933598 0.933422 0.933723 0.933668 0.933641 0.933567 0.933465 0.933345 0.933228 0.933143 0.933105 0.93317 0.933815 0.934027 0.933888 0.933585 0.933373 0.933147 0.932908 0.932723 0.932588 0.932518 0.932517 0.932866 0.933567 0.933374 0.933376 0.933314 0.933294 0.933351 0.933684 0.933364 0.933154 0.932928 0.932686 0.932612 0.932637 0.932741 0.932563 0.932106 0.931807 0.931551 0.931511 0.932296 0.933217 0.932293 0.932735 0.92336 0.932377 0.873417 0.83815 0.805981 0.73964 0.63341 0.544823 0.415936 0.295939 0.186294 0.102406 0.0489701 0.0209685 0.00839658 0.00325367 0.00124253 0.000471308 0.000178075 6.70697e-05 2.51783e-05 9.41677e-06 3.50661e-06 1.29925e-06 4.78643e-07 1.75204e-07 6.36785e-08 2.29649e-08 8.21273e-09 2.91067e-09 1.02189e-09 3.55087e-10 1.22096e-10 4.1616e-11 1.40283e-11 4.63126e-12 1.55714e-12 4.76336e-13 6.57097e-14 -1.33736e-13 8.53173e-14 -5.24417e-14 2.14343e-14 5.03755e-14 -6.75645e-14 8.5488e-14 -1.00325e-15 -6.05913e-14 -3.50912e-14 2.3463e-14 1.26118e-13 -7.37354e-14 -1.09976e-14 -2.32089e-14 0 0 -7.05406e-16 -1.53609e-15 4.65114e-16 -6.12745e-16 2.22925e-16 1.40123e-16 4.07296e-15 2.91112e-15 1.99379e-15 4.84135e-15 -3.44627e-15 6.14864e-15 3.70159e-15 -1.11541e-15 -5.29799e-15 1.66634e-14 1.1487e-14 8.17621e-15 5.58741e-15 8.34749e-15 -5.4792e-15 -6.55125e-15 8.61455e-15 6.36066e-16 -2.94755e-15 2.95062e-14 9.01694e-15 -1.09854e-14 2.51189e-15 1.80785e-14 2.13738e-14 -2.01233e-14 -8.88261e-15 -2.54277e-14 3.24393e-14 6.97822e-15 2.75286e-14 -2.49594e-15 3.32771e-14 4.61174e-14 1.9788e-14 8.45919e-14 3.18891e-14 1.14394e-13 4.80537e-13 3.51384e-12 2.31846e-11 1.45601e-10 8.65826e-10 4.85774e-09 2.56692e-08 1.27402e-07 5.92109e-07 2.56784e-06 1.03496e-05 3.85848e-05 0.000132321 0.000414686 0.00117876 0.00301501 0.00688976 0.0140087 0.0253823 0.0413355 0.0613954 0.0846502 0.110215 0.137468 0.166056 0.195804 0.226638 0.258538 0.291517 0.325606 0.36085 0.397307 0.435045 0.474141 0.514681 0.556755 0.600461 0.645889 0.69311 0.742143 0.792871 0.844837 0.896671 0.944371 0.976266 0.972088 0.961351 0.950563 0.942584 0.937792 0.935398 0.934302 0.933796 0.933616 0.933598 0.933422 0.933723 0.933668 0.933641 0.933567 0.933465 0.933345 0.933228 0.933143 0.933105 0.93317 0.933815 0.934027 0.933888 0.933585 0.933373 0.933147 0.932908 0.932723 0.932588 0.932518 0.932517 0.932866 0.933567 0.933374 0.933376 0.933314 0.933294 0.933351 0.933684 0.933364 0.933154 0.932928 0.932686 0.932612 0.932637 0.932741 0.932563 0.932106 0.931807 0.931551 0.931511 0.932296 0.933217 0.932293 0.932735 0.92336 0.932377 0.873417 0.83815 0.805981 0.73964 0.63341 0.544823 0.415936 0.295939 0.186294 0.102406 0.0489701 0.0209685 0.00839658 0.00325367 0.00124253 0.000471308 0.000178075 6.70697e-05 2.51783e-05 9.41677e-06 3.50661e-06 1.29925e-06 4.78643e-07 1.75204e-07 6.36785e-08 2.29649e-08 8.21272e-09 2.91072e-09 1.02186e-09 3.55028e-10 1.22192e-10 4.15397e-11 1.40465e-11 4.81079e-12 1.51762e-12 4.22886e-13 -1.04501e-14 -5.92569e-14 1.19645e-13 -1.26993e-13 -7.77072e-14 1.63669e-13 -3.9289e-15 -5.37038e-14 1.9892e-14 -8.89663e-14 -7.70161e-14 1.01203e-13 -7.0778e-15 1.72005e-14 -4.88285e-14 3.3963e-14 0 0 2.3853e-15 1.54233e-15 -5.10675e-16 -2.23088e-15 1.84875e-15 4.90833e-16 -1.15164e-15 6.0787e-15 1.04983e-14 -1.71525e-15 1.88915e-15 -3.9994e-15 6.31645e-15 1.56853e-14 -1.26197e-14 5.76075e-15 8.72167e-15 7.6311e-15 1.11676e-14 3.73572e-15 8.42323e-15 -2.41186e-14 2.15133e-14 -1.42427e-14 2.44998e-14 -1.0705e-14 2.05251e-14 -1.92214e-14 -2.36414e-14 4.12768e-14 2.93795e-14 -3.69516e-14 -1.31225e-14 1.56229e-16 2.76087e-14 4.19296e-14 2.13967e-14 -1.67833e-14 2.89885e-14 4.35027e-14 -1.02567e-15 1.17551e-13 6.61681e-14 1.95139e-13 3.99443e-13 3.4309e-12 2.33118e-11 1.45535e-10 8.65806e-10 4.85772e-09 2.56692e-08 1.27402e-07 5.92109e-07 2.56784e-06 1.03496e-05 3.85848e-05 0.000132321 0.000414686 0.00117876 0.00301501 0.00688976 0.0140087 0.0253823 0.0413355 0.0613954 0.0846502 0.110215 0.137468 0.166056 0.195804 0.226638 0.258538 0.291517 0.325606 0.36085 0.397307 0.435045 0.474141 0.514681 0.556755 0.600461 0.645889 0.69311 0.742143 0.792871 0.844837 0.896671 0.944371 0.976266 0.972088 0.961351 0.950563 0.942584 0.937792 0.935398 0.934302 0.933796 0.933616 0.933598 0.933422 0.933723 0.933668 0.933641 0.933567 0.933465 0.933345 0.933228 0.933143 0.933105 0.93317 0.933815 0.934027 0.933888 0.933585 0.933373 0.933147 0.932908 0.932723 0.932588 0.932518 0.932517 0.932866 0.933567 0.933374 0.933376 0.933314 0.933294 0.933351 0.933684 0.933364 0.933154 0.932928 0.932686 0.932612 0.932637 0.932741 0.932563 0.932106 0.931807 0.931551 0.931511 0.932296 0.933217 0.932293 0.932735 0.92336 0.932377 0.873417 0.83815 0.805981 0.73964 0.63341 0.544823 0.415936 0.295939 0.186294 0.102406 0.0489701 0.0209685 0.00839658 0.00325367 0.00124253 0.000471308 0.000178075 6.70697e-05 2.51783e-05 9.41677e-06 3.50661e-06 1.29925e-06 4.78643e-07 1.75205e-07 6.36785e-08 2.2965e-08 8.21278e-09 2.91078e-09 1.02184e-09 3.55002e-10 1.22199e-10 4.15653e-11 1.40907e-11 4.65671e-12 1.67852e-12 3.69657e-13 -8.56002e-14 1.61897e-13 -5.17092e-14 2.82091e-14 -4.99844e-15 1.22114e-13 -1.62982e-14 -2.05153e-13 -8.08429e-14 1.6731e-13 -3.08287e-14 2.56509e-14 -2.04338e-13 7.56793e-14 -8.09159e-14 -1.43298e-14 0 0 5.58618e-16 1.53997e-16 -3.24334e-15 -4.64205e-16 2.71194e-15 -3.91994e-15 -2.21977e-15 6.10044e-15 5.42954e-15 -9.94057e-15 1.26388e-14 1.39557e-15 1.63398e-14 4.89156e-15 -8.87702e-15 -1.94805e-15 1.01868e-14 -6.12827e-15 1.19966e-14 -1.62737e-14 6.09271e-15 -8.24281e-15 2.19408e-14 -4.56326e-15 1.17137e-14 -2.62417e-14 1.27135e-14 2.04827e-14 -3.53558e-14 1.15241e-14 3.18583e-14 -2.87221e-14 2.7664e-14 6.84652e-15 4.62727e-14 2.30252e-14 -1.14893e-14 9.52957e-15 7.19142e-15 3.06025e-14 1.6004e-14 1.04402e-13 1.06896e-13 1.88541e-13 4.67659e-13 3.43656e-12 2.32019e-11 1.45592e-10 8.65666e-10 4.85777e-09 2.56692e-08 1.27402e-07 5.92109e-07 2.56784e-06 1.03496e-05 3.85848e-05 0.000132321 0.000414686 0.00117876 0.00301501 0.00688976 0.0140087 0.0253823 0.0413355 0.0613954 0.0846502 0.110215 0.137468 0.166056 0.195804 0.226638 0.258538 0.291517 0.325606 0.36085 0.397307 0.435045 0.474141 0.514681 0.556755 0.600461 0.645889 0.69311 0.742143 0.792871 0.844837 0.896671 0.944371 0.976266 0.972088 0.961351 0.950563 0.942584 0.937792 0.935398 0.934302 0.933796 0.933616 0.933598 0.933422 0.933723 0.933668 0.933641 0.933567 0.933465 0.933345 0.933228 0.933143 0.933105 0.93317 0.933815 0.934027 0.933888 0.933585 0.933373 0.933147 0.932908 0.932723 0.932588 0.932518 0.932517 0.932866 0.933567 0.933374 0.933376 0.933314 0.933294 0.933351 0.933684 0.933364 0.933154 0.932928 0.932686 0.932612 0.932637 0.932741 0.932563 0.932106 0.931807 0.931551 0.931511 0.932296 0.933217 0.932293 0.932735 0.92336 0.932377 0.873417 0.83815 0.805981 0.73964 0.63341 0.544823 0.415936 0.295939 0.186294 0.102406 0.0489701 0.0209685 0.00839658 0.00325367 0.00124253 0.000471308 0.000178075 6.70697e-05 2.51783e-05 9.41677e-06 3.50661e-06 1.29925e-06 4.78643e-07 1.75205e-07 6.36785e-08 2.2965e-08 8.21276e-09 2.91072e-09 1.02195e-09 3.55253e-10 1.22145e-10 4.15063e-11 1.43396e-11 4.47724e-12 1.58554e-12 4.58547e-13 9.46009e-15 1.01697e-13 -7.51244e-14 -7.31574e-14 5.78778e-14 5.10682e-14 1.44251e-14 5.25727e-14 -2.22245e-13 4.26551e-14 4.76549e-14 -9.20534e-14 -1.70968e-13 6.93251e-14 -3.40448e-14 -2.24426e-13 0 0 -4.5385e-15 -2.01714e-15 -4.84381e-15 -1.06662e-15 1.24219e-15 -1.28637e-14 6.40859e-15 -3.27465e-15 -2.26717e-15 -1.30929e-14 2.48523e-15 2.38356e-14 2.30348e-14 -2.30486e-14 6.18803e-15 4.35581e-15 -7.65325e-15 8.19375e-15 -5.67105e-15 -1.2843e-14 -1.29833e-14 1.69383e-14 2.26711e-14 -2.26702e-14 1.50957e-14 -1.22022e-14 1.20959e-14 5.36704e-16 2.13701e-14 -1.06697e-14 1.52913e-15 3.42787e-15 6.49986e-15 4.94526e-14 3.27911e-14 1.40587e-14 -3.78197e-14 3.62382e-14 1.60503e-15 3.29293e-14 6.28163e-14 9.02521e-14 8.60499e-14 1.25153e-13 5.50354e-13 3.42678e-12 2.31094e-11 1.45698e-10 8.65548e-10 4.85785e-09 2.56691e-08 1.27402e-07 5.92109e-07 2.56784e-06 1.03496e-05 3.85848e-05 0.000132321 0.000414686 0.00117876 0.00301501 0.00688976 0.0140087 0.0253823 0.0413355 0.0613954 0.0846502 0.110215 0.137468 0.166056 0.195804 0.226638 0.258538 0.291517 0.325606 0.36085 0.397307 0.435045 0.474141 0.514681 0.556755 0.600461 0.645889 0.69311 0.742143 0.792871 0.844837 0.896671 0.944371 0.976266 0.972088 0.961351 0.950563 0.942584 0.937792 0.935398 0.934302 0.933796 0.933616 0.933598 0.933422 0.933723 0.933668 0.933641 0.933567 0.933465 0.933345 0.933228 0.933143 0.933105 0.93317 0.933815 0.934027 0.933888 0.933585 0.933373 0.933147 0.932908 0.932723 0.932588 0.932518 0.932517 0.932866 0.933567 0.933374 0.933376 0.933314 0.933294 0.933351 0.933684 0.933364 0.933154 0.932928 0.932686 0.932612 0.932637 0.932741 0.932563 0.932106 0.931807 0.931551 0.931511 0.932296 0.933217 0.932293 0.932735 0.92336 0.932377 0.873417 0.83815 0.805981 0.73964 0.63341 0.544823 0.415936 0.295939 0.186294 0.102406 0.0489701 0.0209685 0.00839658 0.00325367 0.00124253 0.000471308 0.000178075 6.70697e-05 2.51783e-05 9.41677e-06 3.50661e-06 1.29925e-06 4.78643e-07 1.75205e-07 6.36784e-08 2.29651e-08 8.21268e-09 2.91066e-09 1.02198e-09 3.55518e-10 1.22247e-10 4.1287e-11 1.45445e-11 4.5128e-12 1.36954e-12 3.92443e-13 1.93319e-13 1.29888e-13 -1.2538e-13 -3.04115e-13 3.93563e-14 1.42236e-13 6.75235e-14 1.09725e-13 -1.35209e-13 -2.58984e-13 1.1635e-13 -1.29715e-13 -1.64305e-13 2.43514e-13 -1.6159e-14 -2.66317e-13 0
				</DataArray>
				<DataArray Name="VitesseY" type="Float32" format="ascii">