<?xml version="1.0"?>
<VTKFile type="PolyData">
	<PolyData>
		<Piece NumberOfPoints="1206" NumberOfPolys="1000">
			<Points>
				<DataArray type="Float32" NumberOfComponents="3" format="ascii">
 0 0 0 0.005 0 0 0.01 0 0 0.015 0 0 0.02 0 0 0.025 0 0 0.03 0 0 0.035 0 0 0.04 0 0 0.045 0 0 0.05 0 0 0.055 0 0 0.06 0 0 0.065 0 0 0.07 0 0 0.075 0 0 0.08 0 0 0.085 0 0 0.09 0 0 0.095 0 0 0.1 0 0 0.105 0 0 0.11 0 0 0.115 0 0 0.12 0 0 0.125 0 0 0.13 0 0 0.135 0 0 0.14 0 0 0.145 0 0 0.15 0 0 0.155 0 0 0.16 0 0 0.165 0 0 0.17 0 0 0.175 0 0 0.18 0 0 0.185 0 0 0.19 0 0 0.195 0 0 0.2 0 0 0.205 0 0 0.21 0 0 0.215 0 0 0.22 0 0 0.225 0 0 0.23 0 0 0.235 0 0 0.24 0 0 0.245 0 0 0.25 0 0 0.255 0 0 0.26 0 0 0.265 0 0 0.27 0 0 0.275 0 0 0.28 0 0 0.285 0 0 0.29 0 0 0.295 0 0 0.3 0 0 0.305 0 0 0.31 0 0 0.315 0 0 0.32 0 0 0.325 0 0 0.33 0 0 0.335 0 0 0.34 0 0 0.345 0 0 0.35 0 0 0.355 0 0 0.36 0 0 0.365001 0 0 0.370003 0 0 0.375011 0 0 0.380034 0 0 0.385093 0 0 0.390221 0 0 0.395459 0 0 0.40085 0 0 0.406431 0 0 0.412235 0 0 0.418292 0 0 0.424635 0 0 0.431297 0 0 0.438319 0 0 0.445748 0 0 0.453641 0 0 0.462064 0 0 0.471098 0 0 0.480837 0 0 0.491388 0 0 0.502832 0 0 0.515094 0 0 0.527585 0 0 0.53985 0 0 0.551905 0 0 0.563822 0 0 0.575677 0 0 0.58751 0 0 0.589793 0 0 0.592076 0 0 0.594359 0 0 0.596642 0 0 0.598925 0 0 0.601206 0 0 0.603483 0 0 0.60576 0 0 0.608042 0 0 0.610325 0 0 0.612607 0 0 0.614889 0 0 0.617172 0 0 0.619454 0 0 0.621737 0 0 0.624019 0 0 0.6263 0 0 0.62858 0 0 0.63086 0 0 0.633141 0 0 0.635428 0 0 0.637719 0 0 0.640006 0 0 0.642297 0 0 0.644595 0 0 0.646925 0 0 0.649295 0 0 0.651791 0 0 0.654433 0 0 0.657222 0 0 0.660263 0 0 0.663594 0 0 0.667269 0 0 0.671302 0 0 0.67567 0 0 0.680309 0 0 0.685129 0 0 0.69005 0 0 0.695019 0 0 0.700007 0 0 0.705002 0 0 0.710001 0 0 0.715 0 0 0.72 0 0 0.725 0 0 0.73 0 0 0.735 0 0 0.74 0 0 0.745 0 0 0.75 0 0 0.755 0 0 0.76 0 0 0.765 0 0 0.77 0 0 0.775 0 0 0.78 0 0 0.785 0 0 0.79 0 0 0.795 0 0 0.8 0 0 0.805 0 0 0.81 0 0 0.815 0 0 0.82 0 0 0.825 0 0 0.83 0 0 0.835 0 0 0.84 0 0 0.845 0 0 0.85 0 0 0.855 0 0 0.86 0 0 0.865 0 0 0.87 0 0 0.875 0 0 0.88 0 0 0.885 0 0 0.89 0 0 0.895 0 0 0.9 0 0 0.905 0 0 0.91 0 0 0.915 0 0 0.92 0 0 0.925 0 0 0.93 0 0 0.935 0 0 0.94 0 0 0.945 0 0 0.95 0 0 0.955 0 0 0.96 0 0 0.965 0 0 0.97 0 0 0.975 0 0 0.98 0 0 0.985 0 0 0.99 0 0 0.995 0 0 1 0 0 0 0.02 0 0.005 0.02 0 0.01 0.02 0 0.015 0.02 0 0.02 0.02 0 0.025 0.02 0 0.03 0.02 0 0.035 0.02 0 0.04 0.02 0 0.045 0.02 0 0.05 0.02 0 0.055 0.02 0 0.06 0.02 0 0.065 0.02 0 0.07 0.02 0 0.075 0.02 0 0.08 0.02 0 0.085 0.02 0 0.09 0.02 0 0.095 0.02 0 0.1 0.02 0 0.105 0.02 0 0.11 0.02 0 0.115 0.02 0 0.12 0.02 0 0.125 0.02 0 0.13 0.02 0 0.135 0.02 0 0.14 0.02 0 0.145 0.02 0 0.15 0.02 0 0.155 0.02 0 0.16 0.02 0 0.165 0.02 0 0.17 0.02 0 0.175 0.02 0 0.18 0.02 0 0.185 0.02 0 0.19 0.02 0 0.195 0.02 0 0.2 0.02 0 0.205 0.02 0 0.21 0.02 0 0.215 0.02 0 0.22 0.02 0 0.225 0.02 0 0.23 0.02 0 0.235 0.02 0 0.24 0.02 0 0.245 0.02 0 0.25 0.02 0 0.255 0.02 0 0.26 0.02 0 0.265 0.02 0 0.27 0.02 0 0.275 0.02 0 0.28 0.02 0 0.285 0.02 0 0.29 0.02 0 0.295 0.02 0 0.3 0.02 0 0.305 0.02 0 0.31 0.02 0 0.315 0.02 0 0.32 0.02 0 0.325 0.02 0 0.33 0.02 0 0.335 0.02 0 0.34 0.02 0 0.345 0.02 0 0.35 0.02 0 0.355 0.02 0 0.36 0.02 0 0.365001 0.02 0 0.370003 0.02 0 0.375011 0.02 0 0.380034 0.02 0 0.385093 0.02 0 0.390221 0.02 0 0.395459 0.02 0 0.40085 0.02 0 0.406431 0.02 0 0.412235 0.02 0 0.418292 0.02 0 0.424635 0.02 0 0.431297 0.02 0 0.438319 0.02 0 0.445748 0.02 0 0.453641 0.02 0 0.462064 0.02 0 0.471098 0.02 0 0.480837 0.02 0 0.491388 0.02 0 0.502832 0.02 0 0.515094 0.02 0 0.527585 0.02 0 0.53985 0.02 0 0.551905 0.02 0 0.563822 0.02 0 0.575677 0.02 0 0.58751 0.02 0 0.589793 0.02 0 0.592076 0.02 0 0.594359 0.02 0 0.596642 0.02 0 0.598925 0.02 0 0.601206 0.02 0 0.603483 0.02 0 0.60576 0.02 0 0.608042 0.02 0 0.610325 0.02 0 0.612607 0.02 0 0.614889 0.02 0 0.617172 0.02 0 0.619454 0.02 0 0.621737 0.02 0 0.624019 0.02 0 0.6263 0.02 0 0.62858 0.02 0 0.63086 0.02 0 0.633141 0.02 0 0.635428 0.02 0 0.637719 0.02 0 0.640006 0.02 0 0.642297 0.02 0 0.644595 0.02 0 0.646925 0.02 0 0.649295 0.02 0 0.651791 0.02 0 0.654433 0.02 0 0.657222 0.02 0 0.660263 0.02 0 0.663594 0.02 0 0.667269 0.02 0 0.671302 0.02 0 0.67567 0.02 0 0.680309 0.02 0 0.685129 0.02 0 0.69005 0.02 0 0.695019 0.02 0 0.700007 0.02 0 0.705002 0.02 0 0.710001 0.02 0 0.715 0.02 0 0.72 0.02 0 0.725 0.02 0 0.73 0.02 0 0.735 0.02 0 0.74 0.02 0 0.745 0.02 0 0.75 0.02 0 0.755 0.02 0 0.76 0.02 0 0.765 0.02 0 0.77 0.02 0 0.775 0.02 0 0.78 0.02 0 0.785 0.02 0 0.79 0.02 0 0.795 0.02 0 0.8 0.02 0 0.805 0.02 0 0.81 0.02 0 0.815 0.02 0 0.82 0.02 0 0.825 0.02 0 0.83 0.02 0 0.835 0.02 0 0.84 0.02 0 0.845 0.02 0 0.85 0.02 0 0.855 0.02 0 0.86 0.02 0 0.865 0.02 0 0.87 0.02 0 0.875 0.02 0 0.88 0.02 0 0.885 0.02 0 0.89 0.02 0 0.895 0.02 0 0.9 0.02 0 0.905 0.02 0 0.91 0.02 0 0.915 0.02 0 0.92 0.02 0 0.925 0.02 0 0.93 0.02 0 0.935 0.02 0 0.94 0.02 0 0.945 0.02 0 0.95 0.02 0 0.955 0.02 0 0.96 0.02 0 0.965 0.02 0 0.97 0.02 0 0.975 0.02 0 0.98 0.02 0 0.985 0.02 0 0.99 0.02 0 0.995 0.02 0 1 0.02 0 0 0.04 0 0.005 0.04 0 0.01 0.04 0 0.015 0.04 0 0.02 0.04 0 0.025 0.04 0 0.03 0.04 0 0.035 0.04 0 0.04 0.04 0 0.045 0.04 0 0.05 0.04 0 0.055 0.04 0 0.06 0.04 0 0.065 0.04 0 0.07 0.04 0 0.075 0.04 0 0.08 0.04 0 0.085 0.04 0 0.09 0.04 0 0.095 0.04 0 0.1 0.04 0 0.105 0.04 0 0.11 0.04 0 0.115 0.04 0 0.12 0.04 0 0.125 0.04 0 0.13 0.04 0 0.135 0.04 0 0.14 0.04 0 0.145 0.04 0 0.15 0.04 0 0.155 0.04 0 0.16 0.04 0 0.165 0.04 0 0.17 0.04 0 0.175 0.04 0 0.18 0.04 0 0.185 0.04 0 0.19 0.04 0 0.195 0.04 0 0.2 0.04 0 0.205 0.04 0 0.21 0.04 0 0.215 0.04 0 0.22 0.04 0 0.225 0.04 0 0.23 0.04 0 0.235 0.04 0 0.24 0.04 0 0.245 0.04 0 0.25 0.04 0 0.255 0.04 0 0.26 0.04 0 0.265 0.04 0 0.27 0.04 0 0.275 0.04 0 0.28 0.04 0 0.285 0.04 0 0.29 0.04 0 0.295 0.04 0 0.3 0.04 0 0.305 0.04 0 0.31 0.04 0 0.315 0.04 0 0.32 0.04 0 0.325 0.04 0 0.33 0.04 0 0.335 0.04 0 0.34 0.04 0 0.345 0.04 0 0.35 0.04 0 0.355 0.04 0 0.36 0.04 0 0.365001 0.04 0 0.370003 0.04 0 0.375011 0.04 0 0.380034 0.04 0 0.385093 0.04 0 0.390221 0.04 0 0.395459 0.04 0 0.40085 0.04 0 0.406431 0.04 0 0.412235 0.04 0 0.418292 0.04 0 0.424635 0.04 0 0.431297 0.04 0 0.438319 0.04 0 0.445748 0.04 0 0.453641 0.04 0 0.462064 0.04 0 0.471098 0.04 0 0.480837 0.04 0 0.491388 0.04 0 0.502832 0.04 0 0.515094 0.04 0 0.527585 0.04 0 0.53985 0.04 0 0.551905 0.04 0 0.563822 0.04 0 0.575677 0.04 0 0.58751 0.04 0 0.589793 0.04 0 0.592076 0.04 0 0.594359 0.04 0 0.596642 0.04 0 0.598925 0.04 0 0.601206 0.04 0 0.603483 0.04 0 0.60576 0.04 0 0.608042 0.04 0 0.610325 0.04 0 0.612607 0.04 0 0.614889 0.04 0 0.617172 0.04 0 0.619454 0.04 0 0.621737 0.04 0 0.624019 0.04 0 0.6263 0.04 0 0.62858 0.04 0 0.63086 0.04 0 0.633141 0.04 0 0.635428 0.04 0 0.637719 0.04 0 0.640006 0.04 0 0.642297 0.04 0 0.644595 0.04 0 0.646925 0.04 0 0.649295 0.04 0 0.651791 0.04 0 0.654433 0.04 0 0.657222 0.04 0 0.660263 0.04 0 0.663594 0.04 0 0.667269 0.04 0 0.671302 0.04 0 0.67567 0.04 0 0.680309 0.04 0 0.685129 0.04 0 0.69005 0.04 0 0.695019 0.04 0 0.700007 0.04 0 0.705002 0.04 0 0.710001 0.04 0 0.715 0.04 0 0.72 0.04 0 0.725 0.04 0 0.73 0.04 0 0.735 0.04 0 0.74 0.04 0 0.745 0.04 0 0.75 0.04 0 0.755 0.04 0 0.76 0.04 0 0.765 0.04 0 0.77 0.04 0 0.775 0.04 0 0.78 0.04 0 0.785 0.04 0 0.79 0.04 0 0.795 0.04 0 0.8 0.04 0 0.805 0.04 0 0.81 0.04 0 0.815 0.04 0 0.82 0.04 0 0.825 0.04 0 0.83 0.04 0 0.835 0.04 0 0.84 0.04 0 0.845 0.04 0 0.85 0.04 0 0.855 0.04 0 0.86 0.04 0 0.865 0.04 0 0.87 0.04 0 0.875 0.04 0 0.88 0.04 0 0.885 0.04 0 0.89 0.04 0 0.895 0.04 0 0.9 0.04 0 0.905 0.04 0 0.91 0.04 0 0.915 0.04 0 0.92 0.04 0 0.925 0.04 0 0.93 0.04 0 0.935 0.04 0 0.94 0.04 0 0.945 0.04 0 0.95 0.04 0 0.955 0.04 0 0.96 0.04 0 0.965 0.04 0 0.97 0.04 0 0.975 0.04 0 0.98 0.04 0 0.985 0.04 0 0.99 0.04 0 0.995 0.04 0 1 0.04 0 0 0.06 0 0.005 0.06 0 0.01 0.06 0 0.015 0.06 0 0.02 0.06 0 0.025 0.06 0 0.03 0.06 0 0.035 0.06 0 0.04 0.06 0 0.045 0.06 0 0.05 0.06 0 0.055 0.06 0 0.06 0.06 0 0.065 0.06 0 0.07 0.06 0 0.075 0.06 0 0.08 0.06 0 0.085 0.06 0 0.09 0.06 0 0.095 0.06 0 0.1 0.06 0 0.105 0.06 0 0.11 0.06 0 0.115 0.06 0 0.12 0.06 0 0.125 0.06 0 0.13 0.06 0 0.135 0.06 0 0.14 0.06 0 0.145 0.06 0 0.15 0.06 0 0.155 0.06 0 0.16 0.06 0 0.165 0.06 0 0.17 0.06 0 0.175 0.06 0 0.18 0.06 0 0.185 0.06 0 0.19 0.06 0 0.195 0.06 0 0.2 0.06 0 0.205 0.06 0 0.21 0.06 0 0.215 0.06 0 0.22 0.06 0 0.225 0.06 0 0.23 0.06 0 0.235 0.06 0 0.24 0.06 0 0.245 0.06 0 0.25 0.06 0 0.255 0.06 0 0.26 0.06 0 0.265 0.06 0 0.27 0.06 0 0.275 0.06 0 0.28 0.06 0 0.285 0.06 0 0.29 0.06 0 0.295 0.06 0 0.3 0.06 0 0.305 0.06 0 0.31 0.06 0 0.315 0.06 0 0.32 0.06 0 0.325 0.06 0 0.33 0.06 0 0.335 0.06 0 0.34 0.06 0 0.345 0.06 0 0.35 0.06 0 0.355 0.06 0 0.36 0.06 0 0.365001 0.06 0 0.370003 0.06 0 0.375011 0.06 0 0.380034 0.06 0 0.385093 0.06 0 0.390221 0.06 0 0.395459 0.06 0 0.40085 0.06 0 0.406431 0.06 0 0.412235 0.06 0 0.418292 0.06 0 0.424635 0.06 0 0.431297 0.06 0 0.438319 0.06 0 0.445748 0.06 0 0.453641 0.06 0 0.462064 0.06 0 0.471098 0.06 0 0.480837 0.06 0 0.491388 0.06 0 0.502832 0.06 0 0.515094 0.06 0 0.527585 0.06 0 0.53985 0.06 0 0.551905 0.06 0 0.563822 0.06 0 0.575677 0.06 0 0.58751 0.06 0 0.589793 0.06 0 0.592076 0.06 0 0.594359 0.06 0 0.596642 0.06 0 0.598925 0.06 0 0.601206 0.06 0 0.603483 0.06 0 0.60576 0.06 0 0.608042 0.06 0 0.610325 0.06 0 0.612607 0.06 0 0.614889 0.06 0 0.617172 0.06 0 0.619454 0.06 0 0.621737 0.06 0 0.624019 0.06 0 0.6263 0.06 0 0.62858 0.06 0 0.63086 0.06 0 0.633141 0.06 0 0.635428 0.06 0 0.637719 0.06 0 0.640006 0.06 0 0.642297 0.06 0 0.644595 0.06 0 0.646925 0.06 0 0.649295 0.06 0 0.651791 0.06 0 0.654433 0.06 0 0.657222 0.06 0 0.660263 0.06 0 0.663594 0.06 0 0.667269 0.06 0 0.671302 0.06 0 0.67567 0.06 0 0.680309 0.06 0 0.685129 0.06 0 0.69005 0.06 0 0.695019 0.06 0 0.700007 0.06 0 0.705002 0.06 0 0.710001 0.06 0 0.715 0.06 0 0.72 0.06 0 0.725 0.06 0 0.73 0.06 0 0.735 0.06 0 0.74 0.06 0 0.745 0.06 0 0.75 0.06 0 0.755 0.06 0 0.76 0.06 0 0.765 0.06 0 0.77 0.06 0 0.775 0.06 0 0.78 0.06 0 0.785 0.0
[...]
			<PointData Scalars="VitesseX">
				<DataArray Name="VitesseX" type="Float32" format="ascii">
 0 -6.5329e-16 -9.31083e-16 2.54342e-15 3.16118e-15 -2.61293e-15 2.67474e-15 2.37761e-15 1.57072e-15 -3.19585e-15 -3.13374e-16 -1.04668e-15 5.90258e-15 -4.18544e-15 -5.96423e-15 -3.05755e-15 1.10162e-14 -6.44922e-15 7.85158e-15 -2.08766e-16 9.51495e-15 7.96509e-15 -1.12734e-14 1.97076e-14 -6.80338e-15 9.88562e-15 1.19122e-15 3.99893e-15 2.94537e-15 7.74963e-15 -9.29062e-15 -6.09078e-15 2.46888e-14 3.63109e-15 3.20493e-15 -5.26412e-15 1.95501e-14 3.62719e-15 1.70962e-14 1.48847e-14 -1.48249e-14 -1.01643e-14 -3.04148e-16 -7.63299e-15 1.88732e-14 -1.31757e-14 1.13624e-14 -1.60132e-14 -2.3779e-14 2.29762e-14 3.48552e-14 -3.82375e-14 -1.28853e-15 1.82882e-14 2.51837e-14 -8.33249e-15 4.975e-14 -7.8921e-15 1.15129e-14 5.87635e-14 4.17339e-14 -3.64171e-14 2.75353e-13 1.77642e-12 1.71526e-11 1.51381e-10 1.23937e-09 9.37445e-09 6.52737e-08 4.16463e-07 2.42158e-06 1.27505e-05 6.03301e-05 0.000254136 0.000942414 0.003037 0.00839676 0.0197488 0.0395722 0.0685742 0.105454 0.148175 0.195171 0.245633 0.299284 0.356133 0.416338 0.480148 0.547866 0.619803 0.69617 0.776752 0.85988 0.938794 0.988569 0.974236 0.956883 0.943684 0.937414 0.934929 0.933901 0.933743 0.933588 0.93345 0.933334 0.933252 0.9332 0.933181 0.933177 0.933186 0.933168 0.93311 0.932947 0.932678 0.932173 0.931575 0.93069 0.929928 0.9291 0.928849 0.929321 0.933906 0.933188 0.93462 0.931623 0.913505 0.925707 0.862317 0.812824 0.809081 0.700133 0.617489 0.503136 0.38352 0.261144 0.157779 0.0824036 0.0375835 0.0154554 0.00597414 0.00223233 0.000817091 0.000294348 0.000104461 3.65064e-05 1.25523e-05 4.24244e-06 1.40824e-06 4.58763e-07 1.46582e-07 4.59132e-08 1.40922e-08 4.23697e-09 1.24762e-09 3.59674e-10 1.01557e-10 2.80694e-11 7.64324e-12 1.99139e-12 4.68921e-13 1.7518e-13 -4.8949e-14 1.10381e-13 7.61923e-14 -1.94471e-13 6.86824e-14 -6.4422e-14 -1.15136e-14 9.42771e-14 3.69792e-14 -3.57405e-14 -2.20249e-14 1.11056e-13 -1.5284e-13 -1.54178e-14 6.23752e-14 -2.44568e-14 1.94857e-14 7.39019e-14 -1.04747e-13 -7.20681e-14 -4.54508e-14 -1.49088e-14 -8.97139e-14 6.81011e-14 -7.35203e-14 -8.30213e-14 -1.23554e-13 1.27334e-13 -1.04988e-13 5.37854e-14 -9.85601e-14 1.35106e-14 -6.05668e-14 -5.85554e-14 -2.43472e-14 -1.16854e-14 -5.96342e-14 -7.11204e-14 -1.95904e-15 0 0 1.1689e-15 1.33649e-15 1.51082e-16 -1.07893e-15 1.87288e-15 -3.2673e-18 1.35675e-17 2.85604e-15 6.3964e-15 1.1907e-15 4.3021e-15 -5.53885e-15 -1.19258e-14 6.89961e-15 -2.60983e-15 6.6911e-16 4.51961e-15 1.03425e-14 7.00151e-15 -1.83954e-15 5.99048e-15 7.07362e-15 -1.98464e-15 -9.92978e-15 1.28148e-14 -1.40861e-14 2.18647e-14 9.86323e-15 -7.18587e-17 1.40817e-14 -1.35814e-14 1.22937e-14 1.25418e-14 -9.60297e-15 6.03875e-15 7.24659e-15 1.75106e-14 -1.28622e-15 1.15507e-14 -1.02137e-14 -1.40978e-14 -1.68018e-14 4.02894e-15 1.51964e-14 1.73481e-14 -2.13817e-15 -1.00815e-14 -1.57134e-14 -1.28861e-14 2.53722e-14 -2.10168e-14 3.86108e-14 -1.08074e-14 5.24211e-14 -1.93988e-14 4.93401e-14 -8.55012e-15 4.65392e-14 5.14329e-15 2.94293e-14 -6.91782e-15 1.77416e-13 1.87579e-12 1.71244e-11 1.51453e-10 1.23932e-09 9.37437e-09 6.52738e-08 4.16463e-07 2.42158e-06 1.27505e-05 6.03301e-05 0.000254136 0.000942414 0.003037 0.00839676 0.0197488 0.0395722 0.0685742 0.105454 0.148175 0.195171 0.245633 0.299284 0.356133 0.416338 0.480148 0.547866 0.619803 0.69617 0.776752 0.85988 0.938794 0.988569 0.974236 0.956883 0.943684 0.937414 0.934929 0.933901 0.933743 0.933588 0.93345 0.933334 0.933252 0.9332 0.933181 0.933177 0.933186 0.933168 0.93311 0.932947 0.932678 0.932173 0.931575 0.93069 0.929928 0.9291 0.928849 0.929321 0.933906 0.933188 0.93462 0.931623 0.913505 0.925707 0.862317 0.812824 0.809081 0.700133 0.617489 0.503136 0.38352 0.261144 0.157779 0.0824036 0.0375835 0.0154554 0.00597414 0.00223233 0.000817091 0.000294348 0.000104461 3.65064e-05 1.25523e-05 4.24244e-06 1.40824e-06 4.58763e-07 1.46582e-07 4.59133e-08 1.40922e-08 4.237e-09 1.24764e-09 3.59676e-10 1.01561e-10 2.81009e-11 7.51652e-12 2.06607e-12 5.47118e-13 1.83194e-14 -6.50623e-15 6.1748e-15 1.34979e-13 1.08465e-13 -4.68979e-14 1.41631e-14 -5.80045e-14 -7.73398e-15 3.65441e-14 9.75561e-14 -9.02958e-14 2.01942e-16 -8.40408e-17 -3.60114e-14 5.58875e-14 -1.01193e-13 6.74318e-14 -1.09513e-13 -2.74888e-14 -3.37621e-14 -2.50673e-14 -2.02945e-14 -3.34675e-14 7.15331e-14 -2.93631e-14 -1.00057e-13 -3.60431e-14 -2.81155e-14 2.22119e-14 -6.68688e-14 -5.17648e-14 -7.62555e-14 8.94216e-15 -1.00812e-13 4.78758e-14 -5.95037e-14 -8.43835e-14 1.66013e-14 -4.49493e-14 0 0 2.94619e-15 2.02111e-15 7.67975e-16 6.04382e-16 1.72289e-15 -3.71738e-15 7.71289e-16 4.6236e-15 5.54197e-15 1.86541e-15 4.99332e-15 -9.58612e-16 -1.16519e-14 9.14249e-15 -5.77398e-15 -2.56528e-15 6.54261e-15 7.3586e-15 1.25521e-14 -1.43422e-15 3.40696e-15 2.73071e-15 -2.78058e-15 -8.29863e-15 3.42129e-15 -3.09834e-15 1.34734e-14 1.39004e-14 4.47905e-15 -3.7598e-15 1.87417e-14 -5.30292e-15 1.65729e-14 -2.55059e-15 1.36127e-14 -1.58329e-15 -6.75271e-16 -1.90551e-15 1.59822e-14 -2.38854e-14 -1.61378e-14 2.10528e-14 6.65302e-15 -4.6586e-15 1.47365e-14 -2.04765e-14 -7.99965e-15 4.94056e-15 -1.13514e-14 3.56806e-14 -4.86001e-14 5.38256e-14 -2.15011e-14 5.74421e-14 2.25076e-14 -1.0908e-14 6.82907e-14 3.66359e-14 1.10625e-14 -1.21599e-14 3.20074e-14 1.4687e-13 1.81724e-12 1.71324e-11 1.5153e-10 1.23932e-09 9.37428e-09 6.52738e-08 4.16463e-07 2.42158e-06 1.27505e-05 6.03301e-05 0.000254136 0.000942414 0.003037 0.00839676 0.0197488 0.0395722 0.0685742 0.105454 0.148175 0.195171 0.245633 0.299284 0.356133 0.416338 0.480148 0.547866 0.619803 0.69617 0.776752 0.85988 0.938794 0.988569 0.974236 0.956883 0.943684 0.937414 0.934929 0.933901 0.933743 0.933588 0.93345 0.933334 0.933252 0.9332 0.933181 0.933177 0.933186 0.933168 0.93311 0.932947 0.932678 0.932173 0.931575 0.93069 0.929928 0.9291 0.928849 0.929321 0.933906 0.933188 0.93462 0.931623 0.913505 0.925707 0.862317 0.812824 0.809081 0.700133 0.617489 0.503136 0.38352 0.261144 0.157779 0.0824036 0.0375835 0.0154554 0.00597414 0.00223233 0.000817091 0.000294348 0.000104461 3.65064e-05 1.25523e-05 4.24244e-06 1.40824e-06 4.58763e-07 1.46582e-07 4.59133e-08 1.40922e-08 4.23702e-09 1.24765e-09 3.59683e-10 1.01551e-10 2.80132e-11 7.75156e-12 2.05838e-12 4.83006e-13 9.11226e-14 4.70462e-15 -1.81641e-14 4.22761e-15 2.22458e-13 -9.07293e-14 4.73216e-14 -1.48027e-13 -8.97237e-14 6.16318e-14 1.53006e-13 6.97068e-14 -9.20285e-14 4.98288e-14 -8.93052e-14 -6.59944e-14 -8.40497e-14 6.68021e-14 -3.79644e-14 -4.90277e-14 -3.7686e-14 -1.25836e-13 6.79009e-14 -1.258e-13 1.04614e-13 7.03112e-14 -7.58449e-14 7.77781e-14 -1.16451e-13 3.87756e-14 -7.60033e-14 -7.02431e-14 -7.42641e-14 5.83916e-14 -8.81442e-14 -3.2748e-14 -4.30712e-14 -4.90689e-14 2.13968e-14 4.92855e-14 0 0 3.30788e-15 2.79193e-16 7.14212e-16 -9.48902e-16 -1.61074e-15 -2.61228e-16 1.72439e-15 6.62574e-16 -4.42221e-15 5.51817e-16 1.52427e-15 6.91042e-15 -1.74484e-15 3.41432e-15 -4.94169e-15 7.61685e-15 1.74767e-14 -3.99855e-15 -6.82011e-15 4.4197e-15 2.86924e-15 9.05454e-16 -3.46692e-16 8.44583e-16 -2.25384e-15 1.88367e-14 -1.16678e-14 -3.11413e-15 2.51545e-14 -1.63425e-14 6.1241e-14 -2.88434e-14 1.62165e-15 -3.78975e-16 1.76139e-14 -9.97051e-16 -1.29918e-14 -2.78081e-14 1.32518e-14 -1.22361e-14 2.43401e-14 2.14873e-14 2.24901e-14 -1.47189e-15 -2.14818e-14 -1.14627e-14 -1.07265e-14 1.12514e-14 1.72512e-14 3.27122e-14 -5.37799e-14 1.12249e-14 2.69507e-14 6.44045e-15 4.42752e-14 2.0286e-15 5.60185e-14 1.94669e-14 3.74321e-14 1.43942e-14 4.94312e-14 1.76277e-13 1.78571e-12 1.71609e-11 1.51501e-10 1.23926e-09 9.37434e-09 6.52737e-08 4.16463e-07 2.42158e-06 1.27505e-05 6.03301e-05 0.000254136 0.000942414 0.003037 0.00839676 0.0197488 0.0395722 0.0685742 0.105454 0.148175 0.195171 0.245633 0.299284 0.356133 0.416338 0.480148 0.547866 0.619803 0.69617 0.776752 0.85988 0.938794 0.988569 0.974236 0.956883 0.943684 0.937414 0.934929 0.933901 0.933743 0.933588 0.93345 0.933334 0.933252 0.9332 0.933181 0.933177 0.933186 0.933168 0.93311 0.932947 0.932678 0.932173 0.931575 0.93069 0.929928 0.9291 0.928849 0.929321 0.933906 0.933188 0.93462 0.931623 0.913505 0.925707 0.862317 0.812824 0.809081 0.700133 0.617489 0.503136 0.38352 0.261144 0.157779 0.0824036 0.0375835 0.0154554 0.00597414 0.00223233 0.000817091 0.000294348 0.000104461 3.65064e-05 1.25523e-05 4.24244e-06 1.40824e-06 4.58763e-07 1.46582e-07 4.59133e-08 1.40922e-08 4.23704e-09 1.24774e-09 3.59613e-10 1.01599e-10 2.80491e-11 7.81329e-12 2.11877e-12 4.45722e-13 7.43811e-14 -1.23276e-13 7.74628e-14 1.29067e-14 8.63685e-14 -6.62931e-14 -2.31279e-14 -1.42047e-13 -2.44518e-14 -1.58241e-13 4.44066e-14 2.15262e-13 8.59368e-14 -1.30004e-13 9.15122e-14 -1.40586e-13 -9.36879e-14 1.69819e-14 4.84509e-14 -7.08095e-14 -1.32085e-13 -1.36726e-13 4.06955e-14 5.18222e-14 -1.74257e-14 9.21599e-14 -9.36009e-14 4.52277e-15 -4.51732e-14 -1.82686e-14 -1.13178e-14 -6.05214e-15 6.88903e-14 -7.55021e-14 -7.69381e-14 -3.37144e-14 -7.18123e-14 4.56769e-14 3.2531e-14 1.23421e-14 0 0 4.09395e-15 5.58906e-15 3.80775e-15 -9.79934e-16 -1.52105e-15 -3.51222e-16 1.40923e-15 -5.13153e-15 -6.12887e-15 2.11238e-15 2.70617e-15 -4.7281e-16 -3.37242e-17 3.56952e-15 -2.34546e-15 2.02315e-15 2.06153e-14 -4.22545e-15 -9.84295e-15 -8.67595e-15 5.2006e-15 -5.34766e-16 -6.00245e-15 -9.21213e-15 9.77481e-15 2.05849e-14 8.39744e-15 4.21464e-16 2.59172e-14 7.94066e-15 4.91063e-14 -3.34351e-14 -9.86142e-15 -2.69959e-14 2.06016e-14 1.16856e-16 -1.22441e-14 -2.92933e-14 -7.92581e-16 7.26284e-15 1.81593e-14 -1.21952e-14 3.15717e-14 -6.852e-15 -1.04828e-14 -3.97796e-15 -7.42885e-16 -1.63458e-15 3.00747e-14 -1.91392e-14 5.6669e-14 -5.73118e-15 4.8422e-14 -4.26811e-14 2.69289e-14 4.08094e-14 -2.30282e-14 4.5847e-14 2.81258e-14 9.54573e-14 4.46749e-14 2.22864e-13 1.85161e-12 1.71464e-11 1.51398e-10 1.23919e-09 9.3744e-09 6.52736e-08 4.16463e-07 2.42158e-06 1.27505e-05 6.03301e-05 0.000254136 0.000942414 0.003037 0.00839676 0.0197488 0.0395722 0.0685742 0.105454 0.148175 0.195171 0.245633 0.299284 0.356133 0.416338 0.480148 0.547866 0.619803 0.69617 0.776752 0.85988 0.938794 0.988569 0.974236 0.956883 0.943684 0.937414 0.934929 0.933901 0.933743 0.933588 0.93345 0.933334 0.933252 0.9332 0.933181 0.933177 0.933186 0.933168 0.93311 0.932947 0.932678 0.932173 0.931575 0.93069 0.929928 0.9291 0.928849 0.929321 0.933906 0.933188 0.93462 0.931623 0.913505 0.925707 0.862317 0.812824 0.809081 0.700133 0.617489 0.503136 0.38352 0.261144 0.157779 0.0824036 0.0375835 0.0154554 0.00597414 0.00223233 0.000817091 0.000294348 0.000104461 3.65064e-05 1.25523e-05 4.24244e-06 1.40824e-06 4.58763e-07 1.46582e-07 4.59133e-08 1.40922e-08 4.2371e-09 1.24783e-09 3.59549e-10 1.01582e-10 2.81159e-11 7.67876e-12 2.19047e-12 4.58285e-13 -1.07289e-13 -2.3496e-13 9.91454e-14 5.00131e-14 1.37876e-13 -5.75015e-14 1.39166e-13 -4.3204e-14 -1.74819e-14 -1.41204e-13 -1.81575e-13 9.50651e-14 2.63639e-13 -8.48598e-14 1.5247e-13 -1.74982e-13 -1.08995e-13 -6.41128e-14 -9.79924e-14 9.56991e-14 -2.25972e-13 -8.97482e-15 -1.34767e-13 1.29459e-13 -1.14141e-14 1.4507e-14 -1.40662e-13 -6.86907e-14 1.58065e-13 -1.96221e-14 2.85315e-14 3.82691e-14 -5.87632e-14 -1.25267e-13 3.95976e-14 -1.7474e-14 -1.00947e-13 6.55708e-14 9.07558e-14 -5.37567e-14 0 0 4.47343e-15 1.10579e-14 9.96429e-15 6.46574e-15 -2.73351e-15 -4.93346e-15 3.26272e-15 -6.48237e-15 -8.31805e-15 4.15715e-15 2.69956e-15 2.96591e-16 -2.15274e-16 -1.16808e-15 -4.19338e-15 -6.63992e-15 3.87408e-15 1.42993e-15 4.84668e-15 -1.58657e-14 7.46078e-15 -2.28396e-14 6.80423e-15 -2.36545e-14 1.51559e-14 2.66631e-14 2.7347e-14 1.8091e-14 1.83768e-14 3.59281e-15 3.42859e-14 -1.96878e-14 -1.12728e-14 -3.59242e-14 1.58591e-14 4.11815e-15 -3.12493e-14 1.28871e-14 -4.34094e-15 -3.17043e-15 -2.66058e-14 8.04008e-15 1.57785e-14 -3.1597e-14 3.59907e-15 -1.03448e-14 8.11779e-15 -8.24318e-15 5.16928e-14 -4.82309e-14 1.27494e-13 -4.77095e-15 3.98435e-14 -6.30173e-14 4.07878e-14 6.81545e-15 -1.23039e-14 4.44665e-14 5.19895e-14 1.20682e-13 3.19207e-14 3.07435e-13 1.79113e-12 1.71396e-11 1.5133e-10 1.23925e-09 9.3744e-09 6.52735e-08 4.16463e-07 2.42158e-06 1.27505e-05 6.03301e-05 0.000254136 0.000942414 0.003037 0.00839676 0.0197488 0.0395722 0.0685742 0.105454 0.148175 0.195171 0.245633 0.299284 0.356133 0.416338 0.480148 0.547866 0.619803 0.69617 0.776752 0.85988 0.938794 0.988569 0.974236 0.956883 0.943684 0.937414 0.934929 0.933901 0.933743 0.933588 0.93345 0.933334 0.933252 0.9332 0.933181 0.933177 0.933186 0.933168 0.93311 0.932947 0.932678 0.932173 0.931575 0.93069 0.929928 0.9291 0.928849 0.929321 0.933906 0.933188 0.93462 0.931623 0.913505 0.925707 0.862317 0.812824 0.809081 0.700133 0.617489 0.503136 0.38352 0.261144 0.157779 0.0824036 0.0375835 0.0154554 0.00597414 0.00223233 0.000817091 0.000294348 0.000104461 3.65064e-05 1.25523e-05 4.24244e-06 1.40824e-06 4.58763e-07 1.46583e-07 4.59132e-08 1.40922e-08 4.23712e-09 1.24782e-09 3.59561e-10 1.01502e-10 2.80276e-11 7.84448e-12 2.11935e-12 3.65957e-13 -4.3066e-14 -2.50477e-13 1.05187e-13 -1.11157e-13 1.36064e-13 -2.10576e-15 3.2597e-13 6.13245e-15 -5.5765e-14 1.21206e-13 -3.7692e-13 5.73733e-14 2.82166e-13 3.71221e-14 -6.26263e-16 -2.50536e-13 -2.05861e-14 -1.43451e-13 -7.56979e-14 1.85109e-13 -2.68385e-13 8.27033e-15 -1.89052e-13 -1.19229e-13 1.46096e-13 -2.96021e-14 -1.28675e-13 -4.22199e-14 3.57001e-13 -7.45668e-14 1.15152e-13 -4.73942e-14 -2.38221e-13 -6.15773e-14 1.99503e-13 -1.53419e-13 -3.66421e-14 5.09591e-14 5.40602e-14 5.3533e-14 0
				</DataArray>
				<DataArray Name="VitesseY" type="Float32" format="ascii">