<?xml version="1.0"?>
<VTKFile type="PolyData">
	<PolyData>
		<Piece NumberOfPoints="1206" NumberOfPolys="1000">
			<Points>
				<DataArray type="Float32" NumberOfComponents="3" format="ascii">
 0 0 0 0.005 0 0 0.01 0 0 0.015 0 0 0.02 0 0 0.025 0 0 0.03 0 0 0.035 0 0 0.04 0 0 0.045 0 0 0.05 0 0 0.055 0 0 0.06 0 0 0.065 0 0 0.07 0 0 0.075 0 0 0.08 0 0 0.085 0 0 0.09 0 0 0.095 0 0 0.1 0 0 0.105 0 0 0.11 0 0 0.115 0 0 0.12 0 0 0.125 0 0 0.13 0 0 0.135 0 0 0.14 0 0 0.145 0 0 0.15 0 0 0.155 0 0 0.16 0 0 0.165 0 0 0.17 0 0 0.175 0 0 0.18 0 0 0.185 0 0 0.19 0 0 0.195 0 0 0.2 0 0 0.205 0 0 0.21 0 0 0.215 0 0 0.22 0 0 0.225 0 0 0.23 0 0 0.235 0 0 0.24 0 0 0.245 0 0 0.25 0 0 0.255 0 0 0.26 0 0 0.265 0 0 0.27 0 0 0.275 0 0 0.28 0 0 0.285 0 0 0.29 0 0 0.295 0 0 0.3 0 0 0.305 0 0 0.31 0 0 0.315 0 0 0.32 0 0 0.325 0 0 0.33 0 0 0.335 0 0 0.34 0 0 0.345 0 0 0.35 0 0 0.355002 0 0 0.360006 0 0 0.36502 0 0 0.370057 0 0 0.37514 0 0 0.380302 0 0 0.38558 0 0 0.391009 0 0 0.396618 0 0 0.402433 0 0 0.408477 0 0 0.414777 0 0 0.42136 0 0 0.428257 0 0 0.435505 0 0 0.443146 0 0 0.45123 0 0 0.459816 0 0 0.468973 0 0 0.478782 0 0 0.489331 0 0 0.500691 0 0 0.512826 0 0 0.525303 0 0 0.537603 0 0 0.549706 0 0 0.561656 0 0 0.573525 0 0 0.585361 0 0 0.597185 0 0 0.599467 0 0 0.60175 0 0 0.604032 0 0 0.606314 0 0 0.608596 0 0 0.610877 0 0 0.613153 0 0 0.615428 0 0 0.617709 0 0 0.619989 0 0 0.622268 0 0 0.624547 0 0 0.626826 0 0 0.629105 0 0 0.631385 0 0 0.633669 0 0 0.635955 0 0 0.63824 0 0 0.640524 0 0 0.642809 0 0 0.645092 0 0 0.647374 0 0 0.649656 0 0 0.651937 0 0 0.654219 0 0 0.656496 0 0 0.658776 0 0 0.661068 0 0 0.663383 0 0 0.665779 0 0 0.668161 0 0 0.67071 0 0 0.673417 0 0 0.676317 0 0 0.679478 0 0 0.682963 0 0 0.686797 0 0 0.690987 0 0 0.695485 0 0 0.700214 0 0 0.705087 0 0 0.710034 0 0 0.715013 0 0 0.720005 0 0 0.725002 0 0 0.730001 0 0 0.735 0 0 0.74 0 0 0.745 0 0 0.75 0 0 0.755 0 0 0.76 0 0 0.765 0 0 0.77 0 0 0.775 0 0 0.78 0 0 0.785 0 0 0.79 0 0 0.795 0 0 0.8 0 0 0.805 0 0 0.81 0 0 0.815 0 0 0.82 0 0 0.825 0 0 0.83 0 0 0.835 0 0 0.84 0 0 0.845 0 0 0.85 0 0 0.855 0 0 0.86 0 0 0.865 0 0 0.87 0 0 0.875 0 0 0.88 0 0 0.885 0 0 0.89 0 0 0.895 0 0 0.9 0 0 0.905 0 0 0.91 0 0 0.915 0 0 0.92 0 0 0.925 0 0 0.93 0 0 0.935 0 0 0.94 0 0 0.945 0 0 0.95 0 0 0.955 0 0 0.96 0 0 0.965 0 0 0.97 0 0 0.975 0 0 0.98 0 0 0.985 0 0 0.99 0 0 0.995 0 0 1 0 0 0 0.02 0 0.005 0.02 0 0.01 0.02 0 0.015 0.02 0 0.02 0.02 0 0.025 0.02 0 0.03 0.02 0 0.035 0.02 0 0.04 0.02 0 0.045 0.02 0 0.05 0.02 0 0.055 0.02 0 0.06 0.02 0 0.065 0.02 0 0.07 0.02 0 0.075 0.02 0 0.08 0.02 0 0.085 0.02 0 0.09 0.02 0 0.095 0.02 0 0.1 0.02 0 0.105 0.02 0 0.11 0.02 0 0.115 0.02 0 0.12 0.02 0 0.125 0.02 0 0.13 0.02 0 0.135 0.02 0 0.14 0.02 0 0.145 0.02 0 0.15 0.02 0 0.155 0.02 0 0.16 0.02 0 0.165 0.02 0 0.17 0.02 0 0.175 0.02 0 0.18 0.02 0 0.185 0.02 0 0.19 0.02 0 0.195 0.02 0 0.2 0.02 0 0.205 0.02 0 0.21 0.02 0 0.215 0.02 0 0.22 0.02 0 0.225 0.02 0 0.23 0.02 0 0.235 0.02 0 0.24 0.02 0 0.245 0.02 0 0.25 0.02 0 0.255 0.02 0 0.26 0.02 0 0.265 0.02 0 0.27 0.02 0 0.275 0.02 0 0.28 0.02 0 0.285 0.02 0 0.29 0.02 0 0.295 0.02 0 0.3 0.02 0 0.305 0.02 0 0.31 0.02 0 0.315 0.02 0 0.32 0.02 0 0.325 0.02 0 0.33 0.02 0 0.335 0.02 0 0.34 0.02 0 0.345 0.02 0 0.35 0.02 0 0.355002 0.02 0 0.360006 0.02 0 0.36502 0.02 0 0.370057 0.02 0 0.37514 0.02 0 0.380302 0.02 0 0.38558 0.02 0 0.391009 0.02 0 0.396618 0.02 0 0.402433 0.02 0 0.408477 0.02 0 0.414777 0.02 0 0.42136 0.02 0 0.428257 0.02 0 0.435505 0.02 0 0.443146 0.02 0 0.45123 0.02 0 0.459816 0.02 0 0.468973 0.02 0 0.478782 0.02 0 0.489331 0.02 0 0.500691 0.02 0 0.512826 0.02 0 0.525303 0.02 0 0.537603 0.02 0 0.549706 0.02 0 0.561656 0.02 0 0.573525 0.02 0 0.585361 0.02 0 0.597185 0.02 0 0.599467 0.02 0 0.60175 0.02 0 0.604032 0.02 0 0.606314 0.02 0 0.608596 0.02 0 0.610877 0.02 0 0.613153 0.02 0 0.615428 0.02 0 0.617709 0.02 0 0.619989 0.02 0 0.622268 0.02 0 0.624547 0.02 0 0.626826 0.02 0 0.629105 0.02 0 0.631385 0.02 0 0.633669 0.02 0 0.635955 0.02 0 0.63824 0.02 0 0.640524 0.02 0 0.642809 0.02 0 0.645092 0.02 0 0.647374 0.02 0 0.649656 0.02 0 0.651937 0.02 0 0.654219 0.02 0 0.656496 0.02 0 0.658776 0.02 0 0.661068 0.02 0 0.663383 0.02 0 0.665779 0.02 0 0.668161 0.02 0 0.67071 0.02 0 0.673417 0.02 0 0.676317 0.02 0 0.679478 0.02 0 0.682963 0.02 0 0.686797 0.02 0 0.690987 0.02 0 0.695485 0.02 0 0.700214 0.02 0 0.705087 0.02 0 0.710034 0.02 0 0.715013 0.02 0 0.720005 0.02 0 0.725002 0.02 0 0.730001 0.02 0 0.735 0.02 0 0.74 0.02 0 0.745 0.02 0 0.75 0.02 0 0.755 0.02 0 0.76 0.02 0 0.765 0.02 0 0.77 0.02 0 0.775 0.02 0 0.78 0.02 0 0.785 0.02 0 0.79 0.02 0 0.795 0.02 0 0.8 0.02 0 0.805 0.02 0 0.81 0.02 0 0.815 0.02 0 0.82 0.02 0 0.825 0.02 0 0.83 0.02 0 0.835 0.02 0 0.84 0.02 0 0.845 0.02 0 0.85 0.02 0 0.855 0.02 0 0.86 0.02 0 0.865 0.02 0 0.87 0.02 0 0.875 0.02 0 0.88 0.02 0 0.885 0.02 0 0.89 0.02 0 0.895 0.02 0 0.9 0.02 0 0.905 0.02 0 0.91 0.02 0 0.915 0.02 0 0.92 0.02 0 0.925 0.02 0 0.93 0.02 0 0.935 0.02 0 0.94 0.02 0 0.945 0.02 0 0.95 0.02 0 0.955 0.02 0 0.96 0.02 0 0.965 0.02 0 0.97 0.02 0 0.975 0.02 0 0.98 0.02 0 0.985 0.02 0 0.99 0.02 0 0.995 0.02 0 1 0.02 0 0 0.04 0 0.005 0.04 0 0.01 0.04 0 0.015 0.04 0 0.02 0.04 0 0.025 0.04 0 0.03 0.04 0 0.035 0.04 0 0.04 0.04 0 0.045 0.04 0 0.05 0.04 0 0.055 0.04 0 0.06 0.04 0 0.065 0.04 0 0.07 0.04 0 0.075 0.04 0 0.08 0.04 0 0.085 0.04 0 0.09 0.04 0 0.095 0.04 0 0.1 0.04 0 0.105 0.04 0 0.11 0.04 0 0.115 0.04 0 0.12 0.04 0 0.125 0.04 0 0.13 0.04 0 0.135 0.04 0 0.14 0.04 0 0.145 0.04 0 0.15 0.04 0 0.155 0.04 0 0.16 0.04 0 0.165 0.04 0 0.17 0.04 0 0.175 0.04 0 0.18 0.04 0 0.185 0.04 0 0.19 0.04 0 0.195 0.04 0 0.2 0.04 0 0.205 0.04 0 0.21 0.04 0 0.215 0.04 0 0.22 0.04 0 0.225 0.04 0 0.23 0.04 0 0.235 0.04 0 0.24 0.04 0 0.245 0.04 0 0.25 0.04 0 0.255 0.04 0 0.26 0.04 0 0.265 0.04 0 0.27 0.04 0 0.275 0.04 0 0.28 0.04 0 0.285 0.04 0 0.29 0.04 0 0.295 0.04 0 0.3 0.04 0 0.305 0.04 0 0.31 0.04 0 0.315 0.04 0 0.32 0.04 0 0.325 0.04 0 0.33 0.04 0 0.335 0.04 0 0.34 0.04 0 0.345 0.04 0 0.35 0.04 0 0.355002 0.04 0 0.360006 0.04 0 0.36502 0.04 0 0.370057 0.04 0 0.37514 0.04 0 0.380302 0.04 0 0.38558 0.04 0 0.391009 0.04 0 0.396618 0.04 0 0.402433 0.04 0 0.408477 0.04 0 0.414777 0.04 0 0.42136 0.04 0 0.428257 0.04 0 0.435505 0.04 0 0.443146 0.04 0 0.45123 0.04 0 0.459816 0.04 0 0.468973 0.04 0 0.478782 0.04 0 0.489331 0.04 0 0.500691 0.04 0 0.512826 0.04 0 0.525303 0.04 0 0.537603 0.04 0 0.549706 0.04 0 0.561656 0.04 0 0.573525 0.04 0 0.585361 0.04 0 0.597185 0.04 0 0.599467 0.04 0 0.60175 0.04 0 0.604032 0.04 0 0.606314 0.04 0 0.608596 0.04 0 0.610877 0.04 0 0.613153 0.04 0 0.615428 0.04 0 0.617709 0.04 0 0.619989 0.04 0 0.622268 0.04 0 0.624547 0.04 0 0.626826 0.04 0 0.629105 0.04 0 0.631385 0.04 0 0.633669 0.04 0 0.635955 0.04 0 0.63824 0.04 0 0.640524 0.04 0 0.642809 0.04 0 0.645092 0.04 0 0.647374 0.04 0 0.649656 0.04 0 0.651937 0.04 0 0.654219 0.04 0 0.656496 0.04 0 0.658776 0.04 0 0.661068 0.04 0 0.663383 0.04 0 0.665779 0.04 0 0.668161 0.04 0 0.67071 0.04 0 0.673417 0.04 0 0.676317 0.04 0 0.679478 0.04 0 0.682963 0.04 0 0.686797 0.04 0 0.690987 0.04 0 0.695485 0.04 0 0.700214 0.04 0 0.705087 0.04 0 0.710034 0.04 0 0.715013 0.04 0 0.720005 0.04 0 0.725002 0.04 0 0.730001 0.04 0 0.735 0.04 0 0.74 0.04 0 0.745 0.04 0 0.75 0.04 0 0.755 0.04 0 0.76 0.04 0 0.765 0.04 0 0.77 0.04 0 0.775 0.04 0 0.78 0.04 0 0.785 0.04 0 0.79 0.04 0 0.795 0.04 0 0.8 0.04 0 0.805 0.04 0 0.81 0.04 0 0.815 0.04 0 0.82 0.04 0 0.825 0.04 0 0.83 0.04 0 0.835 0.04 0 0.84 0.04 0 0.845 0.04 0 0.85 0.04 0 0.855 0.04 0 0.86 0.04 0 0.865 0.04 0 0.87 0.04 0 0.875 0.04 0 0.88 0.04 0 0.885 0.04 0 0.89 0.04 0 0.895 0.04 0 0.9 0.04 0 0.905 0.04 0 0.91 0.04 0 0.915 0.04 0 0.92 0.04 0 0.925 0.04 0 0.93 0.04 0 0.935 0.04 0 0.94 0.04 0 0.945 0.04 0 0.95 0.04 0 0.955 0.04 0 0.96 0.04 0 0.965 0.04 0 0.97 0.04 0 0.975 0.04 0 0.98 0.04 0 0.985 0.04 0 0.99 0.04 0 0.995 0.04 0 1 0.04 0 0 0.06 0 0.005 0.06 0 0.01 0.06 0 0.015 0.06 0 0.02 0.06 0 0.025 0.06 0 0.03 0.06 0 0.035 0.06 0 0.04 0.06 0 0.045 0.06 0 0.05 0.06 0 0.055 0.06 0 0.06 0.06 0 0.065 0.06 0 0.07 0.06 0 0.075 0.06 0 0.08 0.06 0 0.085 0.06 0 0.09 0.06 0 0.095 0.06 0 0.1 0.06 0 0.105 0.06 0 0.11 0.06 0 0.115 0.06 0 0.12 0.06 0 0.125 0.06 0 0.13 0.06 0 0.135 0.06 0 0.14 0.06 0 0.145 0.06 0 0.15 0.06 0 0.155 0.06 0 0.16 0.06 0 0.165 0.06 0 0.17 0.06 0 0.175 0.06 0 0.18 0.06 0 0.185 0.06 0 0.19 0.06 0 0.195 0.06 0 0.2 0.06 0 0.205 0.06 0 0.21 0.06 0 0.215 0.06 0 0.22 0.06 0 0.225 0.06 0 0.23 0.06 0 0.235 0.06 0 0.24 0.06 0 0.245 0.06 0 0.25 0.06 0 0.255 0.06 0 0.26 0.06 0 0.265 0.06 0 0.27 0.06 0 0.275 0.06 0 0.28 0.06 0 0.285 0.06 0 0.29 0.06 0 0.295 0.06 0 0.3 0.06 0 0.305 0.06 0 0.31 0.06 0 0.315 0.06 0 0.32 0.06 0 0.325 0.06 0 0.33 0.06 0 0.335 0.06 0 0.34 0.06 0 0.345 0.06 0 0.35 0.06 0 0.355002 0.06 0 0.360006 0.06 0 0.36502 0.06 0 0.370057 0.06 0 0.37514 0.06 0 0.380302 0.06 0 0.38558 0.06 0 0.391009 0.06 0 0.396618 0.06 0 0.402433 0.06 0 0.408477 0.06 0 0.414777 0.06 0 0.42136 0.06 0 0.428257 0.06 0 0.435505 0.06 0 0.443146 0.06 0 0.45123 0.06 0 0.459816 0.06 0 0.468973 0.06 0 0.478782 0.06 0 0.489331 0.06 0 0.500691 0.06 0 0.512826 0.06 0 0.525303 0.06 0 0.537603 0.06 0 0.549706 0.06 0 0.561656 0.06 0 0.573525 0.06 0 0.585361 0.06 0 0.597185 0.06 0 0.599467 0.06 0 0.60175 0.06 0 0.604032 0.06 0 0.606314 0.06 0 0.608596 0.06 0 0.610877 0.06 0 0.613153 0.06 0 0.615428 0.06 0 0.617709 0.06 0 0.619989 0.06 0 0.622268 0.06 0 0.624547 0.06 0 0.626826 0.06 0 0.629105 0.06 0 0.631385 0.06 0 0.633669 0.06 0 0.635955 0.06 0 0.63824 0.06 0 0.640524 0.06 0 0.642809 0.06 0 0.645092 0.06 0 0.647374 0.06 0 0.649656 0.06 0 0.651937 0.06 0 0.654219 0.06 0 0.656496 0.06 0 0.658776 0.06 0 0.661068 0.06 0 0.663383 0.06 0 0.665779 0.06 0 0.668161 0.06 0 0.67071 0.06 0 0.673417 0.06 0 0.676317 0.06 0 0.679478 0.06 0 0.682963 0.06 0 0.686797 0.06 0 0.690987 0.06 0 0.695485 0.06 0 0.700214 0.06 0 0.705087 0.06 0 0.710034 0.06 0 0.715013 0.06 0 0.720005 0.06 0 0.725002 0.06 0 0.730001 0.06 0 0.735 0.06 0 0.74 0.06 0 0.745 0.06 0 0.75
[...]
			<PointData Scalars="VitesseX">
				<DataArray Name="VitesseX" type="Float32" format="ascii">
 0 -8.80041e-16 1.54776e-15 9.35235e-16 2.4038e-15 5.52291e-17 -3.66382e-15 5.55695e-15 3.40355e-16 -1.79736e-15 5.62966e-15 2.09157e-15 2.25338e-15 -7.17462e-15 -5.18908e-15 -9.00612e-16 8.14033e-15 6.07379e-15 2.76549e-15 8.55166e-15 1.32214e-14 4.80726e-15 -1.49565e-14 1.33944e-14 -1.30993e-14 -1.97975e-15 2.04799e-14 -9.91258e-15 1.24977e-14 -1.18123e-14 1.48322e-14 -3.86246e-15 1.49515e-14 2.37657e-14 -1.66907e-14 2.57395e-14 1.47584e-14 -4.24546e-15 1.12749e-14 1.85252e-14 -2.47573e-14 -6.51069e-15 2.56402e-14 9.96612e-16 -1.19504e-14 2.44164e-14 -5.05871e-15 -2.23547e-14 -1.83103e-14 -7.85856e-16 2.66993e-14 -4.45405e-14 3.41255e-14 1.76565e-14 3.34203e-14 5.16366e-14 -1.99201e-14 3.22655e-14 6.73534e-14 1.85415e-13 1.63269e-12 1.47653e-11 1.20942e-10 9.30049e-10 6.64427e-09 4.39446e-08 2.67985e-07 1.49974e-06 7.65977e-06 3.54691e-05 0.000147735 0.000548232 0.00179242 0.00510193 0.0125181 0.0263859 0.0481376 0.0774576 0.112779 0.152442 0.195347 0.240968 0.289131 0.339847 0.393229 0.449455 0.508744 0.571345 0.637496 0.707338 0.780669 0.856193 0.928998 0.982031 0.97779 0.961019 0.946965 0.939118 0.935692 0.934321 0.933701 0.933672 0.933643 0.933601 0.933532 0.93342 0.933254 0.933027 0.932748 0.932426 0.932102 0.931805 0.931594 0.93147 0.931486 0.932347 0.934522 0.934106 0.933716 0.932906 0.932264 0.931481 0.930912 0.930267 0.929107 0.928506 0.928787 0.932382 0.938261 0.91243 0.912294 0.844505 0.797371 0.760231 0.673499 0.558242 0.455828 0.325299 0.212032 0.120301 0.0592418 0.0257793 0.0103374 0.00396487 0.00148542 0.00054836 0.000200012 7.20978e-05 2.56675e-05 9.01659e-06 3.12237e-06 1.06493e-06 3.5745e-07 1.17995e-07 3.82834e-08 1.22024e-08 3.81941e-09 1.17365e-09 3.53979e-10 1.04612e-10 3.04639e-11 8.69584e-12 2.46145e-12 5.81267e-13 2.38322e-13 1.86424e-14 -2.23604e-14 4.77837e-14 9.47881e-14 5.69077e-14 2.37338e-15 -5.60978e-14 -6.858e-14 1.01394e-13 -1.04504e-13 -8.04239e-14 -2.10581e-15 3.50639e-14 4.39924e-14 -3.24984e-14 -1.28019e-13 -8.05051e-14 7.53344e-14 -1.54077e-13 3.49057e-14 2.83789e-14 -1.3131e-13 7.73547e-14 -6.78331e-14 -1.38473e-13 4.46558e-14 -8.88752e-14 8.46255e-16 -6.19942e-14 -1.557e-14 -5.95744e-14 -8.82626e-14 4.43193e-14 -1.08671e-14 -8.30173e-14 0 0 4.69018e-16 1.48787e-15 -1.95833e-15 -3.26329e-15 4.13887e-16 2.09784e-15 1.92402e-15 4.24675e-15 1.30793e-15 3.72823e-15 -3.72389e-15 -7.13984e-16 -4.02607e-15 5.82085e-15 -5.53127e-15 7.09119e-15 7.89616e-15 9.55009e-15 3.21704e-15 1.323e-14 -5.13362e-15 5.19503e-15 -1.13957e-14 -1.09888e-14 1.76304e-14 -1.36188e-14 2.10009e-14 1.15666e-14 9.38939e-16 -7.45958e-15 3.21195e-14 1.22042e-14 -6.29275e-15 -1.34701e-14 1.87663e-14 1.53544e-14 1.35126e-14 -1.4118e-14 1.56886e-14 -2.3677e-14 2.76616e-15 -2.37412e-14 3.09118e-14 9.1564e-15 -1.98037e-15 2.25874e-14 -1.80251e-14 -1.99081e-14 -4.37106e-15 7.98339e-16 1.37713e-14 -8.76882e-16 3.83482e-14 3.78731e-14 1.80534e-14 3.65132e-14 3.87679e-14 1.49173e-14 1.96006e-13 1.61716e-12 1.47073e-11 1.20965e-10 9.3011e-10 6.64433e-09 4.39445e-08 2.67985e-07 1.49974e-06 7.65977e-06 3.54691e-05 0.000147735 0.000548232 0.00179242 0.00510193 0.0125181 0.0263859 0.0481376 0.0774576 0.112779 0.152442 0.195347 0.240968 0.289131 0.339847 0.393229 0.449455 0.508744 0.571345 0.637496 0.707338 0.780669 0.856193 0.928998 0.982031 0.97779 0.961019 0.946965 0.939118 0.935692 0.934321 0.933701 0.933672 0.933643 0.933601 0.933532 0.93342 0.933254 0.933027 0.932748 0.932426 0.932102 0.931805 0.931594 0.93147 0.931486 0.932347 0.934522 0.934106 0.933716 0.932906 0.932264 0.931481 0.930912 0.930267 0.929107 0.928506 0.928787 0.932382 0.938261 0.91243 0.912294 0.844505 0.797371 0.760231 0.673499 0.558242 0.455828 0.325299 0.212032 0.120301 0.0592418 0.0257793 0.0103374 0.00396487 0.00148542 0.00054836 0.000200012 7.20978e-05 2.56675e-05 9.01659e-06 3.12237e-06 1.06493e-06 3.5745e-07 1.17995e-07 3.82834e-08 1.22025e-08 3.81947e-09 1.17353e-09 3.53913e-10 1.04797e-10 3.04546e-11 8.64513e-12 2.48333e-12 6.86846e-13 6.26629e-14 5.39556e-14 -1.75058e-14 6.71357e-14 1.29351e-13 6.02146e-14 -8.24137e-14 -9.29575e-14 8.31962e-14 -7.02374e-14 9.2878e-14 -3.87349e-14 2.20832e-15 -1.09434e-13 -1.05757e-13 2.20634e-14 -7.11169e-14 1.28416e-14 -5.99438e-14 1.95071e-14 -1.19204e-13 5.34599e-14 -4.87061e-14 -3.62633e-14 2.19426e-14 -1.03345e-14 -7.66474e-14 1.07755e-14 -8.22584e-14 -8.54741e-14 -5.64378e-14 3.55522e-14 -8.61437e-14 -3.63226e-14 2.04585e-14 6.98878e-15 0 0 -5.92542e-16 7.34283e-16 1.69532e-15 -3.41436e-15 -8.44093e-16 7.86352e-16 -4.0204e-16 5.58907e-15 3.96444e-15 9.19864e-16 -4.40245e-15 3.83074e-16 -1.06453e-15 8.39941e-15 7.74211e-15 -1.29249e-14 1.1319e-14 1.24117e-14 7.88733e-15 -5.91842e-15 6.55896e-15 6.18143e-15 -1.29878e-14 -1.14308e-14 2.04748e-15 4.33993e-15 2.60985e-14 1.44437e-14 2.70895e-14 -3.13877e-14 3.02576e-14 9.51642e-15 -8.12174e-15 1.88615e-15 -5.24491e-15 7.17046e-15 8.04038e-15 -2.36325e-14 1.90576e-14 -2.72739e-14 2.5468e-15 -2.09637e-14 1.24133e-14 2.39875e-14 1.3357e-15 -1.44843e-16 1.5388e-14 1.74323e-15 -3.88319e-16 -4.81371e-15 3.50532e-14 -3.75272e-15 3.30783e-14 1.94162e-14 -2.59466e-14 8.2731e-14 8.01725e-15 1.33241e-13 1.85137e-13 1.60504e-12 1.45916e-11 1.20984e-10 9.3015e-10 6.64429e-09 4.39445e-08 2.67985e-07 1.49974e-06 7.65977e-06 3.54691e-05 0.000147735 0.000548232 0.00179242 0.00510193 0.0125181 0.0263859 0.0481376 0.0774576 0.112779 0.152442 0.195347 0.240968 0.289131 0.339847 0.393229 0.449455 0.508744 0.571345 0.637496 0.707338 0.780669 0.856193 0.928998 0.982031 0.97779 0.961019 0.946965 0.939118 0.935692 0.934321 0.933701 0.933672 0.933643 0.933601 0.933532 0.93342 0.933254 0.933027 0.932748 0.932426 0.932102 0.931805 0.931594 0.93147 0.931486 0.932347 0.934522 0.934106 0.933716 0.932906 0.932264 0.931481 0.930912 0.930267 0.929107 0.928506 0.928787 0.932382 0.938261 0.91243 0.912294 0.844505 0.797371 0.760231 0.673499 0.558242 0.455828 0.325299 0.212032 0.120301 0.0592418 0.0257793 0.0103374 0.00396487 0.00148542 0.00054836 0.000200012 7.20978e-05 2.56675e-05 9.01659e-06 3.12237e-06 1.06493e-06 3.5745e-07 1.17995e-07 3.82834e-08 1.22024e-08 3.81949e-09 1.17358e-09 3.53934e-10 1.04851e-10 3.0479e-11 8.69716e-12 2.54362e-12 5.36e-13 4.59889e-14 9.371e-14 1.86729e-14 5.48626e-15 2.43136e-14 6.2389e-15 -9.38196e-14 -7.30723e-14 1.27016e-13 -1.31144e-13 8.56463e-14 1.36246e-13 -8.73656e-14 -1.87364e-13 -1.82881e-13 2.70303e-15 5.39499e-14 2.00551e-14 -3.25031e-14 -1.32924e-14 -9.16516e-14 1.7223e-15 6.53702e-15 -1.46602e-13 1.12995e-13 9.1905e-14 -5.42927e-14 -2.81043e-14 -1.44807e-14 -3.00578e-14 -1.4712e-13 5.13788e-14 -9.56281e-14 1.71902e-14 4.16054e-14 -4.59788e-14 0 0 -4.38479e-15 -5.18795e-15 -1.11319e-15 7.21553e-18 -2.19744e-15 -1.51073e-16 -3.16303e-17 4.56099e-15 -2.883e-15 5.93232e-16 2.62045e-15 2.88794e-16 9.21183e-15 4.47335e-15 2.41198e-14 -1.29717e-14 -9.84412e-15 -3.0359e-15 2.40046e-14 -1.16888e-14 5.31235e-15 -4.66474e-15 4.51931e-15 7.31709e-15 -9.41231e-15 8.52819e-15 1.59284e-14 2.39116e-14 3.5417e-15 9.67406e-15 -2.57641e-14 1.61002e-14 2.32088e-14 -2.32599e-14 -6.95688e-15 -2.14681e-14 1.60581e-14 4.98428e-15 7.03828e-15 -4.49535e-15 -2.8592e-14 1.40273e-14 -1.67137e-14 2.04598e-14 1.74362e-14 -4.75552e-15 -1.00402e-14 1.28008e-14 2.34369e-14 -6.60929e-15 4.63863e-14 2.50334e-14 3.12947e-14 -6.34197e-15 -4.48216e-14 3.08163e-14 6.99116e-14 1.08845e-13 3.66806e-13 1.53475e-12 1.45532e-11 1.21005e-10 9.3007e-10 6.64425e-09 4.39445e-08 2.67985e-07 1.49974e-06 7.65977e-06 3.54691e-05 0.000147735 0.000548232 0.00179242 0.00510193 0.0125181 0.0263859 0.0481376 0.0774576 0.112779 0.152442 0.195347 0.240968 0.289131 0.339847 0.393229 0.449455 0.508744 0.571345 0.637496 0.707338 0.780669 0.856193 0.928998 0.982031 0.97779 0.961019 0.946965 0.939118 0.935692 0.934321 0.933701 0.933672 0.933643 0.933601 0.933532 0.93342 0.933254 0.933027 0.932748 0.932426 0.932102 0.931805 0.931594 0.93147 0.931486 0.932347 0.934522 0.934106 0.933716 0.932906 0.932264 0.931481 0.930912 0.930267 0.929107 0.928506 0.928787 0.932382 0.938261 0.91243 0.912294 0.844505 0.797371 0.760231 0.673499 0.558242 0.455828 0.325299 0.212032 0.120301 0.0592418 0.0257793 0.0103374 0.00396487 0.00148542 0.00054836 0.000200012 7.20978e-05 2.56675e-05 9.01659e-06 3.12237e-06 1.06493e-06 3.5745e-07 1.17995e-07 3.82835e-08 1.22024e-08 3.81957e-09 1.17359e-09 3.53944e-10 1.04738e-10 3.05625e-11 8.88086e-12 2.50359e-12 4.08539e-13 2.08683e-13 -1.17301e-13 -1.17972e-15 2.54362e-14 -1.07654e-13 -5.33102e-14 3.46645e-14 -2.06989e-14 5.11296e-14 -6.09608e-15 -3.06113e-15 1.00957e-13 -5.59929e-14 -1.58901e-13 -1.42513e-13 -4.59999e-14 1.09195e-13 -2.3771e-14 -7.00011e-14 -1.31666e-13 -1.55282e-15 -1.18747e-13 -5.64867e-14 1.34149e-13 -1.01477e-13 1.99679e-16 4.97521e-14 4.93503e-14 1.16086e-13 1.31702e-13 -1.01765e-13 -1.06894e-13 -4.18214e-14 -2.59098e-14 -1.41125e-14 6.12667e-14 0 0 -3.2748e-15 -5.65901e-15 -6.94849e-15 -2.26794e-15 -8.02377e-16 3.81928e-15 2.55647e-15 8.8264e-16 -7.06423e-15 -8.07348e-16 2.71051e-15 -5.73807e-15 1.34183e-14 1.48953e-14 7.06407e-15 -9.46824e-16 -1.64322e-14 -1.00254e-14 1.13185e-14 -2.92725e-15 -6.28121e-15 2.15804e-15 -5.26984e-15 1.22929e-14 1.911e-14 -1.22315e-14 2.52902e-14 1.21324e-14 7.72813e-15 8.74476e-15 -1.74722e-14 -1.44572e-15 1.05533e-14 -1.78678e-14 -1.75419e-14 -6.806e-15 2.02117e-14 -3.55223e-15 4.70724e-15 -1.58204e-15 6.94355e-15 -1.2348e-14 6.43863e-15 2.12019e-14 -4.29819e-15 2.66113e-14 1.94488e-15 -7.28925e-16 -2.36788e-14 6.40748e-16 7.39092e-14 -2.9452e-14 1.902e-14 2.28046e-14 8.9113e-15 3.96106e-14 1.2066e-13 3.06561e-14 3.65254e-13 1.54723e-12 1.46175e-11 1.20975e-10 9.29976e-10 6.64429e-09 4.39445e-08 2.67985e-07 1.49974e-06 7.65977e-06 3.54691e-05 0.000147735 0.000548232 0.00179242 0.00510193 0.0125181 0.0263859 0.0481376 0.0774576 0.112779 0.152442 0.195347 0.240968 0.289131 0.339847 0.393229 0.449455 0.508744 0.571345 0.637496 0.707338 0.780669 0.856193 0.928998 0.982031 0.97779 0.961019 0.946965 0.939118 0.935692 0.934321 0.933701 0.933672 0.933643 0.933601 0.933532 0.93342 0.933254 0.933027 0.932748 0.932426 0.932102 0.931805 0.931594 0.93147 0.931486 0.932347 0.934522 0.934106 0.933716 0.932906 0.932264 0.931481 0.930912 0.930267 0.929107 0.928506 0.928787 0.932382 0.938261 0.91243 0.912294 0.844505 0.797371 0.760231 0.673499 0.558242 0.455828 0.325299 0.212032 0.120301 0.0592418 0.0257793 0.0103374 0.00396487 0.00148542 0.00054836 0.000200012 7.20978e-05 2.56675e-05 9.01659e-06 3.12237e-06 1.06493e-06 3.5745e-07 1.17995e-07 3.82834e-08 1.22024e-08 3.81956e-09 1.17355e-09 3.53907e-10 1.04877e-10 3.04896e-11 9.00547e-12 2.75878e-12 4.02438e-13 1.59105e-13 -2.7145e-13 -6.3386e-14 6.82298e-15 -2.97871e-14 -6.45435e-14 4.42149e-15 4.04526e-14 3.13729e-14 1.65162e-13 1.60644e-14 9.0787e-15 -8.34639e-14 -4.56539e-14 -1.55229e-13 -1.43577e-13 -2.35442e-14 -3.46671e-14 -1.25652e-13 -1.78822e-13 -2.23565e-14 2.68265e-14 5.45411e-15 1.40407e-13 -9.85362e-14 8.6907e-14 -1.08294e-13 1.01953e-14 6.08329e-14 6.63949e-14 -2.46452e-14 1.727e-14 -6.76474e-14 6.10673e-14 -7.33407e-14 1.98609e-13 0 0 -7.83197e-16 -9.0154e-16 -3.42805e-15 -2.44866e-15 3.29401e-16 1.65391e-15 6.08102e-15 -4.33169e-15 -4.8468e-15 -2.78824e-15 9.14568e-16 -7.60624e-15 7.16137e-15 2.0812e-14 -8.4653e-15 -7.8421e-15 -2.56575e-16 -5.4903e-15 -7.48006e-15 -7.5523e-15 5.00529e-15 6.61886e-16 -9.36821e-15 -4.03162e-15 2.3899e-14 1.48781e-14 1.90061e-14 -5.30668e-15 4.88616e-14 -3.48826e-14 8.99746e-15 -2.55161e-14 -5.20329e-15 2.48061e-14 -4.34531e-14 2.77148e-14 -6.88279e-15 -2.48271e-14 2.0601e-14 -2.61245e-14 6.41216e-14 -2.15552e-14 1.03044e-14 1.91959e-14 -1.24203e-14 1.22105e-14 6.84417e-14 -2.06704e-15 -8.70517e-14 2.99752e-14 5.3069e-14 -8.0597e-14 -1.74327e-14 5.47997e-14 7.11025e-14 9.0104e-14 7.22607e-14 1.47624e-13 1.60571e-13 1.63339e-12 1.46626e-11 1.2092e-10 9.2994e-10 6.64429e-09 4.39445e-08 2.67985e-07 1.49974e-06 7.65977e-06 3.54691e-05 0.000147735 0.000548232 0.00179242 0.00510193 0.0125181 0.0263859 0.0481376 0.0774576 0.112779 0.152442 0.195347 0.240968 0.289131 0.339847 0.393229 0.449455 0.508744 0.571345 0.637496 0.707338 0.780669 0.856193 0.928998 0.982031 0.97779 0.961019 0.946965 0.939118 0.935692 0.934321 0.933701 0.933672 0.933643 0.933601 0.933532 0.93342 0.933254 0.933027 0.932748 0.932426 0.932102 0.931805 0.931594 0.93147 0.931486 0.932347 0.934522 0.934106 0.933716 0.932906 0.932264 0.931481 0.930912 0.930267 0.929107 0.928506 0.928787 0.932382 0.938261 0.91243 0.912294 0.844505 0.797371 0.760231 0.673499 0.558242 0.455828 0.325299 0.212032 0.120301 0.0592418 0.0257793 0.0103374 0.00396487 0.00148542 0.00054836 0.000200012 7.20978e-05 2.56675e-05 9.01659e-06 3.12237e-06 1.06493e-06 3.5745e-07 1.17994e-07 3.82834e-08 1.22023e-08 3.81943e-09 1.17369e-09 3.53948e-10 1.04999e-10 3.03666e-11 9.04854e-12 3.09255e-12 2.67179e-13 1.05105e-13 -2.10969e-13 -7.49838e-14 -1.1285e-13 4.03877e-14 -7.36098e-14 -8.11156e-14 1.05801e-13 -2.02518e-14 3.21926e-13 -8.12337e-14 8.53898e-14 -2.36167e-13 1.06059e-13 -1.35593e-13 -2.66455e-13 -1.43927e-13 -8.7982e-14 1.94363e-14 -3.14167e-13 4.79656e-14 2.1587e-13 1.03217e-13 -1.30709e-13 1.2007e-13 2.39497e-13 -2.26884e-13 -2.45559e-13 2.54124e-14 -8.21935e-14 -4.31389e-14 2.19875e-13 -1.58606e-13 3.25513e-13 -8.77949e-14 8.49707e-14 0
				</DataArray>
				<DataArray Name="VitesseY" type="Float32" format="ascii">