<?xml version="1.0"?>
<VTKFile type="PolyData">
	<PolyData>
		<Piece NumberOfPoints="1206" NumberOfPolys="1000">
			<Points>
				<DataArray type="Float32" NumberOfComponents="3" format="ascii">
 0 0 0 0.005 0 0 0.01 0 0 0.015 0 0 0.02 0 0 0.025 0 0 0.03 0 0 0.035 0 0 0.04 0 0 0.045 0 0 0.05 0 0 0.055 0 0 0.06 0 0 0.065 0 0 0.07 0 0 0.075 0 0 0.08 0 0 0.085 0 0 0.09 0 0 0.095 0 0 0.1 0 0 0.105 0 0 0.11 0 0 0.115 0 0 0.12 0 0 0.125 0 0 0.13 0 0 0.135 0 0 0.14 0 0 0.145 0 0 0.15 0 0 0.155 0 0 0.16 0 0 0.165 0 0 0.17 0 0 0.175 0 0 0.18 0 0 0.185 0 0 0.19 0 0 0.195 0 0 0.2 0 0 0.205 0 0 0.21 0 0 0.215 0 0 0.22 0 0 0.225 0 0 0.23 0 0 0.235 0 0 0.24 0 0 0.245 0 0 0.25 0 0 0.255 0 0 0.26 0 0 0.265 0 0 0.27 0 0 0.275 0 0 0.28 0 0 0.285 0 0 0.29 0 0 0.295 0 0 0.3 0 0 0.305 0 0 0.31 0 0 0.315 0 0 0.32 0 0 0.325 0 0 0.33 0 0 0.335 0 0 0.34 0 0 0.345 0 0 0.35 0 0 0.355 0 0 0.36 0 0 0.365 0 0 0.37 0 0 0.375 0 0 0.38 0 0 0.385 0 0 0.39 0 0 0.395 0 0 0.4 0 0 0.405 0 0 0.41 0 0 0.415 0 0 0.42 0 0 0.425 0 0 0.43 0 0 0.435 0 0 0.44 0 0 0.445 0 0 0.45 0 0 0.455 0 0 0.46 0 0 0.465004 0 0 0.470034 0 0 0.475186 0 0 0.48073 0 0 0.487136 0 0 0.495107 0 0 0.505778 0 0 0.5192 0 0 0.521531 0 0 0.523821 0 0 0.526161 0 0 0.528624 0 0 0.531297 0 0 0.534272 0 0 0.53763 0 0 0.541422 0 0 0.545646 0 0 0.550236 0 0 0.555068 0 0 0.560016 0 0 0.565003 0 0 0.570001 0 0 0.575 0 0 0.58 0 0 0.585 0 0 0.59 0 0 0.595 0 0 0.6 0 0 0.605 0 0 0.61 0 0 0.615 0 0 0.62 0 0 0.625 0 0 0.63 0 0 0.635 0 0 0.64 0 0 0.645 0 0 0.65 0 0 0.655 0 0 0.66 0 0 0.665 0 0 0.67 0 0 0.675 0 0 0.68 0 0 0.685 0 0 0.69 0 0 0.695 0 0 0.7 0 0 0.705 0 0 0.71 0 0 0.715 0 0 0.72 0 0 0.725 0 0 0.73 0 0 0.735 0 0 0.74 0 0 0.745 0 0 0.75 0 0 0.755 0 0 0.76 0 0 0.765 0 0 0.77 0 0 0.775 0 0 0.78 0 0 0.785 0 0 0.79 0 0 0.795 0 0 0.8 0 0 0.805 0 0 0.81 0 0 0.815 0 0 0.82 0 0 0.825 0 0 0.83 0 0 0.835 0 0 0.84 0 0 0.845 0 0 0.85 0 0 0.855 0 0 0.86 0 0 0.865 0 0 0.87 0 0 0.875 0 0 0.88 0 0 0.885 0 0 0.89 0 0 0.895 0 0 0.9 0 0 0.905 0 0 0.91 0 0 0.915 0 0 0.92 0 0 0.925 0 0 0.93 0 0 0.935 0 0 0.94 0 0 0.945 0 0 0.95 0 0 0.955 0 0 0.96 0 0 0.965 0 0 0.97 0 0 0.975 0 0 0.98 0 0 0.985 0 0 0.99 0 0 0.995 0 0 1 0 0 0 0.02 0 0.005 0.02 0 0.01 0.02 0 0.015 0.02 0 0.02 0.02 0 0.025 0.02 0 0.03 0.02 0 0.035 0.02 0 0.04 0.02 0 0.045 0.02 0 0.05 0.02 0 0.055 0.02 0 0.06 0.02 0 0.065 0.02 0 0.07 0.02 0 0.075 0.02 0 0.08 0.02 0 0.085 0.02 0 0.09 0.02 0 0.095 0.02 0 0.1 0.02 0 0.105 0.02 0 0.11 0.02 0 0.115 0.02 0 0.12 0.02 0 0.125 0.02 0 0.13 0.02 0 0.135 0.02 0 0.14 0.02 0 0.145 0.02 0 0.15 0.02 0 0.155 0.02 0 0.16 0.02 0 0.165 0.02 0 0.17 0.02 0 0.175 0.02 0 0.18 0.02 0 0.185 0.02 0 0.19 0.02 0 0.195 0.02 0 0.2 0.02 0 0.205 0.02 0 0.21 0.02 0 0.215 0.02 0 0.22 0.02 0 0.225 0.02 0 0.23 0.02 0 0.235 0.02 0 0.24 0.02 0 0.245 0.02 0 0.25 0.02 0 0.255 0.02 0 0.26 0.02 0 0.265 0.02 0 0.27 0.02 0 0.275 0.02 0 0.28 0.02 0 0.285 0.02 0 0.29 0.02 0 0.295 0.02 0 0.3 0.02 0 0.305 0.02 0 0.31 0.02 0 0.315 0.02 0 0.32 0.02 0 0.325 0.02 0 0.33 0.02 0 0.335 0.02 0 0.34 0.02 0 0.345 0.02 0 0.35 0.02 0 0.355 0.02 0 0.36 0.02 0 0.365 0.02 0 0.37 0.02 0 0.375 0.02 0 0.38 0.02 0 0.385 0.02 0 0.39 0.02 0 0.395 0.02 0 0.4 0.02 0 0.405 0.02 0 0.41 0.02 0 0.415 0.02 0 0.42 0.02 0 0.425 0.02 0 0.43 0.02 0 0.435 0.02 0 0.44 0.02 0 0.445 0.02 0 0.45 0.02 0 0.455 0.02 0 0.46 0.02 0 0.465004 0.02 0 0.470034 0.02 0 0.475186 0.02 0 0.48073 0.02 0 0.487136 0.02 0 0.495107 0.02 0 0.505778 0.02 0 0.5192 0.02 0 0.521531 0.02 0 0.523821 0.02 0 0.526161 0.02 0 0.528624 0.02 0 0.531297 0.02 0 0.534272 0.02 0 0.53763 0.02 0 0.541422 0.02 0 0.545646 0.02 0 0.550236 0.02 0 0.555068 0.02 0 0.560016 0.02 0 0.565003 0.02 0 0.570001 0.02 0 0.575 0.02 0 0.58 0.02 0 0.585 0.02 0 0.59 0.02 0 0.595 0.02 0 0.6 0.02 0 0.605 0.02 0 0.61 0.02 0 0.615 0.02 0 0.62 0.02 0 0.625 0.02 0 0.63 0.02 0 0.635 0.02 0 0.64 0.02 0 0.645 0.02 0 0.65 0.02 0 0.655 0.02 0 0.66 0.02 0 0.665 0.02 0 0.67 0.02 0 0.675 0.02 0 0.68 0.02 0 0.685 0.02 0 0.69 0.02 0 0.695 0.02 0 0.7 0.02 0 0.705 0.02 0 0.71 0.02 0 0.715 0.02 0 0.72 0.02 0 0.725 0.02 0 0.73 0.02 0 0.735 0.02 0 0.74 0.02 0 0.745 0.02 0 0.75 0.02 0 0.755 0.02 0 0.76 0.02 0 0.765 0.02 0 0.77 0.02 0 0.775 0.02 0 0.78 0.02 0 0.785 0.02 0 0.79 0.02 0 0.795 0.02 0 0.8 0.02 0 0.805 0.02 0 0.81 0.02 0 0.815 0.02 0 0.82 0.02 0 0.825 0.02 0 0.83 0.02 0 0.835 0.02 0 0.84 0.02 0 0.845 0.02 0 0.85 0.02 0 0.855 0.02 0 0.86 0.02 0 0.865 0.02 0 0.87 0.02 0 0.875 0.02 0 0.88 0.02 0 0.885 0.02 0 0.89 0.02 0 0.895 0.02 0 0.9 0.02 0 0.905 0.02 0 0.91 0.02 0 0.915 0.02 0 0.92 0.02 0 0.925 0.02 0 0.93 0.02 0 0.935 0.02 0 0.94 0.02 0 0.945 0.02 0 0.95 0.02 0 0.955 0.02 0 0.96 0.02 0 0.965 0.02 0 0.97 0.02 0 0.975 0.02 0 0.98 0.02 0 0.985 0.02 0 0.99 0.02 0 0.995 0.02 0 1 0.02 0 0 0.04 0 0.005 0.04 0 0.01 0.04 0 0.015 0.04 0 0.02 0.04 0 0.025 0.04 0 0.03 0.04 0 0.035 0.04 0 0.04 0.04 0 0.045 0.04 0 0.05 0.04 0 0.055 0.04 0 0.06 0.04 0 0.065 0.04 0 0.07 0.04 0 0.075 0.04 0 0.08 0.04 0 0.085 0.04 0 0.09 0.04 0 0.095 0.04 0 0.1 0.04 0 0.105 0.04 0 0.11 0.04 0 0.115 0.04 0 0.12 0.04 0 0.125 0.04 0 0.13 0.04 0 0.135 0.04 0 0.14 0.04 0 0.145 0.04 0 0.15 0.04 0 0.155 0.04 0 0.16 0.04 0 0.165 0.04 0 0.17 0.04 0 0.175 0.04 0 0.18 0.04 0 0.185 0.04 0 0.19 0.04 0 0.195 0.04 0 0.2 0.04 0 0.205 0.04 0 0.21 0.04 0 0.215 0.04 0 0.22 0.04 0 0.225 0.04 0 0.23 0.04 0 0.235 0.04 0 0.24 0.04 0 0.245 0.04 0 0.25 0.04 0 0.255 0.04 0 0.26 0.04 0 0.265 0.04 0 0.27 0.04 0 0.275 0.04 0 0.28 0.04 0 0.285 0.04 0 0.29 0.04 0 0.295 0.04 0 0.3 0.04 0 0.305 0.04 0 0.31 0.04 0 0.315 0.04 0 0.32 0.04 0 0.325 0.04 0 0.33 0.04 0 0.335 0.04 0 0.34 0.04 0 0.345 0.04 0 0.35 0.04 0 0.355 0.04 0 0.36 0.04 0 0.365 0.04 0 0.37 0.04 0 0.375 0.04 0 0.38 0.04 0 0.385 0.04 0 0.39 0.04 0 0.395 0.04 0 0.4 0.04 0 0.405 0.04 0 0.41 0.04 0 0.415 0.04 0 0.42 0.04 0 0.425 0.04 0 0.43 0.04 0 0.435 0.04 0 0.44 0.04 0 0.445 0.04 0 0.45 0.04 0 0.455 0.04 0 0.46 0.04 0 0.465004 0.04 0 0.470034 0.04 0 0.475186 0.04 0 0.48073 0.04 0 0.487136 0.04 0 0.495107 0.04 0 0.505778 0.04 0 0.5192 0.04 0 0.521531 0.04 0 0.523821 0.04 0 0.526161 0.04 0 0.528624 0.04 0 0.531297 0.04 0 0.534272 0.04 0 0.53763 0.04 0 0.541422 0.04 0 0.545646 0.04 0 0.550236 0.04 0 0.555068 0.04 0 0.560016 0.04 0 0.565003 0.04 0 0.570001 0.04 0 0.575 0.04 0 0.58 0.04 0 0.585 0.04 0 0.59 0.04 0 0.595 0.04 0 0.6 0.04 0 0.605 0.04 0 0.61 0.04 0 0.615 0.04 0 0.62 0.04 0 0.625 0.04 0 0.63 0.04 0 0.635 0.04 0 0.64 0.04 0 0.645 0.04 0 0.65 0.04 0 0.655 0.04 0 0.66 0.04 0 0.665 0.04 0 0.67 0.04 0 0.675 0.04 0 0.68 0.04 0 0.685 0.04 0 0.69 0.04 0 0.695 0.04 0 0.7 0.04 0 0.705 0.04 0 0.71 0.04 0 0.715 0.04 0 0.72 0.04 0 0.725 0.04 0 0.73 0.04 0 0.735 0.04 0 0.74 0.04 0 0.745 0.04 0 0.75 0.04 0 0.755 0.04 0 0.76 0.04 0 0.765 0.04 0 0.77 0.04 0 0.775 0.04 0 0.78 0.04 0 0.785 0.04 0 0.79 0.04 0 0.795 0.04 0 0.8 0.04 0 0.805 0.04 0 0.81 0.04 0 0.815 0.04 0 0.82 0.04 0 0.825 0.04 0 0.83 0.04 0 0.835 0.04 0 0.84 0.04 0 0.845 0.04 0 0.85 0.04 0 0.855 0.04 0 0.86 0.04 0 0.865 0.04 0 0.87 0.04 0 0.875 0.04 0 0.88 0.04 0 0.885 0.04 0 0.89 0.04 0 0.895 0.04 0 0.9 0.04 0 0.905 0.04 0 0.91 0.04 0 0.915 0.04 0 0.92 0.04 0 0.925 0.04 0 0.93 0.04 0 0.935 0.04 0 0.94 0.04 0 0.945 0.04 0 0.95 0.04 0 0.955 0.04 0 0.96 0.04 0 0.965 0.04 0 0.97 0.04 0 0.975 0.04 0 0.98 0.04 0 0.985 0.04 0 0.99 0.04 0 0.995 0.04 0 1 0.04 0 0 0.06 0 0.005 0.06 0 0.01 0.06 0 0.015 0.06 0 0.02 0.06 0 0.025 0.06 0 0.03 0.06 0 0.035 0.06 0 0.04 0.06 0 0.045 0.06 0 0.05 0.06 0 0.055 0.06 0 0.06 0.06 0 0.065 0.06 0 0.07 0.06 0 0.075 0.06 0 0.08 0.06 0 0.085 0.06 0 0.09 0.06 0 0.095 0.06 0 0.1 0.06 0 0.105 0.06 0 0.11 0.06 0 0.115 0.06 0 0.12 0.06 0 0.125 0.06 0 0.13 0.06 0 0.135 0.06 0 0.14 0.06 0 0.145 0.06 0 0.15 0.06 0 0.155 0.06 0 0.16 0.06 0 0.165 0.06 0 0.17 0.06 0 0.175 0.06 0 0.18 0.06 0 0.185 0.06 0 0.19 0.06 0 0.195 0.06 0 0.2 0.06 0 0.205 0.06 0 0.21 0.06 0 0.215 0.06 0 0.22 0.06 0 0.225 0.06 0 0.23 0.06 0 0.235 0.06 0 0.24 0.06 0 0.245 0.06 0 0.25 0.06 0 0.255 0.06 0 0.26 0.06 0 0.265 0.06 0 0.27 0.06 0 0.275 0.06 0 0.28 0.06 0 0.285 0.06 0 0.29 0.06 0 0.295 0.06 0 0.3 0.06 0 0.305 0.06 0 0.31 0.06 0 0.315 0.06 0 0.32 0.06 0 0.325 0.06 0 0.33 0.06 0 0.335 0.06 0 0.34 0.06 0 0.345 0.06 0 0.35 0.06 0 0.355 0.06 0 0.36 0.06 0 0.365 0.06 0 0.37 0.06 0 0.375 0.06 0 0.38 0.06 0 0.385 0.06 0 0.39 0.06 0 0.395 0.06 0 0.4 0.06 0 0.405 0.06 0 0.41 0.06 0 0.415 0.06 0 0.42 0.06 0 0.425 0.06 0 0.43 0.06 0 0.435 0.06 0 0.44 0.06 0 0.445 0.06 0 0.45 0.06 0 0.455 0.06 0 0.46 0.06 0 0.465004 0.06 0 0.470034 0.06 0 0.475186 0.06 0 0.48073 0.06 0 0.487136 0.06 0 0.495107 0.06 0 0.505778 0.06 0 0.5192 0.06 0 0.521531 0.06 0 0.523821 0.06 0 0.526161 0.06 0 0.528624 0.06 0 0.531297 0.06 0 0.534272 0.06 0 0.53763 0.06 0 0.541422 0.06 0 0.545646 0.06 0 0.550236 0.06 0 0.555068 0.06 0 0.560016 0.06 0 0.565003 0.06 0 0.570001 0.06 0 0.575 0.06 0 0.58 0.06 0 0.585 0.06 0 0.59 0.06 0 0.595 0.06 0 0.6 0.06 0 0.605 0.06 0 0.61 0.06 0 0.615 0.06 0 0.62 0.06 0 0.625 0.06 0 0.63 0.06 0 0.635 0.06 0 0.64 0.06 0 0.645 0.06 0 0.65 0.06 0 0.655 0.06 0 0.66 0.06 0 0.665 0.06 0 0.67 0.06 0 0.675 0.06 0 0.68 0.06 0 0.685 0.06 0 0.69 0.06 0 0.695 0.06 0 0.7 0.06 0 0.705 0.06 0 0.71 0.06 0 0.715 0.06 0 0.72 0.06 0 0.725 0.06 0 0.73 0.06 0 0.735 0.06 0 0.74 0.06 0 0.745 0.06 0 0.75 0.06 0 0.755 0.06 0 0.76 0.06 0 0.765 0.06 0 0.77 0.06 0 0.775 0.06 0 0.78 0.06 0 0.785 0.06 0 0.79 0.06 0 0.795 0.06 0 0.8 0.06 0 0.805 0.06 0 0.81 0.06 0 0.815 0.06 0 0.82 0.06 0 0.825 0.06 0 0.83 0.06 0 0.835 0.06 0 0.84 0.06 0 0.845 0.06 0 0.85 0.06 0 0.855 0.06 0 0.86 0.06 0 0.865 0.06 0 0.87 0.06 0 0.875 0.06 0 0.88 0.06 0 0.885 0.06 0 0.89 0.06 0 0.895 0.06 0 0.9 0.06 0 0.905 0.06 0 0.91 0.06 0 0.915 0.06 0 0.92 0.06 0 0.925 0.06 0 0.93 0.06 0 0.935 0.06 0 0.94 0.06 0 0.945 0.06 0 0.95 0.06 0 0.955 0.06 0 0.96 0.06 0 0.965 0.06 0 0.97 0.06 0 0.975 0.06 0 0.98 0.06 0 0.985 0.06 0 0.99 0.06 0 0.995 0.06 0 1 0.06 0 0 0.08 0 0.005 0.08 0 0.01 0.08 0 0.015 0.08 0 0.02 0.08 0 0.025 0.08 0 0.03 0.08 0 0.035 0.08 0 0.04 0.08 0 0.045 0.08 0 0.
[...]
			<PointData Scalars="VitesseX">
				<DataArray Name="VitesseX" type="Float32" format="ascii">
 0 -7.03327e-16 9.0681e-17 -1.392e-15 1.3393e-15 2.51417e-15 -2.97975e-15 -3.79236e-15 2.56019e-15 3.44436e-15 1.02872e-15 -5.08788e-15 -1.90245e-15 1.18813e-14 -1.51921e-14 9.56067e-15 -1.53456e-16 -1.23513e-14 1.03774e-14 2.86779e-15 -5.51304e-15 -1.34146e-15 2.13199e-15 3.59947e-15 -1.01495e-14 2.22219e-14 -2.32674e-14 5.01349e-15 1.51044e-16 -3.28109e-15 5.81993e-15 8.16453e-15 7.09558e-15 -2.16724e-14 -4.8331e-15 1.79685e-14 -2.54407e-14 1.56409e-14 8.58349e-15 -1.3552e-14 1.79718e-14 -6.46197e-15 -1.1348e-14 2.51452e-14 -2.37664e-14 8.92303e-15 -2.48686e-14 2.4523e-14 -2.07227e-14 1.91323e-14 1.53854e-14 0 -3.73813e-14 2.9589e-14 9.27217e-15 -5.95263e-15 -4.93331e-14 5.34512e-14 -4.79526e-14 3.52753e-14 1.50823e-14 -4.56246e-14 3.86379e-14 4.93634e-15 0 0 -4.85296e-14 4.85296e-14 5.05351e-15 -2.59334e-14 4.35616e-14 -5.0549e-14 2.39807e-14 -3.39492e-14 6.88677e-14 -2.61762e-14 8.38306e-15 -1.38845e-14 3.47111e-15 -2.92616e-14 -2.51662e-15 3.01386e-14 -2.06069e-14 6.35085e-15 3.49569e-14 5.7614e-14 2.25675e-12 7.96397e-11 2.3882e-09 5.93968e-08 1.20504e-06 1.94916e-05 0.000243806 0.00226105 0.014709 0.0637041 0.183816 0.385162 0.659839 0.974084 0.958174 0.98436 0.982864 0.960112 0.904661 0.816473 0.690952 0.537681 0.371047 0.216121 0.0992242 0.0340565 0.00908449 0.00206672 0.000424693 8.0511e-05 1.41835e-05 2.3296e-06 3.57469e-07 5.13234e-08 6.90333e-09 8.7075e-10 1.03116e-10 1.14909e-11 1.20676e-12 1.05664e-13 5.76189e-14 -8.11925e-14 -1.91035e-15 5.45621e-14 -7.93566e-14 8.47466e-14 -3.69088e-14 3.19737e-14 1.34823e-14 -7.09169e-14 9.79423e-14 -8.20159e-14 3.34231e-14 -3.87146e-14 -3.67464e-14 8.28307e-14 -7.61676e-14 1.17259e-13 -2.07312e-14 -2.10145e-14 -4.18182e-14 4.55089e-14 -1.93763e-14 -9.81049e-15 3.63075e-14 -1.03712e-15 1.2741e-14 -6.38172e-14 3.32731e-14 -1.71787e-14 2.82902e-15 1.08308e-13 -3.829e-14 -1.00388e-14 -1.30334e-15 1.24123e-14 -6.42143e-14 7.80897e-14 -1.08584e-13 4.99789e-14 -2.56526e-14 3.54907e-14 -4.78932e-14 -1.51966e-15 -8.30019e-15 1.42648e-14 3.7491e-14 -5.76014e-14 4.24486e-14 -1.8451e-14 -5.97601e-15 1.9003e-14 3.55262e-14 -5.83867e-15 -6.63912e-14 1.5892e-14 -4.46427e-14 9.00618e-14 1.74591e-14 -9.70072e-14 7.47692e-14 -7.46505e-14 5.75854e-14 -3.24242e-14 1.07622e-14 -2.52223e-14 -1.6239e-14 7.3883e-14 -6.8344e-14 -1.04816e-14 2.60194e-14 4.36781e-14 -6.95245e-14 0 0 0 -1.97085e-16 1.21919e-16 1.24196e-15 -2.73231e-15 4.52579e-16 -2.07415e-15 5.07011e-15 -4.67873e-15 5.31702e-15 -1.36817e-15 -3.53683e-15 6.13691e-15 -1.29621e-14 1.20666e-14 -2.70445e-16 -1.00574e-14 8.26862e-15 -8.00033e-15 1.01593e-14 5.08438e-15 -1.14171e-14 -2.35845e-15 4.37132e-15 -2.07054e-15 1.36243e-14 -2.52264e-14 5.23404e-15 1.3899e-14 1.26962e-15 -8.47308e-15 2.42181e-14 -2.18922e-14 -9.42934e-15 1.39151e-14 -4.55051e-15 -7.18233e-15 2.72827e-15 1.21077e-14 -1.65117e-14 1.87122e-14 -1.87023e-15 -2.64059e-14 2.36473e-14 -1.28427e-14 1.4141e-14 -2.38356e-14 1.37582e-14 -1.14698e-14 2.23859e-14 7.69271e-15 -7.18851e-15 -1.42068e-14 2.50991e-14 -2.32136e-14 1.8943e-14 -3.06706e-14 -2.35137e-15 1.84945e-14 1.91363e-14 -8.60273e-15 -3.22119e-14 4.1477e-14 -6.01405e-15 4.67399e-15 -3.36433e-15 -4.05739e-14 3.26182e-14 2.13479e-14 -4.73317e-15 -1.29049e-14 2.23752e-14 -1.48332e-14 -7.68684e-16 -2.21568e-15 2.66541e-14 -3.44556e-15 -1.44762e-14 2.04288e-14 -3.49548e-14 -5.90862e-15 1.23137e-14 -1.60383e-14 2.31887e-14 5.24307e-14 4.19984e-14 2.23526e-12 7.9665e-11 2.38815e-09 5.93968e-08 1.20504e-06 1.94916e-05 0.000243806 0.00226105 0.014709 0.0637041 0.183816 0.385162 0.659839 0.974084 0.958174 0.98436 0.982864 0.960112 0.904661 0.816473 0.690952 0.537681 0.371047 0.216121 0.0992242 0.0340565 0.00908449 0.00206672 0.000424693 8.0511e-05 1.41835e-05 2.3296e-06 3.57469e-07 5.13234e-08 6.90327e-09 8.70797e-10 1.03106e-10 1.14925e-11 1.1948e-12 1.32937e-13 2.65884e-14 -3.10429e-14 -4.57916e-14 7.99602e-14 -9.06318e-14 7.42646e-14 6.17496e-15 -3.17899e-14 5.12262e-14 -7.25835e-14 8.72617e-14 -5.40406e-14 -6.58879e-15 8.88938e-15 -4.95088e-14 4.39385e-14 5.98468e-14 -2.81471e-14 -3.77962e-14 9.77094e-14 -1.09299e-13 7.7543e-14 -4.35288e-14 -5.55687e-15 3.90056e-14 -5.37398e-14 6.41067e-14 -6.54276e-14 3.96393e-14 -4.86594e-14 1.0857e-13 2.57944e-14 -4.33005e-14 6.79166e-14 -6.8221e-14 -2.50322e-14 1.90503e-14 -1.50125e-14 -1.20133e-14 -2.76013e-14 3.26227e-14 -2.00867e-14 -6.8336e-14 4.89022e-14 -1.25035e-14 -1.46155e-14 8.05678e-14 -1.44301e-13 8.59194e-14 -3.10927e-14 1.89613e-14 4.60258e-14 -5.68704e-14 1.29819e-14 7.62152e-15 -3.73507e-14 2.33038e-14 -4.56344e-14 6.83245e-14 -5.05669e-14 4.58539e-14 -5.77524e-14 3.45903e-14 -3.15889e-14 2.43942e-14 -6.52923e-14 8.93804e-14 -6.054e-14 4.97801e-14 -3.70401e-14 -3.05227e-14 5.57348e-14 -3.59457e-14 -1.49089e-14 0 0 2.43091e-16 -1.19602e-15 2.55226e-15 -1.54218e-16 -2.90565e-15 -2.8246e-15 4.07392e-15 -5.44848e-16 1.5509e-15 2.67281e-15 -7.24209e-15 5.69745e-15 -1.1973e-14 1.11238e-14 -3.55107e-15 2.7964e-15 1.2164e-14 -1.08116e-14 -4.14883e-15 4.80157e-15 -3.15383e-15 4.11852e-15 -1.76273e-15 -3.15702e-15 1.82917e-15 6.63963e-15 -1.73658e-14 1.31488e-14 1.73447e-14 -2.70861e-14 2.67027e-14 -1.12972e-14 -1.81903e-14 1.98885e-14 -1.45393e-14 1.10019e-14 -1.91068e-14 1.54231e-14 2.40303e-15 -9.29611e-15 2.46672e-14 -3.0331e-14 2.10602e-14 -2.59256e-15 -1.29175e-14 1.53219e-14 3.01703e-15 -2.0968e-14 9.63953e-15 0 6.20389e-16 -1.31526e-14 2.93792e-14 -9.69701e-15 -1.26788e-14 1.67892e-14 -1.6301e-14 -9.21727e-15 4.86143e-14 -5.60874e-15 -3.27325e-15 -1.72967e-15 1.17588e-14 -2.24378e-14 -2.53651e-15 -3.9621e-14 4.08036e-14 2.91172e-14 -9.01182e-15 -2.44832e-14 6.9752e-14 -3.20616e-14 5.71718e-15 -5.05294e-14 4.5664e-14 1.53886e-14 -9.63973e-15 6.55836e-14 -7.25644e-14 -4.79675e-15 -1.02616e-14 -9.89679e-17 5.81317e-15 5.21416e-14 4.27159e-14 2.18938e-12 7.97391e-11 2.38808e-09 5.93969e-08 1.20504e-06 1.94916e-05 0.000243806 0.00226105 0.014709 0.0637041 0.183816 0.385162 0.659839 0.974084 0.958174 0.98436 0.982864 0.960112 0.904661 0.816473 0.690952 0.537681 0.371047 0.216121 0.0992242 0.0340565 0.00908449 0.00206672 0.000424693 8.0511e-05 1.41835e-05 2.3296e-06 3.57469e-07 5.13235e-08 6.90324e-09 8.70863e-10 1.03117e-10 1.13903e-11 1.30729e-12 9.91287e-14 3.00883e-14 -4.0768e-14 5.04874e-14 -8.23984e-14 4.13117e-14 5.50263e-14 -8.79546e-14 -1.08766e-14 3.33343e-14 -2.69706e-14 6.318e-14 -3.3669e-14 -4.84079e-14 5.01543e-14 -4.37127e-14 4.75862e-14 4.54319e-14 -2.60041e-14 -4.83834e-14 1.26605e-13 -7.26416e-14 7.96694e-16 -2.96489e-14 6.31641e-14 4.70755e-14 -5.63171e-14 2.49053e-15 -1.39226e-14 -7.12651e-14 3.10253e-14 1.14013e-13 -1.92768e-14 7.98031e-16 9.16625e-14 -1.38756e-13 -1.84998e-14 5.7216e-14 1.53914e-14 -4.95847e-14 -6.83845e-14 8.93855e-14 -3.01979e-14 -5.35509e-14 7.12812e-15 4.27363e-14 -8.87986e-14 1.03809e-13 -1.62469e-13 9.93759e-14 -5.20793e-15 8.22263e-14 -3.89252e-14 -8.92851e-14 1.11287e-14 7.92803e-14 -4.04858e-14 -6.38187e-14 -2.35283e-14 4.05925e-14 4.32999e-14 -2.43089e-14 -1.82812e-14 2.281e-14 -4.05431e-14 1.85525e-14 -1.0675e-13 1.19015e-13 -9.67635e-14 1.15832e-13 -8.15469e-14 3.73356e-14 -9.87921e-15 -2.23267e-14 4.02776e-14 0 0 -8.42632e-16 1.25391e-15 -3.24907e-17 1.07322e-15 -1.00568e-15 -2.24664e-15 1.50824e-15 9.39625e-16 -7.37326e-15 4.16818e-15 -2.67115e-15 1.17573e-15 1.31407e-15 2.486e-15 1.49971e-15 4.41223e-15 -1.2347e-14 9.21505e-15 -1.33793e-15 -1.36408e-14 5.078e-15 2.19472e-14 -1.34687e-14 -1.0352e-14 1.57977e-14 1.25406e-14 -1.91093e-14 5.64744e-15 -1.73215e-14 1.10726e-14 9.92915e-15 1.46442e-14 -2.41754e-14 5.22056e-15 1.91795e-15 -2.04823e-14 2.02002e-14 -2.04587e-14 1.09691e-14 -8.04272e-15 1.76765e-14 1.24913e-14 -1.14947e-14 1.38754e-14 -2.31923e-14 1.9194e-14 1.75561e-16 -2.48926e-14 1.96224e-14 2.6591e-15 -1.86107e-14 4.26237e-14 -5.29291e-14 4.88642e-14 3.31391e-17 -3.49295e-14 3.02217e-14 -3.4221e-14 2.84135e-14 -8.58117e-15 5.15947e-14 -3.97882e-14 4.16742e-14 -3.02568e-14 -2.54191e-14 -4.47917e-14 4.02578e-14 2.96489e-14 -4.96715e-16 -8.96897e-15 2.52799e-14 -3.0106e-14 4.07119e-14 -3.67734e-14 2.62634e-14 3.30577e-14 9.35104e-15 5.47339e-14 -1.04774e-13 4.07002e-14 5.01016e-15 -3.30081e-14 -5.3182e-14 6.58123e-14 9.06838e-14 2.22107e-12 7.9705e-11 2.38809e-09 5.93968e-08 1.20504e-06 1.94916e-05 0.000243806 0.00226105 0.014709 0.0637041 0.183816 0.385162 0.659839 0.974084 0.958174 0.98436 0.982864 0.960112 0.904661 0.816473 0.690952 0.537681 0.371047 0.216121 0.0992242 0.0340565 0.00908449 0.00206672 0.000424693 8.0511e-05 1.41835e-05 2.3296e-06 3.57469e-07 5.13234e-08 6.9033e-09 8.70829e-10 1.03179e-10 1.14855e-11 1.19089e-12 5.71301e-14 -1.19661e-14 -2.81637e-14 1.17852e-13 -1.23536e-13 1.0602e-13 -4.94144e-15 -9.67178e-14 -1.66964e-14 -4.17824e-14 1.0986e-13 -3.02967e-14 1.6823e-14 -5.82706e-14 4.17141e-14 -2.75123e-14 6.1848e-14 -9.45025e-14 1.3345e-13 3.78328e-14 -1.01608e-14 4.52564e-15 -1.10594e-13 8.16653e-14 5.22283e-14 -4.02995e-15 4.10043e-14 -1.47469e-14 -9.1708e-14 -9.36581e-14 6.57902e-14 5.93074e-14 7.7795e-14 6.35587e-14 1.43796e-14 -1.31851e-13 9.24904e-15 3.66162e-14 -3.57909e-15 -2.67418e-14 -9.41464e-14 -5.33183e-14 1.01512e-13 2.25891e-15 -1.1185e-13 4.93937e-14 -3.95623e-14 2.9446e-14 -3.50647e-14 1.3545e-15 1.83076e-14 1.15439e-13 -1.48972e-13 3.18734e-15 -3.52793e-14 1.43586e-13 -5.01532e-14 -3.69431e-14 9.92899e-14 2.38392e-14 -9.9258e-14 4.63234e-14 1.05227e-14 4.76696e-14 -6.02539e-14 -8.85006e-14 -5.91756e-14 -2.12087e-14 -2.87235e-14 1.13597e-13 2.93834e-14 -3.93786e-14 -3.10846e-14 -4.87586e-14 4.41343e-14 0 0 -8.26759e-16 1.99899e-15 2.59229e-16 -3.54476e-15 -6.4746e-16 4.85625e-15 6.52399e-15 3.29575e-15 -9.76482e-15 -3.7267e-15 1.02327e-14 -6.15583e-15 -5.23581e-15 1.09412e-14 1.77619e-15 -3.83419e-15 -1.20134e-14 9.49276e-15 2.13969e-15 9.7485e-15 -3.52285e-15 -6.0494e-15 6.47468e-15 -4.28173e-15 8.44998e-15 -1.41032e-14 -1.85643e-15 4.21882e-15 -2.18243e-14 2.0978e-14 1.28294e-14 -5.87306e-15 6.48594e-15 -9.95158e-15 7.17835e-15 -8.15987e-15 1.05416e-14 -2.32746e-14 -5.60361e-15 2.37725e-14 -1.22661e-14 1.01365e-14 -9.91736e-15 2.35984e-14 1.01946e-14 -1.62935e-14 -2.05977e-14 4.07428e-14 1.16717e-14 -3.05137e-14 -1.02092e-14 4.97669e-14 -8.1845e-14 4.15623e-14 1.20004e-14 -3.55539e-14 1.04306e-14 1.88134e-14 -6.83322e-15 -3.35784e-14 4.51541e-14 -1.37401e-15 2.70135e-14 -1.36017e-14 -1.5369e-14 -8.6009e-15 -2.28567e-14 6.92746e-14 -8.56904e-15 -1.68224e-14 6.57778e-15 -8.16823e-15 3.46794e-14 -4.28656e-14 2.93212e-14 2.37369e-14 2.15896e-14 -1.38782e-14 -2.74226e-14 2.33469e-14 7.87773e-14 -6.29052e-14 -1.31158e-14 -1.07997e-14 8.49085e-14 2.3168e-12 7.96444e-11 2.38808e-09 5.93967e-08 1.20504e-06 1.94916e-05 0.000243806 0.00226105 0.014709 0.0637041 0.183816 0.385162 0.659839 0.974084 0.958174 0.98436 0.982864 0.960112 0.904661 0.816473 0.690952 0.537681 0.371047 0.216121 0.0992242 0.0340565 0.00908449 0.00206672 0.000424693 8.0511e-05 1.41835e-05 2.3296e-06 3.57469e-07 5.13233e-08 6.90332e-09 8.7077e-10 1.03167e-10 1.15781e-11 1.12833e-12 2.3391e-14 -5.34669e-14 6.65761e-14 -4.90774e-14 7.11024e-14 7.14833e-14 -4.84911e-14 -5.12543e-14 -7.73146e-15 3.38157e-15 3.34889e-14 -4.376e-14 1.04725e-13 -8.0344e-14 1.22309e-13 -1.34358e-13 3.91509e-14 -1.09166e-13 9.37417e-14 6.26231e-14 1.31858e-13 -5.87228e-15 -1.33759e-13 3.38892e-14 -5.91564e-14 -3.53542e-14 1.14837e-13 7.75338e-15 -1.16942e-13 1.81158e-14 -2.20224e-14 4.57898e-14 1.12149e-13 4.74722e-14 -6.92237e-14 -1.14542e-14 -1.69938e-14 5.53511e-14 -4.65885e-14 -6.94689e-14 -4.50828e-14 -2.43977e-16 7.97913e-14 3.59749e-14 -9.06691e-14 -5.04583e-14 -3.92046e-14 -1.77362e-14 4.16254e-14 -5.05164e-15 -4.76035e-14 9.51939e-15 4.09711e-14 1.37263e-14 -1.32548e-13 1.85517e-13 -3.34107e-14 1.03769e-13 1.27576e-13 -7.06808e-14 -1.3187e-13 6.67175e-14 2.59344e-15 -1.08886e-14 -4.91896e-14 -9.73819e-14 1.93179e-14 -2.15853e-14 -4.91945e-14 6.78681e-14 3.92222e-14 2.5915e-14 -1.05907e-13 -1.4145e-14 2.60015e-15 0 0 2.08772e-16 -1.05503e-15 1.81204e-15 -2.74046e-15 -3.48585e-15 9.72514e-15 4.24676e-15 1.55402e-14 -8.87101e-15 -6.67908e-15 1.33093e-14 -1.74445e-14 7.59742e-16 -1.67376e-16 3.55237e-15 9.06133e-15 -3.89343e-15 5.31031e-15 -1.87933e-14 4.06999e-14 -2.01657e-15 -4.09072e-14 3.1218e-14 -1.81936e-16 -1.60637e-14 -1.28229e-14 -5.68052e-15 -4.20644e-15 1.98634e-14 -1.15955e-14 1.89342e-14 -1.2749e-14 2.21283e-14 -2.32306e-14 8.51165e-15 3.55725e-14 -4.73463e-14 9.58247e-15 -8.8678e-15 2.55855e-14 -1.32724e-14 -2.39077e-14 2.31257e-14 1.61799e-14 2.15799e-14 -1.75286e-14 -3.8506e-14 9.15517e-14 -2.2262e-14 -6.63455e-14 3.24209e-14 -2.09863e-14 -1.96823e-14 2.17015e-14 -4.52618e-14 4.43376e-14 -1.40304e-14 2.6927e-15 2.37381e-14 -2.89243e-14 -6.28524e-16 2.9053e-14 1.11606e-14 -2.09133e-14 2.17559e-14 2.57578e-14 -6.13286e-14 9.98435e-14 -5.06353e-14 4.69816e-15 6.80046e-15 3.33993e-14 -3.30426e-14 -3.99441e-14 1.79592e-14 2.74098e-14 2.02657e-14 -4.34434e-14 5.02211e-14 -3.49995e-14 1.32522e-13 -4.85223e-14 5.17321e-14 -1.18845e-13 4.74983e-14 2.35643e-12 7.96669e-11 2.38803e-09 5.93968e-08 1.20504e-06 1.94916e-05 0.000243806 0.00226105 0.014709 0.0637041 0.183816 0.385162 0.659839 0.974084 0.958174 0.98436 0.982864 0.960112 0.904661 0.816473 0.690952 0.537681 0.371047 0.216121 0.0992242 0.0340565 0.00908449 0.00206672 0.000424693 8.0511e-05 1.41835e-05 2.3296e-06 3.57469e-07 5.13234e-08 6.90333e-09 8.70764e-10 1.03117e-10 1.14718e-11 1.30669e-12 -2.93386e-14 -1.82115e-14 8.90422e-14 -1.4332e-13 1.18975e-13 1.15345e-13 -4.09903e-14 -1.34028e-13 9.18916e-14 6.8045e-14 -1.32197e-13 2.30341e-14 1.34675e-13 -9.44733e-14 2.04897e-13 -2.38734e-13 4.46337e-14 -1.34389e-13 4.20979e-14 7.6823e-15 3.20725e-13 1.06567e-14 -1.53971e-13 -8.68896e-14 -9.49927e-14 -1.00985e-14 1.4137e-13 -6.556e-14 -1.13311e-14 3.4954e-14 -3.34776e-14 -1.32378e-14 8.69924e-14 1.75709e-14 -1.29846e-13 9.83051e-14 -2.7059e-14 4.98968e-14 5.31264e-14 -2.69227e-13 6.64392e-14 1.94023e-13 -2.80907e-14 4.92407e-14 -4.27848e-14 -9.76939e-14 -1.33387e-13 -1.04552e-14 5.929e-14 5.65062e-14 -9.83272e-14 -9.1125e-14 2.28925e-13 -8.17167e-15 -2.03879e-13 1.60836e-13 4.31481e-14 6.23746e-14 1.90514e-13 -2.27008e-13 2.56073e-14 -2.48005e-14 -1.17148e-14 -8.33045e-14 -2.81829e-14 -1.8746e-14 4.87457e-14 4.2287e-14 -3.97516e-14 -2.80464e-14 -8.01212e-14 2.92296e-13 -2.37133e-13 2.67635e-14 2.71521e-14 0
				</DataArray>
				<DataArray Name="VitesseY" type="Float32" format="ascii">