<?xml version="1.0"?>
<VTKFile type="PolyData">
	<PolyData>
		<Piece NumberOfPoints="1206" NumberOfPolys="1000">
			<Points>
				<DataArray type="Float32" NumberOfComponents="3" format="ascii">
 0 0 0 0.005 0 0 0.01 0 0 0.015 0 0 0.02 0 0 0.025 0 0 0.03 0 0 0.035 0 0 0.04 0 0 0.045 0 0 0.05 0 0 0.055 0 0 0.06 0 0 0.065 0 0 0.07 0 0 0.075 0 0 0.08 0 0 0.085 0 0 0.09 0 0 0.095 0 0 0.1 0 0 0.105 0 0 0.11 0 0 0.115 0 0 0.12 0 0 0.125 0 0 0.13 0 0 0.135 0 0 0.14 0 0 0.145 0 0 0.15 0 0 0.155 0 0 0.16 0 0 0.165 0 0 0.17 0 0 0.175 0 0 0.18 0 0 0.185 0 0 0.19 0 0 0.195 0 0 0.2 0 0 0.205 0 0 0.21 0 0 0.215 0 0 0.22 0 0 0.225 0 0 0.23 0 0 0.235 0 0 0.24 0 0 0.245 0 0 0.25 0 0 0.255 0 0 0.26 0 0 0.265 0 0 0.27 0 0 0.275 0 0 0.28 0 0 0.285 0 0 0.29 0 0 0.295 0 0 0.3 0 0 0.305 0 0 0.31 0 0 0.315 0 0 0.32 0 0 0.325 0 0 0.33 0 0 0.335 0 0 0.34 0 0 0.345 0 0 0.35 0 0 0.355 0 0 0.36 0 0 0.365 0 0 0.37 0 0 0.375 0 0 0.380001 0 0 0.385005 0 0 0.390019 0 0 0.395058 0 0 0.400153 0 0 0.405349 0 0 0.410697 0 0 0.416245 0 0 0.422036 0 0 0.428109 0 0 0.434505 0 0 0.441268 0 0 0.448452 0 0 0.45612 0 0 0.46435 0 0 0.473236 0 0 0.482891 0 0 0.493444 0 0 0.50499 0 0 0.517386 0 0 0.529869 0 0 0.542087 0 0 0.554091 0 0 0.565982 0 0 0.577829 0 0 0.580113 0 0 0.582398 0 0 0.584682 0 0 0.586967 0 0 0.589251 0 0 0.591533 0 0 0.593812 0 0 0.59609 0 0 0.598373 0 0 0.600656 0 0 0.602939 0 0 0.605222 0 0 0.607506 0 0 0.609791 0 0 0.612076 0 0 0.614363 0 0 0.61665 0 0 0.618938 0 0 0.621226 0 0 0.623511 0 0 0.625802 0 0 0.6281 0 0 0.630453 0 0 0.632904 0 0 0.635455 0 0 0.638174 0 0 0.641095 0 0 0.644289 0 0 0.647806 0 0 0.651681 0 0 0.655906 0 0 0.660436 0 0 0.665188 0 0 0.670074 0 0 0.675028 0 0 0.68001 0 0 0.685004 0 0 0.690001 0 0 0.695 0 0 0.7 0 0 0.705 0 0 0.71 0 0 0.715 0 0 0.72 0 0 0.725 0 0 0.73 0 0 0.735 0 0 0.74 0 0 0.745 0 0 0.75 0 0 0.755 0 0 0.76 0 0 0.765 0 0 0.77 0 0 0.775 0 0 0.78 0 0 0.785 0 0 0.79 0 0 0.795 0 0 0.8 0 0 0.805 0 0 0.81 0 0 0.815 0 0 0.82 0 0 0.825 0 0 0.83 0 0 0.835 0 0 0.84 0 0 0.845 0 0 0.85 0 0 0.855 0 0 0.86 0 0 0.865 0 0 0.87 0 0 0.875 0 0 0.88 0 0 0.885 0 0 0.89 0 0 0.895 0 0 0.9 0 0 0.905 0 0 0.91 0 0 0.915 0 0 0.92 0 0 0.925 0 0 0.93 0 0 0.935 0 0 0.94 0 0 0.945 0 0 0.95 0 0 0.955 0 0 0.96 0 0 0.965 0 0 0.97 0 0 0.975 0 0 0.98 0 0 0.985 0 0 0.99 0 0 0.995 0 0 1 0 0 0 0.02 0 0.005 0.02 0 0.01 0.02 0 0.015 0.02 0 0.02 0.02 0 0.025 0.02 0 0.03 0.02 0 0.035 0.02 0 0.04 0.02 0 0.045 0.02 0 0.05 0.02 0 0.055 0.02 0 0.06 0.02 0 0.065 0.02 0 0.07 0.02 0 0.075 0.02 0 0.08 0.02 0 0.085 0.02 0 0.09 0.02 0 0.095 0.02 0 0.1 0.02 0 0.105 0.02 0 0.11 0.02 0 0.115 0.02 0 0.12 0.02 0 0.125 0.02 0 0.13 0.02 0 0.135 0.02 0 0.14 0.02 0 0.145 0.02 0 0.15 0.02 0 0.155 0.02 0 0.16 0.02 0 0.165 0.02 0 0.17 0.02 0 0.175 0.02 0 0.18 0.02 0 0.185 0.02 0 0.19 0.02 0 0.195 0.02 0 0.2 0.02 0 0.205 0.02 0 0.21 0.02 0 0.215 0.02 0 0.22 0.02 0 0.225 0.02 0 0.23 0.02 0 0.235 0.02 0 0.24 0.02 0 0.245 0.02 0 0.25 0.02 0 0.255 0.02 0 0.26 0.02 0 0.265 0.02 0 0.27 0.02 0 0.275 0.02 0 0.28 0.02 0 0.285 0.02 0 0.29 0.02 0 0.295 0.02 0 0.3 0.02 0 0.305 0.02 0 0.31 0.02 0 0.315 0.02 0 0.32 0.02 0 0.325 0.02 0 0.33 0.02 0 0.335 0.02 0 0.34 0.02 0 0.345 0.02 0 0.35 0.02 0 0.355 0.02 0 0.36 0.02 0 0.365 0.02 0 0.37 0.02 0 0.375 0.02 0 0.380001 0.02 0 0.385005 0.02 0 0.390019 0.02 0 0.395058 0.02 0 0.400153 0.02 0 0.405349 0.02 0 0.410697 0.02 0 0.416245 0.02 0 0.422036 0.02 0 0.428109 0.02 0 0.434505 0.02 0 0.441268 0.02 0 0.448452 0.02 0 0.45612 0.02 0 0.46435 0.02 0 0.473236 0.02 0 0.482891 0.02 0 0.493444 0.02 0 0.50499 0.02 0 0.517386 0.02 0 0.529869 0.02 0 0.542087 0.02 0 0.554091 0.02 0 0.565982 0.02 0 0.577829 0.02 0 0.580113 0.02 0 0.582398 0.02 0 0.584682 0.02 0 0.586967 0.02 0 0.589251 0.02 0 0.591533 0.02 0 0.593812 0.02 0 0.59609 0.02 0 0.598373 0.02 0 0.600656 0.02 0 0.602939 0.02 0 0.605222 0.02 0 0.607506 0.02 0 0.609791 0.02 0 0.612076 0.02 0 0.614363 0.02 0 0.61665 0.02 0 0.618938 0.02 0 0.621226 0.02 0 0.623511 0.02 0 0.625802 0.02 0 0.6281 0.02 0 0.630453 0.02 0 0.632904 0.02 0 0.635455 0.02 0 0.638174 0.02 0 0.641095 0.02 0 0.644289 0.02 0 0.647806 0.02 0 0.651681 0.02 0 0.655906 0.02 0 0.660436 0.02 0 0.665188 0.02 0 0.670074 0.02 0 0.675028 0.02 0 0.68001 0.02 0 0.685004 0.02 0 0.690001 0.02 0 0.695 0.02 0 0.7 0.02 0 0.705 0.02 0 0.71 0.02 0 0.715 0.02 0 0.72 0.02 0 0.725 0.02 0 0.73 0.02 0 0.735 0.02 0 0.74 0.02 0 0.745 0.02 0 0.75 0.02 0 0.755 0.02 0 0.76 0.02 0 0.765 0.02 0 0.77 0.02 0 0.775 0.02 0 0.78 0.02 0 0.785 0.02 0 0.79 0.02 0 0.795 0.02 0 0.8 0.02 0 0.805 0.02 0 0.81 0.02 0 0.815 0.02 0 0.82 0.02 0 0.825 0.02 0 0.83 0.02 0 0.835 0.02 0 0.84 0.02 0 0.845 0.02 0 0.85 0.02 0 0.855 0.02 0 0.86 0.02 0 0.865 0.02 0 0.87 0.02 0 0.875 0.02 0 0.88 0.02 0 0.885 0.02 0 0.89 0.02 0 0.895 0.02 0 0.9 0.02 0 0.905 0.02 0 0.91 0.02 0 0.915 0.02 0 0.92 0.02 0 0.925 0.02 0 0.93 0.02 0 0.935 0.02 0 0.94 0.02 0 0.945 0.02 0 0.95 0.02 0 0.955 0.02 0 0.96 0.02 0 0.965 0.02 0 0.97 0.02 0 0.975 0.02 0 0.98 0.02 0 0.985 0.02 0 0.99 0.02 0 0.995 0.02 0 1 0.02 0 0 0.04 0 0.005 0.04 0 0.01 0.04 0 0.015 0.04 0 0.02 0.04 0 0.025 0.04 0 0.03 0.04 0 0.035 0.04 0 0.04 0.04 0 0.045 0.04 0 0.05 0.04 0 0.055 0.04 0 0.06 0.04 0 0.065 0.04 0 0.07 0.04 0 0.075 0.04 0 0.08 0.04 0 0.085 0.04 0 0.09 0.04 0 0.095 0.04 0 0.1 0.04 0 0.105 0.04 0 0.11 0.04 0 0.115 0.04 0 0.12 0.04 0 0.125 0.04 0 0.13 0.04 0 0.135 0.04 0 0.14 0.04 0 0.145 0.04 0 0.15 0.04 0 0.155 0.04 0 0.16 0.04 0 0.165 0.04 0 0.17 0.04 0 0.175 0.04 0 0.18 0.04 0 0.185 0.04 0 0.19 0.04 0 0.195 0.04 0 0.2 0.04 0 0.205 0.04 0 0.21 0.04 0 0.215 0.04 0 0.22 0.04 0 0.225 0.04 0 0.23 0.04 0 0.235 0.04 0 0.24 0.04 0 0.245 0.04 0 0.25 0.04 0 0.255 0.04 0 0.26 0.04 0 0.265 0.04 0 0.27 0.04 0 0.275 0.04 0 0.28 0.04 0 0.285 0.04 0 0.29 0.04 0 0.295 0.04 0 0.3 0.04 0 0.305 0.04 0 0.31 0.04 0 0.315 0.04 0 0.32 0.04 0 0.325 0.04 0 0.33 0.04 0 0.335 0.04 0 0.34 0.04 0 0.345 0.04 0 0.35 0.04 0 0.355 0.04 0 0.36 0.04 0 0.365 0.04 0 0.37 0.04 0 0.375 0.04 0 0.380001 0.04 0 0.385005 0.04 0 0.390019 0.04 0 0.395058 0.04 0 0.400153 0.04 0 0.405349 0.04 0 0.410697 0.04 0 0.416245 0.04 0 0.422036 0.04 0 0.428109 0.04 0 0.434505 0.04 0 0.441268 0.04 0 0.448452 0.04 0 0.45612 0.04 0 0.46435 0.04 0 0.473236 0.04 0 0.482891 0.04 0 0.493444 0.04 0 0.50499 0.04 0 0.517386 0.04 0 0.529869 0.04 0 0.542087 0.04 0 0.554091 0.04 0 0.565982 0.04 0 0.577829 0.04 0 0.580113 0.04 0 0.582398 0.04 0 0.584682 0.04 0 0.586967 0.04 0 0.589251 0.04 0 0.591533 0.04 0 0.593812 0.04 0 0.59609 0.04 0 0.598373 0.04 0 0.600656 0.04 0 0.602939 0.04 0 0.605222 0.04 0 0.607506 0.04 0 0.609791 0.04 0 0.612076 0.04 0 0.614363 0.04 0 0.61665 0.04 0 0.618938 0.04 0 0.621226 0.04 0 0.623511 0.04 0 0.625802 0.04 0 0.6281 0.04 0 0.630453 0.04 0 0.632904 0.04 0 0.635455 0.04 0 0.638174 0.04 0 0.641095 0.04 0 0.644289 0.04 0 0.647806 0.04 0 0.651681 0.04 0 0.655906 0.04 0 0.660436 0.04 0 0.665188 0.04 0 0.670074 0.04 0 0.675028 0.04 0 0.68001 0.04 0 0.685004 0.04 0 0.690001 0.04 0 0.695 0.04 0 0.7 0.04 0 0.705 0.04 0 0.71 0.04 0 0.715 0.04 0 0.72 0.04 0 0.725 0.04 0 0.73 0.04 0 0.735 0.04 0 0.74 0.04 0 0.745 0.04 0 0.75 0.04 0 0.755 0.04 0 0.76 0.04 0 0.765 0.04 0 0.77 0.04 0 0.775 0.04 0 0.78 0.04 0 0.785 0.04 0 0.79 0.04 0 0.795 0.04 0 0.8 0.04 0 0.805 0.04 0 0.81 0.04 0 0.815 0.04 0 0.82 0.04 0 0.825 0.04 0 0.83 0.04 0 0.835 0.04 0 0.84 0.04 0 0.845 0.04 0 0.85 0.04 0 0.855 0.04 0 0.86 0.04 0 0.865 0.04 0 0.87 0.04 0 0.875 0.04 0 0.88 0.04 0 0.885 0.04 0 0.89 0.04 0 0.895 0.04 0 0.9 0.04 0 0.905 0.04 0 0.91 0.04 0 0.915 0.04 0 0.92 0.04 0 0.925 0.04 0 0.93 0.04 0 0.935 0.04 0 0.94 0.04 0 0.945 0.04 0 0.95 0.04 0 0.955 0.04 0 0.96 0.04 0 0.965 0.04 0 0.97 0.04 0 0.975 0.04 0 0.98 0.04 0 0.985 0.04 0 0.99 0.04 0 0.995 0.04 0 1 0.04 0 0 0.06 0 0.005 0.06 0 0.01 0.06 0 0.015 0.06 0 0.02 0.06 0 0.025 0.06 0 0.03 0.06 0 0.035 0.06 0 0.04 0.06 0 0.045 0.06 0 0.05 0.06 0 0.055 0.06 0 0.06 0.06 0 0.065 0.06 0 0.07 0.06 0 0.075 0.06 0 0.08 0.06 0 0.085 0.06 0 0.09 0.06 0 0.095 0.06 0 0.1 0.06 0 0.105 0.06 0 0.11 0.06 0 0.115 0.06 0 0.12 0.06 0 0.125 0.06 0 0.13 0.06 0 0.135 0.06 0 0.14 0.06 0 0.145 0.06 0 0.15 0.06 0 0.155 0.06 0 0.16 0.06 0 0.165 0.06 0 0.17 0.06 0 0.175 0.06 0 0.18 0.06 0 0.185 0.06 0 0.19 0.06 0 0.195 0.06 0 0.2 0.06 0 0.205 0.06 0 0.21 0.06 0 0.215 0.06 0 0.22 0.06 0 0.225 0.06 0 0.23 0.06 0 0.235 0.06 0 0.24 0.06 0 0.245 0.06 0 0.25 0.06 0 0.255 0.06 0 0.26 0.06 0 0.265 0.06 0 0.27 0.06 0 0.275 0.06 0 0.28 0.06 0 0.285 0.06 0 0.29 0.06 0 0.295 0.06 0 0.3 0.06 0 0.305 0.06 0 0.31 0.06 0 0.315 0.06 0 0.32 0.06 0 0.325 0.06 0 0.33 0.06 0 0.335 0.06 0 0.34 0.06 0 0.345 0.06 0 0.35 0.06 0 0.355 0.06 0 0.36 0.06 0 0.365 0.06 0 0.37 0.06 0 0.375 0.06 0 0.380001 0.06 0 0.385005 0.06 0 0.390019 0.06 0 0.395058 0.06 0 0.400153 0.06 0 0.405349 0.06 0 0.410697 0.06 0 0.416245 0.06 0 0.422036 0.06 0 0.428109 0.06 0 0.434505 0.06 0 0.441268 0.06 0 0.448452 0.06 0 0.45612 0.06 0 0.46435 0.06 0 0.473236 0.06 0 0.482891 0.06 0 0.493444 0.06 0 0.50499 0.06 0 0.517386 0.06 0 0.529869 0.06 0 0.542087 0.06 0 0.554091 0.06 0 0.565982 0.06 0 0.577829 0.06 0 0.580113 0.06 0 0.582398 0.06 0 0.584682 0.06 0 0.586967 0.06 0 0.589251 0.06 0 0.591533 0.06 0 0.593812 0.06 0 0.59609 0.06 0 0.598373 0.06 0 0.600656 0.06 0 0.602939 0.06 0 0.605222 0.06 0 0.607506 0.06 0 0.609791 0.06 0 0.612076 0.06 0 0.614363 0.06 0 0.61665 0.06 0 0.618938 0.06 0 0.621226 0.06 0 0.623511 0.06 0 0.625802 0.06 0 0.6281 0.06 0 0.630453 0.06 0 0.632904 0.06 0 0.635455 0.06 0 0.638174 0.06 0 0.641095 0.06 0 0.644289 0.06 0 0.647806 0.06 0 0.651681 0.06 0 0.655906 0.06 0 0.660436 0.06 0 0.665188 0.06 0 0.670074 0.06 0 0.675028 0.06 0 0.68001 0.06 0 0.685004 0.06 0 0.690001 0.06 0 0.695 0.06 0 0.7 0.06 0 0.705 0.06 0 0.71 0.06 0 0.715 0.06 0 0.72 0.06 0 0.725 0.06 0 0.73 0.06 0 0.735 0.06 0 0.74 0.06 0 0.745 0.06 0 0.75 0.06 0 0.755 0.06 0 0.76 0.06 0 0.765 0.06 0 0.77 0.06 0 0.775 0.06 0 0.78 0.06 0 0.785 0.06 0 0.79 0.06 0 0.795 0.06 0 0.8 0.06 0 0.805 0.06 0 0.81 0.06 0 0.815 0.06 0 0.82 0.06 0 0.
[...]
			<PointData Scalars="VitesseX">
				<DataArray Name="VitesseX" type="Float32" format="ascii">
 0 4.06256e-16 -1.17576e-15 -2.73755e-15 2.10028e-15 1.30443e-15 1.99423e-15 6.84783e-17 5.75364e-15 -3.76366e-15 -5.101e-15 6.24248e-15 -6.70602e-15 1.85238e-15 -5.35872e-15 1.03781e-16 8.53659e-15 -3.5372e-15 -2.59222e-15 4.23454e-15 1.39802e-15 2.88439e-15 6.80541e-15 -4.66198e-16 1.16154e-14 1.89585e-14 -2.06533e-14 1.32118e-14 1.45809e-14 4.0641e-15 -7.36399e-15 1.20912e-14 -2.61961e-14 2.82504e-15 1.94331e-14 -2.23979e-14 1.2165e-14 2.51774e-14 -5.55892e-15 2.30234e-14 -1.37439e-14 1.90028e-14 -1.97139e-14 -1.22049e-14 -1.14919e-15 -9.04461e-15 -6.8921e-15 1.28901e-14 -1.41451e-14 2.40539e-14 7.10463e-15 3.65063e-14 -5.62338e-14 3.8147e-14 -2.17401e-14 3.63022e-14 9.14468e-15 3.28477e-14 1.29848e-14 2.66994e-14 -2.92736e-14 5.25124e-14 -5.16741e-14 3.42967e-14 5.72925e-14 2.06009e-13 1.71856e-12 1.85697e-11 1.7799e-10 1.56993e-09 1.2721e-08 9.42687e-08 6.35411e-07 3.87138e-06 2.1162e-05 0.000102847 0.000439489 0.00162938 0.00516379 0.0138064 0.0309783 0.0588515 0.0969553 0.143042 0.194935 0.251388 0.311954 0.376633 0.445655 0.519381 0.598217 0.682475 0.771942 0.864427 0.950295 0.992554 0.970105 0.952003 0.940736 0.936079 0.934108 0.934001 0.933908 0.933807 0.933685 0.933517 0.933308 0.933045 0.93277 0.932498 0.932287 0.932096 0.931971 0.931748 0.931589 0.931316 0.931204 0.931494 0.93027 0.930342 0.930269 0.933235 0.913947 0.868249 0.884599 0.798618 0.744828 0.656997 0.560161 0.434953 0.314711 0.200713 0.111857 0.0537508 0.0227922 0.00889738 0.00331277 0.00119872 0.000424665 0.000147591 5.0322e-05 1.68206e-05 5.50759e-06 1.76521e-06 5.53444e-07 1.69657e-07 5.08296e-08 1.48789e-08 4.25437e-09 1.18811e-09 3.24012e-10 8.62662e-11 2.24307e-11 5.74576e-12 1.42521e-12 3.97727e-13 4.8378e-14 -7.99764e-14 -1.20262e-13 2.13218e-13 8.36266e-15 -5.93161e-14 3.62816e-14 -7.02902e-14 8.34804e-14 -2.37175e-14 4.78281e-14 -8.85093e-14 -1.4233e-13 7.16787e-14 3.61086e-14 2.91161e-14 -8.47669e-14 4.03173e-14 -8.60036e-15 -3.72082e-14 6.31924e-14 6.03032e-14 -1.19063e-13 3.58397e-14 3.04368e-15 -7.67241e-14 -8.95486e-14 5.18472e-14 -1.22058e-13 1.23983e-14 -3.12313e-14 2.11924e-14 -1.32878e-13 6.50773e-14 -8.51774e-15 -6.69313e-14 -2.5007e-14 -5.89962e-14 -6.67995e-15 -4.56379e-14 -2.61143e-14 -1.08845e-13 1.83542e-14 4.702e-14 0 0 -6.4783e-16 -4.04262e-16 9.55004e-16 8.04146e-16 2.25173e-15 1.47196e-15 -4.87161e-16 1.39875e-15 1.59998e-15 3.25078e-15 2.48664e-15 1.90887e-15 -1.11968e-14 1.12618e-15 -1.02916e-15 1.2564e-15 9.79724e-15 -1.01237e-14 3.69499e-15 3.24522e-15 1.00086e-14 3.89769e-15 4.59833e-15 3.11433e-15 4.44296e-15 -7.50017e-15 6.15183e-15 1.24948e-14 1.76863e-17 1.08174e-14 -2.00656e-14 -6.23007e-15 2.29023e-14 2.07145e-15 1.73178e-14 -2.23382e-14 5.68155e-15 1.58147e-14 2.02637e-14 -9.94601e-15 7.94687e-15 -1.47975e-15 -3.34605e-15 -8.89742e-15 -1.08382e-14 -1.75611e-14 4.25682e-15 7.55678e-15 -4.88795e-15 3.2052e-14 -1.7861e-14 -2.80995e-16 3.2044e-14 -2.62568e-14 3.76891e-14 2.97981e-14 -3.60735e-14 4.48737e-14 4.16726e-14 -1.64888e-14 3.61578e-14 2.95528e-15 -1.49928e-14 3.57649e-14 1.90875e-13 1.76423e-12 1.86011e-11 1.77956e-10 1.56988e-09 1.27211e-08 9.42688e-08 6.35411e-07 3.87138e-06 2.1162e-05 0.000102847 0.000439489 0.00162938 0.00516379 0.0138064 0.0309783 0.0588515 0.0969553 0.143042 0.194935 0.251388 0.311954 0.376633 0.445655 0.519381 0.598217 0.682475 0.771942 0.864427 0.950295 0.992554 0.970105 0.952003 0.940736 0.936079 0.934108 0.934001 0.933908 0.933807 0.933685 0.933517 0.933308 0.933045 0.93277 0.932498 0.932287 0.932096 0.931971 0.931748 0.931589 0.931316 0.931204 0.931494 0.93027 0.930342 0.930269 0.933235 0.913947 0.868249 0.884599 0.798618 0.744828 0.656997 0.560161 0.434953 0.314711 0.200713 0.111857 0.0537508 0.0227922 0.00889738 0.00331277 0.00119872 0.000424665 0.000147591 5.0322e-05 1.68206e-05 5.50759e-06 1.76521e-06 5.53444e-07 1.69657e-07 5.08296e-08 1.48789e-08 4.25441e-09 1.18807e-09 3.23951e-10 8.63369e-11 2.24876e-11 5.75645e-12 1.4613e-12 2.71648e-13 7.59905e-15 3.81365e-14 3.86336e-14 -8.08556e-14 6.23324e-14 9.75617e-15 -7.20168e-15 -3.6376e-14 1.19453e-13 -9.38539e-15 4.40329e-14 -5.94758e-14 -2.99257e-14 -1.41169e-13 1.99828e-13 -6.89497e-14 -3.95465e-14 6.33228e-14 -7.93762e-14 -2.16375e-14 -2.56033e-14 5.81131e-15 6.41946e-14 -5.21887e-14 -4.74348e-14 -3.25344e-14 -1.39519e-14 4.42461e-15 -3.62197e-14 -8.5123e-14 -1.56055e-14 7.81674e-14 -1.25571e-13 -9.2372e-14 8.82929e-14 -1.0489e-13 -1.00212e-13 3.43265e-14 1.75891e-15 -2.47533e-14 -9.42513e-14 -3.08642e-14 4.98058e-14 -1.04289e-13 0 0 -7.7139e-16 8.00521e-16 5.85804e-16 3.80286e-15 1.36499e-15 3.31886e-15 6.14743e-16 -5.46455e-15 6.03796e-15 9.40382e-16 7.34389e-16 1.05329e-14 4.60046e-15 -1.12467e-14 -1.00169e-15 1.70885e-15 4.14237e-15 -6.39366e-15 4.81152e-15 1.24765e-14 -2.26941e-15 -5.26291e-15 1.13241e-14 -1.44391e-15 8.70708e-15 -5.83769e-15 -7.12966e-15 1.39822e-14 -8.73112e-15 1.78872e-14 -1.51139e-14 1.23458e-14 1.50709e-14 2.39899e-14 1.98917e-14 -2.52072e-14 -1.0064e-14 1.45413e-14 1.40022e-14 1.22283e-15 2.85883e-15 1.29311e-14 -1.34004e-14 3.85035e-15 -1.62081e-14 6.37753e-15 -2.6414e-14 -8.8596e-15 -2.10692e-14 4.30092e-14 1.21495e-14 -1.29026e-14 4.25789e-14 -1.59806e-14 3.24403e-14 2.557e-14 -4.71109e-14 3.32215e-14 4.94887e-14 -1.08418e-14 2.96909e-14 3.88503e-14 -3.8116e-14 7.12338e-14 1.01624e-13 1.83309e-12 1.86405e-11 1.77887e-10 1.56977e-09 1.27212e-08 9.42687e-08 6.35411e-07 3.87138e-06 2.1162e-05 0.000102847 0.000439489 0.00162938 0.00516379 0.0138064 0.0309783 0.0588515 0.0969553 0.143042 0.194935 0.251388 0.311954 0.376633 0.445655 0.519381 0.598217 0.682475 0.771942 0.864427 0.950295 0.992554 0.970105 0.952003 0.940736 0.936079 0.934108 0.934001 0.933908 0.933807 0.933685 0.933517 0.933308 0.933045 0.93277 0.932498 0.932287 0.932096 0.931971 0.931748 0.931589 0.931316 0.931204 0.931494 0.93027 0.930342 0.930269 0.933235 0.913947 0.868249 0.884599 0.798618 0.744828 0.656997 0.560161 0.434953 0.314711 0.200713 0.111857 0.0537508 0.0227922 0.00889738 0.00331277 0.00119872 0.000424665 0.000147591 5.0322e-05 1.68206e-05 5.50759e-06 1.76521e-06 5.53444e-07 1.69657e-07 5.08296e-08 1.48789e-08 4.25451e-09 1.18799e-09 3.2396e-10 8.64256e-11 2.24486e-11 5.72335e-12 1.45063e-12 3.44767e-13 4.50058e-14 -1.58322e-14 1.79181e-14 -6.55892e-14 -7.206e-14 1.31522e-13 -4.71086e-14 7.30584e-14 -5.00056e-14 -8.49062e-15 -9.99791e-15 7.12124e-14 8.1504e-14 -6.95281e-15 2.65071e-14 1.95647e-15 8.64068e-14 -1.79162e-14 -1.47794e-13 -1.39131e-13 1.34104e-13 -9.54253e-14 1.16384e-13 -1.24642e-13 -8.54223e-15 -1.07557e-13 -3.59826e-14 1.15662e-13 -1.93514e-14 -1.14113e-13 2.75995e-14 1.55034e-13 -1.50174e-13 -1.45365e-13 4.59894e-14 -1.12387e-13 -1.10072e-13 2.2764e-14 2.80085e-14 1.72678e-14 -1.16024e-13 -4.036e-14 7.22092e-14 1.6823e-14 0 0 8.28288e-17 2.42767e-15 1.37831e-16 5.60278e-15 3.94868e-15 5.00019e-16 -3.10635e-15 -6.25528e-15 7.67871e-15 -5.5666e-15 8.55369e-16 1.87925e-15 1.37502e-14 -1.43564e-14 1.05334e-14 -3.82609e-15 8.1345e-15 5.81015e-16 4.6057e-16 -7.24468e-15 -1.25758e-16 -5.02327e-15 1.34318e-14 3.93794e-15 6.314e-15 3.40481e-15 -2.1303e-14 -7.21077e-15 1.29296e-14 1.56783e-14 4.49472e-16 6.68496e-15 8.55848e-15 5.20412e-14 -9.21392e-16 -1.64174e-14 -2.73011e-15 -2.32178e-14 3.23852e-14 -1.90262e-14 1.19478e-14 2.56317e-14 -4.81476e-14 1.31002e-14 6.12312e-16 1.6334e-14 -2.30412e-14 -2.33759e-16 -1.58794e-14 2.36331e-14 4.40113e-14 -1.38566e-14 -3.38351e-14 7.59369e-14 -2.67355e-14 4.8601e-14 3.24504e-14 4.27328e-15 -4.03926e-14 1.95277e-14 2.59404e-14 2.41855e-14 3.59068e-14 4.97334e-14 1.18624e-13 1.85785e-12 1.85772e-11 1.77899e-10 1.56975e-09 1.27212e-08 9.42686e-08 6.35411e-07 3.87138e-06 2.1162e-05 0.000102847 0.000439489 0.00162938 0.00516379 0.0138064 0.0309783 0.0588515 0.0969553 0.143042 0.194935 0.251388 0.311954 0.376633 0.445655 0.519381 0.598217 0.682475 0.771942 0.864427 0.950295 0.992554 0.970105 0.952003 0.940736 0.936079 0.934108 0.934001 0.933908 0.933807 0.933685 0.933517 0.933308 0.933045 0.93277 0.932498 0.932287 0.932096 0.931971 0.931748 0.931589 0.931316 0.931204 0.931494 0.93027 0.930342 0.930269 0.933235 0.913947 0.868249 0.884599 0.798618 0.744828 0.656997 0.560161 0.434953 0.314711 0.200713 0.111857 0.0537508 0.0227922 0.00889738 0.00331277 0.00119872 0.000424665 0.000147591 5.0322e-05 1.68206e-05 5.50759e-06 1.76521e-06 5.53444e-07 1.69657e-07 5.08296e-08 1.48789e-08 4.25446e-09 1.1881e-09 3.24031e-10 8.64068e-11 2.24227e-11 5.81857e-12 1.5212e-12 2.89746e-13 -4.4492e-14 -9.00594e-14 3.03509e-14 1.05655e-13 -1.10238e-13 9.4591e-14 -8.14364e-14 -9.71711e-14 4.47621e-14 -2.87533e-14 -1.01497e-13 2.63023e-13 4.25701e-14 1.37337e-13 -1.59308e-13 1.35771e-14 -1.92021e-16 -1.45726e-14 -8.69322e-14 -7.20116e-14 1.12656e-13 -4.80468e-14 -9.22457e-14 -2.79e-14 -9.29088e-14 -1.074e-13 -5.22135e-14 1.35773e-13 4.22552e-14 -4.3113e-14 9.3438e-14 1.06248e-13 -9.59714e-14 -5.44698e-14 9.34567e-14 -2.32497e-13 -1.64597e-13 -1.08376e-13 1.32684e-13 -6.8472e-14 8.34689e-14 -8.32578e-14 -1.54804e-14 4.94881e-14 0 0 1.98539e-15 1.55865e-15 5.56873e-15 1.01876e-14 5.74717e-15 -3.2028e-15 -7.21144e-15 -2.584e-15 4.5218e-15 8.80835e-15 -3.33751e-15 -9.79744e-17 -1.07429e-14 -2.71901e-15 3.88917e-15 -2.67359e-15 9.34758e-15 -4.0931e-15 5.57065e-15 -1.57923e-14 1.93143e-14 -6.67577e-15 8.08665e-16 7.9759e-15 4.48659e-15 -3.5832e-15 -1.4499e-14 -1.18624e-14 2.6334e-14 2.22557e-14 -8.57542e-15 2.11454e-14 1.25549e-14 1.10098e-14 8.68064e-15 -1.5271e-14 -1.78958e-14 -6.78264e-15 5.23183e-14 -3.50916e-14 -1.7326e-14 9.35803e-15 -3.25066e-14 -9.59744e-15 6.39766e-15 -6.56562e-15 4.39907e-14 5.89295e-15 5.52107e-15 2.63613e-14 -2.60634e-14 4.17269e-14 -4.29375e-14 7.44424e-14 -3.62804e-14 2.03199e-14 4.67396e-14 2.82424e-15 -4.09736e-14 5.16345e-14 4.44155e-14 2.90809e-14 4.69245e-14 5.71383e-14 2.28257e-13 1.81937e-12 1.84545e-11 1.77921e-10 1.56982e-09 1.27211e-08 9.42685e-08 6.35411e-07 3.87138e-06 2.1162e-05 0.000102847 0.000439489 0.00162938 0.00516379 0.0138064 0.0309783 0.0588515 0.0969553 0.143042 0.194935 0.251388 0.311954 0.376633 0.445655 0.519381 0.598217 0.682475 0.771942 0.864427 0.950295 0.992554 0.970105 0.952003 0.940736 0.936079 0.934108 0.934001 0.933908 0.933807 0.933685 0.933517 0.933308 0.933045 0.93277 0.932498 0.932287 0.932096 0.931971 0.931748 0.931589 0.931316 0.931204 0.931494 0.93027 0.930342 0.930269 0.933235 0.913947 0.868249 0.884599 0.798618 0.744828 0.656997 0.560161 0.434953 0.314711 0.200713 0.111857 0.0537508 0.0227922 0.00889738 0.00331277 0.00119872 0.000424665 0.000147591 5.0322e-05 1.68206e-05 5.50759e-06 1.76521e-06 5.53444e-07 1.69657e-07 5.08297e-08 1.48788e-08 4.25445e-09 1.18821e-09 3.2402e-10 8.63088e-11 2.24817e-11 5.96703e-12 1.43182e-12 2.1391e-13 3.57606e-14 -3.37409e-14 2.27652e-13 -4.67083e-14 -8.89998e-14 -8.7125e-14 -1.8919e-13 -1.59313e-13 2.09592e-13 -7.23082e-14 1.19917e-13 3.15572e-13 -2.00191e-13 3.01321e-14 3.81943e-14 -2.77792e-14 -1.20547e-13 -1.0865e-13 -6.01908e-15 5.36878e-14 -1.04537e-13 3.01287e-14 -1.05989e-13 -6.94027e-15 -1.66681e-13 5.11287e-14 2.15791e-14 3.95966e-14 -8.38202e-14 -1.85825e-13 1.17143e-13 7.37013e-14 1.00566e-13 -4.62243e-14 1.32784e-13 -1.02208e-13 -1.93552e-13 -1.59744e-13 4.68693e-14 6.83894e-15 4.31938e-14 2.40649e-14 -4.4729e-14 -1.54352e-13 0 0 3.96425e-15 -5.04235e-16 7.38585e-15 1.72673e-14 3.12794e-15 -1.7176e-15 -5.9379e-15 -6.30399e-16 -1.20151e-15 1.90281e-14 -5.64779e-15 6.58758e-15 -1.55393e-14 -6.82972e-15 -1.31298e-14 1.17465e-14 -1.24208e-14 -4.48043e-15 1.66878e-14 2.76523e-15 1.72086e-14 -1.48208e-14 -1.22608e-14 1.05748e-14 2.38319e-14 -3.13044e-14 2.56725e-16 8.25244e-15 1.33753e-14 1.99303e-14 3.94484e-15 3.98766e-14 -4.84478e-15 -1.8793e-14 1.95401e-15 8.71967e-15 -3.66451e-14 2.47647e-14 5.03666e-14 -2.35372e-14 -4.97209e-14 -2.34394e-14 -1.03153e-15 -2.10489e-14 -8.21371e-15 -4.81411e-15 8.56121e-14 -3.47244e-14 3.44925e-14 3.44754e-14 -4.36221e-14 2.96899e-14 4.1012e-14 -4.17663e-15 6.71482e-15 -5.58736e-14 3.93512e-14 -1.32179e-14 4.11697e-14 4.62341e-14 7.6529e-14 2.99065e-14 1.00857e-14 1.4304e-13 2.46772e-13 1.77932e-12 1.84032e-11 1.77894e-10 1.56985e-09 1.27211e-08 9.42686e-08 6.35411e-07 3.87138e-06 2.1162e-05 0.000102847 0.000439489 0.00162938 0.00516379 0.0138064 0.0309783 0.0588515 0.0969553 0.143042 0.194935 0.251388 0.311954 0.376633 0.445655 0.519381 0.598217 0.682475 0.771942 0.864427 0.950295 0.992554 0.970105 0.952003 0.940736 0.936079 0.934108 0.934001 0.933908 0.933807 0.933685 0.933517 0.933308 0.933045 0.93277 0.932498 0.932287 0.932096 0.931971 0.931748 0.931589 0.931316 0.931204 0.931494 0.93027 0.930342 0.930269 0.933235 0.913947 0.868249 0.884599 0.798618 0.744828 0.656997 0.560161 0.434953 0.314711 0.200713 0.111857 0.0537508 0.0227922 0.00889738 0.00331277 0.00119872 0.000424665 0.000147591 5.0322e-05 1.68206e-05 5.50759e-06 1.76521e-06 5.53444e-07 1.69657e-07 5.08298e-08 1.48789e-08 4.25454e-09 1.18818e-09 3.24009e-10 8.62476e-11 2.24711e-11 5.97639e-12 1.22489e-12 3.92367e-13 2.83876e-13 -7.51023e-14 2.32706e-13 -6.11263e-14 -2.18533e-13 -1.79742e-13 -2.58997e-13 2.41973e-14 7.38533e-14 -1.09671e-13 3.82026e-13 2.77858e-13 -4.05015e-13 1.25659e-13 8.42981e-14 8.80028e-14 -7.34803e-14 -3.10581e-13 1.5948e-14 -2.10952e-14 -5.17138e-14 1.48064e-14 -4.15288e-14 -6.69659e-14 -6.72975e-14 9.01777e-14 1.43846e-14 8.18671e-14 -3.4072e-13 -3.31244e-13 1.02691e-13 1.10006e-13 2.10814e-13 -2.43799e-14 -1.44195e-14 1.78493e-13 -1.02742e-13 -1.85218e-13 -1.26065e-13 1.88797e-13 -1.49743e-13 8.70608e-14 4.04996e-15 -1.18932e-13 0
				</DataArray>
				<DataArray Name="VitesseY" type="Float32" format="ascii">