<?xml version="1.0"?>
<VTKFile type="PolyData">
	<PolyData>
		<Piece NumberOfPoints="1206" NumberOfPolys="1000">
			<Points>
				<DataArray type="Float32" NumberOfComponents="3" format="ascii">
 0 0 0 0.005 0 0 0.01 0 0 0.015 0 0 0.02 0 0 0.025 0 0 0.03 0 0 0.035 0 0 0.04 0 0 0.045 0 0 0.05 0 0 0.055 0 0 0.06 0 0 0.065 0 0 0.07 0 0 0.075 0 0 0.08 0 0 0.085 0 0 0.09 0 0 0.095 0 0 0.1 0 0 0.105 0 0 0.11 0 0 0.115 0 0 0.12 0 0 0.125 0 0 0.13 0 0 0.135 0 0 0.14 0 0 0.145 0 0 0.15 0 0 0.155 0 0 0.16 0 0 0.165 0 0 0.17 0 0 0.175 0 0 0.18 0 0 0.185 0 0 0.19 0 0 0.195 0 0 0.2 0 0 0.205 0 0 0.21 0 0 0.215 0 0 0.22 0 0 0.225 0 0 0.23 0 0 0.235 0 0 0.24 0 0 0.245 0 0 0.25 0 0 0.255 0 0 0.26 0 0 0.265 0 0 0.27 0 0 0.275 0 0 0.28 0 0 0.285 0 0 0.29 0 0 0.295 0 0 0.300001 0 0 0.305003 0 0 0.310008 0 0 0.315021 0 0 0.320053 0 0 0.325119 0 0 0.330239 0 0 0.335436 0 0 0.340731 0 0 0.346143 0 0 0.351686 0 0 0.357373 0 0 0.363216 0 0 0.369226 0 0 0.375416 0 0 0.3818 0 0 0.388393 0 0 0.395211 0 0 0.402271 0 0 0.409594 0 0 0.417203 0 0 0.425123 0 0 0.433383 0 0 0.442016 0 0 0.45106 0 0 0.460557 0 0 0.470553 0 0 0.481098 0 0 0.492237 0 0 0.503982 0 0 0.516228 0 0 0.528591 0 0 0.540819 0 0 0.552904 0 0 0.564866 0 0 0.576748 0 0 0.588589 0 0 0.600411 0 0 0.612224 0 0 0.624034 0 0 0.635847 0 0 0.638127 0 0 0.640407 0 0 0.642687 0 0 0.644967 0 0 0.647247 0 0 0.649527 0 0 0.651803 0 0 0.654078 0 0 0.656359 0 0 0.658639 0 0 0.660918 0 0 0.663197 0 0 0.665476 0 0 0.667754 0 0 0.670032 0 0 0.672312 0 0 0.674594 0 0 0.676875 0 0 0.679157 0 0 0.681438 0 0 0.683719 0 0 0.685999 0 0 0.688277 0 0 0.690557 0 0 0.692836 0 0 0.695115 0 0 0.697392 0 0 0.699673 0 0 0.701956 0 0 0.704238 0 0 0.706518 0 0 0.708799 0 0 0.711081 0 0 0.713365 0 0 0.715651 0 0 0.717935 0 0 0.720219 0 0 0.722502 0 0 0.724782 0 0 0.727064 0 0 0.729347 0 0 0.731629 0 0 0.733927 0 0 0.736252 0 0 0.738669 0 0 0.741207 0 0 0.743856 0 0 0.746719 0 0 0.749822 0 0 0.753242 0 0 0.757006 0 0 0.761128 0 0 0.765569 0 0 0.770259 0 0 0.775108 0 0 0.780043 0 0 0.785016 0 0 0.790006 0 0 0.795002 0 0 0.800001 0 0 0.805 0 0 0.81 0 0 0.815 0 0 0.82 0 0 0.825 0 0 0.83 0 0 0.835 0 0 0.84 0 0 0.845 0 0 0.85 0 0 0.855 0 0 0.86 0 0 0.865 0 0 0.87 0 0 0.875 0 0 0.88 0 0 0.885 0 0 0.89 0 0 0.895 0 0 0.9 0 0 0.905 0 0 0.91 0 0 0.915 0 0 0.92 0 0 0.925 0 0 0.93 0 0 0.935 0 0 0.94 0 0 0.945 0 0 0.95 0 0 0.955 0 0 0.96 0 0 0.965 0 0 0.97 0 0 0.975 0 0 0.98 0 0 0.985 0 0 0.99 0 0 0.995 0 0 1 0 0 0 0.02 0 0.005 0.02 0 0.01 0.02 0 0.015 0.02 0 0.02 0.02 0 0.025 0.02 0 0.03 0.02 0 0.035 0.02 0 0.04 0.02 0 0.045 0.02 0 0.05 0.02 0 0.055 0.02 0 0.06 0.02 0 0.065 0.02 0 0.07 0.02 0 0.075 0.02 0 0.08 0.02 0 0.085 0.02 0 0.09 0.02 0 0.095 0.02 0 0.1 0.02 0 0.105 0.02 0 0.11 0.02 0 0.115 0.02 0 0.12 0.02 0 0.125 0.02 0 0.13 0.02 0 0.135 0.02 0 0.14 0.02 0 0.145 0.02 0 0.15 0.02 0 0.155 0.02 0 0.16 0.02 0 0.165 0.02 0 0.17 0.02 0 0.175 0.02 0 0.18 0.02 0 0.185 0.02 0 0.19 0.02 0 0.195 0.02 0 0.2 0.02 0 0.205 0.02 0 0.21 0.02 0 0.215 0.02 0 0.22 0.02 0 0.225 0.02 0 0.23 0.02 0 0.235 0.02 0 0.24 0.02 0 0.245 0.02 0 0.25 0.02 0 0.255 0.02 0 0.26 0.02 0 0.265 0.02 0 0.27 0.02 0 0.275 0.02 0 0.28 0.02 0 0.285 0.02 0 0.29 0.02 0 0.295 0.02 0 0.300001 0.02 0 0.305003 0.02 0 0.310008 0.02 0 0.315021 0.02 0 0.320053 0.02 0 0.325119 0.02 0 0.330239 0.02 0 0.335436 0.02 0 0.340731 0.02 0 0.346143 0.02 0 0.351686 0.02 0 0.357373 0.02 0 0.363216 0.02 0 0.369226 0.02 0 0.375416 0.02 0 0.3818 0.02 0 0.388393 0.02 0 0.395211 0.02 0 0.402271 0.02 0 0.409594 0.02 0 0.417203 0.02 0 0.425123 0.02 0 0.433383 0.02 0 0.442016 0.02 0 0.45106 0.02 0 0.460557 0.02 0 0.470553 0.02 0 0.481098 0.02 0 0.492237 0.02 0 0.503982 0.02 0 0.516228 0.02 0 0.528591 0.02 0 0.540819 0.02 0 0.552904 0.02 0 0.564866 0.02 0 0.576748 0.02 0 0.588589 0.02 0 0.600411 0.02 0 0.612224 0.02 0 0.624034 0.02 0 0.635847 0.02 0 0.638127 0.02 0 0.640407 0.02 0 0.642687 0.02 0 0.644967 0.02 0 0.647247 0.02 0 0.649527 0.02 0 0.651803 0.02 0 0.654078 0.02 0 0.656359 0.02 0 0.658639 0.02 0 0.660918 0.02 0 0.663197 0.02 0 0.665476 0.02 0 0.667754 0.02 0 0.670032 0.02 0 0.672312 0.02 0 0.674594 0.02 0 0.676875 0.02 0 0.679157 0.02 0 0.681438 0.02 0 0.683719 0.02 0 0.685999 0.02 0 0.688277 0.02 0 0.690557 0.02 0 0.692836 0.02 0 0.695115 0.02 0 0.697392 0.02 0 0.699673 0.02 0 0.701956 0.02 0 0.704238 0.02 0 0.706518 0.02 0 0.708799 0.02 0 0.711081 0.02 0 0.713365 0.02 0 0.715651 0.02 0 0.717935 0.02 0 0.720219 0.02 0 0.722502 0.02 0 0.724782 0.02 0 0.727064 0.02 0 0.729347 0.02 0 0.731629 0.02 0 0.733927 0.02 0 0.736252 0.02 0 0.738669 0.02 0 0.741207 0.02 0 0.743856 0.02 0 0.746719 0.02 0 0.749822 0.02 0 0.753242 0.02 0 0.757006 0.02 0 0.761128 0.02 0 0.765569 0.02 0 0.770259 0.02 0 0.775108 0.02 0 0.780043 0.02 0 0.785016 0.02 0 0.790006 0.02 0 0.795002 0.02 0 0.800001 0.02 0 0.805 0.02 0 0.81 0.02 0 0.815 0.02 0 0.82 0.02 0 0.825 0.02 0 0.83 0.02 0 0.835 0.02 0 0.84 0.02 0 0.845 0.02 0 0.85 0.02 0 0.855 0.02 0 0.86 0.02 0 0.865 0.02 0 0.87 0.02 0 0.875 0.02 0 0.88 0.02 0 0.885 0.02 0 0.89 0.02 0 0.895 0.02 0 0.9 0.02 0 0.905 0.02 0 0.91 0.02 0 0.915 0.02 0 0.92 0.02 0 0.925 0.02 0 0.93 0.02 0 0.935 0.02 0 0.94 0.02 0 0.945 0.02 0 0.95 0.02 0 0.955 0.02 0 0.96 0.02 0 0.965 0.02 0 0.97 0.02 0 0.975 0.02 0 0.98 0.02 0 0.985 0.02 0 0.99 0.02 0 0.995 0.02 0 1 0.02 0 0 0.04 0 0.005 0.04 0 0.01 0.04 0 0.015 0.04 0 0.02 0.04 0 0.025 0.04 0 0.03 0.04 0 0.035 0.04 0 0.04 0.04 0 0.045 0.04 0 0.05 0.04 0 0.055 0.04 0 0.06 0.04 0 0.065 0.04 0 0.07 0.04 0 0.075 0.04 0 0.08 0.04 0 0.085 0.04 0 0.09 0.04 0 0.095 0.04 0 0.1 0.04 0 0.105 0.04 0 0.11 0.04 0 0.115 0.04 0 0.12 0.04 0 0.125 0.04 0 0.13 0.04 0 0.135 0.04 0 0.14 0.04 0 0.145 0.04 0 0.15 0.04 0 0.155 0.04 0 0.16 0.04 0 0.165 0.04 0 0.17 0.04 0 0.175 0.04 0 0.18 0.04 0 0.185 0.04 0 0.19 0.04 0 0.195 0.04 0 0.2 0.04 0 0.205 0.04 0 0.21 0.04 0 0.215 0.04 0 0.22 0.04 0 0.225 0.04 0 0.23 0.04 0 0.235 0.04 0 0.24 0.04 0 0.245 0.04 0 0.25 0.04 0 0.255 0.04 0 0.26 0.04 0 0.265 0.04 0 0.27 0.04 0 0.275 0.04 0 0.28 0.04 0 0.285 0.04 0 0.29 0.04 0 0.295 0.04 0 0.300001 0.04 0 0.305003 0.04 0 0.310008 0.04 0 0.315021 0.04 0 0.320053 0.04 0 0.325119 0.04 0 0.330239 0.04 0 0.335436 0.04 0 0.340731 0.04 0 0.346143 0.04 0 0.351686 0.04 0 0.357373 0.04 0 0.363216 0.04 0 0.369226 0.04 0 0.375416 0.04 0 0.3818 0.04 0 0.388393 0.04 0 0.395211 0.04 0 0.402271 0.04 0 0.409594 0.04 0 0.417203 0.04 0 0.425123 0.04 0 0.433383 0.04 0 0.442016 0.04 0 0.45106 0.04 0 0.460557 0.04 0 0.470553 0.04 0 0.481098 0.04 0 0.492237 0.04 0 0.503982 0.04 0 0.516228 0.04 0 0.528591 0.04 0 0.540819 0.04 0 0.552904 0.04 0 0.564866 0.04 0 0.576748 0.04 0 0.588589 0.04 0 0.600411 0.04 0 0.612224 0.04 0 0.624034 0.04 0 0.635847 0.04 0 0.638127 0.04 0 0.640407 0.04 0 0.642687 0.04 0 0.644967 0.04 0 0.647247 0.04 0 0.649527 0.04 0 0.651803 0.04 0 0.654078 0.04 0 0.656359 0.04 0 0.658639 0.04 0 0.660918 0.04 0 0.663197 0.04 0 0.665476 0.04 0 0.667754 0.04 0 0.670032 0.04 0 0.672312 0.04 0 0.674594 0.04 0 0.676875 0.04 0 0.679157 0.04 0 0.681438 0.04 0 0.683719 0.04 0 0.685999 0.04 0 0.688277 0.04 0 0.690557 0.04 0 0.692836 0.04 0 0.695115 0.04 0 0.697392 0.04 0 0.699673 0.04 0 0.701956 0.04 0 0.704238 0.04 0 0.706518 0.04 0 0.708799 0.04 0 0.711081 0.04 0 0.713365 0.04 0 0.715651 0.04 0 0.717935 0.04 0 0.720219 0.04 0 0.722502 0.04 0 0.724782 0.04 0 0.727064 0.04 0 0.729347 0.04 0 0.731629 0.04 0 0.733927 0.04 0 0.736252 0.04 0 0.738669 0.04 0 0.741207 0.04 0 0.743856 0.04 0 0.746719 0.04 0 0.749822 0.04 0 0.753242 0.04 0 0.757006 0.04 0 0.761128 0.04 0 0.765569 0.04 0 0.770259 0.04 0 0.775108 0.04 0 0.780043 0.04 0 0.785016 0.04 0 0.790006 0.04 0 0.795002 0.04 0 0.800001 0.04 0 0.805 0.04 0 0.81 0.04 0 0.815 0.04 0 0.82 0.04 0 0.825 0.04 0 0.83 0.04 0 0.835 0.04 0 0.84 0.04 0 0.845 0.04 0 0.85 0.04 0 0.855 0.04 0 0.86 0.04 0 0.865 0.04 0 0.87 0.04 0 0.875 0.04 0 0.88 0.04 0 0.885 0.04 0 0.89 0.04 0 0.895 0.04 0 0.9 0.04 0 0.905 0.04 0 0.91 0.04 0 0.915 0.04 0 0.92 0.04 0 0.925 0.04 0 0.93 0.04 0 0.935 0.04 0 0.94 0.04 0 0.945 0.04 0 0.95 0.04 0 0.955 0.04 0 0.96 0.04 0 0.965 0.04 0 0.97 0.04 0 0.975 0.04 0 0.98 0.04 0 0.985 0.04 0 0.99 0.04 0 0.995 0.04 0 1 0.04 0 0 0.06 0 0.005 0.06 0 0.01 0.06 0 0.015 0.06 0 0.02 0.06 0 0.025 0.06 0 0.03 0.06 0 0.035 0.06 0 0.04 0.06 0 0.045 0.06 0 0.05 0.06 0 0.055 0.06 0 0.06 0.06 0 0.065 0.06 0 0.07 0.06 0 0.075 0.06 0 0.08 0.06 0 0.085 0.06 0 0.09 0.06 0 0.095 0.06 0 0.1 0.06 0 0.105 0.06 0 0.11 0.06 0 0.115 0.06 0 0.12 0.06 0 0.125 0.06 0 0.13 0.06 0 0.135 0.06 0 0.14 0.06 0 0.145 0.06 0 0.15 0.06 0 0.155 0.06 0 0.16 0.06 0 0.165 0.06 0 0.17 0.06 0 0.175 0.06 0 0.18 0.06 0 0.185 0.06 0 0.19 0.06 0 0.195 0.06 0 0.2 0.06 0 0.205 0.06 0 0.21 0.06 0 0.215 0.06 0 0.22 0.06 0 0.225 0.06 0 0.23 0.06 0 0.235 0.06 0 0.24 0.06 0 0.245 0.06 0 0.25 0.06 0 0.255 0.06 0 0.26 0.06 0 0.265 0.06 0 0.27 0.06 0 0.275 0.06 0 0.28 0.06 0 0.285 0.06 0 0.29 0.06 0 0.295 0.06 0 0.300001 0.06 0 0.305003 0.06 0 0.310008 0.06 0 0.315021 0.06 0 0.320053 0.06 0 0.325119 0.06 0 0.330239 0.06 0 0.335436 0.06 0 0.340731 0.06 0 0.346143 0.06 0 0.351686 0.06 0 0.357373 0.06 0 0.363216 0.06 0 0.369226 0.06 0 0.375416 0.06 0 0.3818 0.06 0 0.388393 0.06 0 0.395211 0.06 0 0.402271 0.06 0 0.409594 0.06 0 0.417203 0.06 0 0.425123 0.06 0 0.433383 0.06 0 0.442016 0.06 0 0.45106 0.06 0 0.460557 0.06 0 0.470553 0.06 0 0.481098 0.06 0 0.492237 0.06 0 0.503982 0.06 0 0.516228 0.06 0 0.528591 0.06 0 0.540819 0.06 0 0.552904 0.06 0 0.564866 0.06 0 0.576748 0.06 0 0.588589 0.06 0 0.600411 0.06 0 0.612224 0.06 0 0.624034 0.06 0 0.635847 0.06 0 0.638127 0.06 0 0.640407 0.06 0 0.642687 0.06 0 0.644967 0.06 0 0.647247 0.06 0 0.649527 0.06 0 0.651803 0.06 0 0.654078 0.06 0 0.656359 0.06 0 0.658639 0.06 0 0.660918 0.06 0 0.663197 0.06 0 0.665476 0.06 0 0.667754 0.06 0 0.670032 0.06 0 0.672312 0.06 0 0.674594 0.06 0 0.676875 0.06 0 0.679157 0.06 0 0.681438 0.06 0 0.683719 0.06 0 0.685999 0.06 0 0.688277 0.06 0 0.690557 0.06 0 0.692836 0.06 0 0.695115 0.06 0 0.697392 0.06 0 0.699673 0.06 0 
[...]
			<PointData Scalars="VitesseX">
				<DataArray Name="VitesseX" type="Float32" format="ascii">
 0 -2.03293e-15 -1.34562e-15 -4.26616e-16 3.23558e-15 6.25628e-16 -3.17606e-15 8.33996e-15 3.78289e-15 5.30183e-16 9.97673e-15 -3.50553e-15 3.8995e-15 -2.59337e-16 1.10502e-14 -1.57094e-16 3.85917e-15 1.13036e-14 5.33615e-15 2.85635e-15 1.18132e-14 -9.15413e-15 4.68349e-15 1.02124e-14 -5.29156e-15 8.82867e-15 6.33449e-15 2.43451e-14 5.16255e-15 2.50412e-14 -5.00716e-15 -1.56414e-14 2.70558e-15 1.7535e-14 2.08675e-14 4.05077e-15 -2.13859e-14 -9.21356e-15 3.47114e-14 1.09265e-14 -3.78759e-14 8.36398e-15 2.28984e-14 -4.1438e-15 6.0579e-14 4.85762e-14 8.17183e-14 1.23815e-13 7.20635e-13 4.87466e-12 3.36814e-11 2.18269e-10 1.33374e-09 7.66978e-09 4.14039e-08 2.09188e-07 9.85816e-07 4.31641e-06 1.748e-05 6.51217e-05 0.000221779 0.000685322 0.00190555 0.00472779 0.010399 0.0202417 0.0350562 0.0547193 0.0783703 0.104961 0.13367 0.164003 0.195708 0.228679 0.262885 0.29834 0.335082 0.373168 0.412672 0.453678 0.496285 0.540599 0.586732 0.634795 0.684876 0.737004 0.791047 0.846456 0.901521 0.951076 0.979509 0.970543 0.959125 0.948244 0.940839 0.936802 0.934924 0.934052 0.933601 0.933508 0.933616 0.933496 0.933366 0.933255 0.933209 0.933279 0.933741 0.933708 0.933571 0.933448 0.933243 0.933084 0.932919 0.932806 0.932756 0.932802 0.933523 0.934651 0.934072 0.933881 0.933443 0.933003 0.932561 0.932172 0.931927 0.93174 0.931712 0.932179 0.933512 0.932959 0.932772 0.932389 0.932221 0.932212 0.934094 0.933803 0.932707 0.931572 0.930239 0.930543 0.933048 0.935686 0.926148 0.933521 0.890284 0.845947 0.852269 0.750712 0.694988 0.581848 0.476491 0.348892 0.233286 0.136264 0.0692638 0.0309925 0.0127127 0.00497839 0.00190839 0.000724332 0.000273388 0.000102742 3.84469e-05 1.43195e-05 5.30474e-06 1.95321e-06 7.14249e-07 2.59199e-07 9.32779e-08 3.32646e-08 1.17478e-08 4.10617e-09 1.41962e-09 4.8534e-10 1.63894e-10 5.46492e-11 1.80902e-11 5.94041e-12 1.82968e-12 5.30745e-13 1.7794e-13 -2.30212e-14 -8.35075e-14 1.17208e-13 -1.06545e-13 6.98564e-15 5.23508e-15 6.0314e-14 -8.5536e-14 -1.4877e-13 7.22488e-16 1.09445e-13 -3.49991e-14 1.01657e-14 -7.93684e-15 4.27501e-14 4.36418e-14 -7.25817e-14 8.22036e-14 9.18195e-14 0 0 2.33971e-16 1.66756e-15 6.4092e-16 4.20268e-16 2.9154e-15 5.25904e-16 -1.97867e-15 6.99128e-15 6.86439e-15 4.23524e-15 6.86162e-15 5.4535e-15 -6.73723e-15 -2.96527e-15 6.59342e-15 7.30678e-15 6.44564e-15 2.39945e-15 5.75222e-15 1.0966e-14 4.34819e-15 1.04702e-14 -1.05703e-14 -3.48722e-15 1.29812e-15 2.56308e-14 -9.20301e-15 2.31907e-14 6.95294e-15 3.00791e-15 5.89318e-15 -8.39398e-15 7.12683e-15 2.03934e-15 2.32658e-14 -4.15878e-15 -8.75022e-15 -3.42467e-17 1.47401e-14 1.33749e-14 -2.2974e-14 2.79289e-14 8.0919e-15 6.57677e-14 2.36456e-14 5.33402e-14 2.01547e-13 6.74782e-13 4.90289e-12 3.36252e-11 2.18275e-10 1.3337e-09 7.66981e-09 4.14039e-08 2.09188e-07 9.85816e-07 4.31641e-06 1.748e-05 6.51217e-05 0.000221779 0.000685322 0.00190555 0.00472779 0.010399 0.0202417 0.0350562 0.0547193 0.0783703 0.104961 0.13367 0.164003 0.195708 0.228679 0.262885 0.29834 0.335082 0.373168 0.412672 0.453678 0.496285 0.540599 0.586732 0.634795 0.684876 0.737004 0.791047 0.846456 0.901521 0.951076 0.979509 0.970543 0.959125 0.948244 0.940839 0.936802 0.934924 0.934052 0.933601 0.933508 0.933616 0.933496 0.933366 0.933255 0.933209 0.933279 0.933741 0.933708 0.933571 0.933448 0.933243 0.933084 0.932919 0.932806 0.932756 0.932802 0.933523 0.934651 0.934072 0.933881 0.933443 0.933003 0.932561 0.932172 0.931927 0.93174 0.931712 0.932179 0.933512 0.932959 0.932772 0.932389 0.932221 0.932212 0.934094 0.933803 0.932707 0.931572 0.930239 0.930543 0.933048 0.935686 0.926148 0.933521 0.890284 0.845947 0.852269 0.750712 0.694988 0.581848 0.476491 0.348892 0.233286 0.136264 0.0692638 0.0309925 0.0127127 0.00497839 0.00190839 0.000724332 0.000273388 0.000102742 3.84469e-05 1.43195e-05 5.30474e-06 1.95321e-06 7.14249e-07 2.59199e-07 9.3278e-08 3.32646e-08 1.17478e-08 4.1062e-09 1.41965e-09 4.85322e-10 1.63961e-10 5.45954e-11 1.81149e-11 5.85581e-12 1.91671e-12 5.70152e-13 9.79799e-14 5.51946e-14 -9.59185e-15 1.31633e-14 -8.09939e-14 -7.37421e-14 -1.80456e-14 -1.07663e-14 -3.1997e-14 -2.90087e-14 5.56124e-14 1.25336e-14 -2.84464e-14 -4.18323e-14 1.12777e-13 -2.46826e-14 -2.39338e-14 -1.21468e-14 9.60331e-14 -8.16989e-14 0 0 2.43466e-15 2.5026e-15 7.39369e-16 1.30728e-15 -1.2431e-15 3.06273e-15 -4.2597e-15 2.94885e-15 -5.78898e-16 7.17799e-15 5.15073e-15 4.81523e-15 -4.34726e-15 2.96114e-15 7.70676e-15 4.59499e-15 -1.17333e-14 4.55477e-15 1.22355e-14 2.36606e-14 2.97658e-15 3.0573e-15 5.83469e-15 -1.35233e-14 1.6357e-14 -8.86556e-15 1.13813e-14 -1.1856e-14 3.37439e-14 -1.45232e-14 -2.70936e-15 1.16861e-14 -1.62784e-14 2.68073e-16 2.12997e-14 1.3333e-14 6.2485e-15 -2.27755e-14 1.50986e-14 1.55309e-14 2.11978e-14 2.36887e-14 2.57214e-14 5.30203e-14 2.33519e-14 1.98632e-14 1.91977e-13 7.04111e-13 4.90253e-12 3.3654e-11 2.18179e-10 1.33376e-09 7.66967e-09 4.1404e-08 2.09188e-07 9.85816e-07 4.31641e-06 1.748e-05 6.51217e-05 0.000221779 0.000685322 0.00190555 0.00472779 0.010399 0.0202417 0.0350562 0.0547193 0.0783703 0.104961 0.13367 0.164003 0.195708 0.228679 0.262885 0.29834 0.335082 0.373168 0.412672 0.453678 0.496285 0.540599 0.586732 0.634795 0.684876 0.737004 0.791047 0.846456 0.901521 0.951076 0.979509 0.970543 0.959125 0.948244 0.940839 0.936802 0.934924 0.934052 0.933601 0.933508 0.933616 0.933496 0.933366 0.933255 0.933209 0.933279 0.933741 0.933708 0.933571 0.933448 0.933243 0.933084 0.932919 0.932806 0.932756 0.932802 0.933523 0.934651 0.934072 0.933881 0.933443 0.933003 0.932561 0.932172 0.931927 0.93174 0.931712 0.932179 0.933512 0.932959 0.932772 0.932389 0.932221 0.932212 0.934094 0.933803 0.932707 0.931572 0.930239 0.930543 0.933048 0.935686 0.926148 0.933521 0.890284 0.845947 0.852269 0.750712 0.694988 0.581848 0.476491 0.348892 0.233286 0.136264 0.0692638 0.0309925 0.0127127 0.00497839 0.00190839 0.000724332 0.000273388 0.000102742 3.84469e-05 1.43195e-05 5.30474e-06 1.95321e-06 7.14249e-07 2.59199e-07 9.32779e-08 3.32647e-08 1.17477e-08 4.10625e-09 1.41973e-09 4.85421e-10 1.63886e-10 5.46406e-11 1.80772e-11 5.77001e-12 2.05014e-12 4.77091e-13 8.86287e-14 2.64859e-14 8.289e-14 -4.68973e-14 1.93588e-14 -1.33203e-13 -9.8168e-14 3.91859e-15 2.38809e-14 4.12998e-14 3.25809e-15 -7.10337e-14 -3.05441e-14 -3.85816e-14 1.56101e-13 -1.73633e-13 -3.73512e-14 5.04215e-14 6.54856e-14 5.58773e-14 0 0 1.73256e-15 2.75308e-15 4.77629e-15 9.66774e-15 -3.86403e-15 2.35409e-15 4.37388e-16 -4.55263e-15 -3.92522e-15 1.19049e-14 -3.29439e-15 -1.40367e-16 -1.26885e-15 9.78296e-15 4.5851e-15 1.47265e-14 2.08014e-17 -5.17505e-15 -7.78796e-16 1.41026e-14 1.86665e-14 -2.23229e-15 2.02264e-14 -1.32123e-14 1.68677e-14 -1.92744e-14 -4.25404e-15 2.88038e-15 2.60446e-14 -3.77182e-14 -4.54573e-15 1.7183e-14 2.92147e-14 -5.50024e-15 7.40763e-15 -3.17248e-14 1.48618e-14 3.01861e-14 6.5852e-15 -1.62154e-14 6.73366e-14 4.77647e-15 4.26961e-14 5.30497e-14 4.97652e-14 9.39884e-14 1.23873e-13 6.71578e-13 4.87705e-12 3.36503e-11 2.18157e-10 1.33381e-09 7.66966e-09 4.14039e-08 2.09188e-07 9.85816e-07 4.31641e-06 1.748e-05 6.51217e-05 0.000221779 0.000685322 0.00190555 0.00472779 0.010399 0.0202417 0.0350562 0.0547193 0.0783703 0.104961 0.13367 0.164003 0.195708 0.228679 0.262885 0.29834 0.335082 0.373168 0.412672 0.453678 0.496285 0.540599 0.586732 0.634795 0.684876 0.737004 0.791047 0.846456 0.901521 0.951076 0.979509 0.970543 0.959125 0.948244 0.940839 0.936802 0.934924 0.934052 0.933601 0.933508 0.933616 0.933496 0.933366 0.933255 0.933209 0.933279 0.933741 0.933708 0.933571 0.933448 0.933243 0.933084 0.932919 0.932806 0.932756 0.932802 0.933523 0.934651 0.934072 0.933881 0.933443 0.933003 0.932561 0.932172 0.931927 0.93174 0.931712 0.932179 0.933512 0.932959 0.932772 0.932389 0.932221 0.932212 0.934094 0.933803 0.932707 0.931572 0.930239 0.930543 0.933048 0.935686 0.926148 0.933521 0.890284 0.845947 0.852269 0.750712 0.694988 0.581848 0.476491 0.348892 0.233286 0.136264 0.0692638 0.0309925 0.0127127 0.00497839 0.00190839 0.000724332 0.000273388 0.000102742 3.84469e-05 1.43195e-05 5.30474e-06 1.95321e-06 7.14249e-07 2.59199e-07 9.32779e-08 3.32647e-08 1.17477e-08 4.10623e-09 1.41985e-09 4.85401e-10 1.63847e-10 5.47592e-11 1.80871e-11 5.83328e-12 1.93008e-12 4.90626e-13 1.93813e-13 -1.75113e-13 1.08518e-14 1.41282e-13 8.14686e-14 7.27214e-16 -9.70325e-14 -2.12684e-14 2.72857e-14 -4.74545e-14 -7.65585e-14 8.38404e-15 -1.38629e-13 -1.78156e-13 7.53524e-15 -9.55709e-14 1.82266e-13 1.93633e-14 1.13915e-13 6.13191e-14 0 0 3.32963e-15 3.77664e-15 1.14925e-14 1.22949e-14 3.65788e-15 2.98426e-16 -6.69348e-15 -1.71483e-14 6.66929e-15 -1.20317e-14 1.89501e-15 1.86808e-15 3.46577e-16 9.87492e-15 2.04635e-14 6.65806e-15 5.47735e-15 -4.12356e-15 -7.00458e-15 1.72521e-15 2.06578e-14 -5.82919e-15 2.98581e-15 -1.46751e-14 2.09515e-15 1.65186e-14 -2.15521e-14 1.36046e-14 -4.35027e-15 -5.01004e-15 6.26726e-15 -2.5076e-15 4.37439e-14 -6.80001e-15 -1.03909e-15 7.73193e-15 9.61054e-15 4.45829e-14 -1.9102e-14 -2.55426e-15 6.78882e-15 1.65578e-14 3.0063e-14 3.4688e-14 6.1237e-14 1.76091e-13 1.78366e-13 5.75149e-13 4.9797e-12 3.34699e-11 2.18219e-10 1.3337e-09 7.66982e-09 4.14038e-08 2.09188e-07 9.85816e-07 4.31641e-06 1.748e-05 6.51217e-05 0.000221779 0.000685322 0.00190555 0.00472779 0.010399 0.0202417 0.0350562 0.0547193 0.0783703 0.104961 0.13367 0.164003 0.195708 0.228679 0.262885 0.29834 0.335082 0.373168 0.412672 0.453678 0.496285 0.540599 0.586732 0.634795 0.684876 0.737004 0.791047 0.846456 0.901521 0.951076 0.979509 0.970543 0.959125 0.948244 0.940839 0.936802 0.934924 0.934052 0.933601 0.933508 0.933616 0.933496 0.933366 0.933255 0.933209 0.933279 0.933741 0.933708 0.933571 0.933448 0.933243 0.933084 0.932919 0.932806 0.932756 0.932802 0.933523 0.934651 0.934072 0.933881 0.933443 0.933003 0.932561 0.932172 0.931927 0.93174 0.931712 0.932179 0.933512 0.932959 0.932772 0.932389 0.932221 0.932212 0.934094 0.933803 0.932707 0.931572 0.930239 0.930543 0.933048 0.935686 0.926148 0.933521 0.890284 0.845947 0.852269 0.750712 0.694988 0.581848 0.476491 0.348892 0.233286 0.136264 0.0692638 0.0309925 0.0127127 0.00497839 0.00190839 0.000724332 0.000273388 0.000102742 3.84469e-05 1.43195e-05 5.30474e-06 1.95321e-06 7.14249e-07 2.59199e-07 9.32781e-08 3.32647e-08 1.17477e-08 4.10617e-09 1.41989e-09 4.85367e-10 1.63889e-10 5.47914e-11 1.81941e-11 6.05804e-12 1.99635e-12 4.87989e-13 1.39109e-13 -1.45077e-13 5.59389e-14 -1.2021e-13 6.76359e-14 3.71763e-14 -2.4753e-13 1.01405e-13 5.91922e-14 -3.03965e-14 -1.5885e-13 -6.15379e-14 -1.07712e-13 -1.81572e-13 -5.2463e-14 8.46441e-14 1.80127e-13 -1.26781e-14 1.84767e-13 -1.33814e-14 0 0 5.56259e-15 2.37156e-15 1.32026e-14 1.0264e-14 7.35246e-15 -2.21373e-15 -1.04838e-14 -2.94933e-14 6.83262e-15 -3.2011e-14 3.45148e-15 6.63985e-15 7.75146e-15 2.30869e-14 3.38263e-14 -1.77014e-14 -1.41412e-14 1.17498e-14 3.37127e-15 1.24478e-14 -7.91483e-15 -1.7336e-14 8.54118e-15 -2.82895e-14 9.40131e-15 8.92785e-15 3.09176e-14 -4.34824e-14 1.78334e-14 2.53469e-14 -1.12205e-14 3.48454e-15 -2.17083e-16 1.47254e-14 -1.67748e-14 9.25112e-14 1.02813e-14 1.80224e-14 -3.97307e-14 -6.2416e-15 -2.4388e-14 3.79807e-14 5.84909e-15 -1.63905e-15 7.09324e-14 1.7897e-13 2.13662e-13 5.86436e-13 5.07923e-12 3.33782e-11 2.182e-10 1.33364e-09 7.66979e-09 4.14039e-08 2.09188e-07 9.85816e-07 4.31641e-06 1.748e-05 6.51217e-05 0.000221779 0.000685322 0.00190555 0.00472779 0.010399 0.0202417 0.0350562 0.0547193 0.0783703 0.104961 0.13367 0.164003 0.195708 0.228679 0.262885 0.29834 0.335082 0.373168 0.412672 0.453678 0.496285 0.540599 0.586732 0.634795 0.684876 0.737004 0.791047 0.846456 0.901521 0.951076 0.979509 0.970543 0.959125 0.948244 0.940839 0.936802 0.934924 0.934052 0.933601 0.933508 0.933616 0.933496 0.933366 0.933255 0.933209 0.933279 0.933741 0.933708 0.933571 0.933448 0.933243 0.933084 0.932919 0.932806 0.932756 0.932802 0.933523 0.934651 0.934072 0.933881 0.933443 0.933003 0.932561 0.932172 0.931927 0.93174 0.931712 0.932179 0.933512 0.932959 0.932772 0.932389 0.932221 0.932212 0.934094 0.933803 0.932707 0.931572 0.930239 0.930543 0.933048 0.935686 0.926148 0.933521 0.890284 0.845947 0.852269 0.750712 0.694988 0.581848 0.476491 0.348892 0.233286 0.136264 0.0692638 0.0309925 0.0127127 0.00497839 0.00190839 0.000724332 0.000273388 0.000102742 3.84469e-05 1.43195e-05 5.30474e-06 1.95321e-06 7.14249e-07 2.59199e-07 9.32782e-08 3.32647e-08 1.17476e-08 4.10615e-09 1.41985e-09 4.85468e-10 1.63827e-10 5.48039e-11 1.82291e-11 6.2184e-12 2.22903e-12 3.39247e-13 4.93227e-14 -2.03845e-14 1.92021e-13 -5.26322e-13 6.61534e-14 -3.91815e-14 -4.56319e-13 3.34941e-13 9.00648e-14 2.61912e-14 -2.68593e-13 -1.97978e-13 2.24217e-14 9.79594e-15 -4.16536e-14 1.04672e-13 1.32779e-14 -1.07656e-14 1.62198e-13 2.1681e-13 0
				</DataArray>
				<DataArray Name="VitesseY" type="Float32" format="ascii">