<?xml version="1.0"?>
<VTKFile type="PolyData">
	<PolyData>
		<Piece NumberOfPoints="1206" NumberOfPolys="1000">
			<Points>
				<DataArray type="Float32" NumberOfComponents="3" format="ascii">
 0 0 0 0.005 0 0 0.01 0 0 0.015 0 0 0.02 0 0 0.025 0 0 0.03 0 0 0.035 0 0 0.04 0 0 0.045 0 0 0.05 0 0 0.055 0 0 0.06 0 0 0.065 0 0 0.07 0 0 0.075 0 0 0.08 0 0 0.085 0 0 0.09 0 0 0.095 0 0 0.1 0 0 0.105 0 0 0.11 0 0 0.115 0 0 0.12 0 0 0.125 0 0 0.13 0 0 0.135 0 0 0.14 0 0 0.145 0 0 0.15 0 0 0.155 0 0 0.16 0 0 0.165 0 0 0.17 0 0 0.175 0 0 0.18 0 0 0.185 0 0 0.19 0 0 0.195 0 0 0.2 0 0 0.205 0 0 0.21 0 0 0.215 0 0 0.22 0 0 0.225 0 0 0.23 0 0 0.235 0 0 0.24 0 0 0.245 0 0 0.250001 0 0 0.255003 0 0 0.260009 0 0 0.265021 0 0 0.270049 0 0 0.275103 0 0 0.280197 0 0 0.285348 0 0 0.290571 0 0 0.295879 0 0 0.301281 0 0 0.306787 0 0 0.312404 0 0 0.318138 0 0 0.323997 0 0 0.329989 0 0 0.336119 0 0 0.342397 0 0 0.34883 0 0 0.355429 0 0 0.362202 0 0 0.369161 0 0 0.376317 0 0 0.383683 0 0 0.391274 0 0 0.399105 0 0 0.407192 0 0 0.415556 0 0 0.424217 0 0 0.433198 0 0 0.442525 0 0 0.452228 0 0 0.462335 0 0 0.47288 0 0 0.483893 0 0 0.495391 0 0 0.507352 0 0 0.519629 0 0 0.531905 0 0 0.544078 0 0 0.556138 0 0 0.568098 0 0 0.579987 0 0 0.591833 0 0 0.603657 0 0 0.615471 0 0 0.627281 0 0 0.63909 0 0 0.650898 0 0 0.662707 0 0 0.674516 0 0 0.676796 0 0 0.679076 0 0 0.681356 0 0 0.683635 0 0 0.685915 0 0 0.688193 0 0 0.690467 0 0 0.692742 0 0 0.695023 0 0 0.697302 0 0 0.699582 0 0 0.701861 0 0 0.704141 0 0 0.70642 0 0 0.7087 0 0 0.71098 0 0 0.71326 0 0 0.715539 0 0 0.717818 0 0 0.720098 0 0 0.722378 0 0 0.724657 0 0 0.726936 0 0 0.729216 0 0 0.731496 0 0 0.733776 0 0 0.736054 0 0 0.738332 0 0 0.740613 0 0 0.742892 0 0 0.745171 0 0 0.747449 0 0 0.749729 0 0 0.752008 0 0 0.754285 0 0 0.756562 0 0 0.75884 0 0 0.761118 0 0 0.763397 0 0 0.76568 0 0 0.767964 0 0 0.770248 0 0 0.77253 0 0 0.774813 0 0 0.777094 0 0 0.779374 0 0 0.781653 0 0 0.78393 0 0 0.786208 0 0 0.788486 0 0 0.790766 0 0 0.793051 0 0 0.795338 0 0 0.797627 0 0 0.799906 0 0 0.802203 0 0 0.804479 0 0 0.806805 0 0 0.809184 0 0 0.811697 0 0 0.814323 0 0 0.817139 0 0 0.820183 0 0 0.823536 0 0 0.827227 0 0 0.831278 0 0 0.83566 0 0 0.840306 0 0 0.84513 0 0 0.850052 0 0 0.85502 0 0 0.860008 0 0 0.865003 0 0 0.870001 0 0 0.875 0 0 0.88 0 0 0.885 0 0 0.89 0 0 0.895 0 0 0.9 0 0 0.905 0 0 0.91 0 0 0.915 0 0 0.92 0 0 0.925 0 0 0.93 0 0 0.935 0 0 0.94 0 0 0.945 0 0 0.95 0 0 0.955 0 0 0.96 0 0 0.965 0 0 0.97 0 0 0.975 0 0 0.98 0 0 0.985 0 0 0.99 0 0 0.995 0 0 1 0 0 0 0.02 0 0.005 0.02 0 0.01 0.02 0 0.015 0.02 0 0.02 0.02 0 0.025 0.02 0 0.03 0.02 0 0.035 0.02 0 0.04 0.02 0 0.045 0.02 0 0.05 0.02 0 0.055 0.02 0 0.06 0.02 0 0.065 0.02 0 0.07 0.02 0 0.075 0.02 0 0.08 0.02 0 0.085 0.02 0 0.09 0.02 0 0.095 0.02 0 0.1 0.02 0 0.105 0.02 0 0.11 0.02 0 0.115 0.02 0 0.12 0.02 0 0.125 0.02 0 0.13 0.02 0 0.135 0.02 0 0.14 0.02 0 0.145 0.02 0 0.15 0.02 0 0.155 0.02 0 0.16 0.02 0 0.165 0.02 0 0.17 0.02 0 0.175 0.02 0 0.18 0.02 0 0.185 0.02 0 0.19 0.02 0 0.195 0.02 0 0.2 0.02 0 0.205 0.02 0 0.21 0.02 0 0.215 0.02 0 0.22 0.02 0 0.225 0.02 0 0.23 0.02 0 0.235 0.02 0 0.24 0.02 0 0.245 0.02 0 0.250001 0.02 0 0.255003 0.02 0 0.260009 0.02 0 0.265021 0.02 0 0.270049 0.02 0 0.275103 0.02 0 0.280197 0.02 0 0.285348 0.02 0 0.290571 0.02 0 0.295879 0.02 0 0.301281 0.02 0 0.306787 0.02 0 0.312404 0.02 0 0.318138 0.02 0 0.323997 0.02 0 0.329989 0.02 0 0.336119 0.02 0 0.342397 0.02 0 0.34883 0.02 0 0.355429 0.02 0 0.362202 0.02 0 0.369161 0.02 0 0.376317 0.02 0 0.383683 0.02 0 0.391274 0.02 0 0.399105 0.02 0 0.407192 0.02 0 0.415556 0.02 0 0.424217 0.02 0 0.433198 0.02 0 0.442525 0.02 0 0.452228 0.02 0 0.462335 0.02 0 0.47288 0.02 0 0.483893 0.02 0 0.495391 0.02 0 0.507352 0.02 0 0.519629 0.02 0 0.531905 0.02 0 0.544078 0.02 0 0.556138 0.02 0 0.568098 0.02 0 0.579987 0.02 0 0.591833 0.02 0 0.603657 0.02 0 0.615471 0.02 0 0.627281 0.02 0 0.63909 0.02 0 0.650898 0.02 0 0.662707 0.02 0 0.674516 0.02 0 0.676796 0.02 0 0.679076 0.02 0 0.681356 0.02 0 0.683635 0.02 0 0.685915 0.02 0 0.688193 0.02 0 0.690467 0.02 0 0.692742 0.02 0 0.695023 0.02 0 0.697302 0.02 0 0.699582 0.02 0 0.701861 0.02 0 0.704141 0.02 0 0.70642 0.02 0 0.7087 0.02 0 0.71098 0.02 0 0.71326 0.02 0 0.715539 0.02 0 0.717818 0.02 0 0.720098 0.02 0 0.722378 0.02 0 0.724657 0.02 0 0.726936 0.02 0 0.729216 0.02 0 0.731496 0.02 0 0.733776 0.02 0 0.736054 0.02 0 0.738332 0.02 0 0.740613 0.02 0 0.742892 0.02 0 0.745171 0.02 0 0.747449 0.02 0 0.749729 0.02 0 0.752008 0.02 0 0.754285 0.02 0 0.756562 0.02 0 0.75884 0.02 0 0.761118 0.02 0 0.763397 0.02 0 0.76568 0.02 0 0.767964 0.02 0 0.770248 0.02 0 0.77253 0.02 0 0.774813 0.02 0 0.777094 0.02 0 0.779374 0.02 0 0.781653 0.02 0 0.78393 0.02 0 0.786208 0.02 0 0.788486 0.02 0 0.790766 0.02 0 0.793051 0.02 0 0.795338 0.02 0 0.797627 0.02 0 0.799906 0.02 0 0.802203 0.02 0 0.804479 0.02 0 0.806805 0.02 0 0.809184 0.02 0 0.811697 0.02 0 0.814323 0.02 0 0.817139 0.02 0 0.820183 0.02 0 0.823536 0.02 0 0.827227 0.02 0 0.831278 0.02 0 0.83566 0.02 0 0.840306 0.02 0 0.84513 0.02 0 0.850052 0.02 0 0.85502 0.02 0 0.860008 0.02 0 0.865003 0.02 0 0.870001 0.02 0 0.875 0.02 0 0.88 0.02 0 0.885 0.02 0 0.89 0.02 0 0.895 0.02 0 0.9 0.02 0 0.905 0.02 0 0.91 0.02 0 0.915 0.02 0 0.92 0.02 0 0.925 0.02 0 0.93 0.02 0 0.935 0.02 0 0.94 0.02 0 0.945 0.02 0 0.95 0.02 0 0.955 0.02 0 0.96 0.02 0 0.965 0.02 0 0.97 0.02 0 0.975 0.02 0 0.98 0.02 0 0.985 0.02 0 0.99 0.02 0 0.995 0.02 0 1 0.02 0 0 0.04 0 0.005 0.04 0 0.01 0.04 0 0.015 0.04 0 0.02 0.04 0 0.025 0.04 0 0.03 0.04 0 0.035 0.04 0 0.04 0.04 0 0.045 0.04 0 0.05 0.04 0 0.055 0.04 0 0.06 0.04 0 0.065 0.04 0 0.07 0.04 0 0.075 0.04 0 0.08 0.04 0 0.085 0.04 0 0.09 0.04 0 0.095 0.04 0 0.1 0.04 0 0.105 0.04 0 0.11 0.04 0 0.115 0.04 0 0.12 0.04 0 0.125 0.04 0 0.13 0.04 0 0.135 0.04 0 0.14 0.04 0 0.145 0.04 0 0.15 0.04 0 0.155 0.04 0 0.16 0.04 0 0.165 0.04 0 0.17 0.04 0 0.175 0.04 0 0.18 0.04 0 0.185 0.04 0 0.19 0.04 0 0.195 0.04 0 0.2 0.04 0 0.205 0.04 0 0.21 0.04 0 0.215 0.04 0 0.22 0.04 0 0.225 0.04 0 0.23 0.04 0 0.235 0.04 0 0.24 0.04 0 0.245 0.04 0 0.250001 0.04 0 0.255003 0.04 0 0.260009 0.04 0 0.265021 0.04 0 0.270049 0.04 0 0.275103 0.04 0 0.280197 0.04 0 0.285348 0.04 0 0.290571 0.04 0 0.295879 0.04 0 0.301281 0.04 0 0.306787 0.04 0 0.312404 0.04 0 0.318138 0.04 0 0.323997 0.04 0 0.329989 0.04 0 0.336119 0.04 0 0.342397 0.04 0 0.34883 0.04 0 0.355429 0.04 0 0.362202 0.04 0 0.369161 0.04 0 0.376317 0.04 0 0.383683 0.04 0 0.391274 0.04 0 0.399105 0.04 0 0.407192 0.04 0 0.415556 0.04 0 0.424217 0.04 0 0.433198 0.04 0 0.442525 0.04 0 0.452228 0.04 0 0.462335 0.04 0 0.47288 0.04 0 0.483893 0.04 0 0.495391 0.04 0 0.507352 0.04 0 0.519629 0.04 0 0.531905 0.04 0 0.544078 0.04 0 0.556138 0.04 0 0.568098 0.04 0 0.579987 0.04 0 0.591833 0.04 0 0.603657 0.04 0 0.615471 0.04 0 0.627281 0.04 0 0.63909 0.04 0 0.650898 0.04 0 0.662707 0.04 0 0.674516 0.04 0 0.676796 0.04 0 0.679076 0.04 0 0.681356 0.04 0 0.683635 0.04 0 0.685915 0.04 0 0.688193 0.04 0 0.690467 0.04 0 0.692742 0.04 0 0.695023 0.04 0 0.697302 0.04 0 0.699582 0.04 0 0.701861 0.04 0 0.704141 0.04 0 0.70642 0.04 0 0.7087 0.04 0 0.71098 0.04 0 0.71326 0.04 0 0.715539 0.04 0 0.717818 0.04 0 0.720098 0.04 0 0.722378 0.04 0 0.724657 0.04 0 0.726936 0.04 0 0.729216 0.04 0 0.731496 0.04 0 0.733776 0.04 0 0.736054 0.04 0 0.738332 0.04 0 0.740613 0.04 0 0.742892 0.04 0 0.745171 0.04 0 0.747449 0.04 0 0.749729 0.04 0 0.752008 0.04 0 0.754285 0.04 0 0.756562 0.04 0 0.75884 0.04 0 0.761118 0.04 0 0.763397 0.04 0 0.76568 0.04 0 0.767964 0.04 0 0.770248 0.04 0 0.77253 0.04 0 0.774813 0.04 0 0.777094 0.04 0 0.779374 0.04 0 0.781653 0.04 0 0.78393 0.04 0 0.786208 0.04 0 0.788486 0.04 0 0.790766 0.04 0 0.793051 0.04 0 0.795338 0.04 0 0.797627 0.04 0 0.799906 0.04 0 0.802203 0.04 0 0.804479 0.04 0 0.806805 0.04 0 0.809184 0.04 0 0.811697 0.04 0 0.814323 0.04 0 0.817139 0.04 0 0.820183 0.04 0 0.823536 0.04 0 0.827227 0.04 0 0.831278 0.04 0 0.83566 0.04 0 0.840306 0.04 0 0.84513 0.04 0 0.850052 0.04 0 0.85502 0.04 0 0.860008 0.04 0 0.865003 0.04 0 0.870001 0.04 0 0.875 0.04 0 0.88 0.04 0 0.885 0.04 0 0.89 0.04 0 0.895 0.04 0 0.9 0.04 0 0.905 0.04 0 0.91 0.04 0 0.915 0.04 0 0.92 0.04 0 0.925 0.04 0 0.93 0.04 0 0.935 0.04 0 0.94 0.04 0 0.945 0.04 0 0.95 0.04 0 0.955 0.04 0 0.96 0.04 0 0.965 0.04 0 0.97 0.04 0 0.975 0.04 0 0.98 0.04 0 0.985 0.04 0 0.99 0.04 0 0.995 0.04 0 1 0.04 0 0 0.06 0 0.005 0.06 0 0.01 0.06 0 0.015 0.06 0 0.02 0.06 0 0.025 0.06 0 0.03 0.06 0 0.035 0.06 0 0.04 0.06 0 0.045 0.06 0 0.05 0.06 0 0.055 0.06 0 0.06 0.06 0 0.065 0.06 0 0.07 0.06 0 0.075 0.06 0 0.08 0.06 0 0.085 0.06 0 0.09 0.06 0 0.095 0.06 0 0.1 0.06 0 0.105 0.06 0 0.11 0.06 0 0.115 0.06 0 0.12 0.06 0 0.125 0.06 0 0.13 0.06 0 0.135 0.06 0 0.14 0.06 0 0.145 0.06 0 0.15 0.06 0 0.155 0.06 0 0.16 0.06 0 0.165 0.06 0 0.17 0.06 0 0.175 0.06 0 0.18 0.06 0 0.185 0.06 0 0.19 0.06 0 0.195 0.06 0 0.2 0.06 0 0.205 0.06 0 0.21 0.06 0 0.215 0.06 0 0.22 0.06 0 0.225 0.06 0 0.23 0.06 0 0.235 0.06 0 0.24 0.06 0 0.245 0.06 0 0.250001 0.06 0 0.255003 0.06 0 0.260009 0.06 0 0.265021 0.06 0 0.270049 0.06 0 0.275103 0.06 0 0.280197 0.06 0 0.285348 0.06 0 0.290571 0.06 0 0.295879 0.06 0 0.301281 0.06 0 0.306787 0.06 0 0.312404 0.06 0 0.318138 0.06 0 0.323997 0.06 0 0.329989 0.06 0 0.336119 0.06 0 0.342397 0.06 0 0.34883 0.06 0 0.355429 0.06 0 0.362202 0.06 0 0.369161 0.06 0 0.376317 0.06 0 0.383683 0.06 0 0.391274 0.06 0 0.399105 0.06 0 0.407192 0.06 0 0.415556 0.06 0 0.424217 0.06 0 0.433198 0.06 0 0.442525 0.06 0 0.452228 0.06 0 0.462335 0.06 0 0.47288 0.06 0 0.483893 0.06 0 0.495391 0.06 0 0.507352 0.06 0 0.519629 0.06 0 0.531905 0.06 0 0.544078 0.06 0 0.556138 0.06 0 0.568098 0.06 0 0.579987 0.06 0 0.591833 0.06 0 0.603657 0.06 0 0.615471 0.06 0 0.627281 0.06 0 0.63909 0.06 0 0.650898 0.06 0 0.662707 0.06 0 0.674516 0.06 0 0.676796 0.06 0 0.679076 0.06 0 0.681356 0.06 0 0.683635 0.06 0 0.685915 0.06 0 0.688193 0.06 0 0.690467 0.06 0 0.692742 0.06 0 0.695023 0.06 0 0.697302 0.06 0 0.699582 0.06 0 0.701861 0.06 0 0.704
[...]
			<PointData Scalars="VitesseX">
				<DataArray Name="VitesseX" type="Float32" format="ascii">
 0 2.9596e-15 -1.05942e-15 -5.74579e-16 3.1005e-15 3.02985e-15 3.51719e-15 -6.16144e-15 7.32274e-15 7.98105e-15 8.52649e-15 5.26032e-15 -6.15023e-15 1.02807e-14 1.08527e-14 -9.42726e-15 9.20943e-15 9.9911e-15 3.74622e-15 7.51133e-15 5.42912e-17 1.48434e-14 -7.64577e-15 2.86445e-16 1.43886e-14 -3.06425e-15 1.6413e-14 -4.34936e-15 2.20513e-14 -7.21685e-16 -1.08047e-14 4.3706e-14 1.42407e-14 4.78172e-14 1.95713e-15 5.14805e-14 2.31179e-13 1.16036e-12 6.95701e-12 4.05113e-11 2.25072e-10 1.19066e-09 5.98025e-09 2.84587e-08 1.28015e-07 5.42952e-07 2.1649e-06 8.08785e-06 2.82008e-05 9.13587e-05 0.000273525 0.000752256 0.00188793 0.0042962 0.00882274 0.0163317 0.0273601 0.0418783 0.0593633 0.0791017 0.100467 0.123032 0.146545 0.170877 0.195964 0.221779 0.248319 0.275592 0.303616 0.332416 0.362024 0.392477 0.423814 0.456084 0.489335 0.523622 0.559004 0.595541 0.633293 0.672314 0.712643 0.754283 0.797151 0.840972 0.884996 0.927207 0.962033 0.974651 0.965704 0.956664 0.948042 0.941568 0.937539 0.935391 0.934377 0.933941 0.933776 0.93372 0.933682 0.933668 0.933629 0.933541 0.933452 0.933369 0.933311 0.933282 0.933339 0.933639 0.933958 0.933906 0.933911 0.933882 0.933849 0.933805 0.933766 0.933726 0.933685 0.933646 0.933611 0.933578 0.93355 0.933523 0.933498 0.933472 0.933442 0.933404 0.933354 0.933289 0.933203 0.933093 0.932958 0.932799 0.932622 0.932439 0.932264 0.932117 0.932011 0.931968 0.932018 0.932859 0.934815 0.934971 0.934499 0.934001 0.933159 0.932514 0.931752 0.931159 0.930654 0.930433 0.930538 0.93256 0.934472 0.936962 0.936022 0.929977 0.934115 0.909094 0.925766 0.861197 0.839634 0.768714 0.718041 0.60178 0.501968 0.373985 0.255598 0.153662 0.0802899 0.0367689 0.0153164 0.00605298 0.00233461 0.000891244 0.000338757 0.000128486 4.86619e-05 1.84043e-05 6.94951e-06 2.61913e-06 9.84815e-07 3.6928e-07 1.38023e-07 5.13951e-08 1.90563e-08 7.03178e-09 2.58098e-09 9.41771e-10 3.41509e-10 1.23009e-10 4.3903e-11 1.57568e-11 5.42926e-12 1.96317e-12 6.0852e-13 2.35165e-13 2.30392e-15 -1.02565e-13 7.49985e-14 -8.28087e-14 0 0 1.29233e-15 3.26489e-15 9.61676e-16 1.98187e-15 -1.40264e-16 -5.86505e-16 3.1579e-15 5.65872e-15 7.96387e-15 5.76753e-16 6.94044e-15 2.53108e-15 1.23666e-14 1.37076e-16 -5.12499e-15 9.77897e-15 4.19364e-15 8.85381e-15 7.62233e-15 -6.98568e-15 1.38177e-14 1.32122e-14 -6.39581e-16 -9.1647e-15 2.50728e-14 9.85553e-15 -2.63199e-14 5.61847e-15 2.16582e-14 2.5202e-14 1.13672e-14 3.86153e-14 3.52012e-14 4.66354e-14 6.05993e-14 2.08665e-13 1.1058e-12 6.97988e-12 4.0478e-11 2.25086e-10 1.19068e-09 5.98034e-09 2.84585e-08 1.28015e-07 5.42952e-07 2.1649e-06 8.08785e-06 2.82008e-05 9.13587e-05 0.000273525 0.000752256 0.00188793 0.0042962 0.00882274 0.0163317 0.0273601 0.0418783 0.0593633 0.0791017 0.100467 0.123032 0.146545 0.170877 0.195964 0.221779 0.248319 0.275592 0.303616 0.332416 0.362024 0.392477 0.423814 0.456084 0.489335 0.523622 0.559004 0.595541 0.633293 0.672314 0.712643 0.754283 0.797151 0.840972 0.884996 0.927207 0.962033 0.974651 0.965704 0.956664 0.948042 0.941568 0.937539 0.935391 0.934377 0.933941 0.933776 0.93372 0.933682 0.933668 0.933629 0.933541 0.933452 0.933369 0.933311 0.933282 0.933339 0.933639 0.933958 0.933906 0.933911 0.933882 0.933849 0.933805 0.933766 0.933726 0.933685 0.933646 0.933611 0.933578 0.93355 0.933523 0.933498 0.933472 0.933442 0.933404 0.933354 0.933289 0.933203 0.933093 0.932958 0.932799 0.932622 0.932439 0.932264 0.932117 0.932011 0.931968 0.932018 0.932859 0.934815 0.934971 0.934499 0.934001 0.933159 0.932514 0.931752 0.931159 0.930654 0.930433 0.930538 0.93256 0.934472 0.936962 0.936022 0.929977 0.934115 0.909094 0.925766 0.861197 0.839634 0.768714 0.718041 0.60178 0.501968 0.373985 0.255598 0.153662 0.0802899 0.0367689 0.0153164 0.00605298 0.00233461 0.000891244 0.000338757 0.000128486 4.86619e-05 1.84043e-05 6.94951e-06 2.61913e-06 9.84815e-07 3.6928e-07 1.38023e-07 5.13951e-08 1.90563e-08 7.03186e-09 2.58094e-09 9.41848e-10 3.41464e-10 1.23044e-10 4.39361e-11 1.56454e-11 5.46685e-12 1.92835e-12 6.78639e-13 1.23263e-13 9.86334e-14 1.29872e-14 -7.94714e-14 9.98898e-14 0 0 2.66822e-15 4.76064e-15 5.24389e-15 7.23553e-16 -1.22817e-15 9.42241e-16 9.15974e-15 5.52087e-15 -4.09868e-17 8.87008e-16 -6.03873e-16 1.85191e-15 4.67794e-15 1.35771e-14 1.49479e-15 -6.90971e-15 1.31678e-14 -3.21003e-15 6.28255e-15 -5.9445e-15 1.21688e-14 7.99142e-15 1.03323e-14 3.02315e-15 8.77561e-15 8.19939e-15 -2.6901e-14 1.39239e-14 3.45461e-14 2.32236e-14 1.44355e-14 5.50345e-14 2.52857e-14 6.90449e-14 1.04599e-13 1.59465e-13 1.08369e-12 7.00746e-12 4.04374e-11 2.25018e-10 1.1907e-09 5.98039e-09 2.84585e-08 1.28016e-07 5.42952e-07 2.1649e-06 8.08785e-06 2.82008e-05 9.13587e-05 0.000273525 0.000752256 0.00188793 0.0042962 0.00882274 0.0163317 0.0273601 0.0418783 0.0593633 0.0791017 0.100467 0.123032 0.146545 0.170877 0.195964 0.221779 0.248319 0.275592 0.303616 0.332416 0.362024 0.392477 0.423814 0.456084 0.489335 0.523622 0.559004 0.595541 0.633293 0.672314 0.712643 0.754283 0.797151 0.840972 0.884996 0.927207 0.962033 0.974651 0.965704 0.956664 0.948042 0.941568 0.937539 0.935391 0.934377 0.933941 0.933776 0.93372 0.933682 0.933668 0.933629 0.933541 0.933452 0.933369 0.933311 0.933282 0.933339 0.933639 0.933958 0.933906 0.933911 0.933882 0.933849 0.933805 0.933766 0.933726 0.933685 0.933646 0.933611 0.933578 0.93355 0.933523 0.933498 0.933472 0.933442 0.933404 0.933354 0.933289 0.933203 0.933093 0.932958 0.932799 0.932622 0.932439 0.932264 0.932117 0.932011 0.931968 0.932018 0.932859 0.934815 0.934971 0.934499 0.934001 0.933159 0.932514 0.931752 0.931159 0.930654 0.930433 0.930538 0.93256 0.934472 0.936962 0.936022 0.929977 0.934115 0.909094 0.925766 0.861197 0.839634 0.768714 0.718041 0.60178 0.501968 0.373985 0.255598 0.153662 0.0802899 0.0367689 0.0153164 0.00605298 0.00233461 0.000891244 0.000338757 0.000128486 4.86619e-05 1.84043e-05 6.94951e-06 2.61913e-06 9.84815e-07 3.6928e-07 1.38023e-07 5.13951e-08 1.90562e-08 7.03188e-09 2.58098e-09 9.41791e-10 3.41598e-10 1.23038e-10 4.39112e-11 1.57211e-11 5.51332e-12 2.08313e-12 5.68869e-13 3.48224e-14 -1.0979e-14 1.19431e-13 -9.29131e-14 -6.55586e-14 0 0 5.15154e-15 5.73737e-15 8.82706e-15 3.18815e-15 3.09198e-15 3.6993e-15 2.39601e-15 -1.19229e-15 4.859e-15 -5.18391e-15 -1.73447e-14 -6.33507e-17 4.56303e-15 5.85482e-15 1.24874e-14 -1.0769e-14 9.07905e-15 4.87676e-15 -3.04242e-15 9.43472e-15 -4.08197e-15 -9.69632e-15 1.69359e-14 2.31541e-14 -6.02167e-15 -4.65993e-15 1.2267e-14 1.75262e-14 3.04591e-14 1.90754e-14 4.95839e-14 4.23426e-14 3.74329e-14 4.41357e-14 9.84219e-14 1.82608e-13 1.12581e-12 6.9652e-12 4.04372e-11 2.2498e-10 1.19072e-09 5.98029e-09 2.84585e-08 1.28016e-07 5.42952e-07 2.1649e-06 8.08785e-06 2.82008e-05 9.13587e-05 0.000273525 0.000752256 0.00188793 0.0042962 0.00882274 0.0163317 0.0273601 0.0418783 0.0593633 0.0791017 0.100467 0.123032 0.146545 0.170877 0.195964 0.221779 0.248319 0.275592 0.303616 0.332416 0.362024 0.392477 0.423814 0.456084 0.489335 0.523622 0.559004 0.595541 0.633293 0.672314 0.712643 0.754283 0.797151 0.840972 0.884996 0.927207 0.962033 0.974651 0.965704 0.956664 0.948042 0.941568 0.937539 0.935391 0.934377 0.933941 0.933776 0.93372 0.933682 0.933668 0.933629 0.933541 0.933452 0.933369 0.933311 0.933282 0.933339 0.933639 0.933958 0.933906 0.933911 0.933882 0.933849 0.933805 0.933766 0.933726 0.933685 0.933646 0.933611 0.933578 0.93355 0.933523 0.933498 0.933472 0.933442 0.933404 0.933354 0.933289 0.933203 0.933093 0.932958 0.932799 0.932622 0.932439 0.932264 0.932117 0.932011 0.931968 0.932018 0.932859 0.934815 0.934971 0.934499 0.934001 0.933159 0.932514 0.931752 0.931159 0.930654 0.930433 0.930538 0.93256 0.934472 0.936962 0.936022 0.929977 0.934115 0.909094 0.925766 0.861197 0.839634 0.768714 0.718041 0.60178 0.501968 0.373985 0.255598 0.153662 0.0802899 0.0367689 0.0153164 0.00605298 0.00233461 0.000891244 0.000338757 0.000128486 4.86619e-05 1.84043e-05 6.94951e-06 2.61913e-06 9.84815e-07 3.6928e-07 1.38023e-07 5.13952e-08 1.90563e-08 7.03173e-09 2.58103e-09 9.41781e-10 3.41662e-10 1.2303e-10 4.41048e-11 1.57988e-11 5.43287e-12 2.00268e-12 4.9885e-13 7.06112e-14 5.14158e-15 -5.10634e-14 2.40299e-14 -1.15228e-13 0 0 2.82328e-15 5.04161e-15 7.60274e-15 4.72361e-15 9.458e-16 1.90957e-15 5.15398e-15 8.9883e-16 3.19381e-15 -7.97983e-15 -1.67366e-14 9.69568e-15 7.58161e-15 -1.23822e-14 1.18651e-14 -1.55834e-16 -2.04576e-15 8.45708e-15 -9.85792e-15 8.95395e-15 -2.1349e-15 7.1866e-15 1.46925e-14 2.83604e-14 9.28806e-15 -1.04434e-14 4.27823e-14 3.72883e-15 9.3876e-15 3.05591e-14 3.19647e-14 9.24651e-14 2.03771e-14 8.65162e-14 9.03457e-14 2.13394e-13 1.08286e-12 6.86664e-12 4.04999e-11 2.2501e-10 1.19069e-09 5.98025e-09 2.84584e-08 1.28016e-07 5.42952e-07 2.1649e-06 8.08785e-06 2.82008e-05 9.13587e-05 0.000273525 0.000752256 0.00188793 0.0042962 0.00882274 0.0163317 0.0273601 0.0418783 0.0593633 0.0791017 0.100467 0.123032 0.146545 0.170877 0.195964 0.221779 0.248319 0.275592 0.303616 0.332416 0.362024 0.392477 0.423814 0.456084 0.489335 0.523622 0.559004 0.595541 0.633293 0.672314 0.712643 0.754283 0.797151 0.840972 0.884996 0.927207 0.962033 0.974651 0.965704 0.956664 0.948042 0.941568 0.937539 0.935391 0.934377 0.933941 0.933776 0.93372 0.933682 0.933668 0.933629 0.933541 0.933452 0.933369 0.933311 0.933282 0.933339 0.933639 0.933958 0.933906 0.933911 0.933882 0.933849 0.933805 0.933766 0.933726 0.933685 0.933646 0.933611 0.933578 0.93355 0.933523 0.933498 0.933472 0.933442 0.933404 0.933354 0.933289 0.933203 0.933093 0.932958 0.932799 0.932622 0.932439 0.932264 0.932117 0.932011 0.931968 0.932018 0.932859 0.934815 0.934971 0.934499 0.934001 0.933159 0.932514 0.931752 0.931159 0.930654 0.930433 0.930538 0.93256 0.934472 0.936962 0.936022 0.929977 0.934115 0.909094 0.925766 0.861197 0.839634 0.768714 0.718041 0.60178 0.501968 0.373985 0.255598 0.153662 0.0802899 0.0367689 0.0153164 0.00605298 0.00233461 0.000891244 0.000338757 0.000128486 4.86619e-05 1.84043e-05 6.94951e-06 2.61913e-06 9.84815e-07 3.6928e-07 1.38023e-07 5.13953e-08 1.90564e-08 7.0317e-09 2.58115e-09 9.41954e-10 3.41561e-10 1.23136e-10 4.41318e-11 1.5714e-11 5.43054e-12 1.86683e-12 4.9383e-13 -1.51878e-14 1.93002e-13 -2.39192e-14 8.74077e-14 -1.00109e-14 0 0 1.05486e-15 5.40557e-16 5.5412e-15 3.65477e-15 -3.43833e-15 2.99523e-15 1.13582e-14 1.12293e-14 -1.13591e-14 3.55515e-15 -8.61197e-15 1.20095e-14 9.4056e-16 1.25876e-15 2.56767e-15 -2.94151e-15 5.68986e-15 -1.32208e-14 -8.79922e-15 1.17512e-15 1.54397e-14 1.56786e-14 1.77436e-14 4.9177e-14 -5.0391e-15 1.53381e-15 5.55191e-14 1.10675e-14 -1.70889e-14 8.20582e-15 1.46043e-14 1.47324e-13 -6.12537e-15 1.31537e-13 1.23328e-13 1.9435e-13 1.03025e-12 6.81506e-12 4.05554e-11 2.24995e-10 1.19065e-09 5.98026e-09 2.84584e-08 1.28016e-07 5.42952e-07 2.1649e-06 8.08785e-06 2.82008e-05 9.13587e-05 0.000273525 0.000752256 0.00188793 0.0042962 0.00882274 0.0163317 0.0273601 0.0418783 0.0593633 0.0791017 0.100467 0.123032 0.146545 0.170877 0.195964 0.221779 0.248319 0.275592 0.303616 0.332416 0.362024 0.392477 0.423814 0.456084 0.489335 0.523622 0.559004 0.595541 0.633293 0.672314 0.712643 0.754283 0.797151 0.840972 0.884996 0.927207 0.962033 0.974651 0.965704 0.956664 0.948042 0.941568 0.937539 0.935391 0.934377 0.933941 0.933776 0.93372 0.933682 0.933668 0.933629 0.933541 0.933452 0.933369 0.933311 0.933282 0.933339 0.933639 0.933958 0.933906 0.933911 0.933882 0.933849 0.933805 0.933766 0.933726 0.933685 0.933646 0.933611 0.933578 0.93355 0.933523 0.933498 0.933472 0.933442 0.933404 0.933354 0.933289 0.933203 0.933093 0.932958 0.932799 0.932622 0.932439 0.932264 0.932117 0.932011 0.931968 0.932018 0.932859 0.934815 0.934971 0.934499 0.934001 0.933159 0.932514 0.931752 0.931159 0.930654 0.930433 0.930538 0.93256 0.934472 0.936962 0.936022 0.929977 0.934115 0.909094 0.925766 0.861197 0.839634 0.768714 0.718041 0.60178 0.501968 0.373985 0.255598 0.153662 0.0802899 0.0367689 0.0153164 0.00605298 0.00233461 0.000891244 0.000338757 0.000128486 4.86619e-05 1.84043e-05 6.94951e-06 2.61913e-06 9.84815e-07 3.6928e-07 1.38023e-07 5.13953e-08 1.90563e-08 7.03176e-09 2.58131e-09 9.42003e-10 3.41574e-10 1.23208e-10 4.39073e-11 1.57379e-11 5.51729e-12 2.00113e-12 3.78837e-13 -1.13827e-13 1.59625e-13 1.65525e-13 1.74276e-13 -2.04354e-13 0
				</DataArray>
				<DataArray Name="VitesseY" type="Float32" format="ascii">