<?xml version="1.0"?>
<VTKFile type="PolyData">
	<PolyData>
		<Piece NumberOfPoints="1206" NumberOfPolys="1000">
			<Points>
				<DataArray type="Float32" NumberOfComponents="3" format="ascii">
 0 0 0 0.005 0 0 0.01 0 0 0.015 0 0 0.02 0 0 0.025 0 0 0.03 0 0 0.035 0 0 0.04 0 0 0.045 0 0 0.05 0 0 0.055 0 0 0.06 0 0 0.065 0 0 0.07 0 0 0.075 0 0 0.08 0 0 0.085 0 0 0.09 0 0 0.095 0 0 0.1 0 0 0.105 0 0 0.11 0 0 0.115 0 0 0.12 0 0 0.125 0 0 0.13 0 0 0.135 0 0 0.14 0 0 0.145 0 0 0.15 0 0 0.155 0 0 0.16 0 0 0.165 0 0 0.17 0 0 0.175 0 0 0.18 0 0 0.185 0 0 0.19 0 0 0.195 0 0 0.2 0 0 0.205 0 0 0.21 0 0 0.215 0 0 0.22 0 0 0.225 0 0 0.23 0 0 0.235 0 0 0.24 0 0 0.245 0 0 0.25 0 0 0.255 0 0 0.26 0 0 0.265 0 0 0.27 0 0 0.275 0 0 0.28 0 0 0.285 0 0 0.29 0 0 0.295 0 0 0.3 0 0 0.305 0 0 0.31 0 0 0.315 0 0 0.32 0 0 0.325 0 0 0.33 0 0 0.335 0 0 0.34 0 0 0.345 0 0 0.35 0 0 0.355 0 0 0.36 0 0 0.365 0 0 0.37 0 0 0.375 0 0 0.38 0 0 0.385 0 0 0.39 0 0 0.395002 0 0 0.400009 0 0 0.405032 0 0 0.410098 0 0 0.415251 0 0 0.420551 0 0 0.42606 0 0 0.431835 0 0 0.437927 0 0 0.444391 0 0 0.451287 0 0 0.458688 0 0 0.466685 0 0 0.475388 0 0 0.484938 0 0 0.495493 0 0 0.507167 0 0 0.519697 0 0 0.532147 0 0 0.544303 0 0 0.556258 0 0 0.568133 0 0 0.57042 0 0 0.572706 0 0 0.574992 0 0 0.577278 0 0 0.579564 0 0 0.581848 0 0 0.584129 0 0 0.586409 0 0 0.588696 0 0 0.590983 0 0 0.59327 0 0 0.595558 0 0 0.597848 0 0 0.600137 0 0 0.602424 0 0 0.604709 0 0 0.606993 0 0 0.609286 0 0 0.611618 0 0 0.614035 0 0 0.616512 0 0 0.619156 0 0 0.621986 0 0 0.625033 0 0 0.628402 0 0 0.632115 0 0 0.636191 0 0 0.640597 0 0 0.645266 0 0 0.650107 0 0 0.65504 0 0 0.660014 0 0 0.665005 0 0 0.670002 0 0 0.675001 0 0 0.68 0 0 0.685 0 0 0.69 0 0 0.695 0 0 0.7 0 0 0.705 0 0 0.71 0 0 0.715 0 0 0.72 0 0 0.725 0 0 0.73 0 0 0.735 0 0 0.74 0 0 0.745 0 0 0.75 0 0 0.755 0 0 0.76 0 0 0.765 0 0 0.77 0 0 0.775 0 0 0.78 0 0 0.785 0 0 0.79 0 0 0.795 0 0 0.8 0 0 0.805 0 0 0.81 0 0 0.815 0 0 0.82 0 0 0.825 0 0 0.83 0 0 0.835 0 0 0.84 0 0 0.845 0 0 0.85 0 0 0.855 0 0 0.86 0 0 0.865 0 0 0.87 0 0 0.875 0 0 0.88 0 0 0.885 0 0 0.89 0 0 0.895 0 0 0.9 0 0 0.905 0 0 0.91 0 0 0.915 0 0 0.92 0 0 0.925 0 0 0.93 0 0 0.935 0 0 0.94 0 0 0.945 0 0 0.95 0 0 0.955 0 0 0.96 0 0 0.965 0 0 0.97 0 0 0.975 0 0 0.98 0 0 0.985 0 0 0.99 0 0 0.995 0 0 1 0 0 0 0.02 0 0.005 0.02 0 0.01 0.02 0 0.015 0.02 0 0.02 0.02 0 0.025 0.02 0 0.03 0.02 0 0.035 0.02 0 0.04 0.02 0 0.045 0.02 0 0.05 0.02 0 0.055 0.02 0 0.06 0.02 0 0.065 0.02 0 0.07 0.02 0 0.075 0.02 0 0.08 0.02 0 0.085 0.02 0 0.09 0.02 0 0.095 0.02 0 0.1 0.02 0 0.105 0.02 0 0.11 0.02 0 0.115 0.02 0 0.12 0.02 0 0.125 0.02 0 0.13 0.02 0 0.135 0.02 0 0.14 0.02 0 0.145 0.02 0 0.15 0.02 0 0.155 0.02 0 0.16 0.02 0 0.165 0.02 0 0.17 0.02 0 0.175 0.02 0 0.18 0.02 0 0.185 0.02 0 0.19 0.02 0 0.195 0.02 0 0.2 0.02 0 0.205 0.02 0 0.21 0.02 0 0.215 0.02 0 0.22 0.02 0 0.225 0.02 0 0.23 0.02 0 0.235 0.02 0 0.24 0.02 0 0.245 0.02 0 0.25 0.02 0 0.255 0.02 0 0.26 0.02 0 0.265 0.02 0 0.27 0.02 0 0.275 0.02 0 0.28 0.02 0 0.285 0.02 0 0.29 0.02 0 0.295 0.02 0 0.3 0.02 0 0.305 0.02 0 0.31 0.02 0 0.315 0.02 0 0.32 0.02 0 0.325 0.02 0 0.33 0.02 0 0.335 0.02 0 0.34 0.02 0 0.345 0.02 0 0.35 0.02 0 0.355 0.02 0 0.36 0.02 0 0.365 0.02 0 0.37 0.02 0 0.375 0.02 0 0.38 0.02 0 0.385 0.02 0 0.39 0.02 0 0.395002 0.02 0 0.400009 0.02 0 0.405032 0.02 0 0.410098 0.02 0 0.415251 0.02 0 0.420551 0.02 0 0.42606 0.02 0 0.431835 0.02 0 0.437927 0.02 0 0.444391 0.02 0 0.451287 0.02 0 0.458688 0.02 0 0.466685 0.02 0 0.475388 0.02 0 0.484938 0.02 0 0.495493 0.02 0 0.507167 0.02 0 0.519697 0.02 0 0.532147 0.02 0 0.544303 0.02 0 0.556258 0.02 0 0.568133 0.02 0 0.57042 0.02 0 0.572706 0.02 0 0.574992 0.02 0 0.577278 0.02 0 0.579564 0.02 0 0.581848 0.02 0 0.584129 0.02 0 0.586409 0.02 0 0.588696 0.02 0 0.590983 0.02 0 0.59327 0.02 0 0.595558 0.02 0 0.597848 0.02 0 0.600137 0.02 0 0.602424 0.02 0 0.604709 0.02 0 0.606993 0.02 0 0.609286 0.02 0 0.611618 0.02 0 0.614035 0.02 0 0.616512 0.02 0 0.619156 0.02 0 0.621986 0.02 0 0.625033 0.02 0 0.628402 0.02 0 0.632115 0.02 0 0.636191 0.02 0 0.640597 0.02 0 0.645266 0.02 0 0.650107 0.02 0 0.65504 0.02 0 0.660014 0.02 0 0.665005 0.02 0 0.670002 0.02 0 0.675001 0.02 0 0.68 0.02 0 0.685 0.02 0 0.69 0.02 0 0.695 0.02 0 0.7 0.02 0 0.705 0.02 0 0.71 0.02 0 0.715 0.02 0 0.72 0.02 0 0.725 0.02 0 0.73 0.02 0 0.735 0.02 0 0.74 0.02 0 0.745 0.02 0 0.75 0.02 0 0.755 0.02 0 0.76 0.02 0 0.765 0.02 0 0.77 0.02 0 0.775 0.02 0 0.78 0.02 0 0.785 0.02 0 0.79 0.02 0 0.795 0.02 0 0.8 0.02 0 0.805 0.02 0 0.81 0.02 0 0.815 0.02 0 0.82 0.02 0 0.825 0.02 0 0.83 0.02 0 0.835 0.02 0 0.84 0.02 0 0.845 0.02 0 0.85 0.02 0 0.855 0.02 0 0.86 0.02 0 0.865 0.02 0 0.87 0.02 0 0.875 0.02 0 0.88 0.02 0 0.885 0.02 0 0.89 0.02 0 0.895 0.02 0 0.9 0.02 0 0.905 0.02 0 0.91 0.02 0 0.915 0.02 0 0.92 0.02 0 0.925 0.02 0 0.93 0.02 0 0.935 0.02 0 0.94 0.02 0 0.945 0.02 0 0.95 0.02 0 0.955 0.02 0 0.96 0.02 0 0.965 0.02 0 0.97 0.02 0 0.975 0.02 0 0.98 0.02 0 0.985 0.02 0 0.99 0.02 0 0.995 0.02 0 1 0.02 0 0 0.04 0 0.005 0.04 0 0.01 0.04 0 0.015 0.04 0 0.02 0.04 0 0.025 0.04 0 0.03 0.04 0 0.035 0.04 0 0.04 0.04 0 0.045 0.04 0 0.05 0.04 0 0.055 0.04 0 0.06 0.04 0 0.065 0.04 0 0.07 0.04 0 0.075 0.04 0 0.08 0.04 0 0.085 0.04 0 0.09 0.04 0 0.095 0.04 0 0.1 0.04 0 0.105 0.04 0 0.11 0.04 0 0.115 0.04 0 0.12 0.04 0 0.125 0.04 0 0.13 0.04 0 0.135 0.04 0 0.14 0.04 0 0.145 0.04 0 0.15 0.04 0 0.155 0.04 0 0.16 0.04 0 0.165 0.04 0 0.17 0.04 0 0.175 0.04 0 0.18 0.04 0 0.185 0.04 0 0.19 0.04 0 0.195 0.04 0 0.2 0.04 0 0.205 0.04 0 0.21 0.04 0 0.215 0.04 0 0.22 0.04 0 0.225 0.04 0 0.23 0.04 0 0.235 0.04 0 0.24 0.04 0 0.245 0.04 0 0.25 0.04 0 0.255 0.04 0 0.26 0.04 0 0.265 0.04 0 0.27 0.04 0 0.275 0.04 0 0.28 0.04 0 0.285 0.04 0 0.29 0.04 0 0.295 0.04 0 0.3 0.04 0 0.305 0.04 0 0.31 0.04 0 0.315 0.04 0 0.32 0.04 0 0.325 0.04 0 0.33 0.04 0 0.335 0.04 0 0.34 0.04 0 0.345 0.04 0 0.35 0.04 0 0.355 0.04 0 0.36 0.04 0 0.365 0.04 0 0.37 0.04 0 0.375 0.04 0 0.38 0.04 0 0.385 0.04 0 0.39 0.04 0 0.395002 0.04 0 0.400009 0.04 0 0.405032 0.04 0 0.410098 0.04 0 0.415251 0.04 0 0.420551 0.04 0 0.42606 0.04 0 0.431835 0.04 0 0.437927 0.04 0 0.444391 0.04 0 0.451287 0.04 0 0.458688 0.04 0 0.466685 0.04 0 0.475388 0.04 0 0.484938 0.04 0 0.495493 0.04 0 0.507167 0.04 0 0.519697 0.04 0 0.532147 0.04 0 0.544303 0.04 0 0.556258 0.04 0 0.568133 0.04 0 0.57042 0.04 0 0.572706 0.04 0 0.574992 0.04 0 0.577278 0.04 0 0.579564 0.04 0 0.581848 0.04 0 0.584129 0.04 0 0.586409 0.04 0 0.588696 0.04 0 0.590983 0.04 0 0.59327 0.04 0 0.595558 0.04 0 0.597848 0.04 0 0.600137 0.04 0 0.602424 0.04 0 0.604709 0.04 0 0.606993 0.04 0 0.609286 0.04 0 0.611618 0.04 0 0.614035 0.04 0 0.616512 0.04 0 0.619156 0.04 0 0.621986 0.04 0 0.625033 0.04 0 0.628402 0.04 0 0.632115 0.04 0 0.636191 0.04 0 0.640597 0.04 0 0.645266 0.04 0 0.650107 0.04 0 0.65504 0.04 0 0.660014 0.04 0 0.665005 0.04 0 0.670002 0.04 0 0.675001 0.04 0 0.68 0.04 0 0.685 0.04 0 0.69 0.04 0 0.695 0.04 0 0.7 0.04 0 0.705 0.04 0 0.71 0.04 0 0.715 0.04 0 0.72 0.04 0 0.725 0.04 0 0.73 0.04 0 0.735 0.04 0 0.74 0.04 0 0.745 0.04 0 0.75 0.04 0 0.755 0.04 0 0.76 0.04 0 0.765 0.04 0 0.77 0.04 0 0.775 0.04 0 0.78 0.04 0 0.785 0.04 0 0.79 0.04 0 0.795 0.04 0 0.8 0.04 0 0.805 0.04 0 0.81 0.04 0 0.815 0.04 0 0.82 0.04 0 0.825 0.04 0 0.83 0.04 0 0.835 0.04 0 0.84 0.04 0 0.845 0.04 0 0.85 0.04 0 0.855 0.04 0 0.86 0.04 0 0.865 0.04 0 0.87 0.04 0 0.875 0.04 0 0.88 0.04 0 0.885 0.04 0 0.89 0.04 0 0.895 0.04 0 0.9 0.04 0 0.905 0.04 0 0.91 0.04 0 0.915 0.04 0 0.92 0.04 0 0.925 0.04 0 0.93 0.04 0 0.935 0.04 0 0.94 0.04 0 0.945 0.04 0 0.95 0.04 0 0.955 0.04 0 0.96 0.04 0 0.965 0.04 0 0.97 0.04 0 0.975 0.04 0 0.98 0.04 0 0.985 0.04 0 0.99 0.04 0 0.995 0.04 0 1 0.04 0 0 0.06 0 0.005 0.06 0 0.01 0.06 0 0.015 0.06 0 0.02 0.06 0 0.025 0.06 0 0.03 0.06 0 0.035 0.06 0 0.04 0.06 0 0.045 0.06 0 0.05 0.06 0 0.055 0.06 0 0.06 0.06 0 0.065 0.06 0 0.07 0.06 0 0.075 0.06 0 0.08 0.06 0 0.085 0.06 0 0.09 0.06 0 0.095 0.06 0 0.1 0.06 0 0.105 0.06 0 0.11 0.06 0 0.115 0.06 0 0.12 0.06 0 0.125 0.06 0 0.13 0.06 0 0.135 0.06 0 0.14 0.06 0 0.145 0.06 0 0.15 0.06 0 0.155 0.06 0 0.16 0.06 0 0.165 0.06 0 0.17 0.06 0 0.175 0.06 0 0.18 0.06 0 0.185 0.06 0 0.19 0.06 0 0.195 0.06 0 0.2 0.06 0 0.205 0.06 0 0.21 0.06 0 0.215 0.06 0 0.22 0.06 0 0.225 0.06 0 0.23 0.06 0 0.235 0.06 0 0.24 0.06 0 0.245 0.06 0 0.25 0.06 0 0.255 0.06 0 0.26 0.06 0 0.265 0.06 0 0.27 0.06 0 0.275 0.06 0 0.28 0.06 0 0.285 0.06 0 0.29 0.06 0 0.295 0.06 0 0.3 0.06 0 0.305 0.06 0 0.31 0.06 0 0.315 0.06 0 0.32 0.06 0 0.325 0.06 0 0.33 0.06 0 0.335 0.06 0 0.34 0.06 0 0.345 0.06 0 0.35 0.06 0 0.355 0.06 0 0.36 0.06 0 0.365 0.06 0 0.37 0.06 0 0.375 0.06 0 0.38 0.06 0 0.385 0.06 0 0.39 0.06 0 0.395002 0.06 0 0.400009 0.06 0 0.405032 0.06 0 0.410098 0.06 0 0.415251 0.06 0 0.420551 0.06 0 0.42606 0.06 0 0.431835 0.06 0 0.437927 0.06 0 0.444391 0.06 0 0.451287 0.06 0 0.458688 0.06 0 0.466685 0.06 0 0.475388 0.06 0 0.484938 0.06 0 0.495493 0.06 0 0.507167 0.06 0 0.519697 0.06 0 0.532147 0.06 0 0.544303 0.06 0 0.556258 0.06 0 0.568133 0.06 0 0.57042 0.06 0 0.572706 0.06 0 0.574992 0.06 0 0.577278 0.06 0 0.579564 0.06 0 0.581848 0.06 0 0.584129 0.06 0 0.586409 0.06 0 0.588696 0.06 0 0.590983 0.06 0 0.59327 0.06 0 0.595558 0.06 0 0.597848 0.06 0 0.600137 0.06 0 0.602424 0.06 0 0.604709 0.06 0 0.606993 0.06 0 0.609286 0.06 0 0.611618 0.06 0 0.614035 0.06 0 0.616512 0.06 0 0.619156 0.06 0 0.621986 0.06 0 0.625033 0.06 0 0.628402 0.06 0 0.632115 0.06 0 0.636191 0.06 0 0.640597 0.06 0 0.645266 0.06 0 0.650107 0.06 0 0.65504 0.06 0 0.660014 0.06 0 0.665005 0.06 0 0.670002 0.06 0 0.675001 0.06 0 0.68 0.06 0 0.685 0.06 0 0.69 0.06 0 0.695 0.06 0 0.7 0.06 0 0.705 0.06 0 0.71 0.06 0 0.715 0.06 0 0.72 0.06 0 0.725 0.06 0 0.73 0.06 0 0.735 0.06 0 0.74 0.06 0 0.745 0.06 0 0.75 0.06 0 0.755 0.06 0 0.76 0.06 0 0.765 0.06 0 0.77 0.06 0 0.775 0.06 0 0.78 0.06 0 0.785 0.06 0 0.79 0.06 0 0.795 0.06 0 0.8 0.06 0 0.805 0.06 0 0.81 0.06 0 0.815 0.06 0 0.82 0.06 0 0.825 0.06 0 0.83 0.06 0 0.835 0.06 0 0.84 0.06 0 0.845 0.06 0 0.85 0.06 0
[...]
			<PointData Scalars="VitesseX">
				<DataArray Name="VitesseX" type="Float32" format="ascii">
 0 6.33941e-16 -1.4417e-15 -8.41441e-17 -2.86427e-15 8.8738e-16 3.56695e-15 1.6793e-15 2.87312e-15 -9.59072e-16 -3.30087e-15 3.21101e-15 -5.41797e-15 -1.44454e-15 -5.35872e-15 5.50416e-15 2.92786e-15 -7.02425e-15 1.25676e-14 -8.72627e-15 3.10353e-15 3.79261e-15 1.05963e-14 -9.80801e-15 1.62867e-15 2.18578e-14 -8.41249e-15 3.58574e-15 1.947e-14 1.0923e-14 4.42284e-15 6.06375e-15 -1.47496e-14 -1.8776e-14 -9.06553e-15 2.19041e-14 1.06103e-15 -8.78568e-16 -9.13723e-15 2.2891e-14 -1.2628e-14 8.13674e-16 -7.92959e-15 -1.33977e-14 -1.96607e-14 9.76681e-16 1.26837e-14 8.75651e-15 2.36977e-14 -1.11749e-14 -9.71877e-15 3.17294e-14 2.62319e-14 -3.5239e-15 -2.33848e-14 4.81257e-14 -2.18198e-14 3.61268e-14 7.77417e-15 -3.3464e-14 4.5731e-14 -4.8491e-14 5.21527e-14 1.96995e-14 -4.0608e-14 1.14971e-14 4.6492e-14 3.2589e-14 1.47338e-13 1.49016e-12 1.81203e-11 1.90833e-10 1.84548e-09 1.62853e-08 1.30371e-07 9.41022e-07 6.07949e-06 3.4845e-05 0.000175268 0.000763365 0.00283318 0.0088109 0.0226798 0.0483511 0.0870141 0.136703 0.194536 0.258597 0.328143 0.403163 0.484009 0.571198 0.665194 0.765819 0.870119 0.963773 0.99305 0.965003 0.946862 0.938409 0.934771 0.934432 0.934114 0.933831 0.933539 0.933288 0.933004 0.932765 0.932478 0.932261 0.932052 0.93181 0.931406 0.930666 0.929195 0.928373 0.927606 0.930033 0.924304 0.889269 0.909525 0.815473 0.752364 0.730626 0.597695 0.497544 0.367696 0.248806 0.146796 0.074665 0.0328799 0.0130073 0.004818 0.00171514 0.000593518 0.000200403 6.60712e-05 2.12626e-05 6.67518e-06 2.04317e-06 6.09437e-07 1.77083e-07 5.01097e-08 1.38063e-08 3.70323e-09 9.66852e-10 2.45829e-10 6.08231e-11 1.46017e-11 3.5463e-12 7.85155e-13 1.68952e-13 7.96925e-14 2.20124e-14 -7.55509e-14 9.78711e-14 -4.21523e-14 -1.03997e-13 8.35898e-14 1.16843e-13 -1.06416e-13 4.89246e-14 -5.58333e-14 1.01216e-13 -1.09282e-13 8.34382e-14 -1.59833e-14 -2.58829e-14 6.24232e-14 -1.18304e-13 -4.73037e-14 -9.3778e-14 5.03161e-14 1.97981e-14 -2.44868e-15 1.97466e-14 7.66227e-14 -1.47207e-13 2.11519e-14 3.09419e-15 1.08706e-13 -1.26089e-13 -4.64054e-14 1.49304e-16 -5.58916e-14 7.64142e-15 -1.57792e-14 -1.51494e-14 5.01914e-14 -4.7498e-14 -8.53946e-14 -9.31399e-15 -2.66026e-14 4.66709e-14 -1.46297e-13 -5.35041e-14 -5.06648e-14 -6.99605e-14 7.85518e-14 7.11364e-14 0 0 4.04053e-16 -9.91752e-16 9.45334e-16 2.89829e-15 3.18628e-16 -2.09973e-15 5.45317e-15 5.17728e-16 -3.42294e-16 4.15085e-15 -5.68892e-15 6.57901e-15 -5.51241e-15 -3.57294e-15 1.67103e-15 3.13237e-15 3.35414e-15 -4.85507e-15 -1.21364e-14 1.11845e-14 4.0102e-15 2.1554e-15 7.60184e-15 1.06553e-14 -2.51097e-15 1.57971e-14 -2.37395e-14 2.00174e-14 1.35755e-14 -1.40426e-14 4.56596e-15 -4.54288e-15 -1.06926e-14 1.24455e-14 1.33564e-14 3.7348e-15 -2.60089e-14 2.50532e-14 -1.76515e-15 2.06848e-14 -1.62877e-14 1.3856e-14 -1.16343e-14 -3.67417e-14 -1.09338e-14 9.36774e-15 5.03996e-15 2.4621e-14 1.19468e-14 7.0217e-15 -2.19166e-14 5.16787e-14 -1.87702e-14 -3.76225e-14 3.68806e-14 2.31078e-14 -8.84205e-15 3.00404e-14 -2.03222e-14 6.13657e-14 -2.18211e-14 4.87939e-14 -3.42796e-14 -3.37538e-14 1.20248e-14 5.64632e-14 3.38335e-14 1.55815e-13 1.51382e-12 1.8092e-11 1.90749e-10 1.84562e-09 1.62853e-08 1.30371e-07 9.41022e-07 6.07949e-06 3.4845e-05 0.000175268 0.000763365 0.00283318 0.0088109 0.0226798 0.0483511 0.0870141 0.136703 0.194536 0.258597 0.328143 0.403163 0.484009 0.571198 0.665194 0.765819 0.870119 0.963773 0.99305 0.965003 0.946862 0.938409 0.934771 0.934432 0.934114 0.933831 0.933539 0.933288 0.933004 0.932765 0.932478 0.932261 0.932052 0.93181 0.931406 0.930666 0.929195 0.928373 0.927606 0.930033 0.924304 0.889269 0.909525 0.815473 0.752364 0.730626 0.597695 0.497544 0.367696 0.248806 0.146796 0.074665 0.0328799 0.0130073 0.004818 0.00171514 0.000593518 0.000200403 6.60712e-05 2.12626e-05 6.67518e-06 2.04317e-06 6.09437e-07 1.77083e-07 5.01097e-08 1.38063e-08 3.70325e-09 9.66943e-10 2.4575e-10 6.08369e-11 1.46376e-11 3.46333e-12 8.29919e-13 2.07071e-13 7.52787e-14 1.041e-14 4.35533e-14 -8.33102e-14 -3.60671e-14 8.74023e-14 -2.50593e-14 6.63836e-15 2.68286e-14 7.44971e-15 -1.16361e-14 4.33431e-14 -1.14986e-13 6.5046e-14 -2.05714e-14 -9.97057e-17 6.14358e-14 1.23095e-14 -1.07834e-13 5.18201e-14 1.27294e-15 -9.24135e-14 -7.13981e-14 8.04218e-14 7.24995e-16 7.55609e-15 -2.22917e-14 5.80568e-14 5.2093e-15 -9.63811e-14 -4.60599e-14 -3.85294e-14 -5.94027e-14 -1.62012e-15 3.82474e-14 -9.00446e-14 5.4242e-14 -9.7746e-14 -2.03634e-14 -7.08355e-14 1.15488e-13 -6.34954e-14 -7.19762e-14 -9.28178e-14 -5.26553e-14 2.31111e-14 -3.01132e-14 5.38231e-14 0 0 7.91823e-16 1.78626e-15 9.54854e-16 3.37683e-15 1.87629e-15 -2.57398e-15 9.64357e-16 2.17245e-15 -2.54573e-15 6.18937e-15 -2.72306e-15 -6.75372e-16 1.11652e-14 1.6384e-15 -4.13745e-15 -2.97148e-15 5.24112e-15 -4.82978e-15 -3.03343e-15 5.1432e-15 -5.65197e-15 1.27101e-14 4.7212e-15 7.31843e-15 6.27301e-15 7.4729e-15 -2.30558e-14 4.23408e-15 1.12885e-14 -1.44209e-14 1.4237e-14 -4.50061e-15 2.24969e-15 2.7471e-14 1.71324e-14 -2.85124e-14 6.54694e-15 -8.52224e-15 2.62349e-14 1.46752e-14 1.2104e-14 -1.12354e-14 8.50513e-16 -2.74632e-14 -2.80615e-14 1.50476e-14 2.19618e-14 -7.98819e-15 -2.93387e-15 7.8219e-15 2.93745e-15 8.13145e-15 -1.34544e-14 -1.14198e-14 4.98595e-14 -1.5829e-14 2.22389e-14 -2.91083e-14 1.99231e-14 4.47026e-14 2.83093e-14 3.47412e-14 -6.72737e-15 -4.6617e-14 1.79578e-14 -5.79996e-16 2.57756e-14 1.80271e-13 1.59554e-12 1.79466e-11 1.90764e-10 1.84567e-09 1.62853e-08 1.30371e-07 9.41022e-07 6.07949e-06 3.4845e-05 0.000175268 0.000763365 0.00283318 0.0088109 0.0226798 0.0483511 0.0870141 0.136703 0.194536 0.258597 0.328143 0.403163 0.484009 0.571198 0.665194 0.765819 0.870119 0.963773 0.99305 0.965003 0.946862 0.938409 0.934771 0.934432 0.934114 0.933831 0.933539 0.933288 0.933004 0.932765 0.932478 0.932261 0.932052 0.93181 0.931406 0.930666 0.929195 0.928373 0.927606 0.930033 0.924304 0.889269 0.909525 0.815473 0.752364 0.730626 0.597695 0.497544 0.367696 0.248806 0.146796 0.074665 0.0328799 0.0130073 0.004818 0.00171514 0.000593518 0.000200403 6.60712e-05 2.12626e-05 6.67518e-06 2.04317e-06 6.09437e-07 1.77083e-07 5.01097e-08 1.38064e-08 3.70323e-09 9.67016e-10 2.45747e-10 6.08644e-11 1.46629e-11 3.47337e-12 8.12439e-13 1.5189e-13 1.18405e-13 -3.81667e-14 6.97166e-14 -2.19043e-14 6.63987e-14 -7.28121e-14 -6.46669e-14 1.2186e-14 -3.01236e-15 -6.30098e-14 8.40339e-14 -1.3807e-15 -1.66159e-14 -5.88109e-14 8.29234e-14 5.56871e-14 5.96462e-14 9.67879e-14 -1.32634e-13 1.44356e-13 -9.00776e-14 -1.21469e-13 8.61536e-14 1.10197e-13 -3.41603e-14 5.96191e-15 -2.01177e-13 2.62833e-14 2.07917e-14 -8.67714e-15 9.24054e-15 -1.18921e-13 -7.89125e-14 2.8831e-14 1.8665e-14 -1.44029e-13 2.70386e-14 -5.311e-14 -7.2508e-14 -6.97286e-14 1.58252e-13 -1.08596e-13 -8.39436e-14 5.32573e-14 -4.89281e-14 -2.40509e-14 -9.08907e-14 8.98563e-14 0 0 1.00159e-15 2.58918e-15 1.79606e-15 -4.80113e-16 4.78259e-15 -5.04151e-16 -4.51033e-15 6.3943e-15 -6.86339e-15 1.05436e-15 4.81764e-15 -6.47792e-15 7.72524e-15 6.16204e-15 -1.47858e-15 -1.16134e-14 2.16532e-15 7.00526e-15 9.1947e-15 -4.46791e-15 -2.835e-15 7.95502e-15 4.64956e-16 -1.38397e-14 1.21231e-14 1.14664e-14 -7.06212e-15 -2.75609e-14 1.91357e-14 1.21896e-14 2.29894e-14 -3.35584e-15 -3.86026e-15 2.03911e-14 9.73704e-15 -5.82925e-15 2.56709e-14 -2.3722e-14 -5.63715e-16 7.11184e-15 -3.31845e-15 -3.92039e-15 1.50939e-14 -1.67357e-14 -3.70274e-15 -5.20942e-15 2.26124e-14 -1.81842e-14 1.6626e-14 -5.49667e-15 -1.55687e-14 3.62454e-15 6.21971e-14 -5.2453e-14 5.78288e-14 -1.34534e-14 -7.40177e-15 -3.93887e-14 4.48273e-14 4.95026e-14 -2.40766e-15 4.68911e-14 1.7449e-14 -2.54176e-14 4.18951e-15 9.36816e-15 3.21373e-14 1.49283e-13 1.61776e-12 1.78863e-11 1.90868e-10 1.84549e-09 1.62854e-08 1.30371e-07 9.41022e-07 6.07949e-06 3.4845e-05 0.000175268 0.000763365 0.00283318 0.0088109 0.0226798 0.0483511 0.0870141 0.136703 0.194536 0.258597 0.328143 0.403163 0.484009 0.571198 0.665194 0.765819 0.870119 0.963773 0.99305 0.965003 0.946862 0.938409 0.934771 0.934432 0.934114 0.933831 0.933539 0.933288 0.933004 0.932765 0.932478 0.932261 0.932052 0.93181 0.931406 0.930666 0.929195 0.928373 0.927606 0.930033 0.924304 0.889269 0.909525 0.815473 0.752364 0.730626 0.597695 0.497544 0.367696 0.248806 0.146796 0.074665 0.0328799 0.0130073 0.004818 0.00171514 0.000593518 0.000200403 6.60712e-05 2.12626e-05 6.67518e-06 2.04317e-06 6.09437e-07 1.77083e-07 5.01098e-08 1.38064e-08 3.70326e-09 9.66993e-10 2.45806e-10 6.08799e-11 1.46255e-11 3.50567e-12 8.49905e-13 5.3502e-14 1.40238e-13 -8.58406e-14 1.50761e-13 5.05764e-14 3.23662e-14 -4.00775e-14 3.29764e-14 -2.00622e-13 -1.44059e-14 -5.86116e-14 4.14747e-14 2.89489e-14 -6.80928e-15 3.84364e-14 9.80772e-14 -2.09959e-14 3.32525e-14 2.3187e-13 2.06049e-14 -8.82659e-14 -1.91908e-13 6.72512e-14 1.69558e-13 -1.10373e-13 2.69141e-14 -1.47871e-13 -1.56767e-13 6.98529e-14 -1.41593e-13 1.79267e-13 -1.60748e-14 -9.63174e-14 -9.35201e-14 1.56799e-13 -2.47822e-14 -1.19544e-13 -2.33599e-14 -4.29539e-14 -3.87218e-14 -1.37641e-13 7.2612e-14 -7.57634e-14 -1.19438e-13 5.58575e-14 -7.81084e-15 2.59922e-14 5.23959e-14 -3.83878e-14 0 0 -3.35883e-16 -2.13119e-16 2.01656e-15 1.23452e-15 2.27925e-15 -7.02923e-16 4.92521e-15 6.69219e-15 4.68418e-15 -1.69356e-14 -2.00802e-16 9.12227e-15 -5.28548e-15 -2.83679e-15 6.57184e-15 -1.0451e-14 8.33467e-15 -2.08441e-16 7.43717e-15 3.87355e-15 5.79628e-15 -9.46336e-15 1.87846e-14 -9.69534e-15 -1.93338e-14 2.6122e-14 -2.75721e-14 -2.20228e-14 1.87661e-14 9.85282e-15 1.74036e-14 6.60701e-15 1.26743e-14 -3.21747e-15 8.64372e-15 3.067e-14 5.20407e-15 2.2755e-15 -2.57043e-14 -1.90089e-14 -1.86559e-14 2.46082e-14 -1.06241e-14 1.01451e-15 2.25161e-14 -9.48596e-15 8.08569e-15 1.80317e-14 2.37409e-14 -2.90259e-14 -2.75869e-14 4.5697e-14 4.22655e-14 -6.05334e-14 1.31743e-14 4.77564e-14 -4.93205e-14 5.37436e-14 2.39954e-14 4.21723e-14 -1.79099e-14 2.44346e-14 -4.16303e-14 -2.31706e-15 1.43981e-14 1.00653e-13 6.52242e-14 2.19502e-13 1.48081e-12 1.80094e-11 1.90705e-10 1.84547e-09 1.62853e-08 1.30371e-07 9.41022e-07 6.07949e-06 3.4845e-05 0.000175268 0.000763365 0.00283318 0.0088109 0.0226798 0.0483511 0.0870141 0.136703 0.194536 0.258597 0.328143 0.403163 0.484009 0.571198 0.665194 0.765819 0.870119 0.963773 0.99305 0.965003 0.946862 0.938409 0.934771 0.934432 0.934114 0.933831 0.933539 0.933288 0.933004 0.932765 0.932478 0.932261 0.932052 0.93181 0.931406 0.930666 0.929195 0.928373 0.927606 0.930033 0.924304 0.889269 0.909525 0.815473 0.752364 0.730626 0.597695 0.497544 0.367696 0.248806 0.146796 0.074665 0.0328799 0.0130073 0.004818 0.00171514 0.000593518 0.000200403 6.60712e-05 2.12626e-05 6.67518e-06 2.04317e-06 6.09437e-07 1.77083e-07 5.01098e-08 1.38064e-08 3.70327e-09 9.66923e-10 2.45868e-10 6.08866e-11 1.45788e-11 3.49076e-12 7.77224e-13 8.35691e-14 1.12268e-13 -6.29121e-15 9.58387e-14 1.04521e-14 2.08557e-13 9.19322e-14 -1.56306e-14 -3.80944e-13 2.16597e-13 -3.34024e-14 -4.22473e-14 4.62697e-14 -1.36334e-13 7.1894e-14 -4.29558e-14 -5.74831e-14 4.48801e-14 3.73688e-13 6.66791e-15 -2.52538e-13 -4.33297e-14 9.7851e-14 -8.22307e-14 -1.88493e-13 -2.07807e-14 -1.23581e-13 -7.94937e-15 1.28658e-13 -1.9521e-13 1.85473e-13 -5.3677e-14 1.47852e-15 -2.22572e-13 1.73597e-13 3.25107e-14 -1.72586e-13 -5.01597e-14 -1.11662e-13 5.91901e-14 -1.28267e-13 1.61295e-13 -2.01023e-14 -2.34305e-13 2.92715e-14 4.10193e-14 6.29517e-14 1.05165e-13 -1.6491e-14 0 0 -1.26546e-15 -1.49028e-15 3.75892e-16 1.52208e-15 -1.00398e-15 2.22091e-15 1.15728e-14 6.77836e-15 1.77292e-14 -3.52037e-14 -8.94143e-16 1.12737e-14 5.88922e-15 -1.29337e-14 9.98804e-15 -6.95499e-15 9.08843e-15 -1.80919e-15 5.96453e-15 7.70395e-15 1.73083e-15 -3.13109e-15 2.107e-14 3.24375e-15 -2.3488e-14 4.25034e-15 -3.60669e-14 -1.02049e-15 5.60989e-15 -1.00716e-15 1.42342e-14 5.26059e-15 4.01778e-14 -2.62315e-14 2.72694e-14 9.56524e-15 2.32993e-14 -2.42931e-14 2.861e-14 -7.68886e-14 2.69221e-14 -1.05516e-15 -3.98641e-14 3.43968e-14 1.9159e-14 1.54904e-14 1.35469e-14 3.09111e-14 -2.67065e-14 -5.51769e-14 5.7401e-14 2.32824e-14 -3.27555e-14 1.28597e-14 -1.52255e-14 2.2726e-14 1.44512e-14 7.57412e-14 5.36291e-15 -2.25574e-15 2.07654e-14 -2.08657e-14 -4.33546e-14 -2.01334e-14 4.37805e-14 1.14976e-13 8.26472e-14 3.36689e-13 1.37971e-12 1.80756e-11 1.90538e-10 1.84554e-09 1.62852e-08 1.30371e-07 9.41022e-07 6.07949e-06 3.4845e-05 0.000175268 0.000763365 0.00283318 0.0088109 0.0226798 0.0483511 0.0870141 0.136703 0.194536 0.258597 0.328143 0.403163 0.484009 0.571198 0.665194 0.765819 0.870119 0.963773 0.99305 0.965003 0.946862 0.938409 0.934771 0.934432 0.934114 0.933831 0.933539 0.933288 0.933004 0.932765 0.932478 0.932261 0.932052 0.93181 0.931406 0.930666 0.929195 0.928373 0.927606 0.930033 0.924304 0.889269 0.909525 0.815473 0.752364 0.730626 0.597695 0.497544 0.367696 0.248806 0.146796 0.074665 0.0328799 0.0130073 0.004818 0.00171514 0.000593518 0.000200403 6.60712e-05 2.12626e-05 6.67518e-06 2.04317e-06 6.09437e-07 1.77083e-07 5.01098e-08 1.38064e-08 3.70322e-09 9.66858e-10 2.45948e-10 6.08918e-11 1.45592e-11 3.53652e-12 6.0463e-13 1.18602e-13 1.10107e-13 8.38437e-14 -1.33147e-13 1.40659e-13 5.15491e-13 -1.60307e-13 -9.32317e-14 -2.32836e-13 2.95548e-13 -4.18922e-14 -3.18187e-14 4.62557e-14 -1.71981e-13 -9.78418e-14 -9.15334e-14 1.25886e-14 8.21536e-14 3.34265e-13 -1.25045e-13 -2.37559e-13 1.64879e-13 2.28113e-14 -1.91195e-13 -7.70896e-14 -8.84901e-14 -1.01229e-13 -3.84345e-14 5.70561e-14 3.19235e-14 6.16753e-14 -1.06375e-14 3.48554e-14 -3.5315e-13 1.0192e-13 5.97245e-14 -2.29064e-13 -5.80293e-14 -9.56403e-14 6.15334e-15 1.14494e-14 2.36149e-13 6.73544e-14 -4.00353e-13 1.8515e-13 5.48027e-14 -9.01895e-14 6.1998e-14 1.86481e-13 0
				</DataArray>
				<DataArray Name="VitesseY" type="Float32" format="ascii">