<?xml version="1.0"?>
<VTKFile type="PolyData">
	<PolyData>
		<Piece NumberOfPoints="1206" NumberOfPolys="1000">
			<Points>
				<DataArray type="Float32" NumberOfComponents="3" format="ascii">
 0 0 0 0.005 0 0 0.01 0 0 0.015 0 0 0.02 0 0 0.025 0 0 0.03 0 0 0.035 0 0 0.04 0 0 0.045 0 0 0.05 0 0 0.055 0 0 0.06 0 0 0.065 0 0 0.07 0 0 0.075 0 0 0.08 0 0 0.085 0 0 0.09 0 0 0.095 0 0 0.1 0 0 0.105 0 0 0.11 0 0 0.115 0 0 0.12 0 0 0.125 0 0 0.13 0 0 0.135 0 0 0.14 0 0 0.145 0 0 0.15 0 0 0.155 0 0 0.16 0 0 0.165 0 0 0.17 0 0 0.175 0 0 0.18 0 0 0.185 0 0 0.19 0 0 0.195 0 0 0.2 0 0 0.205 0 0 0.21 0 0 0.215 0 0 0.22 0 0 0.225 0 0 0.23 0 0 0.235 0 0 0.24 0 0 0.245 0 0 0.25 0 0 0.255 0 0 0.26 0 0 0.265 0 0 0.27 0 0 0.275 0 0 0.28 0 0 0.285 0 0 0.29 0 0 0.295 0 0 0.3 0 0 0.305 0 0 0.31 0 0 0.315 0 0 0.32 0 0 0.325 0 0 0.33 0 0 0.335 0 0 0.34 0 0 0.345 0 0 0.35 0 0 0.355 0 0 0.36 0 0 0.365 0 0 0.37 0 0 0.375 0 0 0.38 0 0 0.385 0 0 0.39 0 0 0.395 0 0 0.4 0 0 0.405 0 0 0.41 0 0 0.415 0 0 0.42 0 0 0.425 0 0 0.43 0 0 0.435 0 0 0.44 0 0 0.445 0 0 0.45 0 0 0.455 0 0 0.46 0 0 0.465 0 0 0.47 0 0 0.475 0 0 0.48 0 0 0.485 0 0 0.49 0 0 0.495 0 0 0.5 0 0 0.505 0 0 0.51 0 0 0.515 0 0 0.52 0 0 0.525 0 0 0.53 0 0 0.535 0 0 0.54 0 0 0.545 0 0 0.55 0 0 0.555 0 0 0.56 0 0 0.565 0 0 0.57 0 0 0.575 0 0 0.58 0 0 0.585 0 0 0.59 0 0 0.595 0 0 0.6 0 0 0.605 0 0 0.61 0 0 0.615 0 0 0.62 0 0 0.625 0 0 0.63 0 0 0.635 0 0 0.64 0 0 0.645 0 0 0.65 0 0 0.655 0 0 0.66 0 0 0.665 0 0 0.67 0 0 0.675 0 0 0.68 0 0 0.685 0 0 0.69 0 0 0.695 0 0 0.7 0 0 0.705 0 0 0.71 0 0 0.715 0 0 0.72 0 0 0.725 0 0 0.73 0 0 0.735 0 0 0.74 0 0 0.745 0 0 0.75 0 0 0.755 0 0 0.76 0 0 0.765 0 0 0.77 0 0 0.775 0 0 0.78 0 0 0.785 0 0 0.79 0 0 0.795 0 0 0.8 0 0 0.805 0 0 0.81 0 0 0.815 0 0 0.82 0 0 0.825 0 0 0.83 0 0 0.835 0 0 0.84 0 0 0.845 0 0 0.85 0 0 0.855 0 0 0.86 0 0 0.865 0 0 0.87 0 0 0.875 0 0 0.88 0 0 0.885 0 0 0.89 0 0 0.895 0 0 0.9 0 0 0.905 0 0 0.91 0 0 0.915 0 0 0.92 0 0 0.925 0 0 0.93 0 0 0.935 0 0 0.94 0 0 0.945 0 0 0.95 0 0 0.955 0 0 0.96 0 0 0.965 0 0 0.97 0 0 0.975 0 0 0.98 0 0 0.985 0 0 0.99 0 0 0.995 0 0 1 0 0 0 0.02 0 0.005 0.02 0 0.01 0.02 0 0.015 0.02 0 0.02 0.02 0 0.025 0.02 0 0.03 0.02 0 0.035 0.02 0 0.04 0.02 0 0.045 0.02 0 0.05 0.02 0 0.055 0.02 0 0.06 0.02 0 0.065 0.02 0 0.07 0.02 0 0.075 0.02 0 0.08 0.02 0 0.085 0.02 0 0.09 0.02 0 0.095 0.02 0 0.1 0.02 0 0.105 0.02 0 0.11 0.02 0 0.115 0.02 0 0.12 0.02 0 0.125 0.02 0 0.13 0.02 0 0.135 0.02 0 0.14 0.02 0 0.145 0.02 0 0.15 0.02 0 0.155 0.02 0 0.16 0.02 0 0.165 0.02 0 0.17 0.02 0 0.175 0.02 0 0.18 0.02 0 0.185 0.02 0 0.19 0.02 0 0.195 0.02 0 0.2 0.02 0 0.205 0.02 0 0.21 0.02 0 0.215 0.02 0 0.22 0.02 0 0.225 0.02 0 0.23 0.02 0 0.235 0.02 0 0.24 0.02 0 0.245 0.02 0 0.25 0.02 0 0.255 0.02 0 0.26 0.02 0 0.265 0.02 0 0.27 0.02 0 0.275 0.02 0 0.28 0.02 0 0.285 0.02 0 0.29 0.02 0 0.295 0.02 0 0.3 0.02 0 0.305 0.02 0 0.31 0.02 0 0.315 0.02 0 0.32 0.02 0 0.325 0.02 0 0.33 0.02 0 0.335 0.02 0 0.34 0.02 0 0.345 0.02 0 0.35 0.02 0 0.355 0.02 0 0.36 0.02 0 0.365 0.02 0 0.37 0.02 0 0.375 0.02 0 0.38 0.02 0 0.385 0.02 0 0.39 0.02 0 0.395 0.02 0 0.4 0.02 0 0.405 0.02 0 0.41 0.02 0 0.415 0.02 0 0.42 0.02 0 0.425 0.02 0 0.43 0.02 0 0.435 0.02 0 0.44 0.02 0 0.445 0.02 0 0.45 0.02 0 0.455 0.02 0 0.46 0.02 0 0.465 0.02 0 0.47 0.02 0 0.475 0.02 0 0.48 0.02 0 0.485 0.02 0 0.49 0.02 0 0.495 0.02 0 0.5 0.02 0 0.505 0.02 0 0.51 0.02 0 0.515 0.02 0 0.52 0.02 0 0.525 0.02 0 0.53 0.02 0 0.535 0.02 0 0.54 0.02 0 0.545 0.02 0 0.55 0.02 0 0.555 0.02 0 0.56 0.02 0 0.565 0.02 0 0.57 0.02 0 0.575 0.02 0 0.58 0.02 0 0.585 0.02 0 0.59 0.02 0 0.595 0.02 0 0.6 0.02 0 0.605 0.02 0 0.61 0.02 0 0.615 0.02 0 0.62 0.02 0 0.625 0.02 0 0.63 0.02 0 0.635 0.02 0 0.64 0.02 0 0.645 0.02 0 0.65 0.02 0 0.655 0.02 0 0.66 0.02 0 0.665 0.02 0 0.67 0.02 0 0.675 0.02 0 0.68 0.02 0 0.685 0.02 0 0.69 0.02 0 0.695 0.02 0 0.7 0.02 0 0.705 0.02 0 0.71 0.02 0 0.715 0.02 0 0.72 0.02 0 0.725 0.02 0 0.73 0.02 0 0.735 0.02 0 0.74 0.02 0 0.745 0.02 0 0.75 0.02 0 0.755 0.02 0 0.76 0.02 0 0.765 0.02 0 0.77 0.02 0 0.775 0.02 0 0.78 0.02 0 0.785 0.02 0 0.79 0.02 0 0.795 0.02 0 0.8 0.02 0 0.805 0.02 0 0.81 0.02 0 0.815 0.02 0 0.82 0.02 0 0.825 0.02 0 0.83 0.02 0 0.835 0.02 0 0.84 0.02 0 0.845 0.02 0 0.85 0.02 0 0.855 0.02 0 0.86 0.02 0 0.865 0.02 0 0.87 0.02 0 0.875 0.02 0 0.88 0.02 0 0.885 0.02 0 0.89 0.02 0 0.895 0.02 0 0.9 0.02 0 0.905 0.02 0 0.91 0.02 0 0.915 0.02 0 0.92 0.02 0 0.925 0.02 0 0.93 0.02 0 0.935 0.02 0 0.94 0.02 0 0.945 0.02 0 0.95 0.02 0 0.955 0.02 0 0.96 0.02 0 0.965 0.02 0 0.97 0.02 0 0.975 0.02 0 0.98 0.02 0 0.985 0.02 0 0.99 0.02 0 0.995 0.02 0 1 0.02 0 0 0.04 0 0.005 0.04 0 0.01 0.04 0 0.015 0.04 0 0.02 0.04 0 0.025 0.04 0 0.03 0.04 0 0.035 0.04 0 0.04 0.04 0 0.045 0.04 0 0.05 0.04 0 0.055 0.04 0 0.06 0.04 0 0.065 0.04 0 0.07 0.04 0 0.075 0.04 0 0.08 0.04 0 0.085 0.04 0 0.09 0.04 0 0.095 0.04 0 0.1 0.04 0 0.105 0.04 0 0.11 0.04 0 0.115 0.04 0 0.12 0.04 0 0.125 0.04 0 0.13 0.04 0 0.135 0.04 0 0.14 0.04 0 0.145 0.04 0 0.15 0.04 0 0.155 0.04 0 0.16 0.04 0 0.165 0.04 0 0.17 0.04 0 0.175 0.04 0 0.18 0.04 0 0.185 0.04 0 0.19 0.04 0 0.195 0.04 0 0.2 0.04 0 0.205 0.04 0 0.21 0.04 0 0.215 0.04 0 0.22 0.04 0 0.225 0.04 0 0.23 0.04 0 0.235 0.04 0 0.24 0.04 0 0.245 0.04 0 0.25 0.04 0 0.255 0.04 0 0.26 0.04 0 0.265 0.04 0 0.27 0.04 0 0.275 0.04 0 0.28 0.04 0 0.285 0.04 0 0.29 0.04 0 0.295 0.04 0 0.3 0.04 0 0.305 0.04 0 0.31 0.04 0 0.315 0.04 0 0.32 0.04 0 0.325 0.04 0 0.33 0.04 0 0.335 0.04 0 0.34 0.04 0 0.345 0.04 0 0.35 0.04 0 0.355 0.04 0 0.36 0.04 0 0.365 0.04 0 0.37 0.04 0 0.375 0.04 0 0.38 0.04 0 0.385 0.04 0 0.39 0.04 0 0.395 0.04 0 0.4 0.04 0 0.405 0.04 0 0.41 0.04 0 0.415 0.04 0 0.42 0.04 0 0.425 0.04 0 0.43 0.04 0 0.435 0.04 0 0.44 0.04 0 0.445 0.04 0 0.45 0.04 0 0.455 0.04 0 0.46 0.04 0 0.465 0.04 0 0.47 0.04 0 0.475 0.04 0 0.48 0.04 0 0.485 0.04 0 0.49 0.04 0 0.495 0.04 0 0.5 0.04 0 0.505 0.04 0 0.51 0.04 0 0.515 0.04 0 0.52 0.04 0 0.525 0.04 0 0.53 0.04 0 0.535 0.04 0 0.54 0.04 0 0.545 0.04 0 0.55 0.04 0 0.555 0.04 0 0.56 0.04 0 0.565 0.04 0 0.57 0.04 0 0.575 0.04 0 0.58 0.04 0 0.585 0.04 0 0.59 0.04 0 0.595 0.04 0 0.6 0.04 0 0.605 0.04 0 0.61 0.04 0 0.615 0.04 0 0.62 0.04 0 0.625 0.04 0 0.63 0.04 0 0.635 0.04 0 0.64 0.04 0 0.645 0.04 0 0.65 0.04 0 0.655 0.04 0 0.66 0.04 0 0.665 0.04 0 0.67 0.04 0 0.675 0.04 0 0.68 0.04 0 0.685 0.04 0 0.69 0.04 0 0.695 0.04 0 0.7 0.04 0 0.705 0.04 0 0.71 0.04 0 0.715 0.04 0 0.72 0.04 0 0.725 0.04 0 0.73 0.04 0 0.735 0.04 0 0.74 0.04 0 0.745 0.04 0 0.75 0.04 0 0.755 0.04 0 0.76 0.04 0 0.765 0.04 0 0.77 0.04 0 0.775 0.04 0 0.78 0.04 0 0.785 0.04 0 0.79 0.04 0 0.795 0.04 0 0.8 0.04 0 0.805 0.04 0 0.81 0.04 0 0.815 0.04 0 0.82 0.04 0 0.825 0.04 0 0.83 0.04 0 0.835 0.04 0 0.84 0.04 0 0.845 0.04 0 0.85 0.04 0 0.855 0.04 0 0.86 0.04 0 0.865 0.04 0 0.87 0.04 0 0.875 0.04 0 0.88 0.04 0 0.885 0.04 0 0.89 0.04 0 0.895 0.04 0 0.9 0.04 0 0.905 0.04 0 0.91 0.04 0 0.915 0.04 0 0.92 0.04 0 0.925 0.04 0 0.93 0.04 0 0.935 0.04 0 0.94 0.04 0 0.945 0.04 0 0.95 0.04 0 0.955 0.04 0 0.96 0.04 0 0.965 0.04 0 0.97 0.04 0 0.975 0.04 0 0.98 0.04 0 0.985 0.04 0 0.99 0.04 0 0.995 0.04 0 1 0.04 0 0 0.06 0 0.005 0.06 0 0.01 0.06 0 0.015 0.06 0 0.02 0.06 0 0.025 0.06 0 0.03 0.06 0 0.035 0.06 0 0.04 0.06 0 0.045 0.06 0 0.05 0.06 0 0.055 0.06 0 0.06 0.06 0 0.065 0.06 0 0.07 0.06 0 0.075 0.06 0 0.08 0.06 0 0.085 0.06 0 0.09 0.06 0 0.095 0.06 0 0.1 0.06 0 0.105 0.06 0 0.11 0.06 0 0.115 0.06 0 0.12 0.06 0 0.125 0.06 0 0.13 0.06 0 0.135 0.06 0 0.14 0.06 0 0.145 0.06 0 0.15 0.06 0 0.155 0.06 0 0.16 0.06 0 0.165 0.06 0 0.17 0.06 0 0.175 0.06 0 0.18 0.06 0 0.185 0.06 0 0.19 0.06 0 0.195 0.06 0 0.2 0.06 0 0.205 0.06 0 0.21 0.06 0 0.215 0.06 0 0.22 0.06 0 0.225 0.06 0 0.23 0.06 0 0.235 0.06 0 0.24 0.06 0 0.245 0.06 0 0.25 0.06 0 0.255 0.06 0 0.26 0.06 0 0.265 0.06 0 0.27 0.06 0 0.275 0.06 0 0.28 0.06 0 0.285 0.06 0 0.29 0.06 0 0.295 0.06 0 0.3 0.06 0 0.305 0.06 0 0.31 0.06 0 0.315 0.06 0 0.32 0.06 0 0.325 0.06 0 0.33 0.06 0 0.335 0.06 0 0.34 0.06 0 0.345 0.06 0 0.35 0.06 0 0.355 0.06 0 0.36 0.06 0 0.365 0.06 0 0.37 0.06 0 0.375 0.06 0 0.38 0.06 0 0.385 0.06 0 0.39 0.06 0 0.395 0.06 0 0.4 0.06 0 0.405 0.06 0 0.41 0.06 0 0.415 0.06 0 0.42 0.06 0 0.425 0.06 0 0.43 0.06 0 0.435 0.06 0 0.44 0.06 0 0.445 0.06 0 0.45 0.06 0 0.455 0.06 0 0.46 0.06 0 0.465 0.06 0 0.47 0.06 0 0.475 0.06 0 0.48 0.06 0 0.485 0.06 0 0.49 0.06 0 0.495 0.06 0 0.5 0.06 0 0.505 0.06 0 0.51 0.06 0 0.515 0.06 0 0.52 0.06 0 0.525 0.06 0 0.53 0.06 0 0.535 0.06 0 0.54 0.06 0 0.545 0.06 0 0.55 0.06 0 0.555 0.06 0 0.56 0.06 0 0.565 0.06 0 0.57 0.06 0 0.575 0.06 0 0.58 0.06 0 0.585 0.06 0 0.59 0.06 0 0.595 0.06 0 0.6 0.06 0 0.605 0.06 0 0.61 0.06 0 0.615 0.06 0 0.62 0.06 0 0.625 0.06 0 0.63 0.06 0 0.635 0.06 0 0.64 0.06 0 0.645 0.06 0 0.65 0.06 0 0.655 0.06 0 0.66 0.06 0 0.665 0.06 0 0.67 0.06 0 0.675 0.06 0 0.68 0.06 0 0.685 0.06 0 0.69 0.06 0 0.695 0.06 0 0.7 0.06 0 0.705 0.06 0 0.71 0.06 0 0.715 0.06 0 0.72 0.06 0 0.725 0.06 0 0.73 0.06 0 0.735 0.06 0 0.74 0.06 0 0.745 0.06 0 0.75 0.06 0 0.755 0.06 0 0.76 0.06 0 0.765 0.06 0 0.77 0.06 0 0.775 0.06 0 0.78 0.06 0 0.785 0.06 0 0.79 0.06 0 0.795 0.06 0 0.8 0.06 0 0.805 0.06 0 0.81 0.06 0 0.815 0.06 0 0.82 0.06 0 0.825 0.06 0 0.83 0.06 0 0.835 0.06 0 0.84 0.06 0 0.845 0.06 0 0.85 0.06 0 0.855 0.06 0 0.86 0.06 0 0.865 0.06 0 0.87 0.06 0 0.875 0.06 0 0.88 0.06 0 0.885 0.06 0 0.89 0.06 0 0.895 0.06 0 0.9 0.06 0 0.905 0.06 0 0.91 0.06 0 0.915 0.06 0 0.92 0.06 0 0.925 0.06 0 0.93 0.06 0 0.935 0.06 0 0.94 0.06 0 0.945 0.06 0 0.95 0.06 0 0.955 0.06 0 0.96 0.06 0 0.965 0.06 0 0.97 0.06 0 0.975 0.06 0 0.98 0.06 0 0.985 0.06 0 0.99 0.06 0 0.995 0.06 0 1 0.06 0 0 0.08 0 0.005 0.08 0 0.01 0.08 0 0.015 0.08 0 0.02 0.08 0 0.025 0.08 0 0.03 0.08 0 0.035 0.08 0 0.04 0.08 0 0.045 0.08 0 0.05 0.08 0 0.055 0.08 0 0.06 0.08 0 0.065 0.08 0 0.07 0.08 0 0.075 0.08 0 0.08 0.08 0 0.085 0.08 0 0.09 0.08 0 0.095 0.08 0 0.1 0.08 0 0.105 0.08 0 0.11 0.08 0 0.115 0.08 0 0.12 0.08 0 0.125 0.08 0 0.13 0.08 0 0.135 0.08 0 0.14 0.08 0 0.145 0.08 0 0.15 0.08 0 0.155 0.08 0 0.16 0.08 0 0.165 0.08 0
[...]
			<PointData Scalars="VitesseX">
				<DataArray Name="VitesseX" type="Float32" format="ascii">
 0 -1.74172e-14 9.1911e-15 -5.15761e-14 -2.49876e-14 -3.61575e-15 -8.98851e-15 -1.11529e-13 -1.33143e-14 -1.00773e-13 -8.29296e-14 2.03989e-14 -4.53516e-14 -2.92965e-14 -1.45177e-13 -3.89517e-14 -1.5389e-13 -1.20978e-13 -5.65332e-14 1.54819e-14 -2.78046e-14 3.91875e-14 -9.73023e-14 1.34566e-13 -2.42779e-13 2.61095e-16 6.26457e-14 -1.78982e-13 -3.37069e-13 1.47017e-13 5.54443e-14 -3.3682e-14 -6.20825e-14 -4.10561e-14 -3.1061e-13 -5.69396e-14 -2.01466e-13 1.78986e-13 -3.20941e-13 -6.04211e-14 -2.84282e-13 -1.32796e-13 -3.05522e-13 -1.34551e-13 -1.59284e-13 -1.72963e-13 -7.42315e-14 -8.29602e-14 1.59264e-13 -1.38256e-13 3.10014e-13 2.90453e-13 -1.08299e-13 -4.06791e-13 -4.02507e-13 -3.53505e-13 -1.99258e-13 -4.52303e-13 1.05572e-13 1.04802e-13 1.22835e-13 2.03151e-13 1.34586e-13 1.39372e-13 3.81539e-12 3.57095e-11 3.10383e-10 2.4927e-09 1.8477e-08 1.25985e-07 7.86181e-07 4.46341e-06 2.28926e-05 0.000105175 0.000428348 0.001527 0.00469577 0.0122812 0.027093 0.0506693 0.0821092 0.119085 0.159492 0.201983 0.245823 0.29057 0.336005 0.382093 0.428955 0.475984 0.519389 0.563296 0.604503 0.645711 0.685991 0.723949 0.762354 0.797618 0.830386 0.862583 0.886034 0.90659 0.922187 0.927649 0.931739 0.933611 0.933502 0.932992 0.932349 0.931742 0.93116 0.930536 0.929818 0.928982 0.927984 0.926526 0.931186 0.931226 0.927797 0.927391 0.927505 0.927913 0.928108 0.927819 0.926925 0.924984 0.921047 0.912968 0.896813 0.866512 0.814179 0.732407 0.61886 0.481633 0.338931 0.212177 0.116012 0.0550862 0.0232094 0.00904055 0.0033739 0.00123037 0.000442055 0.000156902 5.50426e-05 1.90789e-05 6.53033e-06 2.20586e-06 7.34896e-07 2.41352e-07 7.81015e-08 2.48921e-08 7.81207e-09 2.41255e-09 7.33426e-10 2.1915e-10 6.47063e-11 1.84003e-11 4.88268e-12 9.61086e-13 3.79942e-13 9.06097e-14 -4.70058e-13 -4.59958e-13 1.54652e-13 2.49949e-13 -7.67036e-13 -4.18064e-13 -2.4615e-13 1.62553e-12 -2.5856e-13 -7.76472e-13 1.77614e-13 -5.66311e-13 3.81463e-13 -7.41545e-13 -1.30681e-14 -2.64284e-13 -1.05678e-12 1.07957e-12 -9.84301e-14 -2.64288e-13 7.88588e-13 -1.15674e-12 7.84662e-13 -4.06217e-13 -2.27675e-13 2.194e-13 -1.05936e-12 -1.38337e-13 -7.267e-13 -1.90653e-13 6.99674e-13 -7.66269e-13 -6.76419e-13 -1.70239e-13 1.10066e-12 9.25458e-13 -3.23569e-13 -2.60518e-13 0 0 -3.90051e-15 -4.20423e-14 8.2904e-15 -4.83009e-14 -5.15126e-14 -2.638e-14 1.74108e-14 -8.01578e-14 4.21637e-14 -3.70151e-14 -1.00759e-13 -1.97727e-14 -7.07375e-14 -5.494e-14 -1.42653e-13 -4.73061e-14 -1.05168e-13 -8.15479e-14 -8.25405e-14 -6.62775e-14 3.35914e-15 9.97281e-14 -2.89238e-13 1.75172e-13 -1.18361e-13 -2.37076e-13 -6.69188e-14 5.77951e-14 -6.91654e-14 -6.07182e-14 3.08614e-15 3.17252e-14 -6.06079e-14 -5.92402e-14 -3.13516e-13 3.73825e-14 -3.65689e-13 1.08033e-13 -2.74629e-13 -1.69582e-13 -3.29319e-13 -6.97742e-14 -2.04953e-13 -2.21517e-13 1.12671e-13 4.99403e-14 1.27395e-13 8.57333e-14 2.9266e-13 2.20524e-13 -3.31685e-13 -2.21561e-13 -1.17903e-13 -1.43237e-13 -3.76085e-13 -4.52328e-13 -9.13567e-14 -5.5982e-14 -1.35646e-13 1.49172e-13 1.18696e-13 -8.89307e-14 4.88381e-13 3.60912e-12 3.5855e-11 3.10733e-10 2.49277e-09 1.8477e-08 1.25985e-07 7.86182e-07 4.46341e-06 2.28926e-05 0.000105175 0.000428348 0.001527 0.00469577 0.0122812 0.027093 0.0506693 0.0821092 0.119085 0.159492 0.201983 0.245823 0.29057 0.336005 0.382093 0.428955 0.475984 0.519389 0.563296 0.604503 0.645711 0.685991 0.723949 0.762354 0.797618 0.830386 0.862583 0.886034 0.90659 0.922187 0.927649 0.931739 0.933611 0.933502 0.932992 0.932349 0.931742 0.93116 0.930536 0.929818 0.928982 0.927984 0.926526 0.931186 0.931226 0.927797 0.927391 0.927505 0.927913 0.928108 0.927819 0.926925 0.924984 0.921047 0.912968 0.896813 0.866512 0.814179 0.732407 0.61886 0.481633 0.338931 0.212177 0.116012 0.0550862 0.0232094 0.00904055 0.0033739 0.00123037 0.000442055 0.000156902 5.50426e-05 1.90789e-05 6.53033e-06 2.20586e-06 7.34897e-07 2.41353e-07 7.81006e-08 2.48929e-08 7.81146e-09 2.41307e-09 7.33331e-10 2.192e-10 6.40693e-11 1.85651e-11 5.13098e-12 1.59999e-12 1.36973e-14 -5.11401e-13 -3.17512e-13 -2.64821e-13 -1.94929e-13 -3.40286e-13 -1.23362e-13 2.0565e-13 4.79597e-13 -6.56109e-13 1.74972e-13 -8.66248e-14 -9.74272e-14 -2.04665e-13 -5.99542e-13 8.43769e-14 -5.524e-13 7.91868e-14 2.38464e-13 -4.56745e-13 1.39394e-13 3.0224e-13 -3.39658e-13 3.54157e-13 -6.36095e-13 6.96135e-13 -6.7717e-13 -3.6398e-13 1.46626e-13 -5.45831e-13 1.72206e-14 -4.68665e-13 -1.05426e-12 4.17637e-13 -1.59901e-13 3.45843e-13 -3.43744e-14 -2.32514e-13 1.11027e-12 6.39224e-13 0 0 -9.46099e-15 6.57352e-15 -2.42006e-14 1.07592e-14 -2.35787e-14 7.04922e-15 -7.67233e-14 3.41895e-14 1.48856e-14 1.81378e-14 -1.15385e-15 -4.96379e-14 -1.20266e-13 -8.50924e-14 -6.11494e-14 -1.53079e-13 -5.47748e-14 -8.97301e-14 -1.06233e-13 -8.60218e-14 -4.14672e-14 -2.55161e-13 -1.79654e-14 -1.48455e-13 -9.61279e-14 5.91194e-14 -7.30933e-15 -2.46729e-13 9.33529e-14 5.01419e-14 4.70724e-14 -5.18581e-14 -6.31639e-14 2.05432e-15 -5.39731e-14 -2.86679e-13 -1.33028e-13 -2.07646e-13 -2.24282e-13 -9.55825e-14 -1.01342e-13 -1.93385e-13 -8.63219e-14 1.84435e-13 -1.12403e-13 -7.9167e-14 -7.47983e-15 1.67812e-13 5.68888e-14 -1.17026e-13 5.96495e-14 -5.62174e-14 -1.63899e-13 -1.49683e-13 -5.40604e-14 -1.46325e-13 -3.49885e-13 3.08032e-14 1.34445e-13 -1.42456e-13 1.73699e-14 1.2344e-13 1.15232e-13 3.85439e-12 3.60412e-11 3.10953e-10 2.49277e-09 1.84772e-08 1.25985e-07 7.86181e-07 4.46341e-06 2.28926e-05 0.000105175 0.000428348 0.001527 0.00469577 0.0122812 0.027093 0.0506693 0.0821092 0.119085 0.159492 0.201983 0.245823 0.29057 0.336005 0.382093 0.428955 0.475984 0.519389 0.563296 0.604503 0.645711 0.685991 0.723949 0.762354 0.797618 0.830386 0.862583 0.886034 0.90659 0.922187 0.927649 0.931739 0.933611 0.933502 0.932992 0.932349 0.931742 0.93116 0.930536 0.929818 0.928982 0.927984 0.926526 0.931186 0.931226 0.927797 0.927391 0.927505 0.927913 0.928108 0.927819 0.926925 0.924984 0.921047 0.912968 0.896813 0.866512 0.814179 0.732407 0.61886 0.481633 0.338931 0.212177 0.116012 0.0550862 0.0232094 0.00904055 0.0033739 0.00123037 0.000442055 0.000156902 5.50426e-05 1.90789e-05 6.53033e-06 2.20586e-06 7.34896e-07 2.41353e-07 7.81011e-08 2.48924e-08 7.81193e-09 2.41305e-09 7.33486e-10 2.19001e-10 6.42148e-11 1.83801e-11 5.2354e-12 1.38089e-12 3.4816e-13 -3.44616e-13 -3.31022e-13 -1.87399e-13 -2.81293e-13 -3.57083e-13 -2.44776e-13 2.5905e-13 -3.08315e-13 -4.07572e-13 -1.10631e-13 4.49072e-14 -2.74806e-13 -5.82155e-13 2.24183e-13 -3.45957e-13 -3.66698e-13 -1.60748e-13 1.23838e-13 2.60631e-13 -2.48847e-13 -1.21001e-13 4.50928e-14 -2.41023e-13 2.14479e-13 2.56985e-14 1.59407e-13 -1.99628e-13 -3.61846e-13 -2.56397e-13 -1.5953e-13 -5.19183e-13 7.98097e-13 -6.22875e-13 5.91581e-13 6.56502e-15 -4.68672e-14 -1.96324e-13 -2.1963e-13 3.88854e-14 0 0 -4.39451e-15 9.2646e-15 -9.78735e-15 1.56923e-14 6.02564e-14 3.17574e-14 3.76474e-14 3.13917e-14 -1.04301e-14 -8.80229e-15 -9.16223e-15 -4.24023e-14 -9.21355e-14 -2.26422e-13 -3.10741e-14 -2.1648e-15 -1.78456e-13 -1.86523e-13 -5.29903e-14 -1.82448e-13 -5.73651e-14 -1.91295e-13 -1.53697e-13 -9.56523e-14 1.4501e-14 3.36272e-14 -1.82212e-13 2.08547e-14 2.07427e-13 3.12163e-14 5.63377e-14 -2.44963e-13 4.5964e-15 -1.70984e-13 4.17977e-14 -6.48164e-14 -2.29353e-13 -1.81623e-13 3.6609e-14 -6.39764e-14 5.02845e-14 -1.34802e-13 -2.97723e-13 -6.28344e-14 -1.86656e-13 -3.74238e-14 -5.00832e-13 1.26475e-13 -2.92951e-13 1.13529e-13 2.87047e-13 -1.75104e-13 -1.46724e-13 -1.28191e-14 -1.71385e-13 -1.49309e-13 -2.65047e-13 1.46027e-13 1.95018e-13 4.45779e-13 -4.01379e-14 8.2227e-14 1.13035e-13 3.9093e-12 3.591e-11 3.10997e-10 2.49291e-09 1.84767e-08 1.25985e-07 7.86182e-07 4.46341e-06 2.28926e-05 0.000105175 0.000428348 0.001527 0.00469577 0.0122812 0.027093 0.0506693 0.0821092 0.119085 0.159492 0.201983 0.245823 0.29057 0.336005 0.382093 0.428955 0.475984 0.519389 0.563296 0.604503 0.645711 0.685991 0.723949 0.762354 0.797618 0.830386 0.862583 0.886034 0.90659 0.922187 0.927649 0.931739 0.933611 0.933502 0.932992 0.932349 0.931742 0.93116 0.930536 0.929818 0.928982 0.927984 0.926526 0.931186 0.931226 0.927797 0.927391 0.927505 0.927913 0.928108 0.927819 0.926925 0.924984 0.921047 0.912968 0.896813 0.866512 0.814179 0.732407 0.61886 0.481633 0.338931 0.212177 0.116012 0.0550862 0.0232094 0.00904055 0.0033739 0.00123037 0.000442055 0.000156902 5.50426e-05 1.90789e-05 6.53033e-06 2.20586e-06 7.34896e-07 2.41353e-07 7.81013e-08 2.48925e-08 7.81222e-09 2.41309e-09 7.33621e-10 2.1926e-10 6.45348e-11 1.8288e-11 4.99947e-12 8.8194e-13 2.36618e-13 4.80391e-13 5.14639e-13 -2.25606e-13 -7.4759e-13 -1.9418e-13 -4.66571e-13 -6.38179e-13 -1.36234e-13 4.68018e-14 -2.81481e-13 -3.31888e-13 3.11774e-14 -5.20221e-14 -1.62165e-13 -6.61458e-13 2.44403e-13 -5.38391e-13 -2.25383e-13 -1.7144e-13 -2.92903e-14 -2.50001e-13 5.38508e-13 -7.54552e-13 4.15805e-13 -6.07143e-13 3.82453e-13 2.74204e-13 -5.93789e-13 -8.80742e-14 -2.86938e-13 3.57012e-13 2.25526e-13 3.8185e-13 -1.6225e-13 -4.19516e-13 7.17067e-14 -4.8874e-14 -2.30677e-13 -7.70145e-13 0 0 1.64765e-15 -1.47711e-14 6.45367e-14 1.30035e-14 5.31857e-14 4.34059e-14 1.34653e-13 -4.62594e-14 8.96355e-14 -7.15534e-14 -1.11318e-13 -1.05245e-14 -1.29319e-13 -1.61828e-13 -1.81298e-13 -4.36631e-14 -1.45784e-13 -7.11361e-14 -6.19435e-14 -1.54146e-13 -5.19406e-14 6.88879e-14 -3.28089e-13 2.21529e-13 3.04579e-14 -1.34809e-13 -5.48864e-14 3.0029e-13 -9.07869e-14 -6.27427e-14 -1.89028e-13 -1.25169e-13 -1.26691e-13 -7.78616e-14 -3.03288e-13 4.33125e-13 -4.30241e-13 1.06781e-13 -7.73515e-14 -1.96904e-13 -2.91353e-13 -2.91385e-15 -1.09484e-13 -2.45426e-13 6.82649e-14 4.33298e-14 -2.21879e-13 6.07023e-14 3.28054e-14 2.13411e-13 -4.83495e-13 -4.81272e-13 1.18836e-13 -1.05839e-13 -3.83146e-13 -3.60661e-13 2.81652e-13 -1.20208e-13 -6.1811e-14 2.79802e-13 1.27749e-13 -7.73086e-14 6.12749e-13 3.75612e-12 3.59695e-11 3.11013e-10 2.49308e-09 1.84767e-08 1.25985e-07 7.86182e-07 4.46341e-06 2.28926e-05 0.000105175 0.000428348 0.001527 0.00469577 0.0122812 0.027093 0.0506693 0.0821092 0.119085 0.159492 0.201983 0.245823 0.29057 0.336005 0.382093 0.428955 0.475984 0.519389 0.563296 0.604503 0.645711 0.685991 0.723949 0.762354 0.797618 0.830386 0.862583 0.886034 0.90659 0.922187 0.927649 0.931739 0.933611 0.933502 0.932992 0.932349 0.931742 0.93116 0.930536 0.929818 0.928982 0.927984 0.926526 0.931186 0.931226 0.927797 0.927391 0.927505 0.927913 0.928108 0.927819 0.926925 0.924984 0.921047 0.912968 0.896813 0.866512 0.814179 0.732407 0.61886 0.481633 0.338931 0.212177 0.116012 0.0550862 0.0232094 0.00904055 0.0033739 0.00123037 0.000442055 0.000156902 5.50426e-05 1.90789e-05 6.53033e-06 2.20586e-06 7.34897e-07 2.41353e-07 7.81007e-08 2.48929e-08 7.81187e-09 2.4133e-09 7.33778e-10 2.19469e-10 6.41576e-11 1.8652e-11 5.03569e-12 1.41792e-12 2.04111e-13 8.50576e-15 4.17747e-13 -2.35511e-13 -2.4839e-13 -9.20155e-13 -3.14594e-13 -3.20172e-13 6.32646e-13 -6.14138e-13 -1.0363e-13 -2.74961e-13 -8.39432e-14 2.03645e-13 -1.0832e-12 1.59005e-14 -5.65407e-14 -2.02085e-13 3.21354e-13 -6.62132e-13 2.51e-13 -1.73059e-13 -2.40775e-13 1.52596e-13 -2.41646e-13 1.86228e-13 -2.73191e-13 -1.22538e-13 1.57165e-13 -5.04158e-13 6.4436e-14 5.93577e-13 -9.07198e-13 7.94026e-13 -3.86095e-13 2.07796e-13 -5.36238e-13 -2.77857e-13 6.34619e-13 -1.76803e-13 0 0 -1.64538e-14 5.83514e-14 3.20899e-14 8.77551e-14 3.81107e-14 8.1167e-14 -1.05786e-13 6.00782e-14 4.48016e-14 -9.81262e-14 1.52988e-14 -4.13265e-14 -2.0272e-13 -7.62947e-14 -1.76391e-13 -4.48433e-13 4.51532e-14 1.57876e-13 -4.98087e-14 -1.06892e-14 -3.96161e-14 -2.86714e-13 3.28327e-13 -2.5567e-13 7.66413e-14 3.18164e-13 1.94889e-13 -3.87246e-13 -1.24373e-13 8.92465e-14 -4.36441e-13 1.03383e-14 -3.08743e-13 -1.77698e-15 -2.28025e-13 1.46294e-13 2.42533e-13 -3.75491e-13 -1.87649e-13 -4.02137e-13 -3.60116e-13 -2.88966e-13 4.7919e-13 2.87434e-13 -1.13269e-13 -1.70939e-13 2.05196e-13 1.91876e-13 4.17147e-14 -1.65321e-13 -4.67962e-13 -3.89947e-13 3.23384e-14 -6.01439e-13 -1.32978e-13 -9.95462e-15 1.24037e-13 -2.53328e-13 1.31325e-13 -7.92374e-13 3.36274e-13 2.40256e-13 3.92502e-13 3.99958e-12 3.62008e-11 3.10856e-10 2.49305e-09 1.84774e-08 1.25985e-07 7.86181e-07 4.46341e-06 2.28926e-05 0.000105175 0.000428348 0.001527 0.00469577 0.0122812 0.027093 0.0506693 0.0821092 0.119085 0.159492 0.201983 0.245823 0.29057 0.336005 0.382093 0.428955 0.475984 0.519389 0.563296 0.604503 0.645711 0.685991 0.723949 0.762354 0.797618 0.830386 0.862583 0.886034 0.90659 0.922187 0.927649 0.931739 0.933611 0.933502 0.932992 0.932349 0.931742 0.93116 0.930536 0.929818 0.928982 0.927984 0.926526 0.931186 0.931226 0.927797 0.927391 0.927505 0.927913 0.928108 0.927819 0.926925 0.924984 0.921047 0.912968 0.896813 0.866512 0.814179 0.732407 0.61886 0.481633 0.338931 0.212177 0.116012 0.0550862 0.0232094 0.00904055 0.0033739 0.00123037 0.000442055 0.000156902 5.50426e-05 1.90789e-05 6.53033e-06 2.20586e-06 7.34896e-07 2.41352e-07 7.81013e-08 2.48919e-08 7.81229e-09 2.41291e-09 7.34051e-10 2.19171e-10 6.42427e-11 1.87583e-11 5.16394e-12 1.59484e-12 9.83856e-13 -5.19589e-13 -6.90863e-13 -3.24924e-13 9.80325e-13 -1.23559e-12 -7.05911e-13 3.24748e-13 -2.84213e-13 8.00724e-13 -4.74063e-13 -3.99553e-13 -4.07384e-13 -8.09958e-13 1.86849e-13 -2.47496e-13 -2.43553e-13 -7.15399e-14 -1.92559e-13 1.53294e-12 -3.14332e-13 -9.56886e-13 -4.7743e-16 -5.32808e-13 1.17091e-12 -1.6035e-13 1.34191e-13 -2.4538e-13 -5.74396e-13 -3.91637e-13 -3.77453e-13 1.81442e-13 2.13894e-12 -2.02294e-12 3.78855e-13 4.0583e-13 -1.40211e-13 5.39872e-13 -1.25278e-12 -2.74512e-13 0
				</DataArray>
				<DataArray Name="VitesseY" type="Float32" format="ascii">