<?xml version="1.0"?>
<VTKFile type="PolyData">
	<PolyData>
		<Piece NumberOfPoints="1206" NumberOfPolys="1000">
			<Points>
				<DataArray type="Float32" NumberOfComponents="3" format="ascii">
 0 0 0 0.005 0 0 0.01 0 0 0.015 0 0 0.02 0 0 0.025 0 0 0.03 0 0 0.035 0 0 0.04 0 0 0.045 0 0 0.05 0 0 0.055 0 0 0.06 0 0 0.065 0 0 0.07 0 0 0.075 0 0 0.08 0 0 0.085 0 0 0.09 0 0 0.095 0 0 0.1 0 0 0.105 0 0 0.11 0 0 0.115 0 0 0.12 0 0 0.125 0 0 0.13 0 0 0.135 0 0 0.14 0 0 0.145 0 0 0.15 0 0 0.155 0 0 0.16 0 0 0.165 0 0 0.17 0 0 0.175 0 0 0.18 0 0 0.185 0 0 0.19 0 0 0.195 0 0 0.2 0 0 0.205 0 0 0.21 0 0 0.215 0 0 0.22 0 0 0.225 0 0 0.23 0 0 0.235 0 0 0.24 0 0 0.245 0 0 0.25 0 0 0.255 0 0 0.26 0 0 0.265 0 0 0.27 0 0 0.275 0 0 0.28 0 0 0.285 0 0 0.29 0 0 0.295 0 0 0.3 0 0 0.305 0 0 0.31 0 0 0.315 0 0 0.32 0 0 0.325 0 0 0.33 0 0 0.335 0 0 0.34 0 0 0.345 0 0 0.35 0 0 0.355 0 0 0.36 0 0 0.365 0 0 0.37 0 0 0.375 0 0 0.38 0 0 0.385 0 0 0.39 0 0 0.395 0 0 0.4 0 0 0.405 0 0 0.41 0 0 0.415 0 0 0.42 0 0 0.425 0 0 0.43 0 0 0.435 0 0 0.44 0 0 0.445 0 0 0.45 0 0 0.455 0 0 0.46 0 0 0.465 0 0 0.47 0 0 0.475 0 0 0.48 0 0 0.485 0 0 0.49 0 0 0.495 0 0 0.5 0 0 0.505 0 0 0.51 0 0 0.515 0 0 0.52 0 0 0.525 0 0 0.53 0 0 0.535 0 0 0.54 0 0 0.545 0 0 0.55 0 0 0.555 0 0 0.56 0 0 0.565 0 0 0.57 0 0 0.575 0 0 0.58 0 0 0.585 0 0 0.59 0 0 0.595 0 0 0.6 0 0 0.605 0 0 0.61 0 0 0.615 0 0 0.62 0 0 0.625 0 0 0.63 0 0 0.635 0 0 0.64 0 0 0.645 0 0 0.65 0 0 0.655 0 0 0.66 0 0 0.665 0 0 0.67 0 0 0.675 0 0 0.68 0 0 0.685 0 0 0.69 0 0 0.695 0 0 0.7 0 0 0.705 0 0 0.71 0 0 0.715 0 0 0.72 0 0 0.725 0 0 0.73 0 0 0.735 0 0 0.74 0 0 0.745 0 0 0.75 0 0 0.755 0 0 0.76 0 0 0.765 0 0 0.77 0 0 0.775 0 0 0.78 0 0 0.785 0 0 0.79 0 0 0.795 0 0 0.8 0 0 0.805 0 0 0.81 0 0 0.815 0 0 0.82 0 0 0.825 0 0 0.83 0 0 0.835 0 0 0.84 0 0 0.845 0 0 0.85 0 0 0.855 0 0 0.86 0 0 0.865 0 0 0.87 0 0 0.875 0 0 0.88 0 0 0.885 0 0 0.89 0 0 0.895 0 0 0.9 0 0 0.905 0 0 0.91 0 0 0.915 0 0 0.92 0 0 0.925 0 0 0.93 0 0 0.935 0 0 0.94 0 0 0.945 0 0 0.95 0 0 0.955 0 0 0.96 0 0 0.965 0 0 0.97 0 0 0.975 0 0 0.98 0 0 0.985 0 0 0.99 0 0 0.995 0 0 1 0 0 0 0.02 0 0.005 0.02 0 0.01 0.02 0 0.015 0.02 0 0.02 0.02 0 0.025 0.02 0 0.03 0.02 0 0.035 0.02 0 0.04 0.02 0 0.045 0.02 0 0.05 0.02 0 0.055 0.02 0 0.06 0.02 0 0.065 0.02 0 0.07 0.02 0 0.075 0.02 0 0.08 0.02 0 0.085 0.02 0 0.09 0.02 0 0.095 0.02 0 0.1 0.02 0 0.105 0.02 0 0.11 0.02 0 0.115 0.02 0 0.12 0.02 0 0.125 0.02 0 0.13 0.02 0 0.135 0.02 0 0.14 0.02 0 0.145 0.02 0 0.15 0.02 0 0.155 0.02 0 0.16 0.02 0 0.165 0.02 0 0.17 0.02 0 0.175 0.02 0 0.18 0.02 0 0.185 0.02 0 0.19 0.02 0 0.195 0.02 0 0.2 0.02 0 0.205 0.02 0 0.21 0.02 0 0.215 0.02 0 0.22 0.02 0 0.225 0.02 0 0.23 0.02 0 0.235 0.02 0 0.24 0.02 0 0.245 0.02 0 0.25 0.02 0 0.255 0.02 0 0.26 0.02 0 0.265 0.02 0 0.27 0.02 0 0.275 0.02 0 0.28 0.02 0 0.285 0.02 0 0.29 0.02 0 0.295 0.02 0 0.3 0.02 0 0.305 0.02 0 0.31 0.02 0 0.315 0.02 0 0.32 0.02 0 0.325 0.02 0 0.33 0.02 0 0.335 0.02 0 0.34 0.02 0 0.345 0.02 0 0.35 0.02 0 0.355 0.02 0 0.36 0.02 0 0.365 0.02 0 0.37 0.02 0 0.375 0.02 0 0.38 0.02 0 0.385 0.02 0 0.39 0.02 0 0.395 0.02 0 0.4 0.02 0 0.405 0.02 0 0.41 0.02 0 0.415 0.02 0 0.42 0.02 0 0.425 0.02 0 0.43 0.02 0 0.435 0.02 0 0.44 0.02 0 0.445 0.02 0 0.45 0.02 0 0.455 0.02 0 0.46 0.02 0 0.465 0.02 0 0.47 0.02 0 0.475 0.02 0 0.48 0.02 0 0.485 0.02 0 0.49 0.02 0 0.495 0.02 0 0.5 0.02 0 0.505 0.02 0 0.51 0.02 0 0.515 0.02 0 0.52 0.02 0 0.525 0.02 0 0.53 0.02 0 0.535 0.02 0 0.54 0.02 0 0.545 0.02 0 0.55 0.02 0 0.555 0.02 0 0.56 0.02 0 0.565 0.02 0 0.57 0.02 0 0.575 0.02 0 0.58 0.02 0 0.585 0.02 0 0.59 0.02 0 0.595 0.02 0 0.6 0.02 0 0.605 0.02 0 0.61 0.02 0 0.615 0.02 0 0.62 0.02 0 0.625 0.02 0 0.63 0.02 0 0.635 0.02 0 0.64 0.02 0 0.645 0.02 0 0.65 0.02 0 0.655 0.02 0 0.66 0.02 0 0.665 0.02 0 0.67 0.02 0 0.675 0.02 0 0.68 0.02 0 0.685 0.02 0 0.69 0.02 0 0.695 0.02 0 0.7 0.02 0 0.705 0.02 0 0.71 0.02 0 0.715 0.02 0 0.72 0.02 0 0.725 0.02 0 0.73 0.02 0 0.735 0.02 0 0.74 0.02 0 0.745 0.02 0 0.75 0.02 0 0.755 0.02 0 0.76 0.02 0 0.765 0.02 0 0.77 0.02 0 0.775 0.02 0 0.78 0.02 0 0.785 0.02 0 0.79 0.02 0 0.795 0.02 0 0.8 0.02 0 0.805 0.02 0 0.81 0.02 0 0.815 0.02 0 0.82 0.02 0 0.825 0.02 0 0.83 0.02 0 0.835 0.02 0 0.84 0.02 0 0.845 0.02 0 0.85 0.02 0 0.855 0.02 0 0.86 0.02 0 0.865 0.02 0 0.87 0.02 0 0.875 0.02 0 0.88 0.02 0 0.885 0.02 0 0.89 0.02 0 0.895 0.02 0 0.9 0.02 0 0.905 0.02 0 0.91 0.02 0 0.915 0.02 0 0.92 0.02 0 0.925 0.02 0 0.93 0.02 0 0.935 0.02 0 0.94 0.02 0 0.945 0.02 0 0.95 0.02 0 0.955 0.02 0 0.96 0.02 0 0.965 0.02 0 0.97 0.02 0 0.975 0.02 0 0.98 0.02 0 0.985 0.02 0 0.99 0.02 0 0.995 0.02 0 1 0.02 0 0 0.04 0 0.005 0.04 0 0.01 0.04 0 0.015 0.04 0 0.02 0.04 0 0.025 0.04 0 0.03 0.04 0 0.035 0.04 0 0.04 0.04 0 0.045 0.04 0 0.05 0.04 0 0.055 0.04 0 0.06 0.04 0 0.065 0.04 0 0.07 0.04 0 0.075 0.04 0 0.08 0.04 0 0.085 0.04 0 0.09 0.04 0 0.095 0.04 0 0.1 0.04 0 0.105 0.04 0 0.11 0.04 0 0.115 0.04 0 0.12 0.04 0 0.125 0.04 0 0.13 0.04 0 0.135 0.04 0 0.14 0.04 0 0.145 0.04 0 0.15 0.04 0 0.155 0.04 0 0.16 0.04 0 0.165 0.04 0 0.17 0.04 0 0.175 0.04 0 0.18 0.04 0 0.185 0.04 0 0.19 0.04 0 0.195 0.04 0 0.2 0.04 0 0.205 0.04 0 0.21 0.04 0 0.215 0.04 0 0.22 0.04 0 0.225 0.04 0 0.23 0.04 0 0.235 0.04 0 0.24 0.04 0 0.245 0.04 0 0.25 0.04 0 0.255 0.04 0 0.26 0.04 0 0.265 0.04 0 0.27 0.04 0 0.275 0.04 0 0.28 0.04 0 0.285 0.04 0 0.29 0.04 0 0.295 0.04 0 0.3 0.04 0 0.305 0.04 0 0.31 0.04 0 0.315 0.04 0 0.32 0.04 0 0.325 0.04 0 0.33 0.04 0 0.335 0.04 0 0.34 0.04 0 0.345 0.04 0 0.35 0.04 0 0.355 0.04 0 0.36 0.04 0 0.365 0.04 0 0.37 0.04 0 0.375 0.04 0 0.38 0.04 0 0.385 0.04 0 0.39 0.04 0 0.395 0.04 0 0.4 0.04 0 0.405 0.04 0 0.41 0.04 0 0.415 0.04 0 0.42 0.04 0 0.425 0.04 0 0.43 0.04 0 0.435 0.04 0 0.44 0.04 0 0.445 0.04 0 0.45 0.04 0 0.455 0.04 0 0.46 0.04 0 0.465 0.04 0 0.47 0.04 0 0.475 0.04 0 0.48 0.04 0 0.485 0.04 0 0.49 0.04 0 0.495 0.04 0 0.5 0.04 0 0.505 0.04 0 0.51 0.04 0 0.515 0.04 0 0.52 0.04 0 0.525 0.04 0 0.53 0.04 0 0.535 0.04 0 0.54 0.04 0 0.545 0.04 0 0.55 0.04 0 0.555 0.04 0 0.56 0.04 0 0.565 0.04 0 0.57 0.04 0 0.575 0.04 0 0.58 0.04 0 0.585 0.04 0 0.59 0.04 0 0.595 0.04 0 0.6 0.04 0 0.605 0.04 0 0.61 0.04 0 0.615 0.04 0 0.62 0.04 0 0.625 0.04 0 0.63 0.04 0 0.635 0.04 0 0.64 0.04 0 0.645 0.04 0 0.65 0.04 0 0.655 0.04 0 0.66 0.04 0 0.665 0.04 0 0.67 0.04 0 0.675 0.04 0 0.68 0.04 0 0.685 0.04 0 0.69 0.04 0 0.695 0.04 0 0.7 0.04 0 0.705 0.04 0 0.71 0.04 0 0.715 0.04 0 0.72 0.04 0 0.725 0.04 0 0.73 0.04 0 0.735 0.04 0 0.74 0.04 0 0.745 0.04 0 0.75 0.04 0 0.755 0.04 0 0.76 0.04 0 0.765 0.04 0 0.77 0.04 0 0.775 0.04 0 0.78 0.04 0 0.785 0.04 0 0.79 0.04 0 0.795 0.04 0 0.8 0.04 0 0.805 0.04 0 0.81 0.04 0 0.815 0.04 0 0.82 0.04 0 0.825 0.04 0 0.83 0.04 0 0.835 0.04 0 0.84 0.04 0 0.845 0.04 0 0.85 0.04 0 0.855 0.04 0 0.86 0.04 0 0.865 0.04 0 0.87 0.04 0 0.875 0.04 0 0.88 0.04 0 0.885 0.04 0 0.89 0.04 0 0.895 0.04 0 0.9 0.04 0 0.905 0.04 0 0.91 0.04 0 0.915 0.04 0 0.92 0.04 0 0.925 0.04 0 0.93 0.04 0 0.935 0.04 0 0.94 0.04 0 0.945 0.04 0 0.95 0.04 0 0.955 0.04 0 0.96 0.04 0 0.965 0.04 0 0.97 0.04 0 0.975 0.04 0 0.98 0.04 0 0.985 0.04 0 0.99 0.04 0 0.995 0.04 0 1 0.04 0 0 0.06 0 0.005 0.06 0 0.01 0.06 0 0.015 0.06 0 0.02 0.06 0 0.025 0.06 0 0.03 0.06 0 0.035 0.06 0 0.04 0.06 0 0.045 0.06 0 0.05 0.06 0 0.055 0.06 0 0.06 0.06 0 0.065 0.06 0 0.07 0.06 0 0.075 0.06 0 0.08 0.06 0 0.085 0.06 0 0.09 0.06 0 0.095 0.06 0 0.1 0.06 0 0.105 0.06 0 0.11 0.06 0 0.115 0.06 0 0.12 0.06 0 0.125 0.06 0 0.13 0.06 0 0.135 0.06 0 0.14 0.06 0 0.145 0.06 0 0.15 0.06 0 0.155 0.06 0 0.16 0.06 0 0.165 0.06 0 0.17 0.06 0 0.175 0.06 0 0.18 0.06 0 0.185 0.06 0 0.19 0.06 0 0.195 0.06 0 0.2 0.06 0 0.205 0.06 0 0.21 0.06 0 0.215 0.06 0 0.22 0.06 0 0.225 0.06 0 0.23 0.06 0 0.235 0.06 0 0.24 0.06 0 0.245 0.06 0 0.25 0.06 0 0.255 0.06 0 0.26 0.06 0 0.265 0.06 0 0.27 0.06 0 0.275 0.06 0 0.28 0.06 0 0.285 0.06 0 0.29 0.06 0 0.295 0.06 0 0.3 0.06 0 0.305 0.06 0 0.31 0.06 0 0.315 0.06 0 0.32 0.06 0 0.325 0.06 0 0.33 0.06 0 0.335 0.06 0 0.34 0.06 0 0.345 0.06 0 0.35 0.06 0 0.355 0.06 0 0.36 0.06 0 0.365 0.06 0 0.37 0.06 0 0.375 0.06 0 0.38 0.06 0 0.385 0.06 0 0.39 0.06 0 0.395 0.06 0 0.4 0.06 0 0.405 0.06 0 0.41 0.06 0 0.415 0.06 0 0.42 0.06 0 0.425 0.06 0 0.43 0.06 0 0.435 0.06 0 0.44 0.06 0 0.445 0.06 0 0.45 0.06 0 0.455 0.06 0 0.46 0.06 0 0.465 0.06 0 0.47 0.06 0 0.475 0.06 0 0.48 0.06 0 0.485 0.06 0 0.49 0.06 0 0.495 0.06 0 0.5 0.06 0 0.505 0.06 0 0.51 0.06 0 0.515 0.06 0 0.52 0.06 0 0.525 0.06 0 0.53 0.06 0 0.535 0.06 0 0.54 0.06 0 0.545 0.06 0 0.55 0.06 0 0.555 0.06 0 0.56 0.06 0 0.565 0.06 0 0.57 0.06 0 0.575 0.06 0 0.58 0.06 0 0.585 0.06 0 0.59 0.06 0 0.595 0.06 0 0.6 0.06 0 0.605 0.06 0 0.61 0.06 0 0.615 0.06 0 0.62 0.06 0 0.625 0.06 0 0.63 0.06 0 0.635 0.06 0 0.64 0.06 0 0.645 0.06 0 0.65 0.06 0 0.655 0.06 0 0.66 0.06 0 0.665 0.06 0 0.67 0.06 0 0.675 0.06 0 0.68 0.06 0 0.685 0.06 0 0.69 0.06 0 0.695 0.06 0 0.7 0.06 0 0.705 0.06 0 0.71 0.06 0 0.715 0.06 0 0.72 0.06 0 0.725 0.06 0 0.73 0.06 0 0.735 0.06 0 0.74 0.06 0 0.745 0.06 0 0.75 0.06 0 0.755 0.06 0 0.76 0.06 0 0.765 0.06 0 0.77 0.06 0 0.775 0.06 0 0.78 0.06 0 0.785 0.06 0 0.79 0.06 0 0.795 0.06 0 0.8 0.06 0 0.805 0.06 0 0.81 0.06 0 0.815 0.06 0 0.82 0.06 0 0.825 0.06 0 0.83 0.06 0 0.835 0.06 0 0.84 0.06 0 0.845 0.06 0 0.85 0.06 0 0.855 0.06 0 0.86 0.06 0 0.865 0.06 0 0.87 0.06 0 0.875 0.06 0 0.88 0.06 0 0.885 0.06 0 0.89 0.06 0 0.895 0.06 0 0.9 0.06 0 0.905 0.06 0 0.91 0.06 0 0.915 0.06 0 0.92 0.06 0 0.925 0.06 0 0.93 0.06 0 0.935 0.06 0 0.94 0.06 0 0.945 0.06 0 0.95 0.06 0 0.955 0.06 0 0.96 0.06 0 0.965 0.06 0 0.97 0.06 0 0.975 0.06 0 0.98 0.06 0 0.985 0.06 0 0.99 0.06 0 0.995 0.06 0 1 0.06 0 0 0.08 0 0.005 0.08 0 0.01 0.08 0 0.015 0.08 0 0.02 0.08 0 0.025 0.08 0 0.03 0.08 0 0.035 0.08 0 0.04 0.08 0 0.045 0.08 0 0.05 0.08 0 0.055 0.08 0 0.06 0.08 0 0.065 0.08 0 0.07 0.08 0 0.075 0.08 0 0.08 0.08 0 0.085 0.08 0 0.09 0.08 0 0.095 0.08 0 0.1 0.08 0 0.105 0.08 0 0.11 0.08 0 0.115 0.08 0 0.12 0.08 0 0.125 0.08 0 0.13 0.08 0 0.135 0.08 0 0.14 0.08 0 0.145 0.08 0 0.15 0.08 0 0.155 0.08 0 0.16 0.08 0 0.165 0.08 0
[...]
			<PointData Scalars="VitesseX">
				<DataArray Name="VitesseX" type="Float32" format="ascii">
 0 -1.77089e-14 -3.41819e-14 3.48793e-14 -9.49137e-14 -5.67669e-14 -7.30919e-15 -6.41848e-14 -1.04131e-13 1.08174e-14 -6.51584e-14 -1.67439e-13 1.55484e-13 -3.56071e-13 1.44583e-13 -7.08643e-14 -2.47045e-13 5.77365e-14 -2.22588e-13 2.48856e-14 -6.5336e-14 -1.4975e-14 -9.18941e-14 1.80217e-13 1.51404e-13 3.06075e-14 -1.13751e-13 -5.71583e-14 -1.89328e-13 1.39966e-14 -8.01017e-14 2.73245e-13 -5.40604e-13 -1.7146e-13 3.27665e-13 -2.84326e-13 -1.16636e-13 -1.54772e-13 9.9197e-14 -1.8917e-13 -9.0086e-14 -3.00683e-13 1.01118e-13 2.23099e-13 -3.70269e-13 -3.86716e-13 -7.60404e-13 4.30122e-13 -1.15816e-13 8.2165e-14 -4.4892e-13 -2.42507e-13 1.34548e-13 -3.439e-13 8.43015e-13 3.5857e-13 -3.86642e-13 1.28105e-13 -3.42993e-13 3.63773e-13 -5.73078e-13 -9.12491e-14 -3.032e-13 -1.27079e-13 2.20375e-13 -3.02664e-13 -2.23815e-14 4.60792e-13 -6.60736e-13 1.25849e-13 -2.33266e-13 -4.16473e-13 4.62641e-13 4.68581e-12 6.49898e-11 7.25276e-10 7.48248e-09 6.96444e-08 5.80984e-07 4.30785e-06 2.81042e-05 0.000159309 0.000772303 0.00313917 0.0104594 0.0280229 0.0601965 0.106349 0.162115 0.223625 0.288694 0.35629 0.4262 0.496868 0.557531 0.620009 0.675366 0.728659 0.782068 0.822967 0.864189 0.89609 0.912761 0.926907 0.933877 0.934791 0.934353 0.933323 0.931915 0.930126 0.930519 0.934231 0.929029 0.92797 0.928437 0.927127 0.921193 0.909611 0.888091 0.847226 0.777207 0.672553 0.537344 0.388521 0.24942 0.139242 0.0665871 0.027604 0.0103279 0.00363534 0.00123361 0.000407699 0.000131663 4.15765e-05 1.28358e-05 3.87292e-06 1.14168e-06 3.28723e-07 9.24325e-08 2.53786e-08 6.80462e-09 1.78146e-09 4.54532e-10 1.14419e-10 2.79563e-11 5.80752e-12 1.97057e-12 -1.16673e-12 1.16345e-12 2.41407e-13 -8.30399e-13 1.08262e-12 -1.18045e-12 9.58167e-13 -6.27034e-13 7.00752e-13 -1.24796e-12 -3.68801e-13 1.87819e-13 8.52328e-14 1.8824e-13 -1.25334e-12 1.28476e-14 6.6942e-13 -7.34007e-13 6.56578e-14 -5.16365e-13 5.82135e-13 6.51006e-13 -6.76866e-13 7.66685e-13 6.61876e-14 -8.85055e-13 1.45245e-12 -1.27791e-12 9.54775e-13 -8.50207e-13 1.9554e-13 -2.41804e-13 -8.22734e-13 -5.27323e-14 2.44054e-13 -9.14416e-13 6.77061e-13 -7.36521e-13 1.17179e-12 1.6945e-13 -1.36869e-12 8.36902e-13 -1.55831e-12 7.25733e-13 2.27336e-13 -3.00512e-12 9.29206e-13 7.67076e-13 -1.61501e-13 -1.13589e-12 -2.03638e-12 1.07441e-12 7.57247e-13 0 0 -1.86462e-15 -2.07098e-15 -8.05175e-14 7.03793e-15 -5.47231e-14 -8.34533e-14 -1.02419e-13 -1.5797e-14 -6.99888e-14 -7.74784e-14 3.99966e-14 -2.35179e-13 1.46684e-13 -2.61123e-13 -1.20851e-15 4.9697e-14 -2.38412e-13 5.38888e-14 -1.89723e-13 -8.45014e-14 -4.39411e-14 5.94514e-14 -6.08354e-14 2.46567e-14 8.75052e-14 -5.00015e-14 -1.03722e-13 -5.22388e-14 -6.04573e-14 3.51374e-14 -2.96125e-13 1.47551e-13 -9.49209e-16 -4.85168e-13 -4.55253e-14 1.77796e-13 2.51023e-14 -3.29834e-13 -9.46699e-14 -9.54723e-14 4.87425e-14 -2.12684e-13 -2.89357e-13 -6.27441e-14 -1.36532e-13 9.13564e-15 -7.95776e-13 -2.79474e-14 -4.41048e-14 4.39743e-13 -2.43522e-15 2.13622e-13 1.64452e-13 -4.03709e-13 3.37958e-14 3.64337e-13 -4.2034e-13 2.90954e-13 -4.55319e-13 9.96993e-14 -3.81201e-13 -2.17541e-13 -9.27207e-14 -3.0511e-13 2.19518e-13 9.57069e-14 -3.85722e-13 5.05129e-13 -1.52224e-13 -2.20771e-13 1.66385e-13 -2.59194e-13 5.86881e-12 6.36181e-11 7.26174e-10 7.48307e-09 6.9644e-08 5.80984e-07 4.30785e-06 2.81042e-05 0.000159309 0.000772303 0.00313917 0.0104594 0.0280229 0.0601965 0.106349 0.162115 0.223625 0.288694 0.35629 0.4262 0.496868 0.557531 0.620009 0.675366 0.728659 0.782068 0.822967 0.864189 0.89609 0.912761 0.926907 0.933877 0.934791 0.934353 0.933323 0.931915 0.930126 0.930519 0.934231 0.929029 0.92797 0.928437 0.927127 0.921193 0.909611 0.888091 0.847226 0.777207 0.672553 0.537344 0.388521 0.24942 0.139242 0.0665871 0.027604 0.0103279 0.00363534 0.00123361 0.000407699 0.000131663 4.15765e-05 1.28358e-05 3.87292e-06 1.14168e-06 3.28723e-07 9.24311e-08 2.53795e-08 6.80392e-09 1.78135e-09 4.56293e-10 1.13218e-10 2.7567e-11 6.98323e-12 5.05272e-13 1.27891e-12 -6.98078e-13 -2.37299e-13 7.63282e-13 -6.36298e-13 6.59519e-13 -7.69293e-13 1.03492e-13 -5.5281e-13 4.21737e-13 -3.63935e-13 -5.38806e-13 -3.87146e-13 -2.17344e-13 6.97055e-13 -3.30636e-13 -7.79925e-13 -1.4305e-13 -2.7839e-13 2.57786e-13 3.99336e-14 -9.32378e-14 7.07662e-13 -3.30899e-13 3.32465e-13 7.85779e-13 -1.14104e-12 9.11522e-13 -9.7876e-13 2.76433e-13 -2.57183e-13 -2.28122e-13 -5.9257e-14 -6.2645e-13 -7.69121e-13 7.92116e-13 -4.00894e-13 1.05892e-12 -7.97721e-13 -1.11226e-13 3.2347e-13 -6.32452e-13 9.24739e-13 -1.58313e-12 -8.32994e-13 1.69954e-12 -7.52632e-13 -9.53959e-13 -7.36311e-13 5.58834e-14 1.16929e-12 -1.93737e-12 5.37483e-14 0 0 -1.44281e-14 -2.66064e-14 -7.91419e-15 -5.78393e-14 -3.83019e-14 -3.92159e-14 -1.13622e-13 -1.03775e-13 -5.47085e-14 -7.1645e-14 -4.23269e-14 8.69661e-14 -1.4802e-13 -3.00059e-14 2.76074e-14 -1.50374e-13 -8.74522e-14 -4.31203e-14 -6.30785e-14 -2.28952e-13 -1.0805e-13 -4.27451e-14 2.33101e-14 -3.1437e-14 4.67183e-14 -6.01655e-14 -1.29214e-13 -2.77432e-13 6.56496e-14 1.38016e-13 -9.84322e-14 -8.34912e-14 -3.46177e-13 -5.10633e-14 -2.58418e-13 5.92134e-14 9.18403e-14 -6.7042e-14 -2.16159e-13 -2.14748e-13 7.16513e-14 -1.49048e-13 -1.71471e-13 -1.67967e-13 -1.61254e-13 -2.12674e-13 1.29211e-13 -1.42855e-13 5.65636e-14 1.15008e-13 5.22043e-13 -1.1458e-13 -4.12441e-13 1.45896e-13 -1.35041e-13 -1.92486e-13 2.61271e-13 -2.36758e-14 -1.18647e-13 -4.3376e-13 -2.17544e-13 -2.99771e-13 -1.0604e-13 1.17965e-13 1.21976e-13 -7.16225e-14 1.86215e-13 1.03588e-13 -1.2092e-13 6.39209e-14 9.08511e-14 7.15549e-13 4.93793e-12 6.46957e-11 7.25897e-10 7.48269e-09 6.9644e-08 5.80985e-07 4.30785e-06 2.81042e-05 0.000159309 0.000772303 0.00313917 0.0104594 0.0280229 0.0601965 0.106349 0.162115 0.223625 0.288694 0.35629 0.4262 0.496868 0.557531 0.620009 0.675366 0.728659 0.782068 0.822967 0.864189 0.89609 0.912761 0.926907 0.933877 0.934791 0.934353 0.933323 0.931915 0.930126 0.930519 0.934231 0.929029 0.92797 0.928437 0.927127 0.921193 0.909611 0.888091 0.847226 0.777207 0.672553 0.537344 0.388521 0.24942 0.139242 0.0665871 0.027604 0.0103279 0.00363534 0.00123361 0.000407699 0.000131663 4.15765e-05 1.28358e-05 3.87292e-06 1.14168e-06 3.28723e-07 9.24319e-08 2.5379e-08 6.80432e-09 1.78176e-09 4.55129e-10 1.14061e-10 2.76484e-11 6.55247e-12 1.75154e-12 -3.79233e-13 1.35936e-13 1.84534e-13 3.03531e-14 -1.36029e-13 -6.96023e-13 3.63106e-13 -2.02499e-13 -1.41335e-13 -7.12712e-13 -2.43924e-13 -2.56322e-13 -9.85285e-14 -3.44816e-13 -5.23513e-13 -3.7147e-13 2.39841e-13 -2.94786e-13 -1.9951e-14 -4.52932e-13 -1.3191e-13 2.62718e-13 3.72469e-13 5.1212e-13 -1.62347e-13 -1.43069e-14 2.64559e-13 -3.19595e-13 9.98255e-15 1.18285e-14 -4.73222e-13 -1.78703e-13 -7.2913e-13 2.72866e-13 6.046e-14 -6.7908e-13 7.18639e-13 -2.41868e-13 3.90859e-13 -7.41212e-13 4.00186e-13 4.80576e-13 -6.08359e-13 -1.72648e-13 -1.92782e-13 -4.76676e-13 3.27153e-13 1.42434e-13 -7.91393e-13 -6.07455e-13 -5.85151e-13 1.1152e-12 2.44943e-13 0 0 -1.64523e-14 -3.26026e-14 -1.11795e-14 -6.88229e-14 -5.5598e-14 -1.02592e-13 -2.41126e-14 -4.65951e-14 1.33501e-14 -5.43211e-15 -5.25027e-14 -1.24517e-14 -1.26187e-13 8.60569e-14 -1.16076e-13 -1.8589e-13 -1.3991e-13 -2.38994e-13 -9.78109e-14 -1.40374e-13 -5.35512e-14 -6.64804e-14 -2.25059e-14 8.7682e-14 -1.41031e-13 -4.95966e-14 -4.21245e-14 -8.484e-14 -5.25652e-14 -1.55767e-13 1.75452e-13 -2.58722e-13 -5.87239e-14 1.68763e-13 -1.32221e-13 -2.23934e-13 1.36805e-13 2.3429e-14 -1.58792e-13 -1.5264e-13 -5.45031e-13 5.98339e-14 -2.48624e-13 1.33515e-13 3.14069e-14 -4.22474e-13 1.77798e-13 1.14152e-14 1.88232e-13 -3.49423e-13 -3.58196e-13 1.39226e-13 8.34123e-14 2.89004e-13 -2.05538e-13 -2.85919e-13 1.2731e-13 -1.83668e-13 1.16145e-13 -3.56155e-13 -1.83658e-13 -3.51263e-13 -7.80989e-14 2.07717e-14 1.18277e-13 7.43639e-14 4.01124e-13 -1.60879e-13 1.24756e-13 7.27896e-14 2.22244e-13 5.47205e-13 5.06365e-12 6.46967e-11 7.25777e-10 7.48292e-09 6.96445e-08 5.80984e-07 4.30785e-06 2.81042e-05 0.000159309 0.000772303 0.00313917 0.0104594 0.0280229 0.0601965 0.106349 0.162115 0.223625 0.288694 0.35629 0.4262 0.496868 0.557531 0.620009 0.675366 0.728659 0.782068 0.822967 0.864189 0.89609 0.912761 0.926907 0.933877 0.934791 0.934353 0.933323 0.931915 0.930126 0.930519 0.934231 0.929029 0.92797 0.928437 0.927127 0.921193 0.909611 0.888091 0.847226 0.777207 0.672553 0.537344 0.388521 0.24942 0.139242 0.0665871 0.027604 0.0103279 0.00363534 0.00123361 0.000407699 0.000131663 4.15765e-05 1.28358e-05 3.87292e-06 1.14168e-06 3.28723e-07 9.24321e-08 2.53792e-08 6.80456e-09 1.78137e-09 4.55596e-10 1.13917e-10 2.80161e-11 6.2025e-12 1.62823e-12 -4.04561e-13 7.54311e-13 -2.09708e-13 -2.21112e-13 -2.90118e-13 -5.16309e-13 9.06215e-14 3.52556e-14 -3.16614e-13 -6.54564e-13 -8.66037e-13 6.17242e-13 -1.8328e-13 -5.01686e-14 -1.29103e-12 -4.92597e-13 5.56705e-13 -5.66894e-13 5.15125e-14 -2.65002e-13 8.7782e-13 2.6874e-13 -5.29875e-13 -1.22268e-13 -6.08009e-13 -2.27928e-13 5.25301e-13 -4.64371e-13 6.95298e-13 -2.54757e-13 -5.2044e-13 -8.53428e-13 -3.41129e-13 -1.94939e-13 7.97488e-13 -1.06922e-13 3.9109e-13 -1.18331e-13 1.20523e-14 6.96852e-13 -1.98344e-13 6.53208e-14 -6.93157e-13 -1.16459e-13 -2.38355e-13 -7.065e-13 2.30986e-13 5.34174e-13 2.53644e-13 -1.19941e-12 -8.82475e-13 9.45685e-13 3.39389e-13 0 0 -3.66002e-15 -8.37594e-15 -9.05152e-14 2.50525e-14 -8.58755e-14 -9.93211e-14 8.55186e-15 5.6088e-14 1.21352e-14 -2.90374e-14 4.03382e-14 -2.71831e-13 1.91664e-13 -2.44516e-13 -9.72331e-14 -2.163e-14 -3.07782e-13 -1.04393e-13 -2.76846e-13 -5.60014e-14 3.11877e-15 -5.34326e-14 -2.16871e-13 2.06702e-14 -1.24013e-13 -1.32304e-13 -6.02127e-14 4.05402e-14 2.72638e-14 -1.08766e-13 -6.10863e-14 2.37716e-13 2.15169e-13 -2.98574e-13 5.93327e-14 4.64137e-14 1.37566e-13 -4.19882e-13 -4.10612e-14 -1.88471e-13 -2.4231e-13 -1.70083e-13 -4.55323e-13 9.27973e-14 -6.88708e-14 -8.57477e-14 -7.02356e-13 -6.39589e-14 1.4091e-14 2.59864e-13 -3.72266e-13 3.69198e-13 5.43073e-13 -7.46646e-13 -2.73466e-13 1.39673e-13 -6.84471e-13 1.03161e-13 -3.33624e-13 1.54946e-13 -2.34365e-13 2.27205e-14 7.27226e-14 -5.30966e-14 3.1835e-13 2.27865e-13 -3.64397e-13 3.2338e-13 -3.37055e-14 -9.75012e-14 1.89789e-13 1.29866e-13 6.18035e-12 6.37998e-11 7.26476e-10 7.48321e-09 6.96445e-08 5.80984e-07 4.30785e-06 2.81042e-05 0.000159309 0.000772303 0.00313917 0.0104594 0.0280229 0.0601965 0.106349 0.162115 0.223625 0.288694 0.35629 0.4262 0.496868 0.557531 0.620009 0.675366 0.728659 0.782068 0.822967 0.864189 0.89609 0.912761 0.926907 0.933877 0.934791 0.934353 0.933323 0.931915 0.930126 0.930519 0.934231 0.929029 0.92797 0.928437 0.927127 0.921193 0.909611 0.888091 0.847226 0.777207 0.672553 0.537344 0.388521 0.24942 0.139242 0.0665871 0.027604 0.0103279 0.00363534 0.00123361 0.000407699 0.000131663 4.15765e-05 1.28358e-05 3.87292e-06 1.14168e-06 3.28724e-07 9.24314e-08 2.53796e-08 6.80428e-09 1.78104e-09 4.56576e-10 1.13329e-10 2.76154e-11 6.66708e-12 5.1548e-13 1.42569e-12 -7.68425e-14 -4.60554e-13 1.76777e-13 -9.68643e-13 8.13882e-13 -1.02332e-12 7.90892e-14 -7.00547e-13 2.7555e-13 -4.62335e-13 -3.38245e-13 -1.74085e-13 -2.78645e-13 1.01918e-12 -5.54624e-13 -1.05086e-12 3.17023e-13 -4.49958e-13 5.89721e-13 4.64587e-13 -2.83347e-13 -1.54527e-13 -1.132e-12 -1.95219e-13 6.36738e-13 -1.25566e-12 7.20419e-13 -1.0997e-12 2.02971e-13 -5.77391e-13 -6.95817e-13 3.51868e-13 -6.97896e-13 -1.44908e-13 1.55329e-12 -5.99942e-13 1.13597e-12 -1.12414e-12 7.80628e-13 1.7472e-13 -8.40118e-13 1.02035e-12 -8.56439e-13 -9.25827e-13 1.8184e-12 -9.79541e-13 -8.90933e-13 1.04835e-13 -1.2328e-13 1.46061e-12 -1.96734e-12 -3.73008e-13 0 0 -1.72513e-14 -3.47994e-14 2.14144e-14 -3.69174e-14 -8.44797e-14 8.77071e-14 -2.12612e-14 -7.47199e-14 3.89484e-14 -1.00702e-13 -1.46404e-13 2.81016e-13 -3.09776e-13 -5.43293e-14 2.44539e-14 -3.18665e-13 2.39137e-14 -1.47404e-13 -7.9897e-14 -1.85493e-13 -2.98526e-14 -2.70192e-13 -4.02211e-14 -9.48065e-14 -1.69308e-14 -2.99494e-13 -1.4432e-13 -3.88954e-13 4.25868e-13 2.19658e-13 1.95553e-13 -9.81187e-15 -3.14129e-13 2.61201e-13 -3.27006e-13 1.86893e-13 -1.97744e-14 -2.61842e-13 -1.96688e-13 -4.00299e-13 3.50577e-13 -2.31445e-13 4.54719e-14 -6.62151e-13 -6.36716e-13 -5.30571e-13 5.19789e-13 -4.96379e-13 -6.47811e-14 1.20185e-13 7.78309e-13 -6.19095e-14 -5.78365e-13 -1.29075e-13 -1.14961e-13 -6.49105e-13 -1.32236e-13 -3.98597e-13 1.37578e-13 -6.17795e-13 1.3465e-13 2.80307e-13 1.47926e-13 9.18788e-13 -9.76027e-14 -5.00383e-14 7.36257e-14 -4.95299e-13 -1.28467e-13 -4.46384e-15 -6.32452e-13 1.57745e-12 5.05744e-12 6.53513e-11 7.26121e-10 7.48232e-09 6.96446e-08 5.80985e-07 4.30785e-06 2.81042e-05 0.000159309 0.000772303 0.00313917 0.0104594 0.0280229 0.0601965 0.106349 0.162115 0.223625 0.288694 0.35629 0.4262 0.496868 0.557531 0.620009 0.675366 0.728659 0.782068 0.822967 0.864189 0.89609 0.912761 0.926907 0.933877 0.934791 0.934353 0.933323 0.931915 0.930126 0.930519 0.934231 0.929029 0.92797 0.928437 0.927127 0.921193 0.909611 0.888091 0.847226 0.777207 0.672553 0.537344 0.388521 0.24942 0.139242 0.0665871 0.027604 0.0103279 0.00363534 0.00123361 0.000407699 0.000131663 4.15765e-05 1.28358e-05 3.87292e-06 1.14168e-06 3.28723e-07 9.24327e-08 2.53784e-08 6.80486e-09 1.78162e-09 4.54166e-10 1.14928e-10 2.73176e-11 5.87515e-12 2.23762e-12 -8.2252e-13 1.16917e-12 5.83382e-13 -1.50048e-12 7.26113e-13 -1.23115e-12 9.95089e-13 -1.15135e-12 7.55836e-13 -1.65663e-12 6.78626e-13 -1.15819e-12 6.80859e-13 -5.23657e-13 9.25928e-13 -1.92874e-13 -5.0617e-13 7.30355e-13 -4.20406e-13 -2.28357e-13 -5.8802e-13 2.58743e-13 -5.96555e-13 4.33252e-13 -9.78562e-14 -7.55895e-13 7.01742e-13 -1.37057e-12 -6.57727e-13 -4.6396e-13 -3.50441e-13 1.72254e-13 -7.76486e-13 7.39985e-13 1.84251e-14 -5.36385e-13 9.34064e-13 -8.29487e-13 1.27657e-12 -9.22968e-13 -4.69129e-13 1.25208e-12 -1.1975e-12 2.06674e-12 1.32817e-13 -2.30777e-12 6.67724e-13 1.09648e-13 -5.69284e-13 -3.10297e-13 -8.59078e-13 1.35349e-12 -2.85159e-13 0
				</DataArray>
				<DataArray Name="VitesseY" type="Float32" format="ascii">