<?xml version="1.0"?>
<VTKFile type="PolyData">
	<PolyData>
		<Piece NumberOfPoints="1206" NumberOfPolys="1000">
			<Points>
				<DataArray type="Float32" NumberOfComponents="3" format="ascii">
 0 0 0 0.005 0 0 0.01 0 0 0.015 0 0 0.02 0 0 0.025 0 0 0.03 0 0 0.035 0 0 0.04 0 0 0.045 0 0 0.05 0 0 0.055 0 0 0.06 0 0 0.065 0 0 0.07 0 0 0.075 0 0 0.08 0 0 0.085 0 0 0.09 0 0 0.095 0 0 0.1 0 0 0.105 0 0 0.11 0 0 0.115 0 0 0.12 0 0 0.125 0 0 0.13 0 0 0.135 0 0 0.14 0 0 0.145 0 0 0.15 0 0 0.155 0 0 0.16 0 0 0.165 0 0 0.17 0 0 0.175 0 0 0.18 0 0 0.185 0 0 0.19 0 0 0.195 0 0 0.2 0 0 0.205 0 0 0.21 0 0 0.215 0 0 0.22 0 0 0.225 0 0 0.23 0 0 0.235 0 0 0.24 0 0 0.245 0 0 0.25 0 0 0.255 0 0 0.26 0 0 0.265 0 0 0.27 0 0 0.275 0 0 0.28 0 0 0.285 0 0 0.29 0 0 0.295 0 0 0.3 0 0 0.305 0 0 0.31 0 0 0.315 0 0 0.32 0 0 0.325 0 0 0.33 0 0 0.335 0 0 0.34 0 0 0.345 0 0 0.35 0 0 0.355 0 0 0.36 0 0 0.365 0 0 0.37 0 0 0.375 0 0 0.38 0 0 0.385 0 0 0.39 0 0 0.395 0 0 0.4 0 0 0.405 0 0 0.41 0 0 0.415 0 0 0.42 0 0 0.425 0 0 0.43 0 0 0.435 0 0 0.44 0 0 0.445 0 0 0.45 0 0 0.455 0 0 0.46 0 0 0.465 0 0 0.47 0 0 0.475 0 0 0.48 0 0 0.485 0 0 0.49 0 0 0.495 0 0 0.5 0 0 0.505 0 0 0.51 0 0 0.515 0 0 0.52 0 0 0.525 0 0 0.53 0 0 0.535 0 0 0.54 0 0 0.545 0 0 0.55 0 0 0.555 0 0 0.56 0 0 0.565 0 0 0.57 0 0 0.575 0 0 0.58 0 0 0.585 0 0 0.59 0 0 0.595 0 0 0.6 0 0 0.605 0 0 0.61 0 0 0.615 0 0 0.62 0 0 0.625 0 0 0.63 0 0 0.635 0 0 0.64 0 0 0.645 0 0 0.65 0 0 0.655 0 0 0.66 0 0 0.665 0 0 0.67 0 0 0.675 0 0 0.68 0 0 0.685 0 0 0.69 0 0 0.695 0 0 0.7 0 0 0.705 0 0 0.71 0 0 0.715 0 0 0.72 0 0 0.725 0 0 0.73 0 0 0.735 0 0 0.74 0 0 0.745 0 0 0.75 0 0 0.755 0 0 0.76 0 0 0.765 0 0 0.77 0 0 0.775 0 0 0.78 0 0 0.785 0 0 0.79 0 0 0.795 0 0 0.8 0 0 0.805 0 0 0.81 0 0 0.815 0 0 0.82 0 0 0.825 0 0 0.83 0 0 0.835 0 0 0.84 0 0 0.845 0 0 0.85 0 0 0.855 0 0 0.86 0 0 0.865 0 0 0.87 0 0 0.875 0 0 0.88 0 0 0.885 0 0 0.89 0 0 0.895 0 0 0.9 0 0 0.905 0 0 0.91 0 0 0.915 0 0 0.92 0 0 0.925 0 0 0.93 0 0 0.935 0 0 0.94 0 0 0.945 0 0 0.95 0 0 0.955 0 0 0.96 0 0 0.965 0 0 0.97 0 0 0.975 0 0 0.98 0 0 0.985 0 0 0.99 0 0 0.995 0 0 1 0 0 0 0.02 0 0.005 0.02 0 0.01 0.02 0 0.015 0.02 0 0.02 0.02 0 0.025 0.02 0 0.03 0.02 0 0.035 0.02 0 0.04 0.02 0 0.045 0.02 0 0.05 0.02 0 0.055 0.02 0 0.06 0.02 0 0.065 0.02 0 0.07 0.02 0 0.075 0.02 0 0.08 0.02 0 0.085 0.02 0 0.09 0.02 0 0.095 0.02 0 0.1 0.02 0 0.105 0.02 0 0.11 0.02 0 0.115 0.02 0 0.12 0.02 0 0.125 0.02 0 0.13 0.02 0 0.135 0.02 0 0.14 0.02 0 0.145 0.02 0 0.15 0.02 0 0.155 0.02 0 0.16 0.02 0 0.165 0.02 0 0.17 0.02 0 0.175 0.02 0 0.18 0.02 0 0.185 0.02 0 0.19 0.02 0 0.195 0.02 0 0.2 0.02 0 0.205 0.02 0 0.21 0.02 0 0.215 0.02 0 0.22 0.02 0 0.225 0.02 0 0.23 0.02 0 0.235 0.02 0 0.24 0.02 0 0.245 0.02 0 0.25 0.02 0 0.255 0.02 0 0.26 0.02 0 0.265 0.02 0 0.27 0.02 0 0.275 0.02 0 0.28 0.02 0 0.285 0.02 0 0.29 0.02 0 0.295 0.02 0 0.3 0.02 0 0.305 0.02 0 0.31 0.02 0 0.315 0.02 0 0.32 0.02 0 0.325 0.02 0 0.33 0.02 0 0.335 0.02 0 0.34 0.02 0 0.345 0.02 0 0.35 0.02 0 0.355 0.02 0 0.36 0.02 0 0.365 0.02 0 0.37 0.02 0 0.375 0.02 0 0.38 0.02 0 0.385 0.02 0 0.39 0.02 0 0.395 0.02 0 0.4 0.02 0 0.405 0.02 0 0.41 0.02 0 0.415 0.02 0 0.42 0.02 0 0.425 0.02 0 0.43 0.02 0 0.435 0.02 0 0.44 0.02 0 0.445 0.02 0 0.45 0.02 0 0.455 0.02 0 0.46 0.02 0 0.465 0.02 0 0.47 0.02 0 0.475 0.02 0 0.48 0.02 0 0.485 0.02 0 0.49 0.02 0 0.495 0.02 0 0.5 0.02 0 0.505 0.02 0 0.51 0.02 0 0.515 0.02 0 0.52 0.02 0 0.525 0.02 0 0.53 0.02 0 0.535 0.02 0 0.54 0.02 0 0.545 0.02 0 0.55 0.02 0 0.555 0.02 0 0.56 0.02 0 0.565 0.02 0 0.57 0.02 0 0.575 0.02 0 0.58 0.02 0 0.585 0.02 0 0.59 0.02 0 0.595 0.02 0 0.6 0.02 0 0.605 0.02 0 0.61 0.02 0 0.615 0.02 0 0.62 0.02 0 0.625 0.02 0 0.63 0.02 0 0.635 0.02 0 0.64 0.02 0 0.645 0.02 0 0.65 0.02 0 0.655 0.02 0 0.66 0.02 0 0.665 0.02 0 0.67 0.02 0 0.675 0.02 0 0.68 0.02 0 0.685 0.02 0 0.69 0.02 0 0.695 0.02 0 0.7 0.02 0 0.705 0.02 0 0.71 0.02 0 0.715 0.02 0 0.72 0.02 0 0.725 0.02 0 0.73 0.02 0 0.735 0.02 0 0.74 0.02 0 0.745 0.02 0 0.75 0.02 0 0.755 0.02 0 0.76 0.02 0 0.765 0.02 0 0.77 0.02 0 0.775 0.02 0 0.78 0.02 0 0.785 0.02 0 0.79 0.02 0 0.795 0.02 0 0.8 0.02 0 0.805 0.02 0 0.81 0.02 0 0.815 0.02 0 0.82 0.02 0 0.825 0.02 0 0.83 0.02 0 0.835 0.02 0 0.84 0.02 0 0.845 0.02 0 0.85 0.02 0 0.855 0.02 0 0.86 0.02 0 0.865 0.02 0 0.87 0.02 0 0.875 0.02 0 0.88 0.02 0 0.885 0.02 0 0.89 0.02 0 0.895 0.02 0 0.9 0.02 0 0.905 0.02 0 0.91 0.02 0 0.915 0.02 0 0.92 0.02 0 0.925 0.02 0 0.93 0.02 0 0.935 0.02 0 0.94 0.02 0 0.945 0.02 0 0.95 0.02 0 0.955 0.02 0 0.96 0.02 0 0.965 0.02 0 0.97 0.02 0 0.975 0.02 0 0.98 0.02 0 0.985 0.02 0 0.99 0.02 0 0.995 0.02 0 1 0.02 0 0 0.04 0 0.005 0.04 0 0.01 0.04 0 0.015 0.04 0 0.02 0.04 0 0.025 0.04 0 0.03 0.04 0 0.035 0.04 0 0.04 0.04 0 0.045 0.04 0 0.05 0.04 0 0.055 0.04 0 0.06 0.04 0 0.065 0.04 0 0.07 0.04 0 0.075 0.04 0 0.08 0.04 0 0.085 0.04 0 0.09 0.04 0 0.095 0.04 0 0.1 0.04 0 0.105 0.04 0 0.11 0.04 0 0.115 0.04 0 0.12 0.04 0 0.125 0.04 0 0.13 0.04 0 0.135 0.04 0 0.14 0.04 0 0.145 0.04 0 0.15 0.04 0 0.155 0.04 0 0.16 0.04 0 0.165 0.04 0 0.17 0.04 0 0.175 0.04 0 0.18 0.04 0 0.185 0.04 0 0.19 0.04 0 0.195 0.04 0 0.2 0.04 0 0.205 0.04 0 0.21 0.04 0 0.215 0.04 0 0.22 0.04 0 0.225 0.04 0 0.23 0.04 0 0.235 0.04 0 0.24 0.04 0 0.245 0.04 0 0.25 0.04 0 0.255 0.04 0 0.26 0.04 0 0.265 0.04 0 0.27 0.04 0 0.275 0.04 0 0.28 0.04 0 0.285 0.04 0 0.29 0.04 0 0.295 0.04 0 0.3 0.04 0 0.305 0.04 0 0.31 0.04 0 0.315 0.04 0 0.32 0.04 0 0.325 0.04 0 0.33 0.04 0 0.335 0.04 0 0.34 0.04 0 0.345 0.04 0 0.35 0.04 0 0.355 0.04 0 0.36 0.04 0 0.365 0.04 0 0.37 0.04 0 0.375 0.04 0 0.38 0.04 0 0.385 0.04 0 0.39 0.04 0 0.395 0.04 0 0.4 0.04 0 0.405 0.04 0 0.41 0.04 0 0.415 0.04 0 0.42 0.04 0 0.425 0.04 0 0.43 0.04 0 0.435 0.04 0 0.44 0.04 0 0.445 0.04 0 0.45 0.04 0 0.455 0.04 0 0.46 0.04 0 0.465 0.04 0 0.47 0.04 0 0.475 0.04 0 0.48 0.04 0 0.485 0.04 0 0.49 0.04 0 0.495 0.04 0 0.5 0.04 0 0.505 0.04 0 0.51 0.04 0 0.515 0.04 0 0.52 0.04 0 0.525 0.04 0 0.53 0.04 0 0.535 0.04 0 0.54 0.04 0 0.545 0.04 0 0.55 0.04 0 0.555 0.04 0 0.56 0.04 0 0.565 0.04 0 0.57 0.04 0 0.575 0.04 0 0.58 0.04 0 0.585 0.04 0 0.59 0.04 0 0.595 0.04 0 0.6 0.04 0 0.605 0.04 0 0.61 0.04 0 0.615 0.04 0 0.62 0.04 0 0.625 0.04 0 0.63 0.04 0 0.635 0.04 0 0.64 0.04 0 0.645 0.04 0 0.65 0.04 0 0.655 0.04 0 0.66 0.04 0 0.665 0.04 0 0.67 0.04 0 0.675 0.04 0 0.68 0.04 0 0.685 0.04 0 0.69 0.04 0 0.695 0.04 0 0.7 0.04 0 0.705 0.04 0 0.71 0.04 0 0.715 0.04 0 0.72 0.04 0 0.725 0.04 0 0.73 0.04 0 0.735 0.04 0 0.74 0.04 0 0.745 0.04 0 0.75 0.04 0 0.755 0.04 0 0.76 0.04 0 0.765 0.04 0 0.77 0.04 0 0.775 0.04 0 0.78 0.04 0 0.785 0.04 0 0.79 0.04 0 0.795 0.04 0 0.8 0.04 0 0.805 0.04 0 0.81 0.04 0 0.815 0.04 0 0.82 0.04 0 0.825 0.04 0 0.83 0.04 0 0.835 0.04 0 0.84 0.04 0 0.845 0.04 0 0.85 0.04 0 0.855 0.04 0 0.86 0.04 0 0.865 0.04 0 0.87 0.04 0 0.875 0.04 0 0.88 0.04 0 0.885 0.04 0 0.89 0.04 0 0.895 0.04 0 0.9 0.04 0 0.905 0.04 0 0.91 0.04 0 0.915 0.04 0 0.92 0.04 0 0.925 0.04 0 0.93 0.04 0 0.935 0.04 0 0.94 0.04 0 0.945 0.04 0 0.95 0.04 0 0.955 0.04 0 0.96 0.04 0 0.965 0.04 0 0.97 0.04 0 0.975 0.04 0 0.98 0.04 0 0.985 0.04 0 0.99 0.04 0 0.995 0.04 0 1 0.04 0 0 0.06 0 0.005 0.06 0 0.01 0.06 0 0.015 0.06 0 0.02 0.06 0 0.025 0.06 0 0.03 0.06 0 0.035 0.06 0 0.04 0.06 0 0.045 0.06 0 0.05 0.06 0 0.055 0.06 0 0.06 0.06 0 0.065 0.06 0 0.07 0.06 0 0.075 0.06 0 0.08 0.06 0 0.085 0.06 0 0.09 0.06 0 0.095 0.06 0 0.1 0.06 0 0.105 0.06 0 0.11 0.06 0 0.115 0.06 0 0.12 0.06 0 0.125 0.06 0 0.13 0.06 0 0.135 0.06 0 0.14 0.06 0 0.145 0.06 0 0.15 0.06 0 0.155 0.06 0 0.16 0.06 0 0.165 0.06 0 0.17 0.06 0 0.175 0.06 0 0.18 0.06 0 0.185 0.06 0 0.19 0.06 0 0.195 0.06 0 0.2 0.06 0 0.205 0.06 0 0.21 0.06 0 0.215 0.06 0 0.22 0.06 0 0.225 0.06 0 0.23 0.06 0 0.235 0.06 0 0.24 0.06 0 0.245 0.06 0 0.25 0.06 0 0.255 0.06 0 0.26 0.06 0 0.265 0.06 0 0.27 0.06 0 0.275 0.06 0 0.28 0.06 0 0.285 0.06 0 0.29 0.06 0 0.295 0.06 0 0.3 0.06 0 0.305 0.06 0 0.31 0.06 0 0.315 0.06 0 0.32 0.06 0 0.325 0.06 0 0.33 0.06 0 0.335 0.06 0 0.34 0.06 0 0.345 0.06 0 0.35 0.06 0 0.355 0.06 0 0.36 0.06 0 0.365 0.06 0 0.37 0.06 0 0.375 0.06 0 0.38 0.06 0 0.385 0.06 0 0.39 0.06 0 0.395 0.06 0 0.4 0.06 0 0.405 0.06 0 0.41 0.06 0 0.415 0.06 0 0.42 0.06 0 0.425 0.06 0 0.43 0.06 0 0.435 0.06 0 0.44 0.06 0 0.445 0.06 0 0.45 0.06 0 0.455 0.06 0 0.46 0.06 0 0.465 0.06 0 0.47 0.06 0 0.475 0.06 0 0.48 0.06 0 0.485 0.06 0 0.49 0.06 0 0.495 0.06 0 0.5 0.06 0 0.505 0.06 0 0.51 0.06 0 0.515 0.06 0 0.52 0.06 0 0.525 0.06 0 0.53 0.06 0 0.535 0.06 0 0.54 0.06 0 0.545 0.06 0 0.55 0.06 0 0.555 0.06 0 0.56 0.06 0 0.565 0.06 0 0.57 0.06 0 0.575 0.06 0 0.58 0.06 0 0.585 0.06 0 0.59 0.06 0 0.595 0.06 0 0.6 0.06 0 0.605 0.06 0 0.61 0.06 0 0.615 0.06 0 0.62 0.06 0 0.625 0.06 0 0.63 0.06 0 0.635 0.06 0 0.64 0.06 0 0.645 0.06 0 0.65 0.06 0 0.655 0.06 0 0.66 0.06 0 0.665 0.06 0 0.67 0.06 0 0.675 0.06 0 0.68 0.06 0 0.685 0.06 0 0.69 0.06 0 0.695 0.06 0 0.7 0.06 0 0.705 0.06 0 0.71 0.06 0 0.715 0.06 0 0.72 0.06 0 0.725 0.06 0 0.73 0.06 0 0.735 0.06 0 0.74 0.06 0 0.745 0.06 0 0.75 0.06 0 0.755 0.06 0 0.76 0.06 0 0.765 0.06 0 0.77 0.06 0 0.775 0.06 0 0.78 0.06 0 0.785 0.06 0 0.79 0.06 0 0.795 0.06 0 0.8 0.06 0 0.805 0.06 0 0.81 0.06 0 0.815 0.06 0 0.82 0.06 0 0.825 0.06 0 0.83 0.06 0 0.835 0.06 0 0.84 0.06 0 0.845 0.06 0 0.85 0.06 0 0.855 0.06 0 0.86 0.06 0 0.865 0.06 0 0.87 0.06 0 0.875 0.06 0 0.88 0.06 0 0.885 0.06 0 0.89 0.06 0 0.895 0.06 0 0.9 0.06 0 0.905 0.06 0 0.91 0.06 0 0.915 0.06 0 0.92 0.06 0 0.925 0.06 0 0.93 0.06 0 0.935 0.06 0 0.94 0.06 0 0.945 0.06 0 0.95 0.06 0 0.955 0.06 0 0.96 0.06 0 0.965 0.06 0 0.97 0.06 0 0.975 0.06 0 0.98 0.06 0 0.985 0.06 0 0.99 0.06 0 0.995 0.06 0 1 0.06 0 0 0.08 0 0.005 0.08 0 0.01 0.08 0 0.015 0.08 0 0.02 0.08 0 0.025 0.08 0 0.03 0.08 0 0.035 0.08 0 0.04 0.08 0 0.045 0.08 0 0.05 0.08 0 0.055 0.08 0 0.06 0.08 0 0.065 0.08 0 0.07 0.08 0 0.075 0.08 0 0.08 0.08 0 0.085 0.08 0 0.09 0.08 0 0.095 0.08 0 0.1 0.08 0 0.105 0.08 0 0.11 0.08 0 0.115 0.08 0 0.12 0.08 0 0.125 0.08 0 0.13 0.08 0 0.135 0.08 0 0.14 0.08 0 0.145 0.08 0 0.15 0.08 0 0.155 0.08 0 0.16 0.08 0 0.165 0.08 0
[...]
			<PointData Scalars="VitesseX">
				<DataArray Name="VitesseX" type="Float32" format="ascii">
 0 -2.0035e-14 2.63978e-14 -4.9563e-15 4.54775e-14 -5.61952e-15 2.98558e-14 -2.29716e-14 7.09806e-16 -1.32701e-14 2.47904e-14 -6.24557e-14 6.76317e-14 2.90924e-14 -1.51503e-13 -4.06189e-14 -6.09131e-14 -1.79922e-13 -3.73418e-14 -4.98314e-14 -6.92083e-14 1.71991e-14 -2.09412e-13 1.24404e-13 -1.52664e-13 3.58278e-14 -3.18693e-13 -1.02502e-14 -3.85473e-13 1.75993e-13 -2.64876e-13 -1.76616e-13 -1.52482e-13 -3.48339e-14 -2.97451e-13 -3.04263e-13 1.13416e-13 7.40766e-14 -1.07058e-13 1.5549e-13 7.52257e-14 8.56781e-13 5.795e-12 3.61083e-11 2.09855e-10 1.15936e-09 6.05972e-09 2.99448e-08 1.39607e-07 6.12263e-07 2.51779e-06 9.6728e-06 3.45675e-05 0.000114333 0.000347918 0.000967343 0.0024388 0.00553403 0.0112417 0.0204268 0.0333975 0.0497614 0.0687092 0.0894182 0.111265 0.133842 0.156902 0.180301 0.203937 0.227747 0.251695 0.275759 0.299923 0.324183 0.348538 0.372995 0.397565 0.422272 0.447062 0.471319 0.495524 0.519245 0.542936 0.566244 0.589614 0.612625 0.635589 0.658327 0.680825 0.703284 0.725336 0.747273 0.769034 0.790086 0.811148 0.831559 0.850859 0.870107 0.886599 0.901208 0.913571 0.921226 0.926932 0.930297 0.93107 0.931583 0.931691 0.931614 0.931413 0.931121 0.930788 0.930444 0.930101 0.929764 0.929455 0.929192 0.928978 0.928804 0.928654 0.92853 0.92843 0.928348 0.928277 0.928208 0.928131 0.928025 0.927856 0.927568 0.9271 0.926445 0.92672 0.930325 0.930344 0.927532 0.927104 0.927245 0.927451 0.927552 0.927626 0.927677 0.927637 0.92755 0.927534 0.927619 0.92762 0.927606 0.927589 0.92756 0.927491 0.927345 0.927071 0.926534 0.925451 0.923272 0.918947 0.910513 0.894534 0.865569 0.816367 0.739732 0.632542 0.500723 0.360533 0.232475 0.13204 0.0655661 0.0289423 0.0117981 0.00461039 0.00176716 0.000671573 0.00025414 9.59171e-05 3.61204e-05 1.35719e-05 5.08716e-06 1.9017e-06 7.08763e-07 2.63276e-07 9.74357e-08 3.59146e-08 1.31794e-08 4.8136e-09 1.74848e-09 6.3195e-10 2.26998e-10 8.07875e-11 2.84895e-11 9.86964e-12 3.35845e-12 9.59726e-13 -9.37405e-14 1.45357e-13 2.03318e-13 2.61549e-13 6.2714e-14 9.07995e-13 -7.2151e-13 8.32648e-13 -7.15624e-13 0 0 1.79844e-15 -1.139e-14 1.73194e-14 -5.51359e-16 3.53123e-15 3.0069e-15 -8.41057e-15 -1.42618e-14 1.07866e-14 -5.29932e-14 7.57165e-14 -3.33292e-14 -1.03578e-13 -2.5806e-14 8.79711e-15 -1.34751e-13 -2.73023e-14 -8.48268e-14 1.49501e-14 -3.02711e-14 -2.03487e-13 1.41623e-13 -2.60788e-13 3.91435e-14 -1.56174e-13 5.75938e-14 -2.96974e-13 -4.99914e-14 -2.96879e-13 8.89638e-15 -1.18671e-13 -2.1667e-13 -2.85536e-13 -1.18702e-13 5.3855e-14 -2.49826e-13 -1.40119e-13 1.40032e-13 5.41792e-14 6.53513e-14 6.81025e-13 5.7952e-12 3.6046e-11 2.10153e-10 1.15955e-09 6.05915e-09 2.99452e-08 1.39607e-07 6.12263e-07 2.51779e-06 9.6728e-06 3.45675e-05 0.000114333 0.000347918 0.000967343 0.0024388 0.00553403 0.0112417 0.0204268 0.0333975 0.0497614 0.0687092 0.0894182 0.111265 0.133842 0.156902 0.180301 0.203937 0.227747 0.251695 0.275759 0.299923 0.324183 0.348538 0.372995 0.397565 0.422272 0.447062 0.471319 0.495524 0.519245 0.542936 0.566244 0.589614 0.612625 0.635589 0.658327 0.680825 0.703284 0.725336 0.747273 0.769034 0.790086 0.811148 0.831559 0.850859 0.870107 0.886599 0.901208 0.913571 0.921226 0.926932 0.930297 0.93107 0.931583 0.931691 0.931614 0.931413 0.931121 0.930788 0.930444 0.930101 0.929764 0.929455 0.929192 0.928978 0.928804 0.928654 0.92853 0.92843 0.928348 0.928277 0.928208 0.928131 0.928025 0.927856 0.927568 0.9271 0.926445 0.92672 0.930325 0.930344 0.927532 0.927104 0.927245 0.927451 0.927552 0.927626 0.927677 0.927637 0.92755 0.927534 0.927619 0.92762 0.927606 0.927589 0.92756 0.927491 0.927345 0.927071 0.926534 0.925451 0.923272 0.918947 0.910513 0.894534 0.865569 0.816367 0.739732 0.632542 0.500723 0.360533 0.232475 0.13204 0.0655661 0.0289423 0.0117981 0.00461039 0.00176716 0.000671573 0.00025414 9.59171e-05 3.61204e-05 1.35719e-05 5.08716e-06 1.90169e-06 7.08764e-07 2.63276e-07 9.74362e-08 3.59141e-08 1.31798e-08 4.81325e-09 1.74914e-09 6.3163e-10 2.26684e-10 8.07415e-11 2.85148e-11 9.9184e-12 3.26315e-12 1.24527e-12 -1.92466e-13 5.54369e-13 2.02548e-13 8.34542e-14 1.63377e-13 -3.35492e-13 1.13336e-12 -1.07409e-12 7.06454e-13 0 0 -5.62424e-15 -8.72114e-15 -1.63575e-14 -2.94196e-14 -3.21088e-14 4.36886e-15 -4.0913e-14 1.39858e-14 6.49176e-14 -1.68663e-14 -1.03866e-13 1.59137e-14 3.00231e-14 -2.36424e-14 -2.53474e-14 -6.25723e-14 -1.47694e-13 7.13302e-14 -3.19063e-14 -1.23939e-13 9.73973e-14 -1.16597e-13 -2.9525e-14 -1.50602e-13 -2.81586e-14 -1.80516e-13 -1.73198e-13 -2.69053e-13 -1.17344e-14 -4.59068e-14 -6.27965e-14 -3.12139e-14 -1.97648e-13 -3.04177e-13 -2.72077e-13 5.11953e-14 -5.57617e-14 -3.08152e-14 -3.7312e-14 -1.89345e-14 7.44551e-13 5.81113e-12 3.61725e-11 2.1053e-10 1.1593e-09 6.05907e-09 2.99452e-08 1.39608e-07 6.12263e-07 2.51779e-06 9.6728e-06 3.45675e-05 0.000114333 0.000347918 0.000967343 0.0024388 0.00553403 0.0112417 0.0204268 0.0333975 0.0497614 0.0687092 0.0894182 0.111265 0.133842 0.156902 0.180301 0.203937 0.227747 0.251695 0.275759 0.299923 0.324183 0.348538 0.372995 0.397565 0.422272 0.447062 0.471319 0.495524 0.519245 0.542936 0.566244 0.589614 0.612625 0.635589 0.658327 0.680825 0.703284 0.725336 0.747273 0.769034 0.790086 0.811148 0.831559 0.850859 0.870107 0.886599 0.901208 0.913571 0.921226 0.926932 0.930297 0.93107 0.931583 0.931691 0.931614 0.931413 0.931121 0.930788 0.930444 0.930101 0.929764 0.929455 0.929192 0.928978 0.928804 0.928654 0.92853 0.92843 0.928348 0.928277 0.928208 0.928131 0.928025 0.927856 0.927568 0.9271 0.926445 0.92672 0.930325 0.930344 0.927532 0.927104 0.927245 0.927451 0.927552 0.927626 0.927677 0.927637 0.92755 0.927534 0.927619 0.92762 0.927606 0.927589 0.92756 0.927491 0.927345 0.927071 0.926534 0.925451 0.923272 0.918947 0.910513 0.894534 0.865569 0.816367 0.739732 0.632542 0.500723 0.360533 0.232475 0.13204 0.0655661 0.0289423 0.0117981 0.00461039 0.00176716 0.000671573 0.00025414 9.59171e-05 3.61204e-05 1.35719e-05 5.08716e-06 1.9017e-06 7.08764e-07 2.63276e-07 9.7436e-08 3.59148e-08 1.31795e-08 4.81378e-09 1.74883e-09 6.31942e-10 2.26708e-10 8.09622e-11 2.84101e-11 9.61521e-12 3.48622e-12 9.99049e-13 3.25406e-13 3.19144e-13 2.42803e-13 2.24185e-13 -2.82981e-14 2.14462e-13 -1.22891e-12 2.6414e-13 -2.71304e-13 0 0 -1.1059e-14 -1.85764e-14 -2.71037e-14 -2.49214e-14 -4.77877e-14 2.07211e-14 -5.00484e-14 -4.52677e-14 -2.87922e-14 2.0556e-14 8.54716e-16 1.14767e-13 2.83883e-14 -1.15262e-13 2.34746e-14 2.72411e-14 -7.41597e-14 3.00251e-14 -9.09028e-14 -2.0033e-14 -4.62717e-14 -4.21845e-14 -1.9168e-14 -3.11381e-14 -8.03907e-14 -2.22293e-13 -1.74576e-13 -2.36277e-13 -5.95267e-14 -2.25922e-13 6.80328e-14 -1.78168e-13 1.50264e-14 -3.1716e-13 -1.55463e-13 1.71391e-13 7.52455e-14 -3.5931e-13 -3.561e-14 1.19471e-13 7.65136e-13 5.84773e-12 3.62689e-11 2.10415e-10 1.15969e-09 6.05922e-09 2.99449e-08 1.39608e-07 6.12263e-07 2.51779e-06 9.6728e-06 3.45675e-05 0.000114333 0.000347918 0.000967343 0.0024388 0.00553403 0.0112417 0.0204268 0.0333975 0.0497614 0.0687092 0.0894182 0.111265 0.133842 0.156902 0.180301 0.203937 0.227747 0.251695 0.275759 0.299923 0.324183 0.348538 0.372995 0.397565 0.422272 0.447062 0.471319 0.495524 0.519245 0.542936 0.566244 0.589614 0.612625 0.635589 0.658327 0.680825 0.703284 0.725336 0.747273 0.769034 0.790086 0.811148 0.831559 0.850859 0.870107 0.886599 0.901208 0.913571 0.921226 0.926932 0.930297 0.93107 0.931583 0.931691 0.931614 0.931413 0.931121 0.930788 0.930444 0.930101 0.929764 0.929455 0.929192 0.928978 0.928804 0.928654 0.92853 0.92843 0.928348 0.928277 0.928208 0.928131 0.928025 0.927856 0.927568 0.9271 0.926445 0.92672 0.930325 0.930344 0.927532 0.927104 0.927245 0.927451 0.927552 0.927626 0.927677 0.927637 0.92755 0.927534 0.927619 0.92762 0.927606 0.927589 0.92756 0.927491 0.927345 0.927071 0.926534 0.925451 0.923272 0.918947 0.910513 0.894534 0.865569 0.816367 0.739732 0.632542 0.500723 0.360533 0.232475 0.13204 0.0655661 0.0289423 0.0117981 0.00461039 0.00176716 0.000671573 0.00025414 9.59171e-05 3.61204e-05 1.35719e-05 5.08716e-06 1.9017e-06 7.08763e-07 2.63276e-07 9.74358e-08 3.59146e-08 1.31796e-08 4.81366e-09 1.74933e-09 6.31912e-10 2.27114e-10 8.10416e-11 2.83856e-11 9.82168e-12 3.13316e-12 1.01982e-12 2.91062e-13 3.15829e-13 -5.43891e-13 -3.08368e-13 -1.36811e-13 2.36817e-13 -6.64546e-13 2.24608e-13 -7.15454e-13 0 0 -5.75684e-15 -4.21477e-14 -1.71076e-14 -5.2408e-14 -3.64321e-14 -3.50127e-14 -1.00123e-14 -3.90643e-14 -2.03988e-14 -5.05601e-14 1.36134e-13 8.83788e-15 -5.00461e-14 2.3388e-15 9.30726e-14 3.5194e-14 9.60997e-14 -2.72229e-14 -5.03126e-14 3.849e-14 -2.6387e-13 1.23912e-13 -2.98973e-13 1.05152e-13 -2.28089e-13 -7.18794e-14 -2.71308e-13 2.48401e-14 -3.44575e-13 -1.30553e-13 -4.61379e-14 -2.03131e-13 -2.77747e-14 5.66763e-14 1.61411e-13 -3.74043e-14 4.8031e-14 4.02943e-14 -9.85148e-14 8.13798e-14 4.36306e-13 5.71353e-12 3.6125e-11 2.10325e-10 1.15978e-09 6.05912e-09 2.99452e-08 1.39608e-07 6.12263e-07 2.51779e-06 9.6728e-06 3.45675e-05 0.000114333 0.000347918 0.000967343 0.0024388 0.00553403 0.0112417 0.0204268 0.0333975 0.0497614 0.0687092 0.0894182 0.111265 0.133842 0.156902 0.180301 0.203937 0.227747 0.251695 0.275759 0.299923 0.324183 0.348538 0.372995 0.397565 0.422272 0.447062 0.471319 0.495524 0.519245 0.542936 0.566244 0.589614 0.612625 0.635589 0.658327 0.680825 0.703284 0.725336 0.747273 0.769034 0.790086 0.811148 0.831559 0.850859 0.870107 0.886599 0.901208 0.913571 0.921226 0.926932 0.930297 0.93107 0.931583 0.931691 0.931614 0.931413 0.931121 0.930788 0.930444 0.930101 0.929764 0.929455 0.929192 0.928978 0.928804 0.928654 0.92853 0.92843 0.928348 0.928277 0.928208 0.928131 0.928025 0.927856 0.927568 0.9271 0.926445 0.92672 0.930325 0.930344 0.927532 0.927104 0.927245 0.927451 0.927552 0.927626 0.927677 0.927637 0.92755 0.927534 0.927619 0.92762 0.927606 0.927589 0.92756 0.927491 0.927345 0.927071 0.926534 0.925451 0.923272 0.918947 0.910513 0.894534 0.865569 0.816367 0.739732 0.632542 0.500723 0.360533 0.232475 0.13204 0.0655661 0.0289423 0.0117981 0.00461039 0.00176716 0.000671573 0.00025414 9.59171e-05 3.61204e-05 1.35719e-05 5.08716e-06 1.9017e-06 7.08764e-07 2.63276e-07 9.7436e-08 3.59143e-08 1.31798e-08 4.81303e-09 1.7494e-09 6.31606e-10 2.26945e-10 8.09076e-11 2.86733e-11 1.02535e-11 2.98854e-12 9.82023e-13 -4.78461e-13 5.88831e-13 -3.79571e-13 -6.58635e-13 -4.13293e-15 -6.77663e-13 1.64869e-12 -8.07327e-13 4.60137e-13 0 0 -2.42761e-14 -1.54072e-14 -5.23179e-14 -6.72323e-14 -5.41883e-14 -7.88878e-14 -7.90424e-15 6.96119e-14 1.11779e-13 -4.51881e-14 -1.51063e-13 -4.57416e-14 1.39425e-13 8.80252e-14 3.02881e-14 9.93501e-14 -8.01854e-14 1.60476e-13 -6.23639e-14 -1.39499e-13 1.83771e-13 -3.93659e-13 2.732e-14 -2.59576e-13 -3.53886e-15 -4.94084e-13 4.38364e-14 -3.01361e-13 1.76185e-13 -1.83745e-13 -2.93208e-13 1.68505e-13 5.53403e-14 7.92724e-14 -3.22379e-13 2.97868e-13 1.88362e-13 3.50458e-13 -1.53302e-13 -1.69529e-13 3.26173e-13 5.55846e-12 3.60734e-11 2.10425e-10 1.15903e-09 6.05935e-09 2.99455e-08 1.39608e-07 6.12264e-07 2.51779e-06 9.6728e-06 3.45675e-05 0.000114333 0.000347918 0.000967343 0.0024388 0.00553403 0.0112417 0.0204268 0.0333975 0.0497614 0.0687092 0.0894182 0.111265 0.133842 0.156902 0.180301 0.203937 0.227747 0.251695 0.275759 0.299923 0.324183 0.348538 0.372995 0.397565 0.422272 0.447062 0.471319 0.495524 0.519245 0.542936 0.566244 0.589614 0.612625 0.635589 0.658327 0.680825 0.703284 0.725336 0.747273 0.769034 0.790086 0.811148 0.831559 0.850859 0.870107 0.886599 0.901208 0.913571 0.921226 0.926932 0.930297 0.93107 0.931583 0.931691 0.931614 0.931413 0.931121 0.930788 0.930444 0.930101 0.929764 0.929455 0.929192 0.928978 0.928804 0.928654 0.92853 0.92843 0.928348 0.928277 0.928208 0.928131 0.928025 0.927856 0.927568 0.9271 0.926445 0.92672 0.930325 0.930344 0.927532 0.927104 0.927245 0.927451 0.927552 0.927626 0.927677 0.927637 0.92755 0.927534 0.927619 0.92762 0.927606 0.927589 0.92756 0.927491 0.927345 0.927071 0.926534 0.925451 0.923272 0.918947 0.910513 0.894534 0.865569 0.816367 0.739732 0.632542 0.500723 0.360533 0.232475 0.13204 0.0655661 0.0289423 0.0117981 0.00461039 0.00176716 0.000671573 0.00025414 9.59171e-05 3.61204e-05 1.35719e-05 5.08716e-06 1.9017e-06 7.08765e-07 2.63276e-07 9.74358e-08 3.59153e-08 1.31791e-08 4.81338e-09 1.74799e-09 6.31961e-10 2.26709e-10 8.09608e-11 2.88554e-11 1.01269e-11 3.51536e-12 3.91693e-13 -5.97043e-13 2.20911e-13 6.12466e-13 -1.57524e-13 -5.52795e-14 1.78942e-13 -8.19568e-13 1.44524e-12 -3.19957e-13 0
				</DataArray>
				<DataArray Name="VitesseY" type="Float32" format="ascii">