<?xml version="1.0"?>
<VTKFile type="PolyData">
	<PolyData>
		<Piece NumberOfPoints="1206" NumberOfPolys="1000">
			<Points>
				<DataArray type="Float32" NumberOfComponents="3" format="ascii">
 0 0 0 0.005 0 0 0.01 0 0 0.015 0 0 0.02 0 0 0.025 0 0 0.03 0 0 0.035 0 0 0.04 0 0 0.045 0 0 0.05 0 0 0.055 0 0 0.06 0 0 0.065 0 0 0.07 0 0 0.075 0 0 0.08 0 0 0.085 0 0 0.09 0 0 0.095 0 0 0.1 0 0 0.105 0 0 0.11 0 0 0.115 0 0 0.12 0 0 0.125 0 0 0.13 0 0 0.135 0 0 0.14 0 0 0.145 0 0 0.15 0 0 0.155 0 0 0.16 0 0 0.165 0 0 0.17 0 0 0.175 0 0 0.18 0 0 0.185 0 0 0.19 0 0 0.195 0 0 0.2 0 0 0.205 0 0 0.21 0 0 0.215 0 0 0.22 0 0 0.225 0 0 0.23 0 0 0.235 0 0 0.24 0 0 0.245 0 0 0.25 0 0 0.255 0 0 0.26 0 0 0.265 0 0 0.27 0 0 0.275 0 0 0.28 0 0 0.285 0 0 0.29 0 0 0.295 0 0 0.3 0 0 0.305 0 0 0.31 0 0 0.315 0 0 0.32 0 0 0.325 0 0 0.33 0 0 0.335 0 0 0.34 0 0 0.345 0 0 0.35 0 0 0.355 0 0 0.36 0 0 0.365 0 0 0.37 0 0 0.375 0 0 0.38 0 0 0.385 0 0 0.39 0 0 0.395 0 0 0.4 0 0 0.405 0 0 0.41 0 0 0.415 0 0 0.42 0 0 0.425 0 0 0.43 0 0 0.435 0 0 0.44 0 0 0.445 0 0 0.45 0 0 0.455 0 0 0.46 0 0 0.465 0 0 0.47 0 0 0.475 0 0 0.48 0 0 0.485 0 0 0.49 0 0 0.495 0 0 0.5 0 0 0.505 0 0 0.51 0 0 0.515 0 0 0.52 0 0 0.525 0 0 0.53 0 0 0.535 0 0 0.54 0 0 0.545 0 0 0.55 0 0 0.555 0 0 0.56 0 0 0.565 0 0 0.57 0 0 0.575 0 0 0.58 0 0 0.585 0 0 0.59 0 0 0.595 0 0 0.6 0 0 0.605 0 0 0.61 0 0 0.615 0 0 0.62 0 0 0.625 0 0 0.63 0 0 0.635 0 0 0.64 0 0 0.645 0 0 0.65 0 0 0.655 0 0 0.66 0 0 0.665 0 0 0.67 0 0 0.675 0 0 0.68 0 0 0.685 0 0 0.69 0 0 0.695 0 0 0.7 0 0 0.705 0 0 0.71 0 0 0.715 0 0 0.72 0 0 0.725 0 0 0.73 0 0 0.735 0 0 0.74 0 0 0.745 0 0 0.75 0 0 0.755 0 0 0.76 0 0 0.765 0 0 0.77 0 0 0.775 0 0 0.78 0 0 0.785 0 0 0.79 0 0 0.795 0 0 0.8 0 0 0.805 0 0 0.81 0 0 0.815 0 0 0.82 0 0 0.825 0 0 0.83 0 0 0.835 0 0 0.84 0 0 0.845 0 0 0.85 0 0 0.855 0 0 0.86 0 0 0.865 0 0 0.87 0 0 0.875 0 0 0.88 0 0 0.885 0 0 0.89 0 0 0.895 0 0 0.9 0 0 0.905 0 0 0.91 0 0 0.915 0 0 0.92 0 0 0.925 0 0 0.93 0 0 0.935 0 0 0.94 0 0 0.945 0 0 0.95 0 0 0.955 0 0 0.96 0 0 0.965 0 0 0.97 0 0 0.975 0 0 0.98 0 0 0.985 0 0 0.99 0 0 0.995 0 0 1 0 0 0 0.02 0 0.005 0.02 0 0.01 0.02 0 0.015 0.02 0 0.02 0.02 0 0.025 0.02 0 0.03 0.02 0 0.035 0.02 0 0.04 0.02 0 0.045 0.02 0 0.05 0.02 0 0.055 0.02 0 0.06 0.02 0 0.065 0.02 0 0.07 0.02 0 0.075 0.02 0 0.08 0.02 0 0.085 0.02 0 0.09 0.02 0 0.095 0.02 0 0.1 0.02 0 0.105 0.02 0 0.11 0.02 0 0.115 0.02 0 0.12 0.02 0 0.125 0.02 0 0.13 0.02 0 0.135 0.02 0 0.14 0.02 0 0.145 0.02 0 0.15 0.02 0 0.155 0.02 0 0.16 0.02 0 0.165 0.02 0 0.17 0.02 0 0.175 0.02 0 0.18 0.02 0 0.185 0.02 0 0.19 0.02 0 0.195 0.02 0 0.2 0.02 0 0.205 0.02 0 0.21 0.02 0 0.215 0.02 0 0.22 0.02 0 0.225 0.02 0 0.23 0.02 0 0.235 0.02 0 0.24 0.02 0 0.245 0.02 0 0.25 0.02 0 0.255 0.02 0 0.26 0.02 0 0.265 0.02 0 0.27 0.02 0 0.275 0.02 0 0.28 0.02 0 0.285 0.02 0 0.29 0.02 0 0.295 0.02 0 0.3 0.02 0 0.305 0.02 0 0.31 0.02 0 0.315 0.02 0 0.32 0.02 0 0.325 0.02 0 0.33 0.02 0 0.335 0.02 0 0.34 0.02 0 0.345 0.02 0 0.35 0.02 0 0.355 0.02 0 0.36 0.02 0 0.365 0.02 0 0.37 0.02 0 0.375 0.02 0 0.38 0.02 0 0.385 0.02 0 0.39 0.02 0 0.395 0.02 0 0.4 0.02 0 0.405 0.02 0 0.41 0.02 0 0.415 0.02 0 0.42 0.02 0 0.425 0.02 0 0.43 0.02 0 0.435 0.02 0 0.44 0.02 0 0.445 0.02 0 0.45 0.02 0 0.455 0.02 0 0.46 0.02 0 0.465 0.02 0 0.47 0.02 0 0.475 0.02 0 0.48 0.02 0 0.485 0.02 0 0.49 0.02 0 0.495 0.02 0 0.5 0.02 0 0.505 0.02 0 0.51 0.02 0 0.515 0.02 0 0.52 0.02 0 0.525 0.02 0 0.53 0.02 0 0.535 0.02 0 0.54 0.02 0 0.545 0.02 0 0.55 0.02 0 0.555 0.02 0 0.56 0.02 0 0.565 0.02 0 0.57 0.02 0 0.575 0.02 0 0.58 0.02 0 0.585 0.02 0 0.59 0.02 0 0.595 0.02 0 0.6 0.02 0 0.605 0.02 0 0.61 0.02 0 0.615 0.02 0 0.62 0.02 0 0.625 0.02 0 0.63 0.02 0 0.635 0.02 0 0.64 0.02 0 0.645 0.02 0 0.65 0.02 0 0.655 0.02 0 0.66 0.02 0 0.665 0.02 0 0.67 0.02 0 0.675 0.02 0 0.68 0.02 0 0.685 0.02 0 0.69 0.02 0 0.695 0.02 0 0.7 0.02 0 0.705 0.02 0 0.71 0.02 0 0.715 0.02 0 0.72 0.02 0 0.725 0.02 0 0.73 0.02 0 0.735 0.02 0 0.74 0.02 0 0.745 0.02 0 0.75 0.02 0 0.755 0.02 0 0.76 0.02 0 0.765 0.02 0 0.77 0.02 0 0.775 0.02 0 0.78 0.02 0 0.785 0.02 0 0.79 0.02 0 0.795 0.02 0 0.8 0.02 0 0.805 0.02 0 0.81 0.02 0 0.815 0.02 0 0.82 0.02 0 0.825 0.02 0 0.83 0.02 0 0.835 0.02 0 0.84 0.02 0 0.845 0.02 0 0.85 0.02 0 0.855 0.02 0 0.86 0.02 0 0.865 0.02 0 0.87 0.02 0 0.875 0.02 0 0.88 0.02 0 0.885 0.02 0 0.89 0.02 0 0.895 0.02 0 0.9 0.02 0 0.905 0.02 0 0.91 0.02 0 0.915 0.02 0 0.92 0.02 0 0.925 0.02 0 0.93 0.02 0 0.935 0.02 0 0.94 0.02 0 0.945 0.02 0 0.95 0.02 0 0.955 0.02 0 0.96 0.02 0 0.965 0.02 0 0.97 0.02 0 0.975 0.02 0 0.98 0.02 0 0.985 0.02 0 0.99 0.02 0 0.995 0.02 0 1 0.02 0 0 0.04 0 0.005 0.04 0 0.01 0.04 0 0.015 0.04 0 0.02 0.04 0 0.025 0.04 0 0.03 0.04 0 0.035 0.04 0 0.04 0.04 0 0.045 0.04 0 0.05 0.04 0 0.055 0.04 0 0.06 0.04 0 0.065 0.04 0 0.07 0.04 0 0.075 0.04 0 0.08 0.04 0 0.085 0.04 0 0.09 0.04 0 0.095 0.04 0 0.1 0.04 0 0.105 0.04 0 0.11 0.04 0 0.115 0.04 0 0.12 0.04 0 0.125 0.04 0 0.13 0.04 0 0.135 0.04 0 0.14 0.04 0 0.145 0.04 0 0.15 0.04 0 0.155 0.04 0 0.16 0.04 0 0.165 0.04 0 0.17 0.04 0 0.175 0.04 0 0.18 0.04 0 0.185 0.04 0 0.19 0.04 0 0.195 0.04 0 0.2 0.04 0 0.205 0.04 0 0.21 0.04 0 0.215 0.04 0 0.22 0.04 0 0.225 0.04 0 0.23 0.04 0 0.235 0.04 0 0.24 0.04 0 0.245 0.04 0 0.25 0.04 0 0.255 0.04 0 0.26 0.04 0 0.265 0.04 0 0.27 0.04 0 0.275 0.04 0 0.28 0.04 0 0.285 0.04 0 0.29 0.04 0 0.295 0.04 0 0.3 0.04 0 0.305 0.04 0 0.31 0.04 0 0.315 0.04 0 0.32 0.04 0 0.325 0.04 0 0.33 0.04 0 0.335 0.04 0 0.34 0.04 0 0.345 0.04 0 0.35 0.04 0 0.355 0.04 0 0.36 0.04 0 0.365 0.04 0 0.37 0.04 0 0.375 0.04 0 0.38 0.04 0 0.385 0.04 0 0.39 0.04 0 0.395 0.04 0 0.4 0.04 0 0.405 0.04 0 0.41 0.04 0 0.415 0.04 0 0.42 0.04 0 0.425 0.04 0 0.43 0.04 0 0.435 0.04 0 0.44 0.04 0 0.445 0.04 0 0.45 0.04 0 0.455 0.04 0 0.46 0.04 0 0.465 0.04 0 0.47 0.04 0 0.475 0.04 0 0.48 0.04 0 0.485 0.04 0 0.49 0.04 0 0.495 0.04 0 0.5 0.04 0 0.505 0.04 0 0.51 0.04 0 0.515 0.04 0 0.52 0.04 0 0.525 0.04 0 0.53 0.04 0 0.535 0.04 0 0.54 0.04 0 0.545 0.04 0 0.55 0.04 0 0.555 0.04 0 0.56 0.04 0 0.565 0.04 0 0.57 0.04 0 0.575 0.04 0 0.58 0.04 0 0.585 0.04 0 0.59 0.04 0 0.595 0.04 0 0.6 0.04 0 0.605 0.04 0 0.61 0.04 0 0.615 0.04 0 0.62 0.04 0 0.625 0.04 0 0.63 0.04 0 0.635 0.04 0 0.64 0.04 0 0.645 0.04 0 0.65 0.04 0 0.655 0.04 0 0.66 0.04 0 0.665 0.04 0 0.67 0.04 0 0.675 0.04 0 0.68 0.04 0 0.685 0.04 0 0.69 0.04 0 0.695 0.04 0 0.7 0.04 0 0.705 0.04 0 0.71 0.04 0 0.715 0.04 0 0.72 0.04 0 0.725 0.04 0 0.73 0.04 0 0.735 0.04 0 0.74 0.04 0 0.745 0.04 0 0.75 0.04 0 0.755 0.04 0 0.76 0.04 0 0.765 0.04 0 0.77 0.04 0 0.775 0.04 0 0.78 0.04 0 0.785 0.04 0 0.79 0.04 0 0.795 0.04 0 0.8 0.04 0 0.805 0.04 0 0.81 0.04 0 0.815 0.04 0 0.82 0.04 0 0.825 0.04 0 0.83 0.04 0 0.835 0.04 0 0.84 0.04 0 0.845 0.04 0 0.85 0.04 0 0.855 0.04 0 0.86 0.04 0 0.865 0.04 0 0.87 0.04 0 0.875 0.04 0 0.88 0.04 0 0.885 0.04 0 0.89 0.04 0 0.895 0.04 0 0.9 0.04 0 0.905 0.04 0 0.91 0.04 0 0.915 0.04 0 0.92 0.04 0 0.925 0.04 0 0.93 0.04 0 0.935 0.04 0 0.94 0.04 0 0.945 0.04 0 0.95 0.04 0 0.955 0.04 0 0.96 0.04 0 0.965 0.04 0 0.97 0.04 0 0.975 0.04 0 0.98 0.04 0 0.985 0.04 0 0.99 0.04 0 0.995 0.04 0 1 0.04 0 0 0.06 0 0.005 0.06 0 0.01 0.06 0 0.015 0.06 0 0.02 0.06 0 0.025 0.06 0 0.03 0.06 0 0.035 0.06 0 0.04 0.06 0 0.045 0.06 0 0.05 0.06 0 0.055 0.06 0 0.06 0.06 0 0.065 0.06 0 0.07 0.06 0 0.075 0.06 0 0.08 0.06 0 0.085 0.06 0 0.09 0.06 0 0.095 0.06 0 0.1 0.06 0 0.105 0.06 0 0.11 0.06 0 0.115 0.06 0 0.12 0.06 0 0.125 0.06 0 0.13 0.06 0 0.135 0.06 0 0.14 0.06 0 0.145 0.06 0 0.15 0.06 0 0.155 0.06 0 0.16 0.06 0 0.165 0.06 0 0.17 0.06 0 0.175 0.06 0 0.18 0.06 0 0.185 0.06 0 0.19 0.06 0 0.195 0.06 0 0.2 0.06 0 0.205 0.06 0 0.21 0.06 0 0.215 0.06 0 0.22 0.06 0 0.225 0.06 0 0.23 0.06 0 0.235 0.06 0 0.24 0.06 0 0.245 0.06 0 0.25 0.06 0 0.255 0.06 0 0.26 0.06 0 0.265 0.06 0 0.27 0.06 0 0.275 0.06 0 0.28 0.06 0 0.285 0.06 0 0.29 0.06 0 0.295 0.06 0 0.3 0.06 0 0.305 0.06 0 0.31 0.06 0 0.315 0.06 0 0.32 0.06 0 0.325 0.06 0 0.33 0.06 0 0.335 0.06 0 0.34 0.06 0 0.345 0.06 0 0.35 0.06 0 0.355 0.06 0 0.36 0.06 0 0.365 0.06 0 0.37 0.06 0 0.375 0.06 0 0.38 0.06 0 0.385 0.06 0 0.39 0.06 0 0.395 0.06 0 0.4 0.06 0 0.405 0.06 0 0.41 0.06 0 0.415 0.06 0 0.42 0.06 0 0.425 0.06 0 0.43 0.06 0 0.435 0.06 0 0.44 0.06 0 0.445 0.06 0 0.45 0.06 0 0.455 0.06 0 0.46 0.06 0 0.465 0.06 0 0.47 0.06 0 0.475 0.06 0 0.48 0.06 0 0.485 0.06 0 0.49 0.06 0 0.495 0.06 0 0.5 0.06 0 0.505 0.06 0 0.51 0.06 0 0.515 0.06 0 0.52 0.06 0 0.525 0.06 0 0.53 0.06 0 0.535 0.06 0 0.54 0.06 0 0.545 0.06 0 0.55 0.06 0 0.555 0.06 0 0.56 0.06 0 0.565 0.06 0 0.57 0.06 0 0.575 0.06 0 0.58 0.06 0 0.585 0.06 0 0.59 0.06 0 0.595 0.06 0 0.6 0.06 0 0.605 0.06 0 0.61 0.06 0 0.615 0.06 0 0.62 0.06 0 0.625 0.06 0 0.63 0.06 0 0.635 0.06 0 0.64 0.06 0 0.645 0.06 0 0.65 0.06 0 0.655 0.06 0 0.66 0.06 0 0.665 0.06 0 0.67 0.06 0 0.675 0.06 0 0.68 0.06 0 0.685 0.06 0 0.69 0.06 0 0.695 0.06 0 0.7 0.06 0 0.705 0.06 0 0.71 0.06 0 0.715 0.06 0 0.72 0.06 0 0.725 0.06 0 0.73 0.06 0 0.735 0.06 0 0.74 0.06 0 0.745 0.06 0 0.75 0.06 0 0.755 0.06 0 0.76 0.06 0 0.765 0.06 0 0.77 0.06 0 0.775 0.06 0 0.78 0.06 0 0.785 0.06 0 0.79 0.06 0 0.795 0.06 0 0.8 0.06 0 0.805 0.06 0 0.81 0.06 0 0.815 0.06 0 0.82 0.06 0 0.825 0.06 0 0.83 0.06 0 0.835 0.06 0 0.84 0.06 0 0.845 0.06 0 0.85 0.06 0 0.855 0.06 0 0.86 0.06 0 0.865 0.06 0 0.87 0.06 0 0.875 0.06 0 0.88 0.06 0 0.885 0.06 0 0.89 0.06 0 0.895 0.06 0 0.9 0.06 0 0.905 0.06 0 0.91 0.06 0 0.915 0.06 0 0.92 0.06 0 0.925 0.06 0 0.93 0.06 0 0.935 0.06 0 0.94 0.06 0 0.945 0.06 0 0.95 0.06 0 0.955 0.06 0 0.96 0.06 0 0.965 0.06 0 0.97 0.06 0 0.975 0.06 0 0.98 0.06 0 0.985 0.06 0 0.99 0.06 0 0.995 0.06 0 1 0.06 0 0 0.08 0 0.005 0.08 0 0.01 0.08 0 0.015 0.08 0 0.02 0.08 0 0.025 0.08 0 0.03 0.08 0 0.035 0.08 0 0.04 0.08 0 0.045 0.08 0 0.05 0.08 0 0.055 0.08 0 0.06 0.08 0 0.065 0.08 0 0.07 0.08 0 0.075 0.08 0 0.08 0.08 0 0.085 0.08 0 0.09 0.08 0 0.095 0.08 0 0.1 0.08 0 0.105 0.08 0 0.11 0.08 0 0.115 0.08 0 0.12 0.08 0 0.125 0.08 0 0.13 0.08 0 0.135 0.08 0 0.14 0.08 0 0.145 0.08 0 0.15 0.08 0 0.155 0.08 0 0.16 0.08 0 0.165 0.08 0
[...]
			<PointData Scalars="VitesseX">
				<DataArray Name="VitesseX" type="Float32" format="ascii">
 0 1.89353e-14 -1.5371e-14 7.87618e-14 -3.82232e-14 -2.02981e-14 3.56592e-14 1.59506e-14 1.57794e-15 5.58222e-14 -4.75132e-14 1.6744e-15 -1.23854e-13 3.22801e-14 -1.009e-13 -2.06789e-14 -6.54201e-14 -1.04573e-13 -6.68291e-14 -2.13125e-15 -3.37638e-13 6.83642e-14 -2.42628e-13 1.97878e-14 -1.53853e-13 -1.6225e-15 -7.45397e-15 -2.09329e-13 -2.19477e-14 -5.14794e-14 6.08697e-14 -2.11348e-13 -9.06339e-14 -2.04964e-13 -1.77672e-13 -3.60601e-13 -5.60777e-14 -8.92668e-14 2.67253e-14 -3.89731e-13 1.70956e-13 -2.63669e-13 4.3585e-14 2.24452e-13 -6.77873e-14 2.77398e-13 -1.70874e-13 -6.17483e-14 -1.06587e-13 3.7695e-13 3.78581e-12 2.96415e-11 1.93067e-10 1.19274e-09 6.9423e-09 3.79387e-08 1.94103e-07 9.26491e-07 4.10934e-06 1.68579e-05 6.36142e-05 0.000219371 0.000685976 0.0019278 0.00482349 0.0106604 0.0207448 0.0357195 0.0551918 0.0780812 0.103257 0.129878 0.157411 0.185551 0.214107 0.242953 0.272023 0.301279 0.330707 0.360305 0.390093 0.420109 0.450307 0.479617 0.508738 0.537163 0.565519 0.59326 0.621115 0.648325 0.675353 0.702194 0.7283 0.754423 0.77988 0.804278 0.828874 0.851161 0.8723 0.891855 0.905982 0.91806 0.926024 0.92909 0.931506 0.932244 0.932143 0.93192 0.931664 0.931372 0.931014 0.930589 0.930138 0.929736 0.929402 0.929138 0.928929 0.928757 0.928613 0.928477 0.928319 0.928085 0.927688 0.927039 0.926353 0.928536 0.931701 0.928307 0.927169 0.927245 0.927471 0.927581 0.927698 0.927724 0.927652 0.927553 0.927588 0.927667 0.927625 0.927461 0.927062 0.926297 0.924793 0.921755 0.915686 0.903883 0.881824 0.842908 0.779459 0.68585 0.56325 0.423946 0.287503 0.172918 0.0909245 0.0419898 0.0175605 0.00692667 0.0026549 0.00100403 0.000377047 0.000140925 5.24559e-05 1.9444e-05 7.17505e-06 2.63469e-06 9.62277e-07 3.49407e-07 1.26073e-07 4.51823e-08 1.60761e-08 5.67644e-09 1.98818e-09 6.90222e-10 2.376e-10 8.09213e-11 2.70841e-11 9.05848e-12 2.09619e-12 1.08188e-12 -2.06891e-13 -8.42641e-14 -6.41171e-13 -1.38534e-13 3.34365e-13 -7.24048e-13 3.93403e-13 -2.95046e-13 2.62816e-13 -1.0583e-13 5.01623e-13 2.17755e-13 2.59595e-13 -4.78224e-13 4.00311e-13 4.361e-13 -1.96121e-13 2.39867e-13 4.37099e-13 8.50449e-13 0 0 4.02538e-15 5.17248e-14 -2.82352e-14 4.50373e-14 4.59362e-14 -4.14464e-15 -1.28627e-14 -1.42542e-14 -2.82369e-14 -1.06932e-14 -6.35527e-14 5.31127e-14 -1.43925e-13 -2.83895e-14 -4.24815e-16 -8.18542e-14 -2.86738e-14 -9.23776e-14 -1.64979e-13 -1.12512e-14 -2.26427e-13 2.76282e-14 -2.13503e-13 1.33201e-13 -4.22822e-14 -1.74122e-13 1.51967e-15 -1.89537e-13 5.95315e-14 -1.76329e-13 -2.21297e-14 -2.27422e-13 -6.8002e-14 -2.61384e-13 -1.67878e-13 -9.55544e-14 -5.72796e-14 -2.84006e-13 1.0122e-13 -1.87429e-13 1.44329e-13 -6.76195e-14 -1.88391e-13 1.8703e-13 -2.92527e-13 1.45847e-13 -6.30512e-14 3.78031e-14 1.3917e-13 3.95705e-12 2.94833e-11 1.93058e-10 1.19291e-09 6.94208e-09 3.79386e-08 1.94103e-07 9.26491e-07 4.10934e-06 1.68579e-05 6.36142e-05 0.000219371 0.000685976 0.0019278 0.00482349 0.0106604 0.0207448 0.0357195 0.0551918 0.0780812 0.103257 0.129878 0.157411 0.185551 0.214107 0.242953 0.272023 0.301279 0.330707 0.360305 0.390093 0.420109 0.450307 0.479617 0.508738 0.537163 0.565519 0.59326 0.621115 0.648325 0.675353 0.702194 0.7283 0.754423 0.77988 0.804278 0.828874 0.851161 0.8723 0.891855 0.905982 0.91806 0.926024 0.92909 0.931506 0.932244 0.932143 0.93192 0.931664 0.931372 0.931014 0.930589 0.930138 0.929736 0.929402 0.929138 0.928929 0.928757 0.928613 0.928477 0.928319 0.928085 0.927688 0.927039 0.926353 0.928536 0.931701 0.928307 0.927169 0.927245 0.927471 0.927581 0.927698 0.927724 0.927652 0.927553 0.927588 0.927667 0.927625 0.927461 0.927062 0.926297 0.924793 0.921755 0.915686 0.903883 0.881824 0.842908 0.779459 0.68585 0.56325 0.423946 0.287503 0.172918 0.0909245 0.0419898 0.0175605 0.00692667 0.0026549 0.00100403 0.000377047 0.000140925 5.24559e-05 1.9444e-05 7.17505e-06 2.63469e-06 9.62277e-07 3.49407e-07 1.26073e-07 4.51821e-08 1.60761e-08 5.67657e-09 1.98813e-09 6.90505e-10 2.37555e-10 8.08933e-11 2.70562e-11 8.6709e-12 3.09333e-12 3.0516e-13 1.88345e-13 -7.27067e-13 1.54752e-13 -4.86761e-13 -3.39529e-14 2.97702e-13 -3.62184e-13 2.30102e-14 -3.33513e-13 4.39398e-13 -2.3102e-13 2.42429e-13 3.07311e-13 3.45939e-13 2.79804e-13 -8.49211e-14 3.81878e-13 1.70107e-13 2.53122e-13 -3.00868e-13 0 0 -3.14972e-15 1.09423e-14 5.36406e-14 2.39699e-14 1.27749e-14 3.66113e-14 -3.60781e-15 -8.1962e-15 -2.05191e-15 -7.67111e-14 -1.38293e-14 -2.92604e-14 2.95055e-14 -8.96321e-14 -3.21785e-14 -5.61946e-14 -1.85509e-13 -3.58906e-14 -1.16241e-13 -5.24877e-14 7.0334e-14 -1.68298e-13 9.29562e-14 -1.97784e-13 -2.40619e-14 -6.36195e-14 -2.31883e-13 -2.39733e-13 6.23981e-14 -5.24411e-14 -1.07638e-14 6.97336e-14 -9.77683e-14 -2.35974e-13 -2.93779e-13 -6.6029e-14 -8.42336e-14 -9.72957e-14 -1.50596e-13 -1.36687e-13 -2.3875e-13 4.03611e-14 1.14094e-13 -1.84094e-13 3.5978e-14 -1.11734e-13 -5.91108e-14 -1.1395e-13 3.31294e-13 4.14553e-12 2.95437e-11 1.93248e-10 1.1929e-09 6.94204e-09 3.79387e-08 1.94103e-07 9.26492e-07 4.10934e-06 1.68579e-05 6.36142e-05 0.000219371 0.000685976 0.0019278 0.00482349 0.0106604 0.0207448 0.0357195 0.0551918 0.0780812 0.103257 0.129878 0.157411 0.185551 0.214107 0.242953 0.272023 0.301279 0.330707 0.360305 0.390093 0.420109 0.450307 0.479617 0.508738 0.537163 0.565519 0.59326 0.621115 0.648325 0.675353 0.702194 0.7283 0.754423 0.77988 0.804278 0.828874 0.851161 0.8723 0.891855 0.905982 0.91806 0.926024 0.92909 0.931506 0.932244 0.932143 0.93192 0.931664 0.931372 0.931014 0.930589 0.930138 0.929736 0.929402 0.929138 0.928929 0.928757 0.928613 0.928477 0.928319 0.928085 0.927688 0.927039 0.926353 0.928536 0.931701 0.928307 0.927169 0.927245 0.927471 0.927581 0.927698 0.927724 0.927652 0.927553 0.927588 0.927667 0.927625 0.927461 0.927062 0.926297 0.924793 0.921755 0.915686 0.903883 0.881824 0.842908 0.779459 0.68585 0.56325 0.423946 0.287503 0.172918 0.0909245 0.0419898 0.0175605 0.00692667 0.0026549 0.00100403 0.000377047 0.000140925 5.24559e-05 1.9444e-05 7.17505e-06 2.63469e-06 9.62277e-07 3.49407e-07 1.26073e-07 4.51824e-08 1.60763e-08 5.67646e-09 1.9883e-09 6.90594e-10 2.37454e-10 8.08663e-11 2.72642e-11 8.79058e-12 2.88633e-12 8.16696e-13 -4.19514e-13 -3.57417e-13 1.14496e-13 -1.16782e-13 -2.32248e-13 2.51801e-13 -2.10692e-13 -2.54873e-13 -5.24857e-13 2.63865e-13 -1.86322e-13 -1.11841e-13 6.0931e-13 -5.85919e-14 -3.23846e-13 9.6168e-13 1.92446e-13 9.72877e-13 -7.59436e-14 2.69185e-13 0 0 8.38741e-16 -2.47071e-14 4.58681e-14 -3.17282e-15 6.0268e-15 4.66534e-14 -3.21604e-14 -2.1186e-14 -1.32953e-14 -1.54439e-14 1.70753e-15 -1.72953e-15 3.3926e-14 -8.98604e-14 -1.51222e-14 -2.88457e-14 -1.10966e-13 -8.00642e-14 -8.25012e-15 -9.40027e-14 -3.01285e-14 -4.33698e-14 -1.1314e-13 -1.00518e-13 -1.165e-13 -6.03628e-14 -2.00093e-13 -8.4366e-14 -1.62023e-13 4.50268e-14 2.65944e-14 9.00197e-15 -3.72837e-14 -1.71547e-13 -9.52557e-14 -1.14298e-13 -2.15955e-13 -1.75144e-13 -2.7435e-13 -2.02006e-13 -3.09994e-13 6.90752e-14 1.83776e-13 -1.29981e-13 5.28441e-14 -1.22455e-13 -2.94403e-13 -4.653e-14 8.27905e-13 4.48564e-12 2.93878e-11 1.93264e-10 1.19288e-09 6.94216e-09 3.79388e-08 1.94103e-07 9.26492e-07 4.10934e-06 1.68579e-05 6.36142e-05 0.000219371 0.000685976 0.0019278 0.00482349 0.0106604 0.0207448 0.0357195 0.0551918 0.0780812 0.103257 0.129878 0.157411 0.185551 0.214107 0.242953 0.272023 0.301279 0.330707 0.360305 0.390093 0.420109 0.450307 0.479617 0.508738 0.537163 0.565519 0.59326 0.621115 0.648325 0.675353 0.702194 0.7283 0.754423 0.77988 0.804278 0.828874 0.851161 0.8723 0.891855 0.905982 0.91806 0.926024 0.92909 0.931506 0.932244 0.932143 0.93192 0.931664 0.931372 0.931014 0.930589 0.930138 0.929736 0.929402 0.929138 0.928929 0.928757 0.928613 0.928477 0.928319 0.928085 0.927688 0.927039 0.926353 0.928536 0.931701 0.928307 0.927169 0.927245 0.927471 0.927581 0.927698 0.927724 0.927652 0.927553 0.927588 0.927667 0.927625 0.927461 0.927062 0.926297 0.924793 0.921755 0.915686 0.903883 0.881824 0.842908 0.779459 0.68585 0.56325 0.423946 0.287503 0.172918 0.0909245 0.0419898 0.0175605 0.00692667 0.0026549 0.00100403 0.000377047 0.000140925 5.24559e-05 1.9444e-05 7.17505e-06 2.63469e-06 9.62277e-07 3.49407e-07 1.26073e-07 4.51829e-08 1.60764e-08 5.67648e-09 1.98812e-09 6.90369e-10 2.37492e-10 8.11856e-11 2.70244e-11 9.24743e-12 2.31766e-12 9.34614e-13 1.39393e-13 -3.83726e-13 -8.65915e-14 -2.69958e-13 1.02713e-14 -5.31875e-13 5.52308e-13 -2.28986e-13 2.46913e-13 -7.26257e-13 -3.21774e-14 -7.43064e-13 4.013e-13 -1.44326e-13 1.65278e-13 7.22212e-13 3.87058e-13 8.69749e-13 -7.36035e-13 2.52831e-13 0 0 -2.43643e-15 1.33084e-14 -5.87253e-14 1.357e-14 2.27805e-14 -2.49336e-14 -4.65881e-14 -1.80165e-14 -1.45089e-14 -1.91865e-14 -3.46057e-14 7.45354e-14 -1.02804e-13 3.02308e-14 5.03343e-14 2.38914e-14 9.22027e-14 -2.17969e-14 -1.53836e-13 3.75419e-14 -2.77341e-13 8.6093e-14 -3.02436e-13 1.72326e-13 -1.76505e-13 -1.55381e-13 -4.18848e-14 -1.88399e-13 -1.5279e-13 -5.30196e-14 -2.62743e-14 -1.46583e-13 5.69344e-14 -5.27814e-14 -5.94675e-14 -2.83999e-14 -4.64973e-14 -2.59941e-13 -1.76456e-14 -2.85457e-13 1.74953e-14 -1.20304e-13 -1.87845e-13 1.94774e-13 -2.98639e-13 5.07148e-14 -2.93015e-13 7.69358e-14 4.53803e-13 4.36702e-12 2.9521e-11 1.9314e-10 1.19287e-09 6.94232e-09 3.79388e-08 1.94103e-07 9.26491e-07 4.10934e-06 1.68579e-05 6.36142e-05 0.000219371 0.000685976 0.0019278 0.00482349 0.0106604 0.0207448 0.0357195 0.0551918 0.0780812 0.103257 0.129878 0.157411 0.185551 0.214107 0.242953 0.272023 0.301279 0.330707 0.360305 0.390093 0.420109 0.450307 0.479617 0.508738 0.537163 0.565519 0.59326 0.621115 0.648325 0.675353 0.702194 0.7283 0.754423 0.77988 0.804278 0.828874 0.851161 0.8723 0.891855 0.905982 0.91806 0.926024 0.92909 0.931506 0.932244 0.932143 0.93192 0.931664 0.931372 0.931014 0.930589 0.930138 0.929736 0.929402 0.929138 0.928929 0.928757 0.928613 0.928477 0.928319 0.928085 0.927688 0.927039 0.926353 0.928536 0.931701 0.928307 0.927169 0.927245 0.927471 0.927581 0.927698 0.927724 0.927652 0.927553 0.927588 0.927667 0.927625 0.927461 0.927062 0.926297 0.924793 0.921755 0.915686 0.903883 0.881824 0.842908 0.779459 0.68585 0.56325 0.423946 0.287503 0.172918 0.0909245 0.0419898 0.0175605 0.00692667 0.0026549 0.00100403 0.000377047 0.000140925 5.24559e-05 1.9444e-05 7.17505e-06 2.63469e-06 9.62277e-07 3.49407e-07 1.26073e-07 4.51827e-08 1.60761e-08 5.67684e-09 1.98823e-09 6.90635e-10 2.3767e-10 8.08406e-11 2.71578e-11 8.52083e-12 2.99951e-12 -9.23542e-16 7.16266e-13 -5.91772e-13 -2.98043e-14 1.54074e-13 -2.07516e-13 -2.48833e-13 4.48278e-14 -2.66943e-13 3.38066e-14 -3.46617e-13 -2.65403e-13 -2.74035e-13 -3.28747e-13 6.11867e-13 5.59877e-13 -2.14996e-13 4.1548e-13 -1.70403e-13 -2.8248e-13 -8.27626e-13 0 0 -1.9652e-15 -2.09048e-14 3.33266e-14 -4.68722e-14 -5.31134e-14 -2.60031e-14 5.6048e-15 2.0033e-14 1.05765e-13 -1.87034e-13 2.84947e-14 -1.36071e-13 1.05681e-13 1.67973e-14 4.67269e-14 9.13731e-14 -1.19053e-14 1.62679e-13 -1.95828e-13 -1.57022e-13 1.67461e-13 -3.75555e-13 2.54114e-13 -2.70136e-13 -8.5192e-14 2.35155e-14 -3.59717e-13 -3.30406e-13 -2.72813e-14 1.12552e-13 -2.94354e-13 1.92506e-13 -7.60602e-14 1.10679e-13 -5.40827e-13 1.74769e-13 1.95741e-13 2.30553e-13 -3.79955e-13 1.05538e-13 -3.74848e-13 -1.19213e-13 8.61792e-14 -1.60526e-13 2.31441e-13 -3.39697e-13 -5.1091e-14 -1.63162e-13 1.29922e-14 3.92553e-12 3.00286e-11 1.93199e-10 1.19271e-09 6.94255e-09 3.79388e-08 1.94103e-07 9.26492e-07 4.10934e-06 1.68579e-05 6.36142e-05 0.000219371 0.000685976 0.0019278 0.00482349 0.0106604 0.0207448 0.0357195 0.0551918 0.0780812 0.103257 0.129878 0.157411 0.185551 0.214107 0.242953 0.272023 0.301279 0.330707 0.360305 0.390093 0.420109 0.450307 0.479617 0.508738 0.537163 0.565519 0.59326 0.621115 0.648325 0.675353 0.702194 0.7283 0.754423 0.77988 0.804278 0.828874 0.851161 0.8723 0.891855 0.905982 0.91806 0.926024 0.92909 0.931506 0.932244 0.932143 0.93192 0.931664 0.931372 0.931014 0.930589 0.930138 0.929736 0.929402 0.929138 0.928929 0.928757 0.928613 0.928477 0.928319 0.928085 0.927688 0.927039 0.926353 0.928536 0.931701 0.928307 0.927169 0.927245 0.927471 0.927581 0.927698 0.927724 0.927652 0.927553 0.927588 0.927667 0.927625 0.927461 0.927062 0.926297 0.924793 0.921755 0.915686 0.903883 0.881824 0.842908 0.779459 0.68585 0.56325 0.423946 0.287503 0.172918 0.0909245 0.0419898 0.0175605 0.00692667 0.0026549 0.00100403 0.000377047 0.000140925 5.24559e-05 1.9444e-05 7.17505e-06 2.63469e-06 9.62277e-07 3.49407e-07 1.26073e-07 4.51825e-08 1.6076e-08 5.67693e-09 1.98873e-09 6.90933e-10 2.37752e-10 8.01771e-11 2.77667e-11 7.84463e-12 3.0459e-12 2.33879e-13 -2.68863e-13 2.38945e-13 -6.08108e-13 1.44949e-12 -4.978e-13 -2.49766e-13 -3.18573e-13 -9.26726e-13 -5.46086e-13 3.02384e-13 1.24568e-13 4.47271e-13 -5.965e-13 2.25099e-13 -1.77923e-14 6.54886e-13 -5.18143e-13 -2.34899e-13 6.86077e-13 -1.70358e-13 0
				</DataArray>
				<DataArray Name="VitesseY" type="Float32" format="ascii">