<?xml version="1.0"?>
<VTKFile type="PolyData">
	<PolyData>
		<Piece NumberOfPoints="1206" NumberOfPolys="1000">
			<Points>
				<DataArray type="Float32" NumberOfComponents="3" format="ascii">
 0 0 0 0.005 0 0 0.01 0 0 0.015 0 0 0.02 0 0 0.025 0 0 0.03 0 0 0.035 0 0 0.04 0 0 0.045 0 0 0.05 0 0 0.055 0 0 0.06 0 0 0.065 0 0 0.07 0 0 0.075 0 0 0.08 0 0 0.085 0 0 0.09 0 0 0.095 0 0 0.1 0 0 0.105 0 0 0.11 0 0 0.115 0 0 0.12 0 0 0.125 0 0 0.13 0 0 0.135 0 0 0.14 0 0 0.145 0 0 0.15 0 0 0.155 0 0 0.16 0 0 0.165 0 0 0.17 0 0 0.175 0 0 0.18 0 0 0.185 0 0 0.19 0 0 0.195 0 0 0.2 0 0 0.205 0 0 0.21 0 0 0.215 0 0 0.22 0 0 0.225 0 0 0.23 0 0 0.235 0 0 0.24 0 0 0.245 0 0 0.25 0 0 0.255 0 0 0.26 0 0 0.265 0 0 0.27 0 0 0.275 0 0 0.28 0 0 0.285 0 0 0.29 0 0 0.295 0 0 0.3 0 0 0.305 0 0 0.31 0 0 0.315 0 0 0.32 0 0 0.325 0 0 0.33 0 0 0.335 0 0 0.34 0 0 0.345 0 0 0.35 0 0 0.355 0 0 0.36 0 0 0.365 0 0 0.37 0 0 0.375 0 0 0.38 0 0 0.385 0 0 0.39 0 0 0.395 0 0 0.4 0 0 0.405 0 0 0.41 0 0 0.415 0 0 0.42 0 0 0.425 0 0 0.43 0 0 0.435 0 0 0.44 0 0 0.445 0 0 0.45 0 0 0.455 0 0 0.46 0 0 0.465 0 0 0.47 0 0 0.475 0 0 0.48 0 0 0.485 0 0 0.49 0 0 0.495 0 0 0.5 0 0 0.505 0 0 0.51 0 0 0.515 0 0 0.52 0 0 0.525 0 0 0.53 0 0 0.535 0 0 0.54 0 0 0.545 0 0 0.55 0 0 0.555 0 0 0.56 0 0 0.565 0 0 0.57 0 0 0.575 0 0 0.58 0 0 0.585 0 0 0.59 0 0 0.595 0 0 0.6 0 0 0.605 0 0 0.61 0 0 0.615 0 0 0.62 0 0 0.625 0 0 0.63 0 0 0.635 0 0 0.64 0 0 0.645 0 0 0.65 0 0 0.655 0 0 0.66 0 0 0.665 0 0 0.67 0 0 0.675 0 0 0.68 0 0 0.685 0 0 0.69 0 0 0.695 0 0 0.7 0 0 0.705 0 0 0.71 0 0 0.715 0 0 0.72 0 0 0.725 0 0 0.73 0 0 0.735 0 0 0.74 0 0 0.745 0 0 0.75 0 0 0.755 0 0 0.76 0 0 0.765 0 0 0.77 0 0 0.775 0 0 0.78 0 0 0.785 0 0 0.79 0 0 0.795 0 0 0.8 0 0 0.805 0 0 0.81 0 0 0.815 0 0 0.82 0 0 0.825 0 0 0.83 0 0 0.835 0 0 0.84 0 0 0.845 0 0 0.85 0 0 0.855 0 0 0.86 0 0 0.865 0 0 0.87 0 0 0.875 0 0 0.88 0 0 0.885 0 0 0.89 0 0 0.895 0 0 0.9 0 0 0.905 0 0 0.91 0 0 0.915 0 0 0.92 0 0 0.925 0 0 0.93 0 0 0.935 0 0 0.94 0 0 0.945 0 0 0.95 0 0 0.955 0 0 0.96 0 0 0.965 0 0 0.97 0 0 0.975 0 0 0.98 0 0 0.985 0 0 0.99 0 0 0.995 0 0 1 0 0 0 0.02 0 0.005 0.02 0 0.01 0.02 0 0.015 0.02 0 0.02 0.02 0 0.025 0.02 0 0.03 0.02 0 0.035 0.02 0 0.04 0.02 0 0.045 0.02 0 0.05 0.02 0 0.055 0.02 0 0.06 0.02 0 0.065 0.02 0 0.07 0.02 0 0.075 0.02 0 0.08 0.02 0 0.085 0.02 0 0.09 0.02 0 0.095 0.02 0 0.1 0.02 0 0.105 0.02 0 0.11 0.02 0 0.115 0.02 0 0.12 0.02 0 0.125 0.02 0 0.13 0.02 0 0.135 0.02 0 0.14 0.02 0 0.145 0.02 0 0.15 0.02 0 0.155 0.02 0 0.16 0.02 0 0.165 0.02 0 0.17 0.02 0 0.175 0.02 0 0.18 0.02 0 0.185 0.02 0 0.19 0.02 0 0.195 0.02 0 0.2 0.02 0 0.205 0.02 0 0.21 0.02 0 0.215 0.02 0 0.22 0.02 0 0.225 0.02 0 0.23 0.02 0 0.235 0.02 0 0.24 0.02 0 0.245 0.02 0 0.25 0.02 0 0.255 0.02 0 0.26 0.02 0 0.265 0.02 0 0.27 0.02 0 0.275 0.02 0 0.28 0.02 0 0.285 0.02 0 0.29 0.02 0 0.295 0.02 0 0.3 0.02 0 0.305 0.02 0 0.31 0.02 0 0.315 0.02 0 0.32 0.02 0 0.325 0.02 0 0.33 0.02 0 0.335 0.02 0 0.34 0.02 0 0.345 0.02 0 0.35 0.02 0 0.355 0.02 0 0.36 0.02 0 0.365 0.02 0 0.37 0.02 0 0.375 0.02 0 0.38 0.02 0 0.385 0.02 0 0.39 0.02 0 0.395 0.02 0 0.4 0.02 0 0.405 0.02 0 0.41 0.02 0 0.415 0.02 0 0.42 0.02 0 0.425 0.02 0 0.43 0.02 0 0.435 0.02 0 0.44 0.02 0 0.445 0.02 0 0.45 0.02 0 0.455 0.02 0 0.46 0.02 0 0.465 0.02 0 0.47 0.02 0 0.475 0.02 0 0.48 0.02 0 0.485 0.02 0 0.49 0.02 0 0.495 0.02 0 0.5 0.02 0 0.505 0.02 0 0.51 0.02 0 0.515 0.02 0 0.52 0.02 0 0.525 0.02 0 0.53 0.02 0 0.535 0.02 0 0.54 0.02 0 0.545 0.02 0 0.55 0.02 0 0.555 0.02 0 0.56 0.02 0 0.565 0.02 0 0.57 0.02 0 0.575 0.02 0 0.58 0.02 0 0.585 0.02 0 0.59 0.02 0 0.595 0.02 0 0.6 0.02 0 0.605 0.02 0 0.61 0.02 0 0.615 0.02 0 0.62 0.02 0 0.625 0.02 0 0.63 0.02 0 0.635 0.02 0 0.64 0.02 0 0.645 0.02 0 0.65 0.02 0 0.655 0.02 0 0.66 0.02 0 0.665 0.02 0 0.67 0.02 0 0.675 0.02 0 0.68 0.02 0 0.685 0.02 0 0.69 0.02 0 0.695 0.02 0 0.7 0.02 0 0.705 0.02 0 0.71 0.02 0 0.715 0.02 0 0.72 0.02 0 0.725 0.02 0 0.73 0.02 0 0.735 0.02 0 0.74 0.02 0 0.745 0.02 0 0.75 0.02 0 0.755 0.02 0 0.76 0.02 0 0.765 0.02 0 0.77 0.02 0 0.775 0.02 0 0.78 0.02 0 0.785 0.02 0 0.79 0.02 0 0.795 0.02 0 0.8 0.02 0 0.805 0.02 0 0.81 0.02 0 0.815 0.02 0 0.82 0.02 0 0.825 0.02 0 0.83 0.02 0 0.835 0.02 0 0.84 0.02 0 0.845 0.02 0 0.85 0.02 0 0.855 0.02 0 0.86 0.02 0 0.865 0.02 0 0.87 0.02 0 0.875 0.02 0 0.88 0.02 0 0.885 0.02 0 0.89 0.02 0 0.895 0.02 0 0.9 0.02 0 0.905 0.02 0 0.91 0.02 0 0.915 0.02 0 0.92 0.02 0 0.925 0.02 0 0.93 0.02 0 0.935 0.02 0 0.94 0.02 0 0.945 0.02 0 0.95 0.02 0 0.955 0.02 0 0.96 0.02 0 0.965 0.02 0 0.97 0.02 0 0.975 0.02 0 0.98 0.02 0 0.985 0.02 0 0.99 0.02 0 0.995 0.02 0 1 0.02 0 0 0.04 0 0.005 0.04 0 0.01 0.04 0 0.015 0.04 0 0.02 0.04 0 0.025 0.04 0 0.03 0.04 0 0.035 0.04 0 0.04 0.04 0 0.045 0.04 0 0.05 0.04 0 0.055 0.04 0 0.06 0.04 0 0.065 0.04 0 0.07 0.04 0 0.075 0.04 0 0.08 0.04 0 0.085 0.04 0 0.09 0.04 0 0.095 0.04 0 0.1 0.04 0 0.105 0.04 0 0.11 0.04 0 0.115 0.04 0 0.12 0.04 0 0.125 0.04 0 0.13 0.04 0 0.135 0.04 0 0.14 0.04 0 0.145 0.04 0 0.15 0.04 0 0.155 0.04 0 0.16 0.04 0 0.165 0.04 0 0.17 0.04 0 0.175 0.04 0 0.18 0.04 0 0.185 0.04 0 0.19 0.04 0 0.195 0.04 0 0.2 0.04 0 0.205 0.04 0 0.21 0.04 0 0.215 0.04 0 0.22 0.04 0 0.225 0.04 0 0.23 0.04 0 0.235 0.04 0 0.24 0.04 0 0.245 0.04 0 0.25 0.04 0 0.255 0.04 0 0.26 0.04 0 0.265 0.04 0 0.27 0.04 0 0.275 0.04 0 0.28 0.04 0 0.285 0.04 0 0.29 0.04 0 0.295 0.04 0 0.3 0.04 0 0.305 0.04 0 0.31 0.04 0 0.315 0.04 0 0.32 0.04 0 0.325 0.04 0 0.33 0.04 0 0.335 0.04 0 0.34 0.04 0 0.345 0.04 0 0.35 0.04 0 0.355 0.04 0 0.36 0.04 0 0.365 0.04 0 0.37 0.04 0 0.375 0.04 0 0.38 0.04 0 0.385 0.04 0 0.39 0.04 0 0.395 0.04 0 0.4 0.04 0 0.405 0.04 0 0.41 0.04 0 0.415 0.04 0 0.42 0.04 0 0.425 0.04 0 0.43 0.04 0 0.435 0.04 0 0.44 0.04 0 0.445 0.04 0 0.45 0.04 0 0.455 0.04 0 0.46 0.04 0 0.465 0.04 0 0.47 0.04 0 0.475 0.04 0 0.48 0.04 0 0.485 0.04 0 0.49 0.04 0 0.495 0.04 0 0.5 0.04 0 0.505 0.04 0 0.51 0.04 0 0.515 0.04 0 0.52 0.04 0 0.525 0.04 0 0.53 0.04 0 0.535 0.04 0 0.54 0.04 0 0.545 0.04 0 0.55 0.04 0 0.555 0.04 0 0.56 0.04 0 0.565 0.04 0 0.57 0.04 0 0.575 0.04 0 0.58 0.04 0 0.585 0.04 0 0.59 0.04 0 0.595 0.04 0 0.6 0.04 0 0.605 0.04 0 0.61 0.04 0 0.615 0.04 0 0.62 0.04 0 0.625 0.04 0 0.63 0.04 0 0.635 0.04 0 0.64 0.04 0 0.645 0.04 0 0.65 0.04 0 0.655 0.04 0 0.66 0.04 0 0.665 0.04 0 0.67 0.04 0 0.675 0.04 0 0.68 0.04 0 0.685 0.04 0 0.69 0.04 0 0.695 0.04 0 0.7 0.04 0 0.705 0.04 0 0.71 0.04 0 0.715 0.04 0 0.72 0.04 0 0.725 0.04 0 0.73 0.04 0 0.735 0.04 0 0.74 0.04 0 0.745 0.04 0 0.75 0.04 0 0.755 0.04 0 0.76 0.04 0 0.765 0.04 0 0.77 0.04 0 0.775 0.04 0 0.78 0.04 0 0.785 0.04 0 0.79 0.04 0 0.795 0.04 0 0.8 0.04 0 0.805 0.04 0 0.81 0.04 0 0.815 0.04 0 0.82 0.04 0 0.825 0.04 0 0.83 0.04 0 0.835 0.04 0 0.84 0.04 0 0.845 0.04 0 0.85 0.04 0 0.855 0.04 0 0.86 0.04 0 0.865 0.04 0 0.87 0.04 0 0.875 0.04 0 0.88 0.04 0 0.885 0.04 0 0.89 0.04 0 0.895 0.04 0 0.9 0.04 0 0.905 0.04 0 0.91 0.04 0 0.915 0.04 0 0.92 0.04 0 0.925 0.04 0 0.93 0.04 0 0.935 0.04 0 0.94 0.04 0 0.945 0.04 0 0.95 0.04 0 0.955 0.04 0 0.96 0.04 0 0.965 0.04 0 0.97 0.04 0 0.975 0.04 0 0.98 0.04 0 0.985 0.04 0 0.99 0.04 0 0.995 0.04 0 1 0.04 0 0 0.06 0 0.005 0.06 0 0.01 0.06 0 0.015 0.06 0 0.02 0.06 0 0.025 0.06 0 0.03 0.06 0 0.035 0.06 0 0.04 0.06 0 0.045 0.06 0 0.05 0.06 0 0.055 0.06 0 0.06 0.06 0 0.065 0.06 0 0.07 0.06 0 0.075 0.06 0 0.08 0.06 0 0.085 0.06 0 0.09 0.06 0 0.095 0.06 0 0.1 0.06 0 0.105 0.06 0 0.11 0.06 0 0.115 0.06 0 0.12 0.06 0 0.125 0.06 0 0.13 0.06 0 0.135 0.06 0 0.14 0.06 0 0.145 0.06 0 0.15 0.06 0 0.155 0.06 0 0.16 0.06 0 0.165 0.06 0 0.17 0.06 0 0.175 0.06 0 0.18 0.06 0 0.185 0.06 0 0.19 0.06 0 0.195 0.06 0 0.2 0.06 0 0.205 0.06 0 0.21 0.06 0 0.215 0.06 0 0.22 0.06 0 0.225 0.06 0 0.23 0.06 0 0.235 0.06 0 0.24 0.06 0 0.245 0.06 0 0.25 0.06 0 0.255 0.06 0 0.26 0.06 0 0.265 0.06 0 0.27 0.06 0 0.275 0.06 0 0.28 0.06 0 0.285 0.06 0 0.29 0.06 0 0.295 0.06 0 0.3 0.06 0 0.305 0.06 0 0.31 0.06 0 0.315 0.06 0 0.32 0.06 0 0.325 0.06 0 0.33 0.06 0 0.335 0.06 0 0.34 0.06 0 0.345 0.06 0 0.35 0.06 0 0.355 0.06 0 0.36 0.06 0 0.365 0.06 0 0.37 0.06 0 0.375 0.06 0 0.38 0.06 0 0.385 0.06 0 0.39 0.06 0 0.395 0.06 0 0.4 0.06 0 0.405 0.06 0 0.41 0.06 0 0.415 0.06 0 0.42 0.06 0 0.425 0.06 0 0.43 0.06 0 0.435 0.06 0 0.44 0.06 0 0.445 0.06 0 0.45 0.06 0 0.455 0.06 0 0.46 0.06 0 0.465 0.06 0 0.47 0.06 0 0.475 0.06 0 0.48 0.06 0 0.485 0.06 0 0.49 0.06 0 0.495 0.06 0 0.5 0.06 0 0.505 0.06 0 0.51 0.06 0 0.515 0.06 0 0.52 0.06 0 0.525 0.06 0 0.53 0.06 0 0.535 0.06 0 0.54 0.06 0 0.545 0.06 0 0.55 0.06 0 0.555 0.06 0 0.56 0.06 0 0.565 0.06 0 0.57 0.06 0 0.575 0.06 0 0.58 0.06 0 0.585 0.06 0 0.59 0.06 0 0.595 0.06 0 0.6 0.06 0 0.605 0.06 0 0.61 0.06 0 0.615 0.06 0 0.62 0.06 0 0.625 0.06 0 0.63 0.06 0 0.635 0.06 0 0.64 0.06 0 0.645 0.06 0 0.65 0.06 0 0.655 0.06 0 0.66 0.06 0 0.665 0.06 0 0.67 0.06 0 0.675 0.06 0 0.68 0.06 0 0.685 0.06 0 0.69 0.06 0 0.695 0.06 0 0.7 0.06 0 0.705 0.06 0 0.71 0.06 0 0.715 0.06 0 0.72 0.06 0 0.725 0.06 0 0.73 0.06 0 0.735 0.06 0 0.74 0.06 0 0.745 0.06 0 0.75 0.06 0 0.755 0.06 0 0.76 0.06 0 0.765 0.06 0 0.77 0.06 0 0.775 0.06 0 0.78 0.06 0 0.785 0.06 0 0.79 0.06 0 0.795 0.06 0 0.8 0.06 0 0.805 0.06 0 0.81 0.06 0 0.815 0.06 0 0.82 0.06 0 0.825 0.06 0 0.83 0.06 0 0.835 0.06 0 0.84 0.06 0 0.845 0.06 0 0.85 0.06 0 0.855 0.06 0 0.86 0.06 0 0.865 0.06 0 0.87 0.06 0 0.875 0.06 0 0.88 0.06 0 0.885 0.06 0 0.89 0.06 0 0.895 0.06 0 0.9 0.06 0 0.905 0.06 0 0.91 0.06 0 0.915 0.06 0 0.92 0.06 0 0.925 0.06 0 0.93 0.06 0 0.935 0.06 0 0.94 0.06 0 0.945 0.06 0 0.95 0.06 0 0.955 0.06 0 0.96 0.06 0 0.965 0.06 0 0.97 0.06 0 0.975 0.06 0 0.98 0.06 0 0.985 0.06 0 0.99 0.06 0 0.995 0.06 0 1 0.06 0 0 0.08 0 0.005 0.08 0 0.01 0.08 0 0.015 0.08 0 0.02 0.08 0 0.025 0.08 0 0.03 0.08 0 0.035 0.08 0 0.04 0.08 0 0.045 0.08 0 0.05 0.08 0 0.055 0.08 0 0.06 0.08 0 0.065 0.08 0 0.07 0.08 0 0.075 0.08 0 0.08 0.08 0 0.085 0.08 0 0.09 0.08 0 0.095 0.08 0 0.1 0.08 0 0.105 0.08 0 0.11 0.08 0 0.115 0.08 0 0.12 0.08 0 0.125 0.08 0 0.13 0.08 0 0.135 0.08 0 0.14 0.08 0 0.145 0.08 0 0.15 0.08 0 0.155 0.08 0 0.16 0.08 0 0.165 0.08 0
[...]
			<PointData Scalars="VitesseX">
				<DataArray Name="VitesseX" type="Float32" format="ascii">
 0 -1.86417e-14 -8.55149e-15 1.85423e-14 2.64172e-14 -8.60104e-14 1.37358e-14 -1.91284e-14 1.54191e-14 6.12821e-15 -1.77365e-14 -3.48037e-15 -2.089e-13 -3.49343e-14 -8.64063e-14 3.69653e-14 -8.62413e-14 1.99566e-14 -2.888e-14 -9.48796e-14 -4.91762e-14 -1.50715e-13 -2.06023e-13 -9.32725e-14 -1.31597e-13 -6.10297e-14 6.14608e-14 -3.1891e-14 -2.07467e-13 -6.9012e-14 5.30621e-14 -2.1289e-14 4.4194e-14 -2.4375e-13 -1.79262e-13 -1.82059e-13 -1.48132e-13 -3.13595e-13 5.09663e-14 -2.1952e-13 -3.47292e-13 -4.66171e-13 2.61082e-13 -5.49948e-14 9.4077e-15 5.27337e-14 3.05222e-13 7.40696e-14 -1.64024e-13 2.84102e-13 -6.08487e-14 -3.57483e-13 4.29023e-14 -3.52116e-13 -3.80297e-13 9.74658e-13 1.09919e-11 8.06341e-11 5.63884e-10 3.6884e-09 2.25515e-08 1.28405e-07 6.78301e-07 3.30938e-06 1.48348e-05 6.07194e-05 0.000225239 0.000750477 0.00222272 0.00578767 0.0131293 0.0258711 0.0446129 0.0685764 0.0962812 0.126382 0.157966 0.190496 0.223666 0.257269 0.291201 0.325412 0.359894 0.394673 0.429815 0.464979 0.49847 0.532162 0.564505 0.596933 0.628697 0.659983 0.691022 0.721026 0.750967 0.780091 0.807473 0.835083 0.859463 0.881261 0.901418 0.914079 0.923668 0.930118 0.93136 0.932156 0.932512 0.932421 0.932096 0.931599 0.931052 0.930553 0.930113 0.929718 0.929367 0.929072 0.92882 0.928557 0.928196 0.927594 0.926637 0.927317 0.931985 0.929366 0.927272 0.927283 0.927494 0.927654 0.927786 0.92777 0.927645 0.927578 0.927564 0.927374 0.926663 0.925154 0.922173 0.916179 0.90437 0.882102 0.842632 0.778189 0.683214 0.559224 0.419019 0.282524 0.168659 0.0878819 0.040185 0.0166442 0.00650434 0.00246904 0.000923795 0.000342695 0.000126293 4.62546e-05 1.68317e-05 6.08266e-06 2.18181e-06 7.76354e-07 2.73895e-07 9.57566e-08 3.31598e-08 1.13686e-08 3.85698e-09 1.29416e-09 4.29647e-10 1.40483e-10 4.54465e-11 1.40057e-11 4.11428e-12 9.41247e-13 -1.28262e-13 -4.12865e-14 -1.75675e-13 -5.02564e-13 2.66474e-13 -2.82672e-13 1.16909e-12 -1.16272e-12 6.66171e-13 -3.75134e-13 2.53444e-14 1.07046e-13 -6.55461e-13 -8.86393e-14 -3.33867e-13 -2.48477e-13 -1.51792e-13 -1.90293e-13 9.28998e-13 -8.08846e-14 -1.0047e-13 1.63112e-12 -5.92681e-13 1.19719e-13 5.4912e-13 -3.23281e-13 5.88826e-13 -2.47112e-13 0 0 -8.96765e-18 7.04626e-15 -1.03367e-14 -1.12887e-14 7.43638e-14 -1.5542e-14 -5.65723e-15 -2.4509e-14 -3.53669e-15 -3.98717e-14 -1.05018e-13 7.62227e-14 -1.51998e-13 -5.16153e-14 -7.22068e-14 -3.08676e-14 -9.37083e-14 -4.08763e-14 -8.32483e-14 -1.32359e-13 -3.68327e-14 -8.91143e-14 -2.13293e-13 4.92983e-15 -6.53073e-14 -1.78035e-13 -6.42523e-14 5.75886e-14 9.12664e-14 -1.24684e-13 -5.69171e-14 -6.51843e-14 -1.25401e-13 -1.07171e-13 -2.57158e-13 -9.5485e-14 -5.90664e-14 -3.07555e-13 -1.15243e-13 -2.77586e-13 3.77752e-14 -2.10414e-13 1.5138e-13 -1.34827e-14 4.22345e-14 -1.69363e-13 -7.93502e-15 5.22918e-13 -9.175e-14 -1.94516e-13 -3.27019e-13 -4.67987e-13 -2.06964e-13 -8.83579e-14 1.36875e-12 1.08049e-11 8.07918e-11 5.6378e-10 3.68899e-09 2.25513e-08 1.28406e-07 6.78302e-07 3.30938e-06 1.48348e-05 6.07194e-05 0.000225239 0.000750477 0.00222272 0.00578767 0.0131293 0.0258711 0.0446129 0.0685764 0.0962812 0.126382 0.157966 0.190496 0.223666 0.257269 0.291201 0.325412 0.359894 0.394673 0.429815 0.464979 0.49847 0.532162 0.564505 0.596933 0.628697 0.659983 0.691022 0.721026 0.750967 0.780091 0.807473 0.835083 0.859463 0.881261 0.901418 0.914079 0.923668 0.930118 0.93136 0.932156 0.932512 0.932421 0.932096 0.931599 0.931052 0.930553 0.930113 0.929718 0.929367 0.929072 0.92882 0.928557 0.928196 0.927594 0.926637 0.927317 0.931985 0.929366 0.927272 0.927283 0.927494 0.927654 0.927786 0.92777 0.927645 0.927578 0.927564 0.927374 0.926663 0.925154 0.922173 0.916179 0.90437 0.882102 0.842632 0.778189 0.683214 0.559224 0.419019 0.282524 0.168659 0.0878819 0.040185 0.0166442 0.00650434 0.00246904 0.000923795 0.000342695 0.000126293 4.62546e-05 1.68317e-05 6.08266e-06 2.18181e-06 7.76354e-07 2.73896e-07 9.57572e-08 3.31593e-08 1.13684e-08 3.85718e-09 1.29465e-09 4.29128e-10 1.40757e-10 4.50058e-11 1.43146e-11 4.23457e-12 1.00658e-12 3.33281e-14 -1.27055e-13 -1.70246e-13 -2.04227e-13 -7.29901e-14 5.01975e-13 -1.06948e-12 7.04769e-13 -7.96833e-14 -3.0674e-13 -2.00034e-13 3.04285e-13 -1.94726e-13 -7.2831e-13 -1.26277e-13 -3.39401e-13 -3.40271e-13 2.49635e-13 -2.71342e-13 3.77592e-13 1.06907e-12 -2.43752e-13 3.01046e-13 2.11311e-13 -2.85068e-14 4.37191e-13 -2.34747e-13 -5.62035e-14 0 0 1.41236e-14 2.98736e-14 3.44326e-14 2.10007e-14 1.04026e-14 8.6009e-14 -1.28117e-14 1.08991e-14 3.97903e-16 -5.38263e-14 -2.50316e-15 -6.77912e-14 3.42522e-14 -1.36745e-13 -7.7301e-14 -1.52972e-13 -1.51957e-13 -1.28106e-14 -5.5998e-14 -1.02734e-13 -1.82131e-14 -1.51781e-13 -6.9418e-14 -1.95103e-13 -8.69334e-14 -6.4062e-15 -1.9701e-13 -5.81002e-14 1.37057e-13 1.01797e-13 -6.78059e-14 -4.60042e-14 3.76307e-14 -2.69433e-13 -2.20356e-13 -5.63789e-14 -1.45692e-13 -2.75301e-14 -4.21928e-13 -1.36438e-13 -1.92942e-13 1.68224e-13 -1.8645e-14 2.91839e-14 6.1534e-14 -1.51756e-13 -8.08056e-14 -1.74215e-13 -1.96549e-13 -2.66377e-13 1.49951e-13 1.28876e-13 -1.18592e-13 -8.90834e-14 1.30071e-12 1.10389e-11 8.06209e-11 5.6379e-10 3.68915e-09 2.25519e-08 1.28405e-07 6.78301e-07 3.30938e-06 1.48348e-05 6.07194e-05 0.000225239 0.000750477 0.00222272 0.00578767 0.0131293 0.0258711 0.0446129 0.0685764 0.0962812 0.126382 0.157966 0.190496 0.223666 0.257269 0.291201 0.325412 0.359894 0.394673 0.429815 0.464979 0.49847 0.532162 0.564505 0.596933 0.628697 0.659983 0.691022 0.721026 0.750967 0.780091 0.807473 0.835083 0.859463 0.881261 0.901418 0.914079 0.923668 0.930118 0.93136 0.932156 0.932512 0.932421 0.932096 0.931599 0.931052 0.930553 0.930113 0.929718 0.929367 0.929072 0.92882 0.928557 0.928196 0.927594 0.926637 0.927317 0.931985 0.929366 0.927272 0.927283 0.927494 0.927654 0.927786 0.92777 0.927645 0.927578 0.927564 0.927374 0.926663 0.925154 0.922173 0.916179 0.90437 0.882102 0.842632 0.778189 0.683214 0.559224 0.419019 0.282524 0.168659 0.0878819 0.040185 0.0166442 0.00650434 0.00246904 0.000923795 0.000342695 0.000126293 4.62546e-05 1.68317e-05 6.08266e-06 2.18181e-06 7.76354e-07 2.73895e-07 9.5757e-08 3.31598e-08 1.13685e-08 3.8571e-09 1.29445e-09 4.29357e-10 1.40904e-10 4.52163e-11 1.42663e-11 4.08307e-12 1.06515e-12 2.20323e-13 5.35323e-15 -1.27248e-13 3.36305e-13 -2.29705e-13 -2.21229e-13 2.25594e-13 -3.1586e-13 -1.2753e-13 -1.93579e-13 -3.72116e-13 1.492e-14 -2.64873e-13 -4.4559e-13 -4.40764e-13 -2.73672e-13 6.93284e-14 -2.67012e-13 -2.33535e-13 3.18924e-13 -1.1916e-13 2.58694e-13 6.32171e-13 2.51425e-13 -1.24947e-14 -2.70843e-13 9.02345e-13 -1.20329e-13 0 0 2.22408e-14 5.5083e-14 6.6392e-14 5.70876e-14 -1.39959e-14 4.62321e-14 2.23546e-14 1.23308e-14 -3.00402e-14 -6.99087e-15 -1.61872e-14 -7.6407e-14 -5.49355e-14 -8.64507e-14 2.56956e-14 -1.57073e-13 -7.0278e-14 -4.36706e-14 -3.88012e-14 -1.22041e-13 -1.10094e-13 -1.51859e-13 -1.20533e-13 -1.45188e-13 -5.1111e-14 -6.10102e-14 -5.48088e-14 -8.76455e-14 8.50295e-14 1.34081e-15 6.1137e-14 -7.67679e-14 -1.81644e-13 -1.4618e-13 8.45981e-14 -1.34503e-13 -1.85376e-13 -1.82111e-13 -2.81856e-13 -1.42493e-13 -3.8014e-13 7.15706e-14 1.01141e-13 -3.76168e-14 -1.90116e-13 3.07253e-14 -2.30757e-13 -2.26068e-13 1.39151e-13 6.77393e-15 1.7603e-13 9.68253e-14 -1.19003e-13 -1.04582e-13 1.26349e-12 1.10529e-11 8.0506e-11 5.64035e-10 3.6889e-09 2.25519e-08 1.28405e-07 6.78301e-07 3.30938e-06 1.48348e-05 6.07194e-05 0.000225239 0.000750477 0.00222272 0.00578767 0.0131293 0.0258711 0.0446129 0.0685764 0.0962812 0.126382 0.157966 0.190496 0.223666 0.257269 0.291201 0.325412 0.359894 0.394673 0.429815 0.464979 0.49847 0.532162 0.564505 0.596933 0.628697 0.659983 0.691022 0.721026 0.750967 0.780091 0.807473 0.835083 0.859463 0.881261 0.901418 0.914079 0.923668 0.930118 0.93136 0.932156 0.932512 0.932421 0.932096 0.931599 0.931052 0.930553 0.930113 0.929718 0.929367 0.929072 0.92882 0.928557 0.928196 0.927594 0.926637 0.927317 0.931985 0.929366 0.927272 0.927283 0.927494 0.927654 0.927786 0.92777 0.927645 0.927578 0.927564 0.927374 0.926663 0.925154 0.922173 0.916179 0.90437 0.882102 0.842632 0.778189 0.683214 0.559224 0.419019 0.282524 0.168659 0.0878819 0.040185 0.0166442 0.00650434 0.00246904 0.000923795 0.000342695 0.000126293 4.62546e-05 1.68317e-05 6.08266e-06 2.18181e-06 7.76354e-07 2.73895e-07 9.57567e-08 3.31596e-08 1.13687e-08 3.85712e-09 1.29431e-09 4.29514e-10 1.40778e-10 4.55774e-11 1.42974e-11 4.09754e-12 9.94159e-13 2.38047e-13 1.78337e-13 2.54931e-13 -6.16981e-14 8.68911e-14 -2.6605e-13 8.00088e-13 -7.31824e-13 1.82778e-13 -1.02465e-12 4.38261e-13 -8.0336e-13 -4.76112e-13 -1.11544e-13 -2.74847e-13 -2.76378e-13 -6.71271e-13 5.14581e-13 4.82543e-13 -2.97613e-13 -3.03869e-13 1.1268e-12 5.18757e-14 -1.56867e-13 3.21303e-13 2.33998e-13 4.77347e-13 5.51628e-13 0 0 1.73989e-14 4.75932e-14 3.10205e-14 5.18897e-14 7.14698e-14 -2.3196e-14 1.53026e-14 -1.93565e-14 -1.22587e-14 -2.35285e-14 -1.11815e-13 1.04397e-13 -2.06743e-13 -4.84215e-14 -3.31826e-14 3.50122e-14 -8.33637e-15 -3.12476e-14 -8.43898e-14 -1.46914e-13 -9.23891e-14 2.67207e-14 -2.10912e-13 7.25956e-14 1.32715e-15 -1.18408e-13 -5.00571e-14 -3.59751e-14 -2.59906e-14 -1.71366e-13 -1.12397e-13 -8.56261e-14 -1.86575e-13 6.74628e-14 -1.27307e-13 -1.19599e-14 8.32319e-14 -5.02406e-13 -6.03552e-14 -1.59852e-13 -2.19983e-14 -2.77833e-13 2.25297e-13 -4.31491e-14 -1.80962e-13 -1.9054e-13 -2.17447e-13 4.53678e-13 -1.08834e-13 -3.94752e-15 -3.31271e-13 -5.04019e-13 -5.34634e-14 9.4729e-14 1.50462e-12 1.09544e-11 8.06453e-11 5.6411e-10 3.6891e-09 2.25516e-08 1.28406e-07 6.78302e-07 3.30938e-06 1.48348e-05 6.07194e-05 0.000225239 0.000750477 0.00222272 0.00578767 0.0131293 0.0258711 0.0446129 0.0685764 0.0962812 0.126382 0.157966 0.190496 0.223666 0.257269 0.291201 0.325412 0.359894 0.394673 0.429815 0.464979 0.49847 0.532162 0.564505 0.596933 0.628697 0.659983 0.691022 0.721026 0.750967 0.780091 0.807473 0.835083 0.859463 0.881261 0.901418 0.914079 0.923668 0.930118 0.93136 0.932156 0.932512 0.932421 0.932096 0.931599 0.931052 0.930553 0.930113 0.929718 0.929367 0.929072 0.92882 0.928557 0.928196 0.927594 0.926637 0.927317 0.931985 0.929366 0.927272 0.927283 0.927494 0.927654 0.927786 0.92777 0.927645 0.927578 0.927564 0.927374 0.926663 0.925154 0.922173 0.916179 0.90437 0.882102 0.842632 0.778189 0.683214 0.559224 0.419019 0.282524 0.168659 0.0878819 0.040185 0.0166442 0.00650434 0.00246904 0.000923795 0.000342695 0.000126293 4.62546e-05 1.68317e-05 6.08266e-06 2.18181e-06 7.76354e-07 2.73896e-07 9.57574e-08 3.3159e-08 1.13685e-08 3.85717e-09 1.29452e-09 4.29359e-10 1.4078e-10 4.56878e-11 1.44632e-11 4.19884e-12 1.40549e-12 1.84308e-13 -6.03249e-14 -2.42057e-13 8.75397e-14 2.16249e-13 7.03522e-13 -1.16641e-12 6.16122e-13 -1.73045e-13 -8.01028e-13 4.65368e-14 -3.90752e-13 -2.64829e-13 -5.38625e-13 2.03915e-14 -1.73401e-13 -5.70548e-13 4.24105e-13 -2.24899e-13 -2.97235e-13 5.42936e-13 -6.97357e-14 2.50304e-13 1.18432e-13 -1.42863e-15 8.96495e-13 -2.91072e-13 6.08919e-13 0 0 -6.03231e-17 2.21236e-14 3.73381e-14 8.06e-14 -4.30014e-14 7.79818e-14 -4.75416e-14 2.28607e-14 4.95605e-14 -7.87209e-14 1.02929e-14 -1.3532e-13 3.39507e-14 -1.80608e-13 -9.09794e-14 5.37198e-14 2.73425e-14 5.20972e-14 -1.31556e-13 -3.96722e-14 -7.80666e-14 2.58021e-14 1.37192e-14 -9.60948e-14 5.9452e-16 2.89923e-13 -2.87903e-13 -3.35504e-13 -1.99471e-13 1.60611e-13 -3.90134e-13 6.48377e-14 7.24513e-14 -7.65012e-14 -5.32263e-13 1.75166e-13 5.03698e-14 -2.95727e-14 -3.89888e-13 -9.97143e-14 -2.11323e-13 3.19553e-13 -1.46733e-13 8.36762e-14 1.09641e-13 -1.02096e-13 -4.5052e-14 -1.98796e-13 -4.21466e-13 -2.26014e-13 -4.18143e-13 3.49385e-14 -4.4293e-14 1.68749e-14 1.32081e-12 1.1263e-11 8.05709e-11 5.64054e-10 3.68913e-09 2.25521e-08 1.28405e-07 6.78302e-07 3.30938e-06 1.48348e-05 6.07194e-05 0.000225239 0.000750477 0.00222272 0.00578767 0.0131293 0.0258711 0.0446129 0.0685764 0.0962812 0.126382 0.157966 0.190496 0.223666 0.257269 0.291201 0.325412 0.359894 0.394673 0.429815 0.464979 0.49847 0.532162 0.564505 0.596933 0.628697 0.659983 0.691022 0.721026 0.750967 0.780091 0.807473 0.835083 0.859463 0.881261 0.901418 0.914079 0.923668 0.930118 0.93136 0.932156 0.932512 0.932421 0.932096 0.931599 0.931052 0.930553 0.930113 0.929718 0.929367 0.929072 0.92882 0.928557 0.928196 0.927594 0.926637 0.927317 0.931985 0.929366 0.927272 0.927283 0.927494 0.927654 0.927786 0.92777 0.927645 0.927578 0.927564 0.927374 0.926663 0.925154 0.922173 0.916179 0.90437 0.882102 0.842632 0.778189 0.683214 0.559224 0.419019 0.282524 0.168659 0.0878819 0.040185 0.0166442 0.00650434 0.00246904 0.000923795 0.000342695 0.000126293 4.62546e-05 1.68317e-05 6.08266e-06 2.18181e-06 7.76354e-07 2.73896e-07 9.57575e-08 3.31595e-08 1.13684e-08 3.85694e-09 1.29417e-09 4.29796e-10 1.40782e-10 4.60883e-11 1.42408e-11 4.01386e-12 1.88105e-12 1.3825e-13 -2.53794e-13 -1.08366e-12 8.76974e-13 2.11761e-13 2.10064e-13 -1.73751e-13 -5.08086e-13 -1.41168e-13 2.98429e-13 -1.10227e-12 3.5353e-13 -3.73189e-13 -3.77361e-13 -3.72364e-13 8.89326e-14 8.68852e-13 -1.40454e-12 -4.10272e-13 -1.97464e-13 -7.83329e-13 2.42946e-13 4.66424e-13 7.50543e-13 -6.43202e-14 -4.14357e-13 1.32617e-12 -2.6078e-13 0
				</DataArray>
				<DataArray Name="VitesseY" type="Float32" format="ascii">