<?xml version="1.0"?>
<VTKFile type="PolyData">
	<PolyData>
		<Piece NumberOfPoints="1206" NumberOfPolys="1000">
			<Points>
				<DataArray type="Float32" NumberOfComponents="3" format="ascii">
 0 0 0 0.005 0 0 0.01 0 0 0.015 0 0 0.02 0 0 0.025 0 0 0.03 0 0 0.035 0 0 0.04 0 0 0.045 0 0 0.05 0 0 0.055 0 0 0.06 0 0 0.065 0 0 0.07 0 0 0.075 0 0 0.08 0 0 0.085 0 0 0.09 0 0 0.095 0 0 0.1 0 0 0.105 0 0 0.11 0 0 0.115 0 0 0.12 0 0 0.125 0 0 0.13 0 0 0.135 0 0 0.14 0 0 0.145 0 0 0.15 0 0 0.155 0 0 0.16 0 0 0.165 0 0 0.17 0 0 0.175 0 0 0.18 0 0 0.185 0 0 0.19 0 0 0.195 0 0 0.2 0 0 0.205 0 0 0.21 0 0 0.215 0 0 0.22 0 0 0.225 0 0 0.23 0 0 0.235 0 0 0.24 0 0 0.245 0 0 0.25 0 0 0.255 0 0 0.26 0 0 0.265 0 0 0.27 0 0 0.275 0 0 0.28 0 0 0.285 0 0 0.29 0 0 0.295 0 0 0.3 0 0 0.305 0 0 0.31 0 0 0.315 0 0 0.32 0 0 0.325 0 0 0.33 0 0 0.335 0 0 0.34 0 0 0.345 0 0 0.35 0 0 0.355 0 0 0.36 0 0 0.365 0 0 0.37 0 0 0.375 0 0 0.38 0 0 0.385 0 0 0.39 0 0 0.395 0 0 0.4 0 0 0.405 0 0 0.41 0 0 0.415 0 0 0.42 0 0 0.425 0 0 0.43 0 0 0.435 0 0 0.44 0 0 0.445 0 0 0.45 0 0 0.455 0 0 0.46 0 0 0.465 0 0 0.47 0 0 0.475 0 0 0.48 0 0 0.485 0 0 0.49 0 0 0.495 0 0 0.5 0 0 0.505 0 0 0.51 0 0 0.515 0 0 0.52 0 0 0.525 0 0 0.53 0 0 0.535 0 0 0.54 0 0 0.545 0 0 0.55 0 0 0.555 0 0 0.56 0 0 0.565 0 0 0.57 0 0 0.575 0 0 0.58 0 0 0.585 0 0 0.59 0 0 0.595 0 0 0.6 0 0 0.605 0 0 0.61 0 0 0.615 0 0 0.62 0 0 0.625 0 0 0.63 0 0 0.635 0 0 0.64 0 0 0.645 0 0 0.65 0 0 0.655 0 0 0.66 0 0 0.665 0 0 0.67 0 0 0.675 0 0 0.68 0 0 0.685 0 0 0.69 0 0 0.695 0 0 0.7 0 0 0.705 0 0 0.71 0 0 0.715 0 0 0.72 0 0 0.725 0 0 0.73 0 0 0.735 0 0 0.74 0 0 0.745 0 0 0.75 0 0 0.755 0 0 0.76 0 0 0.765 0 0 0.77 0 0 0.775 0 0 0.78 0 0 0.785 0 0 0.79 0 0 0.795 0 0 0.8 0 0 0.805 0 0 0.81 0 0 0.815 0 0 0.82 0 0 0.825 0 0 0.83 0 0 0.835 0 0 0.84 0 0 0.845 0 0 0.85 0 0 0.855 0 0 0.86 0 0 0.865 0 0 0.87 0 0 0.875 0 0 0.88 0 0 0.885 0 0 0.89 0 0 0.895 0 0 0.9 0 0 0.905 0 0 0.91 0 0 0.915 0 0 0.92 0 0 0.925 0 0 0.93 0 0 0.935 0 0 0.94 0 0 0.945 0 0 0.95 0 0 0.955 0 0 0.96 0 0 0.965 0 0 0.97 0 0 0.975 0 0 0.98 0 0 0.985 0 0 0.99 0 0 0.995 0 0 1 0 0 0 0.02 0 0.005 0.02 0 0.01 0.02 0 0.015 0.02 0 0.02 0.02 0 0.025 0.02 0 0.03 0.02 0 0.035 0.02 0 0.04 0.02 0 0.045 0.02 0 0.05 0.02 0 0.055 0.02 0 0.06 0.02 0 0.065 0.02 0 0.07 0.02 0 0.075 0.02 0 0.08 0.02 0 0.085 0.02 0 0.09 0.02 0 0.095 0.02 0 0.1 0.02 0 0.105 0.02 0 0.11 0.02 0 0.115 0.02 0 0.12 0.02 0 0.125 0.02 0 0.13 0.02 0 0.135 0.02 0 0.14 0.02 0 0.145 0.02 0 0.15 0.02 0 0.155 0.02 0 0.16 0.02 0 0.165 0.02 0 0.17 0.02 0 0.175 0.02 0 0.18 0.02 0 0.185 0.02 0 0.19 0.02 0 0.195 0.02 0 0.2 0.02 0 0.205 0.02 0 0.21 0.02 0 0.215 0.02 0 0.22 0.02 0 0.225 0.02 0 0.23 0.02 0 0.235 0.02 0 0.24 0.02 0 0.245 0.02 0 0.25 0.02 0 0.255 0.02 0 0.26 0.02 0 0.265 0.02 0 0.27 0.02 0 0.275 0.02 0 0.28 0.02 0 0.285 0.02 0 0.29 0.02 0 0.295 0.02 0 0.3 0.02 0 0.305 0.02 0 0.31 0.02 0 0.315 0.02 0 0.32 0.02 0 0.325 0.02 0 0.33 0.02 0 0.335 0.02 0 0.34 0.02 0 0.345 0.02 0 0.35 0.02 0 0.355 0.02 0 0.36 0.02 0 0.365 0.02 0 0.37 0.02 0 0.375 0.02 0 0.38 0.02 0 0.385 0.02 0 0.39 0.02 0 0.395 0.02 0 0.4 0.02 0 0.405 0.02 0 0.41 0.02 0 0.415 0.02 0 0.42 0.02 0 0.425 0.02 0 0.43 0.02 0 0.435 0.02 0 0.44 0.02 0 0.445 0.02 0 0.45 0.02 0 0.455 0.02 0 0.46 0.02 0 0.465 0.02 0 0.47 0.02 0 0.475 0.02 0 0.48 0.02 0 0.485 0.02 0 0.49 0.02 0 0.495 0.02 0 0.5 0.02 0 0.505 0.02 0 0.51 0.02 0 0.515 0.02 0 0.52 0.02 0 0.525 0.02 0 0.53 0.02 0 0.535 0.02 0 0.54 0.02 0 0.545 0.02 0 0.55 0.02 0 0.555 0.02 0 0.56 0.02 0 0.565 0.02 0 0.57 0.02 0 0.575 0.02 0 0.58 0.02 0 0.585 0.02 0 0.59 0.02 0 0.595 0.02 0 0.6 0.02 0 0.605 0.02 0 0.61 0.02 0 0.615 0.02 0 0.62 0.02 0 0.625 0.02 0 0.63 0.02 0 0.635 0.02 0 0.64 0.02 0 0.645 0.02 0 0.65 0.02 0 0.655 0.02 0 0.66 0.02 0 0.665 0.02 0 0.67 0.02 0 0.675 0.02 0 0.68 0.02 0 0.685 0.02 0 0.69 0.02 0 0.695 0.02 0 0.7 0.02 0 0.705 0.02 0 0.71 0.02 0 0.715 0.02 0 0.72 0.02 0 0.725 0.02 0 0.73 0.02 0 0.735 0.02 0 0.74 0.02 0 0.745 0.02 0 0.75 0.02 0 0.755 0.02 0 0.76 0.02 0 0.765 0.02 0 0.77 0.02 0 0.775 0.02 0 0.78 0.02 0 0.785 0.02 0 0.79 0.02 0 0.795 0.02 0 0.8 0.02 0 0.805 0.02 0 0.81 0.02 0 0.815 0.02 0 0.82 0.02 0 0.825 0.02 0 0.83 0.02 0 0.835 0.02 0 0.84 0.02 0 0.845 0.02 0 0.85 0.02 0 0.855 0.02 0 0.86 0.02 0 0.865 0.02 0 0.87 0.02 0 0.875 0.02 0 0.88 0.02 0 0.885 0.02 0 0.89 0.02 0 0.895 0.02 0 0.9 0.02 0 0.905 0.02 0 0.91 0.02 0 0.915 0.02 0 0.92 0.02 0 0.925 0.02 0 0.93 0.02 0 0.935 0.02 0 0.94 0.02 0 0.945 0.02 0 0.95 0.02 0 0.955 0.02 0 0.96 0.02 0 0.965 0.02 0 0.97 0.02 0 0.975 0.02 0 0.98 0.02 0 0.985 0.02 0 0.99 0.02 0 0.995 0.02 0 1 0.02 0 0 0.04 0 0.005 0.04 0 0.01 0.04 0 0.015 0.04 0 0.02 0.04 0 0.025 0.04 0 0.03 0.04 0 0.035 0.04 0 0.04 0.04 0 0.045 0.04 0 0.05 0.04 0 0.055 0.04 0 0.06 0.04 0 0.065 0.04 0 0.07 0.04 0 0.075 0.04 0 0.08 0.04 0 0.085 0.04 0 0.09 0.04 0 0.095 0.04 0 0.1 0.04 0 0.105 0.04 0 0.11 0.04 0 0.115 0.04 0 0.12 0.04 0 0.125 0.04 0 0.13 0.04 0 0.135 0.04 0 0.14 0.04 0 0.145 0.04 0 0.15 0.04 0 0.155 0.04 0 0.16 0.04 0 0.165 0.04 0 0.17 0.04 0 0.175 0.04 0 0.18 0.04 0 0.185 0.04 0 0.19 0.04 0 0.195 0.04 0 0.2 0.04 0 0.205 0.04 0 0.21 0.04 0 0.215 0.04 0 0.22 0.04 0 0.225 0.04 0 0.23 0.04 0 0.235 0.04 0 0.24 0.04 0 0.245 0.04 0 0.25 0.04 0 0.255 0.04 0 0.26 0.04 0 0.265 0.04 0 0.27 0.04 0 0.275 0.04 0 0.28 0.04 0 0.285 0.04 0 0.29 0.04 0 0.295 0.04 0 0.3 0.04 0 0.305 0.04 0 0.31 0.04 0 0.315 0.04 0 0.32 0.04 0 0.325 0.04 0 0.33 0.04 0 0.335 0.04 0 0.34 0.04 0 0.345 0.04 0 0.35 0.04 0 0.355 0.04 0 0.36 0.04 0 0.365 0.04 0 0.37 0.04 0 0.375 0.04 0 0.38 0.04 0 0.385 0.04 0 0.39 0.04 0 0.395 0.04 0 0.4 0.04 0 0.405 0.04 0 0.41 0.04 0 0.415 0.04 0 0.42 0.04 0 0.425 0.04 0 0.43 0.04 0 0.435 0.04 0 0.44 0.04 0 0.445 0.04 0 0.45 0.04 0 0.455 0.04 0 0.46 0.04 0 0.465 0.04 0 0.47 0.04 0 0.475 0.04 0 0.48 0.04 0 0.485 0.04 0 0.49 0.04 0 0.495 0.04 0 0.5 0.04 0 0.505 0.04 0 0.51 0.04 0 0.515 0.04 0 0.52 0.04 0 0.525 0.04 0 0.53 0.04 0 0.535 0.04 0 0.54 0.04 0 0.545 0.04 0 0.55 0.04 0 0.555 0.04 0 0.56 0.04 0 0.565 0.04 0 0.57 0.04 0 0.575 0.04 0 0.58 0.04 0 0.585 0.04 0 0.59 0.04 0 0.595 0.04 0 0.6 0.04 0 0.605 0.04 0 0.61 0.04 0 0.615 0.04 0 0.62 0.04 0 0.625 0.04 0 0.63 0.04 0 0.635 0.04 0 0.64 0.04 0 0.645 0.04 0 0.65 0.04 0 0.655 0.04 0 0.66 0.04 0 0.665 0.04 0 0.67 0.04 0 0.675 0.04 0 0.68 0.04 0 0.685 0.04 0 0.69 0.04 0 0.695 0.04 0 0.7 0.04 0 0.705 0.04 0 0.71 0.04 0 0.715 0.04 0 0.72 0.04 0 0.725 0.04 0 0.73 0.04 0 0.735 0.04 0 0.74 0.04 0 0.745 0.04 0 0.75 0.04 0 0.755 0.04 0 0.76 0.04 0 0.765 0.04 0 0.77 0.04 0 0.775 0.04 0 0.78 0.04 0 0.785 0.04 0 0.79 0.04 0 0.795 0.04 0 0.8 0.04 0 0.805 0.04 0 0.81 0.04 0 0.815 0.04 0 0.82 0.04 0 0.825 0.04 0 0.83 0.04 0 0.835 0.04 0 0.84 0.04 0 0.845 0.04 0 0.85 0.04 0 0.855 0.04 0 0.86 0.04 0 0.865 0.04 0 0.87 0.04 0 0.875 0.04 0 0.88 0.04 0 0.885 0.04 0 0.89 0.04 0 0.895 0.04 0 0.9 0.04 0 0.905 0.04 0 0.91 0.04 0 0.915 0.04 0 0.92 0.04 0 0.925 0.04 0 0.93 0.04 0 0.935 0.04 0 0.94 0.04 0 0.945 0.04 0 0.95 0.04 0 0.955 0.04 0 0.96 0.04 0 0.965 0.04 0 0.97 0.04 0 0.975 0.04 0 0.98 0.04 0 0.985 0.04 0 0.99 0.04 0 0.995 0.04 0 1 0.04 0 0 0.06 0 0.005 0.06 0 0.01 0.06 0 0.015 0.06 0 0.02 0.06 0 0.025 0.06 0 0.03 0.06 0 0.035 0.06 0 0.04 0.06 0 0.045 0.06 0 0.05 0.06 0 0.055 0.06 0 0.06 0.06 0 0.065 0.06 0 0.07 0.06 0 0.075 0.06 0 0.08 0.06 0 0.085 0.06 0 0.09 0.06 0 0.095 0.06 0 0.1 0.06 0 0.105 0.06 0 0.11 0.06 0 0.115 0.06 0 0.12 0.06 0 0.125 0.06 0 0.13 0.06 0 0.135 0.06 0 0.14 0.06 0 0.145 0.06 0 0.15 0.06 0 0.155 0.06 0 0.16 0.06 0 0.165 0.06 0 0.17 0.06 0 0.175 0.06 0 0.18 0.06 0 0.185 0.06 0 0.19 0.06 0 0.195 0.06 0 0.2 0.06 0 0.205 0.06 0 0.21 0.06 0 0.215 0.06 0 0.22 0.06 0 0.225 0.06 0 0.23 0.06 0 0.235 0.06 0 0.24 0.06 0 0.245 0.06 0 0.25 0.06 0 0.255 0.06 0 0.26 0.06 0 0.265 0.06 0 0.27 0.06 0 0.275 0.06 0 0.28 0.06 0 0.285 0.06 0 0.29 0.06 0 0.295 0.06 0 0.3 0.06 0 0.305 0.06 0 0.31 0.06 0 0.315 0.06 0 0.32 0.06 0 0.325 0.06 0 0.33 0.06 0 0.335 0.06 0 0.34 0.06 0 0.345 0.06 0 0.35 0.06 0 0.355 0.06 0 0.36 0.06 0 0.365 0.06 0 0.37 0.06 0 0.375 0.06 0 0.38 0.06 0 0.385 0.06 0 0.39 0.06 0 0.395 0.06 0 0.4 0.06 0 0.405 0.06 0 0.41 0.06 0 0.415 0.06 0 0.42 0.06 0 0.425 0.06 0 0.43 0.06 0 0.435 0.06 0 0.44 0.06 0 0.445 0.06 0 0.45 0.06 0 0.455 0.06 0 0.46 0.06 0 0.465 0.06 0 0.47 0.06 0 0.475 0.06 0 0.48 0.06 0 0.485 0.06 0 0.49 0.06 0 0.495 0.06 0 0.5 0.06 0 0.505 0.06 0 0.51 0.06 0 0.515 0.06 0 0.52 0.06 0 0.525 0.06 0 0.53 0.06 0 0.535 0.06 0 0.54 0.06 0 0.545 0.06 0 0.55 0.06 0 0.555 0.06 0 0.56 0.06 0 0.565 0.06 0 0.57 0.06 0 0.575 0.06 0 0.58 0.06 0 0.585 0.06 0 0.59 0.06 0 0.595 0.06 0 0.6 0.06 0 0.605 0.06 0 0.61 0.06 0 0.615 0.06 0 0.62 0.06 0 0.625 0.06 0 0.63 0.06 0 0.635 0.06 0 0.64 0.06 0 0.645 0.06 0 0.65 0.06 0 0.655 0.06 0 0.66 0.06 0 0.665 0.06 0 0.67 0.06 0 0.675 0.06 0 0.68 0.06 0 0.685 0.06 0 0.69 0.06 0 0.695 0.06 0 0.7 0.06 0 0.705 0.06 0 0.71 0.06 0 0.715 0.06 0 0.72 0.06 0 0.725 0.06 0 0.73 0.06 0 0.735 0.06 0 0.74 0.06 0 0.745 0.06 0 0.75 0.06 0 0.755 0.06 0 0.76 0.06 0 0.765 0.06 0 0.77 0.06 0 0.775 0.06 0 0.78 0.06 0 0.785 0.06 0 0.79 0.06 0 0.795 0.06 0 0.8 0.06 0 0.805 0.06 0 0.81 0.06 0 0.815 0.06 0 0.82 0.06 0 0.825 0.06 0 0.83 0.06 0 0.835 0.06 0 0.84 0.06 0 0.845 0.06 0 0.85 0.06 0 0.855 0.06 0 0.86 0.06 0 0.865 0.06 0 0.87 0.06 0 0.875 0.06 0 0.88 0.06 0 0.885 0.06 0 0.89 0.06 0 0.895 0.06 0 0.9 0.06 0 0.905 0.06 0 0.91 0.06 0 0.915 0.06 0 0.92 0.06 0 0.925 0.06 0 0.93 0.06 0 0.935 0.06 0 0.94 0.06 0 0.945 0.06 0 0.95 0.06 0 0.955 0.06 0 0.96 0.06 0 0.965 0.06 0 0.97 0.06 0 0.975 0.06 0 0.98 0.06 0 0.985 0.06 0 0.99 0.06 0 0.995 0.06 0 1 0.06 0 0 0.08 0 0.005 0.08 0 0.01 0.08 0 0.015 0.08 0 0.02 0.08 0 0.025 0.08 0 0.03 0.08 0 0.035 0.08 0 0.04 0.08 0 0.045 0.08 0 0.05 0.08 0 0.055 0.08 0 0.06 0.08 0 0.065 0.08 0 0.07 0.08 0 0.075 0.08 0 0.08 0.08 0 0.085 0.08 0 0.09 0.08 0 0.095 0.08 0 0.1 0.08 0 0.105 0.08 0 0.11 0.08 0 0.115 0.08 0 0.12 0.08 0 0.125 0.08 0 0.13 0.08 0 0.135 0.08 0 0.14 0.08 0 0.145 0.08 0 0.15 0.08 0 0.155 0.08 0 0.16 0.08 0 0.165 0.08 0
[...]
			<PointData Scalars="VitesseX">
				<DataArray Name="VitesseX" type="Float32" format="ascii">
 0 -1.54182e-14 -3.5345e-14 4.11987e-14 -7.24262e-14 -9.20215e-14 -2.15559e-14 -4.66633e-14 -1.08442e-13 6.19427e-14 -2.50847e-14 -2.013e-13 1.74565e-13 -3.99351e-13 1.70165e-13 -8.54628e-14 -2.21727e-13 1.87966e-13 -2.77028e-13 3.31896e-14 -1.19526e-13 2.92124e-14 -6.68471e-14 -3.10027e-15 1.36585e-13 7.27271e-14 2.75279e-14 -5.69297e-14 -1.78648e-13 6.31804e-14 -3.29634e-13 3.4748e-13 -4.42281e-13 -2.08651e-13 3.07971e-13 -2.59436e-13 2.50873e-13 -7.59314e-13 5.9381e-13 -3.5171e-13 -6.65811e-14 -1.98342e-13 3.5338e-15 3.123e-13 -9.23993e-14 -4.88243e-13 -3.26644e-13 -9.24332e-14 -3.44794e-13 1.85835e-13 -4.71974e-14 -5.41272e-13 -2.80674e-13 1.93622e-13 1.09394e-12 1.56815e-13 -2.26962e-13 8.02669e-15 -6.27503e-14 1.53705e-13 -6.35032e-13 -4.89594e-13 -1.9e-14 -1.57599e-13 -1.11999e-13 -3.81092e-13 4.62636e-13 7.35176e-13 -2.33174e-13 -1.7292e-13 -3.18277e-13 -1.26399e-13 3.03803e-14 -7.89333e-13 4.53783e-13 -5.51676e-13 4.18447e-12 5.90783e-11 7.6885e-10 9.07045e-09 9.54936e-08 8.89615e-07 7.25801e-06 5.12086e-05 0.000307506 0.0015398 0.00626791 0.0201872 0.0506014 0.100037 0.163867 0.236373 0.31425 0.396188 0.481729 0.555537 0.628192 0.689565 0.752576 0.80722 0.847608 0.891115 0.912952 0.92347 0.932686 0.936208 0.935764 0.933755 0.930884 0.934952 0.93001 0.929453 0.928303 0.920436 0.902965 0.872698 0.818185 0.72888 0.603385 0.454469 0.304933 0.178565 0.0891547 0.0378592 0.0141247 0.0048533 0.00158695 0.000501201 0.000153689 4.58226e-05 1.32864e-05 3.74615e-06 1.02698e-06 2.73725e-07 7.09338e-08 1.78751e-08 4.37993e-09 1.04394e-09 2.42364e-10 5.42906e-11 1.18012e-11 2.68393e-12 2.83959e-13 1.47467e-13 -3.33693e-14 -4.29899e-13 8.61753e-13 -1.53711e-12 7.55141e-13 -1.79977e-13 4.99798e-13 1.06732e-12 -8.22706e-13 1.79991e-13 -7.2685e-13 1.31437e-12 -9.45745e-13 -3.86337e-13 -4.03925e-13 -7.23674e-13 6.3407e-13 1.87999e-13 -3.54885e-13 -6.7669e-13 -6.09417e-13 4.19332e-13 4.8933e-13 1.86087e-13 4.97046e-13 -8.74718e-13 6.99181e-13 4.94657e-15 -6.30507e-13 1.68151e-12 -7.64495e-13 -1.5164e-13 -5.27867e-13 4.31497e-13 7.12146e-13 -3.16437e-13 -1.37512e-12 -3.59224e-13 -8.66577e-13 1.61613e-12 -7.3373e-13 -2.03321e-13 -4.76526e-14 -2.48899e-13 1.13214e-12 -1.33106e-12 -3.60843e-13 7.22916e-13 -1.80652e-12 1.2411e-12 -9.76651e-13 -3.62869e-13 3.64263e-13 -2.18982e-12 1.25619e-12 -2.14115e-12 0 0 -1.86467e-15 3.73176e-15 -8.38044e-14 -2.84742e-15 -4.12738e-14 -8.44991e-14 -1.07732e-13 -1.41565e-14 -1.34848e-13 -5.79651e-14 8.46582e-14 -2.57334e-13 2.08979e-13 -2.98126e-13 -6.85011e-17 8.85679e-14 -2.79299e-13 1.40777e-13 -2.05674e-13 -5.35738e-14 -4.45633e-14 -7.12964e-14 -1.0025e-13 1.05004e-13 1.20094e-13 4.19557e-14 -6.26509e-14 -9.39371e-14 -7.67705e-14 5.76567e-14 -3.35998e-13 1.14066e-13 -9.65059e-14 -4.29579e-13 5.73565e-14 -1.31272e-13 5.12053e-13 -6.54777e-13 1.56644e-13 -9.09683e-14 2.19391e-14 -6.42166e-14 -3.08093e-13 -6.91856e-14 3.00888e-14 -2.57135e-13 -5.78858e-13 -2.41859e-13 -3.36131e-13 1.14737e-13 3.34335e-13 3.65606e-13 -8.0219e-15 -4.16408e-13 2.30756e-13 6.14139e-13 -3.50519e-13 1.83118e-13 -4.11339e-13 4.15438e-14 -2.6236e-13 -5.74478e-13 -1.79693e-13 -6.06369e-14 4.62762e-13 3.04962e-14 -2.66947e-13 2.85952e-13 6.85069e-14 -1.05202e-13 -1.54179e-13 -5.99881e-13 1.43052e-13 -7.03609e-13 1.00801e-12 4.16957e-12 5.86051e-11 7.68869e-10 9.06948e-09 9.54962e-08 8.89614e-07 7.25801e-06 5.12086e-05 0.000307506 0.0015398 0.00626791 0.0201872 0.0506014 0.100037 0.163867 0.236373 0.31425 0.396188 0.481729 0.555537 0.628192 0.689565 0.752576 0.80722 0.847608 0.891115 0.912952 0.92347 0.932686 0.936208 0.935764 0.933755 0.930884 0.934952 0.93001 0.929453 0.928303 0.920436 0.902965 0.872698 0.818185 0.72888 0.603385 0.454469 0.304933 0.178565 0.0891547 0.0378592 0.0141247 0.0048533 0.00158695 0.000501201 0.000153689 4.58226e-05 1.32864e-05 3.74615e-06 1.02698e-06 2.73724e-07 7.09348e-08 1.78738e-08 4.38039e-09 1.04404e-09 2.41666e-10 5.45069e-11 1.16222e-11 2.58244e-12 9.56898e-13 -2.65652e-14 2.43988e-13 5.58344e-14 -1.2307e-12 7.916e-13 -3.80656e-13 6.62846e-13 3.16275e-13 -7.02216e-13 8.31391e-13 -2.88671e-13 2.04309e-13 -8.19437e-13 2.33263e-13 -2.34978e-13 -5.48844e-13 2.60325e-13 -5.58082e-13 -3.52348e-13 -2.43183e-13 3.93853e-13 -1.67377e-13 -1.80774e-13 -6.87061e-13 5.57174e-13 -1.32707e-13 1.13819e-12 -4.65511e-13 2.43349e-13 3.17755e-13 -8.55004e-13 5.47319e-13 -2.87907e-13 3.66182e-13 2.98936e-14 -6.31806e-13 -3.68286e-13 2.7923e-13 -6.63222e-13 2.80166e-13 -1.00426e-12 4.37174e-13 -5.7181e-14 -1.83502e-13 4.97774e-13 -1.14888e-12 6.97654e-13 -2.28548e-13 -1.36409e-12 1.65852e-12 -1.3809e-12 1.6328e-13 1.98803e-14 -1.14615e-12 5.09957e-13 -1.87633e-12 4.6083e-13 0 0 -1.46351e-14 -3.20889e-14 -7.37343e-15 -5.62937e-14 -6.75715e-14 -6.14549e-14 -9.55627e-14 -1.31287e-13 -4.64672e-14 -6.36938e-14 -1.27137e-13 1.03345e-13 -1.51433e-13 5.83189e-15 3.03882e-14 -8.97694e-14 -5.44595e-14 -4.55862e-14 -8.92248e-14 -1.49978e-13 -1.64716e-13 1.93699e-14 -2.63979e-14 -1.27732e-14 1.31453e-13 -5.55702e-14 -1.9633e-13 -2.05436e-13 3.94693e-14 4.91669e-14 4.72629e-14 -2.29634e-13 -3.22843e-13 -1.84971e-13 -1.94152e-13 1.2173e-13 -6.09137e-14 1.90072e-13 -1.05749e-13 -2.98081e-13 1.36234e-14 4.61927e-14 -1.70559e-13 -5.06364e-13 -2.35289e-13 1.15001e-13 6.24829e-14 -2.00456e-13 -1.56515e-13 2.23695e-13 3.47466e-13 2.67188e-14 -3.3601e-13 1.0776e-13 -1.34906e-13 1.13765e-13 2.57214e-13 -1.4381e-13 -1.26422e-13 -3.60698e-13 -1.87976e-13 -2.13263e-13 -2.38457e-13 1.44355e-13 1.53071e-13 -9.58366e-14 2.14355e-13 1.63439e-13 -6.52943e-14 -2.1855e-13 8.00276e-14 7.12702e-14 -6.23912e-13 1.32383e-13 3.58753e-13 4.82004e-12 5.90428e-11 7.68205e-10 9.07037e-09 9.54948e-08 8.89613e-07 7.25801e-06 5.12086e-05 0.000307506 0.0015398 0.00626791 0.0201872 0.0506014 0.100037 0.163867 0.236373 0.31425 0.396188 0.481729 0.555537 0.628192 0.689565 0.752576 0.80722 0.847608 0.891115 0.912952 0.92347 0.932686 0.936208 0.935764 0.933755 0.930884 0.934952 0.93001 0.929453 0.928303 0.920436 0.902965 0.872698 0.818185 0.72888 0.603385 0.454469 0.304933 0.178565 0.0891547 0.0378592 0.0141247 0.0048533 0.00158695 0.000501201 0.000153689 4.58226e-05 1.32864e-05 3.74615e-06 1.02698e-06 2.73724e-07 7.09341e-08 1.78744e-08 4.37982e-09 1.04376e-09 2.41979e-10 5.43407e-11 1.17698e-11 2.61471e-12 8.11005e-13 9.03662e-14 -5.10796e-14 1.68747e-13 1.75734e-13 1.50468e-13 -2.77386e-13 9.18694e-14 -4.58614e-13 6.02408e-13 3.90522e-13 2.74396e-13 -6.91623e-13 -7.0261e-13 -1.9524e-13 -2.57233e-13 -1.83078e-13 -2.49506e-13 -3.13417e-13 -4.26043e-13 -5.03956e-14 -2.99395e-13 -1.69147e-14 -2.84491e-13 -1.37028e-13 2.49902e-13 6.52927e-13 -2.10127e-13 -2.55644e-13 1.22861e-13 9.50527e-14 2.63164e-13 -2.69714e-14 3.59963e-13 -8.65711e-14 -1.65924e-13 -6.30918e-13 3.72015e-14 -2.39014e-13 -2.43833e-13 -3.02312e-13 1.24542e-13 -6.63404e-13 7.12609e-13 1.74954e-13 -1.19822e-12 5.70017e-13 -2.63487e-13 5.73514e-14 5.05849e-13 -7.02211e-13 -7.08129e-14 -7.43956e-13 -9.31236e-14 3.91751e-14 -8.9414e-13 -2.82824e-13 2.78976e-13 0 0 -1.7481e-14 -3.71851e-14 -1.32724e-14 -5.50755e-14 -8.35151e-14 -1.01477e-13 -1.3338e-13 -4.59545e-14 4.567e-14 8.50726e-15 -1.28792e-13 5.54997e-14 -2.12136e-13 1.15589e-13 -1.00799e-13 -1.48125e-13 -5.83513e-14 -1.92226e-13 -7.19533e-14 -2.51874e-13 5.99653e-16 4.31792e-14 2.76724e-16 -4.56238e-15 -1.53858e-13 2.92895e-15 -6.42064e-14 -1.57268e-13 -5.69442e-14 -1.43964e-13 1.83288e-13 -2.04234e-13 -6.26852e-14 7.32079e-14 -6.66189e-14 3.28154e-14 -2.58307e-13 2.87899e-13 -7.54328e-14 -3.9058e-13 -3.26227e-13 -8.45639e-14 5.6118e-14 -6.89704e-14 -1.46435e-13 -8.39876e-14 7.61272e-14 -5.54525e-14 2.60081e-13 -7.10451e-14 -5.94048e-13 2.50162e-13 9.81689e-14 1.84413e-13 5.33636e-14 -3.37274e-13 -4.02661e-14 -2.34218e-14 -1.17286e-13 -4.21978e-13 -3.66989e-13 -3.01709e-13 -7.58334e-14 -1.73382e-13 8.02613e-14 3.24794e-13 7.47008e-13 2.23157e-13 -1.01608e-13 -3.58816e-14 1.94464e-13 -1.17014e-13 -1.87716e-13 -1.79146e-13 6.78587e-14 4.48362e-12 5.91116e-11 7.69101e-10 9.06979e-09 9.54941e-08 8.89615e-07 7.25801e-06 5.12086e-05 0.000307506 0.0015398 0.00626791 0.0201872 0.0506014 0.100037 0.163867 0.236373 0.31425 0.396188 0.481729 0.555537 0.628192 0.689565 0.752576 0.80722 0.847608 0.891115 0.912952 0.92347 0.932686 0.936208 0.935764 0.933755 0.930884 0.934952 0.93001 0.929453 0.928303 0.920436 0.902965 0.872698 0.818185 0.72888 0.603385 0.454469 0.304933 0.178565 0.0891547 0.0378592 0.0141247 0.0048533 0.00158695 0.000501201 0.000153689 4.58226e-05 1.32864e-05 3.74615e-06 1.02698e-06 2.73724e-07 7.09339e-08 1.78745e-08 4.38011e-09 1.04396e-09 2.42136e-10 5.43481e-11 1.20016e-11 2.99641e-12 4.41992e-13 1.14964e-13 -1.22654e-14 3.7798e-13 5.77484e-13 -1.87544e-13 3.4846e-13 -6.958e-13 -3.40766e-13 5.06733e-13 2.21126e-13 -2.86394e-13 -7.74571e-13 -1.4617e-13 -3.2728e-13 -5.13715e-13 -2.57561e-13 -8.58365e-13 -1.5842e-13 1.54512e-13 -2.55276e-13 -7.79176e-13 -3.53966e-13 -8.08919e-14 6.64944e-13 2.72312e-13 2.22522e-13 -1.34214e-12 -2.81774e-13 1.87564e-13 3.35147e-13 7.25693e-13 3.18047e-13 1.46662e-13 -3.03468e-13 -6.38554e-13 5.11097e-13 -2.36264e-13 -1.16535e-12 2.71341e-14 2.59952e-13 2.08787e-13 -1.06993e-13 -2.78219e-13 5.66988e-13 -4.8685e-13 4.22852e-14 -1.88149e-13 4.28621e-13 3.21977e-13 -6.8926e-13 2.95425e-13 -2.32594e-13 -1.04737e-12 1.06865e-12 -6.5171e-13 -1.9985e-13 -9.24373e-13 0 0 -5.69043e-15 -1.86465e-15 -9.73516e-14 -6.42325e-15 -6.82304e-14 -1.09923e-13 -1.33527e-13 4.36707e-14 -3.25943e-14 -6.86149e-15 9.30494e-14 -2.4511e-13 2.01006e-13 -2.70088e-13 -6.93214e-14 4.75019e-15 -3.31183e-13 1.01234e-14 -2.44787e-13 -1.45753e-13 4.80495e-14 -8.72682e-14 -2.13168e-13 -3.17992e-15 -1.68943e-13 -6.22691e-14 -1.52195e-13 -2.15347e-14 -2.34787e-14 1.19874e-13 -1.77127e-13 3.82853e-13 1.85735e-13 -2.1942e-13 4.8101e-14 -2.03227e-14 4.33293e-13 -6.68098e-13 2.74064e-14 -1.75432e-13 -3.19755e-13 -2.14256e-13 -2.30637e-13 1.29752e-13 1.28941e-14 -4.63253e-13 -5.31219e-13 -8.35399e-14 -7.7357e-14 -8.41396e-15 7.97589e-14 3.71794e-13 1.66282e-13 -7.21134e-13 2.14801e-13 1.87585e-13 -6.17773e-13 1.23965e-13 -3.70368e-13 -8.58527e-14 -4.13571e-13 -4.1547e-13 2.95439e-13 -4.37644e-14 5.87771e-13 2.81574e-13 5.8942e-14 3.71574e-13 9.72797e-14 -1.58771e-13 -2.72926e-13 -4.7415e-13 5.84727e-13 -4.92542e-13 7.23459e-13 4.21717e-12 5.8489e-11 7.69601e-10 9.06948e-09 9.5496e-08 8.89615e-07 7.25801e-06 5.12086e-05 0.000307506 0.0015398 0.00626791 0.0201872 0.0506014 0.100037 0.163867 0.236373 0.31425 0.396188 0.481729 0.555537 0.628192 0.689565 0.752576 0.80722 0.847608 0.891115 0.912952 0.92347 0.932686 0.936208 0.935764 0.933755 0.930884 0.934952 0.93001 0.929453 0.928303 0.920436 0.902965 0.872698 0.818185 0.72888 0.603385 0.454469 0.304933 0.178565 0.0891547 0.0378592 0.0141247 0.0048533 0.00158695 0.000501201 0.000153689 4.58226e-05 1.32864e-05 3.74615e-06 1.02698e-06 2.73724e-07 7.09347e-08 1.7874e-08 4.3804e-09 1.0442e-09 2.41634e-10 5.47062e-11 1.19157e-11 2.81847e-12 9.04886e-13 -5.13309e-13 5.81385e-13 7.65902e-13 -4.74986e-13 7.7789e-13 1.16778e-13 1.262e-13 -2.02584e-13 -1.01553e-12 3.38538e-13 -2.90361e-13 3.26849e-13 -1.22533e-12 -1.16404e-13 -6.41788e-13 -7.22812e-13 -3.93908e-13 -7.3718e-13 4.56553e-13 -4.30017e-13 8.99215e-13 -3.11258e-13 1.73665e-13 -4.03956e-13 2.7492e-13 -6.29533e-13 -3.63416e-15 -6.52061e-13 -1.1089e-14 7.10602e-13 -1.15459e-12 7.01408e-13 -5.62197e-13 -1.13933e-14 -2.23082e-13 3.04824e-13 -2.49215e-13 -5.73515e-13 -4.56109e-13 4.21674e-13 -7.37877e-13 9.86938e-13 -2.09678e-13 9.37143e-14 7.00946e-13 -1.36421e-12 1.14486e-12 -2.39933e-13 -1.10969e-12 1.92561e-12 -1.26924e-12 7.52968e-13 -3.09688e-13 -6.42626e-13 4.32265e-13 -2.0292e-12 7.09737e-14 0 0 -1.73779e-14 -3.63454e-14 2.59023e-14 -8.20143e-14 -1.14048e-13 7.64042e-15 -2.26204e-14 -1.63454e-13 8.21756e-14 -6.72795e-14 -1.81207e-13 2.94704e-13 -2.93891e-13 6.725e-15 3.84064e-14 -2.72651e-13 9.19813e-14 -2.45055e-13 -7.95799e-14 -1.00092e-13 -1.16193e-13 -1.46409e-13 -2.82285e-13 -9.62041e-14 6.52741e-14 -2.9792e-13 -5.00264e-13 -1.30181e-13 3.62591e-13 1.81063e-13 3.93171e-13 4.4494e-14 -1.64485e-13 2.11931e-13 -5.33013e-13 6.50599e-13 -5.22046e-13 3.71514e-13 -6.70818e-13 -5.05115e-14 -2.0203e-13 -3.50322e-14 1.38593e-14 -5.69311e-13 -7.00342e-13 -3.40902e-13 -2.44445e-14 -3.18162e-13 -1.29808e-13 2.9598e-13 8.32603e-13 -7.15184e-13 -3.26128e-13 3.3118e-13 -2.51633e-13 -1.77994e-13 6.84801e-14 -4.21834e-13 2.17375e-13 -7.67266e-13 -4.33991e-13 4.75909e-13 4.67419e-13 5.5722e-13 1.45447e-14 1.23531e-13 3.21646e-13 -1.81369e-13 -4.27469e-14 -7.90752e-13 -5.92766e-13 6.5841e-13 -7.78375e-13 1.49897e-12 -5.38987e-13 4.95249e-12 5.87085e-11 7.68522e-10 9.07162e-09 9.54947e-08 8.89615e-07 7.25801e-06 5.12086e-05 0.000307506 0.0015398 0.00626791 0.0201872 0.0506014 0.100037 0.163867 0.236373 0.31425 0.396188 0.481729 0.555537 0.628192 0.689565 0.752576 0.80722 0.847608 0.891115 0.912952 0.92347 0.932686 0.936208 0.935764 0.933755 0.930884 0.934952 0.93001 0.929453 0.928303 0.920436 0.902965 0.872698 0.818185 0.72888 0.603385 0.454469 0.304933 0.178565 0.0891547 0.0378592 0.0141247 0.0048533 0.00158695 0.000501201 0.000153689 4.58226e-05 1.32864e-05 3.74615e-06 1.02698e-06 2.73725e-07 7.09341e-08 1.78751e-08 4.37937e-09 1.04386e-09 2.41988e-10 5.46745e-11 1.19248e-11 2.39256e-12 9.17962e-13 -8.75217e-13 5.63795e-13 5.71771e-13 1.56969e-12 -8.88507e-13 4.98315e-13 3.22072e-13 -7.73615e-13 6.32042e-13 -1.46962e-12 1.29819e-12 -3.15875e-13 -6.1029e-13 -1.381e-12 -6.86994e-13 -6.02895e-13 -8.14424e-13 -3.41207e-14 6.4469e-13 -3.18791e-13 1.2936e-12 -2.23077e-13 7.21013e-13 -5.48403e-13 -4.23243e-13 3.64202e-13 -8.94331e-13 3.7834e-13 -6.33336e-13 -3.25001e-13 1.57288e-13 -1.14635e-12 -2.73619e-13 -8.49223e-13 8.70804e-13 3.01375e-13 4.68635e-13 -1.22794e-12 -4.86932e-13 -1.70809e-12 1.9804e-12 -7.47024e-13 1.47334e-12 -2.77287e-13 -1.26529e-12 1.75694e-12 -5.87318e-13 -1.12615e-12 1.59946e-12 -1.29825e-12 7.3196e-13 -8.19998e-13 8.86495e-13 -6.87623e-13 -2.83006e-12 7.84489e-13 -5.14166e-13 0
				</DataArray>
				<DataArray Name="VitesseY" type="Float32" format="ascii">