<?xml version="1.0"?>
<VTKFile type="PolyData">
	<PolyData>
		<Piece NumberOfPoints="1206" NumberOfPolys="1000">
			<Points>
				<DataArray type="Float32" NumberOfComponents="3" format="ascii">
 0 0 0 0.005 0 0 0.01 0 0 0.015 0 0 0.02 0 0 0.025 0 0 0.03 0 0 0.035 0 0 0.04 0 0 0.045 0 0 0.05 0 0 0.055 0 0 0.06 0 0 0.065 0 0 0.07 0 0 0.075 0 0 0.08 0 0 0.085 0 0 0.09 0 0 0.095 0 0 0.1 0 0 0.105 0 0 0.11 0 0 0.115 0 0 0.12 0 0 0.125 0 0 0.13 0 0 0.135 0 0 0.14 0 0 0.145 0 0 0.15 0 0 0.155 0 0 0.16 0 0 0.165 0 0 0.17 0 0 0.175 0 0 0.18 0 0 0.185 0 0 0.19 0 0 0.195 0 0 0.2 0 0 0.205 0 0 0.21 0 0 0.215 0 0 0.22 0 0 0.225 0 0 0.23 0 0 0.235 0 0 0.24 0 0 0.245 0 0 0.25 0 0 0.255 0 0 0.26 0 0 0.265 0 0 0.27 0 0 0.275 0 0 0.28 0 0 0.285 0 0 0.29 0 0 0.295 0 0 0.3 0 0 0.305 0 0 0.31 0 0 0.315 0 0 0.32 0 0 0.325 0 0 0.33 0 0 0.335 0 0 0.34 0 0 0.345 0 0 0.35 0 0 0.355 0 0 0.36 0 0 0.365 0 0 0.37 0 0 0.375 0 0 0.38 0 0 0.385 0 0 0.39 0 0 0.395 0 0 0.4 0 0 0.405 0 0 0.41 0 0 0.415 0 0 0.42 0 0 0.425 0 0 0.43 0 0 0.435 0 0 0.44 0 0 0.445 0 0 0.45 0 0 0.455 0 0 0.46 0 0 0.465 0 0 0.47 0 0 0.475 0 0 0.48 0 0 0.485 0 0 0.49 0 0 0.495 0 0 0.5 0 0 0.505 0 0 0.51 0 0 0.515 0 0 0.52 0 0 0.525 0 0 0.53 0 0 0.535 0 0 0.54 0 0 0.545 0 0 0.55 0 0 0.555 0 0 0.56 0 0 0.565 0 0 0.57 0 0 0.575 0 0 0.58 0 0 0.585 0 0 0.59 0 0 0.595 0 0 0.6 0 0 0.605 0 0 0.61 0 0 0.615 0 0 0.62 0 0 0.625 0 0 0.63 0 0 0.635 0 0 0.64 0 0 0.645 0 0 0.65 0 0 0.655 0 0 0.66 0 0 0.665 0 0 0.67 0 0 0.675 0 0 0.68 0 0 0.685 0 0 0.69 0 0 0.695 0 0 0.7 0 0 0.705 0 0 0.71 0 0 0.715 0 0 0.72 0 0 0.725 0 0 0.73 0 0 0.735 0 0 0.74 0 0 0.745 0 0 0.75 0 0 0.755 0 0 0.76 0 0 0.765 0 0 0.77 0 0 0.775 0 0 0.78 0 0 0.785 0 0 0.79 0 0 0.795 0 0 0.8 0 0 0.805 0 0 0.81 0 0 0.815 0 0 0.82 0 0 0.825 0 0 0.83 0 0 0.835 0 0 0.84 0 0 0.845 0 0 0.85 0 0 0.855 0 0 0.86 0 0 0.865 0 0 0.87 0 0 0.875 0 0 0.88 0 0 0.885 0 0 0.89 0 0 0.895 0 0 0.9 0 0 0.905 0 0 0.91 0 0 0.915 0 0 0.92 0 0 0.925 0 0 0.93 0 0 0.935 0 0 0.94 0 0 0.945 0 0 0.95 0 0 0.955 0 0 0.96 0 0 0.965 0 0 0.97 0 0 0.975 0 0 0.98 0 0 0.985 0 0 0.99 0 0 0.995 0 0 1 0 0 0 0.02 0 0.005 0.02 0 0.01 0.02 0 0.015 0.02 0 0.02 0.02 0 0.025 0.02 0 0.03 0.02 0 0.035 0.02 0 0.04 0.02 0 0.045 0.02 0 0.05 0.02 0 0.055 0.02 0 0.06 0.02 0 0.065 0.02 0 0.07 0.02 0 0.075 0.02 0 0.08 0.02 0 0.085 0.02 0 0.09 0.02 0 0.095 0.02 0 0.1 0.02 0 0.105 0.02 0 0.11 0.02 0 0.115 0.02 0 0.12 0.02 0 0.125 0.02 0 0.13 0.02 0 0.135 0.02 0 0.14 0.02 0 0.145 0.02 0 0.15 0.02 0 0.155 0.02 0 0.16 0.02 0 0.165 0.02 0 0.17 0.02 0 0.175 0.02 0 0.18 0.02 0 0.185 0.02 0 0.19 0.02 0 0.195 0.02 0 0.2 0.02 0 0.205 0.02 0 0.21 0.02 0 0.215 0.02 0 0.22 0.02 0 0.225 0.02 0 0.23 0.02 0 0.235 0.02 0 0.24 0.02 0 0.245 0.02 0 0.25 0.02 0 0.255 0.02 0 0.26 0.02 0 0.265 0.02 0 0.27 0.02 0 0.275 0.02 0 0.28 0.02 0 0.285 0.02 0 0.29 0.02 0 0.295 0.02 0 0.3 0.02 0 0.305 0.02 0 0.31 0.02 0 0.315 0.02 0 0.32 0.02 0 0.325 0.02 0 0.33 0.02 0 0.335 0.02 0 0.34 0.02 0 0.345 0.02 0 0.35 0.02 0 0.355 0.02 0 0.36 0.02 0 0.365 0.02 0 0.37 0.02 0 0.375 0.02 0 0.38 0.02 0 0.385 0.02 0 0.39 0.02 0 0.395 0.02 0 0.4 0.02 0 0.405 0.02 0 0.41 0.02 0 0.415 0.02 0 0.42 0.02 0 0.425 0.02 0 0.43 0.02 0 0.435 0.02 0 0.44 0.02 0 0.445 0.02 0 0.45 0.02 0 0.455 0.02 0 0.46 0.02 0 0.465 0.02 0 0.47 0.02 0 0.475 0.02 0 0.48 0.02 0 0.485 0.02 0 0.49 0.02 0 0.495 0.02 0 0.5 0.02 0 0.505 0.02 0 0.51 0.02 0 0.515 0.02 0 0.52 0.02 0 0.525 0.02 0 0.53 0.02 0 0.535 0.02 0 0.54 0.02 0 0.545 0.02 0 0.55 0.02 0 0.555 0.02 0 0.56 0.02 0 0.565 0.02 0 0.57 0.02 0 0.575 0.02 0 0.58 0.02 0 0.585 0.02 0 0.59 0.02 0 0.595 0.02 0 0.6 0.02 0 0.605 0.02 0 0.61 0.02 0 0.615 0.02 0 0.62 0.02 0 0.625 0.02 0 0.63 0.02 0 0.635 0.02 0 0.64 0.02 0 0.645 0.02 0 0.65 0.02 0 0.655 0.02 0 0.66 0.02 0 0.665 0.02 0 0.67 0.02 0 0.675 0.02 0 0.68 0.02 0 0.685 0.02 0 0.69 0.02 0 0.695 0.02 0 0.7 0.02 0 0.705 0.02 0 0.71 0.02 0 0.715 0.02 0 0.72 0.02 0 0.725 0.02 0 0.73 0.02 0 0.735 0.02 0 0.74 0.02 0 0.745 0.02 0 0.75 0.02 0 0.755 0.02 0 0.76 0.02 0 0.765 0.02 0 0.77 0.02 0 0.775 0.02 0 0.78 0.02 0 0.785 0.02 0 0.79 0.02 0 0.795 0.02 0 0.8 0.02 0 0.805 0.02 0 0.81 0.02 0 0.815 0.02 0 0.82 0.02 0 0.825 0.02 0 0.83 0.02 0 0.835 0.02 0 0.84 0.02 0 0.845 0.02 0 0.85 0.02 0 0.855 0.02 0 0.86 0.02 0 0.865 0.02 0 0.87 0.02 0 0.875 0.02 0 0.88 0.02 0 0.885 0.02 0 0.89 0.02 0 0.895 0.02 0 0.9 0.02 0 0.905 0.02 0 0.91 0.02 0 0.915 0.02 0 0.92 0.02 0 0.925 0.02 0 0.93 0.02 0 0.935 0.02 0 0.94 0.02 0 0.945 0.02 0 0.95 0.02 0 0.955 0.02 0 0.96 0.02 0 0.965 0.02 0 0.97 0.02 0 0.975 0.02 0 0.98 0.02 0 0.985 0.02 0 0.99 0.02 0 0.995 0.02 0 1 0.02 0 0 0.04 0 0.005 0.04 0 0.01 0.04 0 0.015 0.04 0 0.02 0.04 0 0.025 0.04 0 0.03 0.04 0 0.035 0.04 0 0.04 0.04 0 0.045 0.04 0 0.05 0.04 0 0.055 0.04 0 0.06 0.04 0 0.065 0.04 0 0.07 0.04 0 0.075 0.04 0 0.08 0.04 0 0.085 0.04 0 0.09 0.04 0 0.095 0.04 0 0.1 0.04 0 0.105 0.04 0 0.11 0.04 0 0.115 0.04 0 0.12 0.04 0 0.125 0.04 0 0.13 0.04 0 0.135 0.04 0 0.14 0.04 0 0.145 0.04 0 0.15 0.04 0 0.155 0.04 0 0.16 0.04 0 0.165 0.04 0 0.17 0.04 0 0.175 0.04 0 0.18 0.04 0 0.185 0.04 0 0.19 0.04 0 0.195 0.04 0 0.2 0.04 0 0.205 0.04 0 0.21 0.04 0 0.215 0.04 0 0.22 0.04 0 0.225 0.04 0 0.23 0.04 0 0.235 0.04 0 0.24 0.04 0 0.245 0.04 0 0.25 0.04 0 0.255 0.04 0 0.26 0.04 0 0.265 0.04 0 0.27 0.04 0 0.275 0.04 0 0.28 0.04 0 0.285 0.04 0 0.29 0.04 0 0.295 0.04 0 0.3 0.04 0 0.305 0.04 0 0.31 0.04 0 0.315 0.04 0 0.32 0.04 0 0.325 0.04 0 0.33 0.04 0 0.335 0.04 0 0.34 0.04 0 0.345 0.04 0 0.35 0.04 0 0.355 0.04 0 0.36 0.04 0 0.365 0.04 0 0.37 0.04 0 0.375 0.04 0 0.38 0.04 0 0.385 0.04 0 0.39 0.04 0 0.395 0.04 0 0.4 0.04 0 0.405 0.04 0 0.41 0.04 0 0.415 0.04 0 0.42 0.04 0 0.425 0.04 0 0.43 0.04 0 0.435 0.04 0 0.44 0.04 0 0.445 0.04 0 0.45 0.04 0 0.455 0.04 0 0.46 0.04 0 0.465 0.04 0 0.47 0.04 0 0.475 0.04 0 0.48 0.04 0 0.485 0.04 0 0.49 0.04 0 0.495 0.04 0 0.5 0.04 0 0.505 0.04 0 0.51 0.04 0 0.515 0.04 0 0.52 0.04 0 0.525 0.04 0 0.53 0.04 0 0.535 0.04 0 0.54 0.04 0 0.545 0.04 0 0.55 0.04 0 0.555 0.04 0 0.56 0.04 0 0.565 0.04 0 0.57 0.04 0 0.575 0.04 0 0.58 0.04 0 0.585 0.04 0 0.59 0.04 0 0.595 0.04 0 0.6 0.04 0 0.605 0.04 0 0.61 0.04 0 0.615 0.04 0 0.62 0.04 0 0.625 0.04 0 0.63 0.04 0 0.635 0.04 0 0.64 0.04 0 0.645 0.04 0 0.65 0.04 0 0.655 0.04 0 0.66 0.04 0 0.665 0.04 0 0.67 0.04 0 0.675 0.04 0 0.68 0.04 0 0.685 0.04 0 0.69 0.04 0 0.695 0.04 0 0.7 0.04 0 0.705 0.04 0 0.71 0.04 0 0.715 0.04 0 0.72 0.04 0 0.725 0.04 0 0.73 0.04 0 0.735 0.04 0 0.74 0.04 0 0.745 0.04 0 0.75 0.04 0 0.755 0.04 0 0.76 0.04 0 0.765 0.04 0 0.77 0.04 0 0.775 0.04 0 0.78 0.04 0 0.785 0.04 0 0.79 0.04 0 0.795 0.04 0 0.8 0.04 0 0.805 0.04 0 0.81 0.04 0 0.815 0.04 0 0.82 0.04 0 0.825 0.04 0 0.83 0.04 0 0.835 0.04 0 0.84 0.04 0 0.845 0.04 0 0.85 0.04 0 0.855 0.04 0 0.86 0.04 0 0.865 0.04 0 0.87 0.04 0 0.875 0.04 0 0.88 0.04 0 0.885 0.04 0 0.89 0.04 0 0.895 0.04 0 0.9 0.04 0 0.905 0.04 0 0.91 0.04 0 0.915 0.04 0 0.92 0.04 0 0.925 0.04 0 0.93 0.04 0 0.935 0.04 0 0.94 0.04 0 0.945 0.04 0 0.95 0.04 0 0.955 0.04 0 0.96 0.04 0 0.965 0.04 0 0.97 0.04 0 0.975 0.04 0 0.98 0.04 0 0.985 0.04 0 0.99 0.04 0 0.995 0.04 0 1 0.04 0 0 0.06 0 0.005 0.06 0 0.01 0.06 0 0.015 0.06 0 0.02 0.06 0 0.025 0.06 0 0.03 0.06 0 0.035 0.06 0 0.04 0.06 0 0.045 0.06 0 0.05 0.06 0 0.055 0.06 0 0.06 0.06 0 0.065 0.06 0 0.07 0.06 0 0.075 0.06 0 0.08 0.06 0 0.085 0.06 0 0.09 0.06 0 0.095 0.06 0 0.1 0.06 0 0.105 0.06 0 0.11 0.06 0 0.115 0.06 0 0.12 0.06 0 0.125 0.06 0 0.13 0.06 0 0.135 0.06 0 0.14 0.06 0 0.145 0.06 0 0.15 0.06 0 0.155 0.06 0 0.16 0.06 0 0.165 0.06 0 0.17 0.06 0 0.175 0.06 0 0.18 0.06 0 0.185 0.06 0 0.19 0.06 0 0.195 0.06 0 0.2 0.06 0 0.205 0.06 0 0.21 0.06 0 0.215 0.06 0 0.22 0.06 0 0.225 0.06 0 0.23 0.06 0 0.235 0.06 0 0.24 0.06 0 0.245 0.06 0 0.25 0.06 0 0.255 0.06 0 0.26 0.06 0 0.265 0.06 0 0.27 0.06 0 0.275 0.06 0 0.28 0.06 0 0.285 0.06 0 0.29 0.06 0 0.295 0.06 0 0.3 0.06 0 0.305 0.06 0 0.31 0.06 0 0.315 0.06 0 0.32 0.06 0 0.325 0.06 0 0.33 0.06 0 0.335 0.06 0 0.34 0.06 0 0.345 0.06 0 0.35 0.06 0 0.355 0.06 0 0.36 0.06 0 0.365 0.06 0 0.37 0.06 0 0.375 0.06 0 0.38 0.06 0 0.385 0.06 0 0.39 0.06 0 0.395 0.06 0 0.4 0.06 0 0.405 0.06 0 0.41 0.06 0 0.415 0.06 0 0.42 0.06 0 0.425 0.06 0 0.43 0.06 0 0.435 0.06 0 0.44 0.06 0 0.445 0.06 0 0.45 0.06 0 0.455 0.06 0 0.46 0.06 0 0.465 0.06 0 0.47 0.06 0 0.475 0.06 0 0.48 0.06 0 0.485 0.06 0 0.49 0.06 0 0.495 0.06 0 0.5 0.06 0 0.505 0.06 0 0.51 0.06 0 0.515 0.06 0 0.52 0.06 0 0.525 0.06 0 0.53 0.06 0 0.535 0.06 0 0.54 0.06 0 0.545 0.06 0 0.55 0.06 0 0.555 0.06 0 0.56 0.06 0 0.565 0.06 0 0.57 0.06 0 0.575 0.06 0 0.58 0.06 0 0.585 0.06 0 0.59 0.06 0 0.595 0.06 0 0.6 0.06 0 0.605 0.06 0 0.61 0.06 0 0.615 0.06 0 0.62 0.06 0 0.625 0.06 0 0.63 0.06 0 0.635 0.06 0 0.64 0.06 0 0.645 0.06 0 0.65 0.06 0 0.655 0.06 0 0.66 0.06 0 0.665 0.06 0 0.67 0.06 0 0.675 0.06 0 0.68 0.06 0 0.685 0.06 0 0.69 0.06 0 0.695 0.06 0 0.7 0.06 0 0.705 0.06 0 0.71 0.06 0 0.715 0.06 0 0.72 0.06 0 0.725 0.06 0 0.73 0.06 0 0.735 0.06 0 0.74 0.06 0 0.745 0.06 0 0.75 0.06 0 0.755 0.06 0 0.76 0.06 0 0.765 0.06 0 0.77 0.06 0 0.775 0.06 0 0.78 0.06 0 0.785 0.06 0 0.79 0.06 0 0.795 0.06 0 0.8 0.06 0 0.805 0.06 0 0.81 0.06 0 0.815 0.06 0 0.82 0.06 0 0.825 0.06 0 0.83 0.06 0 0.835 0.06 0 0.84 0.06 0 0.845 0.06 0 0.85 0.06 0 0.855 0.06 0 0.86 0.06 0 0.865 0.06 0 0.87 0.06 0 0.875 0.06 0 0.88 0.06 0 0.885 0.06 0 0.89 0.06 0 0.895 0.06 0 0.9 0.06 0 0.905 0.06 0 0.91 0.06 0 0.915 0.06 0 0.92 0.06 0 0.925 0.06 0 0.93 0.06 0 0.935 0.06 0 0.94 0.06 0 0.945 0.06 0 0.95 0.06 0 0.955 0.06 0 0.96 0.06 0 0.965 0.06 0 0.97 0.06 0 0.975 0.06 0 0.98 0.06 0 0.985 0.06 0 0.99 0.06 0 0.995 0.06 0 1 0.06 0 0 0.08 0 0.005 0.08 0 0.01 0.08 0 0.015 0.08 0 0.02 0.08 0 0.025 0.08 0 0.03 0.08 0 0.035 0.08 0 0.04 0.08 0 0.045 0.08 0 0.05 0.08 0 0.055 0.08 0 0.06 0.08 0 0.065 0.08 0 0.07 0.08 0 0.075 0.08 0 0.08 0.08 0 0.085 0.08 0 0.09 0.08 0 0.095 0.08 0 0.1 0.08 0 0.105 0.08 0 0.11 0.08 0 0.115 0.08 0 0.12 0.08 0 0.125 0.08 0 0.13 0.08 0 0.135 0.08 0 0.14 0.08 0 0.145 0.08 0 0.15 0.08 0 0.155 0.08 0 0.16 0.08 0 0.165 0.08 0
[...]
			<PointData Scalars="VitesseX">
				<DataArray Name="VitesseX" type="Float32" format="ascii">
 0 -8.53452e-15 -3.5696e-15 2.07708e-14 1.17239e-14 -2.27474e-14 2.47974e-14 -2.36866e-14 -4.63265e-14 9.47585e-16 1.69992e-14 -1.94155e-14 5.99131e-15 -7.62419e-14 -8.69076e-14 -6.56394e-14 6.71113e-15 -2.19146e-13 -4.01855e-14 -1.12708e-13 -8.59178e-14 -1.12914e-13 -1.94587e-13 -2.83702e-14 -2.6735e-13 -1.70411e-14 -3.0283e-13 -6.07301e-14 -1.82106e-13 -1.58821e-13 1.7916e-14 -2.44602e-13 1.09334e-14 -1.78313e-13 -2.76466e-13 -1.31876e-13 -6.17807e-14 1.1292e-13 -3.82996e-13 1.97058e-13 3.83389e-14 -5.63028e-14 1.83161e-13 -9.85355e-14 1.27934e-12 9.78047e-12 6.13469e-11 3.65261e-10 2.04792e-09 1.08569e-08 5.42732e-08 2.55118e-07 1.12406e-06 4.62565e-06 1.77044e-05 6.27172e-05 0.000204444 0.000609094 0.00164563 0.00399911 0.00867962 0.0167665 0.0289125 0.0449862 0.0642161 0.0856574 0.108536 0.132328 0.156716 0.181513 0.206595 0.231883 0.257331 0.282913 0.308615 0.33443 0.360361 0.386419 0.412627 0.438999 0.465044 0.490614 0.516038 0.541042 0.565857 0.590583 0.614937 0.639296 0.663211 0.687082 0.710681 0.733862 0.757056 0.779653 0.801673 0.823768 0.844241 0.864299 0.882923 0.897924 0.911474 0.920754 0.926027 0.930107 0.931404 0.93159 0.931723 0.931677 0.931512 0.931219 0.930845 0.93045 0.930081 0.929748 0.929445 0.929184 0.928962 0.928777 0.928631 0.928517 0.928423 0.928339 0.928254 0.92815 0.92799 0.927722 0.92727 0.926567 0.926539 0.929918 0.930725 0.927702 0.927115 0.92724 0.92746 0.927566 0.927653 0.927698 0.927647 0.927552 0.927545 0.927628 0.927627 0.92761 0.927574 0.92748 0.927275 0.926887 0.926121 0.924572 0.921462 0.915315 0.903459 0.881413 0.842626 0.779437 0.686143 0.563757 0.42446 0.287904 0.173229 0.0911872 0.0422024 0.0177071 0.00701367 0.00270172 0.00102778 0.000388646 0.000146441 5.50245e-05 2.06191e-05 7.70412e-06 2.86937e-06 1.0649e-06 3.93663e-07 1.44899e-07 5.30839e-08 1.93483e-08 7.01361e-09 2.52745e-09 9.04631e-10 3.21838e-10 1.13271e-10 3.94956e-11 1.36959e-11 4.65111e-12 8.39121e-13 4.42516e-13 5.14881e-13 -3.16334e-13 -3.3265e-13 -2.2784e-13 4.67713e-13 1.07559e-13 -2.64596e-13 7.21863e-13 7.18666e-14 4.22478e-13 2.95926e-13 2.62525e-14 0 0 9.21329e-15 5.33452e-15 -7.5633e-16 -9.76527e-15 -4.66713e-15 -1.38989e-14 -1.54253e-14 1.7419e-14 -1.7298e-14 -6.5834e-14 8.70053e-15 -1.99494e-15 -2.86859e-14 -9.68552e-14 -1.43626e-14 -2.12163e-13 1.48892e-14 -8.19415e-14 -7.18242e-14 -1.52315e-13 -4.48434e-14 -8.75506e-14 -2.35032e-13 3.38651e-14 -2.6242e-13 -3.68823e-14 -1.9108e-13 -1.52195e-13 1.77407e-15 -3.01262e-13 -8.20762e-14 -2.96956e-13 -1.81762e-13 -2.36435e-14 -1.49333e-13 -5.85758e-14 -1.97882e-13 1.81719e-13 -1.57451e-13 4.9612e-14 -6.53425e-14 -5.14789e-14 2.71107e-13 1.14532e-12 9.5604e-12 6.15e-11 3.65067e-10 2.04797e-09 1.08566e-08 5.42737e-08 2.55118e-07 1.12406e-06 4.62565e-06 1.77044e-05 6.27172e-05 0.000204444 0.000609094 0.00164563 0.00399911 0.00867962 0.0167665 0.0289125 0.0449862 0.0642161 0.0856574 0.108536 0.132328 0.156716 0.181513 0.206595 0.231883 0.257331 0.282913 0.308615 0.33443 0.360361 0.386419 0.412627 0.438999 0.465044 0.490614 0.516038 0.541042 0.565857 0.590583 0.614937 0.639296 0.663211 0.687082 0.710681 0.733862 0.757056 0.779653 0.801673 0.823768 0.844241 0.864299 0.882923 0.897924 0.911474 0.920754 0.926027 0.930107 0.931404 0.93159 0.931723 0.931677 0.931512 0.931219 0.930845 0.93045 0.930081 0.929748 0.929445 0.929184 0.928962 0.928777 0.928631 0.928517 0.928423 0.928339 0.928254 0.92815 0.92799 0.927722 0.92727 0.926567 0.926539 0.929918 0.930725 0.927702 0.927115 0.92724 0.92746 0.927566 0.927653 0.927698 0.927647 0.927552 0.927545 0.927628 0.927627 0.92761 0.927574 0.92748 0.927275 0.926887 0.926121 0.924572 0.921462 0.915315 0.903459 0.881413 0.842626 0.779437 0.686143 0.563757 0.42446 0.287904 0.173229 0.0911872 0.0422024 0.0177071 0.00701367 0.00270172 0.00102778 0.000388646 0.000146441 5.50245e-05 2.06191e-05 7.70412e-06 2.86937e-06 1.0649e-06 3.93663e-07 1.44899e-07 5.30841e-08 1.93483e-08 7.0134e-09 2.52716e-09 9.05082e-10 3.21489e-10 1.13587e-10 3.95714e-11 1.35245e-11 4.21245e-12 1.66999e-12 1.77383e-13 -3.01805e-13 1.48227e-13 3.12967e-13 -3.50926e-13 2.24859e-13 1.6335e-13 5.37924e-13 -2.90549e-13 4.68499e-13 3.15137e-13 2.39643e-13 -2.24178e-13 0 0 3.14487e-15 -1.15874e-14 -1.43246e-14 -2.88749e-14 -2.43981e-14 3.74165e-15 -4.56106e-14 -3.40222e-14 3.08931e-14 -4.79947e-14 -4.21654e-14 -4.59196e-14 -4.70673e-14 -3.1853e-14 -3.38345e-14 2.40333e-14 -1.58708e-13 -5.6703e-14 -3.73911e-14 2.61668e-14 -6.29858e-14 -1.56908e-13 -3.1647e-14 -2.12983e-13 -8.27204e-14 -1.88361e-13 5.53505e-14 -2.97509e-13 -9.00223e-14 -1.80714e-13 -2.98613e-13 -6.64499e-14 -2.60993e-13 -1.98584e-13 -1.20065e-13 -6.32584e-14 6.53206e-14 -1.85655e-13 6.54545e-14 -2.11642e-13 -1.94071e-13 3.3657e-14 1.51184e-13 1.40457e-12 9.53218e-12 6.16933e-11 3.65145e-10 2.04811e-09 1.08568e-08 5.42738e-08 2.55118e-07 1.12406e-06 4.62565e-06 1.77044e-05 6.27172e-05 0.000204444 0.000609094 0.00164563 0.00399911 0.00867962 0.0167665 0.0289125 0.0449862 0.0642161 0.0856574 0.108536 0.132328 0.156716 0.181513 0.206595 0.231883 0.257331 0.282913 0.308615 0.33443 0.360361 0.386419 0.412627 0.438999 0.465044 0.490614 0.516038 0.541042 0.565857 0.590583 0.614937 0.639296 0.663211 0.687082 0.710681 0.733862 0.757056 0.779653 0.801673 0.823768 0.844241 0.864299 0.882923 0.897924 0.911474 0.920754 0.926027 0.930107 0.931404 0.93159 0.931723 0.931677 0.931512 0.931219 0.930845 0.93045 0.930081 0.929748 0.929445 0.929184 0.928962 0.928777 0.928631 0.928517 0.928423 0.928339 0.928254 0.92815 0.92799 0.927722 0.92727 0.926567 0.926539 0.929918 0.930725 0.927702 0.927115 0.92724 0.92746 0.927566 0.927653 0.927698 0.927647 0.927552 0.927545 0.927628 0.927627 0.92761 0.927574 0.92748 0.927275 0.926887 0.926121 0.924572 0.921462 0.915315 0.903459 0.881413 0.842626 0.779437 0.686143 0.563757 0.42446 0.287904 0.173229 0.0911872 0.0422024 0.0177071 0.00701367 0.00270172 0.00102778 0.000388646 0.000146441 5.50245e-05 2.06191e-05 7.70412e-06 2.86937e-06 1.0649e-06 3.93663e-07 1.449e-07 5.30844e-08 1.9348e-08 7.01341e-09 2.52713e-09 9.04668e-10 3.21903e-10 1.1332e-10 3.96868e-11 1.35834e-11 4.52346e-12 1.21222e-12 5.35462e-13 -2.42352e-13 -5.16578e-13 3.34453e-13 -2.12728e-13 4.90464e-13 3.17506e-13 1.51089e-13 6.87078e-13 -5.10217e-13 1.87364e-14 2.3946e-13 -1.9753e-13 0 0 -1.92886e-14 -1.94769e-14 -2.8487e-14 -1.86853e-14 -2.69757e-14 2.52033e-14 -6.37054e-14 -7.68366e-14 -8.60759e-15 -1.65434e-14 -8.06708e-15 -6.26514e-15 -9.17303e-14 -8.39868e-14 3.38018e-14 -3.68399e-14 -9.94728e-14 -4.54896e-14 -3.08342e-14 -3.13529e-14 -3.32324e-14 -5.12477e-14 -2.03335e-13 -1.39921e-13 -6.81711e-14 -1.6058e-13 -3.06305e-13 -1.71759e-13 -6.14321e-14 7.10881e-14 -2.97359e-13 -1.54708e-13 -7.34733e-14 -1.66086e-13 -2.04625e-13 -1.8265e-13 -5.36881e-14 -1.82084e-13 -2.9867e-15 -6.51797e-14 -1.82089e-13 -1.34478e-14 7.05313e-14 1.63703e-12 9.98642e-12 6.17049e-11 3.65258e-10 2.04817e-09 1.0857e-08 5.42738e-08 2.55118e-07 1.12406e-06 4.62565e-06 1.77044e-05 6.27172e-05 0.000204444 0.000609094 0.00164563 0.00399911 0.00867962 0.0167665 0.0289125 0.0449862 0.0642161 0.0856574 0.108536 0.132328 0.156716 0.181513 0.206595 0.231883 0.257331 0.282913 0.308615 0.33443 0.360361 0.386419 0.412627 0.438999 0.465044 0.490614 0.516038 0.541042 0.565857 0.590583 0.614937 0.639296 0.663211 0.687082 0.710681 0.733862 0.757056 0.779653 0.801673 0.823768 0.844241 0.864299 0.882923 0.897924 0.911474 0.920754 0.926027 0.930107 0.931404 0.93159 0.931723 0.931677 0.931512 0.931219 0.930845 0.93045 0.930081 0.929748 0.929445 0.929184 0.928962 0.928777 0.928631 0.928517 0.928423 0.928339 0.928254 0.92815 0.92799 0.927722 0.92727 0.926567 0.926539 0.929918 0.930725 0.927702 0.927115 0.92724 0.92746 0.927566 0.927653 0.927698 0.927647 0.927552 0.927545 0.927628 0.927627 0.92761 0.927574 0.92748 0.927275 0.926887 0.926121 0.924572 0.921462 0.915315 0.903459 0.881413 0.842626 0.779437 0.686143 0.563757 0.42446 0.287904 0.173229 0.0911872 0.0422024 0.0177071 0.00701367 0.00270172 0.00102778 0.000388646 0.000146441 5.50245e-05 2.06191e-05 7.70412e-06 2.86937e-06 1.0649e-06 3.93663e-07 1.44899e-07 5.30841e-08 1.93484e-08 7.01329e-09 2.52734e-09 9.04754e-10 3.21185e-10 1.13395e-10 3.95881e-11 1.37065e-11 4.46265e-12 1.12355e-12 2.59955e-13 -1.9339e-14 -2.0141e-13 -4.10941e-13 -2.48444e-13 8.1679e-13 6.57323e-15 -9.31742e-13 1.01998e-12 -2.05843e-13 5.60337e-13 -5.2725e-13 -2.77046e-13 0 0 -1.58799e-14 -1.49838e-14 -3.21169e-14 -3.69521e-14 -2.14764e-14 -4.2503e-14 -2.66725e-14 -3.21095e-16 -3.27313e-14 -5.13178e-14 -9.76709e-15 1.00794e-14 -1.8751e-14 -9.13993e-14 -2.13804e-14 -2.0373e-13 9.34726e-14 -9.3642e-15 -9.15097e-14 -1.84972e-13 -4.07808e-14 3.85277e-14 -2.93742e-13 1.0488e-13 -2.1243e-13 -6.66551e-14 -4.90439e-13 -1.84625e-13 1.38788e-14 -6.68647e-14 -1.0934e-13 -3.07299e-13 6.0057e-14 -7.5362e-14 -1.90641e-13 -6.23695e-14 -1.79943e-13 1.23582e-13 -4.2885e-13 5.13133e-14 -1.77235e-13 -1.58429e-13 1.97799e-13 1.41844e-12 1.0059e-11 6.18464e-11 3.65323e-10 2.04801e-09 1.08569e-08 5.42741e-08 2.55118e-07 1.12406e-06 4.62565e-06 1.77044e-05 6.27172e-05 0.000204444 0.000609094 0.00164563 0.00399911 0.00867962 0.0167665 0.0289125 0.0449862 0.0642161 0.0856574 0.108536 0.132328 0.156716 0.181513 0.206595 0.231883 0.257331 0.282913 0.308615 0.33443 0.360361 0.386419 0.412627 0.438999 0.465044 0.490614 0.516038 0.541042 0.565857 0.590583 0.614937 0.639296 0.663211 0.687082 0.710681 0.733862 0.757056 0.779653 0.801673 0.823768 0.844241 0.864299 0.882923 0.897924 0.911474 0.920754 0.926027 0.930107 0.931404 0.93159 0.931723 0.931677 0.931512 0.931219 0.930845 0.93045 0.930081 0.929748 0.929445 0.929184 0.928962 0.928777 0.928631 0.928517 0.928423 0.928339 0.928254 0.92815 0.92799 0.927722 0.92727 0.926567 0.926539 0.929918 0.930725 0.927702 0.927115 0.92724 0.92746 0.927566 0.927653 0.927698 0.927647 0.927552 0.927545 0.927628 0.927627 0.92761 0.927574 0.92748 0.927275 0.926887 0.926121 0.924572 0.921462 0.915315 0.903459 0.881413 0.842626 0.779437 0.686143 0.563757 0.42446 0.287904 0.173229 0.0911872 0.0422024 0.0177071 0.00701367 0.00270172 0.00102778 0.000388646 0.000146441 5.50245e-05 2.06191e-05 7.70412e-06 2.86937e-06 1.0649e-06 3.93663e-07 1.44899e-07 5.30838e-08 1.93485e-08 7.01321e-09 2.52723e-09 9.04947e-10 3.21175e-10 1.13609e-10 3.94149e-11 1.33785e-11 4.29212e-12 1.03488e-12 2.01802e-13 -4.33088e-13 2.26577e-13 -1.88345e-13 -3.95382e-13 1.93475e-13 -2.92238e-13 -3.43435e-14 -2.39688e-13 6.90348e-13 2.90545e-13 -3.06488e-13 -1.87693e-13 0 0 -1.38538e-14 -2.84272e-14 -1.36257e-14 -6.30291e-14 -5.12106e-14 -7.53343e-14 -9.99148e-15 3.82199e-15 4.90824e-14 -1.68709e-14 -1.24547e-13 -4.9169e-14 3.29537e-14 2.82719e-14 -2.14947e-13 1.45325e-13 -1.80449e-13 8.25421e-14 -1.65193e-13 -3.61929e-14 -1.64295e-13 -1.53752e-13 1.97588e-13 -2.71446e-13 5.38414e-14 -4.17937e-13 6.38638e-14 -4.98466e-13 -1.91792e-13 -1.68938e-14 -3.01638e-13 1.66762e-13 -6.97147e-14 -4.449e-13 -4.53735e-14 1.69415e-13 3.86817e-13 -5.06413e-13 -2.08858e-13 -2.51183e-13 -3.04054e-13 6.34702e-14 -8.38463e-14 1.36068e-12 9.8693e-12 6.20165e-11 3.65548e-10 2.04791e-09 1.08571e-08 5.42739e-08 2.55118e-07 1.12406e-06 4.62565e-06 1.77044e-05 6.27172e-05 0.000204444 0.000609094 0.00164563 0.00399911 0.00867962 0.0167665 0.0289125 0.0449862 0.0642161 0.0856574 0.108536 0.132328 0.156716 0.181513 0.206595 0.231883 0.257331 0.282913 0.308615 0.33443 0.360361 0.386419 0.412627 0.438999 0.465044 0.490614 0.516038 0.541042 0.565857 0.590583 0.614937 0.639296 0.663211 0.687082 0.710681 0.733862 0.757056 0.779653 0.801673 0.823768 0.844241 0.864299 0.882923 0.897924 0.911474 0.920754 0.926027 0.930107 0.931404 0.93159 0.931723 0.931677 0.931512 0.931219 0.930845 0.93045 0.930081 0.929748 0.929445 0.929184 0.928962 0.928777 0.928631 0.928517 0.928423 0.928339 0.928254 0.92815 0.92799 0.927722 0.92727 0.926567 0.926539 0.929918 0.930725 0.927702 0.927115 0.92724 0.92746 0.927566 0.927653 0.927698 0.927647 0.927552 0.927545 0.927628 0.927627 0.92761 0.927574 0.92748 0.927275 0.926887 0.926121 0.924572 0.921462 0.915315 0.903459 0.881413 0.842626 0.779437 0.686143 0.563757 0.42446 0.287904 0.173229 0.0911872 0.0422024 0.0177071 0.00701367 0.00270172 0.00102778 0.000388646 0.000146441 5.50245e-05 2.06191e-05 7.70412e-06 2.86937e-06 1.0649e-06 3.93663e-07 1.449e-07 5.30838e-08 1.93479e-08 7.01348e-09 2.52718e-09 9.04189e-10 3.22647e-10 1.13165e-10 3.93799e-11 1.31578e-11 4.93206e-12 -2.53763e-13 1.04237e-12 -1.9371e-13 -7.89972e-13 1.55514e-13 -2.45321e-13 -2.47705e-13 -1.81751e-13 7.56531e-13 1.57776e-13 -9.31813e-14 -7.09906e-13 7.37083e-13 2.58255e-13 0
				</DataArray>
				<DataArray Name="VitesseY" type="Float32" format="ascii">