<?xml version="1.0"?>
<VTKFile type="PolyData">
	<PolyData>
		<Piece NumberOfPoints="1206" NumberOfPolys="1000">
			<Points>
				<DataArray type="Float32" NumberOfComponents="3" format="ascii">
 0 0 0 0.005 0 0 0.01 0 0 0.015 0 0 0.02 0 0 0.025 0 0 0.03 0 0 0.035 0 0 0.04 0 0 0.045 0 0 0.05 0 0 0.055 0 0 0.06 0 0 0.065 0 0 0.07 0 0 0.075 0 0 0.08 0 0 0.085 0 0 0.09 0 0 0.095 0 0 0.1 0 0 0.105 0 0 0.11 0 0 0.115 0 0 0.12 0 0 0.125 0 0 0.13 0 0 0.135 0 0 0.14 0 0 0.145 0 0 0.15 0 0 0.155 0 0 0.16 0 0 0.165 0 0 0.17 0 0 0.175 0 0 0.18 0 0 0.185 0 0 0.19 0 0 0.195 0 0 0.2 0 0 0.205 0 0 0.21 0 0 0.215 0 0 0.22 0 0 0.225 0 0 0.23 0 0 0.235 0 0 0.24 0 0 0.245 0 0 0.25 0 0 0.255 0 0 0.26 0 0 0.265 0 0 0.27 0 0 0.275 0 0 0.28 0 0 0.285 0 0 0.29 0 0 0.295 0 0 0.3 0 0 0.305 0 0 0.31 0 0 0.315 0 0 0.32 0 0 0.325 0 0 0.33 0 0 0.335 0 0 0.34 0 0 0.345 0 0 0.35 0 0 0.355 0 0 0.36 0 0 0.365 0 0 0.37 0 0 0.375 0 0 0.38 0 0 0.385 0 0 0.39 0 0 0.395 0 0 0.4 0 0 0.405 0 0 0.41 0 0 0.415 0 0 0.42 0 0 0.425 0 0 0.43 0 0 0.435 0 0 0.44 0 0 0.445 0 0 0.45 0 0 0.455 0 0 0.46 0 0 0.465 0 0 0.47 0 0 0.475 0 0 0.48 0 0 0.485 0 0 0.49 0 0 0.495 0 0 0.5 0 0 0.505 0 0 0.51 0 0 0.515 0 0 0.52 0 0 0.525 0 0 0.53 0 0 0.535 0 0 0.54 0 0 0.545 0 0 0.55 0 0 0.555 0 0 0.56 0 0 0.565 0 0 0.57 0 0 0.575 0 0 0.58 0 0 0.585 0 0 0.59 0 0 0.595 0 0 0.6 0 0 0.605 0 0 0.61 0 0 0.615 0 0 0.62 0 0 0.625 0 0 0.63 0 0 0.635 0 0 0.64 0 0 0.645 0 0 0.65 0 0 0.655 0 0 0.66 0 0 0.665 0 0 0.67 0 0 0.675 0 0 0.68 0 0 0.685 0 0 0.69 0 0 0.695 0 0 0.7 0 0 0.705 0 0 0.71 0 0 0.715 0 0 0.72 0 0 0.725 0 0 0.73 0 0 0.735 0 0 0.74 0 0 0.745 0 0 0.75 0 0 0.755 0 0 0.76 0 0 0.765 0 0 0.77 0 0 0.775 0 0 0.78 0 0 0.785 0 0 0.79 0 0 0.795 0 0 0.8 0 0 0.805 0 0 0.81 0 0 0.815 0 0 0.82 0 0 0.825 0 0 0.83 0 0 0.835 0 0 0.84 0 0 0.845 0 0 0.85 0 0 0.855 0 0 0.86 0 0 0.865 0 0 0.87 0 0 0.875 0 0 0.88 0 0 0.885 0 0 0.89 0 0 0.895 0 0 0.9 0 0 0.905 0 0 0.91 0 0 0.915 0 0 0.92 0 0 0.925 0 0 0.93 0 0 0.935 0 0 0.94 0 0 0.945 0 0 0.95 0 0 0.955 0 0 0.96 0 0 0.965 0 0 0.97 0 0 0.975 0 0 0.98 0 0 0.985 0 0 0.99 0 0 0.995 0 0 1 0 0 0 0.02 0 0.005 0.02 0 0.01 0.02 0 0.015 0.02 0 0.02 0.02 0 0.025 0.02 0 0.03 0.02 0 0.035 0.02 0 0.04 0.02 0 0.045 0.02 0 0.05 0.02 0 0.055 0.02 0 0.06 0.02 0 0.065 0.02 0 0.07 0.02 0 0.075 0.02 0 0.08 0.02 0 0.085 0.02 0 0.09 0.02 0 0.095 0.02 0 0.1 0.02 0 0.105 0.02 0 0.11 0.02 0 0.115 0.02 0 0.12 0.02 0 0.125 0.02 0 0.13 0.02 0 0.135 0.02 0 0.14 0.02 0 0.145 0.02 0 0.15 0.02 0 0.155 0.02 0 0.16 0.02 0 0.165 0.02 0 0.17 0.02 0 0.175 0.02 0 0.18 0.02 0 0.185 0.02 0 0.19 0.02 0 0.195 0.02 0 0.2 0.02 0 0.205 0.02 0 0.21 0.02 0 0.215 0.02 0 0.22 0.02 0 0.225 0.02 0 0.23 0.02 0 0.235 0.02 0 0.24 0.02 0 0.245 0.02 0 0.25 0.02 0 0.255 0.02 0 0.26 0.02 0 0.265 0.02 0 0.27 0.02 0 0.275 0.02 0 0.28 0.02 0 0.285 0.02 0 0.29 0.02 0 0.295 0.02 0 0.3 0.02 0 0.305 0.02 0 0.31 0.02 0 0.315 0.02 0 0.32 0.02 0 0.325 0.02 0 0.33 0.02 0 0.335 0.02 0 0.34 0.02 0 0.345 0.02 0 0.35 0.02 0 0.355 0.02 0 0.36 0.02 0 0.365 0.02 0 0.37 0.02 0 0.375 0.02 0 0.38 0.02 0 0.385 0.02 0 0.39 0.02 0 0.395 0.02 0 0.4 0.02 0 0.405 0.02 0 0.41 0.02 0 0.415 0.02 0 0.42 0.02 0 0.425 0.02 0 0.43 0.02 0 0.435 0.02 0 0.44 0.02 0 0.445 0.02 0 0.45 0.02 0 0.455 0.02 0 0.46 0.02 0 0.465 0.02 0 0.47 0.02 0 0.475 0.02 0 0.48 0.02 0 0.485 0.02 0 0.49 0.02 0 0.495 0.02 0 0.5 0.02 0 0.505 0.02 0 0.51 0.02 0 0.515 0.02 0 0.52 0.02 0 0.525 0.02 0 0.53 0.02 0 0.535 0.02 0 0.54 0.02 0 0.545 0.02 0 0.55 0.02 0 0.555 0.02 0 0.56 0.02 0 0.565 0.02 0 0.57 0.02 0 0.575 0.02 0 0.58 0.02 0 0.585 0.02 0 0.59 0.02 0 0.595 0.02 0 0.6 0.02 0 0.605 0.02 0 0.61 0.02 0 0.615 0.02 0 0.62 0.02 0 0.625 0.02 0 0.63 0.02 0 0.635 0.02 0 0.64 0.02 0 0.645 0.02 0 0.65 0.02 0 0.655 0.02 0 0.66 0.02 0 0.665 0.02 0 0.67 0.02 0 0.675 0.02 0 0.68 0.02 0 0.685 0.02 0 0.69 0.02 0 0.695 0.02 0 0.7 0.02 0 0.705 0.02 0 0.71 0.02 0 0.715 0.02 0 0.72 0.02 0 0.725 0.02 0 0.73 0.02 0 0.735 0.02 0 0.74 0.02 0 0.745 0.02 0 0.75 0.02 0 0.755 0.02 0 0.76 0.02 0 0.765 0.02 0 0.77 0.02 0 0.775 0.02 0 0.78 0.02 0 0.785 0.02 0 0.79 0.02 0 0.795 0.02 0 0.8 0.02 0 0.805 0.02 0 0.81 0.02 0 0.815 0.02 0 0.82 0.02 0 0.825 0.02 0 0.83 0.02 0 0.835 0.02 0 0.84 0.02 0 0.845 0.02 0 0.85 0.02 0 0.855 0.02 0 0.86 0.02 0 0.865 0.02 0 0.87 0.02 0 0.875 0.02 0 0.88 0.02 0 0.885 0.02 0 0.89 0.02 0 0.895 0.02 0 0.9 0.02 0 0.905 0.02 0 0.91 0.02 0 0.915 0.02 0 0.92 0.02 0 0.925 0.02 0 0.93 0.02 0 0.935 0.02 0 0.94 0.02 0 0.945 0.02 0 0.95 0.02 0 0.955 0.02 0 0.96 0.02 0 0.965 0.02 0 0.97 0.02 0 0.975 0.02 0 0.98 0.02 0 0.985 0.02 0 0.99 0.02 0 0.995 0.02 0 1 0.02 0 0 0.04 0 0.005 0.04 0 0.01 0.04 0 0.015 0.04 0 0.02 0.04 0 0.025 0.04 0 0.03 0.04 0 0.035 0.04 0 0.04 0.04 0 0.045 0.04 0 0.05 0.04 0 0.055 0.04 0 0.06 0.04 0 0.065 0.04 0 0.07 0.04 0 0.075 0.04 0 0.08 0.04 0 0.085 0.04 0 0.09 0.04 0 0.095 0.04 0 0.1 0.04 0 0.105 0.04 0 0.11 0.04 0 0.115 0.04 0 0.12 0.04 0 0.125 0.04 0 0.13 0.04 0 0.135 0.04 0 0.14 0.04 0 0.145 0.04 0 0.15 0.04 0 0.155 0.04 0 0.16 0.04 0 0.165 0.04 0 0.17 0.04 0 0.175 0.04 0 0.18 0.04 0 0.185 0.04 0 0.19 0.04 0 0.195 0.04 0 0.2 0.04 0 0.205 0.04 0 0.21 0.04 0 0.215 0.04 0 0.22 0.04 0 0.225 0.04 0 0.23 0.04 0 0.235 0.04 0 0.24 0.04 0 0.245 0.04 0 0.25 0.04 0 0.255 0.04 0 0.26 0.04 0 0.265 0.04 0 0.27 0.04 0 0.275 0.04 0 0.28 0.04 0 0.285 0.04 0 0.29 0.04 0 0.295 0.04 0 0.3 0.04 0 0.305 0.04 0 0.31 0.04 0 0.315 0.04 0 0.32 0.04 0 0.325 0.04 0 0.33 0.04 0 0.335 0.04 0 0.34 0.04 0 0.345 0.04 0 0.35 0.04 0 0.355 0.04 0 0.36 0.04 0 0.365 0.04 0 0.37 0.04 0 0.375 0.04 0 0.38 0.04 0 0.385 0.04 0 0.39 0.04 0 0.395 0.04 0 0.4 0.04 0 0.405 0.04 0 0.41 0.04 0 0.415 0.04 0 0.42 0.04 0 0.425 0.04 0 0.43 0.04 0 0.435 0.04 0 0.44 0.04 0 0.445 0.04 0 0.45 0.04 0 0.455 0.04 0 0.46 0.04 0 0.465 0.04 0 0.47 0.04 0 0.475 0.04 0 0.48 0.04 0 0.485 0.04 0 0.49 0.04 0 0.495 0.04 0 0.5 0.04 0 0.505 0.04 0 0.51 0.04 0 0.515 0.04 0 0.52 0.04 0 0.525 0.04 0 0.53 0.04 0 0.535 0.04 0 0.54 0.04 0 0.545 0.04 0 0.55 0.04 0 0.555 0.04 0 0.56 0.04 0 0.565 0.04 0 0.57 0.04 0 0.575 0.04 0 0.58 0.04 0 0.585 0.04 0 0.59 0.04 0 0.595 0.04 0 0.6 0.04 0 0.605 0.04 0 0.61 0.04 0 0.615 0.04 0 0.62 0.04 0 0.625 0.04 0 0.63 0.04 0 0.635 0.04 0 0.64 0.04 0 0.645 0.04 0 0.65 0.04 0 0.655 0.04 0 0.66 0.04 0 0.665 0.04 0 0.67 0.04 0 0.675 0.04 0 0.68 0.04 0 0.685 0.04 0 0.69 0.04 0 0.695 0.04 0 0.7 0.04 0 0.705 0.04 0 0.71 0.04 0 0.715 0.04 0 0.72 0.04 0 0.725 0.04 0 0.73 0.04 0 0.735 0.04 0 0.74 0.04 0 0.745 0.04 0 0.75 0.04 0 0.755 0.04 0 0.76 0.04 0 0.765 0.04 0 0.77 0.04 0 0.775 0.04 0 0.78 0.04 0 0.785 0.04 0 0.79 0.04 0 0.795 0.04 0 0.8 0.04 0 0.805 0.04 0 0.81 0.04 0 0.815 0.04 0 0.82 0.04 0 0.825 0.04 0 0.83 0.04 0 0.835 0.04 0 0.84 0.04 0 0.845 0.04 0 0.85 0.04 0 0.855 0.04 0 0.86 0.04 0 0.865 0.04 0 0.87 0.04 0 0.875 0.04 0 0.88 0.04 0 0.885 0.04 0 0.89 0.04 0 0.895 0.04 0 0.9 0.04 0 0.905 0.04 0 0.91 0.04 0 0.915 0.04 0 0.92 0.04 0 0.925 0.04 0 0.93 0.04 0 0.935 0.04 0 0.94 0.04 0 0.945 0.04 0 0.95 0.04 0 0.955 0.04 0 0.96 0.04 0 0.965 0.04 0 0.97 0.04 0 0.975 0.04 0 0.98 0.04 0 0.985 0.04 0 0.99 0.04 0 0.995 0.04 0 1 0.04 0 0 0.06 0 0.005 0.06 0 0.01 0.06 0 0.015 0.06 0 0.02 0.06 0 0.025 0.06 0 0.03 0.06 0 0.035 0.06 0 0.04 0.06 0 0.045 0.06 0 0.05 0.06 0 0.055 0.06 0 0.06 0.06 0 0.065 0.06 0 0.07 0.06 0 0.075 0.06 0 0.08 0.06 0 0.085 0.06 0 0.09 0.06 0 0.095 0.06 0 0.1 0.06 0 0.105 0.06 0 0.11 0.06 0 0.115 0.06 0 0.12 0.06 0 0.125 0.06 0 0.13 0.06 0 0.135 0.06 0 0.14 0.06 0 0.145 0.06 0 0.15 0.06 0 0.155 0.06 0 0.16 0.06 0 0.165 0.06 0 0.17 0.06 0 0.175 0.06 0 0.18 0.06 0 0.185 0.06 0 0.19 0.06 0 0.195 0.06 0 0.2 0.06 0 0.205 0.06 0 0.21 0.06 0 0.215 0.06 0 0.22 0.06 0 0.225 0.06 0 0.23 0.06 0 0.235 0.06 0 0.24 0.06 0 0.245 0.06 0 0.25 0.06 0 0.255 0.06 0 0.26 0.06 0 0.265 0.06 0 0.27 0.06 0 0.275 0.06 0 0.28 0.06 0 0.285 0.06 0 0.29 0.06 0 0.295 0.06 0 0.3 0.06 0 0.305 0.06 0 0.31 0.06 0 0.315 0.06 0 0.32 0.06 0 0.325 0.06 0 0.33 0.06 0 0.335 0.06 0 0.34 0.06 0 0.345 0.06 0 0.35 0.06 0 0.355 0.06 0 0.36 0.06 0 0.365 0.06 0 0.37 0.06 0 0.375 0.06 0 0.38 0.06 0 0.385 0.06 0 0.39 0.06 0 0.395 0.06 0 0.4 0.06 0 0.405 0.06 0 0.41 0.06 0 0.415 0.06 0 0.42 0.06 0 0.425 0.06 0 0.43 0.06 0 0.435 0.06 0 0.44 0.06 0 0.445 0.06 0 0.45 0.06 0 0.455 0.06 0 0.46 0.06 0 0.465 0.06 0 0.47 0.06 0 0.475 0.06 0 0.48 0.06 0 0.485 0.06 0 0.49 0.06 0 0.495 0.06 0 0.5 0.06 0 0.505 0.06 0 0.51 0.06 0 0.515 0.06 0 0.52 0.06 0 0.525 0.06 0 0.53 0.06 0 0.535 0.06 0 0.54 0.06 0 0.545 0.06 0 0.55 0.06 0 0.555 0.06 0 0.56 0.06 0 0.565 0.06 0 0.57 0.06 0 0.575 0.06 0 0.58 0.06 0 0.585 0.06 0 0.59 0.06 0 0.595 0.06 0 0.6 0.06 0 0.605 0.06 0 0.61 0.06 0 0.615 0.06 0 0.62 0.06 0 0.625 0.06 0 0.63 0.06 0 0.635 0.06 0 0.64 0.06 0 0.645 0.06 0 0.65 0.06 0 0.655 0.06 0 0.66 0.06 0 0.665 0.06 0 0.67 0.06 0 0.675 0.06 0 0.68 0.06 0 0.685 0.06 0 0.69 0.06 0 0.695 0.06 0 0.7 0.06 0 0.705 0.06 0 0.71 0.06 0 0.715 0.06 0 0.72 0.06 0 0.725 0.06 0 0.73 0.06 0 0.735 0.06 0 0.74 0.06 0 0.745 0.06 0 0.75 0.06 0 0.755 0.06 0 0.76 0.06 0 0.765 0.06 0 0.77 0.06 0 0.775 0.06 0 0.78 0.06 0 0.785 0.06 0 0.79 0.06 0 0.795 0.06 0 0.8 0.06 0 0.805 0.06 0 0.81 0.06 0 0.815 0.06 0 0.82 0.06 0 0.825 0.06 0 0.83 0.06 0 0.835 0.06 0 0.84 0.06 0 0.845 0.06 0 0.85 0.06 0 0.855 0.06 0 0.86 0.06 0 0.865 0.06 0 0.87 0.06 0 0.875 0.06 0 0.88 0.06 0 0.885 0.06 0 0.89 0.06 0 0.895 0.06 0 0.9 0.06 0 0.905 0.06 0 0.91 0.06 0 0.915 0.06 0 0.92 0.06 0 0.925 0.06 0 0.93 0.06 0 0.935 0.06 0 0.94 0.06 0 0.945 0.06 0 0.95 0.06 0 0.955 0.06 0 0.96 0.06 0 0.965 0.06 0 0.97 0.06 0 0.975 0.06 0 0.98 0.06 0 0.985 0.06 0 0.99 0.06 0 0.995 0.06 0 1 0.06 0 0 0.08 0 0.005 0.08 0 0.01 0.08 0 0.015 0.08 0 0.02 0.08 0 0.025 0.08 0 0.03 0.08 0 0.035 0.08 0 0.04 0.08 0 0.045 0.08 0 0.05 0.08 0 0.055 0.08 0 0.06 0.08 0 0.065 0.08 0 0.07 0.08 0 0.075 0.08 0 0.08 0.08 0 0.085 0.08 0 0.09 0.08 0 0.095 0.08 0 0.1 0.08 0 0.105 0.08 0 0.11 0.08 0 0.115 0.08 0 0.12 0.08 0 0.125 0.08 0 0.13 0.08 0 0.135 0.08 0 0.14 0.08 0 0.145 0.08 0 0.15 0.08 0 0.155 0.08 0 0.16 0.08 0 0.165 0.08 0
[...]
			<PointData Scalars="VitesseX">
				<DataArray Name="VitesseX" type="Float32" format="ascii">
 0 -1.60929e-14 -1.85936e-14 2.16224e-14 -1.06508e-13 -3.97074e-14 -1.48381e-14 -5.47661e-14 -1.03019e-13 1.27084e-14 -4.93627e-14 -1.65059e-13 1.63184e-13 -3.28675e-13 9.5727e-14 -8.26954e-14 -2.05315e-13 5.24889e-14 -1.95022e-13 2.64388e-14 -1.53106e-13 9.35712e-14 -1.49083e-13 1.79781e-13 1.74882e-13 -1.267e-14 7.27707e-16 -1.99391e-13 -5.77195e-14 1.22228e-13 -3.30836e-13 2.75767e-13 -4.51665e-13 -3.29628e-13 4.76706e-13 -3.97876e-13 1.17843e-13 -1.99259e-13 2.27939e-14 -6.09705e-14 -9.14652e-15 -2.55099e-13 -1.69682e-13 1.90776e-13 -4.26766e-14 -4.13079e-13 -6.79717e-13 -1.60519e-13 3.2766e-13 -8.74651e-14 -4.5031e-13 -2.35072e-14 1.49685e-13 -3.71279e-13 8.46191e-13 1.73421e-13 -4.41861e-13 2.70298e-13 -3.59194e-13 3.67346e-13 -4.96975e-13 -3.27745e-13 -6.30353e-14 -2.87212e-13 -4.05198e-14 4.60789e-14 2.51833e-13 1.06537e-13 -3.96374e-13 8.07389e-14 2.9485e-15 -6.56864e-13 3.57098e-13 5.05157e-12 6.81865e-11 7.60126e-10 7.82072e-09 7.25817e-08 6.03726e-07 4.46299e-06 2.9025e-05 0.000163987 0.00079219 0.00320788 0.0106455 0.0284053 0.0607896 0.10708 0.162897 0.224403 0.28944 0.356988 0.426847 0.497401 0.557949 0.620296 0.675634 0.728767 0.782165 0.823059 0.864102 0.896092 0.912818 0.926855 0.933919 0.934854 0.934416 0.933376 0.931953 0.930173 0.930463 0.934282 0.929088 0.927968 0.928437 0.927174 0.921334 0.909877 0.888624 0.848248 0.778972 0.675276 0.54102 0.392762 0.25347 0.142406 0.0685484 0.0285689 0.0107254 0.0037829 0.00128546 0.000425325 0.000137508 4.34712e-05 1.34363e-05 4.05891e-06 1.19795e-06 3.4535e-07 9.72288e-08 2.6729e-08 7.17573e-09 1.88095e-09 4.80448e-10 1.20988e-10 3.00133e-11 5.78076e-12 1.96759e-12 -1.01961e-12 1.61581e-12 -1.7727e-13 -8.37158e-13 1.55429e-12 -9.82373e-13 8.29846e-13 -6.75732e-13 3.5216e-13 -7.05766e-13 -3.75496e-13 -2.97415e-13 7.85987e-13 -3.81829e-14 -9.38402e-13 -5.59541e-13 1.04474e-12 -9.4404e-13 6.32889e-14 -2.12227e-13 3.95933e-13 1.09265e-12 -1.23971e-12 7.27326e-13 3.52301e-13 -7.37929e-13 1.13888e-12 -1.0715e-12 4.69016e-13 -1.46145e-13 -6.99196e-13 6.01682e-13 -1.35457e-12 -2.50792e-13 8.39311e-13 -8.17897e-13 2.4498e-13 -7.72006e-13 1.10325e-12 -1.44767e-14 -9.27689e-13 2.74689e-13 -1.61757e-12 1.21213e-12 5.6565e-14 -2.76112e-12 4.49176e-13 6.87704e-13 -1.59193e-13 -5.90611e-13 -2.77555e-12 1.26315e-12 7.86872e-13 0 0 -1.81626e-15 -1.34345e-14 -6.76538e-14 2.29257e-14 -7.05237e-14 -8.31653e-14 -1.01048e-13 -1.56638e-14 -6.01237e-14 -5.43467e-14 2.96156e-14 -2.24489e-13 1.79386e-13 -2.55322e-13 2.42641e-14 5.01845e-14 -2.61888e-13 1.56853e-14 -1.76485e-13 -3.75807e-14 -1.07302e-13 9.81217e-14 -9.69363e-14 4.93175e-15 1.73207e-13 -9.74336e-14 6.44429e-14 -1.37978e-13 -1.79175e-13 1.971e-13 -3.90242e-13 4.53483e-14 -6.49329e-14 -5.42504e-13 1.85624e-13 6.43248e-14 1.69615e-13 -1.80922e-13 -1.57189e-13 -2.43046e-13 -1.00656e-13 1.76409e-13 -2.13427e-13 -2.33874e-13 -2.00175e-13 1.56743e-13 -3.61548e-13 -5.10768e-13 -5.1966e-14 5.13044e-13 -1.90645e-14 2.36675e-13 2.23861e-13 -5.6776e-13 6.08015e-14 3.40444e-13 -5.89264e-13 2.12885e-13 -3.96598e-13 9.63499e-14 -1.27356e-13 -6.21366e-13 -1.99707e-15 3.04609e-14 9.57952e-14 -9.47439e-15 -4.26142e-14 2.75353e-13 -1.18704e-13 -2.88877e-13 3.89745e-13 7.49007e-14 5.80272e-12 6.69334e-11 7.60941e-10 7.8209e-09 7.25818e-08 6.03726e-07 4.46299e-06 2.9025e-05 0.000163987 0.00079219 0.00320788 0.0106455 0.0284053 0.0607896 0.10708 0.162897 0.224403 0.28944 0.356988 0.426847 0.497401 0.557949 0.620296 0.675634 0.728767 0.782165 0.823059 0.864102 0.896092 0.912818 0.926855 0.933919 0.934854 0.934416 0.933376 0.931953 0.930173 0.930463 0.934282 0.929088 0.927968 0.928437 0.927174 0.921334 0.909877 0.888624 0.848248 0.778972 0.675276 0.54102 0.392762 0.25347 0.142406 0.0685484 0.0285689 0.0107254 0.0037829 0.00128546 0.000425325 0.000137508 4.34712e-05 1.34363e-05 4.05891e-06 1.19795e-06 3.4535e-07 9.72274e-08 2.673e-08 7.17522e-09 1.8811e-09 4.82263e-10 1.1986e-10 2.89535e-11 7.63895e-12 9.46156e-13 1.08236e-12 -9.07974e-13 -1.33834e-14 1.05236e-12 -8.75607e-13 8.21433e-13 -8.99478e-13 4.36294e-13 -2.80333e-13 1.17169e-13 -5.18431e-13 -3.73121e-13 -3.21438e-13 -3.9409e-14 4.92609e-13 -2.03898e-13 -1.11858e-12 1.97561e-13 -2.43836e-13 8.71694e-14 1.36037e-13 -3.9429e-13 1.25365e-12 -2.80265e-13 -2.59737e-13 7.13931e-13 -6.254e-13 1.14674e-12 -7.46656e-13 -3.65721e-13 -2.74421e-13 -5.1707e-13 2.38068e-13 -5.20509e-13 -7.7492e-13 8.11303e-13 -7.58822e-13 7.61865e-13 -6.96625e-13 -1.06998e-13 4.62414e-13 -7.86839e-13 8.2758e-13 -1.21979e-12 -8.47674e-13 1.68538e-12 -8.7313e-13 -7.36628e-13 -9.07416e-13 -3.62867e-13 1.47799e-12 -1.81968e-12 -3.34371e-13 0 0 -1.36409e-14 -3.02305e-14 -1.07866e-14 -7.27235e-14 -3.15735e-14 -2.29267e-14 -1.0907e-13 -9.90929e-14 -8.1381e-14 -5.37856e-14 -7.37977e-14 1.36946e-13 -1.45962e-13 -2.88809e-14 -1.00963e-14 -4.1331e-14 -4.90629e-14 -6.91283e-14 -1.30824e-13 -1.09464e-13 -1.53093e-13 -1.21133e-13 9.15278e-15 6.10849e-14 3.87585e-14 1.55473e-14 -6.82344e-14 -1.46807e-13 -1.78893e-13 -2.7256e-14 -4.34716e-14 -3.85112e-14 -1.80093e-13 -1.34891e-13 -1.36621e-13 2.84473e-13 -1.81495e-13 -1.47493e-14 -3.75895e-13 -8.90934e-14 -2.1216e-14 -1.84472e-13 -1.17163e-13 -5.91503e-15 -1.26386e-14 -2.03775e-13 -2.87352e-13 4.93302e-14 1.73956e-13 1.38658e-13 5.85105e-13 -1.43351e-13 -3.29933e-13 7.88481e-14 -1.2691e-13 -2.4161e-13 1.13664e-13 -3.0649e-14 -3.02304e-13 -2.98108e-13 -2.47145e-13 3.51155e-14 -1.20516e-13 5.18809e-14 -8.71471e-14 7.60244e-14 2.20688e-14 1.69119e-13 -4.37403e-14 4.08074e-14 1.4974e-13 5.63342e-13 5.5611e-12 6.77329e-11 7.60652e-10 7.82046e-09 7.25821e-08 6.03727e-07 4.46299e-06 2.9025e-05 0.000163987 0.00079219 0.00320788 0.0106455 0.0284053 0.0607896 0.10708 0.162897 0.224403 0.28944 0.356988 0.426847 0.497401 0.557949 0.620296 0.675634 0.728767 0.782165 0.823059 0.864102 0.896092 0.912818 0.926855 0.933919 0.934854 0.934416 0.933376 0.931953 0.930173 0.930463 0.934282 0.929088 0.927968 0.928437 0.927174 0.921334 0.909877 0.888624 0.848248 0.778972 0.675276 0.54102 0.392762 0.25347 0.142406 0.0685484 0.0285689 0.0107254 0.0037829 0.00128546 0.000425325 0.000137508 4.34712e-05 1.34363e-05 4.05891e-06 1.19795e-06 3.4535e-07 9.72282e-08 2.67294e-08 7.17573e-09 1.88109e-09 4.81598e-10 1.20751e-10 2.94681e-11 6.71601e-12 1.79042e-12 -4.36226e-14 5.43954e-13 2.55003e-13 -2.24805e-13 3.64531e-13 -7.99732e-13 3.87914e-13 -3.26697e-13 -2.20794e-13 -2.25633e-13 -5.0162e-13 -6.21675e-15 -3.92469e-13 -3.62225e-13 -5.39885e-13 -9.53056e-14 -1.29069e-13 -2.43568e-14 -6.05618e-15 -8.89456e-13 1.5514e-13 3.20503e-13 2.50567e-13 3.3888e-13 1.36086e-13 -3.48218e-13 5.55173e-13 -3.24416e-13 2.1926e-13 -3.62602e-13 -7.2057e-13 -1.14634e-13 -5.199e-13 1.3046e-14 1.94627e-13 -7.46393e-13 8.67577e-13 -2.37452e-13 6.34433e-14 -2.65063e-13 -6.55832e-13 1.22097e-12 -6.42879e-13 -2.44048e-13 7.36699e-14 -6.84513e-13 7.16567e-13 -5.428e-13 -7.96533e-13 -4.02647e-13 -1.9373e-13 1.20395e-12 2.25305e-13 0 0 -1.67458e-14 -2.2613e-14 -2.76874e-14 -6.62629e-14 -5.84965e-14 -9.19872e-14 -3.46573e-14 -9.60965e-15 4.22317e-14 -3.96043e-14 -1.01782e-13 2.21537e-14 -9.66647e-14 9.45715e-14 -1.64315e-13 -1.49737e-13 -1.08573e-13 -1.69807e-13 -1.73785e-13 -1.13571e-13 2.31157e-14 4.76658e-14 -2.92221e-14 -1.10894e-14 -1.34324e-13 7.98743e-14 -1.75207e-13 -2.00678e-13 2.196e-14 -8.06497e-14 1.4021e-13 8.95247e-14 -1.03192e-13 1.63036e-14 -2.27674e-13 -6.13783e-14 -3.11424e-14 1.36642e-13 -1.62618e-13 -1.50951e-13 -1.75088e-13 -8.59297e-14 -6.95091e-14 -1.56665e-13 -1.80246e-13 -3.88576e-13 8.76426e-14 2.34993e-13 1.37898e-13 -3.88036e-13 -1.08365e-13 2.8158e-13 6.46944e-14 1.92726e-13 -3.54985e-13 -2.26301e-13 1.83597e-13 -3.38899e-13 2.1356e-13 -5.4455e-13 -6.10205e-14 8.66899e-14 -1.35786e-13 -1.26029e-13 2.2623e-13 -9.25197e-14 2.46052e-13 7.19985e-14 9.31678e-14 1.65483e-13 4.44764e-14 2.6674e-13 5.59199e-12 6.78587e-11 7.60652e-10 7.82083e-09 7.25821e-08 6.03726e-07 4.46299e-06 2.9025e-05 0.000163987 0.00079219 0.00320788 0.0106455 0.0284053 0.0607896 0.10708 0.162897 0.224403 0.28944 0.356988 0.426847 0.497401 0.557949 0.620296 0.675634 0.728767 0.782165 0.823059 0.864102 0.896092 0.912818 0.926855 0.933919 0.934854 0.934416 0.933376 0.931953 0.930173 0.930463 0.934282 0.929088 0.927968 0.928437 0.927174 0.921334 0.909877 0.888624 0.848248 0.778972 0.675276 0.54102 0.392762 0.25347 0.142406 0.0685484 0.0285689 0.0107254 0.0037829 0.00128546 0.000425325 0.000137508 4.34712e-05 1.34363e-05 4.05891e-06 1.19795e-06 3.4535e-07 9.72284e-08 2.67295e-08 7.17561e-09 1.88109e-09 4.81308e-10 1.20819e-10 2.98305e-11 6.713e-12 1.8833e-12 4.03344e-13 4.70154e-13 1.35116e-13 -7.4688e-13 1.08938e-13 -4.7682e-13 3.8471e-13 -2.6758e-13 -6.48091e-13 -5.34641e-13 -2.95472e-13 1.02215e-13 2.12295e-13 -2.20684e-13 -1.14848e-12 -6.82689e-13 5.13122e-13 -6.27339e-13 -3.6653e-14 -4.10338e-14 5.14411e-13 7.20324e-13 -1.12495e-12 -9.02537e-14 -3.56027e-13 -3.18263e-13 4.97757e-13 -7.06407e-13 2.26163e-13 2.30121e-13 -7.98883e-13 3.1297e-13 -3.74403e-13 -5.46026e-13 6.78533e-13 7.65975e-14 9.39088e-14 -8.23283e-13 5.10528e-13 8.29013e-13 -1.85508e-13 -3.16795e-13 -3.1199e-13 -7.45073e-14 -3.17813e-13 -7.45655e-13 -1.63175e-13 7.0736e-14 3.30704e-14 -8.93496e-14 -7.70338e-13 1.04326e-12 8.367e-13 0 0 -5.25746e-15 -1.32031e-14 -8.02804e-14 1.56091e-14 -8.47876e-14 -9.81588e-14 1.09434e-14 7.27202e-14 7.89776e-14 -4.76588e-14 1.27036e-14 -2.75508e-13 2.47559e-13 -1.99076e-13 -5.84766e-14 -9.73974e-14 -3.3644e-13 -1.16606e-13 -2.12122e-13 -1.39553e-13 8.41871e-15 1.42785e-13 -2.03719e-13 -1.45764e-13 -3.65897e-14 -2.20128e-13 3.43644e-15 -5.61956e-14 -3.55607e-15 2.39018e-13 -1.54575e-13 2.09362e-13 1.72805e-13 -4.18375e-13 8.57859e-14 -1.16564e-13 3.2342e-13 -1.7914e-13 2.00736e-14 -3.18922e-13 -1.72348e-13 2.18376e-13 -2.86612e-13 -4.09517e-13 -3.10355e-13 5.22492e-14 -9.80506e-14 -5.33202e-13 4.39161e-14 2.7084e-13 -3.85176e-13 5.2866e-13 5.91776e-13 -7.88833e-13 -3.07782e-13 6.90352e-14 -7.37441e-13 1.06508e-13 -1.10151e-13 1.37105e-13 6.10235e-14 -4.61173e-13 1.7024e-13 6.86758e-14 3.3865e-13 -1.00662e-13 1.24074e-13 2.85143e-13 -5.17996e-14 -1.04769e-13 1.80237e-13 1.80772e-13 6.21555e-12 6.70512e-11 7.61216e-10 7.82098e-09 7.25822e-08 6.03726e-07 4.46299e-06 2.9025e-05 0.000163987 0.00079219 0.00320788 0.0106455 0.0284053 0.0607896 0.10708 0.162897 0.224403 0.28944 0.356988 0.426847 0.497401 0.557949 0.620296 0.675634 0.728767 0.782165 0.823059 0.864102 0.896092 0.912818 0.926855 0.933919 0.934854 0.934416 0.933376 0.931953 0.930173 0.930463 0.934282 0.929088 0.927968 0.928437 0.927174 0.921334 0.909877 0.888624 0.848248 0.778972 0.675276 0.54102 0.392762 0.25347 0.142406 0.0685484 0.0285689 0.0107254 0.0037829 0.00128546 0.000425325 0.000137508 4.34712e-05 1.34363e-05 4.05891e-06 1.19795e-06 3.45351e-07 9.72278e-08 2.67301e-08 7.17526e-09 1.88149e-09 4.82104e-10 1.20199e-10 2.93359e-11 8.16232e-12 8.53539e-13 1.47314e-12 -1.49144e-12 -2.4942e-13 3.20724e-13 -1.30185e-12 9.17784e-13 -8.98257e-13 4.63748e-13 -7.98993e-13 -1.67002e-13 -6.99118e-14 -2.29739e-13 -7.59346e-14 2.79636e-14 5.29383e-13 -6.13069e-13 -1.18342e-12 -1.36615e-13 -8.6034e-14 9.03218e-13 2.07819e-13 -4.73553e-13 2.24104e-13 -8.47595e-13 -8.65876e-13 4.94343e-13 -4.34318e-13 1.09539e-12 -1.08605e-12 -2.83252e-13 -2.55585e-13 -6.29185e-13 2.64877e-13 -8.07011e-13 -2.34871e-13 1.67903e-12 -6.40847e-13 3.02177e-13 -6.54254e-13 7.38315e-13 6.43913e-13 -1.50003e-12 1.14812e-12 -1.02443e-12 -9.83511e-13 1.95321e-12 -1.59313e-12 -4.0245e-13 -1.79512e-13 1.45752e-13 1.3727e-12 -2.04818e-12 -2.55652e-15 0 0 -1.67656e-14 -3.33657e-14 3.0171e-14 -1.34063e-13 -1.43892e-14 9.32958e-14 2.03917e-14 -1.05218e-13 4.36857e-14 -6.43495e-14 -1.42914e-13 2.90731e-13 -2.90923e-13 -3.86846e-14 6.02614e-14 -2.83668e-13 2.24048e-14 -2.58249e-13 4.10874e-14 -3.48836e-13 -2.7406e-14 -3.97355e-13 4.29661e-14 1.78393e-14 -8.60997e-14 -3.73316e-13 -1.07457e-13 2.13587e-13 7.17609e-14 -1.40214e-13 3.79738e-13 -3.7971e-13 -7.953e-15 4.22575e-13 -4.15446e-13 4.47767e-13 -1.92353e-13 -2.76424e-13 -1.33001e-13 -3.71832e-14 -9.0739e-14 -2.82833e-13 -5.09023e-14 -9.24639e-14 -2.98225e-13 -5.19103e-13 -3.83514e-13 -8.85346e-14 1.76415e-13 1.18669e-13 6.31211e-13 -1.16205e-13 -4.24706e-13 1.76289e-13 -1.07597e-13 -1.0153e-12 -1.65923e-13 4.4554e-14 -9.14881e-14 7.74199e-14 -3.23235e-13 1.54201e-13 8.78012e-14 3.9173e-13 -9.49656e-14 4.06546e-13 -8.0524e-15 -1.82552e-13 -5.92688e-14 1.21815e-13 -8.65353e-13 1.16204e-12 5.81543e-12 6.81704e-11 7.60677e-10 7.82014e-09 7.25824e-08 6.03727e-07 4.46299e-06 2.9025e-05 0.000163987 0.00079219 0.00320788 0.0106455 0.0284053 0.0607896 0.10708 0.162897 0.224403 0.28944 0.356988 0.426847 0.497401 0.557949 0.620296 0.675634 0.728767 0.782165 0.823059 0.864102 0.896092 0.912818 0.926855 0.933919 0.934854 0.934416 0.933376 0.931953 0.930173 0.930463 0.934282 0.929088 0.927968 0.928437 0.927174 0.921334 0.909877 0.888624 0.848248 0.778972 0.675276 0.54102 0.392762 0.25347 0.142406 0.0685484 0.0285689 0.0107254 0.0037829 0.00128546 0.000425325 0.000137508 4.34712e-05 1.34363e-05 4.05891e-06 1.19795e-06 3.4535e-07 9.72292e-08 2.6729e-08 7.17605e-09 1.88175e-09 4.8071e-10 1.21529e-10 3.00533e-11 6.83352e-12 1.59658e-12 -1.13199e-12 5.96484e-13 -4.09569e-13 -1.25628e-12 1.213e-12 -1.4355e-12 8.38695e-13 -7.39061e-13 1.69436e-13 -6.56091e-13 1.09245e-13 -2.27516e-13 6.74654e-14 -1.86519e-13 3.52345e-13 -2.03117e-13 -3.69311e-13 -4.06429e-13 4.40087e-13 -2.76975e-13 -1.79046e-13 1.34482e-13 -5.47757e-13 4.50932e-13 1.2425e-13 -1.23702e-12 1.63588e-12 -4.10209e-13 -2.23582e-13 -1.16665e-12 -5.04895e-13 -4.77755e-13 -1.59194e-12 2.94348e-13 9.51595e-13 -7.28431e-13 2.02827e-12 -5.1972e-13 2.93817e-13 -5.12004e-13 -1.50534e-12 1.92383e-12 -1.63827e-12 1.26376e-12 5.67858e-13 -2.10318e-12 7.68667e-13 1.28988e-13 -3.62591e-13 -1.99969e-13 -1.83293e-12 1.12755e-12 2.27712e-13 0
				</DataArray>
				<DataArray Name="VitesseY" type="Float32" format="ascii">