<?xml version="1.0"?>
<VTKFile type="PolyData">
	<PolyData>
		<Piece NumberOfPoints="1206" NumberOfPolys="1000">
			<Points>
				<DataArray type="Float32" NumberOfComponents="3" format="ascii">
 0 0 0 0.005 0 0 0.01 0 0 0.015 0 0 0.02 0 0 0.025 0 0 0.03 0 0 0.035 0 0 0.04 0 0 0.045 0 0 0.05 0 0 0.055 0 0 0.06 0 0 0.065 0 0 0.07 0 0 0.075 0 0 0.08 0 0 0.085 0 0 0.09 0 0 0.095 0 0 0.1 0 0 0.105 0 0 0.11 0 0 0.115 0 0 0.12 0 0 0.125 0 0 0.13 0 0 0.135 0 0 0.14 0 0 0.145 0 0 0.15 0 0 0.155 0 0 0.16 0 0 0.165 0 0 0.17 0 0 0.175 0 0 0.18 0 0 0.185 0 0 0.19 0 0 0.195 0 0 0.2 0 0 0.205 0 0 0.21 0 0 0.215 0 0 0.22 0 0 0.225 0 0 0.23 0 0 0.235 0 0 0.24 0 0 0.245 0 0 0.25 0 0 0.255 0 0 0.26 0 0 0.265 0 0 0.27 0 0 0.275 0 0 0.28 0 0 0.285 0 0 0.29 0 0 0.295 0 0 0.3 0 0 0.305 0 0 0.31 0 0 0.315 0 0 0.32 0 0 0.325 0 0 0.33 0 0 0.335 0 0 0.34 0 0 0.345 0 0 0.35 0 0 0.355 0 0 0.36 0 0 0.365 0 0 0.37 0 0 0.375 0 0 0.38 0 0 0.385 0 0 0.39 0 0 0.395 0 0 0.4 0 0 0.405 0 0 0.41 0 0 0.415 0 0 0.42 0 0 0.425 0 0 0.43 0 0 0.435 0 0 0.44 0 0 0.445 0 0 0.45 0 0 0.455 0 0 0.46 0 0 0.465 0 0 0.47 0 0 0.475 0 0 0.48 0 0 0.485 0 0 0.49 0 0 0.495 0 0 0.5 0 0 0.505 0 0 0.51 0 0 0.515 0 0 0.52 0 0 0.525 0 0 0.53 0 0 0.535 0 0 0.54 0 0 0.545 0 0 0.55 0 0 0.555 0 0 0.56 0 0 0.565 0 0 0.57 0 0 0.575 0 0 0.58 0 0 0.585 0 0 0.59 0 0 0.595 0 0 0.6 0 0 0.605 0 0 0.61 0 0 0.615 0 0 0.62 0 0 0.625 0 0 0.63 0 0 0.635 0 0 0.64 0 0 0.645 0 0 0.65 0 0 0.655 0 0 0.66 0 0 0.665 0 0 0.67 0 0 0.675 0 0 0.68 0 0 0.685 0 0 0.69 0 0 0.695 0 0 0.7 0 0 0.705 0 0 0.71 0 0 0.715 0 0 0.72 0 0 0.725 0 0 0.73 0 0 0.735 0 0 0.74 0 0 0.745 0 0 0.75 0 0 0.755 0 0 0.76 0 0 0.765 0 0 0.77 0 0 0.775 0 0 0.78 0 0 0.785 0 0 0.79 0 0 0.795 0 0 0.8 0 0 0.805 0 0 0.81 0 0 0.815 0 0 0.82 0 0 0.825 0 0 0.83 0 0 0.835 0 0 0.84 0 0 0.845 0 0 0.85 0 0 0.855 0 0 0.86 0 0 0.865 0 0 0.87 0 0 0.875 0 0 0.88 0 0 0.885 0 0 0.89 0 0 0.895 0 0 0.9 0 0 0.905 0 0 0.91 0 0 0.915 0 0 0.92 0 0 0.925 0 0 0.93 0 0 0.935 0 0 0.94 0 0 0.945 0 0 0.95 0 0 0.955 0 0 0.96 0 0 0.965 0 0 0.97 0 0 0.975 0 0 0.98 0 0 0.985 0 0 0.99 0 0 0.995 0 0 1 0 0 0 0.02 0 0.005 0.02 0 0.01 0.02 0 0.015 0.02 0 0.02 0.02 0 0.025 0.02 0 0.03 0.02 0 0.035 0.02 0 0.04 0.02 0 0.045 0.02 0 0.05 0.02 0 0.055 0.02 0 0.06 0.02 0 0.065 0.02 0 0.07 0.02 0 0.075 0.02 0 0.08 0.02 0 0.085 0.02 0 0.09 0.02 0 0.095 0.02 0 0.1 0.02 0 0.105 0.02 0 0.11 0.02 0 0.115 0.02 0 0.12 0.02 0 0.125 0.02 0 0.13 0.02 0 0.135 0.02 0 0.14 0.02 0 0.145 0.02 0 0.15 0.02 0 0.155 0.02 0 0.16 0.02 0 0.165 0.02 0 0.17 0.02 0 0.175 0.02 0 0.18 0.02 0 0.185 0.02 0 0.19 0.02 0 0.195 0.02 0 0.2 0.02 0 0.205 0.02 0 0.21 0.02 0 0.215 0.02 0 0.22 0.02 0 0.225 0.02 0 0.23 0.02 0 0.235 0.02 0 0.24 0.02 0 0.245 0.02 0 0.25 0.02 0 0.255 0.02 0 0.26 0.02 0 0.265 0.02 0 0.27 0.02 0 0.275 0.02 0 0.28 0.02 0 0.285 0.02 0 0.29 0.02 0 0.295 0.02 0 0.3 0.02 0 0.305 0.02 0 0.31 0.02 0 0.315 0.02 0 0.32 0.02 0 0.325 0.02 0 0.33 0.02 0 0.335 0.02 0 0.34 0.02 0 0.345 0.02 0 0.35 0.02 0 0.355 0.02 0 0.36 0.02 0 0.365 0.02 0 0.37 0.02 0 0.375 0.02 0 0.38 0.02 0 0.385 0.02 0 0.39 0.02 0 0.395 0.02 0 0.4 0.02 0 0.405 0.02 0 0.41 0.02 0 0.415 0.02 0 0.42 0.02 0 0.425 0.02 0 0.43 0.02 0 0.435 0.02 0 0.44 0.02 0 0.445 0.02 0 0.45 0.02 0 0.455 0.02 0 0.46 0.02 0 0.465 0.02 0 0.47 0.02 0 0.475 0.02 0 0.48 0.02 0 0.485 0.02 0 0.49 0.02 0 0.495 0.02 0 0.5 0.02 0 0.505 0.02 0 0.51 0.02 0 0.515 0.02 0 0.52 0.02 0 0.525 0.02 0 0.53 0.02 0 0.535 0.02 0 0.54 0.02 0 0.545 0.02 0 0.55 0.02 0 0.555 0.02 0 0.56 0.02 0 0.565 0.02 0 0.57 0.02 0 0.575 0.02 0 0.58 0.02 0 0.585 0.02 0 0.59 0.02 0 0.595 0.02 0 0.6 0.02 0 0.605 0.02 0 0.61 0.02 0 0.615 0.02 0 0.62 0.02 0 0.625 0.02 0 0.63 0.02 0 0.635 0.02 0 0.64 0.02 0 0.645 0.02 0 0.65 0.02 0 0.655 0.02 0 0.66 0.02 0 0.665 0.02 0 0.67 0.02 0 0.675 0.02 0 0.68 0.02 0 0.685 0.02 0 0.69 0.02 0 0.695 0.02 0 0.7 0.02 0 0.705 0.02 0 0.71 0.02 0 0.715 0.02 0 0.72 0.02 0 0.725 0.02 0 0.73 0.02 0 0.735 0.02 0 0.74 0.02 0 0.745 0.02 0 0.75 0.02 0 0.755 0.02 0 0.76 0.02 0 0.765 0.02 0 0.77 0.02 0 0.775 0.02 0 0.78 0.02 0 0.785 0.02 0 0.79 0.02 0 0.795 0.02 0 0.8 0.02 0 0.805 0.02 0 0.81 0.02 0 0.815 0.02 0 0.82 0.02 0 0.825 0.02 0 0.83 0.02 0 0.835 0.02 0 0.84 0.02 0 0.845 0.02 0 0.85 0.02 0 0.855 0.02 0 0.86 0.02 0 0.865 0.02 0 0.87 0.02 0 0.875 0.02 0 0.88 0.02 0 0.885 0.02 0 0.89 0.02 0 0.895 0.02 0 0.9 0.02 0 0.905 0.02 0 0.91 0.02 0 0.915 0.02 0 0.92 0.02 0 0.925 0.02 0 0.93 0.02 0 0.935 0.02 0 0.94 0.02 0 0.945 0.02 0 0.95 0.02 0 0.955 0.02 0 0.96 0.02 0 0.965 0.02 0 0.97 0.02 0 0.975 0.02 0 0.98 0.02 0 0.985 0.02 0 0.99 0.02 0 0.995 0.02 0 1 0.02 0 0 0.04 0 0.005 0.04 0 0.01 0.04 0 0.015 0.04 0 0.02 0.04 0 0.025 0.04 0 0.03 0.04 0 0.035 0.04 0 0.04 0.04 0 0.045 0.04 0 0.05 0.04 0 0.055 0.04 0 0.06 0.04 0 0.065 0.04 0 0.07 0.04 0 0.075 0.04 0 0.08 0.04 0 0.085 0.04 0 0.09 0.04 0 0.095 0.04 0 0.1 0.04 0 0.105 0.04 0 0.11 0.04 0 0.115 0.04 0 0.12 0.04 0 0.125 0.04 0 0.13 0.04 0 0.135 0.04 0 0.14 0.04 0 0.145 0.04 0 0.15 0.04 0 0.155 0.04 0 0.16 0.04 0 0.165 0.04 0 0.17 0.04 0 0.175 0.04 0 0.18 0.04 0 0.185 0.04 0 0.19 0.04 0 0.195 0.04 0 0.2 0.04 0 0.205 0.04 0 0.21 0.04 0 0.215 0.04 0 0.22 0.04 0 0.225 0.04 0 0.23 0.04 0 0.235 0.04 0 0.24 0.04 0 0.245 0.04 0 0.25 0.04 0 0.255 0.04 0 0.26 0.04 0 0.265 0.04 0 0.27 0.04 0 0.275 0.04 0 0.28 0.04 0 0.285 0.04 0 0.29 0.04 0 0.295 0.04 0 0.3 0.04 0 0.305 0.04 0 0.31 0.04 0 0.315 0.04 0 0.32 0.04 0 0.325 0.04 0 0.33 0.04 0 0.335 0.04 0 0.34 0.04 0 0.345 0.04 0 0.35 0.04 0 0.355 0.04 0 0.36 0.04 0 0.365 0.04 0 0.37 0.04 0 0.375 0.04 0 0.38 0.04 0 0.385 0.04 0 0.39 0.04 0 0.395 0.04 0 0.4 0.04 0 0.405 0.04 0 0.41 0.04 0 0.415 0.04 0 0.42 0.04 0 0.425 0.04 0 0.43 0.04 0 0.435 0.04 0 0.44 0.04 0 0.445 0.04 0 0.45 0.04 0 0.455 0.04 0 0.46 0.04 0 0.465 0.04 0 0.47 0.04 0 0.475 0.04 0 0.48 0.04 0 0.485 0.04 0 0.49 0.04 0 0.495 0.04 0 0.5 0.04 0 0.505 0.04 0 0.51 0.04 0 0.515 0.04 0 0.52 0.04 0 0.525 0.04 0 0.53 0.04 0 0.535 0.04 0 0.54 0.04 0 0.545 0.04 0 0.55 0.04 0 0.555 0.04 0 0.56 0.04 0 0.565 0.04 0 0.57 0.04 0 0.575 0.04 0 0.58 0.04 0 0.585 0.04 0 0.59 0.04 0 0.595 0.04 0 0.6 0.04 0 0.605 0.04 0 0.61 0.04 0 0.615 0.04 0 0.62 0.04 0 0.625 0.04 0 0.63 0.04 0 0.635 0.04 0 0.64 0.04 0 0.645 0.04 0 0.65 0.04 0 0.655 0.04 0 0.66 0.04 0 0.665 0.04 0 0.67 0.04 0 0.675 0.04 0 0.68 0.04 0 0.685 0.04 0 0.69 0.04 0 0.695 0.04 0 0.7 0.04 0 0.705 0.04 0 0.71 0.04 0 0.715 0.04 0 0.72 0.04 0 0.725 0.04 0 0.73 0.04 0 0.735 0.04 0 0.74 0.04 0 0.745 0.04 0 0.75 0.04 0 0.755 0.04 0 0.76 0.04 0 0.765 0.04 0 0.77 0.04 0 0.775 0.04 0 0.78 0.04 0 0.785 0.04 0 0.79 0.04 0 0.795 0.04 0 0.8 0.04 0 0.805 0.04 0 0.81 0.04 0 0.815 0.04 0 0.82 0.04 0 0.825 0.04 0 0.83 0.04 0 0.835 0.04 0 0.84 0.04 0 0.845 0.04 0 0.85 0.04 0 0.855 0.04 0 0.86 0.04 0 0.865 0.04 0 0.87 0.04 0 0.875 0.04 0 0.88 0.04 0 0.885 0.04 0 0.89 0.04 0 0.895 0.04 0 0.9 0.04 0 0.905 0.04 0 0.91 0.04 0 0.915 0.04 0 0.92 0.04 0 0.925 0.04 0 0.93 0.04 0 0.935 0.04 0 0.94 0.04 0 0.945 0.04 0 0.95 0.04 0 0.955 0.04 0 0.96 0.04 0 0.965 0.04 0 0.97 0.04 0 0.975 0.04 0 0.98 0.04 0 0.985 0.04 0 0.99 0.04 0 0.995 0.04 0 1 0.04 0 0 0.06 0 0.005 0.06 0 0.01 0.06 0 0.015 0.06 0 0.02 0.06 0 0.025 0.06 0 0.03 0.06 0 0.035 0.06 0 0.04 0.06 0 0.045 0.06 0 0.05 0.06 0 0.055 0.06 0 0.06 0.06 0 0.065 0.06 0 0.07 0.06 0 0.075 0.06 0 0.08 0.06 0 0.085 0.06 0 0.09 0.06 0 0.095 0.06 0 0.1 0.06 0 0.105 0.06 0 0.11 0.06 0 0.115 0.06 0 0.12 0.06 0 0.125 0.06 0 0.13 0.06 0 0.135 0.06 0 0.14 0.06 0 0.145 0.06 0 0.15 0.06 0 0.155 0.06 0 0.16 0.06 0 0.165 0.06 0 0.17 0.06 0 0.175 0.06 0 0.18 0.06 0 0.185 0.06 0 0.19 0.06 0 0.195 0.06 0 0.2 0.06 0 0.205 0.06 0 0.21 0.06 0 0.215 0.06 0 0.22 0.06 0 0.225 0.06 0 0.23 0.06 0 0.235 0.06 0 0.24 0.06 0 0.245 0.06 0 0.25 0.06 0 0.255 0.06 0 0.26 0.06 0 0.265 0.06 0 0.27 0.06 0 0.275 0.06 0 0.28 0.06 0 0.285 0.06 0 0.29 0.06 0 0.295 0.06 0 0.3 0.06 0 0.305 0.06 0 0.31 0.06 0 0.315 0.06 0 0.32 0.06 0 0.325 0.06 0 0.33 0.06 0 0.335 0.06 0 0.34 0.06 0 0.345 0.06 0 0.35 0.06 0 0.355 0.06 0 0.36 0.06 0 0.365 0.06 0 0.37 0.06 0 0.375 0.06 0 0.38 0.06 0 0.385 0.06 0 0.39 0.06 0 0.395 0.06 0 0.4 0.06 0 0.405 0.06 0 0.41 0.06 0 0.415 0.06 0 0.42 0.06 0 0.425 0.06 0 0.43 0.06 0 0.435 0.06 0 0.44 0.06 0 0.445 0.06 0 0.45 0.06 0 0.455 0.06 0 0.46 0.06 0 0.465 0.06 0 0.47 0.06 0 0.475 0.06 0 0.48 0.06 0 0.485 0.06 0 0.49 0.06 0 0.495 0.06 0 0.5 0.06 0 0.505 0.06 0 0.51 0.06 0 0.515 0.06 0 0.52 0.06 0 0.525 0.06 0 0.53 0.06 0 0.535 0.06 0 0.54 0.06 0 0.545 0.06 0 0.55 0.06 0 0.555 0.06 0 0.56 0.06 0 0.565 0.06 0 0.57 0.06 0 0.575 0.06 0 0.58 0.06 0 0.585 0.06 0 0.59 0.06 0 0.595 0.06 0 0.6 0.06 0 0.605 0.06 0 0.61 0.06 0 0.615 0.06 0 0.62 0.06 0 0.625 0.06 0 0.63 0.06 0 0.635 0.06 0 0.64 0.06 0 0.645 0.06 0 0.65 0.06 0 0.655 0.06 0 0.66 0.06 0 0.665 0.06 0 0.67 0.06 0 0.675 0.06 0 0.68 0.06 0 0.685 0.06 0 0.69 0.06 0 0.695 0.06 0 0.7 0.06 0 0.705 0.06 0 0.71 0.06 0 0.715 0.06 0 0.72 0.06 0 0.725 0.06 0 0.73 0.06 0 0.735 0.06 0 0.74 0.06 0 0.745 0.06 0 0.75 0.06 0 0.755 0.06 0 0.76 0.06 0 0.765 0.06 0 0.77 0.06 0 0.775 0.06 0 0.78 0.06 0 0.785 0.06 0 0.79 0.06 0 0.795 0.06 0 0.8 0.06 0 0.805 0.06 0 0.81 0.06 0 0.815 0.06 0 0.82 0.06 0 0.825 0.06 0 0.83 0.06 0 0.835 0.06 0 0.84 0.06 0 0.845 0.06 0 0.85 0.06 0 0.855 0.06 0 0.86 0.06 0 0.865 0.06 0 0.87 0.06 0 0.875 0.06 0 0.88 0.06 0 0.885 0.06 0 0.89 0.06 0 0.895 0.06 0 0.9 0.06 0 0.905 0.06 0 0.91 0.06 0 0.915 0.06 0 0.92 0.06 0 0.925 0.06 0 0.93 0.06 0 0.935 0.06 0 0.94 0.06 0 0.945 0.06 0 0.95 0.06 0 0.955 0.06 0 0.96 0.06 0 0.965 0.06 0 0.97 0.06 0 0.975 0.06 0 0.98 0.06 0 0.985 0.06 0 0.99 0.06 0 0.995 0.06 0 1 0.06 0 0 0.08 0 0.005 0.08 0 0.01 0.08 0 0.015 0.08 0 0.02 0.08 0 0.025 0.08 0 0.03 0.08 0 0.035 0.08 0 0.04 0.08 0 0.045 0.08 0 0.05 0.08 0 0.055 0.08 0 0.06 0.08 0 0.065 0.08 0 0.07 0.08 0 0.075 0.08 0 0.08 0.08 0 0.085 0.08 0 0.09 0.08 0 0.095 0.08 0 0.1 0.08 0 0.105 0.08 0 0.11 0.08 0 0.115 0.08 0 0.12 0.08 0 0.125 0.08 0 0.13 0.08 0 0.135 0.08 0 0.14 0.08 0 0.145 0.08 0 0.15 0.08 0 0.155 0.08 0 0.16 0.08 0 0.165 0.08 0
[...]
			<PointData Scalars="VitesseX">
				<DataArray Name="VitesseX" type="Float32" format="ascii">
 0 -1.37119e-14 -3.4492e-15 -2.94163e-14 -7.76423e-14 8.58197e-15 -9.12274e-15 -9.38001e-14 -4.04675e-14 -1.46823e-13 -4.52616e-14 3.49231e-15 6.29248e-15 -8.43299e-14 -9.855e-14 -9.02314e-14 -1.7519e-13 -8.97951e-14 -8.4982e-14 -3.34461e-15 -6.78263e-14 1.0622e-13 -1.46014e-13 2.55921e-13 -1.14726e-13 -2.92775e-14 5.45809e-14 -2.32183e-13 -1.50425e-13 -1.41244e-14 6.72074e-14 -7.90519e-14 -1.46601e-13 6.14964e-14 -2.37705e-13 -1.05898e-13 -2.45517e-13 2.16221e-13 -3.21328e-13 6.43688e-14 -1.76722e-13 -1.73788e-13 -3.68833e-13 6.79849e-14 -3.09964e-13 -1.82736e-13 -5.05115e-13 6.16129e-15 3.37714e-13 -2.93186e-13 -7.99863e-14 4.27828e-13 1.4947e-13 -6.09747e-13 5.77544e-14 -1.78932e-13 -3.88679e-13 -5.22545e-14 3.5812e-14 3.71464e-14 -6.22738e-14 6.78121e-14 1.24338e-13 -2.45582e-13 1.18545e-13 -1.3355e-13 2.55716e-13 4.38598e-12 4.81913e-11 4.51597e-10 3.86649e-09 3.04014e-08 2.18321e-07 1.42349e-06 8.36823e-06 4.39832e-05 0.000204574 0.000831389 0.00290722 0.0086016 0.0212395 0.0436677 0.0760099 0.115823 0.160339 0.207683 0.256826 0.307191 0.358503 0.410803 0.464093 0.513711 0.562317 0.608099 0.654236 0.697371 0.739592 0.780821 0.816696 0.852066 0.881705 0.901652 0.920062 0.92912 0.931197 0.933377 0.933822 0.93356 0.932818 0.931803 0.930814 0.929907 0.92885 0.927114 0.930748 0.931916 0.928008 0.927398 0.927775 0.928323 0.928118 0.926817 0.923894 0.918385 0.907251 0.885141 0.844647 0.777509 0.678209 0.549306 0.405367 0.267737 0.155413 0.0781174 0.0342664 0.0135891 0.00507763 0.00183663 0.000651122 0.000227256 7.81729e-05 2.64991e-05 8.8474e-06 2.90771e-06 9.40145e-07 2.98909e-07 9.34118e-08 2.86854e-08 8.6525e-09 2.5638e-09 7.45989e-10 2.12147e-10 6.01659e-11 1.57656e-11 4.62712e-12 5.08853e-13 -2.94777e-13 2.78769e-13 1.42086e-13 1.44242e-13 -5.01165e-13 -7.17838e-13 -6.01389e-14 1.51648e-13 2.74557e-13 -7.62422e-14 -8.95769e-13 1.61981e-13 -2.59642e-13 8.06939e-13 2.22648e-13 -6.14274e-14 1.69223e-13 -6.90613e-13 -2.19976e-13 2.82639e-14 -1.17048e-13 -2.5336e-13 -1.0259e-12 2.34274e-13 1.82976e-14 3.73753e-13 1.62063e-14 -4.00605e-13 5.23994e-14 3.96394e-13 1.72475e-13 -1.14104e-12 -4.81004e-13 -2.39508e-13 -1.99374e-13 -9.21903e-13 2.8924e-13 -5.8706e-13 -4.60372e-13 -2.64365e-13 -5.63652e-13 9.93893e-13 2.5113e-13 3.05159e-13 0 0 -5.48447e-15 -3.49006e-14 -2.7695e-14 2.52085e-15 -9.74047e-14 -6.76584e-14 1.06326e-14 -7.6895e-14 4.15553e-14 -2.42287e-14 -8.97466e-14 -6.42934e-14 -3.49343e-14 -8.58893e-14 -1.09117e-13 -4.11865e-14 -1.07886e-13 -6.98358e-14 -1.51343e-13 -1.19607e-14 -4.80834e-14 1.24457e-13 -2.14526e-13 1.49381e-13 -3.10253e-14 -1.94954e-13 -3.24143e-14 -5.78874e-14 -4.37891e-14 -6.80745e-14 -5.25997e-14 2.14517e-14 -7.75932e-14 -8.54095e-14 -2.37798e-13 3.86479e-14 -3.30931e-13 1.7634e-13 -3.09197e-13 -1.46363e-13 -3.03477e-13 2.26306e-14 -3.27557e-13 -1.82209e-13 -1.91664e-13 3.15809e-13 -3.20608e-14 -9.53796e-14 4.062e-13 3.88816e-13 -3.66639e-13 -1.83167e-13 2.39146e-13 -5.26525e-13 -2.61078e-13 -1.22546e-13 -2.83094e-13 -1.2351e-13 -9.98932e-14 6.76231e-14 2.05415e-15 -2.46766e-13 2.24879e-13 -2.23611e-13 -4.84685e-15 1.92047e-13 4.84281e-12 4.87593e-11 4.51374e-10 3.86685e-09 3.04009e-08 2.18322e-07 1.42349e-06 8.36823e-06 4.39832e-05 0.000204574 0.000831389 0.00290722 0.0086016 0.0212395 0.0436677 0.0760099 0.115823 0.160339 0.207683 0.256826 0.307191 0.358503 0.410803 0.464093 0.513711 0.562317 0.608099 0.654236 0.697371 0.739592 0.780821 0.816696 0.852066 0.881705 0.901652 0.920062 0.92912 0.931197 0.933377 0.933822 0.93356 0.932818 0.931803 0.930814 0.929907 0.92885 0.927114 0.930748 0.931916 0.928008 0.927398 0.927775 0.928323 0.928118 0.926817 0.923894 0.918385 0.907251 0.885141 0.844647 0.777509 0.678209 0.549306 0.405367 0.267737 0.155413 0.0781174 0.0342664 0.0135891 0.00507763 0.00183663 0.000651122 0.000227256 7.81729e-05 2.64991e-05 8.8474e-06 2.90771e-06 9.40145e-07 2.98908e-07 9.34131e-08 2.86845e-08 8.65326e-09 2.56336e-09 7.45497e-10 2.13368e-10 5.89564e-11 1.65161e-11 3.86868e-12 9.56525e-13 1.27174e-13 -3.02686e-13 -1.25311e-13 -2.36819e-13 -3.6018e-13 1.86705e-13 -4.10591e-13 -2.56629e-13 -4.85095e-13 -2.90553e-13 3.62829e-13 2.36095e-13 2.93337e-13 -4.90656e-13 -1.03439e-13 7.19549e-13 -2.38294e-13 -2.28229e-13 1.96429e-13 -7.76754e-13 -2.81104e-13 -4.60549e-13 8.04697e-13 -9.17888e-13 1.80134e-13 -1.48182e-13 -1.30116e-13 7.43165e-13 -2.95019e-13 6.88051e-14 -5.75861e-13 2.30039e-13 -1.19103e-13 -6.71173e-13 -6.91348e-13 3.01981e-14 -9.0571e-13 3.08747e-14 4.6131e-14 -2.28738e-13 3.9361e-13 -2.24015e-13 5.6254e-13 -3.22494e-13 0 0 -9.39776e-15 -8.67787e-15 -2.74356e-14 -3.88148e-14 -1.2147e-14 -2.1253e-14 -7.14423e-14 -1.22278e-14 -9.1074e-15 -2.88249e-14 7.39016e-14 -3.68865e-14 -9.18456e-14 -9.36329e-14 -9.14192e-14 -1.03805e-13 -9.60651e-14 -7.93371e-14 -9.15754e-15 -2.03452e-13 -3.11336e-14 -2.58257e-13 2.53665e-14 -3.08409e-14 -1.43024e-13 6.96191e-14 -5.56456e-14 -1.80044e-13 3.89738e-14 4.8725e-14 5.48462e-14 -1.67247e-13 -7.7494e-14 7.80289e-14 -1.26929e-13 -1.75141e-13 4.27357e-14 -4.00794e-13 -1.87621e-13 -1.4802e-13 -6.64517e-14 -1.82415e-13 -8.98488e-14 1.39132e-13 -2.27854e-13 -1.40046e-13 -3.59304e-14 4.20021e-13 1.86812e-13 1.23387e-13 -1.70167e-14 -1.18175e-13 -4.15137e-13 9.52412e-14 -1.17227e-13 -1.3702e-13 -4.08443e-13 7.23624e-14 -3.6934e-14 -1.06636e-13 -1.29992e-13 1.14402e-13 -3.09282e-13 5.64873e-14 -4.31525e-14 4.28389e-13 5.09938e-12 4.86107e-11 4.5183e-10 3.86654e-09 3.04011e-08 2.18321e-07 1.42349e-06 8.36823e-06 4.39832e-05 0.000204574 0.000831389 0.00290722 0.0086016 0.0212395 0.0436677 0.0760099 0.115823 0.160339 0.207683 0.256826 0.307191 0.358503 0.410803 0.464093 0.513711 0.562317 0.608099 0.654236 0.697371 0.739592 0.780821 0.816696 0.852066 0.881705 0.901652 0.920062 0.92912 0.931197 0.933377 0.933822 0.93356 0.932818 0.931803 0.930814 0.929907 0.92885 0.927114 0.930748 0.931916 0.928008 0.927398 0.927775 0.928323 0.928118 0.926817 0.923894 0.918385 0.907251 0.885141 0.844647 0.777509 0.678209 0.549306 0.405367 0.267737 0.155413 0.0781174 0.0342664 0.0135891 0.00507763 0.00183663 0.000651122 0.000227256 7.81729e-05 2.64991e-05 8.8474e-06 2.90771e-06 9.40145e-07 2.98909e-07 9.34122e-08 2.8685e-08 8.65286e-09 2.56375e-09 7.45807e-10 2.12476e-10 5.97857e-11 1.61224e-11 4.03416e-12 9.08048e-13 1.56299e-13 -2.74882e-13 -6.31135e-13 -1.54495e-13 -5.23596e-14 8.60014e-14 -2.67593e-13 -6.86522e-13 -5.49222e-13 8.94327e-14 -2.35496e-13 1.53671e-13 -1.00268e-13 2.03687e-13 8.66881e-14 -2.45733e-13 -1.77477e-13 -1.07759e-13 -4.06921e-13 -2.18474e-13 -1.69211e-13 -2.5958e-13 -2.31096e-13 2.75456e-13 -1.85463e-13 -2.18169e-13 8.38286e-14 2.73609e-13 4.06443e-13 -5.704e-13 1.9596e-13 1.58575e-13 -2.71371e-13 -2.40363e-13 1.60182e-13 -6.18984e-13 -1.70596e-13 -3.79609e-13 3.50605e-13 4.48146e-13 -3.89092e-14 -2.23854e-13 -1.08942e-14 1.91497e-13 0 0 -6.57895e-15 -1.2935e-14 -1.97018e-14 -5.34105e-14 1.65233e-15 6.59217e-14 4.56184e-14 3.75996e-16 -3.78041e-14 -2.76126e-14 4.35632e-14 -1.71572e-14 -9.45845e-14 -1.82663e-13 -5.96605e-14 -8.42135e-14 -1.23458e-13 -2.24198e-13 -8.13521e-14 -1.94216e-13 3.59139e-14 -1.66339e-13 -1.76316e-13 -4.18169e-14 3.71365e-14 -4.30273e-14 -1.79915e-13 3.66605e-14 9.65852e-14 9.00607e-14 6.6863e-14 -1.66292e-13 7.93232e-15 -2.13369e-13 1.04227e-13 -1.68413e-13 2.24083e-14 -2.4633e-13 4.72811e-14 -1.77687e-13 8.09346e-14 -1.41878e-13 -1.67016e-13 -3.42996e-13 -4.23e-14 -3.01538e-13 -3.67481e-13 3.4434e-13 -2.83432e-13 1.51526e-13 1.8704e-13 -1.62091e-13 -1.74056e-13 1.58057e-13 -2.29901e-13 -3.44372e-13 1.62233e-14 1.26929e-13 -3.74669e-14 4.06021e-13 -1.06734e-13 1.07755e-13 -2.54093e-13 -1.20483e-13 1.44793e-13 2.58927e-13 4.79951e-12 4.87301e-11 4.51836e-10 3.8665e-09 3.04013e-08 2.18321e-07 1.42349e-06 8.36823e-06 4.39832e-05 0.000204574 0.000831389 0.00290722 0.0086016 0.0212395 0.0436677 0.0760099 0.115823 0.160339 0.207683 0.256826 0.307191 0.358503 0.410803 0.464093 0.513711 0.562317 0.608099 0.654236 0.697371 0.739592 0.780821 0.816696 0.852066 0.881705 0.901652 0.920062 0.92912 0.931197 0.933377 0.933822 0.93356 0.932818 0.931803 0.930814 0.929907 0.92885 0.927114 0.930748 0.931916 0.928008 0.927398 0.927775 0.928323 0.928118 0.926817 0.923894 0.918385 0.907251 0.885141 0.844647 0.777509 0.678209 0.549306 0.405367 0.267737 0.155413 0.0781174 0.0342664 0.0135891 0.00507763 0.00183663 0.000651122 0.000227256 7.81729e-05 2.64991e-05 8.8474e-06 2.90771e-06 9.40145e-07 2.98909e-07 9.34122e-08 2.86849e-08 8.65278e-09 2.56364e-09 7.45861e-10 2.12929e-10 5.96974e-11 1.59277e-11 4.31187e-12 1.13705e-12 7.74761e-14 2.88649e-15 -5.07176e-13 -3.67231e-13 2.58722e-14 1.67248e-13 -7.08488e-14 -2.91674e-13 -3.65748e-13 -3.26358e-13 -4.7549e-13 2.98827e-14 1.71408e-15 6.28237e-13 -1.11525e-13 -4.96041e-13 -7.07422e-13 -5.68031e-13 -7.57765e-13 8.38459e-16 3.47744e-13 -7.10684e-14 -1.19982e-12 3.67714e-13 -2.36707e-13 7.24324e-13 2.8003e-13 -7.21287e-13 9.23544e-14 3.16458e-13 2.36679e-13 -4.57429e-13 3.34602e-13 2.46545e-13 -6.91908e-13 -6.73255e-13 8.50793e-15 2.14796e-13 -2.76491e-13 -1.29669e-13 -9.13718e-13 2.35903e-13 7.25249e-13 2.8912e-13 0 0 -6.59232e-15 -3.8049e-14 5.13934e-15 5.08216e-14 -6.12561e-14 6.64145e-14 1.37319e-13 -2.00821e-14 1.09082e-13 -4.86388e-14 -1.16824e-13 -7.32917e-14 -1.02671e-13 -1.3985e-13 -1.05606e-13 -8.23583e-14 -2.08049e-13 -8.92111e-14 -2.00967e-13 -3.21975e-14 -9.40307e-14 1.34921e-13 -3.82792e-13 9.96119e-14 1.59211e-13 -1.83799e-13 -7.07247e-14 1.50286e-13 1.98956e-14 -5.39832e-14 -1.62786e-13 5.44781e-14 -4.92171e-14 -2.03194e-13 -2.15623e-13 2.20784e-13 -3.18806e-13 3.35485e-13 -1.89938e-13 -2.21017e-13 -1.75555e-13 8.33761e-14 -2.95047e-13 -5.0363e-13 1.04919e-13 1.70037e-13 -1.59206e-13 -2.85951e-13 1.11184e-13 3.83669e-13 -3.76089e-13 -2.50982e-13 2.21583e-13 -4.70295e-13 -3.53203e-13 -1.39216e-13 -2.66464e-13 -4.11707e-14 -1.05787e-13 3.87305e-13 1.82741e-13 -1.17388e-13 3.58354e-13 -2.87054e-13 1.31019e-13 1.28128e-13 4.83204e-12 4.91007e-11 4.5154e-10 3.86698e-09 3.04009e-08 2.18322e-07 1.42349e-06 8.36823e-06 4.39832e-05 0.000204574 0.000831389 0.00290722 0.0086016 0.0212395 0.0436677 0.0760099 0.115823 0.160339 0.207683 0.256826 0.307191 0.358503 0.410803 0.464093 0.513711 0.562317 0.608099 0.654236 0.697371 0.739592 0.780821 0.816696 0.852066 0.881705 0.901652 0.920062 0.92912 0.931197 0.933377 0.933822 0.93356 0.932818 0.931803 0.930814 0.929907 0.92885 0.927114 0.930748 0.931916 0.928008 0.927398 0.927775 0.928323 0.928118 0.926817 0.923894 0.918385 0.907251 0.885141 0.844647 0.777509 0.678209 0.549306 0.405367 0.267737 0.155413 0.0781174 0.0342664 0.0135891 0.00507763 0.00183663 0.000651122 0.000227256 7.81729e-05 2.64991e-05 8.8474e-06 2.90771e-06 9.40145e-07 2.98908e-07 9.34129e-08 2.86846e-08 8.65336e-09 2.56321e-09 7.45406e-10 2.13439e-10 5.89198e-11 1.60199e-11 3.9325e-12 1.33854e-12 8.02421e-13 6.08892e-14 -1.38512e-13 7.53229e-14 -2.84623e-13 1.89006e-13 -2.17348e-13 -8.66229e-14 -1.97848e-13 -2.07175e-13 4.92918e-14 -5.4549e-13 3.7632e-13 -1.80514e-13 2.1626e-13 3.38146e-15 -8.53504e-13 -7.30454e-13 -4.43028e-13 -6.97418e-13 -2.08567e-13 -4.26044e-13 2.73629e-13 -2.05788e-13 1.63527e-13 1.84218e-13 1.69951e-13 3.6994e-13 -2.83757e-13 6.57913e-13 -7.07097e-13 2.92942e-13 4.15689e-13 -2.83847e-13 -7.3292e-13 -1.9773e-13 -7.80745e-13 6.19993e-13 -4.73618e-13 -3.27138e-13 1.0089e-13 -3.08899e-13 5.65769e-13 -2.39786e-13 0 0 -2.15652e-14 -1.2319e-15 2.07848e-14 4.81508e-14 5.32805e-14 8.46736e-14 -7.4548e-14 4.79508e-14 4.56234e-14 -9.65064e-14 1.00136e-14 -5.11626e-14 -2.14326e-13 -2.84106e-14 -1.46726e-13 -2.96717e-13 -2.35335e-13 1.65989e-13 4.17961e-14 -1.26772e-13 -1.1977e-13 -3.08924e-13 3.22755e-13 -1.92312e-13 -9.12504e-15 3.02185e-13 -6.02649e-14 -1.67487e-13 -1.97771e-15 1.27185e-14 -3.23458e-13 -8.24594e-14 -5.26039e-14 1.09521e-13 -5.23861e-13 1.05298e-13 2.81127e-13 -3.11967e-13 -1.66918e-13 -2.66695e-13 -2.12716e-13 -3.28417e-13 2.8734e-13 1.14484e-14 3.93222e-14 -4.73673e-13 4.14973e-13 1.07933e-13 5.72683e-14 -1.46557e-13 8.15032e-16 1.01673e-13 -1.12704e-12 4.45844e-14 -1.37836e-13 -7.31543e-15 -8.68328e-13 9.13573e-14 2.64253e-14 -4.48224e-13 3.82669e-13 3.96389e-13 -8.90086e-14 3.456e-13 -2.37708e-13 4.66801e-13 4.96417e-12 4.86355e-11 4.51917e-10 3.86685e-09 3.0401e-08 2.18321e-07 1.42349e-06 8.36823e-06 4.39832e-05 0.000204574 0.000831389 0.00290722 0.0086016 0.0212395 0.0436677 0.0760099 0.115823 0.160339 0.207683 0.256826 0.307191 0.358503 0.410803 0.464093 0.513711 0.562317 0.608099 0.654236 0.697371 0.739592 0.780821 0.816696 0.852066 0.881705 0.901652 0.920062 0.92912 0.931197 0.933377 0.933822 0.93356 0.932818 0.931803 0.930814 0.929907 0.92885 0.927114 0.930748 0.931916 0.928008 0.927398 0.927775 0.928323 0.928118 0.926817 0.923894 0.918385 0.907251 0.885141 0.844647 0.777509 0.678209 0.549306 0.405367 0.267737 0.155413 0.0781174 0.0342664 0.0135891 0.00507763 0.00183663 0.000651122 0.000227256 7.81729e-05 2.64991e-05 8.8474e-06 2.90771e-06 9.40144e-07 2.98909e-07 9.34115e-08 2.86858e-08 8.65288e-09 2.56373e-09 7.45696e-10 2.11382e-10 6.02693e-11 1.51627e-11 4.19934e-12 8.14869e-13 1.21336e-12 4.50381e-13 -1.32234e-13 1.194e-12 -5.06513e-13 -8.75729e-13 -6.71429e-14 -2.98036e-13 4.82105e-13 9.22094e-13 -1.04286e-12 -1.15361e-12 -2.9764e-13 5.78121e-13 1.25847e-12 -9.93147e-13 -1.30634e-15 -7.74519e-13 -7.97201e-13 -2.51687e-13 -1.00588e-12 -5.61373e-13 -1.50591e-13 1.47396e-12 8.75717e-14 -8.46432e-13 2.23937e-13 8.42738e-13 7.03102e-13 -1.99106e-13 -1.71435e-13 2.16772e-13 -6.23368e-13 -4.38671e-13 1.42166e-12 -1.26922e-12 1.80962e-13 -5.97633e-13 -2.45678e-13 6.94462e-13 6.00525e-13 -9.53894e-14 -1.2147e-12 2.75327e-13 0
				</DataArray>
				<DataArray Name="VitesseY" type="Float32" format="ascii">