<?xml version="1.0"?>
<VTKFile type="PolyData">
	<PolyData>
		<Piece NumberOfPoints="1206" NumberOfPolys="1000">
			<Points>
				<DataArray type="Float32" NumberOfComponents="3" format="ascii">
 0 0 0 0.005 0 0 0.01 0 0 0.015 0 0 0.02 0 0 0.025 0 0 0.03 0 0 0.035 0 0 0.04 0 0 0.045 0 0 0.05 0 0 0.055 0 0 0.06 0 0 0.065 0 0 0.07 0 0 0.075 0 0 0.08 0 0 0.085 0 0 0.09 0 0 0.095 0 0 0.1 0 0 0.105 0 0 0.11 0 0 0.115 0 0 0.12 0 0 0.125 0 0 0.13 0 0 0.135 0 0 0.14 0 0 0.145 0 0 0.15 0 0 0.155 0 0 0.16 0 0 0.165 0 0 0.17 0 0 0.175 0 0 0.18 0 0 0.185 0 0 0.19 0 0 0.195 0 0 0.2 0 0 0.205 0 0 0.21 0 0 0.215 0 0 0.22 0 0 0.225 0 0 0.23 0 0 0.235 0 0 0.24 0 0 0.245 0 0 0.25 0 0 0.255 0 0 0.26 0 0 0.265 0 0 0.27 0 0 0.275 0 0 0.28 0 0 0.285 0 0 0.29 0 0 0.295 0 0 0.3 0 0 0.305 0 0 0.31 0 0 0.315 0 0 0.32 0 0 0.325 0 0 0.33 0 0 0.335 0 0 0.34 0 0 0.345 0 0 0.35 0 0 0.355 0 0 0.36 0 0 0.365 0 0 0.37 0 0 0.375 0 0 0.38 0 0 0.385 0 0 0.39 0 0 0.395 0 0 0.4 0 0 0.405 0 0 0.41 0 0 0.415 0 0 0.42 0 0 0.425 0 0 0.43 0 0 0.435 0 0 0.44 0 0 0.445 0 0 0.45 0 0 0.455 0 0 0.46 0 0 0.465 0 0 0.47 0 0 0.475 0 0 0.48 0 0 0.485 0 0 0.49 0 0 0.495 0 0 0.5 0 0 0.505 0 0 0.51 0 0 0.515 0 0 0.52 0 0 0.525 0 0 0.53 0 0 0.535 0 0 0.54 0 0 0.545 0 0 0.55 0 0 0.555 0 0 0.56 0 0 0.565 0 0 0.57 0 0 0.575 0 0 0.58 0 0 0.585 0 0 0.59 0 0 0.595 0 0 0.6 0 0 0.605 0 0 0.61 0 0 0.615 0 0 0.62 0 0 0.625 0 0 0.63 0 0 0.635 0 0 0.64 0 0 0.645 0 0 0.65 0 0 0.655 0 0 0.66 0 0 0.665 0 0 0.67 0 0 0.675 0 0 0.68 0 0 0.685 0 0 0.69 0 0 0.695 0 0 0.7 0 0 0.705 0 0 0.71 0 0 0.715 0 0 0.72 0 0 0.725 0 0 0.73 0 0 0.735 0 0 0.74 0 0 0.745 0 0 0.75 0 0 0.755 0 0 0.76 0 0 0.765 0 0 0.77 0 0 0.775 0 0 0.78 0 0 0.785 0 0 0.79 0 0 0.795 0 0 0.8 0 0 0.805 0 0 0.81 0 0 0.815 0 0 0.82 0 0 0.825 0 0 0.83 0 0 0.835 0 0 0.84 0 0 0.845 0 0 0.85 0 0 0.855 0 0 0.86 0 0 0.865 0 0 0.87 0 0 0.875 0 0 0.88 0 0 0.885 0 0 0.89 0 0 0.895 0 0 0.9 0 0 0.905 0 0 0.91 0 0 0.915 0 0 0.92 0 0 0.925 0 0 0.93 0 0 0.935 0 0 0.94 0 0 0.945 0 0 0.95 0 0 0.955 0 0 0.96 0 0 0.965 0 0 0.97 0 0 0.975 0 0 0.98 0 0 0.985 0 0 0.99 0 0 0.995 0 0 1 0 0 0 0.02 0 0.005 0.02 0 0.01 0.02 0 0.015 0.02 0 0.02 0.02 0 0.025 0.02 0 0.03 0.02 0 0.035 0.02 0 0.04 0.02 0 0.045 0.02 0 0.05 0.02 0 0.055 0.02 0 0.06 0.02 0 0.065 0.02 0 0.07 0.02 0 0.075 0.02 0 0.08 0.02 0 0.085 0.02 0 0.09 0.02 0 0.095 0.02 0 0.1 0.02 0 0.105 0.02 0 0.11 0.02 0 0.115 0.02 0 0.12 0.02 0 0.125 0.02 0 0.13 0.02 0 0.135 0.02 0 0.14 0.02 0 0.145 0.02 0 0.15 0.02 0 0.155 0.02 0 0.16 0.02 0 0.165 0.02 0 0.17 0.02 0 0.175 0.02 0 0.18 0.02 0 0.185 0.02 0 0.19 0.02 0 0.195 0.02 0 0.2 0.02 0 0.205 0.02 0 0.21 0.02 0 0.215 0.02 0 0.22 0.02 0 0.225 0.02 0 0.23 0.02 0 0.235 0.02 0 0.24 0.02 0 0.245 0.02 0 0.25 0.02 0 0.255 0.02 0 0.26 0.02 0 0.265 0.02 0 0.27 0.02 0 0.275 0.02 0 0.28 0.02 0 0.285 0.02 0 0.29 0.02 0 0.295 0.02 0 0.3 0.02 0 0.305 0.02 0 0.31 0.02 0 0.315 0.02 0 0.32 0.02 0 0.325 0.02 0 0.33 0.02 0 0.335 0.02 0 0.34 0.02 0 0.345 0.02 0 0.35 0.02 0 0.355 0.02 0 0.36 0.02 0 0.365 0.02 0 0.37 0.02 0 0.375 0.02 0 0.38 0.02 0 0.385 0.02 0 0.39 0.02 0 0.395 0.02 0 0.4 0.02 0 0.405 0.02 0 0.41 0.02 0 0.415 0.02 0 0.42 0.02 0 0.425 0.02 0 0.43 0.02 0 0.435 0.02 0 0.44 0.02 0 0.445 0.02 0 0.45 0.02 0 0.455 0.02 0 0.46 0.02 0 0.465 0.02 0 0.47 0.02 0 0.475 0.02 0 0.48 0.02 0 0.485 0.02 0 0.49 0.02 0 0.495 0.02 0 0.5 0.02 0 0.505 0.02 0 0.51 0.02 0 0.515 0.02 0 0.52 0.02 0 0.525 0.02 0 0.53 0.02 0 0.535 0.02 0 0.54 0.02 0 0.545 0.02 0 0.55 0.02 0 0.555 0.02 0 0.56 0.02 0 0.565 0.02 0 0.57 0.02 0 0.575 0.02 0 0.58 0.02 0 0.585 0.02 0 0.59 0.02 0 0.595 0.02 0 0.6 0.02 0 0.605 0.02 0 0.61 0.02 0 0.615 0.02 0 0.62 0.02 0 0.625 0.02 0 0.63 0.02 0 0.635 0.02 0 0.64 0.02 0 0.645 0.02 0 0.65 0.02 0 0.655 0.02 0 0.66 0.02 0 0.665 0.02 0 0.67 0.02 0 0.675 0.02 0 0.68 0.02 0 0.685 0.02 0 0.69 0.02 0 0.695 0.02 0 0.7 0.02 0 0.705 0.02 0 0.71 0.02 0 0.715 0.02 0 0.72 0.02 0 0.725 0.02 0 0.73 0.02 0 0.735 0.02 0 0.74 0.02 0 0.745 0.02 0 0.75 0.02 0 0.755 0.02 0 0.76 0.02 0 0.765 0.02 0 0.77 0.02 0 0.775 0.02 0 0.78 0.02 0 0.785 0.02 0 0.79 0.02 0 0.795 0.02 0 0.8 0.02 0 0.805 0.02 0 0.81 0.02 0 0.815 0.02 0 0.82 0.02 0 0.825 0.02 0 0.83 0.02 0 0.835 0.02 0 0.84 0.02 0 0.845 0.02 0 0.85 0.02 0 0.855 0.02 0 0.86 0.02 0 0.865 0.02 0 0.87 0.02 0 0.875 0.02 0 0.88 0.02 0 0.885 0.02 0 0.89 0.02 0 0.895 0.02 0 0.9 0.02 0 0.905 0.02 0 0.91 0.02 0 0.915 0.02 0 0.92 0.02 0 0.925 0.02 0 0.93 0.02 0 0.935 0.02 0 0.94 0.02 0 0.945 0.02 0 0.95 0.02 0 0.955 0.02 0 0.96 0.02 0 0.965 0.02 0 0.97 0.02 0 0.975 0.02 0 0.98 0.02 0 0.985 0.02 0 0.99 0.02 0 0.995 0.02 0 1 0.02 0 0 0.04 0 0.005 0.04 0 0.01 0.04 0 0.015 0.04 0 0.02 0.04 0 0.025 0.04 0 0.03 0.04 0 0.035 0.04 0 0.04 0.04 0 0.045 0.04 0 0.05 0.04 0 0.055 0.04 0 0.06 0.04 0 0.065 0.04 0 0.07 0.04 0 0.075 0.04 0 0.08 0.04 0 0.085 0.04 0 0.09 0.04 0 0.095 0.04 0 0.1 0.04 0 0.105 0.04 0 0.11 0.04 0 0.115 0.04 0 0.12 0.04 0 0.125 0.04 0 0.13 0.04 0 0.135 0.04 0 0.14 0.04 0 0.145 0.04 0 0.15 0.04 0 0.155 0.04 0 0.16 0.04 0 0.165 0.04 0 0.17 0.04 0 0.175 0.04 0 0.18 0.04 0 0.185 0.04 0 0.19 0.04 0 0.195 0.04 0 0.2 0.04 0 0.205 0.04 0 0.21 0.04 0 0.215 0.04 0 0.22 0.04 0 0.225 0.04 0 0.23 0.04 0 0.235 0.04 0 0.24 0.04 0 0.245 0.04 0 0.25 0.04 0 0.255 0.04 0 0.26 0.04 0 0.265 0.04 0 0.27 0.04 0 0.275 0.04 0 0.28 0.04 0 0.285 0.04 0 0.29 0.04 0 0.295 0.04 0 0.3 0.04 0 0.305 0.04 0 0.31 0.04 0 0.315 0.04 0 0.32 0.04 0 0.325 0.04 0 0.33 0.04 0 0.335 0.04 0 0.34 0.04 0 0.345 0.04 0 0.35 0.04 0 0.355 0.04 0 0.36 0.04 0 0.365 0.04 0 0.37 0.04 0 0.375 0.04 0 0.38 0.04 0 0.385 0.04 0 0.39 0.04 0 0.395 0.04 0 0.4 0.04 0 0.405 0.04 0 0.41 0.04 0 0.415 0.04 0 0.42 0.04 0 0.425 0.04 0 0.43 0.04 0 0.435 0.04 0 0.44 0.04 0 0.445 0.04 0 0.45 0.04 0 0.455 0.04 0 0.46 0.04 0 0.465 0.04 0 0.47 0.04 0 0.475 0.04 0 0.48 0.04 0 0.485 0.04 0 0.49 0.04 0 0.495 0.04 0 0.5 0.04 0 0.505 0.04 0 0.51 0.04 0 0.515 0.04 0 0.52 0.04 0 0.525 0.04 0 0.53 0.04 0 0.535 0.04 0 0.54 0.04 0 0.545 0.04 0 0.55 0.04 0 0.555 0.04 0 0.56 0.04 0 0.565 0.04 0 0.57 0.04 0 0.575 0.04 0 0.58 0.04 0 0.585 0.04 0 0.59 0.04 0 0.595 0.04 0 0.6 0.04 0 0.605 0.04 0 0.61 0.04 0 0.615 0.04 0 0.62 0.04 0 0.625 0.04 0 0.63 0.04 0 0.635 0.04 0 0.64 0.04 0 0.645 0.04 0 0.65 0.04 0 0.655 0.04 0 0.66 0.04 0 0.665 0.04 0 0.67 0.04 0 0.675 0.04 0 0.68 0.04 0 0.685 0.04 0 0.69 0.04 0 0.695 0.04 0 0.7 0.04 0 0.705 0.04 0 0.71 0.04 0 0.715 0.04 0 0.72 0.04 0 0.725 0.04 0 0.73 0.04 0 0.735 0.04 0 0.74 0.04 0 0.745 0.04 0 0.75 0.04 0 0.755 0.04 0 0.76 0.04 0 0.765 0.04 0 0.77 0.04 0 0.775 0.04 0 0.78 0.04 0 0.785 0.04 0 0.79 0.04 0 0.795 0.04 0 0.8 0.04 0 0.805 0.04 0 0.81 0.04 0 0.815 0.04 0 0.82 0.04 0 0.825 0.04 0 0.83 0.04 0 0.835 0.04 0 0.84 0.04 0 0.845 0.04 0 0.85 0.04 0 0.855 0.04 0 0.86 0.04 0 0.865 0.04 0 0.87 0.04 0 0.875 0.04 0 0.88 0.04 0 0.885 0.04 0 0.89 0.04 0 0.895 0.04 0 0.9 0.04 0 0.905 0.04 0 0.91 0.04 0 0.915 0.04 0 0.92 0.04 0 0.925 0.04 0 0.93 0.04 0 0.935 0.04 0 0.94 0.04 0 0.945 0.04 0 0.95 0.04 0 0.955 0.04 0 0.96 0.04 0 0.965 0.04 0 0.97 0.04 0 0.975 0.04 0 0.98 0.04 0 0.985 0.04 0 0.99 0.04 0 0.995 0.04 0 1 0.04 0 0 0.06 0 0.005 0.06 0 0.01 0.06 0 0.015 0.06 0 0.02 0.06 0 0.025 0.06 0 0.03 0.06 0 0.035 0.06 0 0.04 0.06 0 0.045 0.06 0 0.05 0.06 0 0.055 0.06 0 0.06 0.06 0 0.065 0.06 0 0.07 0.06 0 0.075 0.06 0 0.08 0.06 0 0.085 0.06 0 0.09 0.06 0 0.095 0.06 0 0.1 0.06 0 0.105 0.06 0 0.11 0.06 0 0.115 0.06 0 0.12 0.06 0 0.125 0.06 0 0.13 0.06 0 0.135 0.06 0 0.14 0.06 0 0.145 0.06 0 0.15 0.06 0 0.155 0.06 0 0.16 0.06 0 0.165 0.06 0 0.17 0.06 0 0.175 0.06 0 0.18 0.06 0 0.185 0.06 0 0.19 0.06 0 0.195 0.06 0 0.2 0.06 0 0.205 0.06 0 0.21 0.06 0 0.215 0.06 0 0.22 0.06 0 0.225 0.06 0 0.23 0.06 0 0.235 0.06 0 0.24 0.06 0 0.245 0.06 0 0.25 0.06 0 0.255 0.06 0 0.26 0.06 0 0.265 0.06 0 0.27 0.06 0 0.275 0.06 0 0.28 0.06 0 0.285 0.06 0 0.29 0.06 0 0.295 0.06 0 0.3 0.06 0 0.305 0.06 0 0.31 0.06 0 0.315 0.06 0 0.32 0.06 0 0.325 0.06 0 0.33 0.06 0 0.335 0.06 0 0.34 0.06 0 0.345 0.06 0 0.35 0.06 0 0.355 0.06 0 0.36 0.06 0 0.365 0.06 0 0.37 0.06 0 0.375 0.06 0 0.38 0.06 0 0.385 0.06 0 0.39 0.06 0 0.395 0.06 0 0.4 0.06 0 0.405 0.06 0 0.41 0.06 0 0.415 0.06 0 0.42 0.06 0 0.425 0.06 0 0.43 0.06 0 0.435 0.06 0 0.44 0.06 0 0.445 0.06 0 0.45 0.06 0 0.455 0.06 0 0.46 0.06 0 0.465 0.06 0 0.47 0.06 0 0.475 0.06 0 0.48 0.06 0 0.485 0.06 0 0.49 0.06 0 0.495 0.06 0 0.5 0.06 0 0.505 0.06 0 0.51 0.06 0 0.515 0.06 0 0.52 0.06 0 0.525 0.06 0 0.53 0.06 0 0.535 0.06 0 0.54 0.06 0 0.545 0.06 0 0.55 0.06 0 0.555 0.06 0 0.56 0.06 0 0.565 0.06 0 0.57 0.06 0 0.575 0.06 0 0.58 0.06 0 0.585 0.06 0 0.59 0.06 0 0.595 0.06 0 0.6 0.06 0 0.605 0.06 0 0.61 0.06 0 0.615 0.06 0 0.62 0.06 0 0.625 0.06 0 0.63 0.06 0 0.635 0.06 0 0.64 0.06 0 0.645 0.06 0 0.65 0.06 0 0.655 0.06 0 0.66 0.06 0 0.665 0.06 0 0.67 0.06 0 0.675 0.06 0 0.68 0.06 0 0.685 0.06 0 0.69 0.06 0 0.695 0.06 0 0.7 0.06 0 0.705 0.06 0 0.71 0.06 0 0.715 0.06 0 0.72 0.06 0 0.725 0.06 0 0.73 0.06 0 0.735 0.06 0 0.74 0.06 0 0.745 0.06 0 0.75 0.06 0 0.755 0.06 0 0.76 0.06 0 0.765 0.06 0 0.77 0.06 0 0.775 0.06 0 0.78 0.06 0 0.785 0.06 0 0.79 0.06 0 0.795 0.06 0 0.8 0.06 0 0.805 0.06 0 0.81 0.06 0 0.815 0.06 0 0.82 0.06 0 0.825 0.06 0 0.83 0.06 0 0.835 0.06 0 0.84 0.06 0 0.845 0.06 0 0.85 0.06 0 0.855 0.06 0 0.86 0.06 0 0.865 0.06 0 0.87 0.06 0 0.875 0.06 0 0.88 0.06 0 0.885 0.06 0 0.89 0.06 0 0.895 0.06 0 0.9 0.06 0 0.905 0.06 0 0.91 0.06 0 0.915 0.06 0 0.92 0.06 0 0.925 0.06 0 0.93 0.06 0 0.935 0.06 0 0.94 0.06 0 0.945 0.06 0 0.95 0.06 0 0.955 0.06 0 0.96 0.06 0 0.965 0.06 0 0.97 0.06 0 0.975 0.06 0 0.98 0.06 0 0.985 0.06 0 0.99 0.06 0 0.995 0.06 0 1 0.06 0 0 0.08 0 0.005 0.08 0 0.01 0.08 0 0.015 0.08 0 0.02 0.08 0 0.025 0.08 0 0.03 0.08 0 0.035 0.08 0 0.04 0.08 0 0.045 0.08 0 0.05 0.08 0 0.055 0.08 0 0.06 0.08 0 0.065 0.08 0 0.07 0.08 0 0.075 0.08 0 0.08 0.08 0 0.085 0.08 0 0.09 0.08 0 0.095 0.08 0 0.1 0.08 0 0.105 0.08 0 0.11 0.08 0 0.115 0.08 0 0.12 0.08 0 0.125 0.08 0 0.13 0.08 0 0.135 0.08 0 0.14 0.08 0 0.145 0.08 0 0.15 0.08 0 0.155 0.08 0 0.16 0.08 0 0.165 0.08 0
[...]
			<PointData Scalars="VitesseX">
				<DataArray Name="VitesseX" type="Float32" format="ascii">
 0 -1.90369e-14 4.3067e-15 -4.85789e-14 5.45052e-14 -5.21774e-14 -2.15677e-14 -4.7729e-14 -1.22818e-14 -1.90189e-14 -3.08002e-14 -2.12226e-14 -1.69867e-13 -6.70329e-15 -1.13578e-13 3.71872e-14 -1.37383e-13 2.86589e-14 2.15412e-15 -1.30821e-13 2.15737e-14 -9.61718e-14 -2.10637e-13 -2.45105e-14 -2.03947e-13 -4.03336e-14 6.31359e-14 -4.93876e-14 -2.7558e-13 3.79061e-15 1.41836e-14 5.64319e-14 5.2493e-14 -2.44574e-13 -2.23708e-13 -1.11185e-13 -1.81696e-13 -2.14625e-13 -6.5612e-14 -2.40266e-13 -2.80124e-13 -3.30745e-13 -1.23968e-14 -2.84197e-13 2.71381e-13 -1.77888e-13 3.21203e-13 8.04243e-14 3.1081e-14 1.64305e-13 1.36588e-13 -1.3451e-13 -1.04288e-13 -3.09821e-13 -6.30816e-13 -5.50655e-13 9.9171e-14 -3.92442e-13 2.08223e-12 1.69466e-11 1.29951e-10 9.44762e-10 6.40042e-09 4.03431e-08 2.35652e-07 1.26998e-06 6.28213e-06 2.83506e-05 0.000115876 0.000425174 0.00138579 0.00396469 0.00984281 0.0210555 0.0389168 0.0631224 0.0921329 0.124277 0.158353 0.193637 0.229728 0.266362 0.303406 0.340804 0.378563 0.416748 0.455331 0.49228 0.528741 0.564013 0.599244 0.633269 0.667408 0.700438 0.732568 0.764888 0.794892 0.824035 0.852324 0.875155 0.896873 0.913245 0.922026 0.92947 0.932291 0.932345 0.932507 0.932467 0.932241 0.931785 0.931178 0.930557 0.930047 0.929644 0.929298 0.928947 0.928525 0.927906 0.926979 0.92688 0.931826 0.929997 0.927361 0.927305 0.927541 0.927701 0.927827 0.927794 0.927649 0.92752 0.927235 0.926304 0.924236 0.920059 0.911665 0.895334 0.865258 0.813825 0.73378 0.622564 0.487496 0.346017 0.219122 0.12166 0.0588593 0.0253094 0.0100665 0.00384004 0.00143454 0.000529628 0.00019388 7.04298e-05 2.53858e-05 9.07478e-06 3.21544e-06 1.12862e-06 3.92205e-07 1.34867e-07 4.58682e-08 1.54219e-08 5.12394e-09 1.6817e-09 5.44969e-10 1.7398e-10 5.46103e-11 1.66345e-11 4.89208e-12 1.80367e-12 1.05698e-13 -6.97745e-13 -3.27266e-13 -2.53817e-13 -2.47547e-13 -1.34947e-13 6.03017e-14 -7.45596e-13 2.03109e-13 -3.97461e-13 1.11633e-12 -6.41964e-13 3.6079e-13 -1.88833e-13 -2.44405e-13 8.70072e-15 -4.26218e-13 -1.95527e-13 -2.62948e-13 -7.07603e-15 -8.34603e-14 -2.14143e-13 1.63348e-14 1.16524e-13 -3.37836e-14 4.99975e-13 5.8506e-13 -3.78824e-13 1.01723e-12 5.44804e-13 -8.11684e-13 -7.76083e-14 0 0 -2.02824e-15 -2.7672e-14 2.28204e-14 -4.31261e-14 3.97685e-14 -7.69842e-15 8.25649e-15 -2.94409e-14 -3.0099e-14 -4.56565e-14 -9.87148e-14 4.63292e-14 -1.04461e-13 -2.84349e-14 -1.45252e-13 -2.27582e-14 -9.72858e-14 -6.53282e-14 -3.44248e-14 -1.52766e-13 2.4735e-14 -4.60117e-14 -2.39864e-13 1.13367e-14 -9.00514e-14 -2.62564e-13 -6.20464e-14 1.12042e-13 1.30223e-14 3.56405e-15 -4.28027e-14 -5.79615e-14 -8.11336e-14 -9.76339e-14 -2.94301e-13 -5.9889e-14 -9.47982e-14 -2.65462e-13 -1.5674e-13 -3.00398e-13 -7.54968e-14 -2.28297e-13 1.5098e-13 -1.31447e-13 2.15453e-13 -2.38227e-13 5.58208e-14 4.83438e-13 2.82391e-14 -4.86843e-14 -2.82254e-13 -3.94868e-13 -3.49109e-13 -5.42755e-14 -1.26005e-13 -5.36364e-13 3.46899e-13 1.99729e-12 1.66691e-11 1.30222e-10 9.44667e-10 6.40057e-09 4.03429e-08 2.35652e-07 1.26998e-06 6.28213e-06 2.83506e-05 0.000115876 0.000425174 0.00138579 0.00396469 0.00984281 0.0210555 0.0389168 0.0631224 0.0921329 0.124277 0.158353 0.193637 0.229728 0.266362 0.303406 0.340804 0.378563 0.416748 0.455331 0.49228 0.528741 0.564013 0.599244 0.633269 0.667408 0.700438 0.732568 0.764888 0.794892 0.824035 0.852324 0.875155 0.896873 0.913245 0.922026 0.92947 0.932291 0.932345 0.932507 0.932467 0.932241 0.931785 0.931178 0.930557 0.930047 0.929644 0.929298 0.928947 0.928525 0.927906 0.926979 0.92688 0.931826 0.929997 0.927361 0.927305 0.927541 0.927701 0.927827 0.927794 0.927649 0.92752 0.927235 0.926304 0.924236 0.920059 0.911665 0.895334 0.865258 0.813825 0.73378 0.622564 0.487496 0.346017 0.219122 0.12166 0.0588593 0.0253094 0.0100665 0.00384004 0.00143454 0.000529628 0.00019388 7.04298e-05 2.53858e-05 9.07478e-06 3.21544e-06 1.12862e-06 3.92206e-07 1.34867e-07 4.58681e-08 1.54219e-08 5.1242e-09 1.68183e-09 5.44905e-10 1.74247e-10 5.46438e-11 1.67421e-11 4.61908e-12 1.09759e-12 1.64652e-13 -1.46715e-13 -1.06601e-13 -6.74105e-13 4.94131e-14 -1.14931e-13 -7.01908e-13 1.06114e-13 -2.41962e-13 5.38403e-13 -6.02363e-13 4.54072e-13 -2.98596e-13 4.38852e-13 -1.52636e-13 -5.34323e-13 1.67179e-13 -5.1718e-13 3.34336e-14 -5.99218e-13 -1.376e-13 3.6897e-17 -1.26336e-13 1.20544e-13 3.50948e-13 -4.3637e-14 -1.66458e-14 7.5383e-13 -2.37986e-13 1.9045e-13 2.43261e-13 5.09903e-13 0 0 2.61283e-15 1.55295e-14 3.30024e-14 3.63649e-14 -2.23408e-14 5.89063e-14 -3.09852e-15 4.97744e-14 4.61322e-15 -1.81586e-14 -1.53972e-14 -1.05857e-13 6.16575e-15 -1.24441e-13 -9.15072e-14 -1.46911e-13 -9.16254e-14 -1.13223e-13 -4.47619e-14 -4.22878e-14 -1.18097e-13 -7.9831e-14 -1.57571e-13 -2.13784e-13 -5.68863e-14 -2.90711e-14 -8.6318e-14 -1.14399e-13 1.44842e-13 1.45228e-13 -5.71434e-14 7.81286e-15 -2.20538e-14 -2.74941e-13 -2.02874e-13 -7.95305e-14 -6.4924e-14 -4.46232e-14 -3.22177e-13 -3.44477e-13 -1.91002e-13 1.82859e-13 1.38161e-13 -9.19471e-15 -1.98947e-14 3.2357e-14 -1.45981e-13 -2.60375e-13 -2.00979e-13 -1.25284e-13 1.22356e-13 3.27284e-14 3.05506e-14 -2.12044e-13 -1.4129e-13 -1.04891e-13 1.21302e-13 2.26587e-12 1.66913e-11 1.30157e-10 9.4486e-10 6.40051e-09 4.03432e-08 2.35652e-07 1.26998e-06 6.28213e-06 2.83506e-05 0.000115876 0.000425174 0.00138579 0.00396469 0.00984281 0.0210555 0.0389168 0.0631224 0.0921329 0.124277 0.158353 0.193637 0.229728 0.266362 0.303406 0.340804 0.378563 0.416748 0.455331 0.49228 0.528741 0.564013 0.599244 0.633269 0.667408 0.700438 0.732568 0.764888 0.794892 0.824035 0.852324 0.875155 0.896873 0.913245 0.922026 0.92947 0.932291 0.932345 0.932507 0.932467 0.932241 0.931785 0.931178 0.930557 0.930047 0.929644 0.929298 0.928947 0.928525 0.927906 0.926979 0.92688 0.931826 0.929997 0.927361 0.927305 0.927541 0.927701 0.927827 0.927794 0.927649 0.92752 0.927235 0.926304 0.924236 0.920059 0.911665 0.895334 0.865258 0.813825 0.73378 0.622564 0.487496 0.346017 0.219122 0.12166 0.0588593 0.0253094 0.0100665 0.00384004 0.00143454 0.000529628 0.00019388 7.04298e-05 2.53858e-05 9.07478e-06 3.21544e-06 1.12862e-06 3.92205e-07 1.34867e-07 4.58683e-08 1.5422e-08 5.12412e-09 1.68192e-09 5.45118e-10 1.74381e-10 5.47911e-11 1.65106e-11 4.6364e-12 9.43562e-13 3.20126e-13 -3.00668e-13 -2.79462e-13 -3.08114e-13 -4.40741e-13 1.19396e-13 -8.67115e-14 -2.48329e-13 2.37741e-14 -2.47789e-13 2.8727e-13 -3.24176e-13 -6.55314e-14 1.42169e-13 3.98247e-14 -3.58137e-13 -3.00772e-13 -4.81958e-13 -2.77733e-13 -1.2202e-13 -9.16243e-14 -5.24833e-13 1.48213e-13 -9.09149e-15 3.73362e-14 4.47582e-13 2.31941e-13 1.78492e-13 -2.71097e-13 -1.26115e-13 2.68468e-13 -2.68774e-13 0 0 2.65916e-14 4.07554e-14 6.70558e-14 8.25794e-14 4.54176e-16 2.47364e-14 4.24998e-14 2.2572e-14 2.09243e-14 -2.83178e-14 -1.74754e-14 -5.48238e-14 -8.16406e-14 -1.82866e-13 3.80506e-14 -1.06426e-13 -9.37044e-14 -6.99668e-14 -1.29352e-13 -6.82911e-14 -1.54487e-13 -2.33922e-13 -7.51136e-14 -1.10858e-13 -4.74823e-14 -6.125e-14 -2.23917e-14 -5.85602e-14 1.37394e-13 1.75554e-14 6.17457e-14 -6.46483e-14 -1.86198e-13 -2.05942e-13 2.36009e-14 -5.26167e-14 -1.82961e-13 -1.79852e-13 -1.7907e-13 -1.78495e-13 -5.91203e-14 -1.21019e-13 4.25087e-14 -7.08747e-14 -1.18487e-13 -4.41956e-14 -2.35007e-13 -1.8882e-13 -1.15402e-13 -4.05494e-14 5.25676e-14 2.51689e-13 -4.49491e-14 -1.26657e-13 -4.44902e-13 -1.22641e-13 4.07717e-13 2.15432e-12 1.68065e-11 1.30133e-10 9.44992e-10 6.40081e-09 4.03431e-08 2.35652e-07 1.26998e-06 6.28213e-06 2.83506e-05 0.000115876 0.000425174 0.00138579 0.00396469 0.00984281 0.0210555 0.0389168 0.0631224 0.0921329 0.124277 0.158353 0.193637 0.229728 0.266362 0.303406 0.340804 0.378563 0.416748 0.455331 0.49228 0.528741 0.564013 0.599244 0.633269 0.667408 0.700438 0.732568 0.764888 0.794892 0.824035 0.852324 0.875155 0.896873 0.913245 0.922026 0.92947 0.932291 0.932345 0.932507 0.932467 0.932241 0.931785 0.931178 0.930557 0.930047 0.929644 0.929298 0.928947 0.928525 0.927906 0.926979 0.92688 0.931826 0.929997 0.927361 0.927305 0.927541 0.927701 0.927827 0.927794 0.927649 0.92752 0.927235 0.926304 0.924236 0.920059 0.911665 0.895334 0.865258 0.813825 0.73378 0.622564 0.487496 0.346017 0.219122 0.12166 0.0588593 0.0253094 0.0100665 0.00384004 0.00143454 0.000529628 0.00019388 7.04298e-05 2.53858e-05 9.07478e-06 3.21544e-06 1.12862e-06 3.92205e-07 1.34867e-07 4.58682e-08 1.54225e-08 5.12415e-09 1.68161e-09 5.4491e-10 1.73955e-10 5.50965e-11 1.67064e-11 4.83901e-12 1.44546e-12 -5.81432e-13 -2.43686e-13 -3.37695e-13 -2.38359e-13 3.24226e-14 2.40923e-13 4.18567e-13 -5.85459e-13 3.50569e-13 -3.29566e-13 -1.70806e-13 -2.06418e-13 8.88269e-14 -2.16502e-13 -7.21619e-13 2.97848e-13 -8.80878e-13 -1.52597e-13 -1.0745e-13 -2.39747e-13 -7.16975e-13 2.47005e-13 8.65944e-13 -3.77157e-13 3.99654e-13 2.56768e-13 5.23091e-13 -3.14322e-13 7.26126e-13 2.54035e-13 -1.05459e-12 2.33556e-13 0 0 5.12046e-14 3.06455e-14 7.98336e-14 2.13918e-14 1.00783e-13 8.65394e-15 4.02797e-14 -3.03584e-14 1.63875e-14 -8.63618e-14 -9.90637e-14 1.04215e-13 -1.57584e-13 -1.33183e-13 -7.94571e-14 3.18357e-14 -1.09422e-13 1.42198e-14 -1.25985e-13 -2.10822e-13 6.16811e-15 -1.05813e-13 -7.37369e-14 2.00161e-13 -3.15816e-14 -1.71246e-13 -8.32192e-14 1.50016e-13 -7.93736e-14 -1.02646e-13 -1.74087e-13 -1.77301e-13 -9.74239e-14 5.20262e-14 -2.28566e-13 8.99897e-14 9.48771e-15 -4.41012e-13 -1.22676e-13 -1.73446e-13 7.08258e-14 -1.85952e-13 4.82216e-14 -1.73956e-13 1.54484e-13 -3.29383e-13 -1.54993e-13 4.41128e-13 -1.64582e-13 -1.18625e-13 -4.11765e-13 -2.64851e-13 -3.69792e-13 1.65132e-13 -9.79542e-14 -5.20715e-13 8.92991e-13 2.00463e-12 1.67569e-11 1.30428e-10 9.44801e-10 6.40079e-09 4.0343e-08 2.35652e-07 1.26998e-06 6.28213e-06 2.83506e-05 0.000115876 0.000425174 0.00138579 0.00396469 0.00984281 0.0210555 0.0389168 0.0631224 0.0921329 0.124277 0.158353 0.193637 0.229728 0.266362 0.303406 0.340804 0.378563 0.416748 0.455331 0.49228 0.528741 0.564013 0.599244 0.633269 0.667408 0.700438 0.732568 0.764888 0.794892 0.824035 0.852324 0.875155 0.896873 0.913245 0.922026 0.92947 0.932291 0.932345 0.932507 0.932467 0.932241 0.931785 0.931178 0.930557 0.930047 0.929644 0.929298 0.928947 0.928525 0.927906 0.926979 0.92688 0.931826 0.929997 0.927361 0.927305 0.927541 0.927701 0.927827 0.927794 0.927649 0.92752 0.927235 0.926304 0.924236 0.920059 0.911665 0.895334 0.865258 0.813825 0.73378 0.622564 0.487496 0.346017 0.219122 0.12166 0.0588593 0.0253094 0.0100665 0.00384004 0.00143454 0.000529628 0.00019388 7.04298e-05 2.53858e-05 9.07478e-06 3.21544e-06 1.12862e-06 3.92206e-07 1.34867e-07 4.5868e-08 1.54223e-08 5.12407e-09 1.68171e-09 5.44826e-10 1.74089e-10 5.49665e-11 1.69799e-11 4.90625e-12 8.91197e-13 -1.98308e-13 1.42958e-13 -2.45631e-13 -6.78021e-13 4.21021e-13 2.5321e-13 -2.13191e-15 5.31906e-13 -2.6595e-13 3.94556e-13 -1.09649e-12 6.20841e-13 -5.80649e-13 -2.33526e-13 -6.46403e-13 -6.8411e-14 -9.41609e-14 -4.40689e-13 -1.02941e-13 -3.86444e-13 -5.40832e-13 7.08793e-13 3.216e-13 -4.77146e-13 3.91851e-13 -2.67767e-13 2.1307e-13 5.82671e-13 2.42017e-13 1.53637e-13 -2.94237e-13 7.09358e-13 0 0 3.94712e-14 7.049e-14 -2.65937e-15 9.1112e-14 2.42608e-14 7.94769e-14 -7.48792e-14 4.02877e-14 4.13319e-14 -9.18924e-14 -1.77639e-14 -1.56161e-13 6.26637e-14 -2.06223e-13 -9.03392e-14 -1.09165e-13 8.54348e-15 7.47381e-14 -1.44762e-13 -4.25321e-14 -6.05256e-14 -2.20575e-14 1.42828e-13 -3.21509e-14 5.77979e-14 3.1013e-13 -2.19586e-13 -3.11311e-13 -1.66105e-13 5.71094e-14 -4.43915e-13 -4.12642e-14 5.11338e-14 -6.2386e-14 -4.32666e-13 6.42335e-14 2.3002e-13 -1.46255e-13 -4.58352e-13 -3.58184e-13 -3.01864e-13 6.80048e-13 -2.98409e-13 3.09723e-13 -1.02643e-13 2.91995e-13 -1.63152e-13 -1.96648e-13 -3.92493e-13 -1.72762e-13 -2.53956e-13 -2.82175e-13 -2.00188e-13 -3.62776e-13 1.12671e-13 1.65968e-13 1.26912e-13 2.32001e-12 1.68919e-11 1.30409e-10 9.44763e-10 6.40024e-09 4.03434e-08 2.35652e-07 1.26998e-06 6.28213e-06 2.83506e-05 0.000115876 0.000425174 0.00138579 0.00396469 0.00984281 0.0210555 0.0389168 0.0631224 0.0921329 0.124277 0.158353 0.193637 0.229728 0.266362 0.303406 0.340804 0.378563 0.416748 0.455331 0.49228 0.528741 0.564013 0.599244 0.633269 0.667408 0.700438 0.732568 0.764888 0.794892 0.824035 0.852324 0.875155 0.896873 0.913245 0.922026 0.92947 0.932291 0.932345 0.932507 0.932467 0.932241 0.931785 0.931178 0.930557 0.930047 0.929644 0.929298 0.928947 0.928525 0.927906 0.926979 0.92688 0.931826 0.929997 0.927361 0.927305 0.927541 0.927701 0.927827 0.927794 0.927649 0.92752 0.927235 0.926304 0.924236 0.920059 0.911665 0.895334 0.865258 0.813825 0.73378 0.622564 0.487496 0.346017 0.219122 0.12166 0.0588593 0.0253094 0.0100665 0.00384004 0.00143454 0.000529628 0.00019388 7.04298e-05 2.53858e-05 9.07478e-06 3.21544e-06 1.12862e-06 3.92205e-07 1.34867e-07 4.58684e-08 1.54216e-08 5.12361e-09 1.68211e-09 5.45229e-10 1.74516e-10 5.46449e-11 1.67184e-11 5.0612e-12 3.87096e-13 1.18289e-12 -2.32363e-13 -4.88859e-13 -4.01158e-13 -4.50658e-13 3.5828e-13 4.49299e-13 7.80248e-13 -4.98457e-13 -5.21601e-13 1.04424e-12 -5.43942e-13 -5.12034e-13 -8.16247e-13 2.90948e-13 -3.71447e-13 2.11314e-13 -7.0127e-13 -8.76262e-13 6.53927e-13 3.60775e-13 -3.40308e-13 -5.23254e-13 -3.42725e-13 -6.76613e-13 4.33343e-13 4.62194e-13 2.64485e-13 -1.72053e-14 -2.89123e-13 7.59428e-13 -6.83359e-13 0
				</DataArray>
				<DataArray Name="VitesseY" type="Float32" format="ascii">