<?xml version="1.0"?>
<VTKFile type="PolyData">
	<PolyData>
		<Piece NumberOfPoints="1206" NumberOfPolys="1000">
			<Points>
				<DataArray type="Float32" NumberOfComponents="3" format="ascii">
 0 0 0 0.005 0 0 0.01 0 0 0.015 0 0 0.02 0 0 0.025 0 0 0.03 0 0 0.035 0 0 0.04 0 0 0.045 0 0 0.05 0 0 0.055 0 0 0.06 0 0 0.065 0 0 0.07 0 0 0.075 0 0 0.08 0 0 0.085 0 0 0.09 0 0 0.095 0 0 0.1 0 0 0.105 0 0 0.11 0 0 0.115 0 0 0.12 0 0 0.125 0 0 0.13 0 0 0.135 0 0 0.14 0 0 0.145 0 0 0.15 0 0 0.155 0 0 0.16 0 0 0.165 0 0 0.17 0 0 0.175 0 0 0.18 0 0 0.185 0 0 0.19 0 0 0.195 0 0 0.2 0 0 0.205 0 0 0.21 0 0 0.215 0 0 0.22 0 0 0.225 0 0 0.23 0 0 0.235 0 0 0.24 0 0 0.245 0 0 0.25 0 0 0.255 0 0 0.26 0 0 0.265 0 0 0.27 0 0 0.275 0 0 0.28 0 0 0.285 0 0 0.29 0 0 0.295 0 0 0.3 0 0 0.305 0 0 0.31 0 0 0.315 0 0 0.32 0 0 0.325 0 0 0.33 0 0 0.335 0 0 0.34 0 0 0.345 0 0 0.35 0 0 0.355 0 0 0.36 0 0 0.365 0 0 0.37 0 0 0.375 0 0 0.38 0 0 0.385 0 0 0.39 0 0 0.395 0 0 0.4 0 0 0.405 0 0 0.41 0 0 0.415 0 0 0.42 0 0 0.425 0 0 0.43 0 0 0.435 0 0 0.44 0 0 0.445 0 0 0.45 0 0 0.455 0 0 0.46 0 0 0.465 0 0 0.47 0 0 0.475 0 0 0.48 0 0 0.485 0 0 0.49 0 0 0.495 0 0 0.5 0 0 0.505 0 0 0.51 0 0 0.515 0 0 0.52 0 0 0.525 0 0 0.53 0 0 0.535 0 0 0.54 0 0 0.545 0 0 0.55 0 0 0.555 0 0 0.56 0 0 0.565 0 0 0.57 0 0 0.575 0 0 0.58 0 0 0.585 0 0 0.59 0 0 0.595 0 0 0.6 0 0 0.605 0 0 0.61 0 0 0.615 0 0 0.62 0 0 0.625 0 0 0.63 0 0 0.635 0 0 0.64 0 0 0.645 0 0 0.65 0 0 0.655 0 0 0.66 0 0 0.665 0 0 0.67 0 0 0.675 0 0 0.68 0 0 0.685 0 0 0.69 0 0 0.695 0 0 0.7 0 0 0.705 0 0 0.71 0 0 0.715 0 0 0.72 0 0 0.725 0 0 0.73 0 0 0.735 0 0 0.74 0 0 0.745 0 0 0.75 0 0 0.755 0 0 0.76 0 0 0.765 0 0 0.77 0 0 0.775 0 0 0.78 0 0 0.785 0 0 0.79 0 0 0.795 0 0 0.8 0 0 0.805 0 0 0.81 0 0 0.815 0 0 0.82 0 0 0.825 0 0 0.83 0 0 0.835 0 0 0.84 0 0 0.845 0 0 0.85 0 0 0.855 0 0 0.86 0 0 0.865 0 0 0.87 0 0 0.875 0 0 0.88 0 0 0.885 0 0 0.89 0 0 0.895 0 0 0.9 0 0 0.905 0 0 0.91 0 0 0.915 0 0 0.92 0 0 0.925 0 0 0.93 0 0 0.935 0 0 0.94 0 0 0.945 0 0 0.95 0 0 0.955 0 0 0.96 0 0 0.965 0 0 0.97 0 0 0.975 0 0 0.98 0 0 0.985 0 0 0.99 0 0 0.995 0 0 1 0 0 0 0.02 0 0.005 0.02 0 0.01 0.02 0 0.015 0.02 0 0.02 0.02 0 0.025 0.02 0 0.03 0.02 0 0.035 0.02 0 0.04 0.02 0 0.045 0.02 0 0.05 0.02 0 0.055 0.02 0 0.06 0.02 0 0.065 0.02 0 0.07 0.02 0 0.075 0.02 0 0.08 0.02 0 0.085 0.02 0 0.09 0.02 0 0.095 0.02 0 0.1 0.02 0 0.105 0.02 0 0.11 0.02 0 0.115 0.02 0 0.12 0.02 0 0.125 0.02 0 0.13 0.02 0 0.135 0.02 0 0.14 0.02 0 0.145 0.02 0 0.15 0.02 0 0.155 0.02 0 0.16 0.02 0 0.165 0.02 0 0.17 0.02 0 0.175 0.02 0 0.18 0.02 0 0.185 0.02 0 0.19 0.02 0 0.195 0.02 0 0.2 0.02 0 0.205 0.02 0 0.21 0.02 0 0.215 0.02 0 0.22 0.02 0 0.225 0.02 0 0.23 0.02 0 0.235 0.02 0 0.24 0.02 0 0.245 0.02 0 0.25 0.02 0 0.255 0.02 0 0.26 0.02 0 0.265 0.02 0 0.27 0.02 0 0.275 0.02 0 0.28 0.02 0 0.285 0.02 0 0.29 0.02 0 0.295 0.02 0 0.3 0.02 0 0.305 0.02 0 0.31 0.02 0 0.315 0.02 0 0.32 0.02 0 0.325 0.02 0 0.33 0.02 0 0.335 0.02 0 0.34 0.02 0 0.345 0.02 0 0.35 0.02 0 0.355 0.02 0 0.36 0.02 0 0.365 0.02 0 0.37 0.02 0 0.375 0.02 0 0.38 0.02 0 0.385 0.02 0 0.39 0.02 0 0.395 0.02 0 0.4 0.02 0 0.405 0.02 0 0.41 0.02 0 0.415 0.02 0 0.42 0.02 0 0.425 0.02 0 0.43 0.02 0 0.435 0.02 0 0.44 0.02 0 0.445 0.02 0 0.45 0.02 0 0.455 0.02 0 0.46 0.02 0 0.465 0.02 0 0.47 0.02 0 0.475 0.02 0 0.48 0.02 0 0.485 0.02 0 0.49 0.02 0 0.495 0.02 0 0.5 0.02 0 0.505 0.02 0 0.51 0.02 0 0.515 0.02 0 0.52 0.02 0 0.525 0.02 0 0.53 0.02 0 0.535 0.02 0 0.54 0.02 0 0.545 0.02 0 0.55 0.02 0 0.555 0.02 0 0.56 0.02 0 0.565 0.02 0 0.57 0.02 0 0.575 0.02 0 0.58 0.02 0 0.585 0.02 0 0.59 0.02 0 0.595 0.02 0 0.6 0.02 0 0.605 0.02 0 0.61 0.02 0 0.615 0.02 0 0.62 0.02 0 0.625 0.02 0 0.63 0.02 0 0.635 0.02 0 0.64 0.02 0 0.645 0.02 0 0.65 0.02 0 0.655 0.02 0 0.66 0.02 0 0.665 0.02 0 0.67 0.02 0 0.675 0.02 0 0.68 0.02 0 0.685 0.02 0 0.69 0.02 0 0.695 0.02 0 0.7 0.02 0 0.705 0.02 0 0.71 0.02 0 0.715 0.02 0 0.72 0.02 0 0.725 0.02 0 0.73 0.02 0 0.735 0.02 0 0.74 0.02 0 0.745 0.02 0 0.75 0.02 0 0.755 0.02 0 0.76 0.02 0 0.765 0.02 0 0.77 0.02 0 0.775 0.02 0 0.78 0.02 0 0.785 0.02 0 0.79 0.02 0 0.795 0.02 0 0.8 0.02 0 0.805 0.02 0 0.81 0.02 0 0.815 0.02 0 0.82 0.02 0 0.825 0.02 0 0.83 0.02 0 0.835 0.02 0 0.84 0.02 0 0.845 0.02 0 0.85 0.02 0 0.855 0.02 0 0.86 0.02 0 0.865 0.02 0 0.87 0.02 0 0.875 0.02 0 0.88 0.02 0 0.885 0.02 0 0.89 0.02 0 0.895 0.02 0 0.9 0.02 0 0.905 0.02 0 0.91 0.02 0 0.915 0.02 0 0.92 0.02 0 0.925 0.02 0 0.93 0.02 0 0.935 0.02 0 0.94 0.02 0 0.945 0.02 0 0.95 0.02 0 0.955 0.02 0 0.96 0.02 0 0.965 0.02 0 0.97 0.02 0 0.975 0.02 0 0.98 0.02 0 0.985 0.02 0 0.99 0.02 0 0.995 0.02 0 1 0.02 0 0 0.04 0 0.005 0.04 0 0.01 0.04 0 0.015 0.04 0 0.02 0.04 0 0.025 0.04 0 0.03 0.04 0 0.035 0.04 0 0.04 0.04 0 0.045 0.04 0 0.05 0.04 0 0.055 0.04 0 0.06 0.04 0 0.065 0.04 0 0.07 0.04 0 0.075 0.04 0 0.08 0.04 0 0.085 0.04 0 0.09 0.04 0 0.095 0.04 0 0.1 0.04 0 0.105 0.04 0 0.11 0.04 0 0.115 0.04 0 0.12 0.04 0 0.125 0.04 0 0.13 0.04 0 0.135 0.04 0 0.14 0.04 0 0.145 0.04 0 0.15 0.04 0 0.155 0.04 0 0.16 0.04 0 0.165 0.04 0 0.17 0.04 0 0.175 0.04 0 0.18 0.04 0 0.185 0.04 0 0.19 0.04 0 0.195 0.04 0 0.2 0.04 0 0.205 0.04 0 0.21 0.04 0 0.215 0.04 0 0.22 0.04 0 0.225 0.04 0 0.23 0.04 0 0.235 0.04 0 0.24 0.04 0 0.245 0.04 0 0.25 0.04 0 0.255 0.04 0 0.26 0.04 0 0.265 0.04 0 0.27 0.04 0 0.275 0.04 0 0.28 0.04 0 0.285 0.04 0 0.29 0.04 0 0.295 0.04 0 0.3 0.04 0 0.305 0.04 0 0.31 0.04 0 0.315 0.04 0 0.32 0.04 0 0.325 0.04 0 0.33 0.04 0 0.335 0.04 0 0.34 0.04 0 0.345 0.04 0 0.35 0.04 0 0.355 0.04 0 0.36 0.04 0 0.365 0.04 0 0.37 0.04 0 0.375 0.04 0 0.38 0.04 0 0.385 0.04 0 0.39 0.04 0 0.395 0.04 0 0.4 0.04 0 0.405 0.04 0 0.41 0.04 0 0.415 0.04 0 0.42 0.04 0 0.425 0.04 0 0.43 0.04 0 0.435 0.04 0 0.44 0.04 0 0.445 0.04 0 0.45 0.04 0 0.455 0.04 0 0.46 0.04 0 0.465 0.04 0 0.47 0.04 0 0.475 0.04 0 0.48 0.04 0 0.485 0.04 0 0.49 0.04 0 0.495 0.04 0 0.5 0.04 0 0.505 0.04 0 0.51 0.04 0 0.515 0.04 0 0.52 0.04 0 0.525 0.04 0 0.53 0.04 0 0.535 0.04 0 0.54 0.04 0 0.545 0.04 0 0.55 0.04 0 0.555 0.04 0 0.56 0.04 0 0.565 0.04 0 0.57 0.04 0 0.575 0.04 0 0.58 0.04 0 0.585 0.04 0 0.59 0.04 0 0.595 0.04 0 0.6 0.04 0 0.605 0.04 0 0.61 0.04 0 0.615 0.04 0 0.62 0.04 0 0.625 0.04 0 0.63 0.04 0 0.635 0.04 0 0.64 0.04 0 0.645 0.04 0 0.65 0.04 0 0.655 0.04 0 0.66 0.04 0 0.665 0.04 0 0.67 0.04 0 0.675 0.04 0 0.68 0.04 0 0.685 0.04 0 0.69 0.04 0 0.695 0.04 0 0.7 0.04 0 0.705 0.04 0 0.71 0.04 0 0.715 0.04 0 0.72 0.04 0 0.725 0.04 0 0.73 0.04 0 0.735 0.04 0 0.74 0.04 0 0.745 0.04 0 0.75 0.04 0 0.755 0.04 0 0.76 0.04 0 0.765 0.04 0 0.77 0.04 0 0.775 0.04 0 0.78 0.04 0 0.785 0.04 0 0.79 0.04 0 0.795 0.04 0 0.8 0.04 0 0.805 0.04 0 0.81 0.04 0 0.815 0.04 0 0.82 0.04 0 0.825 0.04 0 0.83 0.04 0 0.835 0.04 0 0.84 0.04 0 0.845 0.04 0 0.85 0.04 0 0.855 0.04 0 0.86 0.04 0 0.865 0.04 0 0.87 0.04 0 0.875 0.04 0 0.88 0.04 0 0.885 0.04 0 0.89 0.04 0 0.895 0.04 0 0.9 0.04 0 0.905 0.04 0 0.91 0.04 0 0.915 0.04 0 0.92 0.04 0 0.925 0.04 0 0.93 0.04 0 0.935 0.04 0 0.94 0.04 0 0.945 0.04 0 0.95 0.04 0 0.955 0.04 0 0.96 0.04 0 0.965 0.04 0 0.97 0.04 0 0.975 0.04 0 0.98 0.04 0 0.985 0.04 0 0.99 0.04 0 0.995 0.04 0 1 0.04 0 0 0.06 0 0.005 0.06 0 0.01 0.06 0 0.015 0.06 0 0.02 0.06 0 0.025 0.06 0 0.03 0.06 0 0.035 0.06 0 0.04 0.06 0 0.045 0.06 0 0.05 0.06 0 0.055 0.06 0 0.06 0.06 0 0.065 0.06 0 0.07 0.06 0 0.075 0.06 0 0.08 0.06 0 0.085 0.06 0 0.09 0.06 0 0.095 0.06 0 0.1 0.06 0 0.105 0.06 0 0.11 0.06 0 0.115 0.06 0 0.12 0.06 0 0.125 0.06 0 0.13 0.06 0 0.135 0.06 0 0.14 0.06 0 0.145 0.06 0 0.15 0.06 0 0.155 0.06 0 0.16 0.06 0 0.165 0.06 0 0.17 0.06 0 0.175 0.06 0 0.18 0.06 0 0.185 0.06 0 0.19 0.06 0 0.195 0.06 0 0.2 0.06 0 0.205 0.06 0 0.21 0.06 0 0.215 0.06 0 0.22 0.06 0 0.225 0.06 0 0.23 0.06 0 0.235 0.06 0 0.24 0.06 0 0.245 0.06 0 0.25 0.06 0 0.255 0.06 0 0.26 0.06 0 0.265 0.06 0 0.27 0.06 0 0.275 0.06 0 0.28 0.06 0 0.285 0.06 0 0.29 0.06 0 0.295 0.06 0 0.3 0.06 0 0.305 0.06 0 0.31 0.06 0 0.315 0.06 0 0.32 0.06 0 0.325 0.06 0 0.33 0.06 0 0.335 0.06 0 0.34 0.06 0 0.345 0.06 0 0.35 0.06 0 0.355 0.06 0 0.36 0.06 0 0.365 0.06 0 0.37 0.06 0 0.375 0.06 0 0.38 0.06 0 0.385 0.06 0 0.39 0.06 0 0.395 0.06 0 0.4 0.06 0 0.405 0.06 0 0.41 0.06 0 0.415 0.06 0 0.42 0.06 0 0.425 0.06 0 0.43 0.06 0 0.435 0.06 0 0.44 0.06 0 0.445 0.06 0 0.45 0.06 0 0.455 0.06 0 0.46 0.06 0 0.465 0.06 0 0.47 0.06 0 0.475 0.06 0 0.48 0.06 0 0.485 0.06 0 0.49 0.06 0 0.495 0.06 0 0.5 0.06 0 0.505 0.06 0 0.51 0.06 0 0.515 0.06 0 0.52 0.06 0 0.525 0.06 0 0.53 0.06 0 0.535 0.06 0 0.54 0.06 0 0.545 0.06 0 0.55 0.06 0 0.555 0.06 0 0.56 0.06 0 0.565 0.06 0 0.57 0.06 0 0.575 0.06 0 0.58 0.06 0 0.585 0.06 0 0.59 0.06 0 0.595 0.06 0 0.6 0.06 0 0.605 0.06 0 0.61 0.06 0 0.615 0.06 0 0.62 0.06 0 0.625 0.06 0 0.63 0.06 0 0.635 0.06 0 0.64 0.06 0 0.645 0.06 0 0.65 0.06 0 0.655 0.06 0 0.66 0.06 0 0.665 0.06 0 0.67 0.06 0 0.675 0.06 0 0.68 0.06 0 0.685 0.06 0 0.69 0.06 0 0.695 0.06 0 0.7 0.06 0 0.705 0.06 0 0.71 0.06 0 0.715 0.06 0 0.72 0.06 0 0.725 0.06 0 0.73 0.06 0 0.735 0.06 0 0.74 0.06 0 0.745 0.06 0 0.75 0.06 0 0.755 0.06 0 0.76 0.06 0 0.765 0.06 0 0.77 0.06 0 0.775 0.06 0 0.78 0.06 0 0.785 0.06 0 0.79 0.06 0 0.795 0.06 0 0.8 0.06 0 0.805 0.06 0 0.81 0.06 0 0.815 0.06 0 0.82 0.06 0 0.825 0.06 0 0.83 0.06 0 0.835 0.06 0 0.84 0.06 0 0.845 0.06 0 0.85 0.06 0 0.855 0.06 0 0.86 0.06 0 0.865 0.06 0 0.87 0.06 0 0.875 0.06 0 0.88 0.06 0 0.885 0.06 0 0.89 0.06 0 0.895 0.06 0 0.9 0.06 0 0.905 0.06 0 0.91 0.06 0 0.915 0.06 0 0.92 0.06 0 0.925 0.06 0 0.93 0.06 0 0.935 0.06 0 0.94 0.06 0 0.945 0.06 0 0.95 0.06 0 0.955 0.06 0 0.96 0.06 0 0.965 0.06 0 0.97 0.06 0 0.975 0.06 0 0.98 0.06 0 0.985 0.06 0 0.99 0.06 0 0.995 0.06 0 1 0.06 0 0 0.08 0 0.005 0.08 0 0.01 0.08 0 0.015 0.08 0 0.02 0.08 0 0.025 0.08 0 0.03 0.08 0 0.035 0.08 0 0.04 0.08 0 0.045 0.08 0 0.05 0.08 0 0.055 0.08 0 0.06 0.08 0 0.065 0.08 0 0.07 0.08 0 0.075 0.08 0 0.08 0.08 0 0.085 0.08 0 0.09 0.08 0 0.095 0.08 0 0.1 0.08 0 0.105 0.08 0 0.11 0.08 0 0.115 0.08 0 0.12 0.08 0 0.125 0.08 0 0.13 0.08 0 0.135 0.08 0 0.14 0.08 0 0.145 0.08 0 0.15 0.08 0 0.155 0.08 0 0.16 0.08 0 0.165 0.08 0
[...]
			<PointData Scalars="VitesseX">
				<DataArray Name="VitesseX" type="Float32" format="ascii">
 0 -1.58705e-14 9.61168e-15 -6.01835e-14 3.81952e-14 -7.05059e-14 -2.25163e-14 -2.96915e-14 -5.42325e-14 -3.02535e-14 -4.65555e-14 -1.62043e-14 -1.64855e-13 -5.50375e-14 -8.44526e-14 -1.68868e-13 1.37086e-13 -2.32978e-13 4.00237e-14 -1.53391e-13 7.13159e-14 -2.80459e-13 -8.63481e-14 -2.30596e-14 -1.5213e-13 -3.25907e-14 -2.02782e-13 1.26123e-13 -2.50421e-13 6.06503e-14 1.77647e-14 -1.91416e-13 5.87905e-14 1.08501e-14 -3.6673e-13 -2.20563e-13 -5.48384e-14 -6.23149e-14 -1.74925e-13 -9.03521e-14 -3.01687e-13 -4.98516e-13 -1.56847e-13 2.21491e-13 -1.7845e-13 1.47825e-13 -8.61876e-15 -1.89347e-13 -5.12727e-14 1.92338e-13 5.29696e-14 1.1856e-13 -1.0853e-13 -5.98413e-13 -2.2165e-13 -2.62121e-13 -3.53684e-13 -1.41516e-15 2.02257e-12 1.62108e-11 1.25083e-10 9.11667e-10 6.18695e-09 3.90621e-08 2.28572e-07 1.23405e-06 6.11584e-06 2.76542e-05 0.000113262 0.00041649 0.00136065 0.00390242 0.00971335 0.0208323 0.0385958 0.0627261 0.0916929 0.123819 0.157893 0.193184 0.229287 0.265937 0.302998 0.340415 0.378192 0.416394 0.454999 0.491993 0.528473 0.563788 0.599044 0.633095 0.667275 0.700316 0.732479 0.764824 0.794834 0.824038 0.852319 0.87515 0.896919 0.91321 0.921997 0.929465 0.932239 0.932298 0.932476 0.932438 0.932213 0.931757 0.931152 0.930536 0.930032 0.929632 0.929288 0.928938 0.928515 0.927893 0.926957 0.926913 0.931864 0.929941 0.927351 0.927307 0.927542 0.927701 0.927826 0.927793 0.927648 0.927517 0.927226 0.92628 0.924187 0.919959 0.911461 0.894937 0.864524 0.812555 0.73175 0.619625 0.483774 0.341977 0.215471 0.118943 0.0572292 0.0245092 0.00972563 0.00370569 0.00138349 0.000510572 0.000186839 6.78484e-05 2.44464e-05 8.73547e-06 3.09389e-06 1.08546e-06 3.7702e-07 1.29578e-07 4.40458e-08 1.48005e-08 4.91499e-09 1.612e-09 5.21914e-10 1.66628e-10 5.24209e-11 1.58736e-11 4.63599e-12 1.69466e-12 -5.05761e-14 -6.48609e-13 -2.6158e-13 -1.01045e-13 -4.63307e-13 1.8841e-13 -2.56339e-13 -5.65041e-13 -2.21789e-13 1.881e-13 1.29533e-15 7.71096e-14 8.93423e-14 -2.41447e-13 -2.12518e-13 -3.04978e-13 2.10536e-13 -9.68676e-13 2.80969e-13 7.45508e-14 3.44416e-13 -6.6261e-13 -2.51403e-13 2.58999e-13 3.01759e-13 7.21817e-13 3.68249e-13 2.65239e-13 5.04161e-13 5.09554e-13 -6.27288e-13 -1.22936e-13 0 0 -6.36184e-15 -2.75052e-14 1.80862e-14 -4.3572e-14 3.58127e-14 -7.20351e-15 -2.55539e-14 -4.57326e-14 -4.46299e-14 -5.9475e-14 -1.00564e-13 3.51265e-14 -8.26045e-14 -1.30138e-13 -1.84682e-14 -2.18402e-13 5.67183e-14 -1.63739e-13 1.48203e-14 -2.68722e-13 7.30064e-14 -1.55601e-13 -2.11348e-13 4.9437e-14 -9.12293e-14 -1.52096e-14 -2.97596e-13 5.64164e-14 -4.78748e-14 -5.93204e-14 1.81067e-13 -1.83498e-13 -2.57499e-13 3.92385e-14 -1.56048e-13 -1.77862e-13 -2.17186e-13 -6.80047e-14 -2.1957e-13 -2.53288e-13 -1.45199e-13 -8.21003e-15 -2.15248e-13 8.07531e-14 1.71607e-14 -5.74771e-14 1.79488e-13 2.23549e-15 3.7161e-14 -1.11664e-13 -3.78537e-13 -3.76804e-13 1.33104e-13 -3.51008e-13 -1.26143e-13 -2.71203e-13 -9.72727e-14 2.0813e-12 1.61916e-11 1.25307e-10 9.11755e-10 6.18668e-09 3.90626e-08 2.28571e-07 1.23405e-06 6.11584e-06 2.76542e-05 0.000113262 0.00041649 0.00136065 0.00390242 0.00971335 0.0208323 0.0385958 0.0627261 0.0916929 0.123819 0.157893 0.193184 0.229287 0.265937 0.302998 0.340415 0.378192 0.416394 0.454999 0.491993 0.528473 0.563788 0.599044 0.633095 0.667275 0.700316 0.732479 0.764824 0.794834 0.824038 0.852319 0.87515 0.896919 0.91321 0.921997 0.929465 0.932239 0.932298 0.932476 0.932438 0.932213 0.931757 0.931152 0.930536 0.930032 0.929632 0.929288 0.928938 0.928515 0.927893 0.926957 0.926913 0.931864 0.929941 0.927351 0.927307 0.927542 0.927701 0.927826 0.927793 0.927648 0.927517 0.927226 0.92628 0.924187 0.919959 0.911461 0.894937 0.864524 0.812555 0.73175 0.619625 0.483774 0.341977 0.215471 0.118943 0.0572292 0.0245092 0.00972563 0.00370569 0.00138349 0.000510572 0.000186839 6.78484e-05 2.44464e-05 8.73547e-06 3.09389e-06 1.08546e-06 3.77021e-07 1.29578e-07 4.40453e-08 1.48011e-08 4.91463e-09 1.61207e-09 5.22033e-10 1.66823e-10 5.23045e-11 1.60093e-11 4.46059e-12 7.97984e-13 2.1478e-13 -2.32636e-13 -9.1334e-14 -6.58621e-13 3.17716e-13 -7.59047e-13 -1.42643e-13 -1.89991e-13 -3.29661e-13 -5.79669e-15 2.12714e-13 -1.27549e-13 1.37358e-13 -1.70822e-13 1.13633e-13 9.26171e-14 -8.84242e-13 4.39942e-13 -5.46257e-13 2.70934e-14 -4.02553e-13 5.02208e-14 -3.52231e-14 9.80424e-14 3.53702e-13 1.5477e-13 2.62615e-13 4.24823e-13 9.43421e-14 -2.39138e-13 7.17583e-13 -1.68442e-13 0 0 7.13702e-15 -1.49333e-15 2.9414e-14 2.30942e-14 9.18165e-15 3.94356e-14 -1.06321e-14 2.19369e-14 -1.06652e-14 -7.48034e-14 -3.83802e-14 -1.17875e-13 -9.2258e-14 -1.73351e-14 -6.0171e-14 -2.76131e-14 -2.63783e-13 4.23699e-14 -1.61116e-13 -8.79202e-14 -1.56703e-13 -1.23701e-13 -5.84415e-14 -2.47941e-13 -8.60707e-14 -1.04519e-14 -6.10314e-14 -1.35222e-13 -2.84959e-14 6.08376e-14 -1.61155e-13 1.09871e-13 -3.77765e-14 -2.87723e-13 -3.03371e-13 -1.40201e-13 -1.93242e-14 -1.92433e-13 -2.58626e-13 -1.00765e-13 -6.60211e-14 5.37254e-14 1.64664e-13 -1.60315e-13 -6.07003e-14 7.54523e-14 -1.78855e-13 -3.12444e-14 -2.18556e-13 -6.87384e-14 1.2475e-13 -1.24646e-13 -5.29858e-13 -1.35407e-13 -1.50361e-13 -3.02507e-13 2.51111e-13 2.39405e-12 1.61431e-11 1.25581e-10 9.11599e-10 6.18714e-09 3.90625e-08 2.28571e-07 1.23405e-06 6.11584e-06 2.76542e-05 0.000113262 0.00041649 0.00136065 0.00390242 0.00971335 0.0208323 0.0385958 0.0627261 0.0916929 0.123819 0.157893 0.193184 0.229287 0.265937 0.302998 0.340415 0.378192 0.416394 0.454999 0.491993 0.528473 0.563788 0.599044 0.633095 0.667275 0.700316 0.732479 0.764824 0.794834 0.824038 0.852319 0.87515 0.896919 0.91321 0.921997 0.929465 0.932239 0.932298 0.932476 0.932438 0.932213 0.931757 0.931152 0.930536 0.930032 0.929632 0.929288 0.928938 0.928515 0.927893 0.926957 0.926913 0.931864 0.929941 0.927351 0.927307 0.927542 0.927701 0.927826 0.927793 0.927648 0.927517 0.927226 0.92628 0.924187 0.919959 0.911461 0.894937 0.864524 0.812555 0.73175 0.619625 0.483774 0.341977 0.215471 0.118943 0.0572292 0.0245092 0.00972563 0.00370569 0.00138349 0.000510572 0.000186839 6.78484e-05 2.44464e-05 8.73547e-06 3.09389e-06 1.08546e-06 3.77021e-07 1.29578e-07 4.40455e-08 1.48008e-08 4.9148e-09 1.61206e-09 5.22198e-10 1.66603e-10 5.23635e-11 1.58483e-11 4.61683e-12 1.07409e-12 -1.70023e-13 -2.41504e-13 -4.01269e-13 -3.40737e-13 -3.46072e-13 -3.59591e-14 -4.79028e-13 -2.21655e-13 1.14784e-13 -6.02836e-13 6.09994e-13 3.04885e-13 -1.69465e-13 3.63803e-14 -1.03798e-14 -5.06882e-13 4.6892e-14 -3.01539e-13 2.34058e-13 -4.42425e-13 -2.27979e-13 -2.32368e-13 -7.64068e-14 -1.79109e-13 4.74413e-13 3.79115e-13 -2.42408e-13 3.99623e-13 -1.35026e-13 3.53704e-13 5.51505e-14 -9.23918e-13 0 0 9.795e-15 3.92881e-14 2.29173e-14 6.83889e-14 3.52157e-14 5.55388e-14 -1.5228e-14 -1.57972e-14 2.38048e-14 -4.89312e-14 -4.27711e-14 -6.13509e-14 -8.05591e-14 -1.27238e-13 -4.28525e-14 -3.1637e-14 -1.84094e-13 -1.45532e-13 -1.51582e-13 -8.71795e-14 -1.54782e-13 -4.0949e-14 -1.6997e-13 -7.61665e-14 -3.95273e-14 -1.89155e-13 -1.27063e-13 -1.88047e-13 6.74101e-14 4.15919e-14 -1.56431e-13 -6.53531e-14 4.28504e-14 -2.14641e-13 -1.84045e-13 -2.28578e-13 -1.79708e-13 -3.04675e-13 -4.63827e-14 -7.76088e-14 -1.85241e-13 4.44047e-14 -6.18105e-14 -6.3467e-14 -1.91509e-13 -7.69442e-14 -2.42737e-13 1.37069e-13 1.03786e-13 -1.57295e-13 8.10701e-14 -1.04305e-13 -1.18877e-13 -2.73148e-13 -3.60666e-13 1.96385e-13 -8.73797e-14 2.40028e-12 1.64869e-11 1.25377e-10 9.12106e-10 6.18708e-09 3.90623e-08 2.28571e-07 1.23405e-06 6.11584e-06 2.76542e-05 0.000113262 0.00041649 0.00136065 0.00390242 0.00971335 0.0208323 0.0385958 0.0627261 0.0916929 0.123819 0.157893 0.193184 0.229287 0.265937 0.302998 0.340415 0.378192 0.416394 0.454999 0.491993 0.528473 0.563788 0.599044 0.633095 0.667275 0.700316 0.732479 0.764824 0.794834 0.824038 0.852319 0.87515 0.896919 0.91321 0.921997 0.929465 0.932239 0.932298 0.932476 0.932438 0.932213 0.931757 0.931152 0.930536 0.930032 0.929632 0.929288 0.928938 0.928515 0.927893 0.926957 0.926913 0.931864 0.929941 0.927351 0.927307 0.927542 0.927701 0.927826 0.927793 0.927648 0.927517 0.927226 0.92628 0.924187 0.919959 0.911461 0.894937 0.864524 0.812555 0.73175 0.619625 0.483774 0.341977 0.215471 0.118943 0.0572292 0.0245092 0.00972563 0.00370569 0.00138349 0.000510572 0.000186839 6.78484e-05 2.44464e-05 8.73547e-06 3.09389e-06 1.08546e-06 3.77021e-07 1.29578e-07 4.40458e-08 1.48004e-08 4.91491e-09 1.61192e-09 5.2178e-10 1.67024e-10 5.20384e-11 1.57965e-11 4.44827e-12 1.21995e-12 -5.48013e-14 -3.88917e-13 -2.25539e-13 -2.61743e-13 -2.97177e-13 -7.41565e-14 -1.83721e-13 -6.6732e-13 1.82071e-13 3.03633e-13 2.78304e-13 3.39576e-13 2.18514e-13 -4.65037e-13 -2.19136e-13 -2.27094e-13 -2.49958e-13 -4.74961e-13 -3.758e-13 8.22449e-14 -3.25512e-13 -4.74549e-13 4.86321e-13 -3.07545e-13 3.26941e-13 4.25186e-13 8.90486e-13 1.77835e-13 3.20487e-13 -1.92343e-13 -9.22665e-13 2.95497e-13 0 0 1.69641e-14 2.87846e-14 5.04264e-14 4.51261e-15 7.38447e-14 8.9273e-15 3.707e-15 -3.67822e-14 1.21372e-14 -6.70015e-14 -1.02347e-13 1.04726e-13 -6.07393e-14 -2.578e-13 -3.21408e-14 -2.53913e-13 7.5082e-14 -2.05686e-13 -4.13012e-15 -2.48772e-13 7.47387e-14 -4.66201e-14 -2.4652e-13 1.49876e-13 -4.07419e-14 -6.57189e-14 -3.05985e-13 2.09635e-15 -1.49919e-13 -6.92848e-14 6.24377e-14 -2.96721e-13 -1.45281e-13 1.81811e-13 -1.85818e-13 -8.93371e-14 -1.86604e-13 -1.7853e-13 -1.59356e-13 -2.9222e-13 -1.84488e-13 2.80657e-14 -4.01423e-13 1.9571e-13 -1.72626e-13 -2.50302e-13 7.13149e-14 5.50056e-14 1.59259e-15 -2.60921e-13 -4.25564e-13 -3.61267e-13 5.07258e-13 -3.61241e-13 -2.61857e-13 1.20149e-13 -4.3531e-14 2.1558e-12 1.64712e-11 1.25465e-10 9.122e-10 6.18685e-09 3.90626e-08 2.28571e-07 1.23405e-06 6.11584e-06 2.76542e-05 0.000113262 0.00041649 0.00136065 0.00390242 0.00971335 0.0208323 0.0385958 0.0627261 0.0916929 0.123819 0.157893 0.193184 0.229287 0.265937 0.302998 0.340415 0.378192 0.416394 0.454999 0.491993 0.528473 0.563788 0.599044 0.633095 0.667275 0.700316 0.732479 0.764824 0.794834 0.824038 0.852319 0.87515 0.896919 0.91321 0.921997 0.929465 0.932239 0.932298 0.932476 0.932438 0.932213 0.931757 0.931152 0.930536 0.930032 0.929632 0.929288 0.928938 0.928515 0.927893 0.926957 0.926913 0.931864 0.929941 0.927351 0.927307 0.927542 0.927701 0.927826 0.927793 0.927648 0.927517 0.927226 0.92628 0.924187 0.919959 0.911461 0.894937 0.864524 0.812555 0.73175 0.619625 0.483774 0.341977 0.215471 0.118943 0.0572292 0.0245092 0.00972563 0.00370569 0.00138349 0.000510572 0.000186839 6.78484e-05 2.44464e-05 8.73547e-06 3.09389e-06 1.08546e-06 3.77021e-07 1.29578e-07 4.40455e-08 1.48008e-08 4.9144e-09 1.61175e-09 5.21863e-10 1.66828e-10 5.2098e-11 1.55612e-11 4.27081e-12 9.37195e-13 -2.22831e-13 -3.14802e-13 -1.69189e-13 -3.86432e-13 4.92056e-13 -3.83061e-13 1.34455e-13 -6.05227e-14 -2.05626e-13 4.01535e-13 -1.99425e-13 -1.58124e-13 5.43382e-13 -5.27929e-13 -4.62706e-13 2.68437e-13 -9.10314e-13 2.80376e-13 -6.86862e-13 1.65018e-13 -7.23061e-13 2.45882e-13 5.00384e-13 -3.38237e-14 -1.03353e-13 -2.47611e-13 1.07948e-12 1.64713e-13 3.24309e-13 -7.40945e-13 2.02205e-13 7.03973e-13 0 0 2.54653e-14 4.06284e-14 1.74902e-14 4.3775e-14 -4.65101e-14 -2.2461e-14 3.80221e-14 3.91365e-14 1.43407e-14 -1.13353e-13 -1.09883e-14 -1.38704e-13 -3.4705e-14 -1.19969e-13 -2.30851e-13 7.41129e-14 -3.55628e-13 3.31932e-13 -2.10359e-13 1.09734e-13 -2.80837e-13 -3.38899e-14 1.29652e-13 -2.948e-13 -2.47027e-14 5.36045e-14 2.41409e-13 -2.53409e-13 -3.3525e-13 3.63274e-14 -4.38123e-13 1.82791e-13 7.40328e-14 -2.2775e-13 -5.18755e-13 2.98966e-13 3.19616e-13 -1.71493e-13 -3.94412e-13 -4.25864e-13 -3.38654e-13 -6.56537e-14 3.02091e-13 -1.4223e-13 2.98694e-14 -8.94762e-14 -2.7793e-13 -2.8236e-13 -5.23484e-13 -6.84318e-14 1.11868e-13 -1.1814e-13 -6.72064e-13 3.33678e-14 -1.1294e-13 -5.68763e-13 7.8305e-13 2.1591e-12 1.60823e-11 1.25805e-10 9.11542e-10 6.18739e-09 3.90626e-08 2.28572e-07 1.23405e-06 6.11584e-06 2.76542e-05 0.000113262 0.00041649 0.00136065 0.00390242 0.00971335 0.0208323 0.0385958 0.0627261 0.0916929 0.123819 0.157893 0.193184 0.229287 0.265937 0.302998 0.340415 0.378192 0.416394 0.454999 0.491993 0.528473 0.563788 0.599044 0.633095 0.667275 0.700316 0.732479 0.764824 0.794834 0.824038 0.852319 0.87515 0.896919 0.91321 0.921997 0.929465 0.932239 0.932298 0.932476 0.932438 0.932213 0.931757 0.931152 0.930536 0.930032 0.929632 0.929288 0.928938 0.928515 0.927893 0.926957 0.926913 0.931864 0.929941 0.927351 0.927307 0.927542 0.927701 0.927826 0.927793 0.927648 0.927517 0.927226 0.92628 0.924187 0.919959 0.911461 0.894937 0.864524 0.812555 0.73175 0.619625 0.483774 0.341977 0.215471 0.118943 0.0572292 0.0245092 0.00972563 0.00370569 0.00138349 0.000510572 0.000186839 6.78484e-05 2.44464e-05 8.73547e-06 3.09389e-06 1.08546e-06 3.77021e-07 1.29578e-07 4.40455e-08 1.48008e-08 4.91431e-09 1.61165e-09 5.2241e-10 1.65795e-10 5.26581e-11 1.50809e-11 4.59354e-12 1.68136e-12 -1.15624e-12 -5.18116e-13 -7.68749e-13 2.85344e-13 -2.12418e-13 1.01678e-12 -2.92759e-13 5.85227e-13 -1.08292e-13 -8.10175e-13 -1.59602e-13 -5.34237e-14 1.25432e-13 4.71741e-14 -9.47684e-13 -5.12915e-13 7.52092e-13 -9.40967e-13 1.21947e-12 -6.98941e-13 -1.01534e-13 2.13074e-13 -3.05645e-13 2.52139e-13 -3.17406e-13 -1.75089e-13 -2.6381e-13 1.88593e-13 5.30673e-14 5.98033e-13 2.97587e-13 -8.16935e-13 0
				</DataArray>
				<DataArray Name="VitesseY" type="Float32" format="ascii">