<?xml version="1.0"?>
<VTKFile type="PolyData">
	<PolyData>
		<Piece NumberOfPoints="1206" NumberOfPolys="1000">
			<Points>
				<DataArray type="Float32" NumberOfComponents="3" format="ascii">
 0 0 0 0.005 0 0 0.01 0 0 0.015 0 0 0.02 0 0 0.025 0 0 0.03 0 0 0.035 0 0 0.04 0 0 0.045 0 0 0.05 0 0 0.055 0 0 0.06 0 0 0.065 0 0 0.07 0 0 0.075 0 0 0.08 0 0 0.085 0 0 0.09 0 0 0.095 0 0 0.1 0 0 0.105 0 0 0.11 0 0 0.115 0 0 0.12 0 0 0.125 0 0 0.13 0 0 0.135 0 0 0.14 0 0 0.145 0 0 0.15 0 0 0.155 0 0 0.16 0 0 0.165 0 0 0.17 0 0 0.175 0 0 0.18 0 0 0.185 0 0 0.19 0 0 0.195 0 0 0.2 0 0 0.205 0 0 0.21 0 0 0.215 0 0 0.22 0 0 0.225 0 0 0.23 0 0 0.235 0 0 0.24 0 0 0.245 0 0 0.25 0 0 0.255 0 0 0.26 0 0 0.265 0 0 0.27 0 0 0.275 0 0 0.28 0 0 0.285 0 0 0.29 0 0 0.295 0 0 0.3 0 0 0.305 0 0 0.31 0 0 0.315 0 0 0.32 0 0 0.325 0 0 0.33 0 0 0.335 0 0 0.34 0 0 0.345 0 0 0.35 0 0 0.355 0 0 0.36 0 0 0.365 0 0 0.37 0 0 0.375 0 0 0.38 0 0 0.385 0 0 0.39 0 0 0.395 0 0 0.4 0 0 0.405 0 0 0.41 0 0 0.415 0 0 0.42 0 0 0.425 0 0 0.43 0 0 0.435 0 0 0.44 0 0 0.445 0 0 0.45 0 0 0.455 0 0 0.46 0 0 0.465 0 0 0.47 0 0 0.475 0 0 0.48 0 0 0.485 0 0 0.49 0 0 0.495 0 0 0.5 0 0 0.505 0 0 0.51 0 0 0.515 0 0 0.52 0 0 0.525 0 0 0.53 0 0 0.535 0 0 0.54 0 0 0.545 0 0 0.55 0 0 0.555 0 0 0.56 0 0 0.565 0 0 0.57 0 0 0.575 0 0 0.58 0 0 0.585 0 0 0.59 0 0 0.595 0 0 0.6 0 0 0.605 0 0 0.61 0 0 0.615 0 0 0.62 0 0 0.625 0 0 0.63 0 0 0.635 0 0 0.64 0 0 0.645 0 0 0.65 0 0 0.655 0 0 0.66 0 0 0.665 0 0 0.67 0 0 0.675 0 0 0.68 0 0 0.685 0 0 0.69 0 0 0.695 0 0 0.7 0 0 0.705 0 0 0.71 0 0 0.715 0 0 0.72 0 0 0.725 0 0 0.73 0 0 0.735 0 0 0.74 0 0 0.745 0 0 0.75 0 0 0.755 0 0 0.76 0 0 0.765 0 0 0.77 0 0 0.775 0 0 0.78 0 0 0.785 0 0 0.79 0 0 0.795 0 0 0.8 0 0 0.805 0 0 0.81 0 0 0.815 0 0 0.82 0 0 0.825 0 0 0.83 0 0 0.835 0 0 0.84 0 0 0.845 0 0 0.85 0 0 0.855 0 0 0.86 0 0 0.865 0 0 0.87 0 0 0.875 0 0 0.88 0 0 0.885 0 0 0.89 0 0 0.895 0 0 0.9 0 0 0.905 0 0 0.91 0 0 0.915 0 0 0.92 0 0 0.925 0 0 0.93 0 0 0.935 0 0 0.94 0 0 0.945 0 0 0.95 0 0 0.955 0 0 0.96 0 0 0.965 0 0 0.97 0 0 0.975 0 0 0.98 0 0 0.985 0 0 0.99 0 0 0.995 0 0 1 0 0 0 0.02 0 0.005 0.02 0 0.01 0.02 0 0.015 0.02 0 0.02 0.02 0 0.025 0.02 0 0.03 0.02 0 0.035 0.02 0 0.04 0.02 0 0.045 0.02 0 0.05 0.02 0 0.055 0.02 0 0.06 0.02 0 0.065 0.02 0 0.07 0.02 0 0.075 0.02 0 0.08 0.02 0 0.085 0.02 0 0.09 0.02 0 0.095 0.02 0 0.1 0.02 0 0.105 0.02 0 0.11 0.02 0 0.115 0.02 0 0.12 0.02 0 0.125 0.02 0 0.13 0.02 0 0.135 0.02 0 0.14 0.02 0 0.145 0.02 0 0.15 0.02 0 0.155 0.02 0 0.16 0.02 0 0.165 0.02 0 0.17 0.02 0 0.175 0.02 0 0.18 0.02 0 0.185 0.02 0 0.19 0.02 0 0.195 0.02 0 0.2 0.02 0 0.205 0.02 0 0.21 0.02 0 0.215 0.02 0 0.22 0.02 0 0.225 0.02 0 0.23 0.02 0 0.235 0.02 0 0.24 0.02 0 0.245 0.02 0 0.25 0.02 0 0.255 0.02 0 0.26 0.02 0 0.265 0.02 0 0.27 0.02 0 0.275 0.02 0 0.28 0.02 0 0.285 0.02 0 0.29 0.02 0 0.295 0.02 0 0.3 0.02 0 0.305 0.02 0 0.31 0.02 0 0.315 0.02 0 0.32 0.02 0 0.325 0.02 0 0.33 0.02 0 0.335 0.02 0 0.34 0.02 0 0.345 0.02 0 0.35 0.02 0 0.355 0.02 0 0.36 0.02 0 0.365 0.02 0 0.37 0.02 0 0.375 0.02 0 0.38 0.02 0 0.385 0.02 0 0.39 0.02 0 0.395 0.02 0 0.4 0.02 0 0.405 0.02 0 0.41 0.02 0 0.415 0.02 0 0.42 0.02 0 0.425 0.02 0 0.43 0.02 0 0.435 0.02 0 0.44 0.02 0 0.445 0.02 0 0.45 0.02 0 0.455 0.02 0 0.46 0.02 0 0.465 0.02 0 0.47 0.02 0 0.475 0.02 0 0.48 0.02 0 0.485 0.02 0 0.49 0.02 0 0.495 0.02 0 0.5 0.02 0 0.505 0.02 0 0.51 0.02 0 0.515 0.02 0 0.52 0.02 0 0.525 0.02 0 0.53 0.02 0 0.535 0.02 0 0.54 0.02 0 0.545 0.02 0 0.55 0.02 0 0.555 0.02 0 0.56 0.02 0 0.565 0.02 0 0.57 0.02 0 0.575 0.02 0 0.58 0.02 0 0.585 0.02 0 0.59 0.02 0 0.595 0.02 0 0.6 0.02 0 0.605 0.02 0 0.61 0.02 0 0.615 0.02 0 0.62 0.02 0 0.625 0.02 0 0.63 0.02 0 0.635 0.02 0 0.64 0.02 0 0.645 0.02 0 0.65 0.02 0 0.655 0.02 0 0.66 0.02 0 0.665 0.02 0 0.67 0.02 0 0.675 0.02 0 0.68 0.02 0 0.685 0.02 0 0.69 0.02 0 0.695 0.02 0 0.7 0.02 0 0.705 0.02 0 0.71 0.02 0 0.715 0.02 0 0.72 0.02 0 0.725 0.02 0 0.73 0.02 0 0.735 0.02 0 0.74 0.02 0 0.745 0.02 0 0.75 0.02 0 0.755 0.02 0 0.76 0.02 0 0.765 0.02 0 0.77 0.02 0 0.775 0.02 0 0.78 0.02 0 0.785 0.02 0 0.79 0.02 0 0.795 0.02 0 0.8 0.02 0 0.805 0.02 0 0.81 0.02 0 0.815 0.02 0 0.82 0.02 0 0.825 0.02 0 0.83 0.02 0 0.835 0.02 0 0.84 0.02 0 0.845 0.02 0 0.85 0.02 0 0.855 0.02 0 0.86 0.02 0 0.865 0.02 0 0.87 0.02 0 0.875 0.02 0 0.88 0.02 0 0.885 0.02 0 0.89 0.02 0 0.895 0.02 0 0.9 0.02 0 0.905 0.02 0 0.91 0.02 0 0.915 0.02 0 0.92 0.02 0 0.925 0.02 0 0.93 0.02 0 0.935 0.02 0 0.94 0.02 0 0.945 0.02 0 0.95 0.02 0 0.955 0.02 0 0.96 0.02 0 0.965 0.02 0 0.97 0.02 0 0.975 0.02 0 0.98 0.02 0 0.985 0.02 0 0.99 0.02 0 0.995 0.02 0 1 0.02 0 0 0.04 0 0.005 0.04 0 0.01 0.04 0 0.015 0.04 0 0.02 0.04 0 0.025 0.04 0 0.03 0.04 0 0.035 0.04 0 0.04 0.04 0 0.045 0.04 0 0.05 0.04 0 0.055 0.04 0 0.06 0.04 0 0.065 0.04 0 0.07 0.04 0 0.075 0.04 0 0.08 0.04 0 0.085 0.04 0 0.09 0.04 0 0.095 0.04 0 0.1 0.04 0 0.105 0.04 0 0.11 0.04 0 0.115 0.04 0 0.12 0.04 0 0.125 0.04 0 0.13 0.04 0 0.135 0.04 0 0.14 0.04 0 0.145 0.04 0 0.15 0.04 0 0.155 0.04 0 0.16 0.04 0 0.165 0.04 0 0.17 0.04 0 0.175 0.04 0 0.18 0.04 0 0.185 0.04 0 0.19 0.04 0 0.195 0.04 0 0.2 0.04 0 0.205 0.04 0 0.21 0.04 0 0.215 0.04 0 0.22 0.04 0 0.225 0.04 0 0.23 0.04 0 0.235 0.04 0 0.24 0.04 0 0.245 0.04 0 0.25 0.04 0 0.255 0.04 0 0.26 0.04 0 0.265 0.04 0 0.27 0.04 0 0.275 0.04 0 0.28 0.04 0 0.285 0.04 0 0.29 0.04 0 0.295 0.04 0 0.3 0.04 0 0.305 0.04 0 0.31 0.04 0 0.315 0.04 0 0.32 0.04 0 0.325 0.04 0 0.33 0.04 0 0.335 0.04 0 0.34 0.04 0 0.345 0.04 0 0.35 0.04 0 0.355 0.04 0 0.36 0.04 0 0.365 0.04 0 0.37 0.04 0 0.375 0.04 0 0.38 0.04 0 0.385 0.04 0 0.39 0.04 0 0.395 0.04 0 0.4 0.04 0 0.405 0.04 0 0.41 0.04 0 0.415 0.04 0 0.42 0.04 0 0.425 0.04 0 0.43 0.04 0 0.435 0.04 0 0.44 0.04 0 0.445 0.04 0 0.45 0.04 0 0.455 0.04 0 0.46 0.04 0 0.465 0.04 0 0.47 0.04 0 0.475 0.04 0 0.48 0.04 0 0.485 0.04 0 0.49 0.04 0 0.495 0.04 0 0.5 0.04 0 0.505 0.04 0 0.51 0.04 0 0.515 0.04 0 0.52 0.04 0 0.525 0.04 0 0.53 0.04 0 0.535 0.04 0 0.54 0.04 0 0.545 0.04 0 0.55 0.04 0 0.555 0.04 0 0.56 0.04 0 0.565 0.04 0 0.57 0.04 0 0.575 0.04 0 0.58 0.04 0 0.585 0.04 0 0.59 0.04 0 0.595 0.04 0 0.6 0.04 0 0.605 0.04 0 0.61 0.04 0 0.615 0.04 0 0.62 0.04 0 0.625 0.04 0 0.63 0.04 0 0.635 0.04 0 0.64 0.04 0 0.645 0.04 0 0.65 0.04 0 0.655 0.04 0 0.66 0.04 0 0.665 0.04 0 0.67 0.04 0 0.675 0.04 0 0.68 0.04 0 0.685 0.04 0 0.69 0.04 0 0.695 0.04 0 0.7 0.04 0 0.705 0.04 0 0.71 0.04 0 0.715 0.04 0 0.72 0.04 0 0.725 0.04 0 0.73 0.04 0 0.735 0.04 0 0.74 0.04 0 0.745 0.04 0 0.75 0.04 0 0.755 0.04 0 0.76 0.04 0 0.765 0.04 0 0.77 0.04 0 0.775 0.04 0 0.78 0.04 0 0.785 0.04 0 0.79 0.04 0 0.795 0.04 0 0.8 0.04 0 0.805 0.04 0 0.81 0.04 0 0.815 0.04 0 0.82 0.04 0 0.825 0.04 0 0.83 0.04 0 0.835 0.04 0 0.84 0.04 0 0.845 0.04 0 0.85 0.04 0 0.855 0.04 0 0.86 0.04 0 0.865 0.04 0 0.87 0.04 0 0.875 0.04 0 0.88 0.04 0 0.885 0.04 0 0.89 0.04 0 0.895 0.04 0 0.9 0.04 0 0.905 0.04 0 0.91 0.04 0 0.915 0.04 0 0.92 0.04 0 0.925 0.04 0 0.93 0.04 0 0.935 0.04 0 0.94 0.04 0 0.945 0.04 0 0.95 0.04 0 0.955 0.04 0 0.96 0.04 0 0.965 0.04 0 0.97 0.04 0 0.975 0.04 0 0.98 0.04 0 0.985 0.04 0 0.99 0.04 0 0.995 0.04 0 1 0.04 0 0 0.06 0 0.005 0.06 0 0.01 0.06 0 0.015 0.06 0 0.02 0.06 0 0.025 0.06 0 0.03 0.06 0 0.035 0.06 0 0.04 0.06 0 0.045 0.06 0 0.05 0.06 0 0.055 0.06 0 0.06 0.06 0 0.065 0.06 0 0.07 0.06 0 0.075 0.06 0 0.08 0.06 0 0.085 0.06 0 0.09 0.06 0 0.095 0.06 0 0.1 0.06 0 0.105 0.06 0 0.11 0.06 0 0.115 0.06 0 0.12 0.06 0 0.125 0.06 0 0.13 0.06 0 0.135 0.06 0 0.14 0.06 0 0.145 0.06 0 0.15 0.06 0 0.155 0.06 0 0.16 0.06 0 0.165 0.06 0 0.17 0.06 0 0.175 0.06 0 0.18 0.06 0 0.185 0.06 0 0.19 0.06 0 0.195 0.06 0 0.2 0.06 0 0.205 0.06 0 0.21 0.06 0 0.215 0.06 0 0.22 0.06 0 0.225 0.06 0 0.23 0.06 0 0.235 0.06 0 0.24 0.06 0 0.245 0.06 0 0.25 0.06 0 0.255 0.06 0 0.26 0.06 0 0.265 0.06 0 0.27 0.06 0 0.275 0.06 0 0.28 0.06 0 0.285 0.06 0 0.29 0.06 0 0.295 0.06 0 0.3 0.06 0 0.305 0.06 0 0.31 0.06 0 0.315 0.06 0 0.32 0.06 0 0.325 0.06 0 0.33 0.06 0 0.335 0.06 0 0.34 0.06 0 0.345 0.06 0 0.35 0.06 0 0.355 0.06 0 0.36 0.06 0 0.365 0.06 0 0.37 0.06 0 0.375 0.06 0 0.38 0.06 0 0.385 0.06 0 0.39 0.06 0 0.395 0.06 0 0.4 0.06 0 0.405 0.06 0 0.41 0.06 0 0.415 0.06 0 0.42 0.06 0 0.425 0.06 0 0.43 0.06 0 0.435 0.06 0 0.44 0.06 0 0.445 0.06 0 0.45 0.06 0 0.455 0.06 0 0.46 0.06 0 0.465 0.06 0 0.47 0.06 0 0.475 0.06 0 0.48 0.06 0 0.485 0.06 0 0.49 0.06 0 0.495 0.06 0 0.5 0.06 0 0.505 0.06 0 0.51 0.06 0 0.515 0.06 0 0.52 0.06 0 0.525 0.06 0 0.53 0.06 0 0.535 0.06 0 0.54 0.06 0 0.545 0.06 0 0.55 0.06 0 0.555 0.06 0 0.56 0.06 0 0.565 0.06 0 0.57 0.06 0 0.575 0.06 0 0.58 0.06 0 0.585 0.06 0 0.59 0.06 0 0.595 0.06 0 0.6 0.06 0 0.605 0.06 0 0.61 0.06 0 0.615 0.06 0 0.62 0.06 0 0.625 0.06 0 0.63 0.06 0 0.635 0.06 0 0.64 0.06 0 0.645 0.06 0 0.65 0.06 0 0.655 0.06 0 0.66 0.06 0 0.665 0.06 0 0.67 0.06 0 0.675 0.06 0 0.68 0.06 0 0.685 0.06 0 0.69 0.06 0 0.695 0.06 0 0.7 0.06 0 0.705 0.06 0 0.71 0.06 0 0.715 0.06 0 0.72 0.06 0 0.725 0.06 0 0.73 0.06 0 0.735 0.06 0 0.74 0.06 0 0.745 0.06 0 0.75 0.06 0 0.755 0.06 0 0.76 0.06 0 0.765 0.06 0 0.77 0.06 0 0.775 0.06 0 0.78 0.06 0 0.785 0.06 0 0.79 0.06 0 0.795 0.06 0 0.8 0.06 0 0.805 0.06 0 0.81 0.06 0 0.815 0.06 0 0.82 0.06 0 0.825 0.06 0 0.83 0.06 0 0.835 0.06 0 0.84 0.06 0 0.845 0.06 0 0.85 0.06 0 0.855 0.06 0 0.86 0.06 0 0.865 0.06 0 0.87 0.06 0 0.875 0.06 0 0.88 0.06 0 0.885 0.06 0 0.89 0.06 0 0.895 0.06 0 0.9 0.06 0 0.905 0.06 0 0.91 0.06 0 0.915 0.06 0 0.92 0.06 0 0.925 0.06 0 0.93 0.06 0 0.935 0.06 0 0.94 0.06 0 0.945 0.06 0 0.95 0.06 0 0.955 0.06 0 0.96 0.06 0 0.965 0.06 0 0.97 0.06 0 0.975 0.06 0 0.98 0.06 0 0.985 0.06 0 0.99 0.06 0 0.995 0.06 0 1 0.06 0 0 0.08 0 0.005 0.08 0 0.01 0.08 0 0.015 0.08 0 0.02 0.08 0 0.025 0.08 0 0.03 0.08 0 0.035 0.08 0 0.04 0.08 0 0.045 0.08 0 0.05 0.08 0 0.055 0.08 0 0.06 0.08 0 0.065 0.08 0 0.07 0.08 0 0.075 0.08 0 0.08 0.08 0 0.085 0.08 0 0.09 0.08 0 0.095 0.08 0 0.1 0.08 0 0.105 0.08 0 0.11 0.08 0 0.115 0.08 0 0.12 0.08 0 0.125 0.08 0 0.13 0.08 0 0.135 0.08 0 0.14 0.08 0 0.145 0.08 0 0.15 0.08 0 0.155 0.08 0 0.16 0.08 0 0.165 0.08 0
[...]
			<PointData Scalars="VitesseX">
				<DataArray Name="VitesseX" type="Float32" format="ascii">
 0 2.03504e-14 -1.11576e-14 6.05635e-14 -1.84276e-14 7.33878e-15 3.63788e-14 1.31442e-14 -1.35058e-14 4.52291e-14 -4.43273e-14 1.5564e-14 -3.02302e-14 4.57821e-14 -1.47328e-13 -7.46341e-14 -2.60733e-14 -1.95138e-13 -3.92314e-14 -7.53519e-14 -2.54748e-13 1.66161e-13 -3.19572e-13 1.26275e-13 -1.66439e-13 -1.04491e-15 -1.67682e-13 -1.34835e-13 -1.25203e-13 7.05432e-14 1.19009e-15 -2.42866e-13 -9.71175e-14 -3.03045e-13 -1.96986e-13 -2.48241e-13 -8.05995e-14 -5.23497e-14 2.15315e-14 -1.90298e-13 2.44869e-13 -2.53093e-13 1.1393e-13 2.38484e-13 -1.82218e-13 2.82047e-13 -1.79786e-13 2.24476e-12 1.72169e-11 1.1129e-10 6.72088e-10 3.83159e-09 2.05925e-08 1.03998e-07 4.92026e-07 2.17306e-06 8.92279e-06 3.39004e-05 0.000118504 0.000378591 0.00109678 0.00285634 0.00663136 0.0136454 0.0248863 0.0405593 0.0600142 0.0822104 0.106207 0.131343 0.157209 0.183569 0.210271 0.237215 0.264347 0.291637 0.319067 0.346635 0.374349 0.402229 0.430309 0.458352 0.485524 0.51279 0.539274 0.565807 0.591911 0.61789 0.643628 0.668934 0.694274 0.719035 0.743562 0.767971 0.791352 0.814635 0.837181 0.857785 0.878264 0.89501 0.90859 0.919985 0.925834 0.929474 0.931745 0.931918 0.931844 0.931752 0.931598 0.931337 0.930967 0.930534 0.930106 0.929747 0.929443 0.929172 0.928943 0.928762 0.928624 0.928514 0.928414 0.928302 0.928147 0.927896 0.927471 0.926785 0.926402 0.929241 0.931253 0.927954 0.927138 0.927235 0.927463 0.927574 0.927675 0.927712 0.927652 0.927552 0.927557 0.927645 0.927639 0.927597 0.927472 0.927188 0.926647 0.92558 0.923421 0.919096 0.910606 0.894446 0.865088 0.815198 0.737589 0.629317 0.496692 0.356275 0.22867 0.12915 0.0637361 0.0279708 0.0113449 0.00441325 0.00168383 0.00063665 0.000239517 8.97846e-05 3.35447e-05 1.24894e-05 4.63256e-06 1.71116e-06 6.29178e-07 2.30187e-07 8.37578e-08 3.02987e-08 1.08918e-08 3.88907e-09 1.37865e-09 4.85012e-10 1.68751e-10 5.85105e-11 1.94628e-11 6.61285e-12 1.62205e-12 7.50974e-13 -1.42916e-13 -6.63547e-13 5.70828e-13 6.30696e-14 1.003e-13 4.33755e-13 -6.04237e-13 2.35085e-13 5.93924e-13 -3.20135e-13 -3.23386e-13 7.19812e-13 1.53452e-13 5.72348e-13 -2.74701e-13 7.30333e-13 0 0 1.19547e-14 3.57754e-14 -1.27049e-14 4.48987e-14 3.81772e-14 -3.43325e-15 -1.4242e-14 -1.55309e-14 -2.4363e-14 -1.0408e-15 -1.99898e-14 3.76413e-14 -1.51897e-13 -2.01163e-14 1.7204e-14 -1.54505e-13 -2.81362e-14 -9.17532e-14 -8.57353e-14 -3.06266e-14 -1.95623e-13 1.00116e-13 -2.59891e-13 1.01191e-13 -1.14002e-13 -5.651e-14 -9.17456e-14 -1.52914e-13 -1.18436e-13 -3.46274e-14 -6.27234e-14 -2.24651e-13 -2.39987e-13 -1.87494e-13 -1.36908e-13 -8.31552e-14 -1.30239e-13 -1.43956e-13 6.19312e-14 -6.65727e-14 1.47963e-13 -2.20016e-14 -2.29429e-13 7.0181e-14 -1.84986e-13 3.4015e-13 2.28759e-12 1.70852e-11 1.11318e-10 6.72065e-10 3.83158e-09 2.05929e-08 1.03998e-07 4.92026e-07 2.17306e-06 8.92279e-06 3.39004e-05 0.000118504 0.000378591 0.00109678 0.00285634 0.00663136 0.0136454 0.0248863 0.0405593 0.0600142 0.0822104 0.106207 0.131343 0.157209 0.183569 0.210271 0.237215 0.264347 0.291637 0.319067 0.346635 0.374349 0.402229 0.430309 0.458352 0.485524 0.51279 0.539274 0.565807 0.591911 0.61789 0.643628 0.668934 0.694274 0.719035 0.743562 0.767971 0.791352 0.814635 0.837181 0.857785 0.878264 0.89501 0.90859 0.919985 0.925834 0.929474 0.931745 0.931918 0.931844 0.931752 0.931598 0.931337 0.930967 0.930534 0.930106 0.929747 0.929443 0.929172 0.928943 0.928762 0.928624 0.928514 0.928414 0.928302 0.928147 0.927896 0.927471 0.926785 0.926402 0.929241 0.931253 0.927954 0.927138 0.927235 0.927463 0.927574 0.927675 0.927712 0.927652 0.927552 0.927557 0.927645 0.927639 0.927597 0.927472 0.927188 0.926647 0.92558 0.923421 0.919096 0.910606 0.894446 0.865088 0.815198 0.737589 0.629317 0.496692 0.356275 0.22867 0.12915 0.0637361 0.0279708 0.0113449 0.00441325 0.00168383 0.00063665 0.000239517 8.97846e-05 3.35447e-05 1.24894e-05 4.63256e-06 1.71116e-06 6.29178e-07 2.30187e-07 8.37579e-08 3.02988e-08 1.08914e-08 3.88923e-09 1.37888e-09 4.84917e-10 1.69317e-10 5.80401e-11 2.00435e-11 6.13935e-12 2.08426e-12 -1.31153e-13 2.63987e-13 2.13598e-13 -2.42646e-13 2.03164e-13 4.43182e-14 -3.26811e-13 2.63398e-13 3.63314e-14 -1.7851e-13 6.64246e-13 2.79551e-13 -2.00119e-13 6.88329e-13 -2.25265e-13 5.42978e-13 1.6636e-13 0 0 -5.32742e-15 4.20297e-15 4.04859e-14 1.99338e-14 -2.3491e-14 3.56823e-14 -1.45962e-14 1.64805e-14 1.0162e-14 -3.19665e-14 -8.31801e-14 -2.37147e-14 3.07663e-14 -5.54996e-14 -2.18778e-14 -6.46623e-14 -1.74472e-13 -3.0171e-14 -4.70131e-14 -8.66445e-14 7.82688e-14 -1.01499e-13 9.03951e-14 -2.77637e-13 4.08083e-14 -1.85005e-13 -1.82906e-13 -3.21877e-13 1.27664e-13 -9.56523e-14 5.96307e-14 -6.04051e-14 -4.62407e-14 -2.56798e-13 -4.571e-13 -3.3186e-14 5.35125e-14 -1.23903e-13 -5.44708e-14 -2.57686e-13 -8.24977e-14 -5.20434e-14 1.42775e-13 -2.47757e-13 2.24696e-14 1.08488e-13 2.59215e-12 1.74272e-11 1.11248e-10 6.72019e-10 3.83176e-09 2.05924e-08 1.03998e-07 4.92026e-07 2.17306e-06 8.92279e-06 3.39004e-05 0.000118504 0.000378591 0.00109678 0.00285634 0.00663136 0.0136454 0.0248863 0.0405593 0.0600142 0.0822104 0.106207 0.131343 0.157209 0.183569 0.210271 0.237215 0.264347 0.291637 0.319067 0.346635 0.374349 0.402229 0.430309 0.458352 0.485524 0.51279 0.539274 0.565807 0.591911 0.61789 0.643628 0.668934 0.694274 0.719035 0.743562 0.767971 0.791352 0.814635 0.837181 0.857785 0.878264 0.89501 0.90859 0.919985 0.925834 0.929474 0.931745 0.931918 0.931844 0.931752 0.931598 0.931337 0.930967 0.930534 0.930106 0.929747 0.929443 0.929172 0.928943 0.928762 0.928624 0.928514 0.928414 0.928302 0.928147 0.927896 0.927471 0.926785 0.926402 0.929241 0.931253 0.927954 0.927138 0.927235 0.927463 0.927574 0.927675 0.927712 0.927652 0.927552 0.927557 0.927645 0.927639 0.927597 0.927472 0.927188 0.926647 0.92558 0.923421 0.919096 0.910606 0.894446 0.865088 0.815198 0.737589 0.629317 0.496692 0.356275 0.22867 0.12915 0.0637361 0.0279708 0.0113449 0.00441325 0.00168383 0.00063665 0.000239517 8.97846e-05 3.35447e-05 1.24894e-05 4.63256e-06 1.71116e-06 6.29178e-07 2.30187e-07 8.37578e-08 3.02989e-08 1.08915e-08 3.88903e-09 1.37887e-09 4.85285e-10 1.69184e-10 5.82559e-11 1.97165e-11 6.71492e-12 1.67926e-12 5.42128e-13 -9.56269e-14 5.836e-13 -1.32369e-13 5.62592e-14 -2.77642e-13 -3.81567e-13 -2.21265e-13 8.36351e-14 2.27277e-13 3.81462e-13 1.92719e-13 1.97007e-13 -9.48776e-14 1.34075e-13 5.68215e-13 2.82072e-13 0 0 -9.72271e-15 -2.66043e-14 2.12822e-14 -1.95528e-14 -1.7654e-14 3.4147e-14 -3.06941e-14 -2.21309e-14 -1.21964e-14 -1.61243e-14 5.04646e-14 1.48424e-15 3.39497e-14 -9.49677e-14 -1.32123e-14 3.14992e-14 -1.3163e-13 -7.61037e-14 -3.03818e-14 -5.95108e-14 -2.02785e-14 -5.55123e-14 1.86669e-14 -1.00123e-13 -1.43096e-13 -2.02364e-13 -2.2689e-13 -2.35331e-14 -1.82236e-13 -3.9812e-14 3.97033e-14 3.25088e-14 -8.22106e-15 -2.36411e-13 -1.20279e-13 -2.0223e-13 -1.49624e-13 -5.76341e-14 -1.35084e-13 -2.10451e-13 -2.94041e-13 1.16613e-13 -3.76979e-14 5.74673e-14 -3.55125e-14 -5.6977e-14 2.64363e-12 1.78492e-11 1.11273e-10 6.71834e-10 3.83176e-09 2.05926e-08 1.03998e-07 4.92026e-07 2.17306e-06 8.92279e-06 3.39004e-05 0.000118504 0.000378591 0.00109678 0.00285634 0.00663136 0.0136454 0.0248863 0.0405593 0.0600142 0.0822104 0.106207 0.131343 0.157209 0.183569 0.210271 0.237215 0.264347 0.291637 0.319067 0.346635 0.374349 0.402229 0.430309 0.458352 0.485524 0.51279 0.539274 0.565807 0.591911 0.61789 0.643628 0.668934 0.694274 0.719035 0.743562 0.767971 0.791352 0.814635 0.837181 0.857785 0.878264 0.89501 0.90859 0.919985 0.925834 0.929474 0.931745 0.931918 0.931844 0.931752 0.931598 0.931337 0.930967 0.930534 0.930106 0.929747 0.929443 0.929172 0.928943 0.928762 0.928624 0.928514 0.928414 0.928302 0.928147 0.927896 0.927471 0.926785 0.926402 0.929241 0.931253 0.927954 0.927138 0.927235 0.927463 0.927574 0.927675 0.927712 0.927652 0.927552 0.927557 0.927645 0.927639 0.927597 0.927472 0.927188 0.926647 0.92558 0.923421 0.919096 0.910606 0.894446 0.865088 0.815198 0.737589 0.629317 0.496692 0.356275 0.22867 0.12915 0.0637361 0.0279708 0.0113449 0.00441325 0.00168383 0.00063665 0.000239517 8.97846e-05 3.35447e-05 1.24894e-05 4.63256e-06 1.71116e-06 6.29178e-07 2.30187e-07 8.3758e-08 3.02988e-08 1.08918e-08 3.88899e-09 1.37837e-09 4.85087e-10 1.69235e-10 5.85416e-11 1.97584e-11 6.88742e-12 2.15658e-12 4.1224e-13 -1.94028e-13 2.36072e-13 8.65299e-14 -2.18498e-13 6.00716e-13 -6.02845e-13 -7.40874e-13 -5.36417e-13 2.83337e-13 4.03475e-13 6.13723e-13 6.95207e-13 -5.19572e-13 -2.80373e-13 -4.89038e-13 2.75027e-13 0 0 -2.98583e-15 -9.70441e-15 -6.68043e-14 -2.87555e-14 1.29382e-14 -3.68117e-14 -4.63273e-14 -3.42071e-14 -3.03986e-14 2.46171e-15 6.10044e-14 3.29724e-14 -9.54959e-14 2.80289e-14 9.10357e-14 7.59749e-15 9.84163e-14 -3.63465e-14 -9.6741e-14 3.18913e-14 -2.80056e-13 1.17973e-13 -2.77641e-13 2.01009e-13 -3.48756e-13 -1.37201e-13 -1.31652e-13 -5.92733e-14 -2.46937e-13 -4.27497e-14 -1.10922e-13 -5.44514e-14 -2.98609e-15 8.33366e-15 5.72774e-14 -1.12037e-13 -1.57367e-13 1.5358e-15 -7.09761e-14 -6.56826e-14 -9.6985e-14 -6.88592e-14 -5.30539e-13 3.06163e-13 -2.27821e-13 2.43817e-13 2.32357e-12 1.75498e-11 1.11428e-10 6.72015e-10 3.83164e-09 2.05931e-08 1.03998e-07 4.92026e-07 2.17306e-06 8.92279e-06 3.39004e-05 0.000118504 0.000378591 0.00109678 0.00285634 0.00663136 0.0136454 0.0248863 0.0405593 0.0600142 0.0822104 0.106207 0.131343 0.157209 0.183569 0.210271 0.237215 0.264347 0.291637 0.319067 0.346635 0.374349 0.402229 0.430309 0.458352 0.485524 0.51279 0.539274 0.565807 0.591911 0.61789 0.643628 0.668934 0.694274 0.719035 0.743562 0.767971 0.791352 0.814635 0.837181 0.857785 0.878264 0.89501 0.90859 0.919985 0.925834 0.929474 0.931745 0.931918 0.931844 0.931752 0.931598 0.931337 0.930967 0.930534 0.930106 0.929747 0.929443 0.929172 0.928943 0.928762 0.928624 0.928514 0.928414 0.928302 0.928147 0.927896 0.927471 0.926785 0.926402 0.929241 0.931253 0.927954 0.927138 0.927235 0.927463 0.927574 0.927675 0.927712 0.927652 0.927552 0.927557 0.927645 0.927639 0.927597 0.927472 0.927188 0.926647 0.92558 0.923421 0.919096 0.910606 0.894446 0.865088 0.815198 0.737589 0.629317 0.496692 0.356275 0.22867 0.12915 0.0637361 0.0279708 0.0113449 0.00441325 0.00168383 0.00063665 0.000239517 8.97846e-05 3.35447e-05 1.24894e-05 4.63256e-06 1.71116e-06 6.29178e-07 2.30187e-07 8.37581e-08 3.02987e-08 1.08918e-08 3.88912e-09 1.37876e-09 4.84779e-10 1.69287e-10 5.82022e-11 2.01377e-11 6.3109e-12 2.54435e-12 3.2641e-13 1.79791e-13 6.87796e-14 -5.34778e-13 -5.15393e-13 1.80982e-13 -2.89202e-13 -2.02948e-13 -2.34755e-13 -1.43189e-13 6.45363e-13 7.43291e-13 -4.01257e-13 3.19743e-13 -8.6527e-13 -2.47529e-13 -3.33262e-13 0 0 -7.40031e-16 -4.05026e-14 -9.2281e-15 -8.67628e-14 -5.48131e-14 -2.73077e-14 -1.88307e-14 2.63646e-14 7.78749e-14 -6.90067e-14 -8.97369e-14 -8.9966e-14 1.52217e-13 2.78983e-14 5.56982e-14 1.05808e-13 -2.77174e-14 1.63447e-13 -1.30626e-13 -1.8398e-13 1.94389e-13 -3.75832e-13 2.34232e-13 -3.2183e-13 -1.02743e-13 -2.94344e-13 -1.26679e-13 -5.34609e-13 4.3334e-13 -1.26735e-13 -2.99409e-13 5.74545e-14 9.4918e-14 1.53895e-13 -5.33514e-13 1.99726e-13 2.99669e-13 1.79979e-13 -2.94886e-13 1.52178e-13 -3.19904e-13 -3.17098e-13 -2.78899e-15 -3.20703e-13 3.1234e-13 -4.15226e-14 2.21375e-12 1.73019e-11 1.11459e-10 6.7236e-10 3.8317e-09 2.05926e-08 1.03998e-07 4.92026e-07 2.17306e-06 8.92279e-06 3.39004e-05 0.000118504 0.000378591 0.00109678 0.00285634 0.00663136 0.0136454 0.0248863 0.0405593 0.0600142 0.0822104 0.106207 0.131343 0.157209 0.183569 0.210271 0.237215 0.264347 0.291637 0.319067 0.346635 0.374349 0.402229 0.430309 0.458352 0.485524 0.51279 0.539274 0.565807 0.591911 0.61789 0.643628 0.668934 0.694274 0.719035 0.743562 0.767971 0.791352 0.814635 0.837181 0.857785 0.878264 0.89501 0.90859 0.919985 0.925834 0.929474 0.931745 0.931918 0.931844 0.931752 0.931598 0.931337 0.930967 0.930534 0.930106 0.929747 0.929443 0.929172 0.928943 0.928762 0.928624 0.928514 0.928414 0.928302 0.928147 0.927896 0.927471 0.926785 0.926402 0.929241 0.931253 0.927954 0.927138 0.927235 0.927463 0.927574 0.927675 0.927712 0.927652 0.927552 0.927557 0.927645 0.927639 0.927597 0.927472 0.927188 0.926647 0.92558 0.923421 0.919096 0.910606 0.894446 0.865088 0.815198 0.737589 0.629317 0.496692 0.356275 0.22867 0.12915 0.0637361 0.0279708 0.0113449 0.00441325 0.00168383 0.00063665 0.000239517 8.97846e-05 3.35447e-05 1.24894e-05 4.63256e-06 1.71116e-06 6.29177e-07 2.30188e-07 8.37579e-08 3.02986e-08 1.0892e-08 3.88897e-09 1.37941e-09 4.85131e-10 1.68587e-10 5.82636e-11 1.95675e-11 6.61095e-12 1.5876e-12 1.92587e-12 -1.14505e-13 -2.58128e-13 -4.51235e-13 -8.24529e-13 -1.38309e-12 9.51528e-13 -4.97712e-13 9.33018e-13 5.52445e-13 -4.01927e-13 -2.37914e-13 -6.78865e-13 2.65668e-13 1.21234e-13 2.58791e-13 -2.54821e-13 0
				</DataArray>
				<DataArray Name="VitesseY" type="Float32" format="ascii">