<?xml version="1.0"?>
<VTKFile type="PolyData">
	<PolyData>
		<Piece NumberOfPoints="1206" NumberOfPolys="1000">
			<Points>
				<DataArray type="Float32" NumberOfComponents="3" format="ascii">
 0 0 0 0.005 0 0 0.01 0 0 0.015 0 0 0.02 0 0 0.025 0 0 0.03 0 0 0.035 0 0 0.04 0 0 0.045 0 0 0.05 0 0 0.055 0 0 0.06 0 0 0.065 0 0 0.07 0 0 0.075 0 0 0.08 0 0 0.085 0 0 0.09 0 0 0.095 0 0 0.1 0 0 0.105 0 0 0.11 0 0 0.115 0 0 0.12 0 0 0.125 0 0 0.13 0 0 0.135 0 0 0.14 0 0 0.145 0 0 0.15 0 0 0.155 0 0 0.16 0 0 0.165 0 0 0.17 0 0 0.175 0 0 0.18 0 0 0.185 0 0 0.19 0 0 0.195 0 0 0.2 0 0 0.205 0 0 0.21 0 0 0.215 0 0 0.22 0 0 0.225 0 0 0.23 0 0 0.235 0 0 0.24 0 0 0.245 0 0 0.25 0 0 0.255 0 0 0.26 0 0 0.265 0 0 0.27 0 0 0.275 0 0 0.28 0 0 0.285 0 0 0.29 0 0 0.295 0 0 0.3 0 0 0.305 0 0 0.31 0 0 0.315 0 0 0.32 0 0 0.325 0 0 0.33 0 0 0.335 0 0 0.34 0 0 0.345 0 0 0.35 0 0 0.355 0 0 0.36 0 0 0.365 0 0 0.37 0 0 0.375 0 0 0.38 0 0 0.385 0 0 0.39 0 0 0.395 0 0 0.4 0 0 0.405 0 0 0.41 0 0 0.415 0 0 0.42 0 0 0.425 0 0 0.43 0 0 0.435 0 0 0.44 0 0 0.445 0 0 0.45 0 0 0.455 0 0 0.46 0 0 0.465 0 0 0.47 0 0 0.475 0 0 0.48 0 0 0.485 0 0 0.49 0 0 0.495 0 0 0.5 0 0 0.505 0 0 0.51 0 0 0.515 0 0 0.52 0 0 0.525 0 0 0.53 0 0 0.535 0 0 0.54 0 0 0.545 0 0 0.55 0 0 0.555 0 0 0.56 0 0 0.565 0 0 0.57 0 0 0.575 0 0 0.58 0 0 0.585 0 0 0.59 0 0 0.595 0 0 0.6 0 0 0.605 0 0 0.61 0 0 0.615 0 0 0.62 0 0 0.625 0 0 0.63 0 0 0.635 0 0 0.64 0 0 0.645 0 0 0.65 0 0 0.655 0 0 0.66 0 0 0.665 0 0 0.67 0 0 0.675 0 0 0.68 0 0 0.685 0 0 0.69 0 0 0.695 0 0 0.7 0 0 0.705 0 0 0.71 0 0 0.715 0 0 0.72 0 0 0.725 0 0 0.73 0 0 0.735 0 0 0.74 0 0 0.745 0 0 0.75 0 0 0.755 0 0 0.76 0 0 0.765 0 0 0.77 0 0 0.775 0 0 0.78 0 0 0.785 0 0 0.79 0 0 0.795 0 0 0.8 0 0 0.805 0 0 0.81 0 0 0.815 0 0 0.82 0 0 0.825 0 0 0.83 0 0 0.835 0 0 0.84 0 0 0.845 0 0 0.85 0 0 0.855 0 0 0.86 0 0 0.865 0 0 0.87 0 0 0.875 0 0 0.88 0 0 0.885 0 0 0.89 0 0 0.895 0 0 0.9 0 0 0.905 0 0 0.91 0 0 0.915 0 0 0.92 0 0 0.925 0 0 0.93 0 0 0.935 0 0 0.94 0 0 0.945 0 0 0.95 0 0 0.955 0 0 0.96 0 0 0.965 0 0 0.97 0 0 0.975 0 0 0.98 0 0 0.985 0 0 0.99 0 0 0.995 0 0 1 0 0 0 0.02 0 0.005 0.02 0 0.01 0.02 0 0.015 0.02 0 0.02 0.02 0 0.025 0.02 0 0.03 0.02 0 0.035 0.02 0 0.04 0.02 0 0.045 0.02 0 0.05 0.02 0 0.055 0.02 0 0.06 0.02 0 0.065 0.02 0 0.07 0.02 0 0.075 0.02 0 0.08 0.02 0 0.085 0.02 0 0.09 0.02 0 0.095 0.02 0 0.1 0.02 0 0.105 0.02 0 0.11 0.02 0 0.115 0.02 0 0.12 0.02 0 0.125 0.02 0 0.13 0.02 0 0.135 0.02 0 0.14 0.02 0 0.145 0.02 0 0.15 0.02 0 0.155 0.02 0 0.16 0.02 0 0.165 0.02 0 0.17 0.02 0 0.175 0.02 0 0.18 0.02 0 0.185 0.02 0 0.19 0.02 0 0.195 0.02 0 0.2 0.02 0 0.205 0.02 0 0.21 0.02 0 0.215 0.02 0 0.22 0.02 0 0.225 0.02 0 0.23 0.02 0 0.235 0.02 0 0.24 0.02 0 0.245 0.02 0 0.25 0.02 0 0.255 0.02 0 0.26 0.02 0 0.265 0.02 0 0.27 0.02 0 0.275 0.02 0 0.28 0.02 0 0.285 0.02 0 0.29 0.02 0 0.295 0.02 0 0.3 0.02 0 0.305 0.02 0 0.31 0.02 0 0.315 0.02 0 0.32 0.02 0 0.325 0.02 0 0.33 0.02 0 0.335 0.02 0 0.34 0.02 0 0.345 0.02 0 0.35 0.02 0 0.355 0.02 0 0.36 0.02 0 0.365 0.02 0 0.37 0.02 0 0.375 0.02 0 0.38 0.02 0 0.385 0.02 0 0.39 0.02 0 0.395 0.02 0 0.4 0.02 0 0.405 0.02 0 0.41 0.02 0 0.415 0.02 0 0.42 0.02 0 0.425 0.02 0 0.43 0.02 0 0.435 0.02 0 0.44 0.02 0 0.445 0.02 0 0.45 0.02 0 0.455 0.02 0 0.46 0.02 0 0.465 0.02 0 0.47 0.02 0 0.475 0.02 0 0.48 0.02 0 0.485 0.02 0 0.49 0.02 0 0.495 0.02 0 0.5 0.02 0 0.505 0.02 0 0.51 0.02 0 0.515 0.02 0 0.52 0.02 0 0.525 0.02 0 0.53 0.02 0 0.535 0.02 0 0.54 0.02 0 0.545 0.02 0 0.55 0.02 0 0.555 0.02 0 0.56 0.02 0 0.565 0.02 0 0.57 0.02 0 0.575 0.02 0 0.58 0.02 0 0.585 0.02 0 0.59 0.02 0 0.595 0.02 0 0.6 0.02 0 0.605 0.02 0 0.61 0.02 0 0.615 0.02 0 0.62 0.02 0 0.625 0.02 0 0.63 0.02 0 0.635 0.02 0 0.64 0.02 0 0.645 0.02 0 0.65 0.02 0 0.655 0.02 0 0.66 0.02 0 0.665 0.02 0 0.67 0.02 0 0.675 0.02 0 0.68 0.02 0 0.685 0.02 0 0.69 0.02 0 0.695 0.02 0 0.7 0.02 0 0.705 0.02 0 0.71 0.02 0 0.715 0.02 0 0.72 0.02 0 0.725 0.02 0 0.73 0.02 0 0.735 0.02 0 0.74 0.02 0 0.745 0.02 0 0.75 0.02 0 0.755 0.02 0 0.76 0.02 0 0.765 0.02 0 0.77 0.02 0 0.775 0.02 0 0.78 0.02 0 0.785 0.02 0 0.79 0.02 0 0.795 0.02 0 0.8 0.02 0 0.805 0.02 0 0.81 0.02 0 0.815 0.02 0 0.82 0.02 0 0.825 0.02 0 0.83 0.02 0 0.835 0.02 0 0.84 0.02 0 0.845 0.02 0 0.85 0.02 0 0.855 0.02 0 0.86 0.02 0 0.865 0.02 0 0.87 0.02 0 0.875 0.02 0 0.88 0.02 0 0.885 0.02 0 0.89 0.02 0 0.895 0.02 0 0.9 0.02 0 0.905 0.02 0 0.91 0.02 0 0.915 0.02 0 0.92 0.02 0 0.925 0.02 0 0.93 0.02 0 0.935 0.02 0 0.94 0.02 0 0.945 0.02 0 0.95 0.02 0 0.955 0.02 0 0.96 0.02 0 0.965 0.02 0 0.97 0.02 0 0.975 0.02 0 0.98 0.02 0 0.985 0.02 0 0.99 0.02 0 0.995 0.02 0 1 0.02 0 0 0.04 0 0.005 0.04 0 0.01 0.04 0 0.015 0.04 0 0.02 0.04 0 0.025 0.04 0 0.03 0.04 0 0.035 0.04 0 0.04 0.04 0 0.045 0.04 0 0.05 0.04 0 0.055 0.04 0 0.06 0.04 0 0.065 0.04 0 0.07 0.04 0 0.075 0.04 0 0.08 0.04 0 0.085 0.04 0 0.09 0.04 0 0.095 0.04 0 0.1 0.04 0 0.105 0.04 0 0.11 0.04 0 0.115 0.04 0 0.12 0.04 0 0.125 0.04 0 0.13 0.04 0 0.135 0.04 0 0.14 0.04 0 0.145 0.04 0 0.15 0.04 0 0.155 0.04 0 0.16 0.04 0 0.165 0.04 0 0.17 0.04 0 0.175 0.04 0 0.18 0.04 0 0.185 0.04 0 0.19 0.04 0 0.195 0.04 0 0.2 0.04 0 0.205 0.04 0 0.21 0.04 0 0.215 0.04 0 0.22 0.04 0 0.225 0.04 0 0.23 0.04 0 0.235 0.04 0 0.24 0.04 0 0.245 0.04 0 0.25 0.04 0 0.255 0.04 0 0.26 0.04 0 0.265 0.04 0 0.27 0.04 0 0.275 0.04 0 0.28 0.04 0 0.285 0.04 0 0.29 0.04 0 0.295 0.04 0 0.3 0.04 0 0.305 0.04 0 0.31 0.04 0 0.315 0.04 0 0.32 0.04 0 0.325 0.04 0 0.33 0.04 0 0.335 0.04 0 0.34 0.04 0 0.345 0.04 0 0.35 0.04 0 0.355 0.04 0 0.36 0.04 0 0.365 0.04 0 0.37 0.04 0 0.375 0.04 0 0.38 0.04 0 0.385 0.04 0 0.39 0.04 0 0.395 0.04 0 0.4 0.04 0 0.405 0.04 0 0.41 0.04 0 0.415 0.04 0 0.42 0.04 0 0.425 0.04 0 0.43 0.04 0 0.435 0.04 0 0.44 0.04 0 0.445 0.04 0 0.45 0.04 0 0.455 0.04 0 0.46 0.04 0 0.465 0.04 0 0.47 0.04 0 0.475 0.04 0 0.48 0.04 0 0.485 0.04 0 0.49 0.04 0 0.495 0.04 0 0.5 0.04 0 0.505 0.04 0 0.51 0.04 0 0.515 0.04 0 0.52 0.04 0 0.525 0.04 0 0.53 0.04 0 0.535 0.04 0 0.54 0.04 0 0.545 0.04 0 0.55 0.04 0 0.555 0.04 0 0.56 0.04 0 0.565 0.04 0 0.57 0.04 0 0.575 0.04 0 0.58 0.04 0 0.585 0.04 0 0.59 0.04 0 0.595 0.04 0 0.6 0.04 0 0.605 0.04 0 0.61 0.04 0 0.615 0.04 0 0.62 0.04 0 0.625 0.04 0 0.63 0.04 0 0.635 0.04 0 0.64 0.04 0 0.645 0.04 0 0.65 0.04 0 0.655 0.04 0 0.66 0.04 0 0.665 0.04 0 0.67 0.04 0 0.675 0.04 0 0.68 0.04 0 0.685 0.04 0 0.69 0.04 0 0.695 0.04 0 0.7 0.04 0 0.705 0.04 0 0.71 0.04 0 0.715 0.04 0 0.72 0.04 0 0.725 0.04 0 0.73 0.04 0 0.735 0.04 0 0.74 0.04 0 0.745 0.04 0 0.75 0.04 0 0.755 0.04 0 0.76 0.04 0 0.765 0.04 0 0.77 0.04 0 0.775 0.04 0 0.78 0.04 0 0.785 0.04 0 0.79 0.04 0 0.795 0.04 0 0.8 0.04 0 0.805 0.04 0 0.81 0.04 0 0.815 0.04 0 0.82 0.04 0 0.825 0.04 0 0.83 0.04 0 0.835 0.04 0 0.84 0.04 0 0.845 0.04 0 0.85 0.04 0 0.855 0.04 0 0.86 0.04 0 0.865 0.04 0 0.87 0.04 0 0.875 0.04 0 0.88 0.04 0 0.885 0.04 0 0.89 0.04 0 0.895 0.04 0 0.9 0.04 0 0.905 0.04 0 0.91 0.04 0 0.915 0.04 0 0.92 0.04 0 0.925 0.04 0 0.93 0.04 0 0.935 0.04 0 0.94 0.04 0 0.945 0.04 0 0.95 0.04 0 0.955 0.04 0 0.96 0.04 0 0.965 0.04 0 0.97 0.04 0 0.975 0.04 0 0.98 0.04 0 0.985 0.04 0 0.99 0.04 0 0.995 0.04 0 1 0.04 0 0 0.06 0 0.005 0.06 0 0.01 0.06 0 0.015 0.06 0 0.02 0.06 0 0.025 0.06 0 0.03 0.06 0 0.035 0.06 0 0.04 0.06 0 0.045 0.06 0 0.05 0.06 0 0.055 0.06 0 0.06 0.06 0 0.065 0.06 0 0.07 0.06 0 0.075 0.06 0 0.08 0.06 0 0.085 0.06 0 0.09 0.06 0 0.095 0.06 0 0.1 0.06 0 0.105 0.06 0 0.11 0.06 0 0.115 0.06 0 0.12 0.06 0 0.125 0.06 0 0.13 0.06 0 0.135 0.06 0 0.14 0.06 0 0.145 0.06 0 0.15 0.06 0 0.155 0.06 0 0.16 0.06 0 0.165 0.06 0 0.17 0.06 0 0.175 0.06 0 0.18 0.06 0 0.185 0.06 0 0.19 0.06 0 0.195 0.06 0 0.2 0.06 0 0.205 0.06 0 0.21 0.06 0 0.215 0.06 0 0.22 0.06 0 0.225 0.06 0 0.23 0.06 0 0.235 0.06 0 0.24 0.06 0 0.245 0.06 0 0.25 0.06 0 0.255 0.06 0 0.26 0.06 0 0.265 0.06 0 0.27 0.06 0 0.275 0.06 0 0.28 0.06 0 0.285 0.06 0 0.29 0.06 0 0.295 0.06 0 0.3 0.06 0 0.305 0.06 0 0.31 0.06 0 0.315 0.06 0 0.32 0.06 0 0.325 0.06 0 0.33 0.06 0 0.335 0.06 0 0.34 0.06 0 0.345 0.06 0 0.35 0.06 0 0.355 0.06 0 0.36 0.06 0 0.365 0.06 0 0.37 0.06 0 0.375 0.06 0 0.38 0.06 0 0.385 0.06 0 0.39 0.06 0 0.395 0.06 0 0.4 0.06 0 0.405 0.06 0 0.41 0.06 0 0.415 0.06 0 0.42 0.06 0 0.425 0.06 0 0.43 0.06 0 0.435 0.06 0 0.44 0.06 0 0.445 0.06 0 0.45 0.06 0 0.455 0.06 0 0.46 0.06 0 0.465 0.06 0 0.47 0.06 0 0.475 0.06 0 0.48 0.06 0 0.485 0.06 0 0.49 0.06 0 0.495 0.06 0 0.5 0.06 0 0.505 0.06 0 0.51 0.06 0 0.515 0.06 0 0.52 0.06 0 0.525 0.06 0 0.53 0.06 0 0.535 0.06 0 0.54 0.06 0 0.545 0.06 0 0.55 0.06 0 0.555 0.06 0 0.56 0.06 0 0.565 0.06 0 0.57 0.06 0 0.575 0.06 0 0.58 0.06 0 0.585 0.06 0 0.59 0.06 0 0.595 0.06 0 0.6 0.06 0 0.605 0.06 0 0.61 0.06 0 0.615 0.06 0 0.62 0.06 0 0.625 0.06 0 0.63 0.06 0 0.635 0.06 0 0.64 0.06 0 0.645 0.06 0 0.65 0.06 0 0.655 0.06 0 0.66 0.06 0 0.665 0.06 0 0.67 0.06 0 0.675 0.06 0 0.68 0.06 0 0.685 0.06 0 0.69 0.06 0 0.695 0.06 0 0.7 0.06 0 0.705 0.06 0 0.71 0.06 0 0.715 0.06 0 0.72 0.06 0 0.725 0.06 0 0.73 0.06 0 0.735 0.06 0 0.74 0.06 0 0.745 0.06 0 0.75 0.06 0 0.755 0.06 0 0.76 0.06 0 0.765 0.06 0 0.77 0.06 0 0.775 0.06 0 0.78 0.06 0 0.785 0.06 0 0.79 0.06 0 0.795 0.06 0 0.8 0.06 0 0.805 0.06 0 0.81 0.06 0 0.815 0.06 0 0.82 0.06 0 0.825 0.06 0 0.83 0.06 0 0.835 0.06 0 0.84 0.06 0 0.845 0.06 0 0.85 0.06 0 0.855 0.06 0 0.86 0.06 0 0.865 0.06 0 0.87 0.06 0 0.875 0.06 0 0.88 0.06 0 0.885 0.06 0 0.89 0.06 0 0.895 0.06 0 0.9 0.06 0 0.905 0.06 0 0.91 0.06 0 0.915 0.06 0 0.92 0.06 0 0.925 0.06 0 0.93 0.06 0 0.935 0.06 0 0.94 0.06 0 0.945 0.06 0 0.95 0.06 0 0.955 0.06 0 0.96 0.06 0 0.965 0.06 0 0.97 0.06 0 0.975 0.06 0 0.98 0.06 0 0.985 0.06 0 0.99 0.06 0 0.995 0.06 0 1 0.06 0 0 0.08 0 0.005 0.08 0 0.01 0.08 0 0.015 0.08 0 0.02 0.08 0 0.025 0.08 0 0.03 0.08 0 0.035 0.08 0 0.04 0.08 0 0.045 0.08 0 0.05 0.08 0 0.055 0.08 0 0.06 0.08 0 0.065 0.08 0 0.07 0.08 0 0.075 0.08 0 0.08 0.08 0 0.085 0.08 0 0.09 0.08 0 0.095 0.08 0 0.1 0.08 0 0.105 0.08 0 0.11 0.08 0 0.115 0.08 0 0.12 0.08 0 0.125 0.08 0 0.13 0.08 0 0.135 0.08 0 0.14 0.08 0 0.145 0.08 0 0.15 0.08 0 0.155 0.08 0 0.16 0.08 0 0.165 0.08 0
[...]
			<PointData Scalars="VitesseX">
				<DataArray Name="VitesseX" type="Float32" format="ascii">
 0 -2.95248e-14 4.79081e-14 -1.45557e-13 4.96651e-14 -3.56247e-14 -1.42622e-14 -1.0182e-13 4.80752e-14 5.60764e-15 -2.08224e-13 2.23391e-13 -3.70086e-13 4.04138e-13 -3.04777e-13 -1.51266e-14 2.20245e-13 -3.05917e-13 2.96293e-13 -1.83763e-13 -4.96587e-14 7.94224e-14 -6.88693e-14 1.15627e-13 -1.42206e-13 -1.68538e-13 6.66967e-16 -3.76718e-13 2.43844e-13 -4.87215e-13 7.05519e-13 -1.55722e-13 3.99039e-13 -2.33284e-13 -8.12341e-13 6.8231e-13 -7.79442e-13 1.03033e-12 -5.66503e-13 2.89254e-13 -6.78492e-13 6.38e-13 -2.90792e-13 -1.25181e-13 -5.08171e-13 1.06157e-12 -1.21034e-12 1.29337e-12 -8.06667e-13 4.20631e-13 -1.78514e-14 -3.27297e-13 1.64594e-12 -2.39209e-12 7.91878e-13 -3.20943e-13 -1.51617e-12 2.37375e-12 -2.67867e-12 1.28131e-12 8.06682e-13 6.39251e-13 -1.14638e-13 -4.2891e-13 5.47165e-13 -5.39475e-14 -1.25925e-13 -6.16689e-13 -1.52372e-12 8.00854e-13 1.34434e-12 -2.589e-12 1.52304e-12 -4.41474e-13 2.34471e-12 -1.10517e-12 -1.38262e-13 7.22266e-13 -1.40349e-12 1.70099e-12 -2.17494e-12 3.07539e-13 8.9108e-13 -2.01647e-12 5.85182e-13 1.4205e-12 -5.19416e-13 -4.21744e-14 4.89976e-13 -1.26507e-12 2.5341e-12 6.92349e-11 4.31507e-09 2.08091e-07 7.54906e-06 0.000196194 0.00339427 0.0348873 0.185426 0.509208 0.657441 0.891136 0.884186 0.736985 0.510923 0.283077 0.115834 0.0318762 0.00620373 0.000990776 0.000140275 1.80026e-05 2.1111e-06 2.27328e-07 2.25688e-08 2.07252e-09 1.75206e-10 1.34668e-11 3.57188e-12 -1.34774e-12 2.21047e-12 -1.16326e-12 -7.61729e-13 2.23213e-12 -2.41333e-12 2.1997e-12 -1.02073e-12 -1.1476e-12 2.24511e-12 -2.1759e-12 1.85875e-12 -9.36219e-13 -7.93647e-13 2.09641e-12 -2.0995e-12 1.66261e-12 -1.12017e-12 -1.16484e-12 6.70975e-13 -2.24251e-12 1.949e-12 -1.62078e-13 -2.33506e-12 3.11567e-12 9.53862e-13 -1.4735e-12 2.50049e-12 -3.42017e-12 2.46694e-12 2.46031e-13 -1.71186e-12 2.20036e-12 -3.17917e-12 2.94878e-12 -2.06657e-12 2.17912e-12 -1.77246e-12 -6.78136e-13 1.18588e-12 -3.5231e-13 1.34674e-12 -1.39037e-12 1.04731e-13 4.48643e-13 -1.03969e-12 -1.93307e-13 -6.51309e-13 1.82648e-13 2.22978e-12 -1.79405e-12 1.45406e-12 -3.19992e-14 -1.841e-12 2.94906e-12 -2.61215e-12 1.68181e-12 -4.53548e-13 -1.29889e-12 2.42017e-12 -2.07606e-12 1.12042e-12 3.24052e-13 -1.99059e-12 2.88295e-12 -2.48003e-12 1.44538e-12 -6.94047e-15 -2.40843e-12 1.57099e-12 -3.93877e-12 1.01061e-12 3.92179e-12 -7.6486e-12 5.09188e-12 4.91776e-13 8.77056e-13 2.00986e-12 -4.52831e-12 4.06592e-12 -1.28297e-12 0 0 -9.18598e-15 -6.17026e-14 7.49408e-14 -1.54047e-13 -2.08827e-14 3.51364e-14 3.02995e-14 -1.67559e-13 -1.98868e-14 7.98241e-14 -2.03754e-13 4.02428e-13 -5.76834e-13 3.09115e-13 -1.37466e-13 -2.8488e-13 4.19269e-13 -3.8491e-13 2.10682e-13 1.58057e-13 -1.45237e-13 -1.62e-13 2.22752e-14 4.35049e-13 -2.73237e-14 -7.79791e-13 -2.59039e-13 4.26294e-13 -5.13719e-14 -4.63717e-14 7.21734e-13 -4.93036e-13 -3.20692e-13 2.1224e-13 -3.73418e-14 -3.3403e-14 -4.76149e-13 8.63883e-13 -4.85986e-13 7.6738e-14 3.26225e-14 -5.11289e-13 4.57666e-13 5.20608e-14 -5.28626e-13 4.07771e-13 -4.42646e-13 6.47193e-13 1.15115e-13 1.13967e-13 -1.33302e-13 -8.21545e-13 8.42718e-13 -9.23845e-13 -6.8904e-13 6.94982e-13 -5.56584e-13 5.62069e-13 -6.45518e-13 4.63776e-13 5.43421e-13 2.31732e-13 4.88653e-13 -5.15946e-13 -2.62483e-13 1.39707e-13 -4.51107e-13 -1.35158e-13 -7.46461e-13 -9.42492e-14 7.91471e-13 -5.47815e-13 1.32603e-12 -8.33848e-13 7.46691e-13 4.8927e-13 -8.30443e-13 5.24457e-13 -1.25177e-12 8.22379e-13 -1.03638e-12 -1.06537e-12 1.80193e-12 -1.61083e-13 -1.32791e-12 9.87145e-13 8.52614e-13 -3.35888e-13 6.66539e-13 -5.36633e-13 7.07109e-11 4.31567e-09 2.0809e-07 7.54906e-06 0.000196194 0.00339427 0.0348873 0.185426 0.509208 0.657441 0.891136 0.884186 0.736985 0.510923 0.283077 0.115834 0.0318762 0.00620373 0.000990776 0.000140275 1.80026e-05 2.1111e-06 2.27328e-07 2.25663e-08 2.07297e-09 1.7687e-10 1.45354e-11 1.54502e-13 1.75121e-12 -1.12445e-12 1.46007e-12 2.06347e-13 -1.59983e-12 1.35635e-12 -1.23665e-12 1.08331e-12 5.89187e-13 -1.87167e-12 1.44619e-12 -1.34532e-12 1.31981e-12 3.45828e-13 -1.59094e-12 1.28762e-12 -1.27229e-12 9.57072e-13 -1.59645e-13 -2.3159e-12 2.86644e-13 4.13449e-14 -8.57394e-13 2.8756e-12 -1.27047e-12 -2.47967e-13 1.55194e-12 -1.11055e-12 2.55399e-12 -1.90921e-12 -6.8336e-13 1.52578e-12 -1.2107e-12 2.36348e-12 -2.40278e-12 9.60991e-13 -1.1084e-12 1.13436e-12 1.62735e-13 -1.47337e-12 3.04796e-13 9.48094e-14 2.11949e-12 -8.43189e-13 -1.99926e-12 -3.54425e-13 -5.51479e-13 1.88106e-12 -1.14226e-14 -8.28435e-13 2.05085e-12 -1.8027e-12 -5.00091e-13 2.13146e-12 -1.58979e-12 2.1144e-12 -2.10203e-12 -1.66303e-13 1.78566e-12 -1.17584e-12 1.53755e-12 -1.58538e-12 -9.63037e-13 2.29182e-12 -1.69603e-12 1.98973e-12 -1.98689e-12 -5.9638e-13 1.54671e-12 -2.49369e-12 9.81824e-13 -2.62391e-12 3.19425e-13 3.75494e-12 -3.17705e-12 2.51662e-13 8.47212e-13 2.91021e-13 4.36935e-12 -3.8568e-12 -4.11969e-13 0 0 -2.21189e-15 1.59885e-14 -1.38496e-13 8.98439e-14 -7.07798e-14 -1.85317e-13 -1.48444e-13 1.56035e-13 8.01614e-14 -1.35547e-13 9.53638e-14 -4.35479e-13 2.25045e-13 -4.64174e-13 7.07144e-14 3.40893e-13 -3.57999e-13 3.34623e-13 -2.71274e-13 -5.55834e-14 2.68841e-13 2.88187e-13 -6.76133e-14 -5.27833e-13 -5.76045e-14 3.08331e-13 -3.00706e-13 1.16665e-13 -4.63615e-13 4.49536e-13 -6.94507e-14 5.24398e-13 -3.36756e-13 -5.8283e-13 2.45649e-14 1.1748e-13 5.24776e-13 -3.9525e-13 -6.47928e-14 -2.83758e-13 2.11001e-13 -1.1636e-13 -1.65125e-13 5.28965e-14 3.63782e-13 -2.36934e-13 1.55831e-13 -2.07684e-13 -2.84405e-13 -1.1105e-13 4.23352e-13 3.6375e-14 -3.15034e-13 -1.30259e-12 -1.94314e-13 8.39881e-13 -1.17115e-14 -1.27112e-13 -3.91219e-13 6.05139e-13 6.96335e-13 -3.34961e-13 8.75392e-14 -1.63462e-13 4.85366e-13 -1.10795e-13 -6.53889e-13 -5.03479e-13 7.21431e-14 7.48812e-15 -2.81659e-13 -6.93166e-13 8.36728e-13 9.5884e-13 -1.8776e-13 -7.92261e-13 -2.46383e-13 7.48731e-13 -1.31748e-14 -9.91144e-13 2.93365e-13 -1.48475e-13 1.64444e-14 -1.34424e-12 1.8301e-12 5.28063e-13 -4.30132e-13 1.25158e-13 3.1001e-13 2.07421e-12 6.93934e-11 4.314e-09 2.08091e-07 7.54906e-06 0.000196194 0.00339427 0.0348873 0.185426 0.509208 0.657441 0.891136 0.884186 0.736985 0.510923 0.283077 0.115834 0.0318762 0.00620373 0.000990776 0.000140275 1.80026e-05 2.1111e-06 2.27328e-07 2.25681e-08 2.07185e-09 1.75542e-10 1.47665e-11 1.63582e-12 -6.6711e-14 6.93643e-13 -1.24013e-12 1.28347e-12 7.87309e-14 -4.02627e-13 1.54419e-13 -1.42439e-12 1.27692e-12 1.03058e-13 -3.08407e-13 3.70601e-13 -1.39462e-12 1.44769e-12 1.9118e-13 -3.26872e-13 3.55651e-13 -1.4508e-12 7.00385e-13 -3.04536e-13 -1.32027e-12 6.37278e-13 -1.02659e-13 -1.78459e-13 5.03951e-13 9.75292e-13 -8.99867e-13 2.94065e-13 3.60086e-13 -2.28175e-13 7.97114e-13 -1.05104e-12 2.05218e-13 5.92949e-13 -4.44778e-13 -2.46043e-14 6.83081e-13 -1.3419e-12 1.25027e-12 3.8941e-13 5.39627e-13 -7.10071e-13 -2.10098e-12 5.15067e-13 7.55465e-13 4.48201e-13 -1.01931e-12 -1.43578e-12 6.5548e-13 3.70134e-13 -4.35515e-14 1.0948e-12 1.63414e-13 -3.68271e-13 -3.5288e-13 -3.91581e-13 1.45481e-12 -2.37895e-13 1.0008e-13 -7.37355e-13 -4.47903e-13 1.249e-12 -8.48448e-14 -4.25614e-13 -5.6306e-13 -1.50692e-13 1.16449e-12 -3.91014e-13 -5.72386e-13 -1.30714e-12 -1.35929e-12 1.20502e-12 4.19999e-13 -1.73743e-12 -5.24237e-13 1.94454e-12 7.33737e-13 -1.79801e-13 -2.37064e-13 -4.73062e-14 1.04529e-12 0 0 -5.49435e-14 -6.15688e-14 -2.46815e-14 -5.28271e-14 -9.63633e-15 -1.11306e-14 -9.79002e-14 -6.3861e-14 -3.20647e-14 -1.97293e-13 -8.52723e-14 -1.95029e-13 1.93804e-14 -1.02149e-13 1.90174e-14 7.58179e-14 -1.39844e-13 3.73611e-14 1.25119e-13 8.77291e-14 1.19213e-13 -2.70061e-13 -8.2053e-14 -9.67077e-14 -1.02551e-13 -8.12695e-15 -1.6148e-13 2.53543e-14 -7.08694e-14 1.38009e-13 1.64331e-13 7.49001e-14 -3.83968e-13 -1.07155e-13 -1.73181e-15 -4.50499e-13 4.31426e-13 -4.90366e-13 2.72187e-13 -6.34625e-14 3.19595e-13 7.83462e-14 -2.07502e-13 -6.22072e-13 2.41186e-13 -7.00377e-13 8.63158e-13 -5.57194e-13 2.60503e-13 -3.17053e-13 -4.48225e-13 8.84018e-13 -9.38249e-13 -4.35398e-13 -3.38267e-13 2.95621e-13 9.75758e-13 -7.69638e-13 -5.97202e-14 5.34439e-13 4.86401e-13 2.40706e-13 5.68628e-13 -4.32957e-13 4.50335e-16 -5.2872e-13 -3.79418e-13 -2.82706e-13 -9.89176e-13 1.00493e-12 -1.15295e-12 5.27261e-14 3.57535e-13 9.48906e-13 -9.89772e-13 3.55166e-13 -3.78461e-14 2.31431e-13 4.74725e-13 -2.35961e-12 -3.56626e-13 1.2852e-12 -6.32513e-13 -1.82864e-13 1.29265e-12 -1.85328e-13 1.4115e-13 1.04045e-12 -8.10598e-13 2.66672e-12 6.84877e-11 4.31521e-09 2.08091e-07 7.54906e-06 0.000196194 0.00339427 0.0348873 0.185426 0.509208 0.657441 0.891136 0.884186 0.736985 0.510923 0.283077 0.115834 0.0318762 0.00620373 0.000990776 0.000140275 1.80026e-05 2.1111e-06 2.27327e-07 2.25683e-08 2.07174e-09 1.75704e-10 1.44678e-11 1.46563e-12 -7.57214e-13 1.53988e-12 -1.63025e-12 1.15719e-12 1.08327e-13 -9.62232e-13 1.29968e-12 -1.51458e-12 9.20528e-13 1.28653e-13 -9.0573e-13 1.38905e-12 -1.3265e-12 1.21634e-12 1.52705e-13 -1.22e-12 1.3341e-12 -1.53659e-12 2.43703e-13 -3.34071e-13 -1.15872e-12 1.21608e-13 3.15759e-13 -1.91099e-13 2.91482e-13 -7.33081e-14 -8.91942e-13 1.87569e-12 -3.33409e-13 -5.6787e-13 -3.91973e-13 -6.91756e-13 2.15502e-12 -1.31068e-13 2.45222e-13 -1.52743e-12 2.30849e-12 -1.52793e-12 8.65503e-13 -6.08929e-13 -6.52828e-13 1.31565e-12 -9.35289e-13 8.78832e-13 -1.92293e-12 -2.28878e-13 7.96428e-13 -1.51689e-12 1.24723e-12 7.20645e-13 -4.55102e-13 9.28123e-13 -1.22038e-12 -7.1952e-13 2.06725e-12 -8.98795e-13 7.13669e-13 -1.19156e-12 -1.40185e-13 1.66724e-12 -8.26193e-13 1.59273e-13 -1.29062e-12 -5.09476e-13 2.17188e-12 -1.20444e-12 4.7373e-13 -1.04981e-12 -9.62103e-13 1.2102e-12 -3.02688e-12 -9.40618e-13 1.97337e-12 -1.07416e-12 5.15392e-13 -5.34263e-13 -3.25166e-13 1.97285e-12 6.22758e-13 -2.83335e-13 -2.14905e-12 0 0 -5.16739e-14 -1.27192e-13 1.07963e-13 -2.14404e-13 -7.32681e-14 4.03504e-14 8.34524e-14 -2.56432e-13 -1.5261e-13 2.67819e-15 -5.19452e-13 4.13474e-13 -6.05504e-13 5.36447e-13 2.2968e-15 -3.42346e-13 7.27711e-13 -5.40699e-13 2.53777e-13 6.60825e-15 -4.23961e-13 -4.14334e-13 -1.86566e-13 5.082e-13 -2.03207e-14 -5.89961e-13 -5.17536e-14 4.18624e-14 4.38039e-13 -3.24836e-13 5.89705e-13 -6.50411e-13 -1.92048e-13 4.46992e-13 -6.49103e-14 2.14882e-13 -4.68712e-13 6.84401e-13 -5.49372e-13 1.71694e-13 -3.09768e-13 -3.07943e-13 2.49504e-13 -2.00484e-13 -5.90879e-13 1.82614e-13 -2.96726e-13 3.09607e-13 3.307e-13 -1.45345e-14 -2.32225e-13 -1.70131e-13 4.54506e-13 -7.86059e-13 -8.77358e-13 4.96794e-13 -5.34706e-15 4.62663e-13 -3.56703e-13 5.7959e-13 3.60013e-13 6.93265e-13 3.09845e-13 -4.28579e-13 -4.18049e-13 -1.18862e-13 -4.70054e-13 -1.33967e-13 -1.31699e-12 2.52071e-13 5.60508e-13 -6.73785e-14 1.78305e-12 -6.00845e-13 -9.05348e-14 -1.71071e-13 -1.14636e-12 5.49824e-14 -7.89079e-13 -3.89606e-14 -2.75466e-12 1.68093e-13 1.61532e-12 5.19496e-13 -2.17636e-12 5.29762e-13 1.45755e-12 -3.55006e-13 1.15941e-12 -1.70431e-13 6.96966e-11 4.31728e-09 2.08089e-07 7.54906e-06 0.000196194 0.00339427 0.0348873 0.185426 0.509208 0.657441 0.891136 0.884186 0.736985 0.510923 0.283077 0.115834 0.0318762 0.00620373 0.000990776 0.000140275 1.80026e-05 2.1111e-06 2.27328e-07 2.25665e-08 2.07288e-09 1.77212e-10 1.39051e-11 3.27454e-13 1.68587e-12 -1.27898e-12 1.63432e-12 -7.51369e-13 -1.28019e-12 1.8325e-12 -1.44583e-12 1.63605e-12 -1.9469e-13 -1.47746e-12 1.58618e-12 -1.45127e-12 1.62478e-12 -2.45423e-13 -1.33913e-12 1.25996e-12 -1.30533e-12 1.19793e-12 -1.13767e-12 -2.12277e-12 1.08455e-12 -1.06911e-12 -1.15497e-12 3.47105e-12 -1.88321e-12 -1.20909e-12 2.21675e-12 -1.40749e-12 3.80478e-12 -2.05111e-12 -7.62792e-13 1.79632e-12 -2.29936e-12 2.11442e-12 -2.61675e-12 1.35048e-12 -9.12282e-13 2.84459e-12 -4.16405e-13 -1.77226e-12 -1.37198e-12 3.88038e-13 3.78058e-12 -2.69916e-12 -2.81079e-12 -5.02618e-13 3.99631e-13 1.92435e-12 -3.37787e-12 2.22789e-13 4.58581e-12 -2.03693e-12 -1.39448e-12 1.6838e-12 -1.17469e-14 3.24946e-12 -4.29088e-12 -9.38993e-14 1.1301e-12 -5.58571e-14 3.34519e-12 -3.53014e-12 -2.04553e-12 2.04118e-12 -3.83944e-14 3.23364e-12 -4.02492e-12 -5.46498e-13 1.02394e-12 -1.0504e-12 7.40274e-13 -6.43161e-12 9.18957e-13 7.22242e-12 -3.48656e-12 -1.66119e-12 3.66325e-13 1.45e-12 6.59729e-12 -5.50813e-12 -2.48343e-12 0 0 -9.03751e-15 7.20433e-14 -3.0714e-13 2.14293e-13 -2.62683e-13 -3.52208e-13 -9.66027e-14 3.10122e-13 -3.53859e-14 -2.39023e-13 -4.67321e-14 -8.28896e-13 7.58126e-13 -5.74164e-13 3.67792e-13 6.35461e-13 -1.25342e-13 5.7924e-13 -8.9036e-13 -6.39181e-13 -1.7877e-13 5.42958e-13 -2.73176e-13 -8.58154e-13 -6.46384e-14 1.01324e-12 -2.40599e-13 -3.42397e-13 -2.93885e-13 7.71646e-13 -8.87343e-13 9.83286e-13 1.18426e-13 -1.29419e-12 6.79766e-13 8.53088e-13 1.2319e-12 -7.35234e-13 -5.11477e-13 -9.29171e-13 -2.63971e-13 -2.73511e-13 -4.56751e-13 3.36676e-13 1.18225e-12 -7.33767e-13 1.70559e-13 -7.82821e-13 -2.38012e-13 1.37153e-13 1.21801e-12 1.25348e-12 -1.92209e-12 -6.6694e-13 -4.09673e-13 -8.24027e-13 1.50129e-12 -1.59243e-12 1.19594e-12 1.17971e-12 6.92304e-13 -3.42906e-13 -1.7487e-12 1.26089e-12 6.04754e-13 1.92784e-13 -1.20352e-12 -1.96288e-12 1.78243e-12 4.20864e-14 -1.30833e-12 9.92129e-13 1.43096e-12 2.83059e-12 -1.1756e-12 -3.7538e-12 -3.26642e-13 -1.30784e-12 1.65058e-12 -1.16069e-12 -1.82903e-12 4.90661e-13 -1.09176e-12 -3.76409e-13 7.98481e-13 -7.39975e-15 2.51427e-14 -1.37885e-12 1.96188e-12 2.08148e-12 6.90178e-11 4.31587e-09 2.08088e-07 7.54907e-06 0.000196194 0.00339427 0.0348873 0.185426 0.509208 0.657441 0.891136 0.884186 0.736985 0.510923 0.283077 0.115834 0.0318762 0.00620373 0.000990776 0.000140275 1.80026e-05 2.11109e-06 2.27329e-07 2.25687e-08 2.07257e-09 1.75567e-10 1.28037e-11 4.25817e-12 -9.74125e-14 2.08937e-13 -3.45217e-14 -2.42462e-12 2.81221e-12 -3.41809e-13 -5.0918e-13 2.65126e-13 -2.00258e-12 2.98235e-12 -7.01275e-13 -3.90063e-13 -4.62497e-13 -1.51346e-12 2.677e-12 -3.68563e-13 -3.60387e-13 -4.66862e-13 -2.20752e-12 1.11631e-12 -9.69798e-13 7.5942e-13 -1.59407e-12 -1.11889e-12 2.31514e-12 1.12881e-12 -1.59745e-13 -1.25661e-12 4.684e-13 2.86254e-12 2.46534e-12 -1.88936e-12 -3.87657e-12 -2.22927e-12 1.14085e-12 1.71805e-12 -6.79466e-13 2.02007e-12 -1.06688e-12 2.58477e-12 -1.32095e-12 -2.11825e-12 -3.99587e-13 -4.33473e-12 4.18238e-12 1.80843e-14 -1.92256e-12 -4.02518e-13 -7.73374e-12 3.63121e-12 4.09899e-12 1.31895e-12 9.4681e-13 -2.03382e-12 1.26488e-12 6.72395e-13 -1.21359e-12 1.59858e-12 -2.12948e-12 -1.49056e-13 2.2958e-12 -5.89643e-13 5.70614e-13 -2.32416e-12 7.28326e-13 2.1153e-12 -1.24914e-12 1.41041e-12 -2.67455e-12 -5.77104e-13 -1.0867e-12 -2.31352e-12 2.01412e-12 -2.0402e-12 2.3936e-12 1.62367e-12 2.03309e-12 2.25144e-14 -1.79208e-12 1.23532e-12 9.62808e-13 0
				</DataArray>
				<DataArray Name="VitesseY" type="Float32" format="ascii">