<?xml version="1.0"?>
<VTKFile type="PolyData">
	<PolyData>
		<Piece NumberOfPoints="1206" NumberOfPolys="1000">
			<Points>
				<DataArray type="Float32" NumberOfComponents="3" format="ascii">
 0 0 0 0.005 0 0 0.01 0 0 0.015 0 0 0.02 0 0 0.025 0 0 0.03 0 0 0.035 0 0 0.04 0 0 0.045 0 0 0.05 0 0 0.055 0 0 0.06 0 0 0.065 0 0 0.07 0 0 0.075 0 0 0.08 0 0 0.085 0 0 0.09 0 0 0.095 0 0 0.1 0 0 0.105 0 0 0.11 0 0 0.115 0 0 0.12 0 0 0.125 0 0 0.13 0 0 0.135 0 0 0.14 0 0 0.145 0 0 0.15 0 0 0.155 0 0 0.16 0 0 0.165 0 0 0.17 0 0 0.175 0 0 0.18 0 0 0.185 0 0 0.19 0 0 0.195 0 0 0.2 0 0 0.205 0 0 0.21 0 0 0.215 0 0 0.22 0 0 0.225 0 0 0.23 0 0 0.235 0 0 0.24 0 0 0.245 0 0 0.25 0 0 0.255 0 0 0.26 0 0 0.265 0 0 0.27 0 0 0.275 0 0 0.28 0 0 0.285 0 0 0.29 0 0 0.295 0 0 0.3 0 0 0.305 0 0 0.31 0 0 0.315 0 0 0.32 0 0 0.325 0 0 0.33 0 0 0.335 0 0 0.34 0 0 0.345 0 0 0.35 0 0 0.355 0 0 0.36 0 0 0.365 0 0 0.37 0 0 0.375 0 0 0.38 0 0 0.385 0 0 0.39 0 0 0.395 0 0 0.4 0 0 0.405 0 0 0.41 0 0 0.415 0 0 0.42 0 0 0.425 0 0 0.43 0 0 0.435 0 0 0.44 0 0 0.445 0 0 0.45 0 0 0.455 0 0 0.46 0 0 0.465 0 0 0.47 0 0 0.475 0 0 0.48 0 0 0.485 0 0 0.49 0 0 0.495 0 0 0.5 0 0 0.505 0 0 0.51 0 0 0.515 0 0 0.52 0 0 0.525 0 0 0.53 0 0 0.535 0 0 0.54 0 0 0.545 0 0 0.55 0 0 0.555 0 0 0.56 0 0 0.565 0 0 0.57 0 0 0.575 0 0 0.58 0 0 0.585 0 0 0.59 0 0 0.595 0 0 0.6 0 0 0.605 0 0 0.61 0 0 0.615 0 0 0.62 0 0 0.625 0 0 0.63 0 0 0.635 0 0 0.64 0 0 0.645 0 0 0.65 0 0 0.655 0 0 0.66 0 0 0.665 0 0 0.67 0 0 0.675 0 0 0.68 0 0 0.685 0 0 0.69 0 0 0.695 0 0 0.7 0 0 0.705 0 0 0.71 0 0 0.715 0 0 0.72 0 0 0.725 0 0 0.73 0 0 0.735 0 0 0.74 0 0 0.745 0 0 0.75 0 0 0.755 0 0 0.76 0 0 0.765 0 0 0.77 0 0 0.775 0 0 0.78 0 0 0.785 0 0 0.79 0 0 0.795 0 0 0.8 0 0 0.805 0 0 0.81 0 0 0.815 0 0 0.82 0 0 0.825 0 0 0.83 0 0 0.835 0 0 0.84 0 0 0.845 0 0 0.85 0 0 0.855 0 0 0.86 0 0 0.865 0 0 0.87 0 0 0.875 0 0 0.88 0 0 0.885 0 0 0.89 0 0 0.895 0 0 0.9 0 0 0.905 0 0 0.91 0 0 0.915 0 0 0.92 0 0 0.925 0 0 0.93 0 0 0.935 0 0 0.94 0 0 0.945 0 0 0.95 0 0 0.955 0 0 0.96 0 0 0.965 0 0 0.97 0 0 0.975 0 0 0.98 0 0 0.985 0 0 0.99 0 0 0.995 0 0 1 0 0 0 0.02 0 0.005 0.02 0 0.01 0.02 0 0.015 0.02 0 0.02 0.02 0 0.025 0.02 0 0.03 0.02 0 0.035 0.02 0 0.04 0.02 0 0.045 0.02 0 0.05 0.02 0 0.055 0.02 0 0.06 0.02 0 0.065 0.02 0 0.07 0.02 0 0.075 0.02 0 0.08 0.02 0 0.085 0.02 0 0.09 0.02 0 0.095 0.02 0 0.1 0.02 0 0.105 0.02 0 0.11 0.02 0 0.115 0.02 0 0.12 0.02 0 0.125 0.02 0 0.13 0.02 0 0.135 0.02 0 0.14 0.02 0 0.145 0.02 0 0.15 0.02 0 0.155 0.02 0 0.16 0.02 0 0.165 0.02 0 0.17 0.02 0 0.175 0.02 0 0.18 0.02 0 0.185 0.02 0 0.19 0.02 0 0.195 0.02 0 0.2 0.02 0 0.205 0.02 0 0.21 0.02 0 0.215 0.02 0 0.22 0.02 0 0.225 0.02 0 0.23 0.02 0 0.235 0.02 0 0.24 0.02 0 0.245 0.02 0 0.25 0.02 0 0.255 0.02 0 0.26 0.02 0 0.265 0.02 0 0.27 0.02 0 0.275 0.02 0 0.28 0.02 0 0.285 0.02 0 0.29 0.02 0 0.295 0.02 0 0.3 0.02 0 0.305 0.02 0 0.31 0.02 0 0.315 0.02 0 0.32 0.02 0 0.325 0.02 0 0.33 0.02 0 0.335 0.02 0 0.34 0.02 0 0.345 0.02 0 0.35 0.02 0 0.355 0.02 0 0.36 0.02 0 0.365 0.02 0 0.37 0.02 0 0.375 0.02 0 0.38 0.02 0 0.385 0.02 0 0.39 0.02 0 0.395 0.02 0 0.4 0.02 0 0.405 0.02 0 0.41 0.02 0 0.415 0.02 0 0.42 0.02 0 0.425 0.02 0 0.43 0.02 0 0.435 0.02 0 0.44 0.02 0 0.445 0.02 0 0.45 0.02 0 0.455 0.02 0 0.46 0.02 0 0.465 0.02 0 0.47 0.02 0 0.475 0.02 0 0.48 0.02 0 0.485 0.02 0 0.49 0.02 0 0.495 0.02 0 0.5 0.02 0 0.505 0.02 0 0.51 0.02 0 0.515 0.02 0 0.52 0.02 0 0.525 0.02 0 0.53 0.02 0 0.535 0.02 0 0.54 0.02 0 0.545 0.02 0 0.55 0.02 0 0.555 0.02 0 0.56 0.02 0 0.565 0.02 0 0.57 0.02 0 0.575 0.02 0 0.58 0.02 0 0.585 0.02 0 0.59 0.02 0 0.595 0.02 0 0.6 0.02 0 0.605 0.02 0 0.61 0.02 0 0.615 0.02 0 0.62 0.02 0 0.625 0.02 0 0.63 0.02 0 0.635 0.02 0 0.64 0.02 0 0.645 0.02 0 0.65 0.02 0 0.655 0.02 0 0.66 0.02 0 0.665 0.02 0 0.67 0.02 0 0.675 0.02 0 0.68 0.02 0 0.685 0.02 0 0.69 0.02 0 0.695 0.02 0 0.7 0.02 0 0.705 0.02 0 0.71 0.02 0 0.715 0.02 0 0.72 0.02 0 0.725 0.02 0 0.73 0.02 0 0.735 0.02 0 0.74 0.02 0 0.745 0.02 0 0.75 0.02 0 0.755 0.02 0 0.76 0.02 0 0.765 0.02 0 0.77 0.02 0 0.775 0.02 0 0.78 0.02 0 0.785 0.02 0 0.79 0.02 0 0.795 0.02 0 0.8 0.02 0 0.805 0.02 0 0.81 0.02 0 0.815 0.02 0 0.82 0.02 0 0.825 0.02 0 0.83 0.02 0 0.835 0.02 0 0.84 0.02 0 0.845 0.02 0 0.85 0.02 0 0.855 0.02 0 0.86 0.02 0 0.865 0.02 0 0.87 0.02 0 0.875 0.02 0 0.88 0.02 0 0.885 0.02 0 0.89 0.02 0 0.895 0.02 0 0.9 0.02 0 0.905 0.02 0 0.91 0.02 0 0.915 0.02 0 0.92 0.02 0 0.925 0.02 0 0.93 0.02 0 0.935 0.02 0 0.94 0.02 0 0.945 0.02 0 0.95 0.02 0 0.955 0.02 0 0.96 0.02 0 0.965 0.02 0 0.97 0.02 0 0.975 0.02 0 0.98 0.02 0 0.985 0.02 0 0.99 0.02 0 0.995 0.02 0 1 0.02 0 0 0.04 0 0.005 0.04 0 0.01 0.04 0 0.015 0.04 0 0.02 0.04 0 0.025 0.04 0 0.03 0.04 0 0.035 0.04 0 0.04 0.04 0 0.045 0.04 0 0.05 0.04 0 0.055 0.04 0 0.06 0.04 0 0.065 0.04 0 0.07 0.04 0 0.075 0.04 0 0.08 0.04 0 0.085 0.04 0 0.09 0.04 0 0.095 0.04 0 0.1 0.04 0 0.105 0.04 0 0.11 0.04 0 0.115 0.04 0 0.12 0.04 0 0.125 0.04 0 0.13 0.04 0 0.135 0.04 0 0.14 0.04 0 0.145 0.04 0 0.15 0.04 0 0.155 0.04 0 0.16 0.04 0 0.165 0.04 0 0.17 0.04 0 0.175 0.04 0 0.18 0.04 0 0.185 0.04 0 0.19 0.04 0 0.195 0.04 0 0.2 0.04 0 0.205 0.04 0 0.21 0.04 0 0.215 0.04 0 0.22 0.04 0 0.225 0.04 0 0.23 0.04 0 0.235 0.04 0 0.24 0.04 0 0.245 0.04 0 0.25 0.04 0 0.255 0.04 0 0.26 0.04 0 0.265 0.04 0 0.27 0.04 0 0.275 0.04 0 0.28 0.04 0 0.285 0.04 0 0.29 0.04 0 0.295 0.04 0 0.3 0.04 0 0.305 0.04 0 0.31 0.04 0 0.315 0.04 0 0.32 0.04 0 0.325 0.04 0 0.33 0.04 0 0.335 0.04 0 0.34 0.04 0 0.345 0.04 0 0.35 0.04 0 0.355 0.04 0 0.36 0.04 0 0.365 0.04 0 0.37 0.04 0 0.375 0.04 0 0.38 0.04 0 0.385 0.04 0 0.39 0.04 0 0.395 0.04 0 0.4 0.04 0 0.405 0.04 0 0.41 0.04 0 0.415 0.04 0 0.42 0.04 0 0.425 0.04 0 0.43 0.04 0 0.435 0.04 0 0.44 0.04 0 0.445 0.04 0 0.45 0.04 0 0.455 0.04 0 0.46 0.04 0 0.465 0.04 0 0.47 0.04 0 0.475 0.04 0 0.48 0.04 0 0.485 0.04 0 0.49 0.04 0 0.495 0.04 0 0.5 0.04 0 0.505 0.04 0 0.51 0.04 0 0.515 0.04 0 0.52 0.04 0 0.525 0.04 0 0.53 0.04 0 0.535 0.04 0 0.54 0.04 0 0.545 0.04 0 0.55 0.04 0 0.555 0.04 0 0.56 0.04 0 0.565 0.04 0 0.57 0.04 0 0.575 0.04 0 0.58 0.04 0 0.585 0.04 0 0.59 0.04 0 0.595 0.04 0 0.6 0.04 0 0.605 0.04 0 0.61 0.04 0 0.615 0.04 0 0.62 0.04 0 0.625 0.04 0 0.63 0.04 0 0.635 0.04 0 0.64 0.04 0 0.645 0.04 0 0.65 0.04 0 0.655 0.04 0 0.66 0.04 0 0.665 0.04 0 0.67 0.04 0 0.675 0.04 0 0.68 0.04 0 0.685 0.04 0 0.69 0.04 0 0.695 0.04 0 0.7 0.04 0 0.705 0.04 0 0.71 0.04 0 0.715 0.04 0 0.72 0.04 0 0.725 0.04 0 0.73 0.04 0 0.735 0.04 0 0.74 0.04 0 0.745 0.04 0 0.75 0.04 0 0.755 0.04 0 0.76 0.04 0 0.765 0.04 0 0.77 0.04 0 0.775 0.04 0 0.78 0.04 0 0.785 0.04 0 0.79 0.04 0 0.795 0.04 0 0.8 0.04 0 0.805 0.04 0 0.81 0.04 0 0.815 0.04 0 0.82 0.04 0 0.825 0.04 0 0.83 0.04 0 0.835 0.04 0 0.84 0.04 0 0.845 0.04 0 0.85 0.04 0 0.855 0.04 0 0.86 0.04 0 0.865 0.04 0 0.87 0.04 0 0.875 0.04 0 0.88 0.04 0 0.885 0.04 0 0.89 0.04 0 0.895 0.04 0 0.9 0.04 0 0.905 0.04 0 0.91 0.04 0 0.915 0.04 0 0.92 0.04 0 0.925 0.04 0 0.93 0.04 0 0.935 0.04 0 0.94 0.04 0 0.945 0.04 0 0.95 0.04 0 0.955 0.04 0 0.96 0.04 0 0.965 0.04 0 0.97 0.04 0 0.975 0.04 0 0.98 0.04 0 0.985 0.04 0 0.99 0.04 0 0.995 0.04 0 1 0.04 0 0 0.06 0 0.005 0.06 0 0.01 0.06 0 0.015 0.06 0 0.02 0.06 0 0.025 0.06 0 0.03 0.06 0 0.035 0.06 0 0.04 0.06 0 0.045 0.06 0 0.05 0.06 0 0.055 0.06 0 0.06 0.06 0 0.065 0.06 0 0.07 0.06 0 0.075 0.06 0 0.08 0.06 0 0.085 0.06 0 0.09 0.06 0 0.095 0.06 0 0.1 0.06 0 0.105 0.06 0 0.11 0.06 0 0.115 0.06 0 0.12 0.06 0 0.125 0.06 0 0.13 0.06 0 0.135 0.06 0 0.14 0.06 0 0.145 0.06 0 0.15 0.06 0 0.155 0.06 0 0.16 0.06 0 0.165 0.06 0 0.17 0.06 0 0.175 0.06 0 0.18 0.06 0 0.185 0.06 0 0.19 0.06 0 0.195 0.06 0 0.2 0.06 0 0.205 0.06 0 0.21 0.06 0 0.215 0.06 0 0.22 0.06 0 0.225 0.06 0 0.23 0.06 0 0.235 0.06 0 0.24 0.06 0 0.245 0.06 0 0.25 0.06 0 0.255 0.06 0 0.26 0.06 0 0.265 0.06 0 0.27 0.06 0 0.275 0.06 0 0.28 0.06 0 0.285 0.06 0 0.29 0.06 0 0.295 0.06 0 0.3 0.06 0 0.305 0.06 0 0.31 0.06 0 0.315 0.06 0 0.32 0.06 0 0.325 0.06 0 0.33 0.06 0 0.335 0.06 0 0.34 0.06 0 0.345 0.06 0 0.35 0.06 0 0.355 0.06 0 0.36 0.06 0 0.365 0.06 0 0.37 0.06 0 0.375 0.06 0 0.38 0.06 0 0.385 0.06 0 0.39 0.06 0 0.395 0.06 0 0.4 0.06 0 0.405 0.06 0 0.41 0.06 0 0.415 0.06 0 0.42 0.06 0 0.425 0.06 0 0.43 0.06 0 0.435 0.06 0 0.44 0.06 0 0.445 0.06 0 0.45 0.06 0 0.455 0.06 0 0.46 0.06 0 0.465 0.06 0 0.47 0.06 0 0.475 0.06 0 0.48 0.06 0 0.485 0.06 0 0.49 0.06 0 0.495 0.06 0 0.5 0.06 0 0.505 0.06 0 0.51 0.06 0 0.515 0.06 0 0.52 0.06 0 0.525 0.06 0 0.53 0.06 0 0.535 0.06 0 0.54 0.06 0 0.545 0.06 0 0.55 0.06 0 0.555 0.06 0 0.56 0.06 0 0.565 0.06 0 0.57 0.06 0 0.575 0.06 0 0.58 0.06 0 0.585 0.06 0 0.59 0.06 0 0.595 0.06 0 0.6 0.06 0 0.605 0.06 0 0.61 0.06 0 0.615 0.06 0 0.62 0.06 0 0.625 0.06 0 0.63 0.06 0 0.635 0.06 0 0.64 0.06 0 0.645 0.06 0 0.65 0.06 0 0.655 0.06 0 0.66 0.06 0 0.665 0.06 0 0.67 0.06 0 0.675 0.06 0 0.68 0.06 0 0.685 0.06 0 0.69 0.06 0 0.695 0.06 0 0.7 0.06 0 0.705 0.06 0 0.71 0.06 0 0.715 0.06 0 0.72 0.06 0 0.725 0.06 0 0.73 0.06 0 0.735 0.06 0 0.74 0.06 0 0.745 0.06 0 0.75 0.06 0 0.755 0.06 0 0.76 0.06 0 0.765 0.06 0 0.77 0.06 0 0.775 0.06 0 0.78 0.06 0 0.785 0.06 0 0.79 0.06 0 0.795 0.06 0 0.8 0.06 0 0.805 0.06 0 0.81 0.06 0 0.815 0.06 0 0.82 0.06 0 0.825 0.06 0 0.83 0.06 0 0.835 0.06 0 0.84 0.06 0 0.845 0.06 0 0.85 0.06 0 0.855 0.06 0 0.86 0.06 0 0.865 0.06 0 0.87 0.06 0 0.875 0.06 0 0.88 0.06 0 0.885 0.06 0 0.89 0.06 0 0.895 0.06 0 0.9 0.06 0 0.905 0.06 0 0.91 0.06 0 0.915 0.06 0 0.92 0.06 0 0.925 0.06 0 0.93 0.06 0 0.935 0.06 0 0.94 0.06 0 0.945 0.06 0 0.95 0.06 0 0.955 0.06 0 0.96 0.06 0 0.965 0.06 0 0.97 0.06 0 0.975 0.06 0 0.98 0.06 0 0.985 0.06 0 0.99 0.06 0 0.995 0.06 0 1 0.06 0 0 0.08 0 0.005 0.08 0 0.01 0.08 0 0.015 0.08 0 0.02 0.08 0 0.025 0.08 0 0.03 0.08 0 0.035 0.08 0 0.04 0.08 0 0.045 0.08 0 0.05 0.08 0 0.055 0.08 0 0.06 0.08 0 0.065 0.08 0 0.07 0.08 0 0.075 0.08 0 0.08 0.08 0 0.085 0.08 0 0.09 0.08 0 0.095 0.08 0 0.1 0.08 0 0.105 0.08 0 0.11 0.08 0 0.115 0.08 0 0.12 0.08 0 0.125 0.08 0 0.13 0.08 0 0.135 0.08 0 0.14 0.08 0 0.145 0.08 0 0.15 0.08 0 0.155 0.08 0 0.16 0.08 0 0.165 0.08 0
[...]
			<PointData Scalars="VitesseX">
				<DataArray Name="VitesseX" type="Float32" format="ascii">
 0 -1.50444e-14 -1.48478e-14 8.69557e-16 -9.26648e-14 -7.81134e-15 -2.03595e-14 -7.64187e-14 -7.09244e-14 -6.98e-14 -8.06115e-14 -1.11677e-13 7.60104e-14 -1.75573e-13 2.76315e-15 -8.55774e-14 -2.10602e-13 -1.15645e-13 -9.9921e-14 3.06164e-14 -9.58719e-14 6.34369e-14 -9.40501e-14 2.11417e-13 1.39489e-14 -1.86783e-15 -5.58027e-14 -3.90344e-14 -2.29519e-13 3.58896e-14 8.21813e-14 -9.39232e-15 -3.17218e-13 -1.85022e-13 2.24477e-13 -2.74319e-13 -3.28274e-13 1.97199e-13 -2.19992e-13 -1.35416e-13 -2.03562e-13 -1.39949e-13 -5.00704e-14 -8.92039e-15 -3.80475e-13 -2.98637e-13 -7.65695e-13 6.59584e-13 5.06123e-14 -8.17675e-14 -6.28738e-13 2.97048e-13 1.29352e-13 -4.09309e-13 1.94315e-13 3.81688e-13 -4.97739e-13 1.53663e-13 -3.64443e-13 3.64378e-13 -3.67997e-13 2.82219e-13 -5.31745e-13 3.71168e-14 1.441e-13 -1.16996e-13 -2.79957e-13 -1.26261e-13 -5.87117e-13 3.76516e-13 5.21304e-12 5.77277e-11 5.89057e-10 5.4763e-09 4.64338e-08 3.56557e-07 2.46229e-06 1.51655e-05 8.24654e-05 0.000390938 0.00159054 0.00545115 0.0154462 0.035797 0.0684102 0.111259 0.160764 0.21425 0.270226 0.327918 0.387015 0.447697 0.506513 0.560043 0.612988 0.663957 0.710924 0.758944 0.800947 0.838778 0.874924 0.898668 0.915796 0.929427 0.932587 0.933164 0.933758 0.933635 0.933044 0.931814 0.930033 0.927729 0.930131 0.933027 0.92859 0.927709 0.928256 0.928274 0.926794 0.922478 0.914552 0.899035 0.868676 0.814727 0.729531 0.611225 0.469519 0.324292 0.197949 0.104696 0.0477883 0.0193136 0.00721597 0.00257914 0.000897384 0.000305998 0.000102457 3.3691e-05 1.0876e-05 3.44499e-06 1.07018e-06 3.25918e-07 9.7275e-08 2.84481e-08 8.1505e-09 2.28712e-09 6.28521e-10 1.69069e-10 4.46735e-11 1.21085e-11 1.77252e-12 5.58107e-13 -6.17452e-13 1.0361e-12 -1.44151e-13 -3.16568e-13 -9.35388e-13 1.66926e-13 -2.68034e-14 7.11e-13 -8.14086e-13 -1.29199e-12 -1.72908e-13 1.16722e-12 -3.41969e-13 -1.52577e-13 -1.26194e-12 7.20468e-13 5.49316e-13 -2.52373e-14 4.08216e-13 2.51399e-13 -7.83373e-13 5.34442e-13 -8.71036e-13 9.76709e-13 -4.8431e-13 -6.0964e-13 -6.95851e-13 -7.11739e-13 1.26648e-12 2.66456e-13 -6.05994e-13 -3.62567e-13 -5.46674e-13 1.7986e-12 -4.4025e-13 -4.15995e-13 -7.97977e-13 -1.13543e-12 1.05461e-12 -6.54538e-13 -1.1539e-12 -7.14659e-13 8.26102e-13 -1.27895e-13 -1.41835e-12 -3.21025e-14 2.86898e-13 1.16561e-12 0 0 -4.8575e-15 -1.44616e-14 -4.80185e-14 -6.57902e-15 -7.14127e-14 -8.27541e-14 -4.91592e-14 -4.99558e-14 9.17977e-15 -7.18188e-14 -6.41301e-14 -1.24731e-13 2.99491e-14 -1.48968e-13 -8.46339e-14 4.54665e-16 -1.31422e-13 -6.15003e-14 -1.98377e-13 -3.22644e-14 -7.9588e-14 1.55359e-13 -1.58381e-13 1.01361e-13 -3.40833e-14 -1.02943e-13 -7.23894e-14 -2.79683e-14 -2.55615e-14 -1.36568e-13 -5.51106e-14 2.80732e-14 3.98326e-14 -3.41506e-13 -7.91653e-14 1.5667e-13 -3.1634e-13 -3.9125e-14 -1.90871e-13 -1.49293e-13 -2.02174e-13 -6.55017e-14 -2.23821e-13 -1.36279e-13 -2.06695e-13 2.25912e-13 -7.664e-13 9.6946e-14 2.58259e-13 3.69741e-13 -1.24762e-13 -3.5384e-14 1.79405e-13 -1.91992e-13 -2.38942e-13 2.31327e-13 -5.99366e-13 2.03552e-13 -3.78716e-13 2.29173e-13 -3.65074e-13 2.44102e-13 -1.53456e-13 -3.58449e-13 -1.21058e-13 -6.36247e-14 -7.71229e-14 2.90957e-13 1.79832e-13 5.02475e-12 5.83445e-11 5.88958e-10 5.47636e-09 4.64343e-08 3.56555e-07 2.46229e-06 1.51655e-05 8.24654e-05 0.000390938 0.00159054 0.00545115 0.0154462 0.035797 0.0684102 0.111259 0.160764 0.21425 0.270226 0.327918 0.387015 0.447697 0.506513 0.560043 0.612988 0.663957 0.710924 0.758944 0.800947 0.838778 0.874924 0.898668 0.915796 0.929427 0.932587 0.933164 0.933758 0.933635 0.933044 0.931814 0.930033 0.927729 0.930131 0.933027 0.92859 0.927709 0.928256 0.928274 0.926794 0.922478 0.914552 0.899035 0.868676 0.814727 0.729531 0.611225 0.469519 0.324292 0.197949 0.104696 0.0477883 0.0193136 0.00721597 0.00257914 0.000897384 0.000305998 0.000102457 3.3691e-05 1.0876e-05 3.44499e-06 1.07018e-06 3.25917e-07 9.72761e-08 2.84474e-08 8.15019e-09 2.28732e-09 6.29128e-10 1.69352e-10 4.42488e-11 1.06567e-11 3.2778e-12 4.02768e-13 1.90286e-13 -7.13428e-13 -2.6247e-13 -1.21388e-14 2.53142e-13 -3.15132e-13 -4.69927e-13 -8.25986e-13 -9.68678e-14 6.36776e-13 -3.91092e-16 -1.14379e-12 -2.47109e-13 -2.93002e-13 6.09852e-13 4.37848e-14 2.50094e-13 -1.86579e-13 -1.78258e-13 3.54261e-13 8.09082e-13 -7.14205e-13 2.23463e-13 -4.90128e-13 -9.89234e-14 -4.29241e-13 -7.10352e-14 5.87784e-14 -1.12196e-12 -2.65377e-15 7.13795e-13 1.50807e-13 3.35076e-13 -1.00876e-12 5.50485e-13 -1.25709e-13 -9.4455e-14 -1.58316e-14 -1.23251e-12 -1.99818e-13 3.41193e-13 -2.31087e-13 -1.14375e-12 -2.48949e-13 7.58603e-13 3.69894e-13 -5.79003e-13 -9.5825e-13 0 0 -2.22751e-14 -1.43483e-14 -2.12155e-14 -5.27672e-14 -2.3465e-14 -7.6925e-15 -1.05628e-13 -4.75294e-14 -5.47837e-14 -3.47101e-14 -4.38048e-15 4.86367e-15 -1.11198e-13 -9.29054e-14 3.82536e-14 -1.7044e-13 -1.15479e-13 -6.3756e-14 -9.04719e-14 -2.14737e-13 -4.47736e-14 -1.61146e-13 3.59978e-14 -3.84866e-14 -5.33278e-14 -5.63129e-14 -1.71353e-13 -3.02655e-14 -6.41705e-14 9.16509e-14 -9.38039e-14 -1.81939e-13 -8.86145e-14 -4.68624e-14 -2.09445e-13 1.01891e-13 1.45474e-14 -1.83509e-13 -1.93979e-13 -3.76664e-13 -7.38778e-14 -6.13041e-14 7.58226e-14 -1.32854e-13 -5.47498e-14 -3.26971e-13 -5.28119e-14 1.07762e-13 1.76305e-13 4.76695e-14 3.39112e-13 -1.30362e-13 -2.87451e-13 4.17423e-14 -6.69618e-14 -3.40185e-13 7.44897e-14 -4.23902e-14 -1.28942e-13 -3.83477e-13 -1.23961e-13 -1.23487e-13 4.92819e-14 -5.55853e-14 -7.70273e-14 1.11722e-13 -1.19982e-13 4.16803e-14 6.16599e-13 5.54177e-12 5.8219e-11 5.89066e-10 5.47708e-09 4.64339e-08 3.56556e-07 2.46229e-06 1.51655e-05 8.24654e-05 0.000390938 0.00159054 0.00545115 0.0154462 0.035797 0.0684102 0.111259 0.160764 0.21425 0.270226 0.327918 0.387015 0.447697 0.506513 0.560043 0.612988 0.663957 0.710924 0.758944 0.800947 0.838778 0.874924 0.898668 0.915796 0.929427 0.932587 0.933164 0.933758 0.933635 0.933044 0.931814 0.930033 0.927729 0.930131 0.933027 0.92859 0.927709 0.928256 0.928274 0.926794 0.922478 0.914552 0.899035 0.868676 0.814727 0.729531 0.611225 0.469519 0.324292 0.197949 0.104696 0.0477883 0.0193136 0.00721597 0.00257914 0.000897384 0.000305998 0.000102457 3.3691e-05 1.0876e-05 3.44499e-06 1.07018e-06 3.25918e-07 9.72755e-08 2.84478e-08 8.1504e-09 2.28738e-09 6.28577e-10 1.69267e-10 4.43184e-11 1.16158e-11 2.52415e-12 1.22865e-13 -7.91916e-14 -3.79519e-13 -1.28264e-13 -1.6153e-13 -1.42936e-13 -1.6779e-13 -6.38913e-13 -2.42025e-13 -6.59223e-13 2.92607e-13 -3.79806e-13 2.34748e-14 -6.59132e-13 -2.54347e-14 -2.36745e-13 -1.65385e-13 2.85719e-13 4.06279e-13 8.37416e-14 -8.63681e-14 1.63741e-13 2.67842e-15 -3.1016e-13 -3.30525e-13 -2.30398e-13 -4.83063e-14 -2.88603e-13 -3.53784e-13 2.09603e-13 -3.66373e-13 5.9834e-13 -2.47987e-13 -2.43715e-14 -1.18997e-13 1.33235e-13 2.54447e-13 9.51941e-14 5.45275e-14 -9.70119e-14 -6.47449e-13 -5.09775e-13 -2.91168e-13 1.32711e-13 -1.30734e-13 2.28484e-14 5.79333e-13 -1.77098e-14 -2.26445e-13 0 0 -1.47867e-14 -1.86787e-14 -1.09313e-14 -6.80603e-14 -2.64321e-14 -2.60888e-14 9.45996e-15 -4.25861e-14 -1.41323e-14 -4.14204e-14 1.16049e-14 -4.35762e-14 -8.79324e-14 -1.18811e-14 -9.48005e-14 -2.06599e-13 -1.20134e-13 -2.10353e-13 -4.86363e-14 -2.60786e-13 4.24051e-14 -1.01732e-13 -8.53498e-14 -3.10861e-14 -1.16614e-13 -5.09803e-14 -1.07455e-14 -1.93857e-13 1.14034e-13 -1.21422e-13 5.11988e-14 -2.55334e-13 -6.91886e-14 2.00422e-13 -1.79277e-13 -1.67446e-13 1.5205e-13 -1.52952e-13 -1.59375e-13 -1.80944e-13 -4.84889e-13 5.82027e-14 -2.1738e-13 6.40591e-14 -4.37257e-14 -3.85226e-13 6.77143e-14 1.52201e-13 -6.16146e-15 -3.03585e-13 1.41515e-13 -2.26486e-13 -6.95923e-15 1.73693e-13 -7.08397e-14 -2.86516e-13 1.18532e-13 -1.26694e-13 9.64921e-15 -3.73114e-13 5.62957e-14 -1.60966e-13 -1.74126e-13 1.68341e-13 1.08959e-13 1.78571e-14 -2.42855e-13 -4.27689e-14 7.18009e-13 5.68502e-12 5.80402e-11 5.89152e-10 5.47685e-09 4.6434e-08 3.56556e-07 2.46229e-06 1.51655e-05 8.24654e-05 0.000390938 0.00159054 0.00545115 0.0154462 0.035797 0.0684102 0.111259 0.160764 0.21425 0.270226 0.327918 0.387015 0.447697 0.506513 0.560043 0.612988 0.663957 0.710924 0.758944 0.800947 0.838778 0.874924 0.898668 0.915796 0.929427 0.932587 0.933164 0.933758 0.933635 0.933044 0.931814 0.930033 0.927729 0.930131 0.933027 0.92859 0.927709 0.928256 0.928274 0.926794 0.922478 0.914552 0.899035 0.868676 0.814727 0.729531 0.611225 0.469519 0.324292 0.197949 0.104696 0.0477883 0.0193136 0.00721597 0.00257914 0.000897384 0.000305998 0.000102457 3.3691e-05 1.0876e-05 3.44499e-06 1.07018e-06 3.25918e-07 9.72755e-08 2.84481e-08 8.15025e-09 2.28731e-09 6.28463e-10 1.6913e-10 4.44327e-11 1.16311e-11 2.32882e-12 3.83403e-13 -6.02457e-13 1.71842e-13 -2.42744e-13 -3.17823e-13 -7.49326e-13 5.6014e-13 2.21329e-13 1.78467e-14 -2.35411e-13 -1.02279e-12 -5.74359e-13 2.40052e-13 -1.75988e-13 6.69371e-14 -4.51286e-13 -2.46254e-13 6.3466e-13 2.06185e-13 1.82301e-14 -5.88915e-13 -8.44218e-13 1.5643e-13 -6.61996e-13 3.15697e-13 -7.39791e-13 -1.50452e-13 -1.43936e-13 -5.24376e-13 4.95575e-13 3.50354e-13 -7.34111e-13 8.07281e-13 -1.37042e-13 1.07347e-12 -3.04114e-13 5.32933e-13 -3.40986e-13 -6.50083e-13 -2.75017e-13 -4.91704e-13 -8.61991e-14 -7.3807e-13 2.62659e-13 1.4091e-13 -1.15689e-13 2.15815e-14 -4.31948e-13 1.14036e-12 0 0 1.34951e-15 -2.76136e-14 -2.69791e-14 7.38587e-15 -5.67761e-14 -5.10248e-14 7.92974e-14 1.32821e-14 8.37346e-14 -8.71251e-14 -3.55737e-14 -1.53087e-13 3.51772e-14 -1.49254e-13 -1.54758e-13 -5.61461e-14 -2.04875e-13 -1.9052e-13 -2.17737e-13 -8.19469e-14 -8.1416e-14 1.17976e-13 -2.69875e-13 5.10365e-14 -1.06781e-13 -1.5015e-13 1.98707e-14 -8.75993e-14 1.23917e-13 -2.18307e-13 7.57289e-14 8.42015e-14 2.36662e-14 -1.62408e-13 -6.31382e-14 9.10419e-14 -1.72846e-13 -4.77698e-14 -1.82964e-13 -2.17094e-14 -3.83587e-13 -1.72843e-13 -4.82395e-13 -1.6949e-14 -1.85016e-13 2.02664e-13 -6.78249e-13 4.5755e-14 1.34703e-13 3.42946e-13 -4.04498e-13 -1.32607e-13 3.52381e-13 -4.08395e-13 -3.82957e-13 1.31833e-13 -6.92925e-13 1.26321e-13 -1.0138e-13 1.37829e-13 -1.3945e-13 3.51579e-13 -2.24997e-13 -1.38557e-13 6.92352e-14 2.27542e-14 -7.0575e-14 1.35245e-13 5.28224e-13 5.42775e-12 5.869e-11 5.88914e-10 5.47664e-09 4.64344e-08 3.56556e-07 2.46229e-06 1.51655e-05 8.24654e-05 0.000390938 0.00159054 0.00545115 0.0154462 0.035797 0.0684102 0.111259 0.160764 0.21425 0.270226 0.327918 0.387015 0.447697 0.506513 0.560043 0.612988 0.663957 0.710924 0.758944 0.800947 0.838778 0.874924 0.898668 0.915796 0.929427 0.932587 0.933164 0.933758 0.933635 0.933044 0.931814 0.930033 0.927729 0.930131 0.933027 0.92859 0.927709 0.928256 0.928274 0.926794 0.922478 0.914552 0.899035 0.868676 0.814727 0.729531 0.611225 0.469519 0.324292 0.197949 0.104696 0.0477883 0.0193136 0.00721597 0.00257914 0.000897384 0.000305998 0.000102457 3.3691e-05 1.0876e-05 3.44499e-06 1.07018e-06 3.25917e-07 9.72762e-08 2.84476e-08 8.15004e-09 2.28697e-09 6.29094e-10 1.68798e-10 4.44108e-11 1.06956e-11 3.20088e-12 9.01286e-13 -4.28177e-13 -9.79968e-13 -5.87298e-13 3.36401e-13 1.73154e-13 2.25977e-13 2.00304e-13 -6.09791e-14 2.68228e-13 -3.17922e-13 -2.88345e-13 -6.91945e-13 3.01176e-14 -2.28333e-13 4.37281e-13 -5.29317e-13 2.2626e-13 -2.01375e-13 -3.65318e-13 -2.65708e-13 -7.99825e-14 -1.11128e-12 -2.11463e-13 -4.01333e-13 -4.82563e-13 -3.955e-13 2.56166e-14 -1.11481e-14 -7.20562e-13 2.8783e-13 -1.9497e-13 1.21724e-12 4.63411e-13 -2.75978e-13 2.20656e-13 -3.77168e-14 -8.33981e-14 1.28538e-13 -1.09761e-12 -1.22528e-13 6.6943e-13 -1.73936e-13 -1.19221e-12 -5.72171e-14 9.67382e-13 -2.74473e-14 -2.4896e-13 -1.16437e-13 0 0 -1.7607e-14 -3.24909e-14 2.23799e-14 -3.41487e-14 2.7396e-14 7.98917e-14 -4.96805e-14 4.56647e-14 -1.99313e-15 -9.78035e-14 -8.65348e-14 1.1618e-13 -2.11649e-13 -1.59856e-13 4.02826e-14 -2.51486e-13 -2.53241e-13 -6.47663e-14 -9.1775e-14 -1.03139e-13 -1.14577e-13 -2.87644e-13 2.31123e-13 -1.01502e-13 -2.06923e-14 -1.60883e-13 -1.75729e-13 -2.15982e-14 -2.15619e-14 3.44848e-13 -3.77186e-14 -5.81711e-14 -2.56207e-13 8.81041e-14 -3.026e-13 7.91446e-14 2.09183e-13 -2.98397e-13 -1.88809e-13 -3.39835e-13 3.19248e-13 -5.03766e-13 6.03356e-14 -5.35642e-13 -2.77328e-13 -6.9568e-13 5.94834e-13 -1.40647e-13 3.60536e-14 2.01788e-14 1.32772e-13 1.27155e-13 -6.24341e-13 -5.02392e-13 1.01414e-13 -8.04067e-13 -1.2154e-13 -3.50298e-13 6.41869e-13 -5.7141e-13 3.72954e-13 -2.41832e-13 3.40849e-13 1.36031e-13 -1.08383e-13 8.05319e-14 1.32582e-13 -7.29644e-13 8.70478e-13 5.73254e-12 5.87763e-11 5.88795e-10 5.47731e-09 4.64338e-08 3.56556e-07 2.46229e-06 1.51655e-05 8.24654e-05 0.000390938 0.00159054 0.00545115 0.0154462 0.035797 0.0684102 0.111259 0.160764 0.21425 0.270226 0.327918 0.387015 0.447697 0.506513 0.560043 0.612988 0.663957 0.710924 0.758944 0.800947 0.838778 0.874924 0.898668 0.915796 0.929427 0.932587 0.933164 0.933758 0.933635 0.933044 0.931814 0.930033 0.927729 0.930131 0.933027 0.92859 0.927709 0.928256 0.928274 0.926794 0.922478 0.914552 0.899035 0.868676 0.814727 0.729531 0.611225 0.469519 0.324292 0.197949 0.104696 0.0477883 0.0193136 0.00721597 0.00257914 0.000897384 0.000305998 0.000102457 3.3691e-05 1.0876e-05 3.44499e-06 1.07018e-06 3.25918e-07 9.72751e-08 2.8448e-08 8.15052e-09 2.28658e-09 6.28682e-10 1.68236e-10 4.47689e-11 1.21557e-11 2.00934e-12 1.03407e-12 -8.07848e-13 -5.99701e-13 -5.64847e-13 6.93098e-13 1.17416e-13 -2.06716e-13 -4.06825e-13 1.72127e-12 -9.31518e-13 -5.70586e-13 -3.59711e-13 1.63776e-12 -7.53802e-13 -2.07984e-13 -1.178e-12 -2.63999e-13 -1.96235e-13 3.45357e-13 1.65118e-13 1.65547e-14 -5.45583e-13 -5.67218e-13 -1.03722e-12 -1.38146e-13 -2.32802e-13 -3.37869e-13 -7.91881e-13 -5.10408e-13 1.49734e-12 -5.8603e-13 2.41377e-13 -3.40239e-13 -6.46632e-14 8.79236e-13 -2.25211e-13 -7.96984e-13 9.64967e-14 5.6253e-13 1.68043e-12 -8.11447e-13 -1.34458e-12 2.93446e-13 4.69297e-13 -2.8772e-13 -7.2372e-13 2.88718e-13 1.77546e-12 1.1563e-13 0
				</DataArray>
				<DataArray Name="VitesseY" type="Float32" format="ascii">