<?xml version="1.0"?>
<VTKFile type="PolyData">
	<PolyData>
		<Piece NumberOfPoints="1206" NumberOfPolys="1000">
			<Points>
				<DataArray type="Float32" NumberOfComponents="3" format="ascii">
 0 0 0 0.005 0 0 0.01 0 0 0.015 0 0 0.02 0 0 0.025 0 0 0.03 0 0 0.035 0 0 0.04 0 0 0.045 0 0 0.05 0 0 0.055 0 0 0.06 0 0 0.065 0 0 0.07 0 0 0.075 0 0 0.08 0 0 0.085 0 0 0.09 0 0 0.095 0 0 0.1 0 0 0.105 0 0 0.11 0 0 0.115 0 0 0.12 0 0 0.125 0 0 0.13 0 0 0.135 0 0 0.14 0 0 0.145 0 0 0.15 0 0 0.155 0 0 0.16 0 0 0.165 0 0 0.17 0 0 0.175 0 0 0.18 0 0 0.185 0 0 0.19 0 0 0.195 0 0 0.2 0 0 0.205 0 0 0.21 0 0 0.215 0 0 0.22 0 0 0.225 0 0 0.23 0 0 0.235 0 0 0.24 0 0 0.245 0 0 0.25 0 0 0.255 0 0 0.26 0 0 0.265 0 0 0.27 0 0 0.275 0 0 0.28 0 0 0.285 0 0 0.29 0 0 0.295 0 0 0.3 0 0 0.305 0 0 0.31 0 0 0.315 0 0 0.32 0 0 0.325 0 0 0.33 0 0 0.335 0 0 0.34 0 0 0.345 0 0 0.35 0 0 0.355 0 0 0.36 0 0 0.365 0 0 0.37 0 0 0.375 0 0 0.38 0 0 0.385 0 0 0.39 0 0 0.395 0 0 0.4 0 0 0.405 0 0 0.41 0 0 0.415 0 0 0.42 0 0 0.425 0 0 0.43 0 0 0.435 0 0 0.44 0 0 0.445 0 0 0.45 0 0 0.455 0 0 0.46 0 0 0.465 0 0 0.47 0 0 0.475 0 0 0.48 0 0 0.485 0 0 0.49 0 0 0.495 0 0 0.5 0 0 0.505 0 0 0.51 0 0 0.515 0 0 0.52 0 0 0.525 0 0 0.53 0 0 0.535 0 0 0.54 0 0 0.545 0 0 0.55 0 0 0.555 0 0 0.56 0 0 0.565 0 0 0.57 0 0 0.575 0 0 0.58 0 0 0.585 0 0 0.59 0 0 0.595 0 0 0.6 0 0 0.605 0 0 0.61 0 0 0.615 0 0 0.62 0 0 0.625 0 0 0.63 0 0 0.635 0 0 0.64 0 0 0.645 0 0 0.65 0 0 0.655 0 0 0.66 0 0 0.665 0 0 0.67 0 0 0.675 0 0 0.68 0 0 0.685 0 0 0.69 0 0 0.695 0 0 0.7 0 0 0.705 0 0 0.71 0 0 0.715 0 0 0.72 0 0 0.725 0 0 0.73 0 0 0.735 0 0 0.74 0 0 0.745 0 0 0.75 0 0 0.755 0 0 0.76 0 0 0.765 0 0 0.77 0 0 0.775 0 0 0.78 0 0 0.785 0 0 0.79 0 0 0.795 0 0 0.8 0 0 0.805 0 0 0.81 0 0 0.815 0 0 0.82 0 0 0.825 0 0 0.83 0 0 0.835 0 0 0.84 0 0 0.845 0 0 0.85 0 0 0.855 0 0 0.86 0 0 0.865 0 0 0.87 0 0 0.875 0 0 0.88 0 0 0.885 0 0 0.89 0 0 0.895 0 0 0.9 0 0 0.905 0 0 0.91 0 0 0.915 0 0 0.92 0 0 0.925 0 0 0.93 0 0 0.935 0 0 0.94 0 0 0.945 0 0 0.95 0 0 0.955 0 0 0.96 0 0 0.965 0 0 0.97 0 0 0.975 0 0 0.98 0 0 0.985 0 0 0.99 0 0 0.995 0 0 1 0 0 0 0.02 0 0.005 0.02 0 0.01 0.02 0 0.015 0.02 0 0.02 0.02 0 0.025 0.02 0 0.03 0.02 0 0.035 0.02 0 0.04 0.02 0 0.045 0.02 0 0.05 0.02 0 0.055 0.02 0 0.06 0.02 0 0.065 0.02 0 0.07 0.02 0 0.075 0.02 0 0.08 0.02 0 0.085 0.02 0 0.09 0.02 0 0.095 0.02 0 0.1 0.02 0 0.105 0.02 0 0.11 0.02 0 0.115 0.02 0 0.12 0.02 0 0.125 0.02 0 0.13 0.02 0 0.135 0.02 0 0.14 0.02 0 0.145 0.02 0 0.15 0.02 0 0.155 0.02 0 0.16 0.02 0 0.165 0.02 0 0.17 0.02 0 0.175 0.02 0 0.18 0.02 0 0.185 0.02 0 0.19 0.02 0 0.195 0.02 0 0.2 0.02 0 0.205 0.02 0 0.21 0.02 0 0.215 0.02 0 0.22 0.02 0 0.225 0.02 0 0.23 0.02 0 0.235 0.02 0 0.24 0.02 0 0.245 0.02 0 0.25 0.02 0 0.255 0.02 0 0.26 0.02 0 0.265 0.02 0 0.27 0.02 0 0.275 0.02 0 0.28 0.02 0 0.285 0.02 0 0.29 0.02 0 0.295 0.02 0 0.3 0.02 0 0.305 0.02 0 0.31 0.02 0 0.315 0.02 0 0.32 0.02 0 0.325 0.02 0 0.33 0.02 0 0.335 0.02 0 0.34 0.02 0 0.345 0.02 0 0.35 0.02 0 0.355 0.02 0 0.36 0.02 0 0.365 0.02 0 0.37 0.02 0 0.375 0.02 0 0.38 0.02 0 0.385 0.02 0 0.39 0.02 0 0.395 0.02 0 0.4 0.02 0 0.405 0.02 0 0.41 0.02 0 0.415 0.02 0 0.42 0.02 0 0.425 0.02 0 0.43 0.02 0 0.435 0.02 0 0.44 0.02 0 0.445 0.02 0 0.45 0.02 0 0.455 0.02 0 0.46 0.02 0 0.465 0.02 0 0.47 0.02 0 0.475 0.02 0 0.48 0.02 0 0.485 0.02 0 0.49 0.02 0 0.495 0.02 0 0.5 0.02 0 0.505 0.02 0 0.51 0.02 0 0.515 0.02 0 0.52 0.02 0 0.525 0.02 0 0.53 0.02 0 0.535 0.02 0 0.54 0.02 0 0.545 0.02 0 0.55 0.02 0 0.555 0.02 0 0.56 0.02 0 0.565 0.02 0 0.57 0.02 0 0.575 0.02 0 0.58 0.02 0 0.585 0.02 0 0.59 0.02 0 0.595 0.02 0 0.6 0.02 0 0.605 0.02 0 0.61 0.02 0 0.615 0.02 0 0.62 0.02 0 0.625 0.02 0 0.63 0.02 0 0.635 0.02 0 0.64 0.02 0 0.645 0.02 0 0.65 0.02 0 0.655 0.02 0 0.66 0.02 0 0.665 0.02 0 0.67 0.02 0 0.675 0.02 0 0.68 0.02 0 0.685 0.02 0 0.69 0.02 0 0.695 0.02 0 0.7 0.02 0 0.705 0.02 0 0.71 0.02 0 0.715 0.02 0 0.72 0.02 0 0.725 0.02 0 0.73 0.02 0 0.735 0.02 0 0.74 0.02 0 0.745 0.02 0 0.75 0.02 0 0.755 0.02 0 0.76 0.02 0 0.765 0.02 0 0.77 0.02 0 0.775 0.02 0 0.78 0.02 0 0.785 0.02 0 0.79 0.02 0 0.795 0.02 0 0.8 0.02 0 0.805 0.02 0 0.81 0.02 0 0.815 0.02 0 0.82 0.02 0 0.825 0.02 0 0.83 0.02 0 0.835 0.02 0 0.84 0.02 0 0.845 0.02 0 0.85 0.02 0 0.855 0.02 0 0.86 0.02 0 0.865 0.02 0 0.87 0.02 0 0.875 0.02 0 0.88 0.02 0 0.885 0.02 0 0.89 0.02 0 0.895 0.02 0 0.9 0.02 0 0.905 0.02 0 0.91 0.02 0 0.915 0.02 0 0.92 0.02 0 0.925 0.02 0 0.93 0.02 0 0.935 0.02 0 0.94 0.02 0 0.945 0.02 0 0.95 0.02 0 0.955 0.02 0 0.96 0.02 0 0.965 0.02 0 0.97 0.02 0 0.975 0.02 0 0.98 0.02 0 0.985 0.02 0 0.99 0.02 0 0.995 0.02 0 1 0.02 0 0 0.04 0 0.005 0.04 0 0.01 0.04 0 0.015 0.04 0 0.02 0.04 0 0.025 0.04 0 0.03 0.04 0 0.035 0.04 0 0.04 0.04 0 0.045 0.04 0 0.05 0.04 0 0.055 0.04 0 0.06 0.04 0 0.065 0.04 0 0.07 0.04 0 0.075 0.04 0 0.08 0.04 0 0.085 0.04 0 0.09 0.04 0 0.095 0.04 0 0.1 0.04 0 0.105 0.04 0 0.11 0.04 0 0.115 0.04 0 0.12 0.04 0 0.125 0.04 0 0.13 0.04 0 0.135 0.04 0 0.14 0.04 0 0.145 0.04 0 0.15 0.04 0 0.155 0.04 0 0.16 0.04 0 0.165 0.04 0 0.17 0.04 0 0.175 0.04 0 0.18 0.04 0 0.185 0.04 0 0.19 0.04 0 0.195 0.04 0 0.2 0.04 0 0.205 0.04 0 0.21 0.04 0 0.215 0.04 0 0.22 0.04 0 0.225 0.04 0 0.23 0.04 0 0.235 0.04 0 0.24 0.04 0 0.245 0.04 0 0.25 0.04 0 0.255 0.04 0 0.26 0.04 0 0.265 0.04 0 0.27 0.04 0 0.275 0.04 0 0.28 0.04 0 0.285 0.04 0 0.29 0.04 0 0.295 0.04 0 0.3 0.04 0 0.305 0.04 0 0.31 0.04 0 0.315 0.04 0 0.32 0.04 0 0.325 0.04 0 0.33 0.04 0 0.335 0.04 0 0.34 0.04 0 0.345 0.04 0 0.35 0.04 0 0.355 0.04 0 0.36 0.04 0 0.365 0.04 0 0.37 0.04 0 0.375 0.04 0 0.38 0.04 0 0.385 0.04 0 0.39 0.04 0 0.395 0.04 0 0.4 0.04 0 0.405 0.04 0 0.41 0.04 0 0.415 0.04 0 0.42 0.04 0 0.425 0.04 0 0.43 0.04 0 0.435 0.04 0 0.44 0.04 0 0.445 0.04 0 0.45 0.04 0 0.455 0.04 0 0.46 0.04 0 0.465 0.04 0 0.47 0.04 0 0.475 0.04 0 0.48 0.04 0 0.485 0.04 0 0.49 0.04 0 0.495 0.04 0 0.5 0.04 0 0.505 0.04 0 0.51 0.04 0 0.515 0.04 0 0.52 0.04 0 0.525 0.04 0 0.53 0.04 0 0.535 0.04 0 0.54 0.04 0 0.545 0.04 0 0.55 0.04 0 0.555 0.04 0 0.56 0.04 0 0.565 0.04 0 0.57 0.04 0 0.575 0.04 0 0.58 0.04 0 0.585 0.04 0 0.59 0.04 0 0.595 0.04 0 0.6 0.04 0 0.605 0.04 0 0.61 0.04 0 0.615 0.04 0 0.62 0.04 0 0.625 0.04 0 0.63 0.04 0 0.635 0.04 0 0.64 0.04 0 0.645 0.04 0 0.65 0.04 0 0.655 0.04 0 0.66 0.04 0 0.665 0.04 0 0.67 0.04 0 0.675 0.04 0 0.68 0.04 0 0.685 0.04 0 0.69 0.04 0 0.695 0.04 0 0.7 0.04 0 0.705 0.04 0 0.71 0.04 0 0.715 0.04 0 0.72 0.04 0 0.725 0.04 0 0.73 0.04 0 0.735 0.04 0 0.74 0.04 0 0.745 0.04 0 0.75 0.04 0 0.755 0.04 0 0.76 0.04 0 0.765 0.04 0 0.77 0.04 0 0.775 0.04 0 0.78 0.04 0 0.785 0.04 0 0.79 0.04 0 0.795 0.04 0 0.8 0.04 0 0.805 0.04 0 0.81 0.04 0 0.815 0.04 0 0.82 0.04 0 0.825 0.04 0 0.83 0.04 0 0.835 0.04 0 0.84 0.04 0 0.845 0.04 0 0.85 0.04 0 0.855 0.04 0 0.86 0.04 0 0.865 0.04 0 0.87 0.04 0 0.875 0.04 0 0.88 0.04 0 0.885 0.04 0 0.89 0.04 0 0.895 0.04 0 0.9 0.04 0 0.905 0.04 0 0.91 0.04 0 0.915 0.04 0 0.92 0.04 0 0.925 0.04 0 0.93 0.04 0 0.935 0.04 0 0.94 0.04 0 0.945 0.04 0 0.95 0.04 0 0.955 0.04 0 0.96 0.04 0 0.965 0.04 0 0.97 0.04 0 0.975 0.04 0 0.98 0.04 0 0.985 0.04 0 0.99 0.04 0 0.995 0.04 0 1 0.04 0 0 0.06 0 0.005 0.06 0 0.01 0.06 0 0.015 0.06 0 0.02 0.06 0 0.025 0.06 0 0.03 0.06 0 0.035 0.06 0 0.04 0.06 0 0.045 0.06 0 0.05 0.06 0 0.055 0.06 0 0.06 0.06 0 0.065 0.06 0 0.07 0.06 0 0.075 0.06 0 0.08 0.06 0 0.085 0.06 0 0.09 0.06 0 0.095 0.06 0 0.1 0.06 0 0.105 0.06 0 0.11 0.06 0 0.115 0.06 0 0.12 0.06 0 0.125 0.06 0 0.13 0.06 0 0.135 0.06 0 0.14 0.06 0 0.145 0.06 0 0.15 0.06 0 0.155 0.06 0 0.16 0.06 0 0.165 0.06 0 0.17 0.06 0 0.175 0.06 0 0.18 0.06 0 0.185 0.06 0 0.19 0.06 0 0.195 0.06 0 0.2 0.06 0 0.205 0.06 0 0.21 0.06 0 0.215 0.06 0 0.22 0.06 0 0.225 0.06 0 0.23 0.06 0 0.235 0.06 0 0.24 0.06 0 0.245 0.06 0 0.25 0.06 0 0.255 0.06 0 0.26 0.06 0 0.265 0.06 0 0.27 0.06 0 0.275 0.06 0 0.28 0.06 0 0.285 0.06 0 0.29 0.06 0 0.295 0.06 0 0.3 0.06 0 0.305 0.06 0 0.31 0.06 0 0.315 0.06 0 0.32 0.06 0 0.325 0.06 0 0.33 0.06 0 0.335 0.06 0 0.34 0.06 0 0.345 0.06 0 0.35 0.06 0 0.355 0.06 0 0.36 0.06 0 0.365 0.06 0 0.37 0.06 0 0.375 0.06 0 0.38 0.06 0 0.385 0.06 0 0.39 0.06 0 0.395 0.06 0 0.4 0.06 0 0.405 0.06 0 0.41 0.06 0 0.415 0.06 0 0.42 0.06 0 0.425 0.06 0 0.43 0.06 0 0.435 0.06 0 0.44 0.06 0 0.445 0.06 0 0.45 0.06 0 0.455 0.06 0 0.46 0.06 0 0.465 0.06 0 0.47 0.06 0 0.475 0.06 0 0.48 0.06 0 0.485 0.06 0 0.49 0.06 0 0.495 0.06 0 0.5 0.06 0 0.505 0.06 0 0.51 0.06 0 0.515 0.06 0 0.52 0.06 0 0.525 0.06 0 0.53 0.06 0 0.535 0.06 0 0.54 0.06 0 0.545 0.06 0 0.55 0.06 0 0.555 0.06 0 0.56 0.06 0 0.565 0.06 0 0.57 0.06 0 0.575 0.06 0 0.58 0.06 0 0.585 0.06 0 0.59 0.06 0 0.595 0.06 0 0.6 0.06 0 0.605 0.06 0 0.61 0.06 0 0.615 0.06 0 0.62 0.06 0 0.625 0.06 0 0.63 0.06 0 0.635 0.06 0 0.64 0.06 0 0.645 0.06 0 0.65 0.06 0 0.655 0.06 0 0.66 0.06 0 0.665 0.06 0 0.67 0.06 0 0.675 0.06 0 0.68 0.06 0 0.685 0.06 0 0.69 0.06 0 0.695 0.06 0 0.7 0.06 0 0.705 0.06 0 0.71 0.06 0 0.715 0.06 0 0.72 0.06 0 0.725 0.06 0 0.73 0.06 0 0.735 0.06 0 0.74 0.06 0 0.745 0.06 0 0.75 0.06 0 0.755 0.06 0 0.76 0.06 0 0.765 0.06 0 0.77 0.06 0 0.775 0.06 0 0.78 0.06 0 0.785 0.06 0 0.79 0.06 0 0.795 0.06 0 0.8 0.06 0 0.805 0.06 0 0.81 0.06 0 0.815 0.06 0 0.82 0.06 0 0.825 0.06 0 0.83 0.06 0 0.835 0.06 0 0.84 0.06 0 0.845 0.06 0 0.85 0.06 0 0.855 0.06 0 0.86 0.06 0 0.865 0.06 0 0.87 0.06 0 0.875 0.06 0 0.88 0.06 0 0.885 0.06 0 0.89 0.06 0 0.895 0.06 0 0.9 0.06 0 0.905 0.06 0 0.91 0.06 0 0.915 0.06 0 0.92 0.06 0 0.925 0.06 0 0.93 0.06 0 0.935 0.06 0 0.94 0.06 0 0.945 0.06 0 0.95 0.06 0 0.955 0.06 0 0.96 0.06 0 0.965 0.06 0 0.97 0.06 0 0.975 0.06 0 0.98 0.06 0 0.985 0.06 0 0.99 0.06 0 0.995 0.06 0 1 0.06 0 0 0.08 0 0.005 0.08 0 0.01 0.08 0 0.015 0.08 0 0.02 0.08 0 0.025 0.08 0 0.03 0.08 0 0.035 0.08 0 0.04 0.08 0 0.045 0.08 0 0.05 0.08 0 0.055 0.08 0 0.06 0.08 0 0.065 0.08 0 0.07 0.08 0 0.075 0.08 0 0.08 0.08 0 0.085 0.08 0 0.09 0.08 0 0.095 0.08 0 0.1 0.08 0 0.105 0.08 0 0.11 0.08 0 0.115 0.08 0 0.12 0.08 0 0.125 0.08 0 0.13 0.08 0 0.135 0.08 0 0.14 0.08 0 0.145 0.08 0 0.15 0.08 0 0.155 0.08 0 0.16 0.08 0 0.165 0.08 0
[...]
			<PointData Scalars="VitesseX">
				<DataArray Name="VitesseX" type="Float32" format="ascii">
 0 6.18819e-15 -3.58093e-14 5.60306e-14 -3.92996e-14 -5.83339e-14 2.05029e-14 -1.87785e-14 -7.52223e-14 1.53793e-14 -4.57101e-14 -1.44257e-14 -9.27818e-14 -1.27578e-13 3.15396e-14 -2.98406e-14 6.47471e-15 -2.52169e-13 -3.42315e-14 -9.31436e-14 -1.59504e-13 -1.789e-13 -1.55474e-13 -4.6599e-14 -2.08882e-13 -2.20293e-14 -1.86582e-13 -7.5666e-14 -6.22326e-14 -6.62631e-14 3.01674e-14 -1.36983e-13 -2.20459e-14 6.16131e-14 -4.12654e-13 -2.88755e-13 -6.16353e-14 -1.97334e-13 3.10277e-14 -6.61434e-14 -2.92022e-13 -9.79572e-14 5.90255e-14 1.5741e-13 -1.60145e-13 1.82935e-13 -1.27947e-13 -1.92885e-13 6.4963e-14 -1.73282e-13 -6.09664e-14 -1.26027e-13 5.7815e-13 6.22602e-12 4.77297e-11 3.20578e-10 2.03782e-09 1.21544e-08 6.78037e-08 3.52634e-07 1.70308e-06 7.60349e-06 3.12133e-05 0.000117073 0.000398156 0.00121682 0.00330836 0.00792498 0.0166192 0.0305403 0.0497296 0.0731837 0.0995781 0.127838 0.157264 0.187446 0.218145 0.249198 0.280521 0.31207 0.343831 0.375813 0.408052 0.44059 0.472651 0.503711 0.534649 0.564862 0.59474 0.624564 0.653562 0.682585 0.710934 0.738764 0.766557 0.792876 0.81885 0.843989 0.865823 0.887295 0.903964 0.91563 0.925447 0.929519 0.931083 0.932292 0.932364 0.932165 0.931809 0.931402 0.930992 0.930577 0.930144 0.929724 0.929369 0.929096 0.928891 0.928717 0.928535 0.928295 0.927916 0.927293 0.926411 0.927939 0.931956 0.92874 0.927206 0.927263 0.927482 0.927606 0.927741 0.927744 0.927647 0.927561 0.927622 0.927627 0.927437 0.926882 0.925789 0.923645 0.919322 0.910734 0.894256 0.864192 0.813043 0.733587 0.623129 0.488695 0.347553 0.220703 0.123061 0.0599127 0.0259757 0.0104328 0.00402451 0.00152288 0.000570639 0.000212498 7.87241e-05 2.90171e-05 1.06379e-05 3.87724e-06 1.4042e-06 5.05076e-07 1.80336e-07 6.38846e-08 2.24435e-08 7.81584e-09 2.69702e-09 9.21522e-10 3.1164e-10 1.04082e-10 3.39331e-11 1.11305e-11 2.8493e-12 1.41746e-12 3.00005e-13 -5.05532e-13 2.63403e-13 -5.96935e-13 2.49155e-13 -4.36208e-13 8.19363e-14 2.60336e-13 -5.29086e-13 -1.22364e-13 -5.88952e-14 -2.37807e-13 1.58995e-13 -1.07672e-12 1.20237e-12 1.1832e-13 7.83122e-13 2.64902e-13 2.56751e-13 5.53835e-13 3.07706e-13 -6.9398e-13 5.38605e-13 1.58285e-13 0 0 -1.34547e-14 4.27848e-14 -3.68386e-14 3.21951e-14 2.21256e-14 -6.52853e-15 -3.53101e-14 -3.61933e-14 -4.24906e-14 -3.65551e-14 -7.64183e-14 2.01587e-14 -2.87852e-14 -1.55233e-13 1.61297e-14 -2.04733e-13 1.44253e-14 -1.49691e-13 -4.84605e-14 -1.98668e-13 -2.00993e-14 -1.26975e-13 -2.23105e-13 3.07981e-14 -2.11688e-13 -6.20153e-14 -1.07329e-13 -7.90517e-14 -1.73153e-14 -6.03318e-14 1.34962e-14 -1.67473e-13 -2.95547e-13 -1.26104e-14 -1.80882e-13 -1.62895e-13 -5.93795e-14 -1.71566e-13 -1.75454e-13 -5.16408e-14 3.5799e-14 -2.57191e-14 -1.74233e-13 1.41149e-13 -1.98043e-13 4.18297e-14 -1.19506e-14 -2.09188e-13 -6.41999e-14 -1.72968e-13 -3.10973e-13 4.06929e-13 6.87295e-12 4.74089e-11 3.2068e-10 2.03782e-09 1.21545e-08 6.78039e-08 3.52634e-07 1.70308e-06 7.60349e-06 3.12133e-05 0.000117073 0.000398156 0.00121682 0.00330836 0.00792498 0.0166192 0.0305403 0.0497296 0.0731837 0.0995781 0.127838 0.157264 0.187446 0.218145 0.249198 0.280521 0.31207 0.343831 0.375813 0.408052 0.44059 0.472651 0.503711 0.534649 0.564862 0.59474 0.624564 0.653562 0.682585 0.710934 0.738764 0.766557 0.792876 0.81885 0.843989 0.865823 0.887295 0.903964 0.91563 0.925447 0.929519 0.931083 0.932292 0.932364 0.932165 0.931809 0.931402 0.930992 0.930577 0.930144 0.929724 0.929369 0.929096 0.928891 0.928717 0.928535 0.928295 0.927916 0.927293 0.926411 0.927939 0.931956 0.92874 0.927206 0.927263 0.927482 0.927606 0.927741 0.927744 0.927647 0.927561 0.927622 0.927627 0.927437 0.926882 0.925789 0.923645 0.919322 0.910734 0.894256 0.864192 0.813043 0.733587 0.623129 0.488695 0.347553 0.220703 0.123061 0.0599127 0.0259757 0.0104328 0.00402451 0.00152288 0.000570639 0.000212498 7.87241e-05 2.9017e-05 1.06379e-05 3.87724e-06 1.4042e-06 5.05075e-07 1.80336e-07 6.38842e-08 2.24438e-08 7.8163e-09 2.69675e-09 9.21624e-10 3.11665e-10 1.04002e-10 3.4336e-11 1.05683e-11 3.77584e-12 4.09403e-13 2.6625e-13 1.80293e-13 -5.87515e-14 -1.80488e-13 -4.33285e-13 1.32367e-13 -1.7582e-13 -2.2427e-13 2.81645e-13 -3.56682e-13 -1.99686e-13 -1.94562e-13 -8.58428e-14 4.11843e-13 -6.74383e-13 7.62196e-13 5.52298e-14 2.84901e-13 6.34582e-13 2.46539e-13 -5.47531e-14 8.27113e-13 -3.23275e-13 -2.31522e-13 0 0 2.30581e-14 1.06857e-14 5.01121e-14 3.56834e-14 4.14645e-15 3.18801e-14 -4.41519e-14 1.5634e-14 -2.02959e-14 -6.69105e-14 -1.56084e-14 -9.58435e-14 -9.04098e-14 -1.04901e-14 -1.16764e-13 -2.31353e-14 -1.50886e-13 2.81266e-15 -1.30668e-13 -2.95316e-14 -1.29509e-13 -8.6205e-14 -2.9939e-14 -2.57415e-13 -9.6104e-14 -1.21639e-13 4.63694e-14 -2.68073e-13 -4.46439e-14 4.86339e-14 -1.17537e-13 -6.46471e-14 -1.30215e-13 -5.18103e-13 -1.56067e-13 -5.02137e-14 5.24146e-14 -1.84265e-13 -5.73051e-16 -1.21855e-13 -1.8508e-13 -4.47584e-14 1.80635e-13 -2.04177e-13 -5.61435e-14 -2.06208e-13 -1.77257e-13 1.7148e-14 -2.62439e-13 2.97756e-14 1.43524e-13 5.19206e-13 6.43481e-12 4.7767e-11 3.20746e-10 2.0381e-09 1.21543e-08 6.7804e-08 3.52634e-07 1.70308e-06 7.60349e-06 3.12133e-05 0.000117073 0.000398156 0.00121682 0.00330836 0.00792498 0.0166192 0.0305403 0.0497296 0.0731837 0.0995781 0.127838 0.157264 0.187446 0.218145 0.249198 0.280521 0.31207 0.343831 0.375813 0.408052 0.44059 0.472651 0.503711 0.534649 0.564862 0.59474 0.624564 0.653562 0.682585 0.710934 0.738764 0.766557 0.792876 0.81885 0.843989 0.865823 0.887295 0.903964 0.91563 0.925447 0.929519 0.931083 0.932292 0.932364 0.932165 0.931809 0.931402 0.930992 0.930577 0.930144 0.929724 0.929369 0.929096 0.928891 0.928717 0.928535 0.928295 0.927916 0.927293 0.926411 0.927939 0.931956 0.92874 0.927206 0.927263 0.927482 0.927606 0.927741 0.927744 0.927647 0.927561 0.927622 0.927627 0.927437 0.926882 0.925789 0.923645 0.919322 0.910734 0.894256 0.864192 0.813043 0.733587 0.623129 0.488695 0.347553 0.220703 0.123061 0.0599127 0.0259757 0.0104328 0.00402451 0.00152288 0.000570639 0.000212498 7.87241e-05 2.90171e-05 1.06379e-05 3.87724e-06 1.4042e-06 5.05075e-07 1.80336e-07 6.38846e-08 2.24437e-08 7.81604e-09 2.69708e-09 9.21631e-10 3.11824e-10 1.04124e-10 3.43667e-11 1.09779e-11 3.07359e-12 9.14485e-13 1.27152e-13 4.03187e-13 -2.87319e-13 -2.75108e-13 2.42739e-13 -2.90124e-13 -2.33633e-13 -5.49029e-13 6.30413e-14 4.19516e-13 -4.89926e-13 -5.55907e-13 -2.36546e-13 2.46552e-13 -5.50218e-15 1.88105e-13 1.37938e-13 4.47376e-14 1.50761e-13 1.19732e-13 7.60599e-13 4.03312e-13 4.45295e-13 2.41778e-13 0 0 1.73964e-14 1.49154e-14 5.54349e-14 2.09046e-14 2.31351e-16 3.90473e-14 -1.7959e-14 -5.45282e-14 2.51103e-14 -5.13388e-14 -4.90262e-14 -4.35344e-14 -8.84577e-14 3.27397e-14 -8.64741e-14 -1.06725e-13 -1.03346e-13 -9.18389e-14 -1.10439e-13 -1.5487e-13 -1.11091e-13 -9.18391e-14 -3.76753e-14 -6.05813e-14 2.0353e-15 -1.85781e-13 -2.967e-13 -7.75061e-14 -6.80913e-14 -6.51752e-14 -4.99056e-14 -8.06287e-14 -7.16382e-14 -2.73606e-13 -2.88448e-13 -1.67644e-13 -2.7386e-13 1.93947e-13 -6.00871e-15 -1.37709e-13 -5.00855e-13 5.22438e-14 -6.5643e-14 -7.52882e-14 -6.77331e-14 1.69044e-13 -3.21872e-13 1.87178e-13 -2.02939e-15 -2.99298e-13 -1.74014e-14 8.50746e-13 6.66074e-12 4.79166e-11 3.20824e-10 2.03817e-09 1.21545e-08 6.78041e-08 3.52634e-07 1.70308e-06 7.60349e-06 3.12133e-05 0.000117073 0.000398156 0.00121682 0.00330836 0.00792498 0.0166192 0.0305403 0.0497296 0.0731837 0.0995781 0.127838 0.157264 0.187446 0.218145 0.249198 0.280521 0.31207 0.343831 0.375813 0.408052 0.44059 0.472651 0.503711 0.534649 0.564862 0.59474 0.624564 0.653562 0.682585 0.710934 0.738764 0.766557 0.792876 0.81885 0.843989 0.865823 0.887295 0.903964 0.91563 0.925447 0.929519 0.931083 0.932292 0.932364 0.932165 0.931809 0.931402 0.930992 0.930577 0.930144 0.929724 0.929369 0.929096 0.928891 0.928717 0.928535 0.928295 0.927916 0.927293 0.926411 0.927939 0.931956 0.92874 0.927206 0.927263 0.927482 0.927606 0.927741 0.927744 0.927647 0.927561 0.927622 0.927627 0.927437 0.926882 0.925789 0.923645 0.919322 0.910734 0.894256 0.864192 0.813043 0.733587 0.623129 0.488695 0.347553 0.220703 0.123061 0.0599127 0.0259757 0.0104328 0.00402451 0.00152288 0.000570639 0.000212498 7.87241e-05 2.9017e-05 1.06379e-05 3.87724e-06 1.4042e-06 5.05075e-07 1.80336e-07 6.38843e-08 2.24435e-08 7.81616e-09 2.69726e-09 9.21576e-10 3.11723e-10 1.04319e-10 3.41074e-11 1.12463e-11 3.31104e-12 9.43179e-13 3.20325e-13 -6.22114e-13 2.88326e-13 -2.79178e-13 -1.89608e-14 1.09695e-13 -1.80684e-13 2.98772e-13 -5.86836e-13 -2.36997e-13 -3.3599e-13 -5.77423e-13 -5.15643e-15 -7.03905e-13 3.46625e-13 8.59206e-14 3.31492e-13 2.24227e-13 3.84074e-13 5.31236e-13 2.53572e-14 -3.06044e-13 1.96172e-13 1.03228e-13 0 0 -1.31413e-14 4.21794e-14 -4.89456e-14 2.32017e-14 2.04165e-14 -1.51087e-14 -1.38225e-14 -4.58354e-14 1.45747e-14 -4.39176e-14 -1.01319e-13 5.14594e-14 -3.39101e-14 -1.27743e-13 -2.89942e-14 -1.7671e-13 9.47893e-14 -1.46333e-13 -8.7507e-14 -2.1217e-13 2.38722e-14 -1.28867e-13 -2.20456e-13 1.8816e-13 -1.13893e-13 -4.15379e-14 -3.83914e-13 -5.81292e-14 -1.0032e-13 -1.37329e-13 -5.91789e-14 -1.38545e-13 -1.96646e-13 2.87781e-13 -3.28204e-13 -1.72247e-13 -1.94568e-13 -1.06467e-14 -3.1274e-13 -1.26873e-13 -1.83588e-13 -1.298e-14 -3.49088e-13 1.90696e-13 -2.81468e-13 5.51567e-14 -6.62105e-14 -9.73806e-14 8.13494e-14 -4.07148e-13 -2.81142e-13 1.05505e-12 7.16442e-12 4.76149e-11 3.209e-10 2.03817e-09 1.21547e-08 6.78041e-08 3.52634e-07 1.70308e-06 7.60349e-06 3.12133e-05 0.000117073 0.000398156 0.00121682 0.00330836 0.00792498 0.0166192 0.0305403 0.0497296 0.0731837 0.0995781 0.127838 0.157264 0.187446 0.218145 0.249198 0.280521 0.31207 0.343831 0.375813 0.408052 0.44059 0.472651 0.503711 0.534649 0.564862 0.59474 0.624564 0.653562 0.682585 0.710934 0.738764 0.766557 0.792876 0.81885 0.843989 0.865823 0.887295 0.903964 0.91563 0.925447 0.929519 0.931083 0.932292 0.932364 0.932165 0.931809 0.931402 0.930992 0.930577 0.930144 0.929724 0.929369 0.929096 0.928891 0.928717 0.928535 0.928295 0.927916 0.927293 0.926411 0.927939 0.931956 0.92874 0.927206 0.927263 0.927482 0.927606 0.927741 0.927744 0.927647 0.927561 0.927622 0.927627 0.927437 0.926882 0.925789 0.923645 0.919322 0.910734 0.894256 0.864192 0.813043 0.733587 0.623129 0.488695 0.347553 0.220703 0.123061 0.0599127 0.0259757 0.0104328 0.00402451 0.00152288 0.000570639 0.000212498 7.87241e-05 2.9017e-05 1.06379e-05 3.87724e-06 1.4042e-06 5.05075e-07 1.80336e-07 6.38842e-08 2.24438e-08 7.81637e-09 2.69698e-09 9.21883e-10 3.11589e-10 1.03912e-10 3.44706e-11 1.06734e-11 3.9375e-12 6.62175e-13 2.80491e-13 1.12292e-14 -2.07886e-13 1.34881e-13 -9.78915e-13 3.17542e-13 -4.86748e-13 2.42758e-13 -2.24079e-13 -8.44649e-13 -4.32962e-14 -2.61392e-13 -5.50831e-14 -2.38582e-13 -6.54318e-13 2.54522e-13 1.93232e-13 4.76017e-13 6.25216e-13 1.51277e-13 -7.87132e-13 2.44825e-13 -2.9716e-13 -5.07052e-13 0 0 1.81385e-14 -4.54796e-14 2.11711e-14 -2.77287e-14 -5.39219e-14 -1.09917e-14 -2.81893e-14 4.5818e-14 3.86976e-14 -9.15787e-14 2.60787e-15 -1.34799e-13 -1.41732e-13 6.0951e-17 -1.80669e-13 2.297e-13 -1.86521e-13 1.61788e-13 -2.11694e-13 6.41691e-14 -1.27794e-13 -1.4799e-13 -2.58294e-14 -2.87825e-13 -2.27168e-14 -1.73435e-14 5.73027e-14 -4.01522e-13 -1.85378e-13 1.03792e-13 -4.17595e-13 6.77739e-14 1.42262e-13 -3.00867e-13 -3.18638e-13 1.5452e-13 1.8484e-13 -4.03558e-13 -3.29844e-13 -4.10779e-13 9.48177e-14 -1.09501e-13 3.00257e-13 -3.18829e-13 3.92646e-14 -8.51795e-13 -1.21759e-14 -5.14817e-14 -4.03003e-13 1.28821e-13 2.55488e-13 1.21131e-12 6.35709e-12 4.78427e-11 3.20863e-10 2.03837e-09 1.21545e-08 6.7804e-08 3.52634e-07 1.70308e-06 7.60349e-06 3.12133e-05 0.000117073 0.000398156 0.00121682 0.00330836 0.00792498 0.0166192 0.0305403 0.0497296 0.0731837 0.0995781 0.127838 0.157264 0.187446 0.218145 0.249198 0.280521 0.31207 0.343831 0.375813 0.408052 0.44059 0.472651 0.503711 0.534649 0.564862 0.59474 0.624564 0.653562 0.682585 0.710934 0.738764 0.766557 0.792876 0.81885 0.843989 0.865823 0.887295 0.903964 0.91563 0.925447 0.929519 0.931083 0.932292 0.932364 0.932165 0.931809 0.931402 0.930992 0.930577 0.930144 0.929724 0.929369 0.929096 0.928891 0.928717 0.928535 0.928295 0.927916 0.927293 0.926411 0.927939 0.931956 0.92874 0.927206 0.927263 0.927482 0.927606 0.927741 0.927744 0.927647 0.927561 0.927622 0.927627 0.927437 0.926882 0.925789 0.923645 0.919322 0.910734 0.894256 0.864192 0.813043 0.733587 0.623129 0.488695 0.347553 0.220703 0.123061 0.0599127 0.0259757 0.0104328 0.00402451 0.00152288 0.000570639 0.000212498 7.87241e-05 2.9017e-05 1.06379e-05 3.87724e-06 1.4042e-06 5.05076e-07 1.80335e-07 6.38852e-08 2.24438e-08 7.81575e-09 2.69713e-09 9.2215e-10 3.1169e-10 1.03514e-10 3.47209e-11 1.08036e-11 2.69773e-12 1.86562e-12 -5.78604e-14 1.20694e-12 -1.18616e-12 4.19431e-14 -3.18706e-13 -8.65498e-13 -6.45817e-13 -5.01213e-13 -2.40779e-13 2.14729e-13 -5.39889e-14 -3.28434e-13 -2.42265e-13 -4.76651e-13 5.38243e-13 -6.9266e-13 6.72017e-13 2.88156e-13 -2.28607e-13 -4.59697e-13 3.13431e-13 -4.39843e-13 1.08908e-12 -1.15674e-13 0
				</DataArray>
				<DataArray Name="VitesseY" type="Float32" format="ascii">