<?xml version="1.0"?>
<VTKFile type="PolyData">
	<PolyData>
		<Piece NumberOfPoints="1206" NumberOfPolys="1000">
			<Points>
				<DataArray type="Float32" NumberOfComponents="3" format="ascii">
 0 0 0 0.005 0 0 0.01 0 0 0.015 0 0 0.02 0 0 0.025 0 0 0.03 0 0 0.035 0 0 0.04 0 0 0.045 0 0 0.05 0 0 0.055 0 0 0.06 0 0 0.065 0 0 0.07 0 0 0.075 0 0 0.08 0 0 0.085 0 0 0.09 0 0 0.095 0 0 0.1 0 0 0.105 0 0 0.11 0 0 0.115 0 0 0.12 0 0 0.125 0 0 0.13 0 0 0.135 0 0 0.14 0 0 0.145 0 0 0.15 0 0 0.155 0 0 0.16 0 0 0.165 0 0 0.17 0 0 0.175 0 0 0.18 0 0 0.185 0 0 0.19 0 0 0.195 0 0 0.2 0 0 0.205 0 0 0.21 0 0 0.215 0 0 0.22 0 0 0.225 0 0 0.23 0 0 0.235 0 0 0.24 0 0 0.245 0 0 0.25 0 0 0.255 0 0 0.26 0 0 0.265 0 0 0.27 0 0 0.275 0 0 0.28 0 0 0.285 0 0 0.29 0 0 0.295 0 0 0.3 0 0 0.305 0 0 0.31 0 0 0.315 0 0 0.32 0 0 0.325 0 0 0.33 0 0 0.335 0 0 0.34 0 0 0.345 0 0 0.35 0 0 0.355 0 0 0.36 0 0 0.365 0 0 0.37 0 0 0.375 0 0 0.38 0 0 0.385 0 0 0.39 0 0 0.395 0 0 0.4 0 0 0.405 0 0 0.41 0 0 0.415 0 0 0.42 0 0 0.425 0 0 0.43 0 0 0.435 0 0 0.44 0 0 0.445 0 0 0.45 0 0 0.455 0 0 0.46 0 0 0.465 0 0 0.47 0 0 0.475 0 0 0.48 0 0 0.485 0 0 0.49 0 0 0.495 0 0 0.5 0 0 0.505 0 0 0.51 0 0 0.515 0 0 0.52 0 0 0.525 0 0 0.53 0 0 0.535 0 0 0.54 0 0 0.545 0 0 0.55 0 0 0.555 0 0 0.56 0 0 0.565 0 0 0.57 0 0 0.575 0 0 0.58 0 0 0.585 0 0 0.59 0 0 0.595 0 0 0.6 0 0 0.605 0 0 0.61 0 0 0.615 0 0 0.62 0 0 0.625 0 0 0.63 0 0 0.635 0 0 0.64 0 0 0.645 0 0 0.65 0 0 0.655 0 0 0.66 0 0 0.665 0 0 0.67 0 0 0.675 0 0 0.68 0 0 0.685 0 0 0.69 0 0 0.695 0 0 0.7 0 0 0.705 0 0 0.71 0 0 0.715 0 0 0.72 0 0 0.725 0 0 0.73 0 0 0.735 0 0 0.74 0 0 0.745 0 0 0.75 0 0 0.755 0 0 0.76 0 0 0.765 0 0 0.77 0 0 0.775 0 0 0.78 0 0 0.785 0 0 0.79 0 0 0.795 0 0 0.8 0 0 0.805 0 0 0.81 0 0 0.815 0 0 0.82 0 0 0.825 0 0 0.83 0 0 0.835 0 0 0.84 0 0 0.845 0 0 0.85 0 0 0.855 0 0 0.86 0 0 0.865 0 0 0.87 0 0 0.875 0 0 0.88 0 0 0.885 0 0 0.89 0 0 0.895 0 0 0.9 0 0 0.905 0 0 0.91 0 0 0.915 0 0 0.92 0 0 0.925 0 0 0.93 0 0 0.935 0 0 0.94 0 0 0.945 0 0 0.95 0 0 0.955 0 0 0.96 0 0 0.965 0 0 0.97 0 0 0.975 0 0 0.98 0 0 0.985 0 0 0.99 0 0 0.995 0 0 1 0 0 0 0.02 0 0.005 0.02 0 0.01 0.02 0 0.015 0.02 0 0.02 0.02 0 0.025 0.02 0 0.03 0.02 0 0.035 0.02 0 0.04 0.02 0 0.045 0.02 0 0.05 0.02 0 0.055 0.02 0 0.06 0.02 0 0.065 0.02 0 0.07 0.02 0 0.075 0.02 0 0.08 0.02 0 0.085 0.02 0 0.09 0.02 0 0.095 0.02 0 0.1 0.02 0 0.105 0.02 0 0.11 0.02 0 0.115 0.02 0 0.12 0.02 0 0.125 0.02 0 0.13 0.02 0 0.135 0.02 0 0.14 0.02 0 0.145 0.02 0 0.15 0.02 0 0.155 0.02 0 0.16 0.02 0 0.165 0.02 0 0.17 0.02 0 0.175 0.02 0 0.18 0.02 0 0.185 0.02 0 0.19 0.02 0 0.195 0.02 0 0.2 0.02 0 0.205 0.02 0 0.21 0.02 0 0.215 0.02 0 0.22 0.02 0 0.225 0.02 0 0.23 0.02 0 0.235 0.02 0 0.24 0.02 0 0.245 0.02 0 0.25 0.02 0 0.255 0.02 0 0.26 0.02 0 0.265 0.02 0 0.27 0.02 0 0.275 0.02 0 0.28 0.02 0 0.285 0.02 0 0.29 0.02 0 0.295 0.02 0 0.3 0.02 0 0.305 0.02 0 0.31 0.02 0 0.315 0.02 0 0.32 0.02 0 0.325 0.02 0 0.33 0.02 0 0.335 0.02 0 0.34 0.02 0 0.345 0.02 0 0.35 0.02 0 0.355 0.02 0 0.36 0.02 0 0.365 0.02 0 0.37 0.02 0 0.375 0.02 0 0.38 0.02 0 0.385 0.02 0 0.39 0.02 0 0.395 0.02 0 0.4 0.02 0 0.405 0.02 0 0.41 0.02 0 0.415 0.02 0 0.42 0.02 0 0.425 0.02 0 0.43 0.02 0 0.435 0.02 0 0.44 0.02 0 0.445 0.02 0 0.45 0.02 0 0.455 0.02 0 0.46 0.02 0 0.465 0.02 0 0.47 0.02 0 0.475 0.02 0 0.48 0.02 0 0.485 0.02 0 0.49 0.02 0 0.495 0.02 0 0.5 0.02 0 0.505 0.02 0 0.51 0.02 0 0.515 0.02 0 0.52 0.02 0 0.525 0.02 0 0.53 0.02 0 0.535 0.02 0 0.54 0.02 0 0.545 0.02 0 0.55 0.02 0 0.555 0.02 0 0.56 0.02 0 0.565 0.02 0 0.57 0.02 0 0.575 0.02 0 0.58 0.02 0 0.585 0.02 0 0.59 0.02 0 0.595 0.02 0 0.6 0.02 0 0.605 0.02 0 0.61 0.02 0 0.615 0.02 0 0.62 0.02 0 0.625 0.02 0 0.63 0.02 0 0.635 0.02 0 0.64 0.02 0 0.645 0.02 0 0.65 0.02 0 0.655 0.02 0 0.66 0.02 0 0.665 0.02 0 0.67 0.02 0 0.675 0.02 0 0.68 0.02 0 0.685 0.02 0 0.69 0.02 0 0.695 0.02 0 0.7 0.02 0 0.705 0.02 0 0.71 0.02 0 0.715 0.02 0 0.72 0.02 0 0.725 0.02 0 0.73 0.02 0 0.735 0.02 0 0.74 0.02 0 0.745 0.02 0 0.75 0.02 0 0.755 0.02 0 0.76 0.02 0 0.765 0.02 0 0.77 0.02 0 0.775 0.02 0 0.78 0.02 0 0.785 0.02 0 0.79 0.02 0 0.795 0.02 0 0.8 0.02 0 0.805 0.02 0 0.81 0.02 0 0.815 0.02 0 0.82 0.02 0 0.825 0.02 0 0.83 0.02 0 0.835 0.02 0 0.84 0.02 0 0.845 0.02 0 0.85 0.02 0 0.855 0.02 0 0.86 0.02 0 0.865 0.02 0 0.87 0.02 0 0.875 0.02 0 0.88 0.02 0 0.885 0.02 0 0.89 0.02 0 0.895 0.02 0 0.9 0.02 0 0.905 0.02 0 0.91 0.02 0 0.915 0.02 0 0.92 0.02 0 0.925 0.02 0 0.93 0.02 0 0.935 0.02 0 0.94 0.02 0 0.945 0.02 0 0.95 0.02 0 0.955 0.02 0 0.96 0.02 0 0.965 0.02 0 0.97 0.02 0 0.975 0.02 0 0.98 0.02 0 0.985 0.02 0 0.99 0.02 0 0.995 0.02 0 1 0.02 0 0 0.04 0 0.005 0.04 0 0.01 0.04 0 0.015 0.04 0 0.02 0.04 0 0.025 0.04 0 0.03 0.04 0 0.035 0.04 0 0.04 0.04 0 0.045 0.04 0 0.05 0.04 0 0.055 0.04 0 0.06 0.04 0 0.065 0.04 0 0.07 0.04 0 0.075 0.04 0 0.08 0.04 0 0.085 0.04 0 0.09 0.04 0 0.095 0.04 0 0.1 0.04 0 0.105 0.04 0 0.11 0.04 0 0.115 0.04 0 0.12 0.04 0 0.125 0.04 0 0.13 0.04 0 0.135 0.04 0 0.14 0.04 0 0.145 0.04 0 0.15 0.04 0 0.155 0.04 0 0.16 0.04 0 0.165 0.04 0 0.17 0.04 0 0.175 0.04 0 0.18 0.04 0 0.185 0.04 0 0.19 0.04 0 0.195 0.04 0 0.2 0.04 0 0.205 0.04 0 0.21 0.04 0 0.215 0.04 0 0.22 0.04 0 0.225 0.04 0 0.23 0.04 0 0.235 0.04 0 0.24 0.04 0 0.245 0.04 0 0.25 0.04 0 0.255 0.04 0 0.26 0.04 0 0.265 0.04 0 0.27 0.04 0 0.275 0.04 0 0.28 0.04 0 0.285 0.04 0 0.29 0.04 0 0.295 0.04 0 0.3 0.04 0 0.305 0.04 0 0.31 0.04 0 0.315 0.04 0 0.32 0.04 0 0.325 0.04 0 0.33 0.04 0 0.335 0.04 0 0.34 0.04 0 0.345 0.04 0 0.35 0.04 0 0.355 0.04 0 0.36 0.04 0 0.365 0.04 0 0.37 0.04 0 0.375 0.04 0 0.38 0.04 0 0.385 0.04 0 0.39 0.04 0 0.395 0.04 0 0.4 0.04 0 0.405 0.04 0 0.41 0.04 0 0.415 0.04 0 0.42 0.04 0 0.425 0.04 0 0.43 0.04 0 0.435 0.04 0 0.44 0.04 0 0.445 0.04 0 0.45 0.04 0 0.455 0.04 0 0.46 0.04 0 0.465 0.04 0 0.47 0.04 0 0.475 0.04 0 0.48 0.04 0 0.485 0.04 0 0.49 0.04 0 0.495 0.04 0 0.5 0.04 0 0.505 0.04 0 0.51 0.04 0 0.515 0.04 0 0.52 0.04 0 0.525 0.04 0 0.53 0.04 0 0.535 0.04 0 0.54 0.04 0 0.545 0.04 0 0.55 0.04 0 0.555 0.04 0 0.56 0.04 0 0.565 0.04 0 0.57 0.04 0 0.575 0.04 0 0.58 0.04 0 0.585 0.04 0 0.59 0.04 0 0.595 0.04 0 0.6 0.04 0 0.605 0.04 0 0.61 0.04 0 0.615 0.04 0 0.62 0.04 0 0.625 0.04 0 0.63 0.04 0 0.635 0.04 0 0.64 0.04 0 0.645 0.04 0 0.65 0.04 0 0.655 0.04 0 0.66 0.04 0 0.665 0.04 0 0.67 0.04 0 0.675 0.04 0 0.68 0.04 0 0.685 0.04 0 0.69 0.04 0 0.695 0.04 0 0.7 0.04 0 0.705 0.04 0 0.71 0.04 0 0.715 0.04 0 0.72 0.04 0 0.725 0.04 0 0.73 0.04 0 0.735 0.04 0 0.74 0.04 0 0.745 0.04 0 0.75 0.04 0 0.755 0.04 0 0.76 0.04 0 0.765 0.04 0 0.77 0.04 0 0.775 0.04 0 0.78 0.04 0 0.785 0.04 0 0.79 0.04 0 0.795 0.04 0 0.8 0.04 0 0.805 0.04 0 0.81 0.04 0 0.815 0.04 0 0.82 0.04 0 0.825 0.04 0 0.83 0.04 0 0.835 0.04 0 0.84 0.04 0 0.845 0.04 0 0.85 0.04 0 0.855 0.04 0 0.86 0.04 0 0.865 0.04 0 0.87 0.04 0 0.875 0.04 0 0.88 0.04 0 0.885 0.04 0 0.89 0.04 0 0.895 0.04 0 0.9 0.04 0 0.905 0.04 0 0.91 0.04 0 0.915 0.04 0 0.92 0.04 0 0.925 0.04 0 0.93 0.04 0 0.935 0.04 0 0.94 0.04 0 0.945 0.04 0 0.95 0.04 0 0.955 0.04 0 0.96 0.04 0 0.965 0.04 0 0.97 0.04 0 0.975 0.04 0 0.98 0.04 0 0.985 0.04 0 0.99 0.04 0 0.995 0.04 0 1 0.04 0 0 0.06 0 0.005 0.06 0 0.01 0.06 0 0.015 0.06 0 0.02 0.06 0 0.025 0.06 0 0.03 0.06 0 0.035 0.06 0 0.04 0.06 0 0.045 0.06 0 0.05 0.06 0 0.055 0.06 0 0.06 0.06 0 0.065 0.06 0 0.07 0.06 0 0.075 0.06 0 0.08 0.06 0 0.085 0.06 0 0.09 0.06 0 0.095 0.06 0 0.1 0.06 0 0.105 0.06 0 0.11 0.06 0 0.115 0.06 0 0.12 0.06 0 0.125 0.06 0 0.13 0.06 0 0.135 0.06 0 0.14 0.06 0 0.145 0.06 0 0.15 0.06 0 0.155 0.06 0 0.16 0.06 0 0.165 0.06 0 0.17 0.06 0 0.175 0.06 0 0.18 0.06 0 0.185 0.06 0 0.19 0.06 0 0.195 0.06 0 0.2 0.06 0 0.205 0.06 0 0.21 0.06 0 0.215 0.06 0 0.22 0.06 0 0.225 0.06 0 0.23 0.06 0 0.235 0.06 0 0.24 0.06 0 0.245 0.06 0 0.25 0.06 0 0.255 0.06 0 0.26 0.06 0 0.265 0.06 0 0.27 0.06 0 0.275 0.06 0 0.28 0.06 0 0.285 0.06 0 0.29 0.06 0 0.295 0.06 0 0.3 0.06 0 0.305 0.06 0 0.31 0.06 0 0.315 0.06 0 0.32 0.06 0 0.325 0.06 0 0.33 0.06 0 0.335 0.06 0 0.34 0.06 0 0.345 0.06 0 0.35 0.06 0 0.355 0.06 0 0.36 0.06 0 0.365 0.06 0 0.37 0.06 0 0.375 0.06 0 0.38 0.06 0 0.385 0.06 0 0.39 0.06 0 0.395 0.06 0 0.4 0.06 0 0.405 0.06 0 0.41 0.06 0 0.415 0.06 0 0.42 0.06 0 0.425 0.06 0 0.43 0.06 0 0.435 0.06 0 0.44 0.06 0 0.445 0.06 0 0.45 0.06 0 0.455 0.06 0 0.46 0.06 0 0.465 0.06 0 0.47 0.06 0 0.475 0.06 0 0.48 0.06 0 0.485 0.06 0 0.49 0.06 0 0.495 0.06 0 0.5 0.06 0 0.505 0.06 0 0.51 0.06 0 0.515 0.06 0 0.52 0.06 0 0.525 0.06 0 0.53 0.06 0 0.535 0.06 0 0.54 0.06 0 0.545 0.06 0 0.55 0.06 0 0.555 0.06 0 0.56 0.06 0 0.565 0.06 0 0.57 0.06 0 0.575 0.06 0 0.58 0.06 0 0.585 0.06 0 0.59 0.06 0 0.595 0.06 0 0.6 0.06 0 0.605 0.06 0 0.61 0.06 0 0.615 0.06 0 0.62 0.06 0 0.625 0.06 0 0.63 0.06 0 0.635 0.06 0 0.64 0.06 0 0.645 0.06 0 0.65 0.06 0 0.655 0.06 0 0.66 0.06 0 0.665 0.06 0 0.67 0.06 0 0.675 0.06 0 0.68 0.06 0 0.685 0.06 0 0.69 0.06 0 0.695 0.06 0 0.7 0.06 0 0.705 0.06 0 0.71 0.06 0 0.715 0.06 0 0.72 0.06 0 0.725 0.06 0 0.73 0.06 0 0.735 0.06 0 0.74 0.06 0 0.745 0.06 0 0.75 0.06 0 0.755 0.06 0 0.76 0.06 0 0.765 0.06 0 0.77 0.06 0 0.775 0.06 0 0.78 0.06 0 0.785 0.06 0 0.79 0.06 0 0.795 0.06 0 0.8 0.06 0 0.805 0.06 0 0.81 0.06 0 0.815 0.06 0 0.82 0.06 0 0.825 0.06 0 0.83 0.06 0 0.835 0.06 0 0.84 0.06 0 0.845 0.06 0 0.85 0.06 0 0.855 0.06 0 0.86 0.06 0 0.865 0.06 0 0.87 0.06 0 0.875 0.06 0 0.88 0.06 0 0.885 0.06 0 0.89 0.06 0 0.895 0.06 0 0.9 0.06 0 0.905 0.06 0 0.91 0.06 0 0.915 0.06 0 0.92 0.06 0 0.925 0.06 0 0.93 0.06 0 0.935 0.06 0 0.94 0.06 0 0.945 0.06 0 0.95 0.06 0 0.955 0.06 0 0.96 0.06 0 0.965 0.06 0 0.97 0.06 0 0.975 0.06 0 0.98 0.06 0 0.985 0.06 0 0.99 0.06 0 0.995 0.06 0 1 0.06 0 0 0.08 0 0.005 0.08 0 0.01 0.08 0 0.015 0.08 0 0.02 0.08 0 0.025 0.08 0 0.03 0.08 0 0.035 0.08 0 0.04 0.08 0 0.045 0.08 0 0.05 0.08 0 0.055 0.08 0 0.06 0.08 0 0.065 0.08 0 0.07 0.08 0 0.075 0.08 0 0.08 0.08 0 0.085 0.08 0 0.09 0.08 0 0.095 0.08 0 0.1 0.08 0 0.105 0.08 0 0.11 0.08 0 0.115 0.08 0 0.12 0.08 0 0.125 0.08 0 0.13 0.08 0 0.135 0.08 0 0.14 0.08 0 0.145 0.08 0 0.15 0.08 0 0.155 0.08 0 0.16 0.08 0 0.165 0.08 0
[...]
			<PointData Scalars="VitesseX">
				<DataArray Name="VitesseX" type="Float32" format="ascii">
 0 -3.4773e-15 -2.43783e-14 1.92882e-14 -2.04986e-14 -1.00096e-13 -6.23045e-14 -2.92864e-14 -8.70665e-14 6.16632e-14 7.92557e-15 -1.61303e-13 7.79002e-14 -2.7436e-13 -2.60544e-14 3.02213e-14 -1.23761e-13 7.93733e-14 -8.88716e-14 -5.01361e-14 -1.15562e-13 2.9512e-14 3.60127e-14 -1.59697e-13 -1.45084e-13 1.7993e-13 1.50241e-13 5.67633e-14 -1.53534e-13 -4.08551e-14 -3.09584e-13 -2.22972e-14 -1.52627e-14 -7.39927e-14 7.1358e-14 -1.97135e-13 5.51417e-13 -1.14731e-12 8.32164e-13 -4.88769e-13 -1.21261e-13 -1.71197e-14 1.0612e-13 2.51495e-14 1.1879e-13 -4.54741e-13 6.37356e-13 -1.02284e-12 -2.40103e-13 -3.50065e-14 8.08981e-14 -2.34433e-13 -8.76281e-13 1.17005e-12 5.63155e-13 -1.01066e-13 2.74e-13 -6.00958e-13 7.60567e-13 -3.22506e-13 -5.97913e-13 -5.48483e-13 1.22442e-13 -1.75051e-13 -3.80314e-13 -2.33034e-13 5.89853e-13 4.25269e-13 8.23048e-13 -6.15254e-13 -4.61951e-13 5.49753e-13 -2.95015e-13 -4.65411e-13 -6.78961e-13 -7.73648e-13 6.92367e-13 -2.6564e-14 -3.33495e-13 3.06713e-12 3.93854e-11 6.26934e-10 8.91818e-09 1.11539e-07 1.2141e-06 1.13534e-05 8.97436e-05 0.000587226 0.00309495 0.0127042 0.0393535 0.0913893 0.165988 0.2546 0.352029 0.456793 0.554786 0.635908 0.709984 0.782962 0.833089 0.875797 0.9132 0.924326 0.934647 0.934492 0.933017 0.939633 0.934948 0.930761 0.920075 0.894075 0.851039 0.778868 0.666596 0.520074 0.36206 0.21993 0.113362 0.0487597 0.0178826 0.00588522 0.00181319 0.000533852 0.000151341 4.1406e-05 1.09406e-05 2.79253e-06 6.88699e-07 1.64152e-07 3.78251e-08 8.42968e-09 1.81711e-09 3.78228e-10 7.6357e-11 1.49181e-11 3.70223e-12 3.6785e-13 -9.84853e-13 9.77875e-13 -7.22796e-13 -1.54064e-13 1.64072e-12 -1.58068e-12 -7.88343e-13 6.61642e-13 -1.61373e-14 7.02395e-13 -5.22934e-13 -5.19173e-13 1.52828e-12 -2.64165e-13 1.09645e-12 -1.19735e-12 1.38529e-13 -4.8144e-13 1.00709e-12 1.18686e-13 -1.30595e-12 -1.1996e-12 2.70052e-13 1.62291e-12 -1.75579e-13 -2.63064e-12 5.0838e-13 6.69806e-13 5.13035e-13 6.58549e-14 -6.6066e-13 7.70937e-13 -7.71236e-13 2.15866e-13 9.64654e-13 -5.76579e-14 9.15419e-13 -1.61841e-12 -7.25227e-15 9.83119e-13 -3.61342e-14 5.38787e-13 -1.29794e-12 -7.81635e-13 1.27763e-13 9.60499e-14 1.65395e-13 -1.65502e-12 -2.41636e-13 1.02137e-12 8.70076e-13 2.07806e-13 -2.34044e-12 2.84752e-13 2.18257e-12 -9.51626e-13 -1.77526e-12 -1.4305e-12 1.06251e-12 1.77617e-12 -2.10024e-12 -1.44648e-12 0 0 -4.89997e-15 3.29653e-15 -5.67833e-14 -5.23377e-14 -2.23988e-15 -6.24064e-14 -1.05252e-13 -4.34307e-14 -1.37749e-13 -7.58343e-14 7.43069e-14 -1.55139e-13 7.86597e-14 -1.97306e-13 -2.89191e-14 5.97233e-14 -1.91294e-13 3.85319e-14 -5.41695e-14 -1.02592e-14 -3.459e-14 -1.83226e-13 -9.18012e-14 8.09556e-14 1.13602e-13 -2.74608e-14 5.32108e-14 -6.16172e-14 -6.65417e-14 -3.09323e-14 -3.0437e-13 -9.88954e-14 4.27043e-14 -1.73973e-13 8.11812e-14 -4.79447e-13 8.07787e-13 -7.45665e-13 2.53466e-13 -5.08994e-14 -1.17665e-13 -5.17962e-14 -1.53735e-14 -1.83828e-13 1.48605e-13 -8.55928e-13 3.02757e-13 -4.20143e-13 -3.61023e-13 -4.49446e-13 3.13909e-13 6.50848e-13 -4.08941e-13 -1.36204e-13 5.20763e-13 1.43314e-13 1.67374e-13 -3.02169e-13 1.14224e-13 -7.12895e-14 -1.03414e-13 -7.52798e-13 -1.1826e-13 1.12897e-13 2.20335e-13 1.19154e-13 3.00071e-14 -4.62384e-13 6.537e-13 1.25225e-13 -5.55129e-13 -3.93031e-13 -2.50539e-13 -9.5161e-14 -1.23e-13 -5.79393e-13 1.3135e-14 9.20135e-13 2.36983e-12 3.93929e-11 6.27592e-10 8.91754e-09 1.11538e-07 1.2141e-06 1.13534e-05 8.97436e-05 0.000587226 0.00309495 0.0127042 0.0393535 0.0913893 0.165988 0.2546 0.352029 0.456793 0.554786 0.635908 0.709984 0.782962 0.833089 0.875797 0.9132 0.924326 0.934647 0.934492 0.933017 0.939633 0.934948 0.930761 0.920075 0.894075 0.851039 0.778868 0.666596 0.520074 0.36206 0.21993 0.113362 0.0487597 0.0178826 0.00588522 0.00181319 0.000533852 0.000151341 4.1406e-05 1.09405e-05 2.79253e-06 6.88701e-07 1.64152e-07 3.78253e-08 8.42854e-09 1.81688e-09 3.79419e-10 7.63653e-11 1.50131e-11 2.11238e-12 4.96324e-13 6.47682e-13 -8.99164e-13 2.38518e-13 3.92307e-13 -1.07119e-12 7.72219e-13 5.02346e-13 -6.23018e-13 -1.6341e-13 -5.61382e-13 8.72879e-13 1.05838e-12 -6.57989e-13 2.28392e-13 -5.28219e-13 1.16889e-12 -3.46017e-13 6.67712e-14 -1.10843e-12 1.54248e-13 2.93662e-13 2.54518e-13 -4.7209e-13 -1.82579e-12 2.08123e-13 1.37087e-12 -7.49649e-14 -4.16325e-13 -9.98606e-13 4.07005e-13 6.98881e-13 -6.56346e-13 5.17872e-13 5.07527e-13 -2.09121e-13 -5.04226e-14 -5.0835e-13 9.64378e-13 3.22191e-13 -3.92598e-13 -4.71343e-14 -1.17111e-12 1.14264e-12 1.50103e-13 -9.85551e-13 -8.38539e-13 -6.51751e-13 6.6762e-13 2.35804e-14 -1.30292e-13 -8.37329e-13 -5.61024e-13 1.32859e-12 -4.69103e-13 -1.13087e-12 1.13269e-13 1.0676e-12 -8.40171e-14 -1.44253e-12 -1.52269e-12 9.45415e-13 8.39255e-13 0 0 -1.35469e-14 -1.83542e-14 -1.96501e-14 -6.90254e-14 -8.6449e-14 -5.15241e-14 -7.91559e-14 -1.37452e-13 -4.5495e-14 -1.26881e-13 -1.33289e-13 8.22291e-14 -1.36324e-13 5.29285e-14 -8.12882e-14 -2.83762e-15 2.66245e-14 -7.06498e-14 -9.6307e-14 -1.39411e-13 -3.0388e-14 -7.19778e-14 -6.54859e-14 4.60862e-14 1.01291e-13 5.04682e-14 -2.06093e-13 -1.19199e-13 -2.7585e-14 5.49477e-17 -4.47503e-14 -2.91014e-13 -1.79981e-13 5.4205e-14 -3.38353e-13 7.92117e-14 -6.90875e-14 2.26285e-13 -1.32536e-13 -1.30069e-13 -1.27804e-13 5.21726e-14 -1.62082e-13 -3.03769e-13 -3.35502e-13 -1.99985e-14 4.1199e-14 1.16366e-13 -3.01116e-13 -6.64602e-14 1.65555e-13 -1.13714e-13 1.63379e-13 4.62413e-14 -7.91486e-14 -2.85733e-14 2.37549e-13 -1.32907e-13 -1.4444e-13 5.40001e-14 -1.48932e-13 -9.26293e-14 -3.19501e-13 1.32247e-13 -5.92986e-14 -1.95373e-14 2.13303e-13 -1.27205e-13 6.97889e-14 -2.32233e-13 1.14679e-13 -4.26191e-13 -1.22663e-13 1.03547e-13 -3.88404e-13 -1.13058e-14 -1.02151e-13 6.04271e-13 2.55021e-12 3.90234e-11 6.27068e-10 8.91726e-09 1.11539e-07 1.2141e-06 1.13534e-05 8.97436e-05 0.000587226 0.00309495 0.0127042 0.0393535 0.0913893 0.165988 0.2546 0.352029 0.456793 0.554786 0.635908 0.709984 0.782962 0.833089 0.875797 0.9132 0.924326 0.934647 0.934492 0.933017 0.939633 0.934948 0.930761 0.920075 0.894075 0.851039 0.778868 0.666596 0.520074 0.36206 0.21993 0.113362 0.0487597 0.0178826 0.00588522 0.00181319 0.000533852 0.000151341 4.1406e-05 1.09405e-05 2.79253e-06 6.887e-07 1.64152e-07 3.78251e-08 8.42909e-09 1.81684e-09 3.78685e-10 7.6746e-11 1.46275e-11 2.64892e-12 4.59222e-13 -6.01342e-13 1.72932e-13 -3.44572e-13 -1.89192e-13 6.50048e-13 -5.43637e-13 4.66689e-13 2.28916e-13 3.54456e-13 2.24859e-13 -4.79635e-13 -1.38262e-13 3.06261e-13 2.40174e-13 4.03354e-13 -4.69611e-13 2.64885e-13 -5.44999e-14 -3.39495e-13 -9.222e-13 1.63552e-13 -2.56162e-13 -4.21285e-13 5.12011e-13 -4.75587e-13 -3.22363e-13 -1.27031e-13 -4.96653e-13 4.97098e-13 2.23036e-13 2.69406e-13 -2.85804e-13 -5.88667e-13 3.64132e-13 1.99639e-13 6.19525e-14 2.08524e-13 3.30214e-13 -2.06021e-13 3.34422e-13 -3.41183e-14 2.35266e-13 -5.20875e-13 -7.13646e-13 -3.96424e-13 -5.22386e-13 -2.53669e-14 -3.39508e-13 2.64614e-13 -3.57327e-14 -1.10562e-12 9.9381e-13 -9.05833e-13 2.54701e-13 1.62463e-13 -8.56754e-13 1.55964e-13 2.63563e-13 -6.22507e-14 -6.65233e-13 -3.39212e-13 -3.92199e-13 0 0 9.27202e-15 -2.04122e-14 -3.45988e-14 -5.34461e-14 -9.79948e-14 -8.96623e-14 -1.23459e-13 -1.55552e-13 -5.53338e-14 1.2376e-14 -5.36187e-14 1.06007e-13 -1.12964e-13 -1.05431e-13 -7.74989e-14 -9.91409e-14 -2.17647e-14 -3.81545e-14 -8.93383e-14 -1.56545e-13 -9.60611e-14 -1.30091e-15 2.72544e-14 -2.55183e-14 -1.09942e-13 5.86027e-14 -4.21649e-14 -1.47149e-13 -1.3358e-13 -6.2311e-14 -6.99119e-14 -6.46406e-14 6.71976e-14 4.31668e-15 1.39678e-14 1.81424e-13 -4.20505e-13 2.95897e-13 -1.66405e-13 -4.28221e-13 -2.10353e-13 -6.95717e-14 1.14943e-14 1.02441e-13 -1.84752e-13 1.76808e-13 -2.55517e-13 -6.03009e-14 2.17797e-14 5.09502e-14 -2.86765e-13 1.20506e-13 1.33406e-13 3.68352e-13 -1.63883e-14 -3.82919e-13 -1.59854e-13 2.29098e-13 -3.84172e-13 -3.14236e-13 -4.44129e-13 -1.16461e-13 -5.34479e-13 -7.77268e-14 1.93935e-13 4.39028e-13 5.76317e-13 6.48151e-13 -3.34467e-13 -1.43341e-13 1.61508e-13 -1.21682e-14 -4.94008e-15 -3.60847e-13 -5.89695e-13 -1.16599e-13 -2.32218e-13 5.04941e-14 2.95037e-12 3.93844e-11 6.26925e-10 8.91781e-09 1.11538e-07 1.2141e-06 1.13534e-05 8.97436e-05 0.000587226 0.00309495 0.0127042 0.0393535 0.0913893 0.165988 0.2546 0.352029 0.456793 0.554786 0.635908 0.709984 0.782962 0.833089 0.875797 0.9132 0.924326 0.934647 0.934492 0.933017 0.939633 0.934948 0.930761 0.920075 0.894075 0.851039 0.778868 0.666596 0.520074 0.36206 0.21993 0.113362 0.0487597 0.0178826 0.00588522 0.00181319 0.000533852 0.000151341 4.1406e-05 1.09405e-05 2.79253e-06 6.887e-07 1.64153e-07 3.78252e-08 8.42912e-09 1.81705e-09 3.78438e-10 7.61294e-11 1.47088e-11 3.1426e-12 1.3976e-13 -4.91878e-13 5.17564e-13 -2.42506e-13 1.38985e-13 3.67436e-13 -3.76974e-13 1.77045e-13 4.95875e-13 7.00163e-13 2.79239e-13 -4.34e-13 4.22708e-14 4.71231e-13 -3.11584e-13 -3.41625e-13 -7.05465e-13 1.14576e-13 2.70111e-13 6.50316e-14 -7.75495e-13 -7.36776e-13 -9.807e-13 -3.26079e-13 7.01165e-13 -4.00051e-13 -7.69008e-13 3.32506e-13 -1.9485e-13 -9.1894e-14 -8.21081e-13 -6.8888e-13 9.58936e-13 8.81801e-14 6.3308e-13 -1.13237e-13 8.04545e-13 3.35875e-13 -7.68851e-13 4.03421e-14 2.72898e-13 6.6001e-13 2.5902e-13 -7.04972e-13 -1.24676e-12 -4.7072e-13 1.70626e-13 1.00594e-13 -5.41722e-13 -1.76596e-13 4.05847e-14 1.07041e-12 1.15087e-13 -1.10469e-12 1.23719e-13 9.36741e-13 1.08366e-13 -8.06511e-13 -7.77854e-13 1.05619e-12 4.56742e-13 -1.197e-12 -1.50131e-12 0 0 1.1502e-14 -5.16204e-15 -7.18187e-14 -5.64316e-14 -6.29688e-14 -1.20044e-13 -1.68632e-13 -8.62979e-14 -1.00815e-13 2.47505e-14 1.35643e-13 -9.98897e-14 1.69176e-13 -3.40077e-13 -3.32612e-14 -1.089e-14 -2.38595e-13 -1.74286e-14 -6.10603e-14 -9.98666e-14 -1.28084e-13 -1.74446e-13 -1.71861e-13 2.78361e-14 -1.78424e-13 -2.64699e-13 4.42665e-14 -3.65803e-14 -4.48217e-14 1.24616e-13 -7.3906e-14 1.88981e-13 3.3936e-13 -1.65783e-13 2.62979e-13 -3.20505e-13 7.58733e-13 -8.50354e-13 1.26609e-13 -3.28755e-13 -3.92641e-13 -2.39912e-13 -1.39671e-15 -2.12471e-14 1.93026e-13 -8.28574e-13 1.55727e-13 -3.49499e-13 -1.15627e-13 -3.29051e-13 2.62832e-14 6.53886e-13 -5.84413e-13 -8.5293e-14 6.37885e-13 -1.4521e-13 -1.29303e-13 -2.44432e-13 -1.6886e-13 -2.18968e-13 -2.96076e-13 -6.5912e-13 -1.76654e-13 5.89256e-14 7.59244e-13 3.88974e-13 3.52371e-13 1.86159e-13 4.86983e-13 1.326e-13 -6.33974e-13 -2.39692e-13 -1.71849e-13 -2.70001e-13 -2.44011e-13 -7.17119e-13 5.99374e-14 8.67743e-13 2.48669e-12 3.96857e-11 6.27325e-10 8.91762e-09 1.11538e-07 1.2141e-06 1.13534e-05 8.97436e-05 0.000587226 0.00309495 0.0127042 0.0393535 0.0913893 0.165988 0.2546 0.352029 0.456793 0.554786 0.635908 0.709984 0.782962 0.833089 0.875797 0.9132 0.924326 0.934647 0.934492 0.933017 0.939633 0.934948 0.930761 0.920075 0.894075 0.851039 0.778868 0.666596 0.520074 0.36206 0.21993 0.113362 0.0487597 0.0178826 0.00588522 0.00181319 0.000533852 0.000151341 4.1406e-05 1.09405e-05 2.79253e-06 6.887e-07 1.64152e-07 3.78252e-08 8.42861e-09 1.81678e-09 3.79294e-10 7.59412e-11 1.49818e-11 2.0209e-12 3.73826e-13 7.23621e-13 -5.50037e-13 7.22648e-13 -2.03062e-15 -9.13849e-13 1.35331e-12 7.31472e-13 -3.2208e-13 2.79467e-13 -4.00441e-13 1.35062e-12 1.19147e-12 -9.21183e-13 1.58007e-13 -1.28839e-12 3.20648e-13 -6.63231e-13 1.31311e-13 -1.13428e-12 -5.47469e-13 -5.64967e-13 -5.88835e-13 -7.98797e-13 -1.57787e-12 5.98911e-13 2.02883e-12 1.25553e-13 -6.66279e-15 -1.60163e-12 -8.55332e-13 -1.99485e-13 2.70482e-13 1.25595e-12 6.66614e-14 -1.07607e-12 2.35865e-13 -1.65095e-13 7.04339e-13 4.90013e-13 -5.64925e-13 4.07346e-14 -7.85728e-13 1.0262e-12 -3.84071e-13 -1.34037e-12 -6.27617e-13 -4.06094e-13 1.14514e-12 -2.42398e-13 2.63689e-13 4.78826e-13 -1.09694e-12 1.07823e-12 -4.13462e-13 -7.28086e-13 1.02115e-12 7.71556e-13 -5.4247e-13 -7.32079e-13 -1.17677e-12 -8.72366e-14 3.43685e-13 0 0 -1.63113e-14 -3.71793e-14 1.91149e-14 -5.9845e-14 -1.98462e-13 -1.01303e-13 -6.7441e-14 -1.366e-13 1.55208e-13 -6.94196e-14 -1.97971e-13 1.40843e-13 -1.40049e-13 5.12208e-15 1.39584e-14 -7.2381e-14 8.1551e-14 -2.65783e-13 -7.78553e-14 -2.60509e-13 -2.6129e-14 -8.77814e-14 -5.05296e-13 -1.08114e-13 1.83458e-14 -3.40505e-13 -2.88982e-13 -4.75598e-14 2.14576e-13 1.26244e-13 4.88955e-13 1.07742e-13 2.49622e-14 1.87515e-13 -5.3818e-13 6.64876e-13 -5.4258e-13 4.83564e-13 -6.74745e-13 -8.06654e-14 -4.01971e-13 -2.66222e-14 -2.9405e-13 -3.68468e-13 -6.67397e-13 2.98451e-13 -7.23471e-13 2.54519e-13 -1.90007e-13 8.68657e-14 9.49554e-14 -1.33865e-12 8.79055e-13 2.07557e-14 7.6573e-15 4.05644e-13 -3.99505e-13 1.52032e-13 -4.09211e-13 -1.56796e-13 -3.43415e-13 3.57461e-13 1.38118e-13 -6.831e-14 3.38317e-13 2.12365e-13 3.43968e-13 5.69421e-13 -1.40177e-13 -6.24983e-13 2.98404e-13 -8.16383e-13 -5.43476e-13 -9.9853e-14 -6.13089e-13 6.27501e-13 3.27174e-13 6.69274e-13 2.50052e-12 3.92489e-11 6.26685e-10 8.91724e-09 1.1154e-07 1.2141e-06 1.13534e-05 8.97436e-05 0.000587226 0.00309495 0.0127042 0.0393535 0.0913893 0.165988 0.2546 0.352029 0.456793 0.554786 0.635908 0.709984 0.782962 0.833089 0.875797 0.9132 0.924326 0.934647 0.934492 0.933017 0.939633 0.934948 0.930761 0.920075 0.894075 0.851039 0.778868 0.666596 0.520074 0.36206 0.21993 0.113362 0.0487597 0.0178826 0.00588522 0.00181319 0.000533852 0.000151341 4.1406e-05 1.09406e-05 2.79253e-06 6.887e-07 1.64152e-07 3.78246e-08 8.42975e-09 1.81648e-09 3.78474e-10 7.67421e-11 1.46927e-11 2.5319e-12 7.6178e-13 -1.0519e-12 9.86865e-13 4.13333e-14 -1.59909e-12 2.52063e-12 -7.51817e-13 2.49198e-13 7.29597e-13 1.78204e-13 9.15515e-13 3.41273e-13 -6.14062e-13 6.71956e-13 6.9858e-13 1.06607e-12 -2.42212e-12 -1.95279e-13 -1.00158e-12 1.46348e-13 -1.57816e-12 -1.22255e-12 -1.43723e-12 -5.73776e-13 1.74045e-12 4.54923e-13 -4.2143e-13 -9.65828e-15 8.85523e-13 4.84965e-13 -3.70585e-13 -5.40822e-13 1.35114e-13 -6.48766e-13 -1.20376e-12 -1.43483e-13 -9.70268e-13 1.34723e-12 5.96382e-14 -1.64336e-13 7.61511e-13 -1.24865e-12 1.26204e-12 -1.16262e-12 -7.83766e-13 -4.33282e-13 -8.68132e-13 4.04787e-13 -2.95543e-13 1.08827e-13 1.6567e-12 -8.49676e-13 8.93429e-13 -2.44347e-12 6.57997e-13 1.43957e-12 -1.06611e-12 -4.42402e-13 -2.64574e-13 2.46526e-13 2.24071e-13 -2.44995e-12 -2.19406e-13 0
				</DataArray>
				<DataArray Name="VitesseY" type="Float32" format="ascii">