<?xml version="1.0"?>
<VTKFile type="PolyData">
	<PolyData>
		<Piece NumberOfPoints="1206" NumberOfPolys="1000">
			<Points>
				<DataArray type="Float32" NumberOfComponents="3" format="ascii">
 0 0 0 0.005 0 0 0.01 0 0 0.015 0 0 0.02 0 0 0.025 0 0 0.03 0 0 0.035 0 0 0.04 0 0 0.045 0 0 0.05 0 0 0.055 0 0 0.06 0 0 0.065 0 0 0.07 0 0 0.075 0 0 0.08 0 0 0.085 0 0 0.09 0 0 0.095 0 0 0.1 0 0 0.105 0 0 0.11 0 0 0.115 0 0 0.12 0 0 0.125 0 0 0.13 0 0 0.135 0 0 0.14 0 0 0.145 0 0 0.15 0 0 0.155 0 0 0.16 0 0 0.165 0 0 0.17 0 0 0.175 0 0 0.18 0 0 0.185 0 0 0.19 0 0 0.195 0 0 0.2 0 0 0.205 0 0 0.21 0 0 0.215 0 0 0.22 0 0 0.225 0 0 0.23 0 0 0.235 0 0 0.24 0 0 0.245 0 0 0.25 0 0 0.255 0 0 0.26 0 0 0.265 0 0 0.27 0 0 0.275 0 0 0.28 0 0 0.285 0 0 0.29 0 0 0.295 0 0 0.3 0 0 0.305 0 0 0.31 0 0 0.315 0 0 0.32 0 0 0.325 0 0 0.33 0 0 0.335 0 0 0.34 0 0 0.345 0 0 0.35 0 0 0.355 0 0 0.36 0 0 0.365 0 0 0.37 0 0 0.375 0 0 0.38 0 0 0.385 0 0 0.39 0 0 0.395 0 0 0.4 0 0 0.405 0 0 0.41 0 0 0.415 0 0 0.42 0 0 0.425 0 0 0.43 0 0 0.435 0 0 0.44 0 0 0.445 0 0 0.45 0 0 0.455 0 0 0.46 0 0 0.465 0 0 0.47 0 0 0.475 0 0 0.48 0 0 0.485 0 0 0.49 0 0 0.495 0 0 0.5 0 0 0.505 0 0 0.51 0 0 0.515 0 0 0.52 0 0 0.525 0 0 0.53 0 0 0.535 0 0 0.54 0 0 0.545 0 0 0.55 0 0 0.555 0 0 0.56 0 0 0.565 0 0 0.57 0 0 0.575 0 0 0.58 0 0 0.585 0 0 0.59 0 0 0.595 0 0 0.6 0 0 0.605 0 0 0.61 0 0 0.615 0 0 0.62 0 0 0.625 0 0 0.63 0 0 0.635 0 0 0.64 0 0 0.645 0 0 0.65 0 0 0.655 0 0 0.66 0 0 0.665 0 0 0.67 0 0 0.675 0 0 0.68 0 0 0.685 0 0 0.69 0 0 0.695 0 0 0.7 0 0 0.705 0 0 0.71 0 0 0.715 0 0 0.72 0 0 0.725 0 0 0.73 0 0 0.735 0 0 0.74 0 0 0.745 0 0 0.75 0 0 0.755 0 0 0.76 0 0 0.765 0 0 0.77 0 0 0.775 0 0 0.78 0 0 0.785 0 0 0.79 0 0 0.795 0 0 0.8 0 0 0.805 0 0 0.81 0 0 0.815 0 0 0.82 0 0 0.825 0 0 0.83 0 0 0.835 0 0 0.84 0 0 0.845 0 0 0.85 0 0 0.855 0 0 0.86 0 0 0.865 0 0 0.87 0 0 0.875 0 0 0.88 0 0 0.885 0 0 0.89 0 0 0.895 0 0 0.9 0 0 0.905 0 0 0.91 0 0 0.915 0 0 0.92 0 0 0.925 0 0 0.93 0 0 0.935 0 0 0.94 0 0 0.945 0 0 0.95 0 0 0.955 0 0 0.96 0 0 0.965 0 0 0.97 0 0 0.975 0 0 0.98 0 0 0.985 0 0 0.99 0 0 0.995 0 0 1 0 0 0 0.02 0 0.005 0.02 0 0.01 0.02 0 0.015 0.02 0 0.02 0.02 0 0.025 0.02 0 0.03 0.02 0 0.035 0.02 0 0.04 0.02 0 0.045 0.02 0 0.05 0.02 0 0.055 0.02 0 0.06 0.02 0 0.065 0.02 0 0.07 0.02 0 0.075 0.02 0 0.08 0.02 0 0.085 0.02 0 0.09 0.02 0 0.095 0.02 0 0.1 0.02 0 0.105 0.02 0 0.11 0.02 0 0.115 0.02 0 0.12 0.02 0 0.125 0.02 0 0.13 0.02 0 0.135 0.02 0 0.14 0.02 0 0.145 0.02 0 0.15 0.02 0 0.155 0.02 0 0.16 0.02 0 0.165 0.02 0 0.17 0.02 0 0.175 0.02 0 0.18 0.02 0 0.185 0.02 0 0.19 0.02 0 0.195 0.02 0 0.2 0.02 0 0.205 0.02 0 0.21 0.02 0 0.215 0.02 0 0.22 0.02 0 0.225 0.02 0 0.23 0.02 0 0.235 0.02 0 0.24 0.02 0 0.245 0.02 0 0.25 0.02 0 0.255 0.02 0 0.26 0.02 0 0.265 0.02 0 0.27 0.02 0 0.275 0.02 0 0.28 0.02 0 0.285 0.02 0 0.29 0.02 0 0.295 0.02 0 0.3 0.02 0 0.305 0.02 0 0.31 0.02 0 0.315 0.02 0 0.32 0.02 0 0.325 0.02 0 0.33 0.02 0 0.335 0.02 0 0.34 0.02 0 0.345 0.02 0 0.35 0.02 0 0.355 0.02 0 0.36 0.02 0 0.365 0.02 0 0.37 0.02 0 0.375 0.02 0 0.38 0.02 0 0.385 0.02 0 0.39 0.02 0 0.395 0.02 0 0.4 0.02 0 0.405 0.02 0 0.41 0.02 0 0.415 0.02 0 0.42 0.02 0 0.425 0.02 0 0.43 0.02 0 0.435 0.02 0 0.44 0.02 0 0.445 0.02 0 0.45 0.02 0 0.455 0.02 0 0.46 0.02 0 0.465 0.02 0 0.47 0.02 0 0.475 0.02 0 0.48 0.02 0 0.485 0.02 0 0.49 0.02 0 0.495 0.02 0 0.5 0.02 0 0.505 0.02 0 0.51 0.02 0 0.515 0.02 0 0.52 0.02 0 0.525 0.02 0 0.53 0.02 0 0.535 0.02 0 0.54 0.02 0 0.545 0.02 0 0.55 0.02 0 0.555 0.02 0 0.56 0.02 0 0.565 0.02 0 0.57 0.02 0 0.575 0.02 0 0.58 0.02 0 0.585 0.02 0 0.59 0.02 0 0.595 0.02 0 0.6 0.02 0 0.605 0.02 0 0.61 0.02 0 0.615 0.02 0 0.62 0.02 0 0.625 0.02 0 0.63 0.02 0 0.635 0.02 0 0.64 0.02 0 0.645 0.02 0 0.65 0.02 0 0.655 0.02 0 0.66 0.02 0 0.665 0.02 0 0.67 0.02 0 0.675 0.02 0 0.68 0.02 0 0.685 0.02 0 0.69 0.02 0 0.695 0.02 0 0.7 0.02 0 0.705 0.02 0 0.71 0.02 0 0.715 0.02 0 0.72 0.02 0 0.725 0.02 0 0.73 0.02 0 0.735 0.02 0 0.74 0.02 0 0.745 0.02 0 0.75 0.02 0 0.755 0.02 0 0.76 0.02 0 0.765 0.02 0 0.77 0.02 0 0.775 0.02 0 0.78 0.02 0 0.785 0.02 0 0.79 0.02 0 0.795 0.02 0 0.8 0.02 0 0.805 0.02 0 0.81 0.02 0 0.815 0.02 0 0.82 0.02 0 0.825 0.02 0 0.83 0.02 0 0.835 0.02 0 0.84 0.02 0 0.845 0.02 0 0.85 0.02 0 0.855 0.02 0 0.86 0.02 0 0.865 0.02 0 0.87 0.02 0 0.875 0.02 0 0.88 0.02 0 0.885 0.02 0 0.89 0.02 0 0.895 0.02 0 0.9 0.02 0 0.905 0.02 0 0.91 0.02 0 0.915 0.02 0 0.92 0.02 0 0.925 0.02 0 0.93 0.02 0 0.935 0.02 0 0.94 0.02 0 0.945 0.02 0 0.95 0.02 0 0.955 0.02 0 0.96 0.02 0 0.965 0.02 0 0.97 0.02 0 0.975 0.02 0 0.98 0.02 0 0.985 0.02 0 0.99 0.02 0 0.995 0.02 0 1 0.02 0 0 0.04 0 0.005 0.04 0 0.01 0.04 0 0.015 0.04 0 0.02 0.04 0 0.025 0.04 0 0.03 0.04 0 0.035 0.04 0 0.04 0.04 0 0.045 0.04 0 0.05 0.04 0 0.055 0.04 0 0.06 0.04 0 0.065 0.04 0 0.07 0.04 0 0.075 0.04 0 0.08 0.04 0 0.085 0.04 0 0.09 0.04 0 0.095 0.04 0 0.1 0.04 0 0.105 0.04 0 0.11 0.04 0 0.115 0.04 0 0.12 0.04 0 0.125 0.04 0 0.13 0.04 0 0.135 0.04 0 0.14 0.04 0 0.145 0.04 0 0.15 0.04 0 0.155 0.04 0 0.16 0.04 0 0.165 0.04 0 0.17 0.04 0 0.175 0.04 0 0.18 0.04 0 0.185 0.04 0 0.19 0.04 0 0.195 0.04 0 0.2 0.04 0 0.205 0.04 0 0.21 0.04 0 0.215 0.04 0 0.22 0.04 0 0.225 0.04 0 0.23 0.04 0 0.235 0.04 0 0.24 0.04 0 0.245 0.04 0 0.25 0.04 0 0.255 0.04 0 0.26 0.04 0 0.265 0.04 0 0.27 0.04 0 0.275 0.04 0 0.28 0.04 0 0.285 0.04 0 0.29 0.04 0 0.295 0.04 0 0.3 0.04 0 0.305 0.04 0 0.31 0.04 0 0.315 0.04 0 0.32 0.04 0 0.325 0.04 0 0.33 0.04 0 0.335 0.04 0 0.34 0.04 0 0.345 0.04 0 0.35 0.04 0 0.355 0.04 0 0.36 0.04 0 0.365 0.04 0 0.37 0.04 0 0.375 0.04 0 0.38 0.04 0 0.385 0.04 0 0.39 0.04 0 0.395 0.04 0 0.4 0.04 0 0.405 0.04 0 0.41 0.04 0 0.415 0.04 0 0.42 0.04 0 0.425 0.04 0 0.43 0.04 0 0.435 0.04 0 0.44 0.04 0 0.445 0.04 0 0.45 0.04 0 0.455 0.04 0 0.46 0.04 0 0.465 0.04 0 0.47 0.04 0 0.475 0.04 0 0.48 0.04 0 0.485 0.04 0 0.49 0.04 0 0.495 0.04 0 0.5 0.04 0 0.505 0.04 0 0.51 0.04 0 0.515 0.04 0 0.52 0.04 0 0.525 0.04 0 0.53 0.04 0 0.535 0.04 0 0.54 0.04 0 0.545 0.04 0 0.55 0.04 0 0.555 0.04 0 0.56 0.04 0 0.565 0.04 0 0.57 0.04 0 0.575 0.04 0 0.58 0.04 0 0.585 0.04 0 0.59 0.04 0 0.595 0.04 0 0.6 0.04 0 0.605 0.04 0 0.61 0.04 0 0.615 0.04 0 0.62 0.04 0 0.625 0.04 0 0.63 0.04 0 0.635 0.04 0 0.64 0.04 0 0.645 0.04 0 0.65 0.04 0 0.655 0.04 0 0.66 0.04 0 0.665 0.04 0 0.67 0.04 0 0.675 0.04 0 0.68 0.04 0 0.685 0.04 0 0.69 0.04 0 0.695 0.04 0 0.7 0.04 0 0.705 0.04 0 0.71 0.04 0 0.715 0.04 0 0.72 0.04 0 0.725 0.04 0 0.73 0.04 0 0.735 0.04 0 0.74 0.04 0 0.745 0.04 0 0.75 0.04 0 0.755 0.04 0 0.76 0.04 0 0.765 0.04 0 0.77 0.04 0 0.775 0.04 0 0.78 0.04 0 0.785 0.04 0 0.79 0.04 0 0.795 0.04 0 0.8 0.04 0 0.805 0.04 0 0.81 0.04 0 0.815 0.04 0 0.82 0.04 0 0.825 0.04 0 0.83 0.04 0 0.835 0.04 0 0.84 0.04 0 0.845 0.04 0 0.85 0.04 0 0.855 0.04 0 0.86 0.04 0 0.865 0.04 0 0.87 0.04 0 0.875 0.04 0 0.88 0.04 0 0.885 0.04 0 0.89 0.04 0 0.895 0.04 0 0.9 0.04 0 0.905 0.04 0 0.91 0.04 0 0.915 0.04 0 0.92 0.04 0 0.925 0.04 0 0.93 0.04 0 0.935 0.04 0 0.94 0.04 0 0.945 0.04 0 0.95 0.04 0 0.955 0.04 0 0.96 0.04 0 0.965 0.04 0 0.97 0.04 0 0.975 0.04 0 0.98 0.04 0 0.985 0.04 0 0.99 0.04 0 0.995 0.04 0 1 0.04 0 0 0.06 0 0.005 0.06 0 0.01 0.06 0 0.015 0.06 0 0.02 0.06 0 0.025 0.06 0 0.03 0.06 0 0.035 0.06 0 0.04 0.06 0 0.045 0.06 0 0.05 0.06 0 0.055 0.06 0 0.06 0.06 0 0.065 0.06 0 0.07 0.06 0 0.075 0.06 0 0.08 0.06 0 0.085 0.06 0 0.09 0.06 0 0.095 0.06 0 0.1 0.06 0 0.105 0.06 0 0.11 0.06 0 0.115 0.06 0 0.12 0.06 0 0.125 0.06 0 0.13 0.06 0 0.135 0.06 0 0.14 0.06 0 0.145 0.06 0 0.15 0.06 0 0.155 0.06 0 0.16 0.06 0 0.165 0.06 0 0.17 0.06 0 0.175 0.06 0 0.18 0.06 0 0.185 0.06 0 0.19 0.06 0 0.195 0.06 0 0.2 0.06 0 0.205 0.06 0 0.21 0.06 0 0.215 0.06 0 0.22 0.06 0 0.225 0.06 0 0.23 0.06 0 0.235 0.06 0 0.24 0.06 0 0.245 0.06 0 0.25 0.06 0 0.255 0.06 0 0.26 0.06 0 0.265 0.06 0 0.27 0.06 0 0.275 0.06 0 0.28 0.06 0 0.285 0.06 0 0.29 0.06 0 0.295 0.06 0 0.3 0.06 0 0.305 0.06 0 0.31 0.06 0 0.315 0.06 0 0.32 0.06 0 0.325 0.06 0 0.33 0.06 0 0.335 0.06 0 0.34 0.06 0 0.345 0.06 0 0.35 0.06 0 0.355 0.06 0 0.36 0.06 0 0.365 0.06 0 0.37 0.06 0 0.375 0.06 0 0.38 0.06 0 0.385 0.06 0 0.39 0.06 0 0.395 0.06 0 0.4 0.06 0 0.405 0.06 0 0.41 0.06 0 0.415 0.06 0 0.42 0.06 0 0.425 0.06 0 0.43 0.06 0 0.435 0.06 0 0.44 0.06 0 0.445 0.06 0 0.45 0.06 0 0.455 0.06 0 0.46 0.06 0 0.465 0.06 0 0.47 0.06 0 0.475 0.06 0 0.48 0.06 0 0.485 0.06 0 0.49 0.06 0 0.495 0.06 0 0.5 0.06 0 0.505 0.06 0 0.51 0.06 0 0.515 0.06 0 0.52 0.06 0 0.525 0.06 0 0.53 0.06 0 0.535 0.06 0 0.54 0.06 0 0.545 0.06 0 0.55 0.06 0 0.555 0.06 0 0.56 0.06 0 0.565 0.06 0 0.57 0.06 0 0.575 0.06 0 0.58 0.06 0 0.585 0.06 0 0.59 0.06 0 0.595 0.06 0 0.6 0.06 0 0.605 0.06 0 0.61 0.06 0 0.615 0.06 0 0.62 0.06 0 0.625 0.06 0 0.63 0.06 0 0.635 0.06 0 0.64 0.06 0 0.645 0.06 0 0.65 0.06 0 0.655 0.06 0 0.66 0.06 0 0.665 0.06 0 0.67 0.06 0 0.675 0.06 0 0.68 0.06 0 0.685 0.06 0 0.69 0.06 0 0.695 0.06 0 0.7 0.06 0 0.705 0.06 0 0.71 0.06 0 0.715 0.06 0 0.72 0.06 0 0.725 0.06 0 0.73 0.06 0 0.735 0.06 0 0.74 0.06 0 0.745 0.06 0 0.75 0.06 0 0.755 0.06 0 0.76 0.06 0 0.765 0.06 0 0.77 0.06 0 0.775 0.06 0 0.78 0.06 0 0.785 0.06 0 0.79 0.06 0 0.795 0.06 0 0.8 0.06 0 0.805 0.06 0 0.81 0.06 0 0.815 0.06 0 0.82 0.06 0 0.825 0.06 0 0.83 0.06 0 0.835 0.06 0 0.84 0.06 0 0.845 0.06 0 0.85 0.06 0 0.855 0.06 0 0.86 0.06 0 0.865 0.06 0 0.87 0.06 0 0.875 0.06 0 0.88 0.06 0 0.885 0.06 0 0.89 0.06 0 0.895 0.06 0 0.9 0.06 0 0.905 0.06 0 0.91 0.06 0 0.915 0.06 0 0.92 0.06 0 0.925 0.06 0 0.93 0.06 0 0.935 0.06 0 0.94 0.06 0 0.945 0.06 0 0.95 0.06 0 0.955 0.06 0 0.96 0.06 0 0.965 0.06 0 0.97 0.06 0 0.975 0.06 0 0.98 0.06 0 0.985 0.06 0 0.99 0.06 0 0.995 0.06 0 1 0.06 0 0 0.08 0 0.005 0.08 0 0.01 0.08 0 0.015 0.08 0 0.02 0.08 0 0.025 0.08 0 0.03 0.08 0 0.035 0.08 0 0.04 0.08 0 0.045 0.08 0 0.05 0.08 0 0.055 0.08 0 0.06 0.08 0 0.065 0.08 0 0.07 0.08 0 0.075 0.08 0 0.08 0.08 0 0.085 0.08 0 0.09 0.08 0 0.095 0.08 0 0.1 0.08 0 0.105 0.08 0 0.11 0.08 0 0.115 0.08 0 0.12 0.08 0 0.125 0.08 0 0.13 0.08 0 0.135 0.08 0 0.14 0.08 0 0.145 0.08 0 0.15 0.08 0 0.155 0.08 0 0.16 0.08 0 0.165 0.08 0
[...]
			<PointData Scalars="VitesseX">
				<DataArray Name="VitesseX" type="Float32" format="ascii">
 0 -3.92235e-15 3.38308e-14 -1.73109e-13 1.14447e-13 -2.06095e-14 -1.02171e-13 -1.33632e-13 8.75715e-14 -1.1218e-14 -1.86663e-13 2.79421e-13 -4.41997e-13 4.53348e-13 -4.60717e-13 -4.98459e-15 3.1701e-13 -4.881e-13 4.4798e-13 -2.74115e-13 -3.23269e-14 9.4225e-14 1.88663e-13 -1.01612e-13 -4.99714e-13 -2.72627e-13 3.77562e-13 1.51717e-13 -7.73139e-14 -2.78607e-13 1.22771e-13 -3.75034e-13 4.46561e-13 8.13541e-14 -6.01528e-13 8.31712e-14 -6.01649e-14 3.65289e-13 -4.78183e-13 1.79433e-13 -1.68015e-13 2.43493e-13 3.25123e-14 -8.12033e-13 -4.70376e-14 6.32073e-13 1.7602e-13 6.16686e-14 -5.54066e-13 -3.12467e-13 8.02951e-15 7.69705e-13 -1.14247e-13 -4.47117e-14 -1.42983e-12 2.12361e-13 1.08208e-12 -4.78999e-13 3.19119e-13 -6.9361e-13 3.11347e-13 4.83346e-13 -1.75923e-13 -1.07686e-13 6.73922e-14 5.15662e-13 -7.67747e-13 -8.54745e-13 6.28841e-13 5.07525e-13 -1.92297e-13 2.16494e-13 -1.78257e-12 1.46349e-12 3.04441e-13 1.50793e-13 -5.73802e-13 -3.27344e-13 7.97937e-13 -3.10458e-13 -1.75492e-15 -9.07787e-14 -5.49064e-13 -2.1331e-13 -7.76761e-13 1.64731e-12 2.33772e-12 6.48602e-11 1.94281e-09 4.84091e-08 9.93367e-07 1.64053e-05 0.000211433 0.00203752 0.013828 0.0615855 0.174114 0.340384 0.542426 0.65562 0.790053 0.843919 0.895433 0.941509 0.935079 0.890602 0.793395 0.653586 0.474096 0.290492 0.145239 0.0562742 0.0169454 0.00427948 0.000972836 0.000205309 4.06286e-05 7.56587e-06 1.32841e-06 2.20259e-07 3.45366e-08 5.12821e-09 7.22368e-10 9.67697e-11 1.25959e-11 1.37871e-12 -9.02177e-13 4.28276e-13 5.31685e-13 1.00257e-13 1.40937e-13 -1.10298e-12 2.58625e-13 3.95402e-13 -1.74799e-13 -3.97355e-13 -1.65229e-12 1.16034e-13 7.36317e-13 2.81758e-13 -1.09608e-13 -4.4405e-13 -1.07928e-12 1.36654e-13 1.51815e-12 1.77921e-13 -1.26979e-13 1.55106e-13 1.97936e-13 1.31474e-12 -1.38075e-12 3.27138e-14 6.76222e-14 -9.32405e-14 8.54593e-13 2.46079e-13 -1.27518e-12 -4.01268e-13 8.96065e-13 7.20035e-13 -3.80213e-13 -1.97378e-12 1.78918e-13 1.10188e-12 3.89303e-13 -8.70776e-13 -1.36168e-12 7.88606e-13 4.73791e-13 -3.96212e-13 9.60807e-13 4.99392e-13 -2.15844e-13 -6.2488e-13 -2.83009e-13 1.22828e-12 1.82951e-13 -4.31999e-13 -7.18977e-13 -3.33519e-13 1.16175e-12 5.11093e-13 -4.91698e-13 -9.20471e-13 -5.85051e-13 8.85943e-13 -7.6739e-13 -9.83794e-13 -1.43237e-12 -1.76922e-14 2.45266e-12 -9.45412e-13 -7.42009e-13 -1.60124e-12 2.3923e-12 4.74078e-13 -1.22566e-12 2.20278e-13 8.6427e-13 2.03194e-12 0 0 -1.69331e-14 -6.30005e-14 6.58615e-14 -1.48071e-13 -9.37732e-15 4.80756e-14 -5.50997e-14 -1.61926e-13 -7.49334e-14 3.1114e-14 -1.21728e-13 2.96516e-13 -5.0859e-13 2.88516e-13 -1.38998e-13 -3.24927e-13 3.41914e-13 -3.5904e-13 2.79171e-13 1.7769e-13 -7.46707e-14 -1.86085e-13 -2.92935e-14 1.60103e-13 -1.57702e-13 -6.45779e-13 2.83195e-13 2.80434e-13 4.37538e-14 -4.52125e-13 3.71551e-13 -4.31172e-13 -1.94115e-13 5.93547e-13 -7.28398e-14 -4.54032e-13 -1.85319e-13 1.36941e-13 6.58507e-14 3.84586e-13 -1.74207e-13 -5.34776e-13 2.70966e-13 -1.69485e-13 -1.23527e-13 -9.49877e-14 2.63812e-13 1.08632e-14 -7.22672e-14 2.8714e-14 -3.7644e-13 7.6521e-15 -5.14663e-13 3.01719e-13 -9.17851e-14 -2.99788e-13 3.90738e-13 -1.71569e-13 2.39674e-13 -2.93614e-13 4.53955e-14 4.06638e-13 1.5648e-13 1.77812e-13 -5.70932e-13 -1.07953e-13 1.693e-13 -2.0837e-13 -5.00255e-13 4.3922e-13 -4.07324e-13 5.7865e-13 -6.94104e-13 1.4269e-13 -3.11626e-14 3.44162e-13 6.731e-14 -6.74311e-13 5.77444e-13 -4.77438e-13 -3.03498e-13 2.72725e-13 -4.41982e-13 2.51368e-13 2.23634e-13 1.66501e-12 6.64083e-11 1.94364e-09 4.8408e-08 9.93366e-07 1.64053e-05 0.000211433 0.00203752 0.013828 0.0615855 0.174114 0.340384 0.542426 0.65562 0.790053 0.843919 0.895433 0.941509 0.935079 0.890602 0.793395 0.653586 0.474096 0.290492 0.145239 0.0562742 0.0169454 0.00427948 0.000972836 0.000205309 4.06286e-05 7.56587e-06 1.32841e-06 2.20258e-07 3.45373e-08 5.12843e-09 7.22162e-10 9.65355e-11 1.19682e-11 1.69294e-12 -4.19754e-14 1.65156e-13 2.12661e-13 -2.86542e-13 1.74635e-14 9.65576e-14 -6.84105e-14 -6.91156e-14 -4.24899e-13 -2.53166e-13 -4.68581e-13 -5.143e-13 3.13732e-13 4.14686e-13 -1.81989e-13 -1.45679e-13 -4.02263e-13 -1.20963e-13 -1.37347e-13 7.32669e-13 9.92854e-13 -3.60554e-13 2.3463e-13 -4.91143e-13 5.74433e-13 8.13829e-14 -4.09274e-13 5.50136e-13 -3.08356e-13 -1.48876e-14 1.62261e-13 -7.12194e-14 -8.51426e-14 -7.19736e-13 6.3321e-13 3.03966e-13 -5.70141e-13 -7.69233e-13 -5.0637e-13 5.40711e-13 8.90394e-14 7.24504e-14 9.12437e-14 -2.538e-13 2.73673e-13 2.33666e-13 1.00876e-13 6.61888e-13 -3.88166e-13 -1.16026e-13 -3.73615e-14 1.27185e-13 5.36249e-13 -3.79725e-13 -3.06771e-13 2.71704e-13 -1.56712e-13 6.4701e-13 -9.62961e-13 -5.38919e-13 -6.93969e-13 -9.09609e-13 2.98076e-13 6.62394e-14 -7.10013e-13 8.24542e-13 -3.37886e-13 -1.06698e-13 -1.10345e-12 3.92661e-14 1.76589e-12 1.06287e-13 1.20644e-12 -1.06276e-12 0 0 -1.34562e-14 -2.19554e-14 -4.80354e-14 -2.92332e-15 -1.31031e-13 -1.11742e-13 -2.04328e-14 -7.76009e-14 -1.76928e-14 -9.67939e-14 -1.23629e-13 -1.31526e-13 2.19336e-14 -1.98716e-13 -6.29852e-14 2.6842e-14 6.85663e-14 1.13829e-13 -1.20207e-13 1.13291e-13 2.29921e-14 1.3763e-13 -1.71846e-13 -2.63832e-13 -1.46677e-13 4.70695e-15 1.56796e-13 1.01088e-13 -1.72669e-13 -1.57993e-13 -6.65325e-14 1.40813e-13 -1.74701e-13 -5.74006e-14 1.73469e-13 -5.39528e-14 -4.76607e-13 1.67116e-13 4.28056e-14 -7.55532e-14 1.87065e-14 -2.07683e-13 -2.84381e-13 3.01053e-13 -2.1356e-13 4.1603e-13 -4.58282e-13 -5.8194e-14 -1.72899e-13 -5.92717e-14 -2.34311e-13 -2.01573e-13 1.99465e-13 2.56894e-13 -3.90835e-13 -3.53575e-13 -3.48747e-13 6.96867e-13 1.82056e-13 -3.10351e-13 1.2983e-13 3.26046e-13 5.34679e-13 -3.52033e-13 -2.44313e-13 -5.02163e-14 -1.51186e-13 1.60131e-13 -4.87183e-13 -7.52002e-13 6.85218e-13 4.47827e-13 -3.73605e-13 -9.52682e-13 3.66899e-13 4.22882e-13 -2.15525e-13 -5.73558e-13 -6.29405e-13 9.25295e-13 -4.07642e-13 5.08527e-14 8.34893e-13 -1.38405e-13 -1.08338e-12 2.10324e-12 6.65235e-11 1.94356e-09 4.84088e-08 9.93365e-07 1.64053e-05 0.000211433 0.00203752 0.013828 0.0615855 0.174114 0.340384 0.542426 0.65562 0.790053 0.843919 0.895433 0.941509 0.935079 0.890602 0.793395 0.653586 0.474096 0.290492 0.145239 0.0562742 0.0169454 0.00427948 0.000972836 0.000205309 4.06286e-05 7.56587e-06 1.32841e-06 2.20258e-07 3.45365e-08 5.12927e-09 7.22171e-10 9.60251e-11 1.22056e-11 4.43317e-13 1.6191e-12 7.96882e-14 -6.97072e-13 -6.90761e-14 -8.94035e-13 1.47065e-12 5.11884e-14 -6.84259e-13 -2.4359e-14 -1.25111e-12 1.03434e-12 -2.9802e-13 -9.98927e-13 3.55124e-13 -2.60806e-13 2.60089e-13 1.18644e-12 -1.1723e-12 -8.77023e-13 1.03134e-12 1.54456e-13 1.35136e-12 -7.90789e-13 -6.51488e-13 6.35313e-13 -4.40336e-13 1.21608e-12 -4.88594e-13 -3.6332e-13 -1.30655e-12 1.43192e-12 9.23193e-13 -5.48143e-13 -7.45257e-13 -3.90233e-13 1.03916e-12 -5.03826e-13 -8.77315e-13 -6.30143e-13 1.29456e-13 1.21947e-12 -9.88866e-13 -5.74346e-13 7.32294e-13 -3.76617e-13 8.66653e-13 8.12878e-13 -7.06362e-13 2.12179e-13 -8.64562e-13 9.42269e-13 1.05287e-12 -1.30432e-12 3.40813e-13 -7.11517e-13 4.58281e-13 8.16941e-13 -1.07341e-12 2.07013e-14 -1.10954e-12 -3.13632e-13 3.03026e-13 -1.18751e-12 7.91638e-13 -1.35627e-12 -1.76978e-13 1.99357e-12 -8.27521e-13 -1.94864e-12 5.85725e-13 1.39621e-12 1.68335e-12 -1.58109e-12 -1.02873e-13 0 0 -1.44709e-14 5.34089e-15 -9.58948e-14 -4.28523e-14 -3.97375e-14 -4.13295e-14 -5.78861e-14 -1.90806e-13 -1.62841e-13 -2.1935e-13 2.48957e-13 -2.07337e-13 8.72565e-14 -3.4865e-13 -8.90713e-14 1.74079e-13 -2.59929e-13 2.59253e-13 6.83018e-14 9.84021e-15 -6.19057e-14 -1.45805e-13 -3.30018e-14 -1.4706e-13 -1.65379e-13 1.5613e-13 -1.75584e-13 5.7324e-14 5.90031e-14 -1.88395e-13 -2.53363e-13 1.6044e-13 -5.11834e-14 -6.2492e-14 6.12933e-14 6.37453e-14 3.58099e-13 -5.81991e-13 -3.47513e-13 -5.13013e-14 1.42682e-13 4.98762e-14 -3.51751e-13 -1.01002e-13 4.90323e-13 -2.32083e-14 -4.4923e-14 -5.48593e-13 -5.98111e-13 -9.63115e-14 6.43751e-13 3.31152e-13 -5.69231e-13 -4.85657e-13 7.01722e-14 3.01514e-13 4.28794e-13 -2.26028e-13 -5.18812e-13 -2.98623e-13 3.99266e-13 4.5698e-13 3.367e-13 -1.53672e-13 -1.89188e-13 -6.70143e-13 -2.40436e-13 2.79767e-14 8.7048e-13 -8.19352e-14 -3.03491e-13 -3.89748e-13 8.50204e-14 8.40414e-14 -1.66358e-15 -8.03404e-13 3.98439e-13 -2.675e-13 -8.67817e-13 -1.42939e-13 5.22041e-13 2.48134e-13 -4.36243e-13 -8.38299e-14 4.51044e-13 1.59328e-12 6.51432e-11 1.94296e-09 4.84102e-08 9.93366e-07 1.64053e-05 0.000211433 0.00203752 0.013828 0.0615855 0.174114 0.340384 0.542426 0.65562 0.790053 0.843919 0.895433 0.941509 0.935079 0.890602 0.793395 0.653586 0.474096 0.290492 0.145239 0.0562742 0.0169454 0.00427948 0.000972836 0.000205309 4.06286e-05 7.56587e-06 1.32841e-06 2.20258e-07 3.45365e-08 5.12875e-09 7.22165e-10 9.66682e-11 1.17023e-11 1.1785e-12 5.13493e-13 7.4686e-14 3.94718e-13 -8.60426e-13 1.71564e-13 -9.63245e-14 2.76061e-13 2.75697e-13 -6.96627e-13 -2.79458e-13 -4.44531e-13 -3.81736e-13 -4.21299e-13 -6.91904e-13 3.47408e-13 1.13775e-12 -2.77764e-13 -1.23514e-13 -5.20352e-13 -1.07032e-13 5.53341e-13 7.65129e-13 -2.37454e-13 -4.2832e-13 -5.55218e-13 1.11017e-12 9.01945e-13 -2.59963e-13 -4.5815e-13 -4.90313e-13 -7.29032e-13 -2.32444e-13 1.36103e-12 5.52329e-13 -8.53376e-13 -1.15769e-12 -3.50207e-13 6.61619e-13 -5.96809e-13 -1.31027e-12 2.73306e-13 6.93827e-13 4.01339e-13 -1.32009e-12 5.18088e-13 1.72838e-12 9.519e-14 -5.75281e-13 -8.97757e-13 8.85374e-13 1.3032e-12 -1.7791e-13 -1.24968e-12 -6.13034e-13 4.60946e-13 1.31567e-12 -4.99776e-13 -1.40744e-12 -8.74537e-13 5.67429e-13 3.50966e-13 -1.2907e-12 -1.53136e-12 -2.09121e-13 3.23694e-12 5.72988e-13 -2.24619e-12 -1.85844e-12 9.93757e-14 1.21742e-12 2.55689e-13 -2.49515e-13 2.32875e-13 8.83456e-13 0 0 -1.14788e-14 -3.04535e-14 5.19366e-14 -2.0539e-13 -6.40022e-14 -1.50036e-15 -1.41791e-13 -1.94564e-13 -1.23419e-13 -1.40962e-14 -5.33958e-14 1.33156e-13 -4.98133e-13 2.61994e-13 -3.87464e-14 -4.19054e-14 2.48988e-13 -3.60101e-13 1.40219e-13 -8.46628e-14 -8.61413e-14 -4.59281e-13 -1.47319e-13 1.03535e-13 -6.41092e-14 -3.86051e-13 1.41947e-13 -4.01817e-14 6.94152e-14 -1.90833e-13 2.79859e-13 -3.5037e-13 -1.44976e-14 7.89789e-13 -1.12325e-13 4.35217e-14 3.11732e-13 -2.55384e-13 -4.91477e-13 7.24684e-14 -4.01427e-13 -4.69604e-13 2.35118e-13 -3.40285e-13 2.42787e-13 -1.322e-13 2.02862e-13 -3.63359e-13 -4.76191e-13 2.21381e-13 8.39874e-14 6.59509e-14 -8.99027e-13 1.81952e-13 2.67541e-13 -2.48235e-13 6.95011e-13 -5.67787e-13 6.97243e-14 -3.27196e-13 2.05795e-13 4.73544e-13 1.51106e-13 2.7437e-13 -7.29183e-13 -5.13645e-13 1.89401e-13 -2.71241e-13 4.27635e-13 8.61651e-13 -5.95001e-13 8.31049e-13 -8.10965e-13 5.59979e-13 -5.88218e-13 -7.6121e-13 1.33545e-13 -1.09951e-12 -6.80133e-14 -1.02093e-12 3.60603e-13 1.56577e-13 -1.28909e-12 4.57889e-13 5.62114e-13 1.28607e-12 6.5816e-11 1.94376e-09 4.84085e-08 9.93367e-07 1.64053e-05 0.000211433 0.00203752 0.013828 0.0615855 0.174114 0.340384 0.542426 0.65562 0.790053 0.843919 0.895433 0.941509 0.935079 0.890602 0.793395 0.653586 0.474096 0.290492 0.145239 0.0562742 0.0169454 0.00427948 0.000972836 0.000205309 4.06286e-05 7.56587e-06 1.32842e-06 2.20258e-07 3.45371e-08 5.12805e-09 7.21916e-10 9.67628e-11 1.19643e-11 2.2099e-12 -3.95853e-13 -2.72272e-13 3.39689e-13 -4.27151e-13 8.36375e-13 -7.63397e-13 -7.27173e-14 4.89879e-15 -4.96639e-13 3.05547e-13 -1.15438e-12 -1.05452e-12 -6.81735e-14 -2.17026e-13 5.51733e-13 7.03401e-13 -1.5014e-12 3.41127e-13 1.90616e-13 7.87996e-13 1.4241e-12 -4.27633e-13 7.29105e-13 -5.61552e-13 1.86802e-13 6.56292e-13 -8.26505e-13 2.73292e-13 -4.73743e-13 -1.43545e-14 -1.75778e-12 -1.49806e-12 7.82739e-13 1.15318e-12 1.20796e-12 -1.0598e-12 -1.79672e-12 -1.80556e-12 -8.99001e-13 2.50893e-13 1.91479e-13 2.13559e-12 3.42472e-13 -1.66053e-12 1.70999e-13 -1.6513e-13 2.41952e-13 1.53785e-12 1.82168e-13 1.7386e-14 -8.63349e-13 -7.49663e-13 1.75628e-12 -2.14267e-13 -2.32937e-13 -1.67025e-13 -7.63657e-13 8.95385e-13 -2.30889e-13 -3.04282e-13 -1.77107e-12 -2.30252e-12 7.80393e-13 6.01045e-13 2.35969e-12 7.79429e-13 -3.07324e-12 -1.21457e-12 -3.01589e-13 7.11919e-13 2.1984e-12 -5.87481e-13 1.87813e-12 -1.0115e-12 0 0 9.01562e-15 4.43322e-14 -1.0524e-13 7.96666e-14 -3.12446e-13 -3.42147e-13 -2.32109e-13 2.48705e-13 1.82107e-13 -3.19704e-14 -3.29085e-13 -6.17094e-13 3.43616e-13 -2.13892e-13 2.47691e-13 5.88579e-13 -1.69605e-14 1.5501e-13 -9.29038e-13 -3.50131e-13 2.41079e-13 2.0914e-13 -6.15351e-13 -8.46395e-13 -4.80382e-14 5.94173e-13 5.33983e-13 -6.31018e-13 -6.90627e-13 7.06158e-13 -1.84757e-13 5.68911e-13 1.93553e-13 -1.9886e-13 2.28551e-13 6.99547e-13 -3.10021e-13 2.35384e-13 -1.54587e-13 -8.40754e-13 -4.58898e-13 -3.52263e-13 -7.4899e-13 4.15472e-13 -4.30641e-14 9.8007e-13 -8.86949e-13 -3.21712e-13 -2.69891e-13 4.67444e-13 -6.55644e-14 -1.0631e-12 7.23951e-13 -1.8426e-13 8.99705e-15 -1.24993e-13 -1.42554e-12 1.37247e-12 3.68227e-13 2.20726e-13 2.65272e-13 -3.03979e-13 2.77525e-13 -1.36214e-13 8.89101e-14 -3.39278e-13 -6.36041e-13 7.67409e-13 -3.52021e-13 -6.87568e-13 1.81856e-12 3.97377e-13 3.12514e-13 -9.34429e-13 -2.26192e-13 -3.31976e-13 -1.4228e-12 -6.64571e-13 -1.12455e-12 1.04773e-12 -6.21943e-13 -1.17592e-12 6.3475e-13 -4.72869e-13 -7.44588e-13 2.59977e-12 6.64362e-11 1.94423e-09 4.84073e-08 9.93365e-07 1.64053e-05 0.000211433 0.00203752 0.013828 0.0615855 0.174114 0.340384 0.542426 0.65562 0.790053 0.843919 0.895433 0.941509 0.935079 0.890602 0.793395 0.653586 0.474096 0.290492 0.145239 0.0562742 0.0169454 0.00427948 0.000972836 0.000205309 4.06286e-05 7.56587e-06 1.32841e-06 2.2026e-07 3.45365e-08 5.12847e-09 7.21888e-10 9.59382e-11 1.35947e-11 9.42269e-13 6.01279e-13 -4.36577e-13 -1.39784e-12 1.40174e-12 -3.52438e-13 3.11054e-13 -1.99733e-13 -1.37648e-12 1.02626e-12 -1.22324e-12 -6.61465e-14 -7.96983e-13 -1.18275e-12 1.11239e-12 1.41407e-13 -5.01209e-13 -3.4915e-13 -1.03673e-12 1.46074e-12 2.56532e-12 -6.22498e-14 1.19341e-12 8.02177e-14 7.27589e-13 2.25053e-13 -1.91847e-12 -1.38566e-13 -1.10419e-12 7.13479e-13 -1.38532e-12 -7.93349e-13 -9.43678e-13 -1.18651e-12 1.87071e-12 1.69557e-12 -3.07616e-13 -2.58149e-12 -4.04865e-12 -4.62627e-13 1.42905e-12 7.35534e-13 1.54951e-12 -9.75122e-13 8.95104e-13 -1.03395e-12 -2.02166e-12 1.50168e-12 8.64875e-13 3.07753e-12 -2.00476e-12 -2.19089e-12 2.75868e-13 1.61179e-12 1.90509e-12 -1.03551e-12 -2.08115e-12 9.27847e-13 2.44351e-13 2.66957e-12 -1.99872e-12 -4.25078e-12 -5.82154e-13 2.19963e-13 3.05344e-12 -5.9438e-13 -2.53557e-12 2.26678e-12 -1.75515e-12 -1.00012e-13 5.55991e-13 1.92041e-12 2.69848e-12 -1.42026e-12 1.61787e-13 0
				</DataArray>
				<DataArray Name="VitesseY" type="Float32" format="ascii">