<?xml version="1.0"?>
<VTKFile type="PolyData">
	<PolyData>
		<Piece NumberOfPoints="1206" NumberOfPolys="1000">
			<Points>
				<DataArray type="Float32" NumberOfComponents="3" format="ascii">
 0 0 0 0.005 0 0 0.01 0 0 0.015 0 0 0.02 0 0 0.025 0 0 0.03 0 0 0.035 0 0 0.04 0 0 0.045 0 0 0.05 0 0 0.055 0 0 0.06 0 0 0.065 0 0 0.07 0 0 0.075 0 0 0.08 0 0 0.085 0 0 0.09 0 0 0.095 0 0 0.1 0 0 0.105 0 0 0.11 0 0 0.115 0 0 0.12 0 0 0.125 0 0 0.13 0 0 0.135 0 0 0.14 0 0 0.145 0 0 0.15 0 0 0.155 0 0 0.16 0 0 0.165 0 0 0.17 0 0 0.175 0 0 0.18 0 0 0.185 0 0 0.19 0 0 0.195 0 0 0.2 0 0 0.205 0 0 0.21 0 0 0.215 0 0 0.22 0 0 0.225 0 0 0.23 0 0 0.235 0 0 0.24 0 0 0.245 0 0 0.25 0 0 0.255 0 0 0.26 0 0 0.265 0 0 0.27 0 0 0.275 0 0 0.28 0 0 0.285 0 0 0.29 0 0 0.295 0 0 0.3 0 0 0.305 0 0 0.31 0 0 0.315 0 0 0.32 0 0 0.325 0 0 0.33 0 0 0.335 0 0 0.34 0 0 0.345 0 0 0.35 0 0 0.355 0 0 0.36 0 0 0.365 0 0 0.37 0 0 0.375 0 0 0.38 0 0 0.385 0 0 0.39 0 0 0.395 0 0 0.4 0 0 0.405 0 0 0.41 0 0 0.415 0 0 0.42 0 0 0.425 0 0 0.43 0 0 0.435 0 0 0.44 0 0 0.445 0 0 0.45 0 0 0.455 0 0 0.46 0 0 0.465 0 0 0.47 0 0 0.475 0 0 0.48 0 0 0.485 0 0 0.49 0 0 0.495 0 0 0.5 0 0 0.505 0 0 0.51 0 0 0.515 0 0 0.52 0 0 0.525 0 0 0.53 0 0 0.535 0 0 0.54 0 0 0.545 0 0 0.55 0 0 0.555 0 0 0.56 0 0 0.565 0 0 0.57 0 0 0.575 0 0 0.58 0 0 0.585 0 0 0.59 0 0 0.595 0 0 0.6 0 0 0.605 0 0 0.61 0 0 0.615 0 0 0.62 0 0 0.625 0 0 0.63 0 0 0.635 0 0 0.64 0 0 0.645 0 0 0.65 0 0 0.655 0 0 0.66 0 0 0.665 0 0 0.67 0 0 0.675 0 0 0.68 0 0 0.685 0 0 0.69 0 0 0.695 0 0 0.7 0 0 0.705 0 0 0.71 0 0 0.715 0 0 0.72 0 0 0.725 0 0 0.73 0 0 0.735 0 0 0.74 0 0 0.745 0 0 0.75 0 0 0.755 0 0 0.76 0 0 0.765 0 0 0.77 0 0 0.775 0 0 0.78 0 0 0.785 0 0 0.79 0 0 0.795 0 0 0.8 0 0 0.805 0 0 0.81 0 0 0.815 0 0 0.82 0 0 0.825 0 0 0.83 0 0 0.835 0 0 0.84 0 0 0.845 0 0 0.85 0 0 0.855 0 0 0.86 0 0 0.865 0 0 0.87 0 0 0.875 0 0 0.88 0 0 0.885 0 0 0.89 0 0 0.895 0 0 0.9 0 0 0.905 0 0 0.91 0 0 0.915 0 0 0.92 0 0 0.925 0 0 0.93 0 0 0.935 0 0 0.94 0 0 0.945 0 0 0.95 0 0 0.955 0 0 0.96 0 0 0.965 0 0 0.97 0 0 0.975 0 0 0.98 0 0 0.985 0 0 0.99 0 0 0.995 0 0 1 0 0 0 0.02 0 0.005 0.02 0 0.01 0.02 0 0.015 0.02 0 0.02 0.02 0 0.025 0.02 0 0.03 0.02 0 0.035 0.02 0 0.04 0.02 0 0.045 0.02 0 0.05 0.02 0 0.055 0.02 0 0.06 0.02 0 0.065 0.02 0 0.07 0.02 0 0.075 0.02 0 0.08 0.02 0 0.085 0.02 0 0.09 0.02 0 0.095 0.02 0 0.1 0.02 0 0.105 0.02 0 0.11 0.02 0 0.115 0.02 0 0.12 0.02 0 0.125 0.02 0 0.13 0.02 0 0.135 0.02 0 0.14 0.02 0 0.145 0.02 0 0.15 0.02 0 0.155 0.02 0 0.16 0.02 0 0.165 0.02 0 0.17 0.02 0 0.175 0.02 0 0.18 0.02 0 0.185 0.02 0 0.19 0.02 0 0.195 0.02 0 0.2 0.02 0 0.205 0.02 0 0.21 0.02 0 0.215 0.02 0 0.22 0.02 0 0.225 0.02 0 0.23 0.02 0 0.235 0.02 0 0.24 0.02 0 0.245 0.02 0 0.25 0.02 0 0.255 0.02 0 0.26 0.02 0 0.265 0.02 0 0.27 0.02 0 0.275 0.02 0 0.28 0.02 0 0.285 0.02 0 0.29 0.02 0 0.295 0.02 0 0.3 0.02 0 0.305 0.02 0 0.31 0.02 0 0.315 0.02 0 0.32 0.02 0 0.325 0.02 0 0.33 0.02 0 0.335 0.02 0 0.34 0.02 0 0.345 0.02 0 0.35 0.02 0 0.355 0.02 0 0.36 0.02 0 0.365 0.02 0 0.37 0.02 0 0.375 0.02 0 0.38 0.02 0 0.385 0.02 0 0.39 0.02 0 0.395 0.02 0 0.4 0.02 0 0.405 0.02 0 0.41 0.02 0 0.415 0.02 0 0.42 0.02 0 0.425 0.02 0 0.43 0.02 0 0.435 0.02 0 0.44 0.02 0 0.445 0.02 0 0.45 0.02 0 0.455 0.02 0 0.46 0.02 0 0.465 0.02 0 0.47 0.02 0 0.475 0.02 0 0.48 0.02 0 0.485 0.02 0 0.49 0.02 0 0.495 0.02 0 0.5 0.02 0 0.505 0.02 0 0.51 0.02 0 0.515 0.02 0 0.52 0.02 0 0.525 0.02 0 0.53 0.02 0 0.535 0.02 0 0.54 0.02 0 0.545 0.02 0 0.55 0.02 0 0.555 0.02 0 0.56 0.02 0 0.565 0.02 0 0.57 0.02 0 0.575 0.02 0 0.58 0.02 0 0.585 0.02 0 0.59 0.02 0 0.595 0.02 0 0.6 0.02 0 0.605 0.02 0 0.61 0.02 0 0.615 0.02 0 0.62 0.02 0 0.625 0.02 0 0.63 0.02 0 0.635 0.02 0 0.64 0.02 0 0.645 0.02 0 0.65 0.02 0 0.655 0.02 0 0.66 0.02 0 0.665 0.02 0 0.67 0.02 0 0.675 0.02 0 0.68 0.02 0 0.685 0.02 0 0.69 0.02 0 0.695 0.02 0 0.7 0.02 0 0.705 0.02 0 0.71 0.02 0 0.715 0.02 0 0.72 0.02 0 0.725 0.02 0 0.73 0.02 0 0.735 0.02 0 0.74 0.02 0 0.745 0.02 0 0.75 0.02 0 0.755 0.02 0 0.76 0.02 0 0.765 0.02 0 0.77 0.02 0 0.775 0.02 0 0.78 0.02 0 0.785 0.02 0 0.79 0.02 0 0.795 0.02 0 0.8 0.02 0 0.805 0.02 0 0.81 0.02 0 0.815 0.02 0 0.82 0.02 0 0.825 0.02 0 0.83 0.02 0 0.835 0.02 0 0.84 0.02 0 0.845 0.02 0 0.85 0.02 0 0.855 0.02 0 0.86 0.02 0 0.865 0.02 0 0.87 0.02 0 0.875 0.02 0 0.88 0.02 0 0.885 0.02 0 0.89 0.02 0 0.895 0.02 0 0.9 0.02 0 0.905 0.02 0 0.91 0.02 0 0.915 0.02 0 0.92 0.02 0 0.925 0.02 0 0.93 0.02 0 0.935 0.02 0 0.94 0.02 0 0.945 0.02 0 0.95 0.02 0 0.955 0.02 0 0.96 0.02 0 0.965 0.02 0 0.97 0.02 0 0.975 0.02 0 0.98 0.02 0 0.985 0.02 0 0.99 0.02 0 0.995 0.02 0 1 0.02 0 0 0.04 0 0.005 0.04 0 0.01 0.04 0 0.015 0.04 0 0.02 0.04 0 0.025 0.04 0 0.03 0.04 0 0.035 0.04 0 0.04 0.04 0 0.045 0.04 0 0.05 0.04 0 0.055 0.04 0 0.06 0.04 0 0.065 0.04 0 0.07 0.04 0 0.075 0.04 0 0.08 0.04 0 0.085 0.04 0 0.09 0.04 0 0.095 0.04 0 0.1 0.04 0 0.105 0.04 0 0.11 0.04 0 0.115 0.04 0 0.12 0.04 0 0.125 0.04 0 0.13 0.04 0 0.135 0.04 0 0.14 0.04 0 0.145 0.04 0 0.15 0.04 0 0.155 0.04 0 0.16 0.04 0 0.165 0.04 0 0.17 0.04 0 0.175 0.04 0 0.18 0.04 0 0.185 0.04 0 0.19 0.04 0 0.195 0.04 0 0.2 0.04 0 0.205 0.04 0 0.21 0.04 0 0.215 0.04 0 0.22 0.04 0 0.225 0.04 0 0.23 0.04 0 0.235 0.04 0 0.24 0.04 0 0.245 0.04 0 0.25 0.04 0 0.255 0.04 0 0.26 0.04 0 0.265 0.04 0 0.27 0.04 0 0.275 0.04 0 0.28 0.04 0 0.285 0.04 0 0.29 0.04 0 0.295 0.04 0 0.3 0.04 0 0.305 0.04 0 0.31 0.04 0 0.315 0.04 0 0.32 0.04 0 0.325 0.04 0 0.33 0.04 0 0.335 0.04 0 0.34 0.04 0 0.345 0.04 0 0.35 0.04 0 0.355 0.04 0 0.36 0.04 0 0.365 0.04 0 0.37 0.04 0 0.375 0.04 0 0.38 0.04 0 0.385 0.04 0 0.39 0.04 0 0.395 0.04 0 0.4 0.04 0 0.405 0.04 0 0.41 0.04 0 0.415 0.04 0 0.42 0.04 0 0.425 0.04 0 0.43 0.04 0 0.435 0.04 0 0.44 0.04 0 0.445 0.04 0 0.45 0.04 0 0.455 0.04 0 0.46 0.04 0 0.465 0.04 0 0.47 0.04 0 0.475 0.04 0 0.48 0.04 0 0.485 0.04 0 0.49 0.04 0 0.495 0.04 0 0.5 0.04 0 0.505 0.04 0 0.51 0.04 0 0.515 0.04 0 0.52 0.04 0 0.525 0.04 0 0.53 0.04 0 0.535 0.04 0 0.54 0.04 0 0.545 0.04 0 0.55 0.04 0 0.555 0.04 0 0.56 0.04 0 0.565 0.04 0 0.57 0.04 0 0.575 0.04 0 0.58 0.04 0 0.585 0.04 0 0.59 0.04 0 0.595 0.04 0 0.6 0.04 0 0.605 0.04 0 0.61 0.04 0 0.615 0.04 0 0.62 0.04 0 0.625 0.04 0 0.63 0.04 0 0.635 0.04 0 0.64 0.04 0 0.645 0.04 0 0.65 0.04 0 0.655 0.04 0 0.66 0.04 0 0.665 0.04 0 0.67 0.04 0 0.675 0.04 0 0.68 0.04 0 0.685 0.04 0 0.69 0.04 0 0.695 0.04 0 0.7 0.04 0 0.705 0.04 0 0.71 0.04 0 0.715 0.04 0 0.72 0.04 0 0.725 0.04 0 0.73 0.04 0 0.735 0.04 0 0.74 0.04 0 0.745 0.04 0 0.75 0.04 0 0.755 0.04 0 0.76 0.04 0 0.765 0.04 0 0.77 0.04 0 0.775 0.04 0 0.78 0.04 0 0.785 0.04 0 0.79 0.04 0 0.795 0.04 0 0.8 0.04 0 0.805 0.04 0 0.81 0.04 0 0.815 0.04 0 0.82 0.04 0 0.825 0.04 0 0.83 0.04 0 0.835 0.04 0 0.84 0.04 0 0.845 0.04 0 0.85 0.04 0 0.855 0.04 0 0.86 0.04 0 0.865 0.04 0 0.87 0.04 0 0.875 0.04 0 0.88 0.04 0 0.885 0.04 0 0.89 0.04 0 0.895 0.04 0 0.9 0.04 0 0.905 0.04 0 0.91 0.04 0 0.915 0.04 0 0.92 0.04 0 0.925 0.04 0 0.93 0.04 0 0.935 0.04 0 0.94 0.04 0 0.945 0.04 0 0.95 0.04 0 0.955 0.04 0 0.96 0.04 0 0.965 0.04 0 0.97 0.04 0 0.975 0.04 0 0.98 0.04 0 0.985 0.04 0 0.99 0.04 0 0.995 0.04 0 1 0.04 0 0 0.06 0 0.005 0.06 0 0.01 0.06 0 0.015 0.06 0 0.02 0.06 0 0.025 0.06 0 0.03 0.06 0 0.035 0.06 0 0.04 0.06 0 0.045 0.06 0 0.05 0.06 0 0.055 0.06 0 0.06 0.06 0 0.065 0.06 0 0.07 0.06 0 0.075 0.06 0 0.08 0.06 0 0.085 0.06 0 0.09 0.06 0 0.095 0.06 0 0.1 0.06 0 0.105 0.06 0 0.11 0.06 0 0.115 0.06 0 0.12 0.06 0 0.125 0.06 0 0.13 0.06 0 0.135 0.06 0 0.14 0.06 0 0.145 0.06 0 0.15 0.06 0 0.155 0.06 0 0.16 0.06 0 0.165 0.06 0 0.17 0.06 0 0.175 0.06 0 0.18 0.06 0 0.185 0.06 0 0.19 0.06 0 0.195 0.06 0 0.2 0.06 0 0.205 0.06 0 0.21 0.06 0 0.215 0.06 0 0.22 0.06 0 0.225 0.06 0 0.23 0.06 0 0.235 0.06 0 0.24 0.06 0 0.245 0.06 0 0.25 0.06 0 0.255 0.06 0 0.26 0.06 0 0.265 0.06 0 0.27 0.06 0 0.275 0.06 0 0.28 0.06 0 0.285 0.06 0 0.29 0.06 0 0.295 0.06 0 0.3 0.06 0 0.305 0.06 0 0.31 0.06 0 0.315 0.06 0 0.32 0.06 0 0.325 0.06 0 0.33 0.06 0 0.335 0.06 0 0.34 0.06 0 0.345 0.06 0 0.35 0.06 0 0.355 0.06 0 0.36 0.06 0 0.365 0.06 0 0.37 0.06 0 0.375 0.06 0 0.38 0.06 0 0.385 0.06 0 0.39 0.06 0 0.395 0.06 0 0.4 0.06 0 0.405 0.06 0 0.41 0.06 0 0.415 0.06 0 0.42 0.06 0 0.425 0.06 0 0.43 0.06 0 0.435 0.06 0 0.44 0.06 0 0.445 0.06 0 0.45 0.06 0 0.455 0.06 0 0.46 0.06 0 0.465 0.06 0 0.47 0.06 0 0.475 0.06 0 0.48 0.06 0 0.485 0.06 0 0.49 0.06 0 0.495 0.06 0 0.5 0.06 0 0.505 0.06 0 0.51 0.06 0 0.515 0.06 0 0.52 0.06 0 0.525 0.06 0 0.53 0.06 0 0.535 0.06 0 0.54 0.06 0 0.545 0.06 0 0.55 0.06 0 0.555 0.06 0 0.56 0.06 0 0.565 0.06 0 0.57 0.06 0 0.575 0.06 0 0.58 0.06 0 0.585 0.06 0 0.59 0.06 0 0.595 0.06 0 0.6 0.06 0 0.605 0.06 0 0.61 0.06 0 0.615 0.06 0 0.62 0.06 0 0.625 0.06 0 0.63 0.06 0 0.635 0.06 0 0.64 0.06 0 0.645 0.06 0 0.65 0.06 0 0.655 0.06 0 0.66 0.06 0 0.665 0.06 0 0.67 0.06 0 0.675 0.06 0 0.68 0.06 0 0.685 0.06 0 0.69 0.06 0 0.695 0.06 0 0.7 0.06 0 0.705 0.06 0 0.71 0.06 0 0.715 0.06 0 0.72 0.06 0 0.725 0.06 0 0.73 0.06 0 0.735 0.06 0 0.74 0.06 0 0.745 0.06 0 0.75 0.06 0 0.755 0.06 0 0.76 0.06 0 0.765 0.06 0 0.77 0.06 0 0.775 0.06 0 0.78 0.06 0 0.785 0.06 0 0.79 0.06 0 0.795 0.06 0 0.8 0.06 0 0.805 0.06 0 0.81 0.06 0 0.815 0.06 0 0.82 0.06 0 0.825 0.06 0 0.83 0.06 0 0.835 0.06 0 0.84 0.06 0 0.845 0.06 0 0.85 0.06 0 0.855 0.06 0 0.86 0.06 0 0.865 0.06 0 0.87 0.06 0 0.875 0.06 0 0.88 0.06 0 0.885 0.06 0 0.89 0.06 0 0.895 0.06 0 0.9 0.06 0 0.905 0.06 0 0.91 0.06 0 0.915 0.06 0 0.92 0.06 0 0.925 0.06 0 0.93 0.06 0 0.935 0.06 0 0.94 0.06 0 0.945 0.06 0 0.95 0.06 0 0.955 0.06 0 0.96 0.06 0 0.965 0.06 0 0.97 0.06 0 0.975 0.06 0 0.98 0.06 0 0.985 0.06 0 0.99 0.06 0 0.995 0.06 0 1 0.06 0 0 0.08 0 0.005 0.08 0 0.01 0.08 0 0.015 0.08 0 0.02 0.08 0 0.025 0.08 0 0.03 0.08 0 0.035 0.08 0 0.04 0.08 0 0.045 0.08 0 0.05 0.08 0 0.055 0.08 0 0.06 0.08 0 0.065 0.08 0 0.07 0.08 0 0.075 0.08 0 0.08 0.08 0 0.085 0.08 0 0.09 0.08 0 0.095 0.08 0 0.1 0.08 0 0.105 0.08 0 0.11 0.08 0 0.115 0.08 0 0.12 0.08 0 0.125 0.08 0 0.13 0.08 0 0.135 0.08 0 0.14 0.08 0 0.145 0.08 0 0.15 0.08 0 0.155 0.08 0 0.16 0.08 0 0.165 0.08 0
[...]
			<PointData Scalars="VitesseX">
				<DataArray Name="VitesseX" type="Float32" format="ascii">
 0 -1.22048e-15 1.39761e-14 -3.58507e-14 1.55979e-14 2.58961e-14 -3.80327e-14 -4.47138e-15 -1.61452e-14 1.29569e-14 1.35942e-15 -6.03256e-14 1.92902e-14 -9.003e-14 -3.21545e-14 -1.03456e-13 2.91817e-14 -2.1252e-13 -6.07487e-14 -7.29544e-14 -3.16854e-14 -9.0308e-14 -1.51121e-13 5.20146e-15 -2.59135e-13 -3.21582e-14 -3.07298e-13 -5.93539e-14 -1.68781e-13 -3.01966e-13 -1.26219e-14 -3.0858e-13 -5.27777e-14 -1.83539e-13 -3.01596e-13 -6.33243e-14 1.25787e-13 -8.66228e-15 4.74995e-13 3.21665e-12 1.97466e-11 1.13088e-10 6.18033e-10 3.1951e-09 1.56635e-08 7.26612e-08 3.18109e-07 1.31059e-06 5.06465e-06 1.82888e-05 6.14404e-05 0.00019103 0.000546373 0.00142765 0.00338339 0.00722592 0.013858 0.0239055 0.0373983 0.0537971 0.0723239 0.0922766 0.11315 0.13462 0.156494 0.178652 0.201011 0.223522 0.246152 0.268882 0.291701 0.3146 0.337579 0.360641 0.383793 0.407048 0.430424 0.45374 0.476582 0.499456 0.521841 0.544248 0.566368 0.588436 0.61035 0.632051 0.653727 0.67508 0.696423 0.71752 0.738359 0.75919 0.779512 0.799548 0.819533 0.838419 0.857214 0.874835 0.890148 0.904353 0.914791 0.922121 0.927696 0.929956 0.930988 0.931569 0.931571 0.93145 0.931247 0.930999 0.930718 0.930406 0.930069 0.929739 0.929443 0.929193 0.928982 0.928805 0.928659 0.928536 0.928432 0.928347 0.928277 0.928216 0.928159 0.928098 0.928024 0.927914 0.927731 0.927418 0.926917 0.92641 0.927 0.9307 0.929915 0.927338 0.927107 0.927256 0.927445 0.927542 0.927604 0.927657 0.927626 0.927547 0.927527 0.927612 0.927617 0.927606 0.927592 0.927576 0.927552 0.927501 0.927393 0.927193 0.926806 0.92603 0.924469 0.921361 0.915257 0.903529 0.881775 0.843528 0.781161 0.688881 0.567425 0.428603 0.291852 0.176448 0.0933903 0.043457 0.0183183 0.00728384 0.00281584 0.00107522 0.000408309 0.000154606 5.84248e-05 2.20391e-05 8.29817e-06 3.11804e-06 1.16892e-06 4.37087e-07 1.62969e-07 6.057e-08 2.24328e-08 8.27608e-09 3.04074e-09 1.11222e-09 4.04258e-10 1.46154e-10 5.20474e-11 1.87463e-11 6.15686e-12 2.12743e-12 1.18027e-12 2.91732e-13 6.34562e-13 -6.89775e-13 5.81706e-13 -2.36827e-13 0 0 8.47016e-15 -1.98135e-14 1.66545e-14 -2.84807e-14 -5.82841e-14 3.52825e-14 -5.58738e-14 -5.08126e-15 -1.69758e-14 -1.5646e-14 2.07578e-14 -5.54564e-14 1.08404e-14 -1.00423e-13 8.29713e-15 -1.75028e-13 2.4164e-14 -8.22365e-14 -7.06994e-14 -1.06588e-13 -7.34178e-14 -3.04655e-14 -2.17514e-13 3.37031e-14 -2.52496e-13 -8.43975e-15 -2.59752e-13 -1.88189e-13 -1.23496e-13 -3.50381e-13 -6.02928e-14 -3.23587e-13 -1.80734e-13 -3.95541e-14 -3.18309e-14 -5.57369e-14 -6.90225e-14 5.39163e-13 3.24893e-12 1.95981e-11 1.13303e-10 6.18034e-10 3.19484e-09 1.56639e-08 7.26613e-08 3.18109e-07 1.31059e-06 5.06465e-06 1.82888e-05 6.14404e-05 0.00019103 0.000546373 0.00142765 0.00338339 0.00722592 0.013858 0.0239055 0.0373983 0.0537971 0.0723239 0.0922766 0.11315 0.13462 0.156494 0.178652 0.201011 0.223522 0.246152 0.268882 0.291701 0.3146 0.337579 0.360641 0.383793 0.407048 0.430424 0.45374 0.476582 0.499456 0.521841 0.544248 0.566368 0.588436 0.61035 0.632051 0.653727 0.67508 0.696423 0.71752 0.738359 0.75919 0.779512 0.799548 0.819533 0.838419 0.857214 0.874835 0.890148 0.904353 0.914791 0.922121 0.927696 0.929956 0.930988 0.931569 0.931571 0.93145 0.931247 0.930999 0.930718 0.930406 0.930069 0.929739 0.929443 0.929193 0.928982 0.928805 0.928659 0.928536 0.928432 0.928347 0.928277 0.928216 0.928159 0.928098 0.928024 0.927914 0.927731 0.927418 0.926917 0.92641 0.927 0.9307 0.929915 0.927338 0.927107 0.927256 0.927445 0.927542 0.927604 0.927657 0.927626 0.927547 0.927527 0.927612 0.927617 0.927606 0.927592 0.927576 0.927552 0.927501 0.927393 0.927193 0.926806 0.92603 0.924469 0.921361 0.915257 0.903529 0.881775 0.843528 0.781161 0.688881 0.567425 0.428603 0.291852 0.176448 0.0933903 0.043457 0.0183183 0.00728384 0.00281584 0.00107522 0.000408309 0.000154606 5.84248e-05 2.20391e-05 8.29817e-06 3.11804e-06 1.16892e-06 4.37087e-07 1.62969e-07 6.057e-08 2.24327e-08 8.2765e-09 3.04052e-09 1.11177e-09 4.04572e-10 1.46105e-10 5.24564e-11 1.85494e-11 6.61225e-12 2.30101e-12 4.83222e-13 2.32599e-13 2.71972e-13 5.39661e-13 -6.78075e-13 4.57567e-14 0 0 -9.8107e-15 -3.78738e-15 -3.16046e-14 -2.26913e-14 -3.82905e-14 -4.54272e-14 -2.82763e-14 -2.69601e-14 -4.25961e-14 -3.06967e-14 -7.57284e-14 4.29292e-14 -4.41868e-14 -2.19638e-14 -1.5443e-14 3.73724e-14 -1.5146e-13 -2.71997e-14 -3.27731e-14 -2.21761e-14 -2.96595e-14 -1.41047e-13 -2.41746e-14 -2.21882e-13 -8.48982e-14 -1.8183e-13 2.0318e-14 -2.75578e-13 -2.87477e-13 -1.68909e-13 -2.58427e-13 -5.78163e-14 -1.8713e-13 -1.80071e-13 -9.7918e-14 6.65379e-14 1.76796e-14 2.21415e-13 3.30175e-12 1.97836e-11 1.1344e-10 6.17856e-10 3.19495e-09 1.56639e-08 7.26614e-08 3.18109e-07 1.31059e-06 5.06465e-06 1.82888e-05 6.14404e-05 0.00019103 0.000546373 0.00142765 0.00338339 0.00722592 0.013858 0.0239055 0.0373983 0.0537971 0.0723239 0.0922766 0.11315 0.13462 0.156494 0.178652 0.201011 0.223522 0.246152 0.268882 0.291701 0.3146 0.337579 0.360641 0.383793 0.407048 0.430424 0.45374 0.476582 0.499456 0.521841 0.544248 0.566368 0.588436 0.61035 0.632051 0.653727 0.67508 0.696423 0.71752 0.738359 0.75919 0.779512 0.799548 0.819533 0.838419 0.857214 0.874835 0.890148 0.904353 0.914791 0.922121 0.927696 0.929956 0.930988 0.931569 0.931571 0.93145 0.931247 0.930999 0.930718 0.930406 0.930069 0.929739 0.929443 0.929193 0.928982 0.928805 0.928659 0.928536 0.928432 0.928347 0.928277 0.928216 0.928159 0.928098 0.928024 0.927914 0.927731 0.927418 0.926917 0.92641 0.927 0.9307 0.929915 0.927338 0.927107 0.927256 0.927445 0.927542 0.927604 0.927657 0.927626 0.927547 0.927527 0.927612 0.927617 0.927606 0.927592 0.927576 0.927552 0.927501 0.927393 0.927193 0.926806 0.92603 0.924469 0.921361 0.915257 0.903529 0.881775 0.843528 0.781161 0.688881 0.567425 0.428603 0.291852 0.176448 0.0933903 0.043457 0.0183183 0.00728384 0.00281584 0.00107522 0.000408309 0.000154606 5.84248e-05 2.20391e-05 8.29817e-06 3.11804e-06 1.16892e-06 4.37087e-07 1.62969e-07 6.05699e-08 2.24329e-08 8.27635e-09 3.04063e-09 1.11187e-09 4.04364e-10 1.46373e-10 5.22573e-11 1.8387e-11 6.64164e-12 2.39684e-12 4.61798e-13 3.41556e-13 1.96673e-13 -5.95305e-13 2.75844e-13 4.43861e-14 0 0 -1.34256e-14 -2.60233e-14 -2.77321e-14 -3.69215e-14 -2.08488e-14 -5.54467e-14 -1.64259e-14 -2.78442e-14 -4.59535e-14 -4.78512e-14 -2.81425e-15 2.20743e-14 -9.59884e-14 -2.56628e-14 -8.11726e-16 -3.09062e-14 -9.11983e-14 -8.9849e-15 -6.63695e-14 -1.01349e-13 4.98762e-14 -9.26254e-14 -1.60805e-13 -9.66503e-14 -1.01471e-13 -1.88949e-13 -2.15913e-13 -1.80745e-13 -6.22618e-14 -3.12301e-14 -3.07395e-13 -1.83171e-13 3.667e-14 -1.46316e-13 -2.05481e-13 1.18216e-14 -1.73828e-13 3.27348e-13 3.28027e-12 2.00377e-11 1.1363e-10 6.18148e-10 3.19513e-09 1.56635e-08 7.26614e-08 3.18109e-07 1.31059e-06 5.06465e-06 1.82888e-05 6.14404e-05 0.00019103 0.000546373 0.00142765 0.00338339 0.00722592 0.013858 0.0239055 0.0373983 0.0537971 0.0723239 0.0922766 0.11315 0.13462 0.156494 0.178652 0.201011 0.223522 0.246152 0.268882 0.291701 0.3146 0.337579 0.360641 0.383793 0.407048 0.430424 0.45374 0.476582 0.499456 0.521841 0.544248 0.566368 0.588436 0.61035 0.632051 0.653727 0.67508 0.696423 0.71752 0.738359 0.75919 0.779512 0.799548 0.819533 0.838419 0.857214 0.874835 0.890148 0.904353 0.914791 0.922121 0.927696 0.929956 0.930988 0.931569 0.931571 0.93145 0.931247 0.930999 0.930718 0.930406 0.930069 0.929739 0.929443 0.929193 0.928982 0.928805 0.928659 0.928536 0.928432 0.928347 0.928277 0.928216 0.928159 0.928098 0.928024 0.927914 0.927731 0.927418 0.926917 0.92641 0.927 0.9307 0.929915 0.927338 0.927107 0.927256 0.927445 0.927542 0.927604 0.927657 0.927626 0.927547 0.927527 0.927612 0.927617 0.927606 0.927592 0.927576 0.927552 0.927501 0.927393 0.927193 0.926806 0.92603 0.924469 0.921361 0.915257 0.903529 0.881775 0.843528 0.781161 0.688881 0.567425 0.428603 0.291852 0.176448 0.0933903 0.043457 0.0183183 0.00728384 0.00281584 0.00107522 0.000408309 0.000154606 5.84248e-05 2.20391e-05 8.29817e-06 3.11804e-06 1.16892e-06 4.37088e-07 1.62969e-07 6.05701e-08 2.24326e-08 8.27606e-09 3.04069e-09 1.1121e-09 4.04303e-10 1.46363e-10 5.26757e-11 1.83829e-11 6.01741e-12 1.90913e-12 4.80347e-13 -2.31804e-13 7.08868e-13 -2.34749e-13 1.72746e-13 -2.3318e-13 0 0 -3.18113e-15 -4.9319e-14 4.4872e-15 -6.9682e-14 -5.82555e-14 1.08262e-14 -4.68424e-14 -1.8955e-15 -1.12214e-14 -4.47155e-14 4.35141e-14 -7.93326e-14 1.83602e-14 -1.00548e-13 -3.01289e-14 -2.14624e-13 8.83091e-14 1.17471e-14 -9.45028e-14 -1.84441e-13 -7.28103e-14 2.6545e-14 -2.78541e-13 1.45488e-13 -2.21471e-13 -6.43298e-14 -4.3288e-13 -2.22428e-13 3.67908e-14 -1.78312e-13 -1.99123e-14 -2.86199e-13 9.43033e-14 -4.03237e-14 -1.39156e-13 -6.04619e-14 -8.93721e-14 4.21948e-13 3.23932e-12 1.98872e-11 1.1372e-10 6.18287e-10 3.19507e-09 1.56638e-08 7.26614e-08 3.18109e-07 1.31059e-06 5.06465e-06 1.82888e-05 6.14404e-05 0.00019103 0.000546373 0.00142765 0.00338339 0.00722592 0.013858 0.0239055 0.0373983 0.0537971 0.0723239 0.0922766 0.11315 0.13462 0.156494 0.178652 0.201011 0.223522 0.246152 0.268882 0.291701 0.3146 0.337579 0.360641 0.383793 0.407048 0.430424 0.45374 0.476582 0.499456 0.521841 0.544248 0.566368 0.588436 0.61035 0.632051 0.653727 0.67508 0.696423 0.71752 0.738359 0.75919 0.779512 0.799548 0.819533 0.838419 0.857214 0.874835 0.890148 0.904353 0.914791 0.922121 0.927696 0.929956 0.930988 0.931569 0.931571 0.93145 0.931247 0.930999 0.930718 0.930406 0.930069 0.929739 0.929443 0.929193 0.928982 0.928805 0.928659 0.928536 0.928432 0.928347 0.928277 0.928216 0.928159 0.928098 0.928024 0.927914 0.927731 0.927418 0.926917 0.92641 0.927 0.9307 0.929915 0.927338 0.927107 0.927256 0.927445 0.927542 0.927604 0.927657 0.927626 0.927547 0.927527 0.927612 0.927617 0.927606 0.927592 0.927576 0.927552 0.927501 0.927393 0.927193 0.926806 0.92603 0.924469 0.921361 0.915257 0.903529 0.881775 0.843528 0.781161 0.688881 0.567425 0.428603 0.291852 0.176448 0.0933903 0.043457 0.0183183 0.00728384 0.00281584 0.00107522 0.000408309 0.000154606 5.84248e-05 2.20391e-05 8.29817e-06 3.11804e-06 1.16892e-06 4.37087e-07 1.62969e-07 6.05701e-08 2.24326e-08 8.27631e-09 3.04045e-09 1.1117e-09 4.04454e-10 1.45854e-10 5.28244e-11 1.84629e-11 6.00173e-12 1.64287e-12 3.37912e-13 -7.09379e-14 -1.20491e-14 1.10489e-12 -6.95388e-13 -2.58803e-13 0 0 -1.72933e-14 -5.63032e-16 -6.79302e-14 -3.83443e-14 -8.93016e-15 -6.69063e-14 -1.01093e-14 -8.00543e-15 3.11805e-14 -2.24707e-14 -1.60641e-13 1.32476e-14 2.86129e-14 -2.50076e-14 -2.0957e-13 8.65466e-14 -2.04753e-13 9.07888e-14 -5.33682e-14 -2.9045e-14 -2.48164e-13 -1.33944e-13 1.56407e-13 -2.86027e-13 6.30378e-14 -4.04838e-13 6.6853e-14 -4.26926e-13 -4.31823e-13 5.61571e-14 -1.29883e-13 2.72708e-13 -8.1064e-14 -3.70646e-13 -6.28482e-14 2.25769e-13 3.33653e-13 2.86978e-14 3.24039e-12 1.98166e-11 1.13542e-10 6.17955e-10 3.1952e-09 1.5664e-08 7.26613e-08 3.1811e-07 1.31059e-06 5.06465e-06 1.82888e-05 6.14404e-05 0.00019103 0.000546373 0.00142765 0.00338339 0.00722592 0.013858 0.0239055 0.0373983 0.0537971 0.0723239 0.0922766 0.11315 0.13462 0.156494 0.178652 0.201011 0.223522 0.246152 0.268882 0.291701 0.3146 0.337579 0.360641 0.383793 0.407048 0.430424 0.45374 0.476582 0.499456 0.521841 0.544248 0.566368 0.588436 0.61035 0.632051 0.653727 0.67508 0.696423 0.71752 0.738359 0.75919 0.779512 0.799548 0.819533 0.838419 0.857214 0.874835 0.890148 0.904353 0.914791 0.922121 0.927696 0.929956 0.930988 0.931569 0.931571 0.93145 0.931247 0.930999 0.930718 0.930406 0.930069 0.929739 0.929443 0.929193 0.928982 0.928805 0.928659 0.928536 0.928432 0.928347 0.928277 0.928216 0.928159 0.928098 0.928024 0.927914 0.927731 0.927418 0.926917 0.92641 0.927 0.9307 0.929915 0.927338 0.927107 0.927256 0.927445 0.927542 0.927604 0.927657 0.927626 0.927547 0.927527 0.927612 0.927617 0.927606 0.927592 0.927576 0.927552 0.927501 0.927393 0.927193 0.926806 0.92603 0.924469 0.921361 0.915257 0.903529 0.881775 0.843528 0.781161 0.688881 0.567425 0.428603 0.291852 0.176448 0.0933903 0.043457 0.0183183 0.00728384 0.00281584 0.00107522 0.000408309 0.000154606 5.84248e-05 2.20391e-05 8.29817e-06 3.11804e-06 1.16892e-06 4.37087e-07 1.62969e-07 6.05698e-08 2.24333e-08 8.2763e-09 3.04048e-09 1.11162e-09 4.04143e-10 1.45673e-10 5.19465e-11 1.85814e-11 6.18426e-12 1.78656e-12 8.52553e-13 8.31377e-13 -9.5787e-13 -2.80428e-13 7.53276e-13 -2.90814e-13 0
				</DataArray>
				<DataArray Name="VitesseY" type="Float32" format="ascii">