<?xml version="1.0"?>
<VTKFile type="PolyData">
	<PolyData>
		<Piece NumberOfPoints="1206" NumberOfPolys="1000">
			<Points>
				<DataArray type="Float32" NumberOfComponents="3" format="ascii">
 0 0 0 0.005 0 0 0.01 0 0 0.015 0 0 0.02 0 0 0.025 0 0 0.03 0 0 0.035 0 0 0.04 0 0 0.045 0 0 0.05 0 0 0.055 0 0 0.06 0 0 0.065 0 0 0.07 0 0 0.075 0 0 0.08 0 0 0.085 0 0 0.09 0 0 0.095 0 0 0.1 0 0 0.105 0 0 0.11 0 0 0.115 0 0 0.12 0 0 0.125 0 0 0.13 0 0 0.135 0 0 0.14 0 0 0.145 0 0 0.15 0 0 0.155 0 0 0.16 0 0 0.165 0 0 0.17 0 0 0.175 0 0 0.18 0 0 0.185 0 0 0.19 0 0 0.195 0 0 0.2 0 0 0.205 0 0 0.21 0 0 0.215 0 0 0.22 0 0 0.225 0 0 0.23 0 0 0.235 0 0 0.24 0 0 0.245 0 0 0.25 0 0 0.255 0 0 0.26 0 0 0.265 0 0 0.27 0 0 0.275 0 0 0.28 0 0 0.285 0 0 0.29 0 0 0.295 0 0 0.3 0 0 0.305 0 0 0.31 0 0 0.315 0 0 0.32 0 0 0.325 0 0 0.33 0 0 0.335 0 0 0.34 0 0 0.345 0 0 0.35 0 0 0.355 0 0 0.36 0 0 0.365 0 0 0.37 0 0 0.375 0 0 0.38 0 0 0.385 0 0 0.39 0 0 0.395 0 0 0.4 0 0 0.405 0 0 0.41 0 0 0.415 0 0 0.42 0 0 0.425 0 0 0.43 0 0 0.435 0 0 0.44 0 0 0.445 0 0 0.45 0 0 0.455 0 0 0.46 0 0 0.465 0 0 0.47 0 0 0.475 0 0 0.48 0 0 0.485 0 0 0.49 0 0 0.495 0 0 0.5 0 0 0.505 0 0 0.51 0 0 0.515 0 0 0.52 0 0 0.525 0 0 0.53 0 0 0.535 0 0 0.54 0 0 0.545 0 0 0.55 0 0 0.555 0 0 0.56 0 0 0.565 0 0 0.57 0 0 0.575 0 0 0.58 0 0 0.585 0 0 0.59 0 0 0.595 0 0 0.6 0 0 0.605 0 0 0.61 0 0 0.615 0 0 0.62 0 0 0.625 0 0 0.63 0 0 0.635 0 0 0.64 0 0 0.645 0 0 0.65 0 0 0.655 0 0 0.66 0 0 0.665 0 0 0.67 0 0 0.675 0 0 0.68 0 0 0.685 0 0 0.69 0 0 0.695 0 0 0.7 0 0 0.705 0 0 0.71 0 0 0.715 0 0 0.72 0 0 0.725 0 0 0.73 0 0 0.735 0 0 0.74 0 0 0.745 0 0 0.75 0 0 0.755 0 0 0.76 0 0 0.765 0 0 0.77 0 0 0.775 0 0 0.78 0 0 0.785 0 0 0.79 0 0 0.795 0 0 0.8 0 0 0.805 0 0 0.81 0 0 0.815 0 0 0.82 0 0 0.825 0 0 0.83 0 0 0.835 0 0 0.84 0 0 0.845 0 0 0.85 0 0 0.855 0 0 0.86 0 0 0.865 0 0 0.87 0 0 0.875 0 0 0.88 0 0 0.885 0 0 0.89 0 0 0.895 0 0 0.9 0 0 0.905 0 0 0.91 0 0 0.915 0 0 0.92 0 0 0.925 0 0 0.93 0 0 0.935 0 0 0.94 0 0 0.945 0 0 0.95 0 0 0.955 0 0 0.96 0 0 0.965 0 0 0.97 0 0 0.975 0 0 0.98 0 0 0.985 0 0 0.99 0 0 0.995 0 0 1 0 0 0 0.02 0 0.005 0.02 0 0.01 0.02 0 0.015 0.02 0 0.02 0.02 0 0.025 0.02 0 0.03 0.02 0 0.035 0.02 0 0.04 0.02 0 0.045 0.02 0 0.05 0.02 0 0.055 0.02 0 0.06 0.02 0 0.065 0.02 0 0.07 0.02 0 0.075 0.02 0 0.08 0.02 0 0.085 0.02 0 0.09 0.02 0 0.095 0.02 0 0.1 0.02 0 0.105 0.02 0 0.11 0.02 0 0.115 0.02 0 0.12 0.02 0 0.125 0.02 0 0.13 0.02 0 0.135 0.02 0 0.14 0.02 0 0.145 0.02 0 0.15 0.02 0 0.155 0.02 0 0.16 0.02 0 0.165 0.02 0 0.17 0.02 0 0.175 0.02 0 0.18 0.02 0 0.185 0.02 0 0.19 0.02 0 0.195 0.02 0 0.2 0.02 0 0.205 0.02 0 0.21 0.02 0 0.215 0.02 0 0.22 0.02 0 0.225 0.02 0 0.23 0.02 0 0.235 0.02 0 0.24 0.02 0 0.245 0.02 0 0.25 0.02 0 0.255 0.02 0 0.26 0.02 0 0.265 0.02 0 0.27 0.02 0 0.275 0.02 0 0.28 0.02 0 0.285 0.02 0 0.29 0.02 0 0.295 0.02 0 0.3 0.02 0 0.305 0.02 0 0.31 0.02 0 0.315 0.02 0 0.32 0.02 0 0.325 0.02 0 0.33 0.02 0 0.335 0.02 0 0.34 0.02 0 0.345 0.02 0 0.35 0.02 0 0.355 0.02 0 0.36 0.02 0 0.365 0.02 0 0.37 0.02 0 0.375 0.02 0 0.38 0.02 0 0.385 0.02 0 0.39 0.02 0 0.395 0.02 0 0.4 0.02 0 0.405 0.02 0 0.41 0.02 0 0.415 0.02 0 0.42 0.02 0 0.425 0.02 0 0.43 0.02 0 0.435 0.02 0 0.44 0.02 0 0.445 0.02 0 0.45 0.02 0 0.455 0.02 0 0.46 0.02 0 0.465 0.02 0 0.47 0.02 0 0.475 0.02 0 0.48 0.02 0 0.485 0.02 0 0.49 0.02 0 0.495 0.02 0 0.5 0.02 0 0.505 0.02 0 0.51 0.02 0 0.515 0.02 0 0.52 0.02 0 0.525 0.02 0 0.53 0.02 0 0.535 0.02 0 0.54 0.02 0 0.545 0.02 0 0.55 0.02 0 0.555 0.02 0 0.56 0.02 0 0.565 0.02 0 0.57 0.02 0 0.575 0.02 0 0.58 0.02 0 0.585 0.02 0 0.59 0.02 0 0.595 0.02 0 0.6 0.02 0 0.605 0.02 0 0.61 0.02 0 0.615 0.02 0 0.62 0.02 0 0.625 0.02 0 0.63 0.02 0 0.635 0.02 0 0.64 0.02 0 0.645 0.02 0 0.65 0.02 0 0.655 0.02 0 0.66 0.02 0 0.665 0.02 0 0.67 0.02 0 0.675 0.02 0 0.68 0.02 0 0.685 0.02 0 0.69 0.02 0 0.695 0.02 0 0.7 0.02 0 0.705 0.02 0 0.71 0.02 0 0.715 0.02 0 0.72 0.02 0 0.725 0.02 0 0.73 0.02 0 0.735 0.02 0 0.74 0.02 0 0.745 0.02 0 0.75 0.02 0 0.755 0.02 0 0.76 0.02 0 0.765 0.02 0 0.77 0.02 0 0.775 0.02 0 0.78 0.02 0 0.785 0.02 0 0.79 0.02 0 0.795 0.02 0 0.8 0.02 0 0.805 0.02 0 0.81 0.02 0 0.815 0.02 0 0.82 0.02 0 0.825 0.02 0 0.83 0.02 0 0.835 0.02 0 0.84 0.02 0 0.845 0.02 0 0.85 0.02 0 0.855 0.02 0 0.86 0.02 0 0.865 0.02 0 0.87 0.02 0 0.875 0.02 0 0.88 0.02 0 0.885 0.02 0 0.89 0.02 0 0.895 0.02 0 0.9 0.02 0 0.905 0.02 0 0.91 0.02 0 0.915 0.02 0 0.92 0.02 0 0.925 0.02 0 0.93 0.02 0 0.935 0.02 0 0.94 0.02 0 0.945 0.02 0 0.95 0.02 0 0.955 0.02 0 0.96 0.02 0 0.965 0.02 0 0.97 0.02 0 0.975 0.02 0 0.98 0.02 0 0.985 0.02 0 0.99 0.02 0 0.995 0.02 0 1 0.02 0 0 0.04 0 0.005 0.04 0 0.01 0.04 0 0.015 0.04 0 0.02 0.04 0 0.025 0.04 0 0.03 0.04 0 0.035 0.04 0 0.04 0.04 0 0.045 0.04 0 0.05 0.04 0 0.055 0.04 0 0.06 0.04 0 0.065 0.04 0 0.07 0.04 0 0.075 0.04 0 0.08 0.04 0 0.085 0.04 0 0.09 0.04 0 0.095 0.04 0 0.1 0.04 0 0.105 0.04 0 0.11 0.04 0 0.115 0.04 0 0.12 0.04 0 0.125 0.04 0 0.13 0.04 0 0.135 0.04 0 0.14 0.04 0 0.145 0.04 0 0.15 0.04 0 0.155 0.04 0 0.16 0.04 0 0.165 0.04 0 0.17 0.04 0 0.175 0.04 0 0.18 0.04 0 0.185 0.04 0 0.19 0.04 0 0.195 0.04 0 0.2 0.04 0 0.205 0.04 0 0.21 0.04 0 0.215 0.04 0 0.22 0.04 0 0.225 0.04 0 0.23 0.04 0 0.235 0.04 0 0.24 0.04 0 0.245 0.04 0 0.25 0.04 0 0.255 0.04 0 0.26 0.04 0 0.265 0.04 0 0.27 0.04 0 0.275 0.04 0 0.28 0.04 0 0.285 0.04 0 0.29 0.04 0 0.295 0.04 0 0.3 0.04 0 0.305 0.04 0 0.31 0.04 0 0.315 0.04 0 0.32 0.04 0 0.325 0.04 0 0.33 0.04 0 0.335 0.04 0 0.34 0.04 0 0.345 0.04 0 0.35 0.04 0 0.355 0.04 0 0.36 0.04 0 0.365 0.04 0 0.37 0.04 0 0.375 0.04 0 0.38 0.04 0 0.385 0.04 0 0.39 0.04 0 0.395 0.04 0 0.4 0.04 0 0.405 0.04 0 0.41 0.04 0 0.415 0.04 0 0.42 0.04 0 0.425 0.04 0 0.43 0.04 0 0.435 0.04 0 0.44 0.04 0 0.445 0.04 0 0.45 0.04 0 0.455 0.04 0 0.46 0.04 0 0.465 0.04 0 0.47 0.04 0 0.475 0.04 0 0.48 0.04 0 0.485 0.04 0 0.49 0.04 0 0.495 0.04 0 0.5 0.04 0 0.505 0.04 0 0.51 0.04 0 0.515 0.04 0 0.52 0.04 0 0.525 0.04 0 0.53 0.04 0 0.535 0.04 0 0.54 0.04 0 0.545 0.04 0 0.55 0.04 0 0.555 0.04 0 0.56 0.04 0 0.565 0.04 0 0.57 0.04 0 0.575 0.04 0 0.58 0.04 0 0.585 0.04 0 0.59 0.04 0 0.595 0.04 0 0.6 0.04 0 0.605 0.04 0 0.61 0.04 0 0.615 0.04 0 0.62 0.04 0 0.625 0.04 0 0.63 0.04 0 0.635 0.04 0 0.64 0.04 0 0.645 0.04 0 0.65 0.04 0 0.655 0.04 0 0.66 0.04 0 0.665 0.04 0 0.67 0.04 0 0.675 0.04 0 0.68 0.04 0 0.685 0.04 0 0.69 0.04 0 0.695 0.04 0 0.7 0.04 0 0.705 0.04 0 0.71 0.04 0 0.715 0.04 0 0.72 0.04 0 0.725 0.04 0 0.73 0.04 0 0.735 0.04 0 0.74 0.04 0 0.745 0.04 0 0.75 0.04 0 0.755 0.04 0 0.76 0.04 0 0.765 0.04 0 0.77 0.04 0 0.775 0.04 0 0.78 0.04 0 0.785 0.04 0 0.79 0.04 0 0.795 0.04 0 0.8 0.04 0 0.805 0.04 0 0.81 0.04 0 0.815 0.04 0 0.82 0.04 0 0.825 0.04 0 0.83 0.04 0 0.835 0.04 0 0.84 0.04 0 0.845 0.04 0 0.85 0.04 0 0.855 0.04 0 0.86 0.04 0 0.865 0.04 0 0.87 0.04 0 0.875 0.04 0 0.88 0.04 0 0.885 0.04 0 0.89 0.04 0 0.895 0.04 0 0.9 0.04 0 0.905 0.04 0 0.91 0.04 0 0.915 0.04 0 0.92 0.04 0 0.925 0.04 0 0.93 0.04 0 0.935 0.04 0 0.94 0.04 0 0.945 0.04 0 0.95 0.04 0 0.955 0.04 0 0.96 0.04 0 0.965 0.04 0 0.97 0.04 0 0.975 0.04 0 0.98 0.04 0 0.985 0.04 0 0.99 0.04 0 0.995 0.04 0 1 0.04 0 0 0.06 0 0.005 0.06 0 0.01 0.06 0 0.015 0.06 0 0.02 0.06 0 0.025 0.06 0 0.03 0.06 0 0.035 0.06 0 0.04 0.06 0 0.045 0.06 0 0.05 0.06 0 0.055 0.06 0 0.06 0.06 0 0.065 0.06 0 0.07 0.06 0 0.075 0.06 0 0.08 0.06 0 0.085 0.06 0 0.09 0.06 0 0.095 0.06 0 0.1 0.06 0 0.105 0.06 0 0.11 0.06 0 0.115 0.06 0 0.12 0.06 0 0.125 0.06 0 0.13 0.06 0 0.135 0.06 0 0.14 0.06 0 0.145 0.06 0 0.15 0.06 0 0.155 0.06 0 0.16 0.06 0 0.165 0.06 0 0.17 0.06 0 0.175 0.06 0 0.18 0.06 0 0.185 0.06 0 0.19 0.06 0 0.195 0.06 0 0.2 0.06 0 0.205 0.06 0 0.21 0.06 0 0.215 0.06 0 0.22 0.06 0 0.225 0.06 0 0.23 0.06 0 0.235 0.06 0 0.24 0.06 0 0.245 0.06 0 0.25 0.06 0 0.255 0.06 0 0.26 0.06 0 0.265 0.06 0 0.27 0.06 0 0.275 0.06 0 0.28 0.06 0 0.285 0.06 0 0.29 0.06 0 0.295 0.06 0 0.3 0.06 0 0.305 0.06 0 0.31 0.06 0 0.315 0.06 0 0.32 0.06 0 0.325 0.06 0 0.33 0.06 0 0.335 0.06 0 0.34 0.06 0 0.345 0.06 0 0.35 0.06 0 0.355 0.06 0 0.36 0.06 0 0.365 0.06 0 0.37 0.06 0 0.375 0.06 0 0.38 0.06 0 0.385 0.06 0 0.39 0.06 0 0.395 0.06 0 0.4 0.06 0 0.405 0.06 0 0.41 0.06 0 0.415 0.06 0 0.42 0.06 0 0.425 0.06 0 0.43 0.06 0 0.435 0.06 0 0.44 0.06 0 0.445 0.06 0 0.45 0.06 0 0.455 0.06 0 0.46 0.06 0 0.465 0.06 0 0.47 0.06 0 0.475 0.06 0 0.48 0.06 0 0.485 0.06 0 0.49 0.06 0 0.495 0.06 0 0.5 0.06 0 0.505 0.06 0 0.51 0.06 0 0.515 0.06 0 0.52 0.06 0 0.525 0.06 0 0.53 0.06 0 0.535 0.06 0 0.54 0.06 0 0.545 0.06 0 0.55 0.06 0 0.555 0.06 0 0.56 0.06 0 0.565 0.06 0 0.57 0.06 0 0.575 0.06 0 0.58 0.06 0 0.585 0.06 0 0.59 0.06 0 0.595 0.06 0 0.6 0.06 0 0.605 0.06 0 0.61 0.06 0 0.615 0.06 0 0.62 0.06 0 0.625 0.06 0 0.63 0.06 0 0.635 0.06 0 0.64 0.06 0 0.645 0.06 0 0.65 0.06 0 0.655 0.06 0 0.66 0.06 0 0.665 0.06 0 0.67 0.06 0 0.675 0.06 0 0.68 0.06 0 0.685 0.06 0 0.69 0.06 0 0.695 0.06 0 0.7 0.06 0 0.705 0.06 0 0.71 0.06 0 0.715 0.06 0 0.72 0.06 0 0.725 0.06 0 0.73 0.06 0 0.735 0.06 0 0.74 0.06 0 0.745 0.06 0 0.75 0.06 0 0.755 0.06 0 0.76 0.06 0 0.765 0.06 0 0.77 0.06 0 0.775 0.06 0 0.78 0.06 0 0.785 0.06 0 0.79 0.06 0 0.795 0.06 0 0.8 0.06 0 0.805 0.06 0 0.81 0.06 0 0.815 0.06 0 0.82 0.06 0 0.825 0.06 0 0.83 0.06 0 0.835 0.06 0 0.84 0.06 0 0.845 0.06 0 0.85 0.06 0 0.855 0.06 0 0.86 0.06 0 0.865 0.06 0 0.87 0.06 0 0.875 0.06 0 0.88 0.06 0 0.885 0.06 0 0.89 0.06 0 0.895 0.06 0 0.9 0.06 0 0.905 0.06 0 0.91 0.06 0 0.915 0.06 0 0.92 0.06 0 0.925 0.06 0 0.93 0.06 0 0.935 0.06 0 0.94 0.06 0 0.945 0.06 0 0.95 0.06 0 0.955 0.06 0 0.96 0.06 0 0.965 0.06 0 0.97 0.06 0 0.975 0.06 0 0.98 0.06 0 0.985 0.06 0 0.99 0.06 0 0.995 0.06 0 1 0.06 0 0 0.08 0 0.005 0.08 0 0.01 0.08 0 0.015 0.08 0 0.02 0.08 0 0.025 0.08 0 0.03 0.08 0 0.035 0.08 0 0.04 0.08 0 0.045 0.08 0 0.05 0.08 0 0.055 0.08 0 0.06 0.08 0 0.065 0.08 0 0.07 0.08 0 0.075 0.08 0 0.08 0.08 0 0.085 0.08 0 0.09 0.08 0 0.095 0.08 0 0.1 0.08 0 0.105 0.08 0 0.11 0.08 0 0.115 0.08 0 0.12 0.08 0 0.125 0.08 0 0.13 0.08 0 0.135 0.08 0 0.14 0.08 0 0.145 0.08 0 0.15 0.08 0 0.155 0.08 0 0.16 0.08 0 0.165 0.08 0
[...]
			<PointData Scalars="VitesseX">
				<DataArray Name="VitesseX" type="Float32" format="ascii">
 0 -3.10965e-14 4.80696e-14 -1.46924e-13 4.99755e-14 -3.47878e-14 -1.70776e-14 -1.03977e-13 4.82916e-14 1.10919e-14 -2.17663e-13 2.27969e-13 -3.73485e-13 4.03401e-13 -3.04335e-13 -1.41792e-14 2.20188e-13 -3.07605e-13 2.89508e-13 -1.7286e-13 -4.10227e-14 6.19042e-14 -6.84874e-14 1.20966e-13 -1.40881e-13 -1.73169e-13 5.925e-15 -3.87329e-13 2.5618e-13 -5.22005e-13 7.40025e-13 -1.56044e-13 4.02406e-13 -2.60144e-13 -7.84638e-13 6.5327e-13 -7.93309e-13 1.04209e-12 -5.79834e-13 3.43804e-13 -7.17645e-13 6.47313e-13 -2.73008e-13 -1.27777e-13 -5.12649e-13 1.04771e-12 -1.2205e-12 1.29649e-12 -7.94675e-13 4.22151e-13 -4.32951e-14 -3.24194e-13 1.64309e-12 -2.4154e-12 8.58465e-13 -3.8532e-13 -1.50869e-12 2.36687e-12 -2.67392e-12 1.29748e-12 7.94697e-13 6.75772e-13 -1.26443e-13 -4.59316e-13 5.45263e-13 -2.99684e-14 -1.05056e-13 -6.55446e-13 -1.53587e-12 8.06978e-13 1.33452e-12 -2.56801e-12 1.5578e-12 -4.55482e-13 2.38678e-12 -1.08694e-12 -1.43354e-13 6.6445e-13 -1.45142e-12 1.78534e-12 -2.22179e-12 3.12598e-13 8.63911e-13 -2.03513e-12 7.10195e-13 1.33613e-12 -5.86196e-13 -1.16315e-13 6.2886e-13 -1.29821e-12 2.46511e-12 6.0322e-11 3.82904e-09 1.8758e-07 6.91433e-06 0.000182657 0.00321453 0.0336445 0.182042 0.506027 0.65762 0.891834 0.882492 0.73195 0.503506 0.275432 0.110617 0.0298156 0.00572121 0.000905885 0.000127354 1.62324e-05 1.89027e-06 2.02091e-07 1.99151e-08 1.8148e-09 1.52031e-10 1.15314e-11 3.48434e-12 -1.32929e-12 2.15566e-12 -1.14696e-12 -7.28069e-13 2.20584e-12 -2.32116e-12 2.12286e-12 -1.05472e-12 -1.11366e-12 2.21392e-12 -2.1593e-12 1.88456e-12 -8.69573e-13 -8.0809e-13 1.95275e-12 -2.02408e-12 1.66451e-12 -1.08882e-12 -1.31254e-12 7.19854e-13 -2.26549e-12 2.02846e-12 -1.33333e-13 -2.39175e-12 3.2471e-12 8.86762e-13 -1.56184e-12 2.55728e-12 -3.38145e-12 2.38009e-12 2.11565e-13 -1.53228e-12 2.20305e-12 -3.26607e-12 2.98066e-12 -2.13939e-12 2.20227e-12 -1.99018e-12 -4.65754e-13 1.29234e-12 -5.11147e-13 1.09448e-12 -1.14107e-12 -1.06568e-14 5.34903e-13 -1.01138e-12 -1.39493e-13 -7.7065e-13 2.76918e-13 2.2714e-12 -1.85946e-12 1.44986e-12 -1.21085e-13 -1.80945e-12 3.0196e-12 -2.64739e-12 1.7817e-12 -5.313e-13 -1.37084e-12 2.57124e-12 -1.98987e-12 9.21421e-13 3.03744e-13 -2.05617e-12 3.03126e-12 -2.63215e-12 1.55285e-12 3.73298e-14 -2.55725e-12 1.8163e-12 -4.19837e-12 1.09889e-12 3.89927e-12 -7.64128e-12 5.14116e-12 4.89956e-13 9.2618e-13 2.02428e-12 -4.53848e-12 4.12922e-12 -1.34825e-12 0 0 -8.12302e-15 -6.38892e-14 7.6471e-14 -1.57166e-13 -2.32448e-14 3.67941e-14 2.69673e-14 -1.72491e-13 -2.77631e-14 8.92311e-14 -2.05638e-13 4.09806e-13 -5.86643e-13 3.17389e-13 -1.33555e-13 -2.94337e-13 4.23944e-13 -4.03046e-13 2.36771e-13 1.48588e-13 -1.35858e-13 -1.81422e-13 2.68674e-14 4.33114e-13 -2.30219e-14 -7.84807e-13 -2.51111e-13 4.17606e-13 -3.22377e-14 -5.78148e-14 7.03909e-13 -4.8161e-13 -3.17352e-13 1.88721e-13 -3.29746e-14 -4.58179e-14 -4.89673e-13 8.97231e-13 -4.90956e-13 5.57048e-14 5.112e-14 -4.98702e-13 4.07707e-13 4.60016e-14 -4.83823e-13 3.99678e-13 -4.68728e-13 6.76775e-13 1.26621e-13 1.06123e-13 -1.10604e-13 -8.72978e-13 8.96815e-13 -1.00256e-12 -6.86991e-13 7.30371e-13 -5.48661e-13 5.40665e-13 -6.48837e-13 4.52883e-13 5.56762e-13 2.43475e-13 4.88369e-13 -5.03481e-13 -3.01707e-13 1.83525e-13 -4.75478e-13 -1.64698e-13 -7.53396e-13 -1.40102e-14 7.57987e-13 -6.00084e-13 1.32869e-12 -7.4479e-13 7.62888e-13 3.58735e-13 -7.6984e-13 5.37875e-13 -1.29909e-12 8.47934e-13 -1.03844e-12 -1.07957e-12 1.77272e-12 -1.66887e-13 -1.43327e-12 1.17474e-12 7.79788e-13 -2.96863e-13 7.09691e-13 -6.93258e-13 6.18688e-11 3.82958e-09 1.87579e-07 6.91433e-06 0.000182657 0.00321453 0.0336445 0.182042 0.506027 0.65762 0.891834 0.882492 0.73195 0.503506 0.275432 0.110617 0.0298156 0.00572121 0.000905885 0.000127354 1.62324e-05 1.89027e-06 2.02091e-07 1.99125e-08 1.81529e-09 1.53699e-10 1.26643e-11 -5.02827e-17 1.69949e-12 -1.10768e-12 1.51097e-12 2.26301e-13 -1.61828e-12 1.33721e-12 -1.29869e-12 1.16811e-12 5.90477e-13 -1.91065e-12 1.40513e-12 -1.30709e-12 1.31826e-12 3.95806e-13 -1.59584e-12 1.27677e-12 -1.22126e-12 9.38385e-13 -1.51351e-13 -2.41275e-12 3.88914e-13 -5.14344e-14 -9.18774e-13 2.96595e-12 -1.20212e-12 -2.68705e-13 1.59012e-12 -1.25066e-12 2.66874e-12 -2.05948e-12 -6.90688e-13 1.57648e-12 -1.16204e-12 2.43624e-12 -2.60118e-12 1.00031e-12 -1.14208e-12 1.14419e-12 1.10375e-13 -1.41503e-12 4.11595e-13 2.93118e-14 1.97338e-12 -9.22259e-13 -1.9269e-12 -3.56454e-13 -2.40707e-13 1.94723e-12 -2.81611e-13 -9.86487e-13 2.20326e-12 -1.83121e-12 -4.23297e-13 2.1194e-12 -1.67612e-12 2.29568e-12 -2.43625e-12 7.99925e-15 1.80258e-12 -1.22284e-12 1.73388e-12 -1.6073e-12 -9.70181e-13 2.084e-12 -1.60482e-12 2.03643e-12 -2.00037e-12 -5.7333e-13 1.57409e-12 -2.5882e-12 1.08298e-12 -2.72746e-12 4.76992e-13 3.65029e-12 -3.19989e-12 3.19874e-13 7.9444e-13 4.08996e-13 4.40671e-12 -3.91955e-12 -4.65314e-13 0 0 -2.49316e-15 1.73444e-14 -1.427e-13 9.01317e-14 -7.24129e-14 -1.90202e-13 -1.49699e-13 1.5185e-13 7.7901e-14 -1.36541e-13 1.03815e-13 -4.40677e-13 2.2479e-13 -4.64084e-13 7.66028e-14 3.35248e-13 -3.57669e-13 3.3874e-13 -2.66338e-13 -5.2587e-14 2.54498e-13 3.0148e-13 -8.23733e-14 -5.34473e-13 -5.46698e-14 3.18201e-13 -3.29281e-13 1.38148e-13 -4.54105e-13 4.28664e-13 -7.28488e-14 5.54292e-13 -3.80741e-13 -5.91548e-13 4.52423e-14 9.38193e-14 5.50778e-13 -4.53128e-13 -3.64041e-14 -2.83331e-13 2.20744e-13 -9.62398e-14 -2.34003e-13 7.38328e-14 4.09697e-13 -2.3209e-13 1.22207e-13 -2.01069e-13 -2.64519e-13 -1.00957e-13 4.40327e-13 2.14932e-14 -3.79646e-13 -1.28738e-12 -1.94312e-13 8.22292e-13 -2.46621e-14 -1.33135e-13 -3.9899e-13 6.29008e-13 7.06178e-13 -4.01608e-13 2.05511e-13 -1.87565e-13 4.14418e-13 -1.81155e-14 -6.8026e-13 -5.4107e-13 6.46291e-14 3.90535e-14 -2.83759e-13 -7.69655e-13 8.3226e-13 1.05805e-12 -2.61309e-13 -8.03453e-13 -2.31548e-13 7.16621e-13 5.64271e-14 -1.03093e-12 2.98555e-13 -1.34501e-13 -4.10403e-14 -1.28207e-12 1.78851e-12 5.91638e-13 -5.2787e-13 2.23635e-13 4.05025e-13 1.91578e-12 6.05378e-11 3.82789e-09 1.8758e-07 6.91433e-06 0.000182657 0.00321453 0.0336445 0.182042 0.506027 0.65762 0.891834 0.882492 0.73195 0.503506 0.275432 0.110617 0.0298156 0.00572121 0.000905885 0.000127354 1.62324e-05 1.89027e-06 2.02091e-07 1.99144e-08 1.8141e-09 1.52268e-10 1.29332e-11 1.51813e-12 -1.6672e-14 8.40145e-13 -1.33485e-12 1.21701e-12 9.40442e-14 -3.92378e-13 1.98051e-13 -1.48117e-12 1.25187e-12 7.45198e-14 -3.25271e-13 4.83081e-13 -1.52339e-12 1.46235e-12 2.18314e-13 -3.68696e-13 4.23291e-13 -1.49473e-12 8.37444e-13 -5.5189e-13 -1.34281e-12 7.84916e-13 -9.40073e-14 -2.43232e-13 5.8457e-13 1.06514e-12 -1.01356e-12 2.55542e-13 3.38441e-13 -2.91148e-13 9.15436e-13 -1.26803e-12 3.81284e-13 6.54634e-13 -4.38384e-13 -7.34803e-14 6.31539e-13 -1.32238e-12 1.20499e-12 3.38762e-13 6.63961e-13 -8.3413e-13 -2.24467e-12 6.80008e-13 7.05421e-13 1.58007e-13 -8.80905e-13 -1.12509e-12 4.63833e-13 3.49512e-13 5.62498e-14 1.17429e-12 -1.19894e-13 -2.32995e-14 -6.34505e-13 -1.29757e-13 1.24052e-12 -1.53982e-13 6.06824e-14 -4.8553e-13 -6.35744e-13 1.2218e-12 1.69935e-14 -4.71232e-13 -6.49233e-13 -9.24678e-14 1.31578e-12 -4.84757e-13 -5.05106e-13 -1.36551e-12 -1.36706e-12 1.20592e-12 2.85923e-13 -1.60746e-12 -4.72753e-13 1.97436e-12 7.47332e-13 -2.79474e-13 -2.23634e-13 3.642e-14 1.07974e-12 0 0 -5.56293e-14 -6.2064e-14 -2.7905e-14 -5.19582e-14 -8.85237e-15 -1.37928e-14 -9.97671e-14 -6.82201e-14 -3.59643e-14 -2.00804e-13 -8.15929e-14 -2.01884e-13 2.54334e-14 -1.04041e-13 1.44362e-14 7.27506e-14 -1.35969e-13 4.53954e-14 1.245e-13 1.04419e-13 7.49045e-14 -2.3906e-13 -1.00068e-13 -8.16818e-14 -9.22717e-14 -1.83783e-14 -1.8951e-13 1.23398e-14 -7.87548e-14 1.73879e-13 1.65868e-13 6.68516e-14 -4.05854e-13 -8.50714e-14 -2.62115e-14 -4.62945e-13 4.9789e-13 -5.11006e-13 2.281e-13 -3.0832e-14 2.81536e-13 7.84347e-15 -1.03531e-13 -6.08398e-13 1.65318e-13 -6.57902e-13 9.17033e-13 -6.00901e-13 2.63596e-13 -2.98603e-13 -4.8193e-13 8.93731e-13 -1.01132e-12 -3.88254e-13 -3.87341e-13 2.63556e-13 9.53432e-13 -7.39489e-13 3.80014e-14 5.18932e-13 4.29212e-13 2.00357e-13 5.67557e-13 -3.83567e-13 -7.30624e-14 -2.79238e-13 -4.84242e-13 -3.5648e-13 -1.01908e-12 1.00916e-12 -1.12666e-12 -4.32488e-15 3.34164e-13 9.80022e-13 -1.04806e-12 5.94144e-13 -2.9122e-13 2.29565e-13 6.32491e-13 -2.48021e-12 -3.69708e-13 1.33317e-12 -6.11415e-13 -9.28511e-14 1.2608e-12 -2.74865e-13 2.26794e-13 9.61132e-13 -7.77075e-13 2.5265e-12 5.96028e-11 3.82919e-09 1.8758e-07 6.91433e-06 0.000182657 0.00321453 0.0336445 0.182042 0.506027 0.65762 0.891834 0.882492 0.73195 0.503506 0.275432 0.110617 0.0298156 0.00572121 0.000905885 0.000127354 1.62324e-05 1.89027e-06 2.0209e-07 1.99147e-08 1.8142e-09 1.52341e-10 1.27129e-11 1.18502e-12 -6.62322e-13 1.61065e-12 -1.65322e-12 1.12942e-12 3.42412e-14 -9.60096e-13 1.34364e-12 -1.73488e-12 9.35997e-13 2.52512e-13 -8.64292e-13 1.47199e-12 -1.48268e-12 1.30612e-12 5.66026e-14 -1.31822e-12 1.49865e-12 -1.66022e-12 5.07179e-13 -6.39579e-13 -1.10458e-12 3.37107e-13 1.46656e-13 -9.44953e-14 9.24654e-14 -6.34612e-14 -9.53304e-13 1.9677e-12 -3.58366e-13 -6.35576e-13 -3.49064e-13 -7.28734e-13 2.31565e-12 -9.7156e-14 2.43808e-13 -1.34535e-12 2.09511e-12 -1.40486e-12 7.33711e-13 -1.00859e-12 -6.66104e-13 1.37679e-12 -7.8859e-13 8.21237e-13 -1.95244e-12 -5.23931e-13 7.61018e-13 -1.17593e-12 1.22975e-12 5.3547e-13 -2.56026e-13 1.04223e-12 -1.59771e-12 -5.58468e-13 2.12475e-12 -7.78087e-13 8.8148e-13 -1.38464e-12 -1.42378e-13 1.80417e-12 -9.95907e-13 3.83352e-14 -1.1068e-12 -5.73199e-13 2.2924e-12 -1.18162e-12 4.82982e-13 -1.00615e-12 -8.81296e-13 1.13955e-12 -3.05272e-12 -8.51287e-13 1.71332e-12 -5.79583e-13 2.80193e-13 -7.69622e-13 -2.02464e-13 2.07773e-12 7.08388e-13 -3.11908e-13 -2.12684e-12 0 0 -5.05602e-14 -1.32096e-13 1.08764e-13 -2.18372e-13 -7.31201e-14 4.22861e-14 7.89068e-14 -2.60944e-13 -1.5167e-13 -1.48366e-14 -5.22093e-13 4.28311e-13 -6.08844e-13 5.35424e-13 -4.99584e-15 -3.47664e-13 7.28804e-13 -5.455e-13 2.44763e-13 2.38308e-14 -4.51829e-13 -3.9794e-13 -1.88573e-13 5.20435e-13 1.25712e-14 -5.97352e-13 -5.2066e-14 -2.87043e-14 4.41423e-13 -2.75667e-13 5.76964e-13 -6.94436e-13 -1.73802e-13 4.53287e-13 -1.09076e-13 2.56709e-13 -4.2951e-13 6.48334e-13 -5.94101e-13 1.97847e-13 -3.28058e-13 -3.39048e-13 2.06141e-13 -1.62368e-13 -6.02748e-13 2.4967e-13 -2.87196e-13 2.23421e-13 3.45499e-13 -6.80104e-15 -2.03799e-13 -2.09163e-13 4.63559e-13 -8.20439e-13 -8.92444e-13 5.18188e-13 4.39903e-15 4.54509e-13 -2.70355e-13 5.13836e-13 3.45555e-13 6.36767e-13 3.01585e-13 -3.94669e-13 -4.92273e-13 -3.94786e-14 -4.24694e-13 -2.35218e-13 -1.29296e-12 2.95374e-13 5.39656e-13 -1.06525e-13 1.82475e-12 -6.08931e-13 -6.27855e-14 -7.33623e-14 -1.24068e-12 3.10411e-14 -9.15914e-13 4.88189e-14 -2.77094e-12 2.02618e-14 1.76367e-12 5.41591e-13 -2.23008e-12 4.89812e-13 1.59678e-12 -5.33106e-13 1.20436e-12 -3.83063e-13 6.09244e-11 3.83128e-09 1.87578e-07 6.91433e-06 0.000182657 0.00321453 0.0336445 0.182042 0.506027 0.65762 0.891834 0.882492 0.73195 0.503506 0.275432 0.110617 0.0298156 0.00572121 0.000905885 0.000127354 1.62324e-05 1.89027e-06 2.02091e-07 1.99126e-08 1.81545e-09 1.54058e-10 1.20326e-11 7.28315e-15 1.71088e-12 -1.34058e-12 1.76835e-12 -7.42845e-13 -1.39891e-12 1.6408e-12 -1.29826e-12 1.55262e-12 -1.41273e-13 -1.36479e-12 1.52838e-12 -1.42583e-12 1.66423e-12 -2.9518e-13 -1.34862e-12 1.18378e-12 -1.19317e-12 1.16275e-12 -9.84805e-13 -2.33513e-12 1.22417e-12 -1.19191e-12 -1.26538e-12 3.62648e-12 -2.03108e-12 -1.22761e-12 2.28658e-12 -1.45743e-12 3.89711e-12 -2.09987e-12 -7.10241e-13 1.7637e-12 -2.25533e-12 2.17373e-12 -2.86646e-12 1.45808e-12 -1.02427e-12 3.15032e-12 -8.40065e-13 -2.0402e-12 -1.23546e-12 5.39725e-13 3.81192e-12 -2.86709e-12 -2.88883e-12 -6.2783e-13 7.08297e-13 2.14214e-12 -3.46819e-12 -8.84157e-14 4.76272e-12 -2.11718e-12 -1.33725e-12 1.49595e-12 2.68049e-13 3.48949e-12 -4.45789e-12 -3.10423e-13 1.30079e-12 -1.36007e-13 3.49778e-12 -3.6767e-12 -2.18798e-12 1.82054e-12 4.0744e-13 3.27948e-12 -4.19845e-12 -4.80809e-13 1.06125e-12 -1.17402e-12 9.36509e-13 -6.43854e-12 8.22581e-13 7.22609e-12 -3.40573e-12 -1.76738e-12 5.15811e-13 1.52276e-12 6.75693e-12 -5.5864e-12 -2.68021e-12 0 0 -9.69856e-15 7.04736e-14 -3.11927e-13 2.11743e-13 -2.61659e-13 -3.58911e-13 -9.99626e-14 3.11526e-13 -8.99032e-15 -2.97274e-13 -3.41233e-14 -8.14062e-13 7.57715e-13 -5.8835e-13 3.67273e-13 6.38529e-13 -1.41287e-13 5.9129e-13 -9.38553e-13 -6.0455e-13 -2.1085e-13 5.79555e-13 -2.74526e-13 -8.71821e-13 -2.67791e-14 1.05399e-12 -2.6878e-13 -3.84823e-13 -3.25386e-13 8.13891e-13 -8.87369e-13 9.51635e-13 7.71815e-14 -1.26846e-12 6.43975e-13 9.25273e-13 1.2682e-12 -9.61871e-13 -3.91494e-13 -9.38359e-13 -2.32627e-13 -1.61867e-13 -7.91852e-13 4.35072e-13 1.29861e-12 -6.68893e-13 6.99043e-14 -9.01719e-13 -1.96324e-13 1.2615e-13 1.33393e-12 1.22624e-12 -2.01857e-12 -5.75539e-13 -4.10169e-13 -8.15577e-13 1.5168e-12 -1.63352e-12 1.18046e-12 1.13676e-12 8.07291e-13 -5.43788e-13 -1.55698e-12 1.15489e-12 5.63861e-13 -2.88165e-14 -9.45913e-13 -2.04609e-12 1.89527e-12 1.30784e-14 -1.31887e-12 1.01426e-12 1.53282e-12 2.81455e-12 -1.16478e-12 -3.80274e-12 -1.57893e-13 -1.49098e-12 1.39957e-12 -9.21466e-13 -1.81587e-12 1.28226e-13 -9.12469e-13 -2.51287e-13 7.97931e-13 -2.23051e-13 8.35255e-15 -1.31862e-12 2.05532e-12 1.86405e-12 6.03032e-11 3.82983e-09 1.87578e-07 6.91434e-06 0.000182657 0.00321453 0.0336445 0.182042 0.506027 0.65762 0.891834 0.882492 0.73195 0.503506 0.275432 0.110617 0.0298156 0.00572121 0.000905885 0.000127354 1.62324e-05 1.89027e-06 2.02092e-07 1.99148e-08 1.81491e-09 1.52604e-10 1.07088e-11 4.16522e-12 -1.51986e-14 1.48853e-13 4.53392e-15 -2.49117e-12 2.76418e-12 -5.78556e-13 -1.67457e-13 2.21736e-13 -1.94542e-12 2.94966e-12 -8.34761e-13 -3.30736e-13 -2.59048e-13 -1.8776e-12 2.77062e-12 -3.11015e-13 -4.30015e-13 -3.09092e-13 -2.31892e-12 1.05049e-12 -1.07145e-12 6.43132e-13 -1.30788e-12 -1.36815e-12 2.57339e-12 1.22616e-12 -2.89431e-13 -1.28059e-12 4.68906e-13 2.98816e-12 2.70146e-12 -2.23642e-12 -3.85227e-12 -2.28751e-12 1.08572e-12 1.31988e-12 -4.89265e-13 2.18704e-12 -1.42407e-12 2.7367e-12 -1.14513e-12 -2.30653e-12 -3.76157e-13 -4.18278e-12 3.92677e-12 -1.90254e-13 -1.52533e-12 -2.79133e-13 -7.62808e-12 3.69563e-12 3.88402e-12 1.14201e-12 1.00664e-12 -1.98602e-12 1.38942e-12 1.03689e-12 -1.5435e-12 1.29318e-12 -1.9683e-12 1.65502e-13 2.25827e-12 -8.50442e-13 1.15731e-13 -2.37914e-12 1.17252e-12 2.03226e-12 -1.17771e-12 1.26516e-12 -2.83055e-12 -3.65467e-13 -1.12e-12 -2.20887e-12 1.73566e-12 -2.54542e-12 3.22357e-12 1.80341e-12 2.26852e-12 -4.62592e-13 -1.70208e-12 1.49218e-12 6.35128e-13 0
				</DataArray>
				<DataArray Name="VitesseY" type="Float32" format="ascii">