<?xml version="1.0"?>
<VTKFile type="PolyData">
	<PolyData>
		<Piece NumberOfPoints="1206" NumberOfPolys="1000">
			<Points>
				<DataArray type="Float32" NumberOfComponents="3" format="ascii">
 0 0 0 0.005 0 0 0.01 0 0 0.015 0 0 0.02 0 0 0.025 0 0 0.03 0 0 0.035 0 0 0.04 0 0 0.045 0 0 0.05 0 0 0.055 0 0 0.06 0 0 0.065 0 0 0.07 0 0 0.075 0 0 0.08 0 0 0.085 0 0 0.09 0 0 0.095 0 0 0.1 0 0 0.105 0 0 0.11 0 0 0.115 0 0 0.12 0 0 0.125 0 0 0.13 0 0 0.135 0 0 0.14 0 0 0.145 0 0 0.15 0 0 0.155 0 0 0.16 0 0 0.165 0 0 0.17 0 0 0.175 0 0 0.18 0 0 0.185 0 0 0.19 0 0 0.195 0 0 0.2 0 0 0.205 0 0 0.21 0 0 0.215 0 0 0.22 0 0 0.225 0 0 0.23 0 0 0.235 0 0 0.24 0 0 0.245 0 0 0.25 0 0 0.255 0 0 0.26 0 0 0.265 0 0 0.27 0 0 0.275 0 0 0.28 0 0 0.285 0 0 0.29 0 0 0.295 0 0 0.3 0 0 0.305 0 0 0.31 0 0 0.315 0 0 0.32 0 0 0.325 0 0 0.33 0 0 0.335 0 0 0.34 0 0 0.345 0 0 0.35 0 0 0.355 0 0 0.36 0 0 0.365 0 0 0.37 0 0 0.375 0 0 0.38 0 0 0.385 0 0 0.39 0 0 0.395 0 0 0.4 0 0 0.405 0 0 0.41 0 0 0.415 0 0 0.42 0 0 0.425 0 0 0.43 0 0 0.435 0 0 0.44 0 0 0.445 0 0 0.45 0 0 0.455 0 0 0.46 0 0 0.465 0 0 0.47 0 0 0.475 0 0 0.48 0 0 0.485 0 0 0.49 0 0 0.495 0 0 0.5 0 0 0.505 0 0 0.51 0 0 0.515 0 0 0.52 0 0 0.525 0 0 0.53 0 0 0.535 0 0 0.54 0 0 0.545 0 0 0.55 0 0 0.555 0 0 0.56 0 0 0.565 0 0 0.57 0 0 0.575 0 0 0.58 0 0 0.585 0 0 0.59 0 0 0.595 0 0 0.6 0 0 0.605 0 0 0.61 0 0 0.615 0 0 0.62 0 0 0.625 0 0 0.63 0 0 0.635 0 0 0.64 0 0 0.645 0 0 0.65 0 0 0.655 0 0 0.66 0 0 0.665 0 0 0.67 0 0 0.675 0 0 0.68 0 0 0.685 0 0 0.69 0 0 0.695 0 0 0.7 0 0 0.705 0 0 0.71 0 0 0.715 0 0 0.72 0 0 0.725 0 0 0.73 0 0 0.735 0 0 0.74 0 0 0.745 0 0 0.75 0 0 0.755 0 0 0.76 0 0 0.765 0 0 0.77 0 0 0.775 0 0 0.78 0 0 0.785 0 0 0.79 0 0 0.795 0 0 0.8 0 0 0.805 0 0 0.81 0 0 0.815 0 0 0.82 0 0 0.825 0 0 0.83 0 0 0.835 0 0 0.84 0 0 0.845 0 0 0.85 0 0 0.855 0 0 0.86 0 0 0.865 0 0 0.87 0 0 0.875 0 0 0.88 0 0 0.885 0 0 0.89 0 0 0.895 0 0 0.9 0 0 0.905 0 0 0.91 0 0 0.915 0 0 0.92 0 0 0.925 0 0 0.93 0 0 0.935 0 0 0.94 0 0 0.945 0 0 0.95 0 0 0.955 0 0 0.96 0 0 0.965 0 0 0.97 0 0 0.975 0 0 0.98 0 0 0.985 0 0 0.99 0 0 0.995 0 0 1 0 0 0 0.02 0 0.005 0.02 0 0.01 0.02 0 0.015 0.02 0 0.02 0.02 0 0.025 0.02 0 0.03 0.02 0 0.035 0.02 0 0.04 0.02 0 0.045 0.02 0 0.05 0.02 0 0.055 0.02 0 0.06 0.02 0 0.065 0.02 0 0.07 0.02 0 0.075 0.02 0 0.08 0.02 0 0.085 0.02 0 0.09 0.02 0 0.095 0.02 0 0.1 0.02 0 0.105 0.02 0 0.11 0.02 0 0.115 0.02 0 0.12 0.02 0 0.125 0.02 0 0.13 0.02 0 0.135 0.02 0 0.14 0.02 0 0.145 0.02 0 0.15 0.02 0 0.155 0.02 0 0.16 0.02 0 0.165 0.02 0 0.17 0.02 0 0.175 0.02 0 0.18 0.02 0 0.185 0.02 0 0.19 0.02 0 0.195 0.02 0 0.2 0.02 0 0.205 0.02 0 0.21 0.02 0 0.215 0.02 0 0.22 0.02 0 0.225 0.02 0 0.23 0.02 0 0.235 0.02 0 0.24 0.02 0 0.245 0.02 0 0.25 0.02 0 0.255 0.02 0 0.26 0.02 0 0.265 0.02 0 0.27 0.02 0 0.275 0.02 0 0.28 0.02 0 0.285 0.02 0 0.29 0.02 0 0.295 0.02 0 0.3 0.02 0 0.305 0.02 0 0.31 0.02 0 0.315 0.02 0 0.32 0.02 0 0.325 0.02 0 0.33 0.02 0 0.335 0.02 0 0.34 0.02 0 0.345 0.02 0 0.35 0.02 0 0.355 0.02 0 0.36 0.02 0 0.365 0.02 0 0.37 0.02 0 0.375 0.02 0 0.38 0.02 0 0.385 0.02 0 0.39 0.02 0 0.395 0.02 0 0.4 0.02 0 0.405 0.02 0 0.41 0.02 0 0.415 0.02 0 0.42 0.02 0 0.425 0.02 0 0.43 0.02 0 0.435 0.02 0 0.44 0.02 0 0.445 0.02 0 0.45 0.02 0 0.455 0.02 0 0.46 0.02 0 0.465 0.02 0 0.47 0.02 0 0.475 0.02 0 0.48 0.02 0 0.485 0.02 0 0.49 0.02 0 0.495 0.02 0 0.5 0.02 0 0.505 0.02 0 0.51 0.02 0 0.515 0.02 0 0.52 0.02 0 0.525 0.02 0 0.53 0.02 0 0.535 0.02 0 0.54 0.02 0 0.545 0.02 0 0.55 0.02 0 0.555 0.02 0 0.56 0.02 0 0.565 0.02 0 0.57 0.02 0 0.575 0.02 0 0.58 0.02 0 0.585 0.02 0 0.59 0.02 0 0.595 0.02 0 0.6 0.02 0 0.605 0.02 0 0.61 0.02 0 0.615 0.02 0 0.62 0.02 0 0.625 0.02 0 0.63 0.02 0 0.635 0.02 0 0.64 0.02 0 0.645 0.02 0 0.65 0.02 0 0.655 0.02 0 0.66 0.02 0 0.665 0.02 0 0.67 0.02 0 0.675 0.02 0 0.68 0.02 0 0.685 0.02 0 0.69 0.02 0 0.695 0.02 0 0.7 0.02 0 0.705 0.02 0 0.71 0.02 0 0.715 0.02 0 0.72 0.02 0 0.725 0.02 0 0.73 0.02 0 0.735 0.02 0 0.74 0.02 0 0.745 0.02 0 0.75 0.02 0 0.755 0.02 0 0.76 0.02 0 0.765 0.02 0 0.77 0.02 0 0.775 0.02 0 0.78 0.02 0 0.785 0.02 0 0.79 0.02 0 0.795 0.02 0 0.8 0.02 0 0.805 0.02 0 0.81 0.02 0 0.815 0.02 0 0.82 0.02 0 0.825 0.02 0 0.83 0.02 0 0.835 0.02 0 0.84 0.02 0 0.845 0.02 0 0.85 0.02 0 0.855 0.02 0 0.86 0.02 0 0.865 0.02 0 0.87 0.02 0 0.875 0.02 0 0.88 0.02 0 0.885 0.02 0 0.89 0.02 0 0.895 0.02 0 0.9 0.02 0 0.905 0.02 0 0.91 0.02 0 0.915 0.02 0 0.92 0.02 0 0.925 0.02 0 0.93 0.02 0 0.935 0.02 0 0.94 0.02 0 0.945 0.02 0 0.95 0.02 0 0.955 0.02 0 0.96 0.02 0 0.965 0.02 0 0.97 0.02 0 0.975 0.02 0 0.98 0.02 0 0.985 0.02 0 0.99 0.02 0 0.995 0.02 0 1 0.02 0 0 0.04 0 0.005 0.04 0 0.01 0.04 0 0.015 0.04 0 0.02 0.04 0 0.025 0.04 0 0.03 0.04 0 0.035 0.04 0 0.04 0.04 0 0.045 0.04 0 0.05 0.04 0 0.055 0.04 0 0.06 0.04 0 0.065 0.04 0 0.07 0.04 0 0.075 0.04 0 0.08 0.04 0 0.085 0.04 0 0.09 0.04 0 0.095 0.04 0 0.1 0.04 0 0.105 0.04 0 0.11 0.04 0 0.115 0.04 0 0.12 0.04 0 0.125 0.04 0 0.13 0.04 0 0.135 0.04 0 0.14 0.04 0 0.145 0.04 0 0.15 0.04 0 0.155 0.04 0 0.16 0.04 0 0.165 0.04 0 0.17 0.04 0 0.175 0.04 0 0.18 0.04 0 0.185 0.04 0 0.19 0.04 0 0.195 0.04 0 0.2 0.04 0 0.205 0.04 0 0.21 0.04 0 0.215 0.04 0 0.22 0.04 0 0.225 0.04 0 0.23 0.04 0 0.235 0.04 0 0.24 0.04 0 0.245 0.04 0 0.25 0.04 0 0.255 0.04 0 0.26 0.04 0 0.265 0.04 0 0.27 0.04 0 0.275 0.04 0 0.28 0.04 0 0.285 0.04 0 0.29 0.04 0 0.295 0.04 0 0.3 0.04 0 0.305 0.04 0 0.31 0.04 0 0.315 0.04 0 0.32 0.04 0 0.325 0.04 0 0.33 0.04 0 0.335 0.04 0 0.34 0.04 0 0.345 0.04 0 0.35 0.04 0 0.355 0.04 0 0.36 0.04 0 0.365 0.04 0 0.37 0.04 0 0.375 0.04 0 0.38 0.04 0 0.385 0.04 0 0.39 0.04 0 0.395 0.04 0 0.4 0.04 0 0.405 0.04 0 0.41 0.04 0 0.415 0.04 0 0.42 0.04 0 0.425 0.04 0 0.43 0.04 0 0.435 0.04 0 0.44 0.04 0 0.445 0.04 0 0.45 0.04 0 0.455 0.04 0 0.46 0.04 0 0.465 0.04 0 0.47 0.04 0 0.475 0.04 0 0.48 0.04 0 0.485 0.04 0 0.49 0.04 0 0.495 0.04 0 0.5 0.04 0 0.505 0.04 0 0.51 0.04 0 0.515 0.04 0 0.52 0.04 0 0.525 0.04 0 0.53 0.04 0 0.535 0.04 0 0.54 0.04 0 0.545 0.04 0 0.55 0.04 0 0.555 0.04 0 0.56 0.04 0 0.565 0.04 0 0.57 0.04 0 0.575 0.04 0 0.58 0.04 0 0.585 0.04 0 0.59 0.04 0 0.595 0.04 0 0.6 0.04 0 0.605 0.04 0 0.61 0.04 0 0.615 0.04 0 0.62 0.04 0 0.625 0.04 0 0.63 0.04 0 0.635 0.04 0 0.64 0.04 0 0.645 0.04 0 0.65 0.04 0 0.655 0.04 0 0.66 0.04 0 0.665 0.04 0 0.67 0.04 0 0.675 0.04 0 0.68 0.04 0 0.685 0.04 0 0.69 0.04 0 0.695 0.04 0 0.7 0.04 0 0.705 0.04 0 0.71 0.04 0 0.715 0.04 0 0.72 0.04 0 0.725 0.04 0 0.73 0.04 0 0.735 0.04 0 0.74 0.04 0 0.745 0.04 0 0.75 0.04 0 0.755 0.04 0 0.76 0.04 0 0.765 0.04 0 0.77 0.04 0 0.775 0.04 0 0.78 0.04 0 0.785 0.04 0 0.79 0.04 0 0.795 0.04 0 0.8 0.04 0 0.805 0.04 0 0.81 0.04 0 0.815 0.04 0 0.82 0.04 0 0.825 0.04 0 0.83 0.04 0 0.835 0.04 0 0.84 0.04 0 0.845 0.04 0 0.85 0.04 0 0.855 0.04 0 0.86 0.04 0 0.865 0.04 0 0.87 0.04 0 0.875 0.04 0 0.88 0.04 0 0.885 0.04 0 0.89 0.04 0 0.895 0.04 0 0.9 0.04 0 0.905 0.04 0 0.91 0.04 0 0.915 0.04 0 0.92 0.04 0 0.925 0.04 0 0.93 0.04 0 0.935 0.04 0 0.94 0.04 0 0.945 0.04 0 0.95 0.04 0 0.955 0.04 0 0.96 0.04 0 0.965 0.04 0 0.97 0.04 0 0.975 0.04 0 0.98 0.04 0 0.985 0.04 0 0.99 0.04 0 0.995 0.04 0 1 0.04 0 0 0.06 0 0.005 0.06 0 0.01 0.06 0 0.015 0.06 0 0.02 0.06 0 0.025 0.06 0 0.03 0.06 0 0.035 0.06 0 0.04 0.06 0 0.045 0.06 0 0.05 0.06 0 0.055 0.06 0 0.06 0.06 0 0.065 0.06 0 0.07 0.06 0 0.075 0.06 0 0.08 0.06 0 0.085 0.06 0 0.09 0.06 0 0.095 0.06 0 0.1 0.06 0 0.105 0.06 0 0.11 0.06 0 0.115 0.06 0 0.12 0.06 0 0.125 0.06 0 0.13 0.06 0 0.135 0.06 0 0.14 0.06 0 0.145 0.06 0 0.15 0.06 0 0.155 0.06 0 0.16 0.06 0 0.165 0.06 0 0.17 0.06 0 0.175 0.06 0 0.18 0.06 0 0.185 0.06 0 0.19 0.06 0 0.195 0.06 0 0.2 0.06 0 0.205 0.06 0 0.21 0.06 0 0.215 0.06 0 0.22 0.06 0 0.225 0.06 0 0.23 0.06 0 0.235 0.06 0 0.24 0.06 0 0.245 0.06 0 0.25 0.06 0 0.255 0.06 0 0.26 0.06 0 0.265 0.06 0 0.27 0.06 0 0.275 0.06 0 0.28 0.06 0 0.285 0.06 0 0.29 0.06 0 0.295 0.06 0 0.3 0.06 0 0.305 0.06 0 0.31 0.06 0 0.315 0.06 0 0.32 0.06 0 0.325 0.06 0 0.33 0.06 0 0.335 0.06 0 0.34 0.06 0 0.345 0.06 0 0.35 0.06 0 0.355 0.06 0 0.36 0.06 0 0.365 0.06 0 0.37 0.06 0 0.375 0.06 0 0.38 0.06 0 0.385 0.06 0 0.39 0.06 0 0.395 0.06 0 0.4 0.06 0 0.405 0.06 0 0.41 0.06 0 0.415 0.06 0 0.42 0.06 0 0.425 0.06 0 0.43 0.06 0 0.435 0.06 0 0.44 0.06 0 0.445 0.06 0 0.45 0.06 0 0.455 0.06 0 0.46 0.06 0 0.465 0.06 0 0.47 0.06 0 0.475 0.06 0 0.48 0.06 0 0.485 0.06 0 0.49 0.06 0 0.495 0.06 0 0.5 0.06 0 0.505 0.06 0 0.51 0.06 0 0.515 0.06 0 0.52 0.06 0 0.525 0.06 0 0.53 0.06 0 0.535 0.06 0 0.54 0.06 0 0.545 0.06 0 0.55 0.06 0 0.555 0.06 0 0.56 0.06 0 0.565 0.06 0 0.57 0.06 0 0.575 0.06 0 0.58 0.06 0 0.585 0.06 0 0.59 0.06 0 0.595 0.06 0 0.6 0.06 0 0.605 0.06 0 0.61 0.06 0 0.615 0.06 0 0.62 0.06 0 0.625 0.06 0 0.63 0.06 0 0.635 0.06 0 0.64 0.06 0 0.645 0.06 0 0.65 0.06 0 0.655 0.06 0 0.66 0.06 0 0.665 0.06 0 0.67 0.06 0 0.675 0.06 0 0.68 0.06 0 0.685 0.06 0 0.69 0.06 0 0.695 0.06 0 0.7 0.06 0 0.705 0.06 0 0.71 0.06 0 0.715 0.06 0 0.72 0.06 0 0.725 0.06 0 0.73 0.06 0 0.735 0.06 0 0.74 0.06 0 0.745 0.06 0 0.75 0.06 0 0.755 0.06 0 0.76 0.06 0 0.765 0.06 0 0.77 0.06 0 0.775 0.06 0 0.78 0.06 0 0.785 0.06 0 0.79 0.06 0 0.795 0.06 0 0.8 0.06 0 0.805 0.06 0 0.81 0.06 0 0.815 0.06 0 0.82 0.06 0 0.825 0.06 0 0.83 0.06 0 0.835 0.06 0 0.84 0.06 0 0.845 0.06 0 0.85 0.06 0 0.855 0.06 0 0.86 0.06 0 0.865 0.06 0 0.87 0.06 0 0.875 0.06 0 0.88 0.06 0 0.885 0.06 0 0.89 0.06 0 0.895 0.06 0 0.9 0.06 0 0.905 0.06 0 0.91 0.06 0 0.915 0.06 0 0.92 0.06 0 0.925 0.06 0 0.93 0.06 0 0.935 0.06 0 0.94 0.06 0 0.945 0.06 0 0.95 0.06 0 0.955 0.06 0 0.96 0.06 0 0.965 0.06 0 0.97 0.06 0 0.975 0.06 0 0.98 0.06 0 0.985 0.06 0 0.99 0.06 0 0.995 0.06 0 1 0.06 0 0 0.08 0 0.005 0.08 0 0.01 0.08 0 0.015 0.08 0 0.02 0.08 0 0.025 0.08 0 0.03 0.08 0 0.035 0.08 0 0.04 0.08 0 0.045 0.08 0 0.05 0.08 0 0.055 0.08 0 0.06 0.08 0 0.065 0.08 0 0.07 0.08 0 0.075 0.08 0 0.08 0.08 0 0.085 0.08 0 0.09 0.08 0 0.095 0.08 0 0.1 0.08 0 0.105 0.08 0 0.11 0.08 0 0.115 0.08 0 0.12 0.08 0 0.125 0.08 0 0.13 0.08 0 0.135 0.08 0 0.14 0.08 0 0.145 0.08 0 0.15 0.08 0 0.155 0.08 0 0.16 0.08 0 0.165 0.08 0
[...]
			<PointData Scalars="VitesseX">
				<DataArray Name="VitesseX" type="Float32" format="ascii">
 0 -1.29511e-16 3.27819e-14 -1.71668e-13 1.13279e-13 -1.58593e-14 -9.70435e-14 -1.26855e-13 8.54646e-14 -3.54496e-14 -1.74107e-13 2.8337e-13 -4.40528e-13 4.50622e-13 -4.4628e-13 -7.68569e-15 3.06164e-13 -4.70095e-13 4.40165e-13 -2.66582e-13 -4.91929e-14 1.03789e-13 2.1018e-13 -1.35491e-13 -4.81395e-13 -2.47255e-13 2.4205e-13 2.36649e-13 -1.08764e-13 -2.34668e-13 1.21763e-13 -3.58336e-13 4.26086e-13 1.2096e-13 -6.34124e-13 2.89218e-14 -2.39922e-14 4.01434e-13 -4.3183e-13 2.01135e-13 -2.52708e-13 3.1044e-13 -4.38724e-14 -7.24194e-13 -1.01828e-13 6.71018e-13 2.05117e-13 8.04645e-15 -5.69071e-13 -3.28639e-13 9.10994e-14 7.37666e-13 -1.08419e-13 -6.87895e-14 -1.4362e-12 1.90233e-13 1.22088e-12 -6.06858e-13 4.05609e-13 -7.36902e-13 2.66596e-13 4.77385e-13 -1.23893e-13 -6.91676e-14 4.96394e-14 4.08203e-13 -6.52364e-13 -8.73208e-13 5.962e-13 5.02255e-13 -1.80243e-13 2.05327e-13 -1.79156e-12 1.41339e-12 3.607e-13 9.05896e-14 -5.34276e-13 -2.82326e-13 9.13517e-13 -3.0776e-13 -4.32749e-14 -1.49862e-13 -5.33095e-13 -3.24502e-13 -7.74742e-13 1.67784e-12 2.71747e-12 7.07532e-11 2.10577e-09 5.20598e-08 1.05984e-06 1.7361e-05 0.000221865 0.00211897 0.0142432 0.0628081 0.176044 0.342346 0.543901 0.656038 0.789981 0.844244 0.895349 0.94139 0.935332 0.891786 0.795754 0.657456 0.479508 0.296165 0.149689 0.0587366 0.0178752 0.00454486 0.00103789 0.000219879 4.36698e-05 8.16121e-06 1.43802e-06 2.39275e-07 3.76515e-08 5.61067e-09 7.93235e-10 1.06654e-10 1.38149e-11 1.53038e-12 -8.99272e-13 2.65349e-13 6.64293e-13 3.01062e-14 1.76622e-13 -1.19843e-12 3.66485e-13 4.40162e-13 -1.53828e-13 -3.53084e-13 -1.79272e-12 1.64779e-13 8.91524e-13 1.08236e-13 -1.03172e-13 -5.12081e-13 -7.6798e-13 -3.22124e-15 1.45717e-12 1.83917e-13 -1.42528e-13 2.74749e-13 -1.04151e-13 1.48201e-12 -1.26606e-12 -1.25628e-13 1.72386e-13 -1.47752e-13 1.0799e-12 1.10991e-13 -1.32453e-12 -4.28366e-13 1.16958e-12 8.94455e-13 -6.21406e-13 -1.88745e-12 1.77845e-13 1.14126e-12 2.59617e-13 -7.39366e-13 -1.3845e-12 5.81096e-13 7.18547e-13 -9.26388e-13 1.49859e-12 2.85596e-13 -3.57783e-13 -6.01084e-13 -4.82171e-13 1.34348e-12 2.61442e-13 -2.97292e-13 -8.38034e-13 -2.74203e-13 1.1619e-12 6.04825e-13 -6.2892e-13 -8.41898e-13 -3.98124e-13 8.51225e-13 -8.59705e-13 -1.17778e-12 -1.15405e-12 -1.91288e-13 2.53211e-12 -9.15749e-13 -6.59805e-13 -1.76914e-12 2.28818e-12 5.94581e-13 -1.17125e-12 2.2414e-13 6.90847e-13 2.02525e-12 0 0 -1.60305e-14 -6.236e-14 6.41198e-14 -1.44202e-13 -6.69896e-15 5.12067e-14 -4.93807e-14 -1.56799e-13 -8.38015e-14 3.89302e-14 -1.26013e-13 2.90324e-13 -5.0709e-13 2.88367e-13 -1.31318e-13 -3.24347e-13 3.46027e-13 -3.57935e-13 2.77605e-13 1.42103e-13 -5.49878e-14 -1.85568e-13 -8.7893e-15 1.61124e-13 -1.70903e-13 -6.47382e-13 2.23197e-13 3.36663e-13 1.00234e-13 -4.76886e-13 3.74761e-13 -4.49855e-13 -1.92511e-13 5.27143e-13 1.60134e-14 -4.6928e-13 -1.60656e-13 1.18211e-13 7.91787e-14 3.1024e-13 -1.38999e-13 -4.29758e-13 1.50328e-13 -9.57063e-14 -1.33663e-13 -1.03768e-13 2.55456e-13 3.39586e-14 -5.89566e-14 4.23641e-15 -3.37219e-13 -2.34859e-14 -4.93042e-13 3.15183e-13 -1.71221e-13 -2.93177e-13 4.6285e-13 -1.9795e-13 2.53178e-13 -3.61049e-13 1.08314e-13 4.46172e-13 1.10143e-13 1.20859e-13 -4.29949e-13 -1.63956e-13 1.36826e-13 -1.56044e-13 -5.42518e-13 5.26341e-13 -5.68435e-13 5.85534e-13 -6.10181e-13 1.08781e-13 -2.15954e-14 3.49085e-13 1.11795e-13 -6.4969e-13 5.31749e-13 -4.72923e-13 -2.29773e-13 2.8399e-13 -4.01568e-13 1.55441e-13 2.6424e-13 1.78719e-12 7.25319e-11 2.1065e-09 5.20586e-08 1.05984e-06 1.7361e-05 0.000221865 0.00211897 0.0142432 0.0628081 0.176044 0.342346 0.543901 0.656038 0.789981 0.844244 0.895349 0.94139 0.935332 0.891786 0.795754 0.657456 0.479508 0.296165 0.149689 0.0587366 0.0178752 0.00454486 0.00103789 0.000219879 4.36698e-05 8.16121e-06 1.43802e-06 2.39274e-07 3.76522e-08 5.61078e-09 7.92953e-10 1.06434e-10 1.33138e-11 1.80421e-12 -5.89838e-14 1.82027e-13 -2.04483e-14 -2.30436e-13 1.49522e-13 1.00611e-13 -2.97593e-14 -6.90227e-14 -4.89201e-13 -2.13197e-13 -3.17083e-13 -5.85097e-13 1.69691e-13 4.85189e-13 -1.32989e-13 -1.23195e-13 -5.6361e-13 -3.08172e-14 -1.26764e-13 7.06511e-13 9.37751e-13 -3.45854e-13 3.04227e-13 -5.29762e-13 5.96931e-13 2.45852e-13 -5.20483e-13 5.05844e-13 -2.94716e-13 4.90334e-14 1.01387e-13 3.51604e-13 -6.24421e-13 -3.20679e-13 5.60216e-13 2.58923e-13 -3.30265e-13 -8.99253e-13 -7.14709e-13 5.53803e-13 2.26939e-13 2.41293e-13 -1.84782e-13 -3.30999e-14 8.31581e-14 2.04932e-13 1.34992e-13 4.54855e-13 -2.61775e-13 -1.25323e-13 1.98501e-13 1.44395e-13 3.66137e-13 -2.98526e-13 -3.76108e-13 1.91169e-13 -2.30373e-13 5.10935e-13 -5.96863e-13 -5.78246e-13 -6.86194e-13 -9.81834e-13 3.88546e-13 1.63681e-15 -7.82957e-13 7.94831e-13 -2.91947e-13 -2.09769e-13 -1.01199e-12 8.89278e-14 1.74609e-12 3.01794e-14 1.214e-12 -1.11473e-12 0 0 -1.3136e-14 -2.14537e-14 -4.5853e-14 -9.79712e-16 -1.2802e-13 -1.06508e-13 -2.38428e-14 -7.23156e-14 -1.70696e-14 -8.88038e-14 -1.29452e-13 -1.27882e-13 1.1788e-14 -2.03327e-13 -5.25208e-14 3.37385e-14 6.25712e-14 1.23404e-13 -1.3954e-13 9.919e-14 5.96014e-14 1.33286e-13 -1.79437e-13 -2.6046e-13 -1.50958e-13 3.74817e-14 1.58213e-13 1.21989e-13 -2.77698e-13 -6.4086e-14 -9.85522e-14 1.12819e-13 -2.07049e-13 1.17816e-13 -1.02215e-14 9.58381e-14 -5.11951e-13 1.85066e-13 6.21788e-14 -1.08308e-13 -2.14485e-14 -1.53252e-13 -2.8174e-13 2.47511e-13 -2.55357e-13 4.58131e-13 -4.69012e-13 7.8577e-15 -2.02314e-13 -3.77631e-14 -2.67367e-13 -8.68128e-14 1.00899e-13 2.45516e-13 -3.5708e-13 -4.14016e-13 -2.05019e-13 5.77631e-13 2.46464e-13 -2.79481e-13 1.46303e-13 2.34039e-13 5.91179e-13 -3.30755e-13 -3.98084e-13 7.84283e-14 -1.58368e-13 1.19726e-13 -4.47135e-13 -6.44128e-13 6.70059e-13 3.53373e-13 -3.78912e-13 -8.38373e-13 2.61724e-13 4.3939e-13 -1.55077e-13 -5.78386e-13 -6.45939e-13 8.72626e-13 -3.54372e-13 4.45375e-14 7.07259e-13 -9.18333e-14 -1.0376e-12 2.39218e-12 7.24445e-11 2.10647e-09 5.20595e-08 1.05983e-06 1.7361e-05 0.000221865 0.00211897 0.0142432 0.0628081 0.176044 0.342346 0.543901 0.656038 0.789981 0.844244 0.895349 0.94139 0.935332 0.891786 0.795754 0.657456 0.479508 0.296165 0.149689 0.0587366 0.0178752 0.00454486 0.00103789 0.000219879 4.36698e-05 8.16121e-06 1.43802e-06 2.39275e-07 3.76512e-08 5.61178e-09 7.92979e-10 1.05828e-10 1.33884e-11 9.2477e-13 1.3652e-12 1.14195e-13 -8.23106e-13 3.06475e-13 -9.50709e-13 1.54762e-12 6.60827e-15 -5.83118e-13 -1.41882e-13 -1.13677e-12 1.08302e-12 -2.54822e-13 -1.28411e-12 4.5417e-13 -1.80183e-13 3.86842e-13 1.09045e-12 -1.26456e-12 -9.77096e-13 1.01824e-12 1.97078e-13 1.15549e-12 -6.49181e-13 -5.2936e-13 5.44258e-13 -3.18504e-13 1.17595e-12 -4.54907e-13 -3.08495e-13 -1.41335e-12 1.84602e-12 6.2187e-13 -4.00207e-13 -7.69772e-13 -4.65668e-13 1.00392e-12 -3.90387e-13 -1.24733e-12 -2.92435e-13 1.93882e-13 1.31843e-12 -1.05207e-12 -7.08975e-13 7.52107e-13 -3.36905e-13 7.61992e-13 1.00394e-12 -6.41848e-13 -1.42126e-13 -8.91412e-13 8.73252e-13 7.32139e-13 -4.97493e-13 -6.19691e-15 -7.39155e-13 3.09063e-13 6.75227e-13 -5.96032e-13 -1.09773e-13 -1.32058e-12 -1.31152e-13 1.93078e-13 -1.05636e-12 7.17518e-13 -1.36277e-12 -2.91411e-13 2.04251e-12 -1.01319e-12 -1.74521e-12 5.61306e-13 1.50366e-12 1.64755e-12 -1.53756e-12 -2.28713e-13 0 0 -1.4034e-14 7.76839e-15 -9.57349e-14 -3.97235e-14 -3.76833e-14 -4.76037e-14 -4.46367e-14 -1.86113e-13 -1.68718e-13 -2.12971e-13 2.51117e-13 -2.09125e-13 9.26406e-14 -3.51098e-13 -8.47892e-14 1.85251e-13 -2.89461e-13 2.80808e-13 5.17712e-14 6.54503e-14 -7.54552e-14 -1.27712e-13 -5.55119e-14 -1.58746e-13 -1.47509e-13 1.35146e-13 -1.50969e-13 1.47764e-13 -3.89902e-14 -3.04879e-14 -3.59886e-13 6.67547e-14 -1.15719e-13 -5.14206e-14 1.9119e-13 1.11516e-13 2.69019e-13 -5.58132e-13 -2.05309e-13 -1.255e-13 9.8526e-14 -4.05113e-14 -4.17802e-13 3.16401e-14 5.68396e-13 -9.63801e-14 -9.0583e-15 -5.62436e-13 -6.196e-13 -5.75812e-14 6.43858e-13 3.2519e-13 -5.64536e-13 -4.18639e-13 3.76401e-14 2.53942e-13 4.39935e-13 -1.90744e-13 -3.99314e-13 -3.43091e-13 3.67056e-13 4.33542e-13 3.7448e-13 -1.24137e-13 -3.73777e-13 -5.11929e-13 -3.43723e-14 -2.10749e-13 9.39886e-13 -1.21588e-13 -2.51585e-13 -3.76643e-13 1.46194e-14 1.69238e-13 -3.24047e-14 -7.55277e-13 1.36898e-13 -1.80757e-13 -9.40073e-13 6.2312e-14 4.9167e-13 3.57561e-13 -6.02315e-13 1.17267e-13 4.03354e-13 1.65029e-12 7.10672e-11 2.10604e-09 5.20609e-08 1.05984e-06 1.7361e-05 0.000221865 0.00211897 0.0142432 0.0628081 0.176044 0.342346 0.543901 0.656038 0.789981 0.844244 0.895349 0.94139 0.935332 0.891786 0.795754 0.657456 0.479508 0.296165 0.149689 0.0587366 0.0178752 0.00454486 0.00103789 0.000219879 4.36698e-05 8.16121e-06 1.43802e-06 2.39274e-07 3.76515e-08 5.61105e-09 7.92862e-10 1.06514e-10 1.30581e-11 1.63338e-12 3.35942e-13 2.91489e-13 2.00189e-13 -3.65488e-13 -1.64847e-13 -8.78023e-14 4.32432e-13 1.48686e-13 -6.24197e-13 -1.02926e-13 -5.16944e-13 -4.34426e-13 -2.5143e-13 -1.21942e-12 6.73925e-13 1.31618e-12 -3.94144e-13 -3.1462e-13 -1.52059e-13 -3.82249e-13 6.1101e-13 6.91933e-13 -2.53159e-13 -3.28731e-13 -7.49532e-13 1.05019e-12 1.24755e-12 -1.3833e-13 -4.494e-13 -9.5415e-13 -1.95933e-13 -2.62712e-13 1.26324e-12 6.47422e-13 -8.67072e-13 -1.22152e-12 -4.0976e-13 3.50856e-13 -1.23566e-13 -1.25613e-12 6.18835e-13 4.32888e-13 4.42134e-13 -1.16397e-12 2.75333e-13 1.38283e-12 2.13262e-13 -8.96199e-13 -7.18875e-13 7.86549e-13 1.28579e-12 -3.01983e-13 -1.25244e-12 -5.88328e-13 4.42428e-13 1.51854e-12 -5.4869e-13 -1.03791e-12 -7.09277e-13 -1.1726e-13 4.5027e-13 -1.19673e-12 -1.49981e-12 -3.03592e-13 3.09684e-12 4.88825e-13 -2.13306e-12 -1.7513e-12 1.62576e-13 1.21137e-12 -1.72044e-13 9.69058e-14 2.95021e-13 7.88007e-13 0 0 -1.25272e-14 -3.07547e-14 4.21656e-14 -1.99035e-13 -4.52634e-14 -5.35024e-15 -1.37742e-13 -1.92869e-13 -1.26459e-13 -1.71976e-14 -5.1733e-14 1.32221e-13 -4.85334e-13 2.7567e-13 -3.02912e-14 -2.49541e-14 2.37108e-13 -3.55916e-13 1.58141e-13 -8.87127e-14 -1.01854e-13 -4.4677e-13 -1.20885e-13 5.80617e-14 -6.37891e-14 -3.49231e-13 4.90299e-14 1.08464e-13 8.11956e-14 -2.18305e-13 3.40355e-13 -4.28486e-13 -8.65272e-14 7.03429e-13 1.98311e-13 -7.8076e-14 2.86602e-13 -3.20974e-13 -3.77426e-13 -5.11401e-15 -4.14078e-13 -4.34658e-13 8.91348e-14 -6.27508e-14 2.30047e-13 -2.37622e-13 1.75455e-13 -3.10864e-13 -4.35312e-13 2.03275e-13 1.26104e-13 -6.50285e-14 -7.63788e-13 2.46645e-13 1.93284e-13 -3.05316e-13 6.70057e-13 -4.79081e-13 1.39336e-13 -4.02757e-13 2.36415e-13 5.65153e-13 9.64436e-14 1.91844e-13 -5.66899e-13 -5.6204e-13 3.96764e-13 -4.61855e-13 4.2766e-13 8.34342e-13 -6.7847e-13 8.95229e-13 -6.50115e-13 3.30261e-13 -5.38427e-13 -6.52926e-13 -1.02124e-13 -9.86365e-13 -2.3539e-13 -8.08587e-13 4.36749e-13 1.90634e-13 -1.24427e-12 4.77193e-13 5.84923e-13 1.25032e-12 7.19889e-11 2.10675e-09 5.20589e-08 1.05984e-06 1.7361e-05 0.000221865 0.00211897 0.0142432 0.0628081 0.176044 0.342346 0.543901 0.656038 0.789981 0.844244 0.895349 0.94139 0.935332 0.891786 0.795754 0.657456 0.479508 0.296165 0.149689 0.0587366 0.0178752 0.00454486 0.00103789 0.000219879 4.36698e-05 8.16121e-06 1.43802e-06 2.39274e-07 3.76523e-08 5.61014e-09 7.92916e-10 1.06646e-10 1.33336e-11 2.34794e-12 -4.38049e-13 -3.52435e-13 2.71633e-13 -3.36182e-13 9.15783e-13 -6.46011e-13 -1.12367e-13 -1.09968e-13 -4.36713e-13 2.8171e-13 -8.80088e-13 -1.20107e-12 2.76108e-13 -4.39936e-13 8.04105e-13 5.83522e-13 -1.75497e-12 3.37188e-13 5.51424e-13 4.90052e-13 1.53981e-12 -5.02304e-13 6.07057e-13 -3.35957e-13 2.33314e-14 5.82329e-13 -6.8645e-13 3.80393e-13 -4.98542e-13 -1.69308e-13 -1.62748e-12 -9.25433e-13 -1.30638e-13 1.69455e-12 1.2984e-12 -1.17392e-12 -1.73091e-12 -1.87306e-12 -9.97941e-13 2.31695e-13 5.94827e-13 2.02564e-12 1.21364e-13 -1.30827e-12 -5.98941e-13 1.09323e-13 3.32203e-13 1.198e-12 5.07338e-13 2.40578e-13 -1.03848e-12 -4.84157e-13 1.39077e-12 2.94156e-13 -5.53565e-13 -3.62611e-13 -9.98161e-13 1.03624e-12 5.98641e-15 -5.79996e-13 -1.48168e-12 -2.37968e-12 6.84749e-13 1.03557e-12 1.72337e-12 9.65537e-13 -3.08101e-12 -8.37969e-13 -8.95211e-13 1.20601e-12 1.49965e-12 -3.01841e-13 1.97177e-12 -1.05699e-12 0 0 8.67307e-15 3.75483e-14 -1.15813e-13 8.11005e-14 -2.73663e-13 -3.27966e-13 -2.6199e-13 2.40919e-13 1.82532e-13 -3.80296e-14 -3.29207e-13 -5.94248e-13 3.32429e-13 -1.76132e-13 2.58904e-13 6.01925e-13 1.61307e-14 1.29393e-13 -8.88132e-13 -4.43345e-13 2.80169e-13 2.09772e-13 -6.07531e-13 -8.90948e-13 -3.99266e-14 6.43023e-13 5.06678e-13 -6.16714e-13 -7.5016e-13 5.71729e-13 9.55203e-14 5.60953e-13 1.50268e-13 5.69218e-14 -9.3064e-15 7.2706e-13 -2.65988e-13 1.76196e-13 -1.77098e-13 -8.49032e-13 -4.79666e-13 -2.79153e-13 -5.74456e-13 3.95824e-13 -2.49067e-13 1.04643e-12 -1.07186e-12 -1.18128e-13 -2.46778e-13 5.28813e-13 -1.58138e-13 -1.01551e-12 7.20588e-13 -2.4497e-13 1.29805e-13 -1.39314e-13 -1.48235e-12 1.3801e-12 3.26968e-13 3.10399e-13 2.92082e-13 -2.84936e-13 3.36833e-13 -2.21627e-13 8.56877e-14 -2.67818e-13 -6.01322e-13 6.45527e-13 -3.31432e-13 -6.0932e-13 1.82855e-12 2.87864e-13 5.46461e-13 -1.21156e-12 -3.54817e-13 -1.48964e-13 -1.29412e-12 -5.55091e-13 -1.25377e-12 9.06024e-13 -5.08901e-13 -1.34585e-12 6.09236e-13 -5.4944e-13 -5.62694e-13 3.1275e-12 7.24218e-11 2.10713e-09 5.20577e-08 1.05984e-06 1.7361e-05 0.000221865 0.00211897 0.0142432 0.0628081 0.176044 0.342346 0.543901 0.656038 0.789981 0.844244 0.895349 0.94139 0.935332 0.891786 0.795754 0.657456 0.479508 0.296165 0.149689 0.0587366 0.0178752 0.00454486 0.00103789 0.000219879 4.36698e-05 8.16121e-06 1.43802e-06 2.39276e-07 3.7651e-08 5.61086e-09 7.93393e-10 1.05706e-10 1.45154e-11 1.20062e-12 4.0111e-13 -1.15816e-12 -7.98135e-13 1.16254e-12 1.3742e-13 5.79166e-13 -6.50378e-13 -1.10534e-12 9.15778e-13 -1.43095e-12 2.812e-13 -7.07948e-13 -9.61012e-13 1.60516e-12 6.27987e-14 -9.57331e-13 -1.81526e-13 -1.16709e-12 1.16347e-12 2.55199e-12 2.33728e-13 8.88967e-13 -2.90535e-13 1.46836e-12 1.74317e-13 -2.19005e-12 -3.02735e-13 -1.03181e-12 9.5406e-13 -1.24409e-12 -6.98356e-13 -1.21328e-12 -1.16974e-12 2.09053e-12 1.65777e-12 -3.02245e-13 -2.58471e-12 -4.00272e-12 -6.44583e-13 1.51644e-12 7.50471e-13 1.17987e-12 -9.71379e-13 3.55428e-13 -1.09008e-12 -1.1473e-12 1.618e-12 1.39391e-12 2.20955e-12 -1.28064e-12 -3.03758e-12 5.13848e-13 2.72112e-12 2.07542e-12 -1.55618e-12 -2.9217e-12 2.83339e-13 1.09246e-12 2.00658e-12 -1.55892e-12 -3.61353e-12 -1.19386e-12 3.25259e-13 3.9188e-12 -1.37445e-12 -2.13481e-12 2.11321e-12 -1.54932e-12 -1.29384e-12 1.52861e-12 1.6873e-12 2.66138e-12 -1.45877e-12 1.07281e-13 0
				</DataArray>
				<DataArray Name="VitesseY" type="Float32" format="ascii">