<?xml version="1.0"?>
<VTKFile type="PolyData">
	<PolyData>
		<Piece NumberOfPoints="1206" NumberOfPolys="1000">
			<Points>
				<DataArray type="Float32" NumberOfComponents="3" format="ascii">
 0 0 0 0.005 0 0 0.01 0 0 0.015 0 0 0.02 0 0 0.025 0 0 0.03 0 0 0.035 0 0 0.04 0 0 0.045 0 0 0.05 0 0 0.055 0 0 0.06 0 0 0.065 0 0 0.07 0 0 0.075 0 0 0.08 0 0 0.085 0 0 0.09 0 0 0.095 0 0 0.1 0 0 0.105 0 0 0.11 0 0 0.115 0 0 0.12 0 0 0.125 0 0 0.13 0 0 0.135 0 0 0.14 0 0 0.145 0 0 0.15 0 0 0.155 0 0 0.16 0 0 0.165 0 0 0.17 0 0 0.175 0 0 0.18 0 0 0.185 0 0 0.19 0 0 0.195 0 0 0.2 0 0 0.205 0 0 0.21 0 0 0.215 0 0 0.22 0 0 0.225 0 0 0.23 0 0 0.235 0 0 0.24 0 0 0.245 0 0 0.25 0 0 0.255 0 0 0.26 0 0 0.265 0 0 0.27 0 0 0.275 0 0 0.28 0 0 0.285 0 0 0.29 0 0 0.295 0 0 0.3 0 0 0.305 0 0 0.31 0 0 0.315 0 0 0.32 0 0 0.325 0 0 0.33 0 0 0.335 0 0 0.34 0 0 0.345 0 0 0.35 0 0 0.355 0 0 0.36 0 0 0.365 0 0 0.37 0 0 0.375 0 0 0.38 0 0 0.385 0 0 0.39 0 0 0.395 0 0 0.4 0 0 0.405 0 0 0.41 0 0 0.415 0 0 0.42 0 0 0.425 0 0 0.43 0 0 0.435 0 0 0.44 0 0 0.445 0 0 0.45 0 0 0.455 0 0 0.46 0 0 0.465 0 0 0.47 0 0 0.475 0 0 0.48 0 0 0.485 0 0 0.49 0 0 0.495 0 0 0.5 0 0 0.505 0 0 0.51 0 0 0.515 0 0 0.52 0 0 0.525 0 0 0.53 0 0 0.535 0 0 0.54 0 0 0.545 0 0 0.55 0 0 0.555 0 0 0.56 0 0 0.565 0 0 0.57 0 0 0.575 0 0 0.58 0 0 0.585 0 0 0.59 0 0 0.595 0 0 0.6 0 0 0.605 0 0 0.61 0 0 0.615 0 0 0.62 0 0 0.625 0 0 0.63 0 0 0.635 0 0 0.64 0 0 0.645 0 0 0.65 0 0 0.655 0 0 0.66 0 0 0.665 0 0 0.67 0 0 0.675 0 0 0.68 0 0 0.685 0 0 0.69 0 0 0.695 0 0 0.7 0 0 0.705 0 0 0.71 0 0 0.715 0 0 0.72 0 0 0.725 0 0 0.73 0 0 0.735 0 0 0.74 0 0 0.745 0 0 0.75 0 0 0.755 0 0 0.76 0 0 0.765 0 0 0.77 0 0 0.775 0 0 0.78 0 0 0.785 0 0 0.79 0 0 0.795 0 0 0.8 0 0 0.805 0 0 0.81 0 0 0.815 0 0 0.82 0 0 0.825 0 0 0.83 0 0 0.835 0 0 0.84 0 0 0.845 0 0 0.85 0 0 0.855 0 0 0.86 0 0 0.865 0 0 0.87 0 0 0.875 0 0 0.88 0 0 0.885 0 0 0.89 0 0 0.895 0 0 0.9 0 0 0.905 0 0 0.91 0 0 0.915 0 0 0.92 0 0 0.925 0 0 0.93 0 0 0.935 0 0 0.94 0 0 0.945 0 0 0.95 0 0 0.955 0 0 0.96 0 0 0.965 0 0 0.97 0 0 0.975 0 0 0.98 0 0 0.985 0 0 0.99 0 0 0.995 0 0 1 0 0 0 0.02 0 0.005 0.02 0 0.01 0.02 0 0.015 0.02 0 0.02 0.02 0 0.025 0.02 0 0.03 0.02 0 0.035 0.02 0 0.04 0.02 0 0.045 0.02 0 0.05 0.02 0 0.055 0.02 0 0.06 0.02 0 0.065 0.02 0 0.07 0.02 0 0.075 0.02 0 0.08 0.02 0 0.085 0.02 0 0.09 0.02 0 0.095 0.02 0 0.1 0.02 0 0.105 0.02 0 0.11 0.02 0 0.115 0.02 0 0.12 0.02 0 0.125 0.02 0 0.13 0.02 0 0.135 0.02 0 0.14 0.02 0 0.145 0.02 0 0.15 0.02 0 0.155 0.02 0 0.16 0.02 0 0.165 0.02 0 0.17 0.02 0 0.175 0.02 0 0.18 0.02 0 0.185 0.02 0 0.19 0.02 0 0.195 0.02 0 0.2 0.02 0 0.205 0.02 0 0.21 0.02 0 0.215 0.02 0 0.22 0.02 0 0.225 0.02 0 0.23 0.02 0 0.235 0.02 0 0.24 0.02 0 0.245 0.02 0 0.25 0.02 0 0.255 0.02 0 0.26 0.02 0 0.265 0.02 0 0.27 0.02 0 0.275 0.02 0 0.28 0.02 0 0.285 0.02 0 0.29 0.02 0 0.295 0.02 0 0.3 0.02 0 0.305 0.02 0 0.31 0.02 0 0.315 0.02 0 0.32 0.02 0 0.325 0.02 0 0.33 0.02 0 0.335 0.02 0 0.34 0.02 0 0.345 0.02 0 0.35 0.02 0 0.355 0.02 0 0.36 0.02 0 0.365 0.02 0 0.37 0.02 0 0.375 0.02 0 0.38 0.02 0 0.385 0.02 0 0.39 0.02 0 0.395 0.02 0 0.4 0.02 0 0.405 0.02 0 0.41 0.02 0 0.415 0.02 0 0.42 0.02 0 0.425 0.02 0 0.43 0.02 0 0.435 0.02 0 0.44 0.02 0 0.445 0.02 0 0.45 0.02 0 0.455 0.02 0 0.46 0.02 0 0.465 0.02 0 0.47 0.02 0 0.475 0.02 0 0.48 0.02 0 0.485 0.02 0 0.49 0.02 0 0.495 0.02 0 0.5 0.02 0 0.505 0.02 0 0.51 0.02 0 0.515 0.02 0 0.52 0.02 0 0.525 0.02 0 0.53 0.02 0 0.535 0.02 0 0.54 0.02 0 0.545 0.02 0 0.55 0.02 0 0.555 0.02 0 0.56 0.02 0 0.565 0.02 0 0.57 0.02 0 0.575 0.02 0 0.58 0.02 0 0.585 0.02 0 0.59 0.02 0 0.595 0.02 0 0.6 0.02 0 0.605 0.02 0 0.61 0.02 0 0.615 0.02 0 0.62 0.02 0 0.625 0.02 0 0.63 0.02 0 0.635 0.02 0 0.64 0.02 0 0.645 0.02 0 0.65 0.02 0 0.655 0.02 0 0.66 0.02 0 0.665 0.02 0 0.67 0.02 0 0.675 0.02 0 0.68 0.02 0 0.685 0.02 0 0.69 0.02 0 0.695 0.02 0 0.7 0.02 0 0.705 0.02 0 0.71 0.02 0 0.715 0.02 0 0.72 0.02 0 0.725 0.02 0 0.73 0.02 0 0.735 0.02 0 0.74 0.02 0 0.745 0.02 0 0.75 0.02 0 0.755 0.02 0 0.76 0.02 0 0.765 0.02 0 0.77 0.02 0 0.775 0.02 0 0.78 0.02 0 0.785 0.02 0 0.79 0.02 0 0.795 0.02 0 0.8 0.02 0 0.805 0.02 0 0.81 0.02 0 0.815 0.02 0 0.82 0.02 0 0.825 0.02 0 0.83 0.02 0 0.835 0.02 0 0.84 0.02 0 0.845 0.02 0 0.85 0.02 0 0.855 0.02 0 0.86 0.02 0 0.865 0.02 0 0.87 0.02 0 0.875 0.02 0 0.88 0.02 0 0.885 0.02 0 0.89 0.02 0 0.895 0.02 0 0.9 0.02 0 0.905 0.02 0 0.91 0.02 0 0.915 0.02 0 0.92 0.02 0 0.925 0.02 0 0.93 0.02 0 0.935 0.02 0 0.94 0.02 0 0.945 0.02 0 0.95 0.02 0 0.955 0.02 0 0.96 0.02 0 0.965 0.02 0 0.97 0.02 0 0.975 0.02 0 0.98 0.02 0 0.985 0.02 0 0.99 0.02 0 0.995 0.02 0 1 0.02 0 0 0.04 0 0.005 0.04 0 0.01 0.04 0 0.015 0.04 0 0.02 0.04 0 0.025 0.04 0 0.03 0.04 0 0.035 0.04 0 0.04 0.04 0 0.045 0.04 0 0.05 0.04 0 0.055 0.04 0 0.06 0.04 0 0.065 0.04 0 0.07 0.04 0 0.075 0.04 0 0.08 0.04 0 0.085 0.04 0 0.09 0.04 0 0.095 0.04 0 0.1 0.04 0 0.105 0.04 0 0.11 0.04 0 0.115 0.04 0 0.12 0.04 0 0.125 0.04 0 0.13 0.04 0 0.135 0.04 0 0.14 0.04 0 0.145 0.04 0 0.15 0.04 0 0.155 0.04 0 0.16 0.04 0 0.165 0.04 0 0.17 0.04 0 0.175 0.04 0 0.18 0.04 0 0.185 0.04 0 0.19 0.04 0 0.195 0.04 0 0.2 0.04 0 0.205 0.04 0 0.21 0.04 0 0.215 0.04 0 0.22 0.04 0 0.225 0.04 0 0.23 0.04 0 0.235 0.04 0 0.24 0.04 0 0.245 0.04 0 0.25 0.04 0 0.255 0.04 0 0.26 0.04 0 0.265 0.04 0 0.27 0.04 0 0.275 0.04 0 0.28 0.04 0 0.285 0.04 0 0.29 0.04 0 0.295 0.04 0 0.3 0.04 0 0.305 0.04 0 0.31 0.04 0 0.315 0.04 0 0.32 0.04 0 0.325 0.04 0 0.33 0.04 0 0.335 0.04 0 0.34 0.04 0 0.345 0.04 0 0.35 0.04 0 0.355 0.04 0 0.36 0.04 0 0.365 0.04 0 0.37 0.04 0 0.375 0.04 0 0.38 0.04 0 0.385 0.04 0 0.39 0.04 0 0.395 0.04 0 0.4 0.04 0 0.405 0.04 0 0.41 0.04 0 0.415 0.04 0 0.42 0.04 0 0.425 0.04 0 0.43 0.04 0 0.435 0.04 0 0.44 0.04 0 0.445 0.04 0 0.45 0.04 0 0.455 0.04 0 0.46 0.04 0 0.465 0.04 0 0.47 0.04 0 0.475 0.04 0 0.48 0.04 0 0.485 0.04 0 0.49 0.04 0 0.495 0.04 0 0.5 0.04 0 0.505 0.04 0 0.51 0.04 0 0.515 0.04 0 0.52 0.04 0 0.525 0.04 0 0.53 0.04 0 0.535 0.04 0 0.54 0.04 0 0.545 0.04 0 0.55 0.04 0 0.555 0.04 0 0.56 0.04 0 0.565 0.04 0 0.57 0.04 0 0.575 0.04 0 0.58 0.04 0 0.585 0.04 0 0.59 0.04 0 0.595 0.04 0 0.6 0.04 0 0.605 0.04 0 0.61 0.04 0 0.615 0.04 0 0.62 0.04 0 0.625 0.04 0 0.63 0.04 0 0.635 0.04 0 0.64 0.04 0 0.645 0.04 0 0.65 0.04 0 0.655 0.04 0 0.66 0.04 0 0.665 0.04 0 0.67 0.04 0 0.675 0.04 0 0.68 0.04 0 0.685 0.04 0 0.69 0.04 0 0.695 0.04 0 0.7 0.04 0 0.705 0.04 0 0.71 0.04 0 0.715 0.04 0 0.72 0.04 0 0.725 0.04 0 0.73 0.04 0 0.735 0.04 0 0.74 0.04 0 0.745 0.04 0 0.75 0.04 0 0.755 0.04 0 0.76 0.04 0 0.765 0.04 0 0.77 0.04 0 0.775 0.04 0 0.78 0.04 0 0.785 0.04 0 0.79 0.04 0 0.795 0.04 0 0.8 0.04 0 0.805 0.04 0 0.81 0.04 0 0.815 0.04 0 0.82 0.04 0 0.825 0.04 0 0.83 0.04 0 0.835 0.04 0 0.84 0.04 0 0.845 0.04 0 0.85 0.04 0 0.855 0.04 0 0.86 0.04 0 0.865 0.04 0 0.87 0.04 0 0.875 0.04 0 0.88 0.04 0 0.885 0.04 0 0.89 0.04 0 0.895 0.04 0 0.9 0.04 0 0.905 0.04 0 0.91 0.04 0 0.915 0.04 0 0.92 0.04 0 0.925 0.04 0 0.93 0.04 0 0.935 0.04 0 0.94 0.04 0 0.945 0.04 0 0.95 0.04 0 0.955 0.04 0 0.96 0.04 0 0.965 0.04 0 0.97 0.04 0 0.975 0.04 0 0.98 0.04 0 0.985 0.04 0 0.99 0.04 0 0.995 0.04 0 1 0.04 0 0 0.06 0 0.005 0.06 0 0.01 0.06 0 0.015 0.06 0 0.02 0.06 0 0.025 0.06 0 0.03 0.06 0 0.035 0.06 0 0.04 0.06 0 0.045 0.06 0 0.05 0.06 0 0.055 0.06 0 0.06 0.06 0 0.065 0.06 0 0.07 0.06 0 0.075 0.06 0 0.08 0.06 0 0.085 0.06 0 0.09 0.06 0 0.095 0.06 0 0.1 0.06 0 0.105 0.06 0 0.11 0.06 0 0.115 0.06 0 0.12 0.06 0 0.125 0.06 0 0.13 0.06 0 0.135 0.06 0 0.14 0.06 0 0.145 0.06 0 0.15 0.06 0 0.155 0.06 0 0.16 0.06 0 0.165 0.06 0 0.17 0.06 0 0.175 0.06 0 0.18 0.06 0 0.185 0.06 0 0.19 0.06 0 0.195 0.06 0 0.2 0.06 0 0.205 0.06 0 0.21 0.06 0 0.215 0.06 0 0.22 0.06 0 0.225 0.06 0 0.23 0.06 0 0.235 0.06 0 0.24 0.06 0 0.245 0.06 0 0.25 0.06 0 0.255 0.06 0 0.26 0.06 0 0.265 0.06 0 0.27 0.06 0 0.275 0.06 0 0.28 0.06 0 0.285 0.06 0 0.29 0.06 0 0.295 0.06 0 0.3 0.06 0 0.305 0.06 0 0.31 0.06 0 0.315 0.06 0 0.32 0.06 0 0.325 0.06 0 0.33 0.06 0 0.335 0.06 0 0.34 0.06 0 0.345 0.06 0 0.35 0.06 0 0.355 0.06 0 0.36 0.06 0 0.365 0.06 0 0.37 0.06 0 0.375 0.06 0 0.38 0.06 0 0.385 0.06 0 0.39 0.06 0 0.395 0.06 0 0.4 0.06 0 0.405 0.06 0 0.41 0.06 0 0.415 0.06 0 0.42 0.06 0 0.425 0.06 0 0.43 0.06 0 0.435 0.06 0 0.44 0.06 0 0.445 0.06 0 0.45 0.06 0 0.455 0.06 0 0.46 0.06 0 0.465 0.06 0 0.47 0.06 0 0.475 0.06 0 0.48 0.06 0 0.485 0.06 0 0.49 0.06 0 0.495 0.06 0 0.5 0.06 0 0.505 0.06 0 0.51 0.06 0 0.515 0.06 0 0.52 0.06 0 0.525 0.06 0 0.53 0.06 0 0.535 0.06 0 0.54 0.06 0 0.545 0.06 0 0.55 0.06 0 0.555 0.06 0 0.56 0.06 0 0.565 0.06 0 0.57 0.06 0 0.575 0.06 0 0.58 0.06 0 0.585 0.06 0 0.59 0.06 0 0.595 0.06 0 0.6 0.06 0 0.605 0.06 0 0.61 0.06 0 0.615 0.06 0 0.62 0.06 0 0.625 0.06 0 0.63 0.06 0 0.635 0.06 0 0.64 0.06 0 0.645 0.06 0 0.65 0.06 0 0.655 0.06 0 0.66 0.06 0 0.665 0.06 0 0.67 0.06 0 0.675 0.06 0 0.68 0.06 0 0.685 0.06 0 0.69 0.06 0 0.695 0.06 0 0.7 0.06 0 0.705 0.06 0 0.71 0.06 0 0.715 0.06 0 0.72 0.06 0 0.725 0.06 0 0.73 0.06 0 0.735 0.06 0 0.74 0.06 0 0.745 0.06 0 0.75 0.06 0 0.755 0.06 0 0.76 0.06 0 0.765 0.06 0 0.77 0.06 0 0.775 0.06 0 0.78 0.06 0 0.785 0.06 0 0.79 0.06 0 0.795 0.06 0 0.8 0.06 0 0.805 0.06 0 0.81 0.06 0 0.815 0.06 0 0.82 0.06 0 0.825 0.06 0 0.83 0.06 0 0.835 0.06 0 0.84 0.06 0 0.845 0.06 0 0.85 0.06 0 0.855 0.06 0 0.86 0.06 0 0.865 0.06 0 0.87 0.06 0 0.875 0.06 0 0.88 0.06 0 0.885 0.06 0 0.89 0.06 0 0.895 0.06 0 0.9 0.06 0 0.905 0.06 0 0.91 0.06 0 0.915 0.06 0 0.92 0.06 0 0.925 0.06 0 0.93 0.06 0 0.935 0.06 0 0.94 0.06 0 0.945 0.06 0 0.95 0.06 0 0.955 0.06 0 0.96 0.06 0 0.965 0.06 0 0.97 0.06 0 0.975 0.06 0 0.98 0.06 0 0.985 0.06 0 0.99 0.06 0 0.995 0.06 0 1 0.06 0 0 0.08 0 0.005 0.08 0 0.01 0.08 0 0.015 0.08 0 0.02 0.08 0 0.025 0.08 0 0.03 0.08 0 0.035 0.08 0 0.04 0.08 0 0.045 0.08 0 0.05 0.08 0 0.055 0.08 0 0.06 0.08 0 0.065 0.08 0 0.07 0.08 0 0.075 0.08 0 0.08 0.08 0 0.085 0.08 0 0.09 0.08 0 0.095 0.08 0 0.1 0.08 0 0.105 0.08 0 0.11 0.08 0 0.115 0.08 0 0.12 0.08 0 0.125 0.08 0 0.13 0.08 0 0.135 0.08 0 0.14 0.08 0 0.145 0.08 0 0.15 0.08 0 0.155 0.08 0 0.16 0.08 0 0.165 0.08 0
[...]
			<PointData Scalars="VitesseX">
				<DataArray Name="VitesseX" type="Float32" format="ascii">
 0 -1.81203e-14 1.43502e-14 -6.30558e-14 2.68254e-14 -2.60618e-14 -1.19908e-14 -1.03241e-13 1.33325e-15 -5.66639e-14 -7.8701e-14 -1.13072e-14 -7.82909e-14 -3.78217e-14 -1.35094e-13 3.74959e-14 -1.5107e-13 -9.26364e-14 -5.62071e-15 -5.45842e-14 2.67899e-14 -3.5065e-14 -1.56345e-13 7.68049e-14 -2.83277e-13 6.30455e-15 5.90585e-14 -1.2972e-13 -3.51296e-13 1.11675e-13 9.2555e-14 5.77597e-14 -4.94565e-14 -1.67807e-13 -2.83384e-13 -7.07829e-14 -1.6378e-13 -6.71336e-15 -2.76585e-13 -1.18238e-13 -3.07873e-13 -1.97952e-13 -1.69426e-13 -3.49536e-13 2.02421e-13 -2.77799e-13 2.47599e-13 -6.32098e-14 4.93104e-14 1.3326e-13 2.93597e-13 5.96609e-14 -1.30712e-13 -3.58364e-13 -5.25189e-13 -5.64094e-13 6.60478e-14 -8.093e-13 3.5309e-14 3.90548e-13 3.13162e-13 3.04924e-12 2.50405e-11 2.0431e-10 1.55329e-09 1.09667e-08 7.16483e-08 4.31299e-07 2.38001e-06 1.19676e-05 5.44449e-05 0.000222163 0.000804591 0.00255422 0.00701367 0.0164783 0.0330382 0.0571579 0.0874414 0.121868 0.158848 0.197399 0.236982 0.277261 0.318062 0.359331 0.401109 0.443501 0.485048 0.524449 0.563685 0.601711 0.638787 0.676091 0.711217 0.746217 0.780473 0.81142 0.842738 0.869504 0.891077 0.911148 0.921926 0.927955 0.932598 0.933102 0.932828 0.932529 0.932231 0.931836 0.931282 0.930623 0.929991 0.929469 0.928964 0.928347 0.927492 0.9266 0.931533 0.930586 0.92753 0.927367 0.927564 0.927716 0.927909 0.927852 0.927589 0.927074 0.925769 0.922927 0.9171 0.905408 0.883034 0.843012 0.777389 0.680646 0.554728 0.413132 0.276321 0.163194 0.0838916 0.0377769 0.015403 0.0059243 0.00221101 0.000811713 0.000294688 0.000105961 3.774e-05 1.33089e-05 4.64424e-06 1.60268e-06 5.46625e-07 1.84164e-07 6.12614e-08 2.01116e-08 6.51389e-09 2.08035e-09 6.5503e-10 2.02868e-10 6.19573e-11 1.90506e-11 4.78391e-12 1.21258e-12 -1.75015e-13 -1.30967e-13 -9.55333e-15 -2.15144e-13 -5.74894e-15 1.33313e-13 -2.7947e-13 -2.79126e-14 -4.28196e-13 -7.02226e-13 7.29574e-13 -9.08476e-13 1.19515e-13 -6.30691e-13 4.51964e-13 3.75064e-13 -1.25056e-13 -2.92265e-13 1.42141e-13 -2.35045e-13 3.36423e-13 -1.12657e-12 -2.01499e-14 4.62629e-13 -3.51697e-13 -2.59909e-13 -6.5551e-13 2.4257e-13 2.17767e-13 -6.47857e-13 6.51386e-13 -1.89612e-13 1.23428e-12 7.32082e-13 -9.68514e-13 -2.33129e-13 0 0 -1.36833e-15 -4.17893e-14 3.77045e-14 -6.41179e-14 -5.35231e-15 -1.13688e-14 1.43964e-14 -4.44935e-14 -1.56942e-14 -4.5349e-14 -9.12829e-14 1.94347e-14 -8.68397e-14 -3.96435e-14 -1.48851e-13 -4.70809e-14 -1.02788e-13 -8.67124e-14 -5.63436e-16 -1.5042e-13 5.00607e-14 1.98483e-14 -3.03266e-13 1.30363e-13 -1.40106e-13 -2.88387e-13 -7.10356e-14 6.74173e-14 -2.025e-15 5.06115e-14 -6.45083e-15 -3.05554e-14 -4.8756e-14 -1.41996e-13 -2.38478e-13 -7.72337e-14 -1.90983e-13 -1.24642e-13 -1.91302e-13 -1.75013e-13 -2.89015e-13 -1.82909e-13 -2.16325e-15 -1.99808e-13 2.04442e-13 -6.77462e-14 7.67793e-14 2.05545e-13 2.63808e-13 1.20773e-13 -3.60621e-13 -2.83794e-13 -1.92955e-13 -1.19332e-13 -2.6047e-13 -5.66528e-13 -2.0758e-14 -5.66411e-14 -8.28404e-14 5.13084e-13 2.77403e-12 2.51256e-11 2.04409e-10 1.55365e-09 1.09666e-08 7.16485e-08 4.31299e-07 2.38001e-06 1.19676e-05 5.44449e-05 0.000222163 0.000804591 0.00255422 0.00701367 0.0164783 0.0330382 0.0571579 0.0874414 0.121868 0.158848 0.197399 0.236982 0.277261 0.318062 0.359331 0.401109 0.443501 0.485048 0.524449 0.563685 0.601711 0.638787 0.676091 0.711217 0.746217 0.780473 0.81142 0.842738 0.869504 0.891077 0.911148 0.921926 0.927955 0.932598 0.933102 0.932828 0.932529 0.932231 0.931836 0.931282 0.930623 0.929991 0.929469 0.928964 0.928347 0.927492 0.9266 0.931533 0.930586 0.92753 0.927367 0.927564 0.927716 0.927909 0.927852 0.927589 0.927074 0.925769 0.922927 0.9171 0.905408 0.883034 0.843012 0.777389 0.680646 0.554728 0.413132 0.276321 0.163194 0.0838916 0.0377769 0.015403 0.0059243 0.00221101 0.000811713 0.000294688 0.000105961 3.774e-05 1.33089e-05 4.64424e-06 1.60268e-06 5.46625e-07 1.84164e-07 6.12614e-08 2.01117e-08 6.51354e-09 2.08067e-09 6.55062e-10 2.03348e-10 6.20768e-11 1.79451e-11 5.70763e-12 1.07568e-12 -1.21543e-13 -2.61662e-13 -2.54121e-13 -1.29985e-13 1.22601e-13 -1.44042e-13 2.06801e-13 -5.48118e-13 -3.68962e-13 -2.64249e-13 -8.59922e-13 2.40502e-13 -1.61195e-13 2.64769e-13 -5.99634e-14 -8.64814e-14 2.35547e-13 7.10219e-14 1.50061e-13 -2.32477e-13 -6.7077e-13 1.86906e-13 -8.06939e-14 -6.34132e-13 2.34067e-13 -4.00219e-13 1.78151e-13 -7.91669e-13 -4.875e-13 5.46371e-13 3.10667e-14 8.53337e-13 -5.06859e-13 2.46746e-14 8.27063e-13 7.13996e-13 0 0 -6.79051e-15 1.31822e-14 -2.20045e-15 5.23278e-14 -2.31705e-14 5.61398e-15 -3.91813e-14 4.55187e-14 5.5222e-14 1.97818e-14 -2.86126e-14 -1.15407e-13 -4.08363e-14 -1.16222e-13 -9.21165e-14 -1.19872e-13 -1.01835e-13 -3.52743e-14 -1.34211e-13 -3.51665e-14 -1.1451e-13 -1.62004e-13 -9.99032e-14 -2.46868e-13 8.42369e-15 -1.15992e-14 -4.31949e-14 -2.68296e-13 1.92162e-13 1.07957e-13 4.55295e-14 2.28342e-14 -7.05525e-14 -2.07925e-13 -7.86669e-14 -2.63309e-13 -9.35274e-14 -1.56902e-13 -1.29521e-13 -2.4887e-13 -2.70107e-13 7.01746e-14 7.42479e-14 1.60118e-13 -1.69038e-13 7.20254e-14 -7.90949e-14 -2.02628e-13 -8.06542e-14 -1.0188e-13 1.08702e-13 3.36389e-14 -9.83717e-14 -2.00398e-13 -1.18586e-13 -1.05783e-13 -1.85731e-13 1.34109e-13 1.21011e-13 5.50463e-14 2.84929e-12 2.5165e-11 2.04611e-10 1.55368e-09 1.09669e-08 7.1648e-08 4.31299e-07 2.38001e-06 1.19676e-05 5.44449e-05 0.000222163 0.000804591 0.00255422 0.00701367 0.0164783 0.0330382 0.0571579 0.0874414 0.121868 0.158848 0.197399 0.236982 0.277261 0.318062 0.359331 0.401109 0.443501 0.485048 0.524449 0.563685 0.601711 0.638787 0.676091 0.711217 0.746217 0.780473 0.81142 0.842738 0.869504 0.891077 0.911148 0.921926 0.927955 0.932598 0.933102 0.932828 0.932529 0.932231 0.931836 0.931282 0.930623 0.929991 0.929469 0.928964 0.928347 0.927492 0.9266 0.931533 0.930586 0.92753 0.927367 0.927564 0.927716 0.927909 0.927852 0.927589 0.927074 0.925769 0.922927 0.9171 0.905408 0.883034 0.843012 0.777389 0.680646 0.554728 0.413132 0.276321 0.163194 0.0838916 0.0377769 0.015403 0.0059243 0.00221101 0.000811713 0.000294688 0.000105961 3.774e-05 1.33089e-05 4.64424e-06 1.60268e-06 5.46625e-07 1.84164e-07 6.12614e-08 2.01117e-08 6.51378e-09 2.08069e-09 6.5531e-10 2.03283e-10 6.21519e-11 1.85621e-11 5.14357e-12 1.33071e-12 2.92383e-13 -4.27932e-13 -6.44945e-13 6.19797e-14 -3.47254e-13 -3.35593e-14 -2.69154e-13 -2.28733e-13 -6.08828e-13 -4.46739e-13 7.70863e-14 -2.45617e-13 -3.09828e-13 2.00532e-13 1.558e-13 -2.26436e-13 2.51223e-13 -2.13439e-13 1.54769e-15 -9.84421e-14 -3.3319e-13 1.16771e-13 -2.56361e-13 -2.30362e-13 -3.6351e-13 -2.63517e-13 -1.59979e-13 -1.63055e-13 3.26341e-13 4.23563e-13 1.4697e-13 -2.33549e-13 -2.67489e-13 1.5609e-13 -2.07071e-13 -3.11697e-13 0 0 5.2289e-15 2.69146e-14 1.19672e-14 7.79577e-14 5.89569e-14 8.79774e-15 9.94807e-15 8.63684e-14 1.09165e-14 -2.30072e-14 -1.98184e-14 -5.37372e-14 -9.13374e-14 -2.16937e-13 -2.54296e-14 -1.4746e-14 -1.08357e-13 -1.28131e-13 -1.4388e-13 -8.40083e-14 -1.53601e-13 -2.39513e-13 -7.10926e-14 -1.51885e-13 5.23646e-14 4.2874e-16 -1.55528e-13 -5.8892e-14 1.77119e-13 7.56855e-14 5.73015e-14 -1.08744e-13 -1.00072e-13 -1.78758e-13 -1.13737e-13 -5.30372e-14 -1.84081e-13 -1.64636e-13 -1.11628e-14 -1.76001e-13 -3.43727e-14 2.42122e-14 -2.16197e-13 8.12141e-14 -1.93799e-13 -6.59537e-14 -3.18733e-13 -1.78993e-13 -2.17183e-13 -9.7306e-14 3.37959e-13 4.74952e-14 -3.80951e-13 2.10557e-13 -3.648e-13 -1.60803e-13 -7.19148e-14 9.79255e-14 3.33979e-13 3.13547e-13 3.0187e-12 2.51312e-11 2.04758e-10 1.55366e-09 1.09667e-08 7.16481e-08 4.31299e-07 2.38001e-06 1.19676e-05 5.44449e-05 0.000222163 0.000804591 0.00255422 0.00701367 0.0164783 0.0330382 0.0571579 0.0874414 0.121868 0.158848 0.197399 0.236982 0.277261 0.318062 0.359331 0.401109 0.443501 0.485048 0.524449 0.563685 0.601711 0.638787 0.676091 0.711217 0.746217 0.780473 0.81142 0.842738 0.869504 0.891077 0.911148 0.921926 0.927955 0.932598 0.933102 0.932828 0.932529 0.932231 0.931836 0.931282 0.930623 0.929991 0.929469 0.928964 0.928347 0.927492 0.9266 0.931533 0.930586 0.92753 0.927367 0.927564 0.927716 0.927909 0.927852 0.927589 0.927074 0.925769 0.922927 0.9171 0.905408 0.883034 0.843012 0.777389 0.680646 0.554728 0.413132 0.276321 0.163194 0.0838916 0.0377769 0.015403 0.0059243 0.00221101 0.000811713 0.000294688 0.000105961 3.774e-05 1.33089e-05 4.64424e-06 1.60268e-06 5.46625e-07 1.84165e-07 6.12615e-08 2.01117e-08 6.51409e-09 2.08035e-09 6.55596e-10 2.03408e-10 6.20101e-11 1.8904e-11 5.1229e-12 1.45482e-12 -3.0591e-13 -1.01009e-13 -3.64591e-13 -1.52385e-13 -6.27903e-13 -3.63059e-13 -6.41195e-13 -1.05163e-13 2.18082e-13 1.36992e-14 2.16053e-13 -6.9629e-13 4.67626e-13 -7.37423e-13 7.26132e-14 -1.80685e-13 -4.34171e-13 -3.42142e-14 -3.23639e-13 -2.72241e-13 5.1663e-13 -7.23534e-13 -2.4064e-14 -5.2041e-14 -8.75295e-13 4.38451e-13 -3.26666e-13 1.14144e-12 7.39257e-13 -7.20212e-13 3.40878e-13 -2.47581e-13 1.09198e-12 -7.64201e-13 -8.67271e-13 -4.06088e-13 0 0 2.73255e-14 1.24115e-14 9.04578e-14 -5.32549e-15 1.00254e-13 3.65214e-14 7.93578e-14 1.44583e-14 -8.82079e-15 -7.17745e-14 -9.2944e-14 3.72709e-14 -1.52305e-13 -1.51291e-13 -1.44699e-13 -5.47887e-14 6.5364e-17 -8.47911e-14 -8.07928e-14 -2.23003e-13 -4.12526e-14 2.57467e-14 -1.87332e-13 2.71133e-13 -6.34731e-14 -1.54823e-13 -7.62073e-14 3.03381e-13 -1.8278e-13 -5.1958e-14 -2.23963e-13 -1.11612e-13 -9.08964e-14 3.61849e-14 -4.4158e-13 2.83465e-13 -1.91025e-13 -8.70987e-14 -1.72149e-13 -1.61477e-13 -1.61578e-13 -1.51506e-13 4.62662e-14 -2.27908e-13 3.08327e-13 -2.34057e-13 -1.38353e-13 1.5164e-13 -6.27208e-14 -9.72758e-14 -3.5436e-13 -3.33738e-13 -2.98799e-13 2.47222e-13 -2.73741e-13 -4.35499e-13 4.28088e-13 -1.54336e-13 1.05869e-13 3.65756e-13 2.99639e-12 2.52106e-11 2.04618e-10 1.55386e-09 1.09667e-08 7.16486e-08 4.31299e-07 2.38001e-06 1.19676e-05 5.44449e-05 0.000222163 0.000804591 0.00255422 0.00701367 0.0164783 0.0330382 0.0571579 0.0874414 0.121868 0.158848 0.197399 0.236982 0.277261 0.318062 0.359331 0.401109 0.443501 0.485048 0.524449 0.563685 0.601711 0.638787 0.676091 0.711217 0.746217 0.780473 0.81142 0.842738 0.869504 0.891077 0.911148 0.921926 0.927955 0.932598 0.933102 0.932828 0.932529 0.932231 0.931836 0.931282 0.930623 0.929991 0.929469 0.928964 0.928347 0.927492 0.9266 0.931533 0.930586 0.92753 0.927367 0.927564 0.927716 0.927909 0.927852 0.927589 0.927074 0.925769 0.922927 0.9171 0.905408 0.883034 0.843012 0.777389 0.680646 0.554728 0.413132 0.276321 0.163194 0.0838916 0.0377769 0.015403 0.0059243 0.00221101 0.000811713 0.000294688 0.000105961 3.774e-05 1.33089e-05 4.64424e-06 1.60268e-06 5.46625e-07 1.84164e-07 6.12618e-08 2.01119e-08 6.51351e-09 2.08079e-09 6.55147e-10 2.0342e-10 6.19632e-11 1.82523e-11 5.68025e-12 1.1824e-12 -1.15855e-13 1.17898e-14 -3.32385e-13 -9.31447e-14 -2.54134e-13 -6.7484e-13 -3.60657e-13 -3.78202e-13 2.40379e-13 1.48851e-13 -2.3129e-13 4.26755e-13 2.54786e-13 -2.12962e-13 -3.36679e-13 -3.47354e-13 -2.35711e-13 -1.00168e-14 -2.42879e-13 -4.73717e-13 -2.90162e-13 6.01383e-14 -3.02925e-14 -5.64746e-13 -1.36084e-13 7.04483e-14 1.74824e-13 2.53348e-13 -1.59377e-13 6.78948e-13 -2.42875e-13 2.64496e-13 -1.53031e-13 -2.79769e-13 4.97042e-13 5.88546e-13 0 0 1.52286e-14 9.52871e-14 1.41155e-14 9.31503e-14 2.08964e-14 7.74221e-14 -7.15765e-14 3.75374e-14 4.5694e-14 -4.59741e-14 -3.22181e-14 -1.65959e-13 -6.77498e-14 -1.56959e-13 -8.75738e-14 -3.76738e-13 1.26114e-13 1.83935e-13 -1.95704e-13 -2.06919e-14 -1.39509e-13 1.04703e-14 2.51052e-13 -1.91702e-13 7.16883e-14 3.02132e-13 8.46037e-14 -2.98176e-13 -2.19748e-13 -4.80416e-14 -4.00809e-13 5.15864e-14 -1.93049e-13 1.46431e-14 -4.06848e-13 1.37074e-13 1.7431e-13 -1.8603e-13 -3.16648e-13 -4.26539e-13 -4.14546e-13 -1.46956e-14 3.28212e-13 3.04029e-13 -2.05059e-14 1.90936e-13 -1.41988e-14 -1.05771e-13 -2.46741e-13 -1.51649e-13 -3.86331e-13 -2.58314e-13 -4.89356e-15 -6.13992e-13 -9.82095e-14 4.38144e-13 -1.3924e-13 -8.77143e-14 3.4203e-13 -4.98496e-13 3.15515e-12 2.52782e-11 2.04434e-10 1.55377e-09 1.09672e-08 7.16484e-08 4.31299e-07 2.38001e-06 1.19676e-05 5.44449e-05 0.000222163 0.000804591 0.00255422 0.00701367 0.0164783 0.0330382 0.0571579 0.0874414 0.121868 0.158848 0.197399 0.236982 0.277261 0.318062 0.359331 0.401109 0.443501 0.485048 0.524449 0.563685 0.601711 0.638787 0.676091 0.711217 0.746217 0.780473 0.81142 0.842738 0.869504 0.891077 0.911148 0.921926 0.927955 0.932598 0.933102 0.932828 0.932529 0.932231 0.931836 0.931282 0.930623 0.929991 0.929469 0.928964 0.928347 0.927492 0.9266 0.931533 0.930586 0.92753 0.927367 0.927564 0.927716 0.927909 0.927852 0.927589 0.927074 0.925769 0.922927 0.9171 0.905408 0.883034 0.843012 0.777389 0.680646 0.554728 0.413132 0.276321 0.163194 0.0838916 0.0377769 0.015403 0.0059243 0.00221101 0.000811713 0.000294688 0.000105961 3.774e-05 1.33089e-05 4.64423e-06 1.60268e-06 5.46625e-07 1.84164e-07 6.12619e-08 2.01121e-08 6.5132e-09 2.08126e-09 6.54627e-10 2.02763e-10 6.20139e-11 1.89811e-11 4.7705e-12 1.1778e-12 1.03295e-12 -2.37911e-13 -7.2679e-13 2.87267e-13 -1.97922e-13 -2.69283e-13 -6.70305e-13 6.47793e-14 -8.63335e-13 -7.96902e-13 1.70891e-12 3.65377e-13 -6.03432e-13 2.89759e-13 6.49071e-14 -2.38184e-13 3.03218e-13 -8.12793e-13 6.63399e-15 -3.69927e-13 -6.02002e-13 3.005e-13 -3.83941e-13 2.44759e-13 -6.84313e-14 -7.22511e-13 -3.28791e-13 -2.76387e-13 4.81784e-14 1.90485e-12 -2.84314e-13 -1.33923e-12 -7.76999e-13 1.96378e-12 -3.08157e-13 -2.95246e-13 0
				</DataArray>
				<DataArray Name="VitesseY" type="Float32" format="ascii">