<?xml version="1.0"?>
<VTKFile type="PolyData">
	<PolyData>
		<Piece NumberOfPoints="1206" NumberOfPolys="1000">
			<Points>
				<DataArray type="Float32" NumberOfComponents="3" format="ascii">
 0 0 0 0.005 0 0 0.01 0 0 0.015 0 0 0.02 0 0 0.025 0 0 0.03 0 0 0.035 0 0 0.04 0 0 0.045 0 0 0.05 0 0 0.055 0 0 0.06 0 0 0.065 0 0 0.07 0 0 0.075 0 0 0.08 0 0 0.085 0 0 0.09 0 0 0.095 0 0 0.1 0 0 0.105 0 0 0.11 0 0 0.115 0 0 0.12 0 0 0.125 0 0 0.13 0 0 0.135 0 0 0.14 0 0 0.145 0 0 0.15 0 0 0.155 0 0 0.16 0 0 0.165 0 0 0.17 0 0 0.175 0 0 0.18 0 0 0.185 0 0 0.19 0 0 0.195 0 0 0.2 0 0 0.205 0 0 0.21 0 0 0.215 0 0 0.22 0 0 0.225 0 0 0.23 0 0 0.235 0 0 0.24 0 0 0.245 0 0 0.25 0 0 0.255 0 0 0.26 0 0 0.265 0 0 0.27 0 0 0.275 0 0 0.28 0 0 0.285 0 0 0.29 0 0 0.295 0 0 0.3 0 0 0.305 0 0 0.31 0 0 0.315 0 0 0.32 0 0 0.325 0 0 0.33 0 0 0.335 0 0 0.34 0 0 0.345 0 0 0.35 0 0 0.355 0 0 0.36 0 0 0.365 0 0 0.37 0 0 0.375 0 0 0.38 0 0 0.385 0 0 0.39 0 0 0.395 0 0 0.4 0 0 0.405 0 0 0.41 0 0 0.415 0 0 0.42 0 0 0.425 0 0 0.43 0 0 0.435 0 0 0.44 0 0 0.445 0 0 0.45 0 0 0.455 0 0 0.46 0 0 0.465 0 0 0.47 0 0 0.475 0 0 0.48 0 0 0.485 0 0 0.49 0 0 0.495 0 0 0.5 0 0 0.505 0 0 0.51 0 0 0.515 0 0 0.52 0 0 0.525 0 0 0.53 0 0 0.535 0 0 0.54 0 0 0.545 0 0 0.55 0 0 0.555 0 0 0.56 0 0 0.565 0 0 0.57 0 0 0.575 0 0 0.58 0 0 0.585 0 0 0.59 0 0 0.595 0 0 0.6 0 0 0.605 0 0 0.61 0 0 0.615 0 0 0.62 0 0 0.625 0 0 0.63 0 0 0.635 0 0 0.64 0 0 0.645 0 0 0.65 0 0 0.655 0 0 0.66 0 0 0.665 0 0 0.67 0 0 0.675 0 0 0.68 0 0 0.685 0 0 0.69 0 0 0.695 0 0 0.7 0 0 0.705 0 0 0.71 0 0 0.715 0 0 0.72 0 0 0.725 0 0 0.73 0 0 0.735 0 0 0.74 0 0 0.745 0 0 0.75 0 0 0.755 0 0 0.76 0 0 0.765 0 0 0.77 0 0 0.775 0 0 0.78 0 0 0.785 0 0 0.79 0 0 0.795 0 0 0.8 0 0 0.805 0 0 0.81 0 0 0.815 0 0 0.82 0 0 0.825 0 0 0.83 0 0 0.835 0 0 0.84 0 0 0.845 0 0 0.85 0 0 0.855 0 0 0.86 0 0 0.865 0 0 0.87 0 0 0.875 0 0 0.88 0 0 0.885 0 0 0.89 0 0 0.895 0 0 0.9 0 0 0.905 0 0 0.91 0 0 0.915 0 0 0.92 0 0 0.925 0 0 0.93 0 0 0.935 0 0 0.94 0 0 0.945 0 0 0.95 0 0 0.955 0 0 0.96 0 0 0.965 0 0 0.97 0 0 0.975 0 0 0.98 0 0 0.985 0 0 0.99 0 0 0.995 0 0 1 0 0 0 0.02 0 0.005 0.02 0 0.01 0.02 0 0.015 0.02 0 0.02 0.02 0 0.025 0.02 0 0.03 0.02 0 0.035 0.02 0 0.04 0.02 0 0.045 0.02 0 0.05 0.02 0 0.055 0.02 0 0.06 0.02 0 0.065 0.02 0 0.07 0.02 0 0.075 0.02 0 0.08 0.02 0 0.085 0.02 0 0.09 0.02 0 0.095 0.02 0 0.1 0.02 0 0.105 0.02 0 0.11 0.02 0 0.115 0.02 0 0.12 0.02 0 0.125 0.02 0 0.13 0.02 0 0.135 0.02 0 0.14 0.02 0 0.145 0.02 0 0.15 0.02 0 0.155 0.02 0 0.16 0.02 0 0.165 0.02 0 0.17 0.02 0 0.175 0.02 0 0.18 0.02 0 0.185 0.02 0 0.19 0.02 0 0.195 0.02 0 0.2 0.02 0 0.205 0.02 0 0.21 0.02 0 0.215 0.02 0 0.22 0.02 0 0.225 0.02 0 0.23 0.02 0 0.235 0.02 0 0.24 0.02 0 0.245 0.02 0 0.25 0.02 0 0.255 0.02 0 0.26 0.02 0 0.265 0.02 0 0.27 0.02 0 0.275 0.02 0 0.28 0.02 0 0.285 0.02 0 0.29 0.02 0 0.295 0.02 0 0.3 0.02 0 0.305 0.02 0 0.31 0.02 0 0.315 0.02 0 0.32 0.02 0 0.325 0.02 0 0.33 0.02 0 0.335 0.02 0 0.34 0.02 0 0.345 0.02 0 0.35 0.02 0 0.355 0.02 0 0.36 0.02 0 0.365 0.02 0 0.37 0.02 0 0.375 0.02 0 0.38 0.02 0 0.385 0.02 0 0.39 0.02 0 0.395 0.02 0 0.4 0.02 0 0.405 0.02 0 0.41 0.02 0 0.415 0.02 0 0.42 0.02 0 0.425 0.02 0 0.43 0.02 0 0.435 0.02 0 0.44 0.02 0 0.445 0.02 0 0.45 0.02 0 0.455 0.02 0 0.46 0.02 0 0.465 0.02 0 0.47 0.02 0 0.475 0.02 0 0.48 0.02 0 0.485 0.02 0 0.49 0.02 0 0.495 0.02 0 0.5 0.02 0 0.505 0.02 0 0.51 0.02 0 0.515 0.02 0 0.52 0.02 0 0.525 0.02 0 0.53 0.02 0 0.535 0.02 0 0.54 0.02 0 0.545 0.02 0 0.55 0.02 0 0.555 0.02 0 0.56 0.02 0 0.565 0.02 0 0.57 0.02 0 0.575 0.02 0 0.58 0.02 0 0.585 0.02 0 0.59 0.02 0 0.595 0.02 0 0.6 0.02 0 0.605 0.02 0 0.61 0.02 0 0.615 0.02 0 0.62 0.02 0 0.625 0.02 0 0.63 0.02 0 0.635 0.02 0 0.64 0.02 0 0.645 0.02 0 0.65 0.02 0 0.655 0.02 0 0.66 0.02 0 0.665 0.02 0 0.67 0.02 0 0.675 0.02 0 0.68 0.02 0 0.685 0.02 0 0.69 0.02 0 0.695 0.02 0 0.7 0.02 0 0.705 0.02 0 0.71 0.02 0 0.715 0.02 0 0.72 0.02 0 0.725 0.02 0 0.73 0.02 0 0.735 0.02 0 0.74 0.02 0 0.745 0.02 0 0.75 0.02 0 0.755 0.02 0 0.76 0.02 0 0.765 0.02 0 0.77 0.02 0 0.775 0.02 0 0.78 0.02 0 0.785 0.02 0 0.79 0.02 0 0.795 0.02 0 0.8 0.02 0 0.805 0.02 0 0.81 0.02 0 0.815 0.02 0 0.82 0.02 0 0.825 0.02 0 0.83 0.02 0 0.835 0.02 0 0.84 0.02 0 0.845 0.02 0 0.85 0.02 0 0.855 0.02 0 0.86 0.02 0 0.865 0.02 0 0.87 0.02 0 0.875 0.02 0 0.88 0.02 0 0.885 0.02 0 0.89 0.02 0 0.895 0.02 0 0.9 0.02 0 0.905 0.02 0 0.91 0.02 0 0.915 0.02 0 0.92 0.02 0 0.925 0.02 0 0.93 0.02 0 0.935 0.02 0 0.94 0.02 0 0.945 0.02 0 0.95 0.02 0 0.955 0.02 0 0.96 0.02 0 0.965 0.02 0 0.97 0.02 0 0.975 0.02 0 0.98 0.02 0 0.985 0.02 0 0.99 0.02 0 0.995 0.02 0 1 0.02 0 0 0.04 0 0.005 0.04 0 0.01 0.04 0 0.015 0.04 0 0.02 0.04 0 0.025 0.04 0 0.03 0.04 0 0.035 0.04 0 0.04 0.04 0 0.045 0.04 0 0.05 0.04 0 0.055 0.04 0 0.06 0.04 0 0.065 0.04 0 0.07 0.04 0 0.075 0.04 0 0.08 0.04 0 0.085 0.04 0 0.09 0.04 0 0.095 0.04 0 0.1 0.04 0 0.105 0.04 0 0.11 0.04 0 0.115 0.04 0 0.12 0.04 0 0.125 0.04 0 0.13 0.04 0 0.135 0.04 0 0.14 0.04 0 0.145 0.04 0 0.15 0.04 0 0.155 0.04 0 0.16 0.04 0 0.165 0.04 0 0.17 0.04 0 0.175 0.04 0 0.18 0.04 0 0.185 0.04 0 0.19 0.04 0 0.195 0.04 0 0.2 0.04 0 0.205 0.04 0 0.21 0.04 0 0.215 0.04 0 0.22 0.04 0 0.225 0.04 0 0.23 0.04 0 0.235 0.04 0 0.24 0.04 0 0.245 0.04 0 0.25 0.04 0 0.255 0.04 0 0.26 0.04 0 0.265 0.04 0 0.27 0.04 0 0.275 0.04 0 0.28 0.04 0 0.285 0.04 0 0.29 0.04 0 0.295 0.04 0 0.3 0.04 0 0.305 0.04 0 0.31 0.04 0 0.315 0.04 0 0.32 0.04 0 0.325 0.04 0 0.33 0.04 0 0.335 0.04 0 0.34 0.04 0 0.345 0.04 0 0.35 0.04 0 0.355 0.04 0 0.36 0.04 0 0.365 0.04 0 0.37 0.04 0 0.375 0.04 0 0.38 0.04 0 0.385 0.04 0 0.39 0.04 0 0.395 0.04 0 0.4 0.04 0 0.405 0.04 0 0.41 0.04 0 0.415 0.04 0 0.42 0.04 0 0.425 0.04 0 0.43 0.04 0 0.435 0.04 0 0.44 0.04 0 0.445 0.04 0 0.45 0.04 0 0.455 0.04 0 0.46 0.04 0 0.465 0.04 0 0.47 0.04 0 0.475 0.04 0 0.48 0.04 0 0.485 0.04 0 0.49 0.04 0 0.495 0.04 0 0.5 0.04 0 0.505 0.04 0 0.51 0.04 0 0.515 0.04 0 0.52 0.04 0 0.525 0.04 0 0.53 0.04 0 0.535 0.04 0 0.54 0.04 0 0.545 0.04 0 0.55 0.04 0 0.555 0.04 0 0.56 0.04 0 0.565 0.04 0 0.57 0.04 0 0.575 0.04 0 0.58 0.04 0 0.585 0.04 0 0.59 0.04 0 0.595 0.04 0 0.6 0.04 0 0.605 0.04 0 0.61 0.04 0 0.615 0.04 0 0.62 0.04 0 0.625 0.04 0 0.63 0.04 0 0.635 0.04 0 0.64 0.04 0 0.645 0.04 0 0.65 0.04 0 0.655 0.04 0 0.66 0.04 0 0.665 0.04 0 0.67 0.04 0 0.675 0.04 0 0.68 0.04 0 0.685 0.04 0 0.69 0.04 0 0.695 0.04 0 0.7 0.04 0 0.705 0.04 0 0.71 0.04 0 0.715 0.04 0 0.72 0.04 0 0.725 0.04 0 0.73 0.04 0 0.735 0.04 0 0.74 0.04 0 0.745 0.04 0 0.75 0.04 0 0.755 0.04 0 0.76 0.04 0 0.765 0.04 0 0.77 0.04 0 0.775 0.04 0 0.78 0.04 0 0.785 0.04 0 0.79 0.04 0 0.795 0.04 0 0.8 0.04 0 0.805 0.04 0 0.81 0.04 0 0.815 0.04 0 0.82 0.04 0 0.825 0.04 0 0.83 0.04 0 0.835 0.04 0 0.84 0.04 0 0.845 0.04 0 0.85 0.04 0 0.855 0.04 0 0.86 0.04 0 0.865 0.04 0 0.87 0.04 0 0.875 0.04 0 0.88 0.04 0 0.885 0.04 0 0.89 0.04 0 0.895 0.04 0 0.9 0.04 0 0.905 0.04 0 0.91 0.04 0 0.915 0.04 0 0.92 0.04 0 0.925 0.04 0 0.93 0.04 0 0.935 0.04 0 0.94 0.04 0 0.945 0.04 0 0.95 0.04 0 0.955 0.04 0 0.96 0.04 0 0.965 0.04 0 0.97 0.04 0 0.975 0.04 0 0.98 0.04 0 0.985 0.04 0 0.99 0.04 0 0.995 0.04 0 1 0.04 0 0 0.06 0 0.005 0.06 0 0.01 0.06 0 0.015 0.06 0 0.02 0.06 0 0.025 0.06 0 0.03 0.06 0 0.035 0.06 0 0.04 0.06 0 0.045 0.06 0 0.05 0.06 0 0.055 0.06 0 0.06 0.06 0 0.065 0.06 0 0.07 0.06 0 0.075 0.06 0 0.08 0.06 0 0.085 0.06 0 0.09 0.06 0 0.095 0.06 0 0.1 0.06 0 0.105 0.06 0 0.11 0.06 0 0.115 0.06 0 0.12 0.06 0 0.125 0.06 0 0.13 0.06 0 0.135 0.06 0 0.14 0.06 0 0.145 0.06 0 0.15 0.06 0 0.155 0.06 0 0.16 0.06 0 0.165 0.06 0 0.17 0.06 0 0.175 0.06 0 0.18 0.06 0 0.185 0.06 0 0.19 0.06 0 0.195 0.06 0 0.2 0.06 0 0.205 0.06 0 0.21 0.06 0 0.215 0.06 0 0.22 0.06 0 0.225 0.06 0 0.23 0.06 0 0.235 0.06 0 0.24 0.06 0 0.245 0.06 0 0.25 0.06 0 0.255 0.06 0 0.26 0.06 0 0.265 0.06 0 0.27 0.06 0 0.275 0.06 0 0.28 0.06 0 0.285 0.06 0 0.29 0.06 0 0.295 0.06 0 0.3 0.06 0 0.305 0.06 0 0.31 0.06 0 0.315 0.06 0 0.32 0.06 0 0.325 0.06 0 0.33 0.06 0 0.335 0.06 0 0.34 0.06 0 0.345 0.06 0 0.35 0.06 0 0.355 0.06 0 0.36 0.06 0 0.365 0.06 0 0.37 0.06 0 0.375 0.06 0 0.38 0.06 0 0.385 0.06 0 0.39 0.06 0 0.395 0.06 0 0.4 0.06 0 0.405 0.06 0 0.41 0.06 0 0.415 0.06 0 0.42 0.06 0 0.425 0.06 0 0.43 0.06 0 0.435 0.06 0 0.44 0.06 0 0.445 0.06 0 0.45 0.06 0 0.455 0.06 0 0.46 0.06 0 0.465 0.06 0 0.47 0.06 0 0.475 0.06 0 0.48 0.06 0 0.485 0.06 0 0.49 0.06 0 0.495 0.06 0 0.5 0.06 0 0.505 0.06 0 0.51 0.06 0 0.515 0.06 0 0.52 0.06 0 0.525 0.06 0 0.53 0.06 0 0.535 0.06 0 0.54 0.06 0 0.545 0.06 0 0.55 0.06 0 0.555 0.06 0 0.56 0.06 0 0.565 0.06 0 0.57 0.06 0 0.575 0.06 0 0.58 0.06 0 0.585 0.06 0 0.59 0.06 0 0.595 0.06 0 0.6 0.06 0 0.605 0.06 0 0.61 0.06 0 0.615 0.06 0 0.62 0.06 0 0.625 0.06 0 0.63 0.06 0 0.635 0.06 0 0.64 0.06 0 0.645 0.06 0 0.65 0.06 0 0.655 0.06 0 0.66 0.06 0 0.665 0.06 0 0.67 0.06 0 0.675 0.06 0 0.68 0.06 0 0.685 0.06 0 0.69 0.06 0 0.695 0.06 0 0.7 0.06 0 0.705 0.06 0 0.71 0.06 0 0.715 0.06 0 0.72 0.06 0 0.725 0.06 0 0.73 0.06 0 0.735 0.06 0 0.74 0.06 0 0.745 0.06 0 0.75 0.06 0 0.755 0.06 0 0.76 0.06 0 0.765 0.06 0 0.77 0.06 0 0.775 0.06 0 0.78 0.06 0 0.785 0.06 0 0.79 0.06 0 0.795 0.06 0 0.8 0.06 0 0.805 0.06 0 0.81 0.06 0 0.815 0.06 0 0.82 0.06 0 0.825 0.06 0 0.83 0.06 0 0.835 0.06 0 0.84 0.06 0 0.845 0.06 0 0.85 0.06 0 0.855 0.06 0 0.86 0.06 0 0.865 0.06 0 0.87 0.06 0 0.875 0.06 0 0.88 0.06 0 0.885 0.06 0 0.89 0.06 0 0.895 0.06 0 0.9 0.06 0 0.905 0.06 0 0.91 0.06 0 0.915 0.06 0 0.92 0.06 0 0.925 0.06 0 0.93 0.06 0 0.935 0.06 0 0.94 0.06 0 0.945 0.06 0 0.95 0.06 0 0.955 0.06 0 0.96 0.06 0 0.965 0.06 0 0.97 0.06 0 0.975 0.06 0 0.98 0.06 0 0.985 0.06 0 0.99 0.06 0 0.995 0.06 0 1 0.06 0 0 0.08 0 0.005 0.08 0 0.01 0.08 0 0.015 0.08 0 0.02 0.08 0 0.025 0.08 0 0.03 0.08 0 0.035 0.08 0 0.04 0.08 0 0.045 0.08 0 0.05 0.08 0 0.055 0.08 0 0.06 0.08 0 0.065 0.08 0 0.07 0.08 0 0.075 0.08 0 0.08 0.08 0 0.085 0.08 0 0.09 0.08 0 0.095 0.08 0 0.1 0.08 0 0.105 0.08 0 0.11 0.08 0 0.115 0.08 0 0.12 0.08 0 0.125 0.08 0 0.13 0.08 0 0.135 0.08 0 0.14 0.08 0 0.145 0.08 0 0.15 0.08 0 0.155 0.08 0 0.16 0.08 0 0.165 0.08 0
[...]
			<PointData Scalars="VitesseX">
				<DataArray Name="VitesseX" type="Float32" format="ascii">
 0 3.91334e-15 -6.08818e-15 -7.66659e-14 7.00976e-14 -7.54519e-14 -1.10901e-13 -4.28902e-14 -2.05566e-14 2.50786e-14 -1.23814e-14 -7.77695e-16 -2.15996e-13 1.17545e-13 -2.49856e-13 1.36945e-15 9.79227e-14 -2.41615e-13 2.70394e-13 -1.88205e-13 -5.79129e-14 3.37507e-14 1.968e-13 -2.36948e-13 -4.05615e-13 -1.7853e-13 6.2082e-13 -3.73102e-15 -7.14776e-14 -1.2904e-13 -1.47984e-13 -4.10156e-13 3.42107e-13 1.28165e-13 -3.19482e-13 -5.5788e-14 5.51e-13 -9.282e-13 3.91323e-13 -2.2446e-13 -5.78465e-14 1.23887e-13 7.40569e-14 -7.10716e-13 5.58006e-13 -1.38485e-13 9.16344e-13 -1.07243e-12 -1.82736e-13 -4.23735e-13 -1.595e-13 6.53504e-13 -8.00808e-13 1.20738e-12 -8.23758e-13 -2.05675e-13 1.24011e-12 -9.27591e-13 1.18599e-12 -8.5521e-13 -4.52927e-13 2.61525e-14 -1.03909e-13 -4.04922e-14 -3.70072e-13 1.42852e-13 -1.00826e-13 -7.95998e-15 1.32469e-12 -3.24371e-13 -8.40171e-13 1.05488e-12 -8.4284e-13 5.08547e-13 -1.70598e-12 5.84658e-13 -6.8376e-14 -2.89834e-13 7.98985e-13 -8.46045e-13 1.6774e-12 -7.89856e-13 -8.69719e-13 1.68295e-11 3.08637e-10 5.8089e-09 9.44221e-08 1.30555e-06 1.51072e-05 0.000143178 0.00107993 0.00623759 0.0263357 0.0784607 0.167961 0.282757 0.414203 0.552158 0.643191 0.742933 0.815865 0.858629 0.898165 0.933089 0.939759 0.943928 0.935802 0.921381 0.885412 0.822612 0.72498 0.583425 0.416315 0.257238 0.133337 0.0562065 0.0194806 0.0058784 0.00162981 0.000426306 0.000106197 2.52728e-05 5.75284e-06 1.25352e-06 2.61641e-07 5.23469e-08 1.00485e-08 1.85133e-09 3.26252e-10 5.71522e-11 7.12916e-12 2.59732e-12 2.52778e-13 -1.81435e-12 9.39182e-13 -2.10598e-12 1.56964e-12 5.59702e-13 -1.8357e-12 1.70177e-12 -7.48233e-13 -1.13631e-12 2.86594e-12 -2.16979e-12 -1.27031e-12 1.96169e-12 -1.51221e-12 3.07847e-12 -1.52412e-12 -2.07157e-13 1.21652e-12 -1.72317e-12 2.87833e-12 -2.32369e-12 1.5818e-12 -2.02055e-12 1.83907e-12 -2.11002e-13 -7.54635e-13 1.03015e-14 -1.50038e-12 1.15999e-12 -6.94115e-13 -5.53746e-13 1.03763e-12 -9.51919e-13 7.99965e-13 -2.54354e-13 -1.30612e-12 2.69208e-12 -1.66389e-12 4.18134e-13 1.79336e-12 -2.53979e-12 2.52716e-12 -1.7696e-12 7.04224e-13 1.10282e-12 -2.50892e-12 2.03186e-12 -8.32256e-13 -1.53366e-13 1.05831e-12 -2.53994e-12 1.44116e-12 -2.08318e-12 -2.39998e-13 1.31413e-12 -2.09085e-12 3.42601e-12 -1.85709e-12 -1.74514e-12 4.58732e-12 -3.41867e-12 -1.02905e-12 2.06352e-13 -1.08932e-12 3.74332e-12 -3.00022e-12 1.32854e-12 0 0 -1.93767e-14 -3.07496e-14 1.27805e-15 -9.53731e-14 -7.66518e-15 1.41696e-14 -1.10913e-13 -9.61503e-14 -1.05621e-13 -3.46617e-14 -4.55989e-14 3.24566e-14 -1.7668e-13 4.98999e-14 -7.36104e-14 -1.55111e-13 4.22331e-14 -1.46371e-13 1.88563e-13 9.00688e-14 -2.79545e-14 -2.30374e-13 -4.11734e-14 1.66052e-14 -1.14103e-13 -1.69319e-13 1.79606e-13 1.42826e-13 1.49341e-14 -2.86425e-13 -8.0511e-14 -3.11391e-13 2.4002e-15 3.15209e-13 1.47512e-14 -5.66454e-13 6.16726e-13 -6.73046e-13 2.24372e-13 2.83805e-13 -1.89932e-13 -4.07778e-13 2.65578e-13 -1.88909e-13 1.83458e-13 -8.19881e-13 7.33989e-13 -5.05052e-13 -2.97946e-13 -4.44396e-13 -1.14468e-13 8.65982e-13 -1.077e-12 4.7591e-13 3.72754e-13 -5.42631e-13 1.03244e-12 -8.3382e-13 5.76657e-13 -2.95198e-13 -1.88125e-13 -1.85254e-13 8.80295e-15 1.18055e-13 -1.4307e-13 -1.13915e-13 5.51559e-13 -7.41026e-13 3.92345e-13 5.56078e-13 -1.13792e-12 5.61286e-13 -9.51374e-13 6.37799e-13 -8.93789e-13 -5.4633e-13 6.69499e-13 -1.24419e-14 8.81004e-13 -1.02572e-12 7.15007e-13 1.62072e-12 1.27058e-11 3.09035e-10 5.81332e-09 9.44196e-08 1.30555e-06 1.51072e-05 0.000143178 0.00107993 0.00623759 0.0263357 0.0784607 0.167961 0.282757 0.414203 0.552158 0.643191 0.742933 0.815865 0.858629 0.898165 0.933089 0.939759 0.943928 0.935802 0.921381 0.885412 0.822612 0.72498 0.583425 0.416315 0.257238 0.133337 0.0562065 0.0194806 0.0058784 0.00162981 0.000426306 0.000106197 2.52728e-05 5.75284e-06 1.25352e-06 2.61639e-07 5.23494e-08 1.00461e-08 1.85077e-09 3.28769e-10 5.46614e-11 9.99411e-12 5.46642e-14 -2.9077e-13 7.22395e-13 -1.57671e-12 8.76148e-13 -9.16055e-13 -1.94234e-13 1.49108e-12 -1.12632e-12 5.94211e-13 3.55244e-13 -2.16489e-12 1.62172e-12 1.11082e-14 -1.24515e-12 1.66958e-12 -1.60969e-12 1.73983e-12 5.19564e-13 -1.10168e-12 1.44372e-12 -1.99445e-12 1.61422e-12 -8.43272e-13 1.57589e-12 -1.493e-12 5.23641e-14 2.63004e-13 -2.23464e-13 1.04041e-13 -1.63676e-12 -1.6736e-13 1.38993e-12 -2.34422e-13 -2.3862e-13 -7.76422e-13 -2.28868e-13 1.45594e-12 -1.42963e-12 1.42933e-12 2.54739e-13 -1.11827e-12 1.61092e-12 -1.49874e-12 1.63298e-12 -2.4417e-13 -1.29942e-12 1.30835e-12 -1.08635e-12 8.22908e-13 3.38913e-13 -1.59993e-12 1.05174e-12 -2.04638e-12 4.99168e-13 -2.90198e-13 -1.53001e-12 1.57544e-12 -1.65773e-12 1.85362e-12 6.27353e-13 -3.83676e-12 2.61558e-12 -4.13041e-13 -2.11134e-13 2.77337e-13 -2.95901e-12 3.35959e-12 -1.29183e-14 0 0 -1.6946e-14 -2.47516e-14 -6.99943e-15 -5.18891e-14 -1.37723e-13 -6.01248e-14 -4.50838e-14 -1.20671e-13 -4.44022e-14 -1.17214e-13 -1.93095e-13 8.61544e-16 -6.76208e-14 -9.2955e-14 -2.95746e-14 -4.42508e-15 5.61325e-14 1.00298e-14 -4.36023e-14 2.012e-15 -1.53859e-14 -1.49127e-14 -1.19583e-13 -1.26315e-13 1.58896e-14 -3.79772e-15 1.03649e-13 -5.51437e-14 -1.27596e-13 -9.02519e-14 -6.40081e-14 -2.7751e-13 -2.22495e-14 6.04252e-14 -1.29956e-13 6.26399e-14 -1.11053e-13 1.32916e-13 -1.33588e-13 -1.10786e-13 -7.86921e-14 -1.55792e-13 -1.12268e-13 4.78003e-14 -3.04114e-13 1.4288e-13 -2.38725e-13 -5.90284e-14 -7.0025e-14 -1.9227e-13 -4.31294e-13 -1.72e-13 8.01686e-13 3.50144e-13 -2.57335e-13 -3.16775e-13 -7.28918e-13 5.89208e-13 2.1395e-13 3.19409e-13 -4.99963e-13 6.86888e-14 9.20603e-14 -1.29495e-13 -8.47318e-14 -6.29871e-14 6.48383e-14 -1.29735e-13 -1.56585e-13 -1.31003e-13 2.81635e-13 -1.99294e-13 9.30565e-14 -6.39064e-13 -3.09455e-13 -9.7161e-15 -1.18173e-13 -1.8871e-13 1.36959e-14 7.06992e-14 4.62712e-13 9.9005e-13 1.45205e-11 3.08723e-10 5.81177e-09 9.44201e-08 1.30555e-06 1.51072e-05 0.000143178 0.00107993 0.00623759 0.0263357 0.0784607 0.167961 0.282757 0.414203 0.552158 0.643191 0.742933 0.815865 0.858629 0.898165 0.933089 0.939759 0.943928 0.935802 0.921381 0.885412 0.822612 0.72498 0.583425 0.416315 0.257238 0.133337 0.0562065 0.0194806 0.0058784 0.00162981 0.000426306 0.000106197 2.52728e-05 5.75284e-06 1.25352e-06 2.6164e-07 5.23485e-08 1.0047e-08 1.85097e-09 3.26952e-10 5.58131e-11 9.10841e-12 1.41825e-12 -3.29699e-13 -9.21756e-13 -2.55067e-13 1.32569e-13 4.52707e-14 -3.39421e-13 1.75231e-13 2.0513e-13 -4.51475e-13 -2.83509e-13 2.79933e-14 6.44137e-14 4.35972e-13 8.41922e-14 -1.49729e-13 3.88995e-14 1.22457e-13 4.52318e-13 9.79065e-14 9.57814e-14 -4.20515e-15 -8.05336e-13 2.99515e-13 3.56498e-13 4.83127e-13 -3.61424e-13 -1.22798e-12 -1.95872e-13 6.64857e-13 6.85938e-13 -5.68794e-13 -1.1345e-12 -2.80764e-13 4.23207e-13 -2.0469e-13 2.2146e-13 -4.01855e-13 4.07627e-13 2.53313e-13 -5.9703e-13 4.07957e-13 7.151e-13 7.40946e-13 -7.68043e-13 -7.17167e-13 3.21972e-13 8.68271e-13 2.78326e-13 -4.04913e-13 -1.27908e-12 5.25811e-14 2.81093e-13 -1.68782e-13 -1.61099e-12 -8.0743e-13 5.56246e-13 9.09625e-13 -5.38687e-13 -6.32196e-13 -1.03135e-12 1.1573e-12 2.84317e-13 2.38464e-13 -1.13018e-12 -1.51421e-13 8.15887e-13 -3.32044e-13 -2.58085e-13 0 0 1.66272e-14 1.90621e-14 -6.8719e-14 -6.46853e-14 -6.16099e-14 -1.20698e-13 -4.33804e-14 -2.10905e-13 -1.50986e-13 -1.06888e-13 1.25656e-13 -8.51438e-15 -1.32173e-14 -2.84548e-13 -6.78462e-14 2.53833e-14 -1.36958e-13 1.93751e-13 -3.11289e-14 -1.29132e-13 -1.02942e-13 -1.4526e-14 1.44502e-14 -9.32132e-14 -1.29554e-13 1.6806e-13 -1.33808e-13 -1.51365e-13 4.19726e-14 -1.84907e-13 -2.52957e-13 6.28717e-14 1.39573e-13 -1.33697e-13 1.22519e-13 3.96313e-13 -3.42132e-13 7.37703e-14 -2.61687e-13 -4.89432e-13 -1.10217e-13 2.04707e-14 -1.10157e-13 3.45013e-13 -3.91922e-14 2.1923e-13 -7.6391e-13 3.24859e-14 -1.40661e-13 -1.4136e-13 1.00197e-13 -1.60176e-13 6.45584e-13 1.77636e-13 2.09804e-14 -1.78843e-13 -7.85099e-13 3.08286e-13 -2.83048e-13 -7.27748e-14 -1.67097e-13 -1.51498e-13 -3.00394e-13 -2.62885e-14 1.36959e-13 1.84602e-13 -2.88454e-13 8.05453e-13 7.95324e-14 -7.4915e-14 3.78501e-13 -2.65369e-13 1.60838e-13 -7.54961e-13 1.91862e-14 -3.23738e-13 -9.5648e-13 -2.11307e-13 -3.41994e-14 1.14784e-12 1.21322e-14 -3.27801e-13 1.55677e-11 3.08395e-10 5.81058e-09 9.44212e-08 1.30555e-06 1.51072e-05 0.000143178 0.00107993 0.00623759 0.0263357 0.0784607 0.167961 0.282757 0.414203 0.552158 0.643191 0.742933 0.815865 0.858629 0.898165 0.933089 0.939759 0.943928 0.935802 0.921381 0.885412 0.822612 0.72498 0.583425 0.416315 0.257238 0.133337 0.0562065 0.0194806 0.0058784 0.00162981 0.000426306 0.000106197 2.52728e-05 5.75284e-06 1.25352e-06 2.61641e-07 5.23478e-08 1.00473e-08 1.8509e-09 3.27158e-10 5.63492e-11 8.2104e-12 1.34614e-12 -4.51027e-13 -3.11875e-13 4.26321e-13 -1.03826e-12 4.88075e-14 -5.19689e-13 -1.05754e-13 7.98745e-13 -5.03963e-13 -8.36567e-13 8.04899e-13 -3.54252e-15 7.74304e-13 6.87283e-13 -1.63368e-12 6.29602e-13 6.56132e-14 1.1791e-12 7.27025e-13 -1.72791e-12 3.53981e-13 -6.14524e-13 9.79312e-13 -1.5884e-12 6.00498e-13 1.18372e-13 -8.88644e-13 3.2137e-13 -6.03282e-13 -5.14102e-13 -1.01395e-13 -3.37525e-13 6.20302e-13 -6.18234e-13 -8.29186e-13 -9.98708e-13 -3.4747e-13 1.80631e-12 1.74911e-13 2.37849e-13 1.39997e-12 -1.4016e-12 1.13306e-12 -6.01635e-13 5.2634e-14 8.56841e-13 -1.12545e-12 6.45664e-13 -1.89526e-13 -1.06171e-13 5.73195e-13 -2.15036e-12 -7.13778e-15 -6.73567e-13 -6.43775e-13 1.00569e-12 -7.90343e-14 1.12445e-12 -1.31742e-12 -1.01138e-12 1.77438e-12 -2.92039e-13 6.25549e-13 -7.75777e-13 -1.87308e-12 7.15306e-13 4.3237e-13 1.51398e-12 0 0 1.3169e-14 1.21057e-14 -3.75642e-14 -1.45849e-13 -4.32373e-14 -9.35722e-14 -1.55259e-13 -1.84094e-13 -1.03303e-13 -3.35207e-14 1.15252e-13 3.27555e-14 -1.72051e-13 -3.07221e-14 -3.38058e-14 -6.03606e-14 9.94448e-15 -1.8533e-13 7.1887e-14 -1.15185e-13 -1.2583e-13 -3.26736e-13 -8.83558e-14 2.59885e-14 -2.08374e-13 -2.58391e-13 -2.42726e-14 7.09028e-14 9.38624e-14 -2.09917e-13 7.03186e-14 9.09948e-14 2.02451e-13 2.76164e-13 2.49029e-13 -2.67101e-13 5.90502e-13 -7.41131e-13 -4.47281e-14 -2.91329e-13 -4.1716e-13 -2.95065e-13 3.08588e-13 -2.2236e-13 1.69061e-13 -7.89732e-13 4.82642e-13 -1.89441e-13 -1.63418e-13 -6.12129e-13 -3.38724e-13 8.67842e-13 -1.08085e-12 7.32508e-13 7.37105e-13 -7.61163e-13 8.36975e-13 -1.06755e-12 1.83193e-13 -5.6263e-13 1.07909e-13 -1.30107e-13 -1.9079e-13 3.23449e-13 -3.58385e-13 2.84919e-13 3.83885e-13 4.32685e-14 6.6298e-13 7.89015e-13 -8.7427e-13 3.12145e-13 -1.17986e-12 4.70294e-13 -9.05739e-13 -3.62986e-13 -7.25639e-14 -3.25132e-13 6.59477e-13 -7.78372e-13 4.00818e-13 1.16795e-12 1.28647e-11 3.0875e-10 5.81311e-09 9.44205e-08 1.30555e-06 1.51072e-05 0.000143178 0.00107993 0.00623759 0.0263357 0.0784607 0.167961 0.282757 0.414203 0.552158 0.643191 0.742933 0.815865 0.858629 0.898165 0.933089 0.939759 0.943928 0.935802 0.921381 0.885412 0.822612 0.72498 0.583425 0.416315 0.257238 0.133337 0.0562065 0.0194806 0.0058784 0.00162981 0.000426306 0.000106197 2.52728e-05 5.75284e-06 1.25352e-06 2.61639e-07 5.2349e-08 1.00461e-08 1.8508e-09 3.28832e-10 5.46524e-11 9.59015e-12 -1.75012e-13 -2.91365e-13 9.82667e-13 -1.23971e-12 4.9675e-14 -1.21926e-12 -2.21828e-13 1.44544e-12 -8.99214e-13 2.37336e-13 9.84214e-15 -1.17838e-12 1.81331e-12 1.08917e-12 -9.68753e-13 1.24764e-12 -1.52075e-12 1.66141e-12 1.08614e-12 -2.24174e-13 8.10203e-13 -2.27132e-12 1.18023e-12 -1.5557e-12 -1.95273e-13 -1.97735e-12 2.92406e-13 6.17497e-13 -4.57358e-13 -7.74453e-13 -1.92153e-12 3.07173e-13 1.25136e-12 -2.3811e-13 -1.06524e-12 -2.91463e-13 -4.11379e-13 1.5206e-12 -1.5371e-12 8.28906e-13 4.22595e-13 -7.50456e-14 3.10983e-13 -1.6955e-12 2.57049e-12 4.12391e-13 -9.66083e-13 2.78626e-14 -1.29075e-12 1.18192e-12 1.23715e-12 -8.6811e-13 -4.91785e-13 -3.17633e-12 1.00042e-12 2.55651e-13 -9.07197e-13 1.15607e-12 -9.19207e-13 1.4769e-12 1.12133e-12 -4.02664e-12 2.54535e-12 -9.13111e-14 -1.01857e-13 -1.00346e-12 -2.70411e-12 4.19703e-12 1.18311e-12 0 0 1.85823e-15 -8.00506e-15 -3.09112e-14 -5.26278e-15 -2.98822e-13 -2.05237e-13 -1.34989e-13 -1.5975e-14 2.42881e-13 -3.07513e-14 -3.16577e-13 -1.96647e-13 1.79963e-14 -2.79143e-14 1.57522e-13 2.27807e-13 7.99892e-14 -1.74966e-13 -4.46503e-13 -2.06131e-13 1.31128e-14 3.30215e-15 -5.99379e-13 -4.53051e-13 -7.61845e-14 9.89606e-14 6.34245e-14 -2.28815e-14 -3.10321e-13 1.94341e-13 2.69401e-13 4.66114e-13 2.04622e-13 -9.32846e-15 -9.21814e-14 4.82359e-13 -5.18491e-13 3.73444e-13 -5.06463e-13 -4.50824e-13 -2.67518e-13 -5.30422e-14 -6.28918e-13 -1.03322e-13 -6.97121e-13 8.23943e-13 -5.24758e-13 2.65458e-13 -1.34095e-14 -5.96784e-13 -8.5799e-13 -8.20736e-13 1.51187e-12 3.44547e-14 -3.36045e-14 5.27181e-13 -1.20616e-12 1.28038e-12 -6.48143e-13 -2.03423e-13 -4.75123e-14 4.4676e-13 3.4523e-13 -1.65696e-13 -7.31161e-13 2.01664e-13 3.63276e-13 1.0229e-12 -2.55335e-13 -4.86473e-13 1.38844e-12 -1.20897e-12 -8.39871e-14 -1.8092e-12 -9.6524e-14 9.26354e-13 -9.73456e-14 2.18799e-13 -1.19331e-12 1.78031e-14 -5.17076e-13 8.60434e-13 1.50528e-11 3.08722e-10 5.81085e-09 9.44218e-08 1.30555e-06 1.51072e-05 0.000143178 0.00107993 0.00623759 0.0263357 0.0784607 0.167961 0.282757 0.414203 0.552158 0.643191 0.742933 0.815865 0.858629 0.898165 0.933089 0.939759 0.943928 0.935802 0.921381 0.885412 0.822612 0.72498 0.583425 0.416315 0.257238 0.133337 0.0562065 0.0194806 0.0058784 0.00162981 0.000426306 0.000106197 2.52728e-05 5.75284e-06 1.25352e-06 2.6164e-07 5.23475e-08 1.00479e-08 1.85153e-09 3.25964e-10 5.60621e-11 8.11727e-12 2.28218e-12 4.94243e-13 -2.51357e-12 2.50401e-13 -1.41727e-12 9.56155e-13 8.6505e-13 -1.365e-12 9.68764e-13 -1.35701e-12 -7.21001e-13 3.28515e-12 -1.65071e-12 2.09157e-13 1.30831e-12 6.1182e-13 2.07495e-12 -1.56728e-12 -5.27567e-13 1.7133e-12 6.57171e-13 1.60822e-12 -3.57328e-12 -1.20264e-12 -1.67309e-12 6.35614e-13 -6.90511e-13 -7.24314e-13 -1.49197e-12 -7.21084e-13 2.99053e-12 -6.79849e-13 -2.42481e-12 -7.71881e-13 -5.22284e-13 3.01888e-12 1.82096e-12 -1.28557e-12 -3.20221e-13 -2.70794e-12 -9.15912e-13 1.8958e-12 -9.06263e-13 1.34941e-12 -2.27407e-13 4.77746e-13 6.99756e-13 -1.08244e-12 8.88387e-13 -5.45e-13 -7.0272e-13 1.48073e-12 -7.64098e-13 -1.14204e-12 -2.95552e-12 5.24391e-13 1.66086e-12 -9.52274e-13 1.57678e-12 -1.2401e-12 -7.97117e-13 2.97341e-12 -2.40643e-12 -1.15976e-12 -2.83903e-13 -2.07603e-13 4.45429e-12 -2.85417e-12 1.76468e-13 0
				</DataArray>
				<DataArray Name="VitesseY" type="Float32" format="ascii">