<?xml version="1.0"?>
<VTKFile type="PolyData">
	<PolyData>
		<Piece NumberOfPoints="1206" NumberOfPolys="1000">
			<Points>
				<DataArray type="Float32" NumberOfComponents="3" format="ascii">
 0 0 0 0.005 0 0 0.01 0 0 0.015 0 0 0.02 0 0 0.025 0 0 0.03 0 0 0.035 0 0 0.04 0 0 0.045 0 0 0.05 0 0 0.055 0 0 0.06 0 0 0.065 0 0 0.07 0 0 0.075 0 0 0.08 0 0 0.085 0 0 0.09 0 0 0.095 0 0 0.1 0 0 0.105 0 0 0.11 0 0 0.115 0 0 0.12 0 0 0.125 0 0 0.13 0 0 0.135 0 0 0.14 0 0 0.145 0 0 0.15 0 0 0.155 0 0 0.16 0 0 0.165 0 0 0.17 0 0 0.175 0 0 0.18 0 0 0.185 0 0 0.19 0 0 0.195 0 0 0.2 0 0 0.205 0 0 0.21 0 0 0.215 0 0 0.22 0 0 0.225 0 0 0.23 0 0 0.235 0 0 0.24 0 0 0.245 0 0 0.25 0 0 0.255 0 0 0.26 0 0 0.265 0 0 0.27 0 0 0.275 0 0 0.28 0 0 0.285 0 0 0.29 0 0 0.295 0 0 0.3 0 0 0.305 0 0 0.31 0 0 0.315 0 0 0.32 0 0 0.325 0 0 0.33 0 0 0.335 0 0 0.34 0 0 0.345 0 0 0.35 0 0 0.355 0 0 0.36 0 0 0.365 0 0 0.37 0 0 0.375 0 0 0.38 0 0 0.385 0 0 0.39 0 0 0.395 0 0 0.4 0 0 0.405 0 0 0.41 0 0 0.415 0 0 0.42 0 0 0.425 0 0 0.43 0 0 0.435 0 0 0.44 0 0 0.445 0 0 0.45 0 0 0.455 0 0 0.46 0 0 0.465 0 0 0.47 0 0 0.475 0 0 0.48 0 0 0.485 0 0 0.49 0 0 0.495 0 0 0.5 0 0 0.505 0 0 0.51 0 0 0.515 0 0 0.52 0 0 0.525 0 0 0.53 0 0 0.535 0 0 0.54 0 0 0.545 0 0 0.55 0 0 0.555 0 0 0.56 0 0 0.565 0 0 0.57 0 0 0.575 0 0 0.58 0 0 0.585 0 0 0.59 0 0 0.595 0 0 0.6 0 0 0.605 0 0 0.61 0 0 0.615 0 0 0.62 0 0 0.625 0 0 0.63 0 0 0.635 0 0 0.64 0 0 0.645 0 0 0.65 0 0 0.655 0 0 0.66 0 0 0.665 0 0 0.67 0 0 0.675 0 0 0.68 0 0 0.685 0 0 0.69 0 0 0.695 0 0 0.7 0 0 0.705 0 0 0.71 0 0 0.715 0 0 0.72 0 0 0.725 0 0 0.73 0 0 0.735 0 0 0.74 0 0 0.745 0 0 0.75 0 0 0.755 0 0 0.76 0 0 0.765 0 0 0.77 0 0 0.775 0 0 0.78 0 0 0.785 0 0 0.79 0 0 0.795 0 0 0.8 0 0 0.805 0 0 0.81 0 0 0.815 0 0 0.82 0 0 0.825 0 0 0.83 0 0 0.835 0 0 0.84 0 0 0.845 0 0 0.85 0 0 0.855 0 0 0.86 0 0 0.865 0 0 0.87 0 0 0.875 0 0 0.88 0 0 0.885 0 0 0.89 0 0 0.895 0 0 0.9 0 0 0.905 0 0 0.91 0 0 0.915 0 0 0.92 0 0 0.925 0 0 0.93 0 0 0.935 0 0 0.94 0 0 0.945 0 0 0.95 0 0 0.955 0 0 0.96 0 0 0.965 0 0 0.97 0 0 0.975 0 0 0.98 0 0 0.985 0 0 0.99 0 0 0.995 0 0 1 0 0 0 0.02 0 0.005 0.02 0 0.01 0.02 0 0.015 0.02 0 0.02 0.02 0 0.025 0.02 0 0.03 0.02 0 0.035 0.02 0 0.04 0.02 0 0.045 0.02 0 0.05 0.02 0 0.055 0.02 0 0.06 0.02 0 0.065 0.02 0 0.07 0.02 0 0.075 0.02 0 0.08 0.02 0 0.085 0.02 0 0.09 0.02 0 0.095 0.02 0 0.1 0.02 0 0.105 0.02 0 0.11 0.02 0 0.115 0.02 0 0.12 0.02 0 0.125 0.02 0 0.13 0.02 0 0.135 0.02 0 0.14 0.02 0 0.145 0.02 0 0.15 0.02 0 0.155 0.02 0 0.16 0.02 0 0.165 0.02 0 0.17 0.02 0 0.175 0.02 0 0.18 0.02 0 0.185 0.02 0 0.19 0.02 0 0.195 0.02 0 0.2 0.02 0 0.205 0.02 0 0.21 0.02 0 0.215 0.02 0 0.22 0.02 0 0.225 0.02 0 0.23 0.02 0 0.235 0.02 0 0.24 0.02 0 0.245 0.02 0 0.25 0.02 0 0.255 0.02 0 0.26 0.02 0 0.265 0.02 0 0.27 0.02 0 0.275 0.02 0 0.28 0.02 0 0.285 0.02 0 0.29 0.02 0 0.295 0.02 0 0.3 0.02 0 0.305 0.02 0 0.31 0.02 0 0.315 0.02 0 0.32 0.02 0 0.325 0.02 0 0.33 0.02 0 0.335 0.02 0 0.34 0.02 0 0.345 0.02 0 0.35 0.02 0 0.355 0.02 0 0.36 0.02 0 0.365 0.02 0 0.37 0.02 0 0.375 0.02 0 0.38 0.02 0 0.385 0.02 0 0.39 0.02 0 0.395 0.02 0 0.4 0.02 0 0.405 0.02 0 0.41 0.02 0 0.415 0.02 0 0.42 0.02 0 0.425 0.02 0 0.43 0.02 0 0.435 0.02 0 0.44 0.02 0 0.445 0.02 0 0.45 0.02 0 0.455 0.02 0 0.46 0.02 0 0.465 0.02 0 0.47 0.02 0 0.475 0.02 0 0.48 0.02 0 0.485 0.02 0 0.49 0.02 0 0.495 0.02 0 0.5 0.02 0 0.505 0.02 0 0.51 0.02 0 0.515 0.02 0 0.52 0.02 0 0.525 0.02 0 0.53 0.02 0 0.535 0.02 0 0.54 0.02 0 0.545 0.02 0 0.55 0.02 0 0.555 0.02 0 0.56 0.02 0 0.565 0.02 0 0.57 0.02 0 0.575 0.02 0 0.58 0.02 0 0.585 0.02 0 0.59 0.02 0 0.595 0.02 0 0.6 0.02 0 0.605 0.02 0 0.61 0.02 0 0.615 0.02 0 0.62 0.02 0 0.625 0.02 0 0.63 0.02 0 0.635 0.02 0 0.64 0.02 0 0.645 0.02 0 0.65 0.02 0 0.655 0.02 0 0.66 0.02 0 0.665 0.02 0 0.67 0.02 0 0.675 0.02 0 0.68 0.02 0 0.685 0.02 0 0.69 0.02 0 0.695 0.02 0 0.7 0.02 0 0.705 0.02 0 0.71 0.02 0 0.715 0.02 0 0.72 0.02 0 0.725 0.02 0 0.73 0.02 0 0.735 0.02 0 0.74 0.02 0 0.745 0.02 0 0.75 0.02 0 0.755 0.02 0 0.76 0.02 0 0.765 0.02 0 0.77 0.02 0 0.775 0.02 0 0.78 0.02 0 0.785 0.02 0 0.79 0.02 0 0.795 0.02 0 0.8 0.02 0 0.805 0.02 0 0.81 0.02 0 0.815 0.02 0 0.82 0.02 0 0.825 0.02 0 0.83 0.02 0 0.835 0.02 0 0.84 0.02 0 0.845 0.02 0 0.85 0.02 0 0.855 0.02 0 0.86 0.02 0 0.865 0.02 0 0.87 0.02 0 0.875 0.02 0 0.88 0.02 0 0.885 0.02 0 0.89 0.02 0 0.895 0.02 0 0.9 0.02 0 0.905 0.02 0 0.91 0.02 0 0.915 0.02 0 0.92 0.02 0 0.925 0.02 0 0.93 0.02 0 0.935 0.02 0 0.94 0.02 0 0.945 0.02 0 0.95 0.02 0 0.955 0.02 0 0.96 0.02 0 0.965 0.02 0 0.97 0.02 0 0.975 0.02 0 0.98 0.02 0 0.985 0.02 0 0.99 0.02 0 0.995 0.02 0 1 0.02 0 0 0.04 0 0.005 0.04 0 0.01 0.04 0 0.015 0.04 0 0.02 0.04 0 0.025 0.04 0 0.03 0.04 0 0.035 0.04 0 0.04 0.04 0 0.045 0.04 0 0.05 0.04 0 0.055 0.04 0 0.06 0.04 0 0.065 0.04 0 0.07 0.04 0 0.075 0.04 0 0.08 0.04 0 0.085 0.04 0 0.09 0.04 0 0.095 0.04 0 0.1 0.04 0 0.105 0.04 0 0.11 0.04 0 0.115 0.04 0 0.12 0.04 0 0.125 0.04 0 0.13 0.04 0 0.135 0.04 0 0.14 0.04 0 0.145 0.04 0 0.15 0.04 0 0.155 0.04 0 0.16 0.04 0 0.165 0.04 0 0.17 0.04 0 0.175 0.04 0 0.18 0.04 0 0.185 0.04 0 0.19 0.04 0 0.195 0.04 0 0.2 0.04 0 0.205 0.04 0 0.21 0.04 0 0.215 0.04 0 0.22 0.04 0 0.225 0.04 0 0.23 0.04 0 0.235 0.04 0 0.24 0.04 0 0.245 0.04 0 0.25 0.04 0 0.255 0.04 0 0.26 0.04 0 0.265 0.04 0 0.27 0.04 0 0.275 0.04 0 0.28 0.04 0 0.285 0.04 0 0.29 0.04 0 0.295 0.04 0 0.3 0.04 0 0.305 0.04 0 0.31 0.04 0 0.315 0.04 0 0.32 0.04 0 0.325 0.04 0 0.33 0.04 0 0.335 0.04 0 0.34 0.04 0 0.345 0.04 0 0.35 0.04 0 0.355 0.04 0 0.36 0.04 0 0.365 0.04 0 0.37 0.04 0 0.375 0.04 0 0.38 0.04 0 0.385 0.04 0 0.39 0.04 0 0.395 0.04 0 0.4 0.04 0 0.405 0.04 0 0.41 0.04 0 0.415 0.04 0 0.42 0.04 0 0.425 0.04 0 0.43 0.04 0 0.435 0.04 0 0.44 0.04 0 0.445 0.04 0 0.45 0.04 0 0.455 0.04 0 0.46 0.04 0 0.465 0.04 0 0.47 0.04 0 0.475 0.04 0 0.48 0.04 0 0.485 0.04 0 0.49 0.04 0 0.495 0.04 0 0.5 0.04 0 0.505 0.04 0 0.51 0.04 0 0.515 0.04 0 0.52 0.04 0 0.525 0.04 0 0.53 0.04 0 0.535 0.04 0 0.54 0.04 0 0.545 0.04 0 0.55 0.04 0 0.555 0.04 0 0.56 0.04 0 0.565 0.04 0 0.57 0.04 0 0.575 0.04 0 0.58 0.04 0 0.585 0.04 0 0.59 0.04 0 0.595 0.04 0 0.6 0.04 0 0.605 0.04 0 0.61 0.04 0 0.615 0.04 0 0.62 0.04 0 0.625 0.04 0 0.63 0.04 0 0.635 0.04 0 0.64 0.04 0 0.645 0.04 0 0.65 0.04 0 0.655 0.04 0 0.66 0.04 0 0.665 0.04 0 0.67 0.04 0 0.675 0.04 0 0.68 0.04 0 0.685 0.04 0 0.69 0.04 0 0.695 0.04 0 0.7 0.04 0 0.705 0.04 0 0.71 0.04 0 0.715 0.04 0 0.72 0.04 0 0.725 0.04 0 0.73 0.04 0 0.735 0.04 0 0.74 0.04 0 0.745 0.04 0 0.75 0.04 0 0.755 0.04 0 0.76 0.04 0 0.765 0.04 0 0.77 0.04 0 0.775 0.04 0 0.78 0.04 0 0.785 0.04 0 0.79 0.04 0 0.795 0.04 0 0.8 0.04 0 0.805 0.04 0 0.81 0.04 0 0.815 0.04 0 0.82 0.04 0 0.825 0.04 0 0.83 0.04 0 0.835 0.04 0 0.84 0.04 0 0.845 0.04 0 0.85 0.04 0 0.855 0.04 0 0.86 0.04 0 0.865 0.04 0 0.87 0.04 0 0.875 0.04 0 0.88 0.04 0 0.885 0.04 0 0.89 0.04 0 0.895 0.04 0 0.9 0.04 0 0.905 0.04 0 0.91 0.04 0 0.915 0.04 0 0.92 0.04 0 0.925 0.04 0 0.93 0.04 0 0.935 0.04 0 0.94 0.04 0 0.945 0.04 0 0.95 0.04 0 0.955 0.04 0 0.96 0.04 0 0.965 0.04 0 0.97 0.04 0 0.975 0.04 0 0.98 0.04 0 0.985 0.04 0 0.99 0.04 0 0.995 0.04 0 1 0.04 0 0 0.06 0 0.005 0.06 0 0.01 0.06 0 0.015 0.06 0 0.02 0.06 0 0.025 0.06 0 0.03 0.06 0 0.035 0.06 0 0.04 0.06 0 0.045 0.06 0 0.05 0.06 0 0.055 0.06 0 0.06 0.06 0 0.065 0.06 0 0.07 0.06 0 0.075 0.06 0 0.08 0.06 0 0.085 0.06 0 0.09 0.06 0 0.095 0.06 0 0.1 0.06 0 0.105 0.06 0 0.11 0.06 0 0.115 0.06 0 0.12 0.06 0 0.125 0.06 0 0.13 0.06 0 0.135 0.06 0 0.14 0.06 0 0.145 0.06 0 0.15 0.06 0 0.155 0.06 0 0.16 0.06 0 0.165 0.06 0 0.17 0.06 0 0.175 0.06 0 0.18 0.06 0 0.185 0.06 0 0.19 0.06 0 0.195 0.06 0 0.2 0.06 0 0.205 0.06 0 0.21 0.06 0 0.215 0.06 0 0.22 0.06 0 0.225 0.06 0 0.23 0.06 0 0.235 0.06 0 0.24 0.06 0 0.245 0.06 0 0.25 0.06 0 0.255 0.06 0 0.26 0.06 0 0.265 0.06 0 0.27 0.06 0 0.275 0.06 0 0.28 0.06 0 0.285 0.06 0 0.29 0.06 0 0.295 0.06 0 0.3 0.06 0 0.305 0.06 0 0.31 0.06 0 0.315 0.06 0 0.32 0.06 0 0.325 0.06 0 0.33 0.06 0 0.335 0.06 0 0.34 0.06 0 0.345 0.06 0 0.35 0.06 0 0.355 0.06 0 0.36 0.06 0 0.365 0.06 0 0.37 0.06 0 0.375 0.06 0 0.38 0.06 0 0.385 0.06 0 0.39 0.06 0 0.395 0.06 0 0.4 0.06 0 0.405 0.06 0 0.41 0.06 0 0.415 0.06 0 0.42 0.06 0 0.425 0.06 0 0.43 0.06 0 0.435 0.06 0 0.44 0.06 0 0.445 0.06 0 0.45 0.06 0 0.455 0.06 0 0.46 0.06 0 0.465 0.06 0 0.47 0.06 0 0.475 0.06 0 0.48 0.06 0 0.485 0.06 0 0.49 0.06 0 0.495 0.06 0 0.5 0.06 0 0.505 0.06 0 0.51 0.06 0 0.515 0.06 0 0.52 0.06 0 0.525 0.06 0 0.53 0.06 0 0.535 0.06 0 0.54 0.06 0 0.545 0.06 0 0.55 0.06 0 0.555 0.06 0 0.56 0.06 0 0.565 0.06 0 0.57 0.06 0 0.575 0.06 0 0.58 0.06 0 0.585 0.06 0 0.59 0.06 0 0.595 0.06 0 0.6 0.06 0 0.605 0.06 0 0.61 0.06 0 0.615 0.06 0 0.62 0.06 0 0.625 0.06 0 0.63 0.06 0 0.635 0.06 0 0.64 0.06 0 0.645 0.06 0 0.65 0.06 0 0.655 0.06 0 0.66 0.06 0 0.665 0.06 0 0.67 0.06 0 0.675 0.06 0 0.68 0.06 0 0.685 0.06 0 0.69 0.06 0 0.695 0.06 0 0.7 0.06 0 0.705 0.06 0 0.71 0.06 0 0.715 0.06 0 0.72 0.06 0 0.725 0.06 0 0.73 0.06 0 0.735 0.06 0 0.74 0.06 0 0.745 0.06 0 0.75 0.06 0 0.755 0.06 0 0.76 0.06 0 0.765 0.06 0 0.77 0.06 0 0.775 0.06 0 0.78 0.06 0 0.785 0.06 0 0.79 0.06 0 0.795 0.06 0 0.8 0.06 0 0.805 0.06 0 0.81 0.06 0 0.815 0.06 0 0.82 0.06 0 0.825 0.06 0 0.83 0.06 0 0.835 0.06 0 0.84 0.06 0 0.845 0.06 0 0.85 0.06 0 0.855 0.06 0 0.86 0.06 0 0.865 0.06 0 0.87 0.06 0 0.875 0.06 0 0.88 0.06 0 0.885 0.06 0 0.89 0.06 0 0.895 0.06 0 0.9 0.06 0 0.905 0.06 0 0.91 0.06 0 0.915 0.06 0 0.92 0.06 0 0.925 0.06 0 0.93 0.06 0 0.935 0.06 0 0.94 0.06 0 0.945 0.06 0 0.95 0.06 0 0.955 0.06 0 0.96 0.06 0 0.965 0.06 0 0.97 0.06 0 0.975 0.06 0 0.98 0.06 0 0.985 0.06 0 0.99 0.06 0 0.995 0.06 0 1 0.06 0 0 0.08 0 0.005 0.08 0 0.01 0.08 0 0.015 0.08 0 0.02 0.08 0 0.025 0.08 0 0.03 0.08 0 0.035 0.08 0 0.04 0.08 0 0.045 0.08 0 0.05 0.08 0 0.055 0.08 0 0.06 0.08 0 0.065 0.08 0 0.07 0.08 0 0.075 0.08 0 0.08 0.08 0 0.085 0.08 0 0.09 0.08 0 0.095 0.08 0 0.1 0.08 0 0.105 0.08 0 0.11 0.08 0 0.115 0.08 0 0.12 0.08 0 0.125 0.08 0 0.13 0.08 0 0.135 0.08 0 0.14 0.08 0 0.145 0.08 0 0.15 0.08 0 0.155 0.08 0 0.16 0.08 0 0.165 0.08 0
[...]
			<PointData Scalars="VitesseX">
				<DataArray Name="VitesseX" type="Float32" format="ascii">
 0 -3.68428e-15 6.24387e-15 2.57767e-14 3.55471e-14 -2.09318e-15 3.7027e-14 -1.59425e-14 -4.91955e-15 1.38178e-14 -8.42516e-15 -2.96115e-14 5.23482e-14 2.92585e-14 -1.45937e-13 -7.97488e-14 4.43528e-15 -2.37047e-13 -3.53419e-14 -1.34061e-13 -8.5274e-14 7.39291e-14 -2.81955e-13 1.92116e-13 -1.90039e-13 3.99639e-14 -3.2302e-13 -2.86406e-14 -2.52989e-13 1.8269e-13 -2.0567e-13 -1.36238e-13 -1.84693e-13 -2.14868e-13 -2.46517e-13 -2.07612e-13 -2.64122e-14 -1.80994e-14 -4.0508e-14 1.28346e-13 5.80122e-14 -1.59535e-13 9.11456e-14 4.09319e-13 1.26026e-12 9.81996e-12 6.32739e-11 3.76645e-10 2.11014e-09 1.11715e-08 5.57774e-08 2.61843e-07 1.15213e-06 4.73457e-06 1.80949e-05 6.40028e-05 0.0002083 0.000619521 0.00167076 0.00405241 0.0087779 0.0169232 0.0291297 0.0452536 0.0645171 0.085977 0.108863 0.132657 0.157042 0.181834 0.206909 0.232188 0.257628 0.283201 0.308894 0.334699 0.360621 0.38667 0.412869 0.439233 0.46526 0.490821 0.516225 0.541218 0.566015 0.590729 0.615067 0.63941 0.663314 0.68717 0.710762 0.733928 0.757107 0.779698 0.801695 0.823777 0.844248 0.864275 0.882924 0.897926 0.911468 0.920792 0.926056 0.930129 0.931445 0.931623 0.93175 0.931703 0.931537 0.931244 0.930868 0.930469 0.930097 0.92976 0.929456 0.929192 0.928969 0.928783 0.928636 0.92852 0.928426 0.928342 0.928257 0.928152 0.927993 0.927727 0.927278 0.926578 0.926528 0.929865 0.930759 0.927719 0.927115 0.927238 0.927457 0.927564 0.927652 0.927697 0.927646 0.927552 0.927543 0.927627 0.927626 0.92761 0.927574 0.927482 0.927279 0.926896 0.926139 0.924608 0.921535 0.915462 0.903742 0.881942 0.843564 0.780994 0.68852 0.567014 0.428344 0.29181 0.176515 0.0934436 0.0434572 0.0182916 0.00725712 0.00279758 0.00106461 0.000402646 0.000151736 5.70206e-05 2.13697e-05 7.98564e-06 2.97467e-06 1.10416e-06 4.08253e-07 1.503e-07 5.5075e-08 2.00788e-08 7.28016e-09 2.62373e-09 9.39886e-10 3.34274e-10 1.17778e-10 4.12204e-11 1.40665e-11 4.4652e-12 1.6617e-12 4.50701e-13 1.54099e-13 6.24561e-13 -7.33908e-13 -3.05625e-13 5.75179e-13 1.23229e-13 -2.41083e-13 5.44289e-13 5.38405e-13 -3.04224e-13 8.78828e-13 -6.73042e-13 0 0 1.21877e-14 1.50814e-14 1.78688e-15 2.57899e-14 2.62942e-14 -7.03842e-15 -1.90806e-14 -1.64796e-14 1.98398e-14 -2.97793e-14 3.19767e-14 -1.28312e-14 -1.28981e-13 -9.90195e-15 1.04412e-15 -1.49382e-13 -2.42784e-14 -9.23738e-14 -5.9566e-14 -2.54518e-14 -1.43024e-13 8.68179e-14 -2.56875e-13 8.94347e-14 -1.93312e-13 6.0978e-14 -2.45147e-13 -3.41099e-14 -2.8043e-13 3.16802e-14 -1.01874e-13 -2.26497e-13 -3.03797e-13 -1.2183e-13 -5.56881e-14 -1.62671e-13 -1.81514e-13 4.11903e-14 6.51652e-14 -2.25551e-14 -2.38636e-14 1.42072e-13 -2.02553e-13 1.53005e-12 9.92627e-12 6.34956e-11 3.76541e-10 2.1099e-09 1.11718e-08 5.57773e-08 2.61843e-07 1.15214e-06 4.73457e-06 1.80949e-05 6.40028e-05 0.0002083 0.000619521 0.00167076 0.00405241 0.0087779 0.0169232 0.0291297 0.0452536 0.0645171 0.085977 0.108863 0.132657 0.157042 0.181834 0.206909 0.232188 0.257628 0.283201 0.308894 0.334699 0.360621 0.38667 0.412869 0.439233 0.46526 0.490821 0.516225 0.541218 0.566015 0.590729 0.615067 0.63941 0.663314 0.68717 0.710762 0.733928 0.757107 0.779698 0.801695 0.823777 0.844248 0.864275 0.882924 0.897926 0.911468 0.920792 0.926056 0.930129 0.931445 0.931623 0.93175 0.931703 0.931537 0.931244 0.930868 0.930469 0.930097 0.92976 0.929456 0.929192 0.928969 0.928783 0.928636 0.92852 0.928426 0.928342 0.928257 0.928152 0.927993 0.927727 0.927278 0.926578 0.926528 0.929865 0.930759 0.927719 0.927115 0.927238 0.927457 0.927564 0.927652 0.927697 0.927646 0.927552 0.927543 0.927627 0.927626 0.92761 0.927574 0.927482 0.927279 0.926896 0.926139 0.924608 0.921535 0.915462 0.903742 0.881942 0.843564 0.780994 0.68852 0.567014 0.428344 0.29181 0.176515 0.0934436 0.0434572 0.0182916 0.00725712 0.00279758 0.00106461 0.000402646 0.000151736 5.70206e-05 2.13697e-05 7.98564e-06 2.97467e-06 1.10416e-06 4.08253e-07 1.503e-07 5.50749e-08 2.00791e-08 7.28021e-09 2.6241e-09 9.39731e-10 3.34228e-10 1.17978e-10 4.11886e-11 1.40444e-11 4.76083e-12 1.1867e-12 5.13787e-13 2.58656e-13 -1.27752e-13 1.30689e-13 -3.36122e-13 2.35089e-13 2.19402e-13 7.23882e-13 -2.10169e-13 -6.70189e-14 7.62779e-13 -3.44698e-13 5.19423e-13 0 0 -1.43375e-15 1.16623e-14 2.12897e-14 -2.92377e-14 -2.8132e-14 2.21391e-14 -2.30636e-14 1.93702e-14 4.00116e-14 -1.5724e-14 -9.38417e-14 -3.01615e-14 2.79004e-14 -3.1292e-14 -3.18587e-14 -9.32935e-14 -1.05675e-13 1.76168e-14 -6.21805e-14 -9.46722e-14 9.34718e-14 -9.80245e-14 3.96379e-14 -2.15911e-13 -2.49015e-14 -2.0907e-13 -1.20532e-13 -3.39853e-13 6.84388e-14 -6.11785e-14 2.0326e-14 -6.18437e-14 -1.32438e-13 -2.89697e-13 -4.56923e-13 6.43725e-14 -1.32054e-14 -6.07098e-14 -9.35834e-14 -8.1425e-14 -9.17013e-14 3.94384e-14 4.54029e-14 1.23329e-12 1.02696e-11 6.37671e-11 3.76421e-10 2.11001e-09 1.1172e-08 5.57774e-08 2.61843e-07 1.15213e-06 4.73457e-06 1.80949e-05 6.40028e-05 0.0002083 0.000619521 0.00167076 0.00405241 0.0087779 0.0169232 0.0291297 0.0452536 0.0645171 0.085977 0.108863 0.132657 0.157042 0.181834 0.206909 0.232188 0.257628 0.283201 0.308894 0.334699 0.360621 0.38667 0.412869 0.439233 0.46526 0.490821 0.516225 0.541218 0.566015 0.590729 0.615067 0.63941 0.663314 0.68717 0.710762 0.733928 0.757107 0.779698 0.801695 0.823777 0.844248 0.864275 0.882924 0.897926 0.911468 0.920792 0.926056 0.930129 0.931445 0.931623 0.93175 0.931703 0.931537 0.931244 0.930868 0.930469 0.930097 0.92976 0.929456 0.929192 0.928969 0.928783 0.928636 0.92852 0.928426 0.928342 0.928257 0.928152 0.927993 0.927727 0.927278 0.926578 0.926528 0.929865 0.930759 0.927719 0.927115 0.927238 0.927457 0.927564 0.927652 0.927697 0.927646 0.927552 0.927543 0.927627 0.927626 0.92761 0.927574 0.927482 0.927279 0.926896 0.926139 0.924608 0.921535 0.915462 0.903742 0.881942 0.843564 0.780994 0.68852 0.567014 0.428344 0.29181 0.176515 0.0934436 0.0434572 0.0182916 0.00725712 0.00279758 0.00106461 0.000402646 0.000151736 5.70206e-05 2.13697e-05 7.98564e-06 2.97467e-06 1.10416e-06 4.08253e-07 1.50301e-07 5.50752e-08 2.00788e-08 7.28023e-09 2.62434e-09 9.40001e-10 3.34377e-10 1.18009e-10 4.11546e-11 1.43382e-11 4.65626e-12 1.61038e-12 4.21002e-13 -2.89034e-13 -3.97718e-13 2.15887e-13 -1.80926e-13 2.86959e-13 6.58502e-13 2.97074e-13 3.98901e-14 -7.91319e-13 2.00565e-13 -1.32525e-13 3.47779e-13 0 0 -9.05462e-15 -1.39747e-14 -1.0247e-14 -2.02643e-14 -5.26938e-14 4.32077e-14 -4.97993e-14 -4.06979e-14 -1.52402e-14 1.33175e-14 4.02532e-14 4.34741e-14 2.32013e-14 -1.27245e-13 -5.43923e-15 4.08401e-14 -8.70326e-14 -5.47531e-15 -8.33476e-14 -5.83171e-15 -7.4491e-14 -1.77966e-14 2.91422e-14 -9.2071e-14 -1.03546e-13 -1.88719e-13 -2.77817e-13 -1.9399e-13 -7.70514e-14 -6.64041e-14 5.55916e-14 -1.82151e-15 -1.27369e-13 -2.82135e-13 -1.47322e-13 -2.55756e-14 -5.32591e-14 -1.01746e-13 -7.07903e-14 -1.1501e-13 -9.78195e-14 -6.2087e-14 2.25694e-14 1.47046e-12 1.0173e-11 6.4028e-11 3.76736e-10 2.10971e-09 1.11716e-08 5.57775e-08 2.61843e-07 1.15213e-06 4.73457e-06 1.80949e-05 6.40028e-05 0.0002083 0.000619521 0.00167076 0.00405241 0.0087779 0.0169232 0.0291297 0.0452536 0.0645171 0.085977 0.108863 0.132657 0.157042 0.181834 0.206909 0.232188 0.257628 0.283201 0.308894 0.334699 0.360621 0.38667 0.412869 0.439233 0.46526 0.490821 0.516225 0.541218 0.566015 0.590729 0.615067 0.63941 0.663314 0.68717 0.710762 0.733928 0.757107 0.779698 0.801695 0.823777 0.844248 0.864275 0.882924 0.897926 0.911468 0.920792 0.926056 0.930129 0.931445 0.931623 0.93175 0.931703 0.931537 0.931244 0.930868 0.930469 0.930097 0.92976 0.929456 0.929192 0.928969 0.928783 0.928636 0.92852 0.928426 0.928342 0.928257 0.928152 0.927993 0.927727 0.927278 0.926578 0.926528 0.929865 0.930759 0.927719 0.927115 0.927238 0.927457 0.927564 0.927652 0.927697 0.927646 0.927552 0.927543 0.927627 0.927626 0.92761 0.927574 0.927482 0.927279 0.926896 0.926139 0.924608 0.921535 0.915462 0.903742 0.881942 0.843564 0.780994 0.68852 0.567014 0.428344 0.29181 0.176515 0.0934436 0.0434572 0.0182916 0.00725712 0.00279758 0.00106461 0.000402646 0.000151736 5.70206e-05 2.13697e-05 7.98564e-06 2.97467e-06 1.10416e-06 4.08253e-07 1.503e-07 5.50749e-08 2.0079e-08 7.28003e-09 2.62427e-09 9.40231e-10 3.3441e-10 1.17929e-10 4.16116e-11 1.44156e-11 4.59304e-12 1.71759e-12 2.99952e-13 -7.23325e-14 -1.63072e-13 -5.86538e-13 -4.07729e-13 6.67943e-13 2.17258e-13 1.8843e-14 1.65685e-13 -2.09264e-13 -4.8062e-13 -4.06091e-13 -7.95518e-13 0 0 -5.93472e-15 -2.91495e-14 -5.6878e-14 -3.30682e-14 -2.56712e-14 -3.85036e-14 -4.15521e-14 -4.53226e-14 -6.82263e-15 -3.1797e-15 9.57636e-14 1.47006e-14 -7.10938e-14 1.14782e-14 8.16359e-14 2.76432e-14 9.45461e-14 -2.58078e-14 -5.82501e-14 2.84128e-14 -2.51397e-13 1.10375e-13 -2.87749e-13 1.72161e-13 -3.26188e-13 -3.45366e-14 -3.28391e-13 6.93351e-14 -4.17645e-13 3.82396e-14 -1.53867e-13 -5.78962e-14 -1.01209e-13 7.00512e-14 1.24982e-13 -8.76953e-14 -7.42704e-14 1.10565e-13 -7.5479e-14 -1.86305e-13 -1.60044e-13 1.1742e-14 -3.44267e-13 1.56279e-12 1.00174e-11 6.38859e-11 3.7679e-10 2.10976e-09 1.11717e-08 5.57775e-08 2.61843e-07 1.15214e-06 4.73457e-06 1.80949e-05 6.40028e-05 0.0002083 0.000619521 0.00167076 0.00405241 0.0087779 0.0169232 0.0291297 0.0452536 0.0645171 0.085977 0.108863 0.132657 0.157042 0.181834 0.206909 0.232188 0.257628 0.283201 0.308894 0.334699 0.360621 0.38667 0.412869 0.439233 0.46526 0.490821 0.516225 0.541218 0.566015 0.590729 0.615067 0.63941 0.663314 0.68717 0.710762 0.733928 0.757107 0.779698 0.801695 0.823777 0.844248 0.864275 0.882924 0.897926 0.911468 0.920792 0.926056 0.930129 0.931445 0.931623 0.93175 0.931703 0.931537 0.931244 0.930868 0.930469 0.930097 0.92976 0.929456 0.929192 0.928969 0.928783 0.928636 0.92852 0.928426 0.928342 0.928257 0.928152 0.927993 0.927727 0.927278 0.926578 0.926528 0.929865 0.930759 0.927719 0.927115 0.927238 0.927457 0.927564 0.927652 0.927697 0.927646 0.927552 0.927543 0.927627 0.927626 0.92761 0.927574 0.927482 0.927279 0.926896 0.926139 0.924608 0.921535 0.915462 0.903742 0.881942 0.843564 0.780994 0.68852 0.567014 0.428344 0.29181 0.176515 0.0934436 0.0434572 0.0182916 0.00725712 0.00279758 0.00106461 0.000402646 0.000151736 5.70206e-05 2.13697e-05 7.98564e-06 2.97467e-06 1.10416e-06 4.08253e-07 1.503e-07 5.50749e-08 2.00793e-08 7.28019e-09 2.62439e-09 9.4003e-10 3.3425e-10 1.18059e-10 4.12831e-11 1.39067e-11 4.88953e-12 1.11909e-12 2.97968e-13 2.50727e-13 -3.74135e-13 -2.27309e-13 -1.16678e-13 4.60924e-13 -3.26187e-13 4.21839e-13 -4.27225e-13 -1.05162e-13 1.79348e-13 -3.64498e-13 -1.48057e-13 0 0 -2.46874e-14 -3.09437e-14 -2.84797e-14 -1.00116e-13 -5.69002e-14 -6.80404e-14 -7.41396e-15 5.75308e-14 7.09966e-14 -1.3309e-14 -1.70227e-13 -3.98593e-14 1.54431e-13 8.87287e-14 2.85959e-14 9.02176e-14 -3.66823e-14 1.43974e-13 -8.90951e-14 -1.55226e-13 1.93109e-13 -3.95296e-13 1.5136e-13 -2.72267e-13 -6.85018e-14 -5.54752e-13 1.19442e-13 -3.37825e-13 1.9924e-13 -1.821e-13 -3.10754e-13 3.24646e-14 1.80169e-13 1.2212e-13 -4.65475e-13 3.03435e-13 2.76495e-13 1.80314e-13 -1.98529e-13 -2.02317e-13 -4.1966e-13 3.35363e-14 1.71558e-13 8.51404e-13 1.01953e-11 6.35326e-11 3.76514e-10 2.11048e-09 1.11719e-08 5.57777e-08 2.61843e-07 1.15213e-06 4.73457e-06 1.80949e-05 6.40028e-05 0.0002083 0.000619521 0.00167076 0.00405241 0.0087779 0.0169232 0.0291297 0.0452536 0.0645171 0.085977 0.108863 0.132657 0.157042 0.181834 0.206909 0.232188 0.257628 0.283201 0.308894 0.334699 0.360621 0.38667 0.412869 0.439233 0.46526 0.490821 0.516225 0.541218 0.566015 0.590729 0.615067 0.63941 0.663314 0.68717 0.710762 0.733928 0.757107 0.779698 0.801695 0.823777 0.844248 0.864275 0.882924 0.897926 0.911468 0.920792 0.926056 0.930129 0.931445 0.931623 0.93175 0.931703 0.931537 0.931244 0.930868 0.930469 0.930097 0.92976 0.929456 0.929192 0.928969 0.928783 0.928636 0.92852 0.928426 0.928342 0.928257 0.928152 0.927993 0.927727 0.927278 0.926578 0.926528 0.929865 0.930759 0.927719 0.927115 0.927238 0.927457 0.927564 0.927652 0.927697 0.927646 0.927552 0.927543 0.927627 0.927626 0.92761 0.927574 0.927482 0.927279 0.926896 0.926139 0.924608 0.921535 0.915462 0.903742 0.881942 0.843564 0.780994 0.68852 0.567014 0.428344 0.29181 0.176515 0.0934436 0.0434572 0.0182916 0.00725712 0.00279758 0.00106461 0.000402646 0.000151736 5.70206e-05 2.13697e-05 7.98564e-06 2.97467e-06 1.10416e-06 4.08253e-07 1.50301e-07 5.50755e-08 2.00788e-08 7.2805e-09 2.62444e-09 9.40023e-10 3.34252e-10 1.18099e-10 4.04955e-11 1.36363e-11 4.84904e-12 1.31208e-12 2.61163e-13 -2.9516e-13 -3.37496e-13 1.54945e-13 5.86869e-13 2.64881e-13 -8.54625e-14 -2.88708e-13 -1.41414e-13 -7.01991e-13 -1.08716e-13 1.38636e-12 2.78593e-13 0
				</DataArray>
				<DataArray Name="VitesseY" type="Float32" format="ascii">