<?xml version="1.0"?>
<VTKFile type="PolyData">
	<PolyData>
		<Piece NumberOfPoints="1206" NumberOfPolys="1000">
			<Points>
				<DataArray type="Float32" NumberOfComponents="3" format="ascii">
 0 0 0 0.005 0 0 0.01 0 0 0.015 0 0 0.02 0 0 0.025 0 0 0.03 0 0 0.035 0 0 0.04 0 0 0.045 0 0 0.05 0 0 0.055 0 0 0.06 0 0 0.065 0 0 0.07 0 0 0.075 0 0 0.08 0 0 0.085 0 0 0.09 0 0 0.095 0 0 0.1 0 0 0.105 0 0 0.11 0 0 0.115 0 0 0.12 0 0 0.125 0 0 0.13 0 0 0.135 0 0 0.14 0 0 0.145 0 0 0.15 0 0 0.155 0 0 0.16 0 0 0.165 0 0 0.17 0 0 0.175 0 0 0.18 0 0 0.185 0 0 0.19 0 0 0.195 0 0 0.2 0 0 0.205 0 0 0.21 0 0 0.215 0 0 0.22 0 0 0.225 0 0 0.23 0 0 0.235 0 0 0.24 0 0 0.245 0 0 0.25 0 0 0.255 0 0 0.26 0 0 0.265 0 0 0.27 0 0 0.275 0 0 0.28 0 0 0.285 0 0 0.29 0 0 0.295 0 0 0.3 0 0 0.305 0 0 0.31 0 0 0.315 0 0 0.32 0 0 0.325 0 0 0.33 0 0 0.335 0 0 0.34 0 0 0.345 0 0 0.35 0 0 0.355 0 0 0.36 0 0 0.365 0 0 0.37 0 0 0.375 0 0 0.38 0 0 0.385 0 0 0.39 0 0 0.395 0 0 0.4 0 0 0.405 0 0 0.41 0 0 0.415 0 0 0.42 0 0 0.425 0 0 0.43 0 0 0.435 0 0 0.44 0 0 0.445 0 0 0.45 0 0 0.455 0 0 0.46 0 0 0.465 0 0 0.47 0 0 0.475 0 0 0.48 0 0 0.485 0 0 0.49 0 0 0.495 0 0 0.5 0 0 0.505 0 0 0.51 0 0 0.515 0 0 0.52 0 0 0.525 0 0 0.53 0 0 0.535 0 0 0.54 0 0 0.545 0 0 0.55 0 0 0.555 0 0 0.56 0 0 0.565 0 0 0.57 0 0 0.575 0 0 0.58 0 0 0.585 0 0 0.59 0 0 0.595 0 0 0.6 0 0 0.605 0 0 0.61 0 0 0.615 0 0 0.62 0 0 0.625 0 0 0.63 0 0 0.635 0 0 0.64 0 0 0.645 0 0 0.65 0 0 0.655 0 0 0.66 0 0 0.665 0 0 0.67 0 0 0.675 0 0 0.68 0 0 0.685 0 0 0.69 0 0 0.695 0 0 0.7 0 0 0.705 0 0 0.71 0 0 0.715 0 0 0.72 0 0 0.725 0 0 0.73 0 0 0.735 0 0 0.74 0 0 0.745 0 0 0.75 0 0 0.755 0 0 0.76 0 0 0.765 0 0 0.77 0 0 0.775 0 0 0.78 0 0 0.785 0 0 0.79 0 0 0.795 0 0 0.8 0 0 0.805 0 0 0.81 0 0 0.815 0 0 0.82 0 0 0.825 0 0 0.83 0 0 0.835 0 0 0.84 0 0 0.845 0 0 0.85 0 0 0.855 0 0 0.86 0 0 0.865 0 0 0.87 0 0 0.875 0 0 0.88 0 0 0.885 0 0 0.89 0 0 0.895 0 0 0.9 0 0 0.905 0 0 0.91 0 0 0.915 0 0 0.92 0 0 0.925 0 0 0.93 0 0 0.935 0 0 0.94 0 0 0.945 0 0 0.95 0 0 0.955 0 0 0.96 0 0 0.965 0 0 0.97 0 0 0.975 0 0 0.98 0 0 0.985 0 0 0.99 0 0 0.995 0 0 1 0 0 0 0.02 0 0.005 0.02 0 0.01 0.02 0 0.015 0.02 0 0.02 0.02 0 0.025 0.02 0 0.03 0.02 0 0.035 0.02 0 0.04 0.02 0 0.045 0.02 0 0.05 0.02 0 0.055 0.02 0 0.06 0.02 0 0.065 0.02 0 0.07 0.02 0 0.075 0.02 0 0.08 0.02 0 0.085 0.02 0 0.09 0.02 0 0.095 0.02 0 0.1 0.02 0 0.105 0.02 0 0.11 0.02 0 0.115 0.02 0 0.12 0.02 0 0.125 0.02 0 0.13 0.02 0 0.135 0.02 0 0.14 0.02 0 0.145 0.02 0 0.15 0.02 0 0.155 0.02 0 0.16 0.02 0 0.165 0.02 0 0.17 0.02 0 0.175 0.02 0 0.18 0.02 0 0.185 0.02 0 0.19 0.02 0 0.195 0.02 0 0.2 0.02 0 0.205 0.02 0 0.21 0.02 0 0.215 0.02 0 0.22 0.02 0 0.225 0.02 0 0.23 0.02 0 0.235 0.02 0 0.24 0.02 0 0.245 0.02 0 0.25 0.02 0 0.255 0.02 0 0.26 0.02 0 0.265 0.02 0 0.27 0.02 0 0.275 0.02 0 0.28 0.02 0 0.285 0.02 0 0.29 0.02 0 0.295 0.02 0 0.3 0.02 0 0.305 0.02 0 0.31 0.02 0 0.315 0.02 0 0.32 0.02 0 0.325 0.02 0 0.33 0.02 0 0.335 0.02 0 0.34 0.02 0 0.345 0.02 0 0.35 0.02 0 0.355 0.02 0 0.36 0.02 0 0.365 0.02 0 0.37 0.02 0 0.375 0.02 0 0.38 0.02 0 0.385 0.02 0 0.39 0.02 0 0.395 0.02 0 0.4 0.02 0 0.405 0.02 0 0.41 0.02 0 0.415 0.02 0 0.42 0.02 0 0.425 0.02 0 0.43 0.02 0 0.435 0.02 0 0.44 0.02 0 0.445 0.02 0 0.45 0.02 0 0.455 0.02 0 0.46 0.02 0 0.465 0.02 0 0.47 0.02 0 0.475 0.02 0 0.48 0.02 0 0.485 0.02 0 0.49 0.02 0 0.495 0.02 0 0.5 0.02 0 0.505 0.02 0 0.51 0.02 0 0.515 0.02 0 0.52 0.02 0 0.525 0.02 0 0.53 0.02 0 0.535 0.02 0 0.54 0.02 0 0.545 0.02 0 0.55 0.02 0 0.555 0.02 0 0.56 0.02 0 0.565 0.02 0 0.57 0.02 0 0.575 0.02 0 0.58 0.02 0 0.585 0.02 0 0.59 0.02 0 0.595 0.02 0 0.6 0.02 0 0.605 0.02 0 0.61 0.02 0 0.615 0.02 0 0.62 0.02 0 0.625 0.02 0 0.63 0.02 0 0.635 0.02 0 0.64 0.02 0 0.645 0.02 0 0.65 0.02 0 0.655 0.02 0 0.66 0.02 0 0.665 0.02 0 0.67 0.02 0 0.675 0.02 0 0.68 0.02 0 0.685 0.02 0 0.69 0.02 0 0.695 0.02 0 0.7 0.02 0 0.705 0.02 0 0.71 0.02 0 0.715 0.02 0 0.72 0.02 0 0.725 0.02 0 0.73 0.02 0 0.735 0.02 0 0.74 0.02 0 0.745 0.02 0 0.75 0.02 0 0.755 0.02 0 0.76 0.02 0 0.765 0.02 0 0.77 0.02 0 0.775 0.02 0 0.78 0.02 0 0.785 0.02 0 0.79 0.02 0 0.795 0.02 0 0.8 0.02 0 0.805 0.02 0 0.81 0.02 0 0.815 0.02 0 0.82 0.02 0 0.825 0.02 0 0.83 0.02 0 0.835 0.02 0 0.84 0.02 0 0.845 0.02 0 0.85 0.02 0 0.855 0.02 0 0.86 0.02 0 0.865 0.02 0 0.87 0.02 0 0.875 0.02 0 0.88 0.02 0 0.885 0.02 0 0.89 0.02 0 0.895 0.02 0 0.9 0.02 0 0.905 0.02 0 0.91 0.02 0 0.915 0.02 0 0.92 0.02 0 0.925 0.02 0 0.93 0.02 0 0.935 0.02 0 0.94 0.02 0 0.945 0.02 0 0.95 0.02 0 0.955 0.02 0 0.96 0.02 0 0.965 0.02 0 0.97 0.02 0 0.975 0.02 0 0.98 0.02 0 0.985 0.02 0 0.99 0.02 0 0.995 0.02 0 1 0.02 0 0 0.04 0 0.005 0.04 0 0.01 0.04 0 0.015 0.04 0 0.02 0.04 0 0.025 0.04 0 0.03 0.04 0 0.035 0.04 0 0.04 0.04 0 0.045 0.04 0 0.05 0.04 0 0.055 0.04 0 0.06 0.04 0 0.065 0.04 0 0.07 0.04 0 0.075 0.04 0 0.08 0.04 0 0.085 0.04 0 0.09 0.04 0 0.095 0.04 0 0.1 0.04 0 0.105 0.04 0 0.11 0.04 0 0.115 0.04 0 0.12 0.04 0 0.125 0.04 0 0.13 0.04 0 0.135 0.04 0 0.14 0.04 0 0.145 0.04 0 0.15 0.04 0 0.155 0.04 0 0.16 0.04 0 0.165 0.04 0 0.17 0.04 0 0.175 0.04 0 0.18 0.04 0 0.185 0.04 0 0.19 0.04 0 0.195 0.04 0 0.2 0.04 0 0.205 0.04 0 0.21 0.04 0 0.215 0.04 0 0.22 0.04 0 0.225 0.04 0 0.23 0.04 0 0.235 0.04 0 0.24 0.04 0 0.245 0.04 0 0.25 0.04 0 0.255 0.04 0 0.26 0.04 0 0.265 0.04 0 0.27 0.04 0 0.275 0.04 0 0.28 0.04 0 0.285 0.04 0 0.29 0.04 0 0.295 0.04 0 0.3 0.04 0 0.305 0.04 0 0.31 0.04 0 0.315 0.04 0 0.32 0.04 0 0.325 0.04 0 0.33 0.04 0 0.335 0.04 0 0.34 0.04 0 0.345 0.04 0 0.35 0.04 0 0.355 0.04 0 0.36 0.04 0 0.365 0.04 0 0.37 0.04 0 0.375 0.04 0 0.38 0.04 0 0.385 0.04 0 0.39 0.04 0 0.395 0.04 0 0.4 0.04 0 0.405 0.04 0 0.41 0.04 0 0.415 0.04 0 0.42 0.04 0 0.425 0.04 0 0.43 0.04 0 0.435 0.04 0 0.44 0.04 0 0.445 0.04 0 0.45 0.04 0 0.455 0.04 0 0.46 0.04 0 0.465 0.04 0 0.47 0.04 0 0.475 0.04 0 0.48 0.04 0 0.485 0.04 0 0.49 0.04 0 0.495 0.04 0 0.5 0.04 0 0.505 0.04 0 0.51 0.04 0 0.515 0.04 0 0.52 0.04 0 0.525 0.04 0 0.53 0.04 0 0.535 0.04 0 0.54 0.04 0 0.545 0.04 0 0.55 0.04 0 0.555 0.04 0 0.56 0.04 0 0.565 0.04 0 0.57 0.04 0 0.575 0.04 0 0.58 0.04 0 0.585 0.04 0 0.59 0.04 0 0.595 0.04 0 0.6 0.04 0 0.605 0.04 0 0.61 0.04 0 0.615 0.04 0 0.62 0.04 0 0.625 0.04 0 0.63 0.04 0 0.635 0.04 0 0.64 0.04 0 0.645 0.04 0 0.65 0.04 0 0.655 0.04 0 0.66 0.04 0 0.665 0.04 0 0.67 0.04 0 0.675 0.04 0 0.68 0.04 0 0.685 0.04 0 0.69 0.04 0 0.695 0.04 0 0.7 0.04 0 0.705 0.04 0 0.71 0.04 0 0.715 0.04 0 0.72 0.04 0 0.725 0.04 0 0.73 0.04 0 0.735 0.04 0 0.74 0.04 0 0.745 0.04 0 0.75 0.04 0 0.755 0.04 0 0.76 0.04 0 0.765 0.04 0 0.77 0.04 0 0.775 0.04 0 0.78 0.04 0 0.785 0.04 0 0.79 0.04 0 0.795 0.04 0 0.8 0.04 0 0.805 0.04 0 0.81 0.04 0 0.815 0.04 0 0.82 0.04 0 0.825 0.04 0 0.83 0.04 0 0.835 0.04 0 0.84 0.04 0 0.845 0.04 0 0.85 0.04 0 0.855 0.04 0 0.86 0.04 0 0.865 0.04 0 0.87 0.04 0 0.875 0.04 0 0.88 0.04 0 0.885 0.04 0 0.89 0.04 0 0.895 0.04 0 0.9 0.04 0 0.905 0.04 0 0.91 0.04 0 0.915 0.04 0 0.92 0.04 0 0.925 0.04 0 0.93 0.04 0 0.935 0.04 0 0.94 0.04 0 0.945 0.04 0 0.95 0.04 0 0.955 0.04 0 0.96 0.04 0 0.965 0.04 0 0.97 0.04 0 0.975 0.04 0 0.98 0.04 0 0.985 0.04 0 0.99 0.04 0 0.995 0.04 0 1 0.04 0 0 0.06 0 0.005 0.06 0 0.01 0.06 0 0.015 0.06 0 0.02 0.06 0 0.025 0.06 0 0.03 0.06 0 0.035 0.06 0 0.04 0.06 0 0.045 0.06 0 0.05 0.06 0 0.055 0.06 0 0.06 0.06 0 0.065 0.06 0 0.07 0.06 0 0.075 0.06 0 0.08 0.06 0 0.085 0.06 0 0.09 0.06 0 0.095 0.06 0 0.1 0.06 0 0.105 0.06 0 0.11 0.06 0 0.115 0.06 0 0.12 0.06 0 0.125 0.06 0 0.13 0.06 0 0.135 0.06 0 0.14 0.06 0 0.145 0.06 0 0.15 0.06 0 0.155 0.06 0 0.16 0.06 0 0.165 0.06 0 0.17 0.06 0 0.175 0.06 0 0.18 0.06 0 0.185 0.06 0 0.19 0.06 0 0.195 0.06 0 0.2 0.06 0 0.205 0.06 0 0.21 0.06 0 0.215 0.06 0 0.22 0.06 0 0.225 0.06 0 0.23 0.06 0 0.235 0.06 0 0.24 0.06 0 0.245 0.06 0 0.25 0.06 0 0.255 0.06 0 0.26 0.06 0 0.265 0.06 0 0.27 0.06 0 0.275 0.06 0 0.28 0.06 0 0.285 0.06 0 0.29 0.06 0 0.295 0.06 0 0.3 0.06 0 0.305 0.06 0 0.31 0.06 0 0.315 0.06 0 0.32 0.06 0 0.325 0.06 0 0.33 0.06 0 0.335 0.06 0 0.34 0.06 0 0.345 0.06 0 0.35 0.06 0 0.355 0.06 0 0.36 0.06 0 0.365 0.06 0 0.37 0.06 0 0.375 0.06 0 0.38 0.06 0 0.385 0.06 0 0.39 0.06 0 0.395 0.06 0 0.4 0.06 0 0.405 0.06 0 0.41 0.06 0 0.415 0.06 0 0.42 0.06 0 0.425 0.06 0 0.43 0.06 0 0.435 0.06 0 0.44 0.06 0 0.445 0.06 0 0.45 0.06 0 0.455 0.06 0 0.46 0.06 0 0.465 0.06 0 0.47 0.06 0 0.475 0.06 0 0.48 0.06 0 0.485 0.06 0 0.49 0.06 0 0.495 0.06 0 0.5 0.06 0 0.505 0.06 0 0.51 0.06 0 0.515 0.06 0 0.52 0.06 0 0.525 0.06 0 0.53 0.06 0 0.535 0.06 0 0.54 0.06 0 0.545 0.06 0 0.55 0.06 0 0.555 0.06 0 0.56 0.06 0 0.565 0.06 0 0.57 0.06 0 0.575 0.06 0 0.58 0.06 0 0.585 0.06 0 0.59 0.06 0 0.595 0.06 0 0.6 0.06 0 0.605 0.06 0 0.61 0.06 0 0.615 0.06 0 0.62 0.06 0 0.625 0.06 0 0.63 0.06 0 0.635 0.06 0 0.64 0.06 0 0.645 0.06 0 0.65 0.06 0 0.655 0.06 0 0.66 0.06 0 0.665 0.06 0 0.67 0.06 0 0.675 0.06 0 0.68 0.06 0 0.685 0.06 0 0.69 0.06 0 0.695 0.06 0 0.7 0.06 0 0.705 0.06 0 0.71 0.06 0 0.715 0.06 0 0.72 0.06 0 0.725 0.06 0 0.73 0.06 0 0.735 0.06 0 0.74 0.06 0 0.745 0.06 0 0.75 0.06 0 0.755 0.06 0 0.76 0.06 0 0.765 0.06 0 0.77 0.06 0 0.775 0.06 0 0.78 0.06 0 0.785 0.06 0 0.79 0.06 0 0.795 0.06 0 0.8 0.06 0 0.805 0.06 0 0.81 0.06 0 0.815 0.06 0 0.82 0.06 0 0.825 0.06 0 0.83 0.06 0 0.835 0.06 0 0.84 0.06 0 0.845 0.06 0 0.85 0.06 0 0.855 0.06 0 0.86 0.06 0 0.865 0.06 0 0.87 0.06 0 0.875 0.06 0 0.88 0.06 0 0.885 0.06 0 0.89 0.06 0 0.895 0.06 0 0.9 0.06 0 0.905 0.06 0 0.91 0.06 0 0.915 0.06 0 0.92 0.06 0 0.925 0.06 0 0.93 0.06 0 0.935 0.06 0 0.94 0.06 0 0.945 0.06 0 0.95 0.06 0 0.955 0.06 0 0.96 0.06 0 0.965 0.06 0 0.97 0.06 0 0.975 0.06 0 0.98 0.06 0 0.985 0.06 0 0.99 0.06 0 0.995 0.06 0 1 0.06 0 0 0.08 0 0.005 0.08 0 0.01 0.08 0 0.015 0.08 0 0.02 0.08 0 0.025 0.08 0 0.03 0.08 0 0.035 0.08 0 0.04 0.08 0 0.045 0.08 0 0.05 0.08 0 0.055 0.08 0 0.06 0.08 0 0.065 0.08 0 0.07 0.08 0 0.075 0.08 0 0.08 0.08 0 0.085 0.08 0 0.09 0.08 0 0.095 0.08 0 0.1 0.08 0 0.105 0.08 0 0.11 0.08 0 0.115 0.08 0 0.12 0.08 0 0.125 0.08 0 0.13 0.08 0 0.135 0.08 0 0.14 0.08 0 0.145 0.08 0 0.15 0.08 0 0.155 0.08 0 0.16 0.08 0 0.165 0.08 0
[...]
			<PointData Scalars="VitesseX">
				<DataArray Name="VitesseX" type="Float32" format="ascii">
 0 -1.80694e-14 -2.56852e-15 -3.50539e-14 -5.28847e-14 -1.22173e-15 -2.12841e-14 -1.05236e-13 -9.88922e-15 -1.48239e-13 -8.85242e-14 -8.42458e-15 -3.87855e-14 -4.26955e-14 -1.4425e-13 -4.45213e-14 -1.74241e-13 -2.15005e-13 1.89963e-14 -1.56917e-15 -9.13196e-14 8.39787e-14 -9.95456e-14 1.53099e-13 -1.34284e-13 2.6561e-14 -6.10269e-14 -6.02811e-14 -9.65072e-14 -9.56072e-14 1.87468e-13 -1.68774e-13 -5.59084e-14 -1.58478e-13 -6.41791e-14 -3.01702e-13 -1.84107e-13 1.81063e-13 -3.52424e-13 -2.44353e-14 -3.09667e-13 -2.21605e-14 -1.97286e-13 -2.05805e-13 -3.44419e-13 -1.34319e-13 -5.45584e-13 4.21185e-13 1.9056e-13 -2.26916e-13 -4.75337e-13 6.09561e-13 1.85744e-13 -3.56287e-13 -3.60102e-13 3.33069e-14 -4.11066e-13 -1.6389e-15 -9.8316e-14 2.53837e-13 -1.42648e-13 3.52029e-13 -4.97784e-13 1.23053e-13 7.54114e-14 1.92843e-14 -8.9721e-14 3.92612e-12 4.62627e-11 4.33214e-10 3.71685e-09 2.92877e-08 2.108e-07 1.37767e-06 8.11849e-06 4.27786e-05 0.000199503 0.000813088 0.00285189 0.00846521 0.0209717 0.0432506 0.0754775 0.115231 0.159728 0.20708 0.256243 0.306636 0.357979 0.41031 0.463641 0.513354 0.561989 0.607851 0.654041 0.697196 0.739512 0.780728 0.816644 0.852119 0.881674 0.90166 0.920108 0.929045 0.931147 0.933353 0.93379 0.933522 0.932777 0.931766 0.930787 0.929885 0.928831 0.92709 0.930819 0.931851 0.927985 0.927397 0.92778 0.928321 0.928106 0.926783 0.923828 0.918254 0.906977 0.884597 0.843647 0.775821 0.675625 0.545805 0.401284 0.263761 0.152213 0.0760442 0.0331894 0.0131196 0.00489349 0.00176818 0.000626376 0.000218469 7.50984e-05 2.54386e-05 8.4869e-06 2.78702e-06 9.00381e-07 2.86022e-07 8.93061e-08 2.74001e-08 8.25723e-09 2.44432e-09 7.10395e-10 2.01867e-10 5.69724e-11 1.52042e-11 4.37924e-12 1.4591e-13 -9.84029e-14 2.46153e-13 -2.63671e-13 6.78026e-13 -1.11108e-12 -4.32567e-13 -4.8535e-13 5.02254e-13 7.06312e-15 8.53378e-14 -1.24971e-12 2.00322e-14 2.0275e-13 9.99259e-13 1.35758e-13 -2.29236e-13 -1.26506e-13 -5.8462e-13 7.89486e-14 -1.93582e-13 9.26276e-15 -3.9526e-13 -8.64727e-13 -4.29111e-13 1.20254e-12 -3.11622e-13 5.50901e-13 -9.4268e-13 2.54019e-13 9.46285e-13 -7.54487e-13 -2.71094e-13 -1.25367e-12 7.18004e-13 -8.5366e-13 -5.66539e-13 3.40444e-13 -7.75728e-13 -4.73692e-14 -2.71642e-13 -6.33227e-13 9.18161e-13 7.58317e-14 6.14834e-13 0 0 3.47555e-15 -3.52636e-14 -1.46684e-14 -1.46739e-14 -8.47071e-14 -6.55574e-14 2.09088e-14 -1.04593e-13 4.45477e-14 -7.75884e-14 -7.84756e-14 -4.61012e-14 -7.11324e-14 -4.40864e-14 -1.51927e-13 -7.11571e-14 -7.1115e-14 -1.31837e-13 -1.25736e-13 -6.76123e-14 -2.21808e-14 9.59606e-14 -2.13684e-13 1.07394e-13 -8.98702e-14 -1.13143e-13 -7.6275e-14 -1.13951e-13 7.91794e-14 -1.78703e-13 9.79899e-14 2.97025e-14 -9.80518e-14 -1.49124e-13 -6.84199e-14 -1.00671e-13 -3.66555e-13 1.33432e-13 -3.07451e-13 -4.51169e-14 -3.29343e-13 -4.34519e-14 -1.99e-13 -1.71642e-13 -1.78156e-13 1.88045e-13 -4.09123e-13 4.33444e-14 3.73127e-13 3.75785e-13 -2.94453e-13 -1.31446e-13 1.04588e-13 -8.2746e-14 -4.89887e-13 1.04056e-13 -5.87533e-13 1.01771e-13 -2.36429e-13 8.37251e-14 -1.63824e-13 3.67437e-13 -1.82968e-13 -1.17202e-13 -3.50142e-13 2.43895e-13 4.8805e-12 4.65439e-11 4.32981e-10 3.71684e-09 2.92873e-08 2.10801e-07 1.37767e-06 8.11849e-06 4.27786e-05 0.000199503 0.000813088 0.00285189 0.00846521 0.0209717 0.0432506 0.0754775 0.115231 0.159728 0.20708 0.256243 0.306636 0.357979 0.41031 0.463641 0.513354 0.561989 0.607851 0.654041 0.697196 0.739512 0.780728 0.816644 0.852119 0.881674 0.90166 0.920108 0.929045 0.931147 0.933353 0.93379 0.933522 0.932777 0.931766 0.930787 0.929885 0.928831 0.92709 0.930819 0.931851 0.927985 0.927397 0.92778 0.928321 0.928106 0.926783 0.923828 0.918254 0.906977 0.884597 0.843647 0.775821 0.675625 0.545805 0.401284 0.263761 0.152213 0.0760442 0.0331894 0.0131196 0.00489349 0.00176818 0.000626376 0.000218469 7.50984e-05 2.54386e-05 8.4869e-06 2.78702e-06 9.00381e-07 2.86021e-07 8.93074e-08 2.7399e-08 8.25775e-09 2.44396e-09 7.10106e-10 2.02944e-10 5.61222e-11 1.5362e-11 3.59759e-12 1.2347e-12 -2.02986e-13 -4.44414e-13 -1.37011e-13 -5.63795e-13 2.62895e-13 -2.52723e-13 -2.64227e-13 -5.0193e-13 -2.70528e-13 -3.19028e-13 5.08739e-13 1.57011e-13 2.86672e-13 -6.21184e-13 2.13065e-13 1.28068e-13 3.61684e-15 2.97565e-14 -1.06781e-13 -1.63407e-13 -6.20657e-13 -1.64735e-13 8.95273e-14 -2.11723e-13 -6.46225e-13 6.55753e-13 -4.67235e-13 7.05301e-13 -2.1756e-13 -3.21649e-13 -3.04641e-14 -2.44162e-13 7.17915e-13 -1.17835e-12 -1.95812e-13 -4.05734e-13 -2.55017e-13 2.7456e-13 -8.83504e-13 1.78022e-13 7.14664e-13 -3.4327e-13 1.68974e-13 -1.40458e-13 0 0 -1.9454e-14 -1.08535e-16 -3.09196e-14 -3.56405e-14 -1.88538e-14 -1.74252e-14 -6.94515e-14 2.0869e-14 -7.86036e-14 1.34112e-14 1.39043e-14 -4.56461e-14 -1.03994e-13 -1.23161e-13 -6.87198e-14 -4.49116e-14 -1.54134e-13 -9.94991e-14 -7.80852e-14 -1.81611e-13 -7.89758e-15 -2.87733e-13 2.02241e-14 -7.74137e-14 -7.35322e-14 -8.00044e-14 -5.73339e-14 -1.05989e-13 -4.4114e-14 6.53429e-14 -1.00333e-13 -4.90352e-14 1.34912e-14 -7.87e-14 -2.04456e-13 1.21257e-14 -6.86993e-14 -1.87786e-13 -1.78813e-13 -3.48148e-13 -1.80922e-13 1.13632e-14 1.80922e-13 -1.16878e-13 -1.38636e-13 -3.55318e-13 2.42401e-13 6.62632e-14 2.02263e-13 -2.59807e-14 -6.43623e-15 1.14731e-13 -2.2537e-13 -3.69314e-13 1.26561e-13 -5.09948e-13 8.02243e-14 -1.30221e-13 -7.79817e-14 -3.23188e-13 -6.73958e-14 1.39907e-14 1.19061e-13 -6.73075e-14 -9.92756e-14 5.04122e-13 4.82137e-12 4.65025e-11 4.33393e-10 3.71695e-09 2.92877e-08 2.10801e-07 1.37767e-06 8.11849e-06 4.27786e-05 0.000199503 0.000813088 0.00285189 0.00846521 0.0209717 0.0432506 0.0754775 0.115231 0.159728 0.20708 0.256243 0.306636 0.357979 0.41031 0.463641 0.513354 0.561989 0.607851 0.654041 0.697196 0.739512 0.780728 0.816644 0.852119 0.881674 0.90166 0.920108 0.929045 0.931147 0.933353 0.93379 0.933522 0.932777 0.931766 0.930787 0.929885 0.928831 0.92709 0.930819 0.931851 0.927985 0.927397 0.92778 0.928321 0.928106 0.926783 0.923828 0.918254 0.906977 0.884597 0.843647 0.775821 0.675625 0.545805 0.401284 0.263761 0.152213 0.0760442 0.0331894 0.0131196 0.00489349 0.00176818 0.000626376 0.000218469 7.50984e-05 2.54386e-05 8.4869e-06 2.78702e-06 9.00381e-07 2.86022e-07 8.93064e-08 2.73997e-08 8.25768e-09 2.44423e-09 7.10227e-10 2.02107e-10 5.67192e-11 1.51947e-11 3.70908e-12 4.59305e-13 1.9172e-13 -3.48123e-13 -4.62437e-13 -7.80127e-14 -1.41265e-13 3.28742e-15 -2.38006e-13 -2.21168e-13 -4.84666e-13 -5.64239e-13 -7.59535e-14 7.39521e-13 -3.17802e-13 7.41704e-15 -2.47738e-13 1.89379e-13 7.72317e-14 -5.15452e-13 -1.4913e-13 -3.29913e-13 2.10989e-13 -7.49866e-13 -7.9718e-14 2.22367e-13 -1.08361e-13 1.54872e-13 -4.31064e-14 -2.03574e-13 6.29564e-14 2.25247e-13 1.39815e-13 -1.14448e-13 -2.82735e-16 3.22118e-13 -1.98548e-13 -6.16688e-13 -5.74406e-13 -1.21784e-13 3.31648e-13 3.23528e-13 -4.28658e-13 3.02354e-13 2.17427e-13 2.08426e-13 0 0 -1.4059e-14 -9.98644e-15 -1.24203e-14 -4.70622e-14 1.23241e-14 6.18494e-14 -3.08119e-14 -1.27329e-15 -2.34516e-14 -1.68656e-15 -1.58973e-14 -4.46011e-14 -1.03095e-13 -1.35804e-13 -1.00535e-13 -1.36766e-13 -1.51132e-13 -3.69378e-14 -1.53742e-13 -2.12287e-13 2.91647e-14 -1.513e-13 -1.52225e-13 -3.26589e-14 -9.93849e-14 -9.64903e-14 2.33458e-14 -1.69898e-13 -6.59546e-14 2.11201e-14 5.69868e-14 -1.35561e-13 -8.71598e-14 -8.8645e-14 -5.76655e-14 -1.61882e-13 1.83471e-14 -1.63168e-13 -4.53439e-14 -4.21659e-13 -1.71778e-13 -8.14741e-14 -1.3482e-13 5.54099e-14 -3.06764e-13 -2.39909e-13 1.84507e-13 1.88429e-13 -2.8829e-13 -2.01916e-13 2.48375e-13 7.50648e-15 -1.41725e-13 -2.30182e-13 -4.07369e-14 -1.18348e-13 1.08392e-13 -2.0531e-13 -1.22666e-13 1.41733e-13 -1.18485e-13 -5.05269e-14 1.83933e-13 -2.53959e-15 2.24259e-14 2.59258e-13 4.54417e-12 4.67521e-11 4.33327e-10 3.71673e-09 2.92879e-08 2.10801e-07 1.37767e-06 8.11849e-06 4.27786e-05 0.000199503 0.000813088 0.00285189 0.00846521 0.0209717 0.0432506 0.0754775 0.115231 0.159728 0.20708 0.256243 0.306636 0.357979 0.41031 0.463641 0.513354 0.561989 0.607851 0.654041 0.697196 0.739512 0.780728 0.816644 0.852119 0.881674 0.90166 0.920108 0.929045 0.931147 0.933353 0.93379 0.933522 0.932777 0.931766 0.930787 0.929885 0.928831 0.92709 0.930819 0.931851 0.927985 0.927397 0.92778 0.928321 0.928106 0.926783 0.923828 0.918254 0.906977 0.884597 0.843647 0.775821 0.675625 0.545805 0.401284 0.263761 0.152213 0.0760442 0.0331894 0.0131196 0.00489349 0.00176818 0.000626376 0.000218469 7.50984e-05 2.54386e-05 8.4869e-06 2.78702e-06 9.00381e-07 2.86022e-07 8.93065e-08 2.73996e-08 8.25753e-09 2.44396e-09 7.10256e-10 2.02279e-10 5.68087e-11 1.51e-11 4.1068e-12 9.51591e-14 2.89133e-13 1.84858e-13 1.74745e-13 6.45148e-14 -4.32852e-13 2.59968e-13 -2.48108e-13 -3.81241e-13 -3.81601e-13 -2.66174e-13 -8.41375e-13 1.36966e-13 7.47716e-14 4.46264e-13 -6.55032e-14 -3.72254e-13 -5.17361e-13 -8.00355e-13 -2.43529e-13 -8.16705e-13 9.36557e-14 2.30233e-13 -2.41969e-13 -1.42909e-13 6.0884e-13 -9.21268e-13 4.7232e-13 -5.0529e-13 1.24084e-12 3.19583e-13 1.37569e-13 1.35745e-14 -1.0925e-12 5.02496e-13 -4.14616e-13 -4.53066e-13 2.21918e-13 -6.89946e-13 2.3679e-13 -2.89007e-13 -1.57093e-13 2.1555e-13 6.01581e-13 8.52241e-14 0 0 2.18325e-15 -2.80447e-14 1.5616e-14 1.61466e-14 -3.47354e-14 5.55479e-14 8.86857e-14 -8.79676e-14 1.32754e-13 -8.99155e-14 -1.08767e-13 -3.50912e-14 -9.80545e-14 -8.89707e-14 -1.59524e-13 -1.58839e-13 -9.5821e-14 -1.54013e-13 -2.10506e-13 -9.84768e-14 -5.04675e-14 1.17701e-13 -3.38213e-13 1.76391e-13 -1.44313e-13 -6.2034e-14 -5.8026e-14 -1.43997e-13 1.31882e-13 -2.86637e-13 1.92194e-13 -4.23984e-14 -7.79547e-14 -9.89045e-14 -1.05215e-13 -8.17183e-14 -1.89196e-13 1.6956e-13 -2.07373e-13 -5.4218e-14 -4.29155e-13 -1.98951e-13 -4.28616e-13 -6.19988e-14 -1.94741e-13 2.95052e-13 -4.65448e-13 5.73128e-14 6.23556e-15 3.47347e-13 -3.66094e-13 -2.76828e-13 9.08389e-14 4.11814e-14 -7.4745e-13 1.5257e-13 -6.13203e-13 1.53404e-13 -1.39098e-13 2.61148e-13 -2.18791e-13 3.43201e-13 -1.19495e-13 -2.94228e-14 -1.0267e-13 2.9588e-13 5.00902e-12 4.71325e-11 4.33096e-10 3.7169e-09 2.92876e-08 2.10802e-07 1.37767e-06 8.11849e-06 4.27786e-05 0.000199503 0.000813088 0.00285189 0.00846521 0.0209717 0.0432506 0.0754775 0.115231 0.159728 0.20708 0.256243 0.306636 0.357979 0.41031 0.463641 0.513354 0.561989 0.607851 0.654041 0.697196 0.739512 0.780728 0.816644 0.852119 0.881674 0.90166 0.920108 0.929045 0.931147 0.933353 0.93379 0.933522 0.932777 0.931766 0.930787 0.929885 0.928831 0.92709 0.930819 0.931851 0.927985 0.927397 0.92778 0.928321 0.928106 0.926783 0.923828 0.918254 0.906977 0.884597 0.843647 0.775821 0.675625 0.545805 0.401284 0.263761 0.152213 0.0760442 0.0331894 0.0131196 0.00489349 0.00176818 0.000626376 0.000218469 7.50984e-05 2.54386e-05 8.4869e-06 2.78702e-06 9.00381e-07 2.86021e-07 8.93073e-08 2.7399e-08 8.25772e-09 2.44361e-09 7.10006e-10 2.02964e-10 5.61669e-11 1.52364e-11 3.7018e-12 1.26205e-12 9.613e-14 4.40266e-13 1.91214e-13 1.13654e-13 7.9275e-13 -3.93624e-13 -6.18523e-13 -1.16893e-13 -4.39205e-13 -5.47651e-13 -2.02256e-13 -6.33698e-13 2.98593e-13 -3.94265e-14 1.87786e-13 -5.32182e-13 -7.4427e-13 -2.0922e-13 -5.54295e-13 -6.81831e-13 -7.72107e-13 4.16434e-13 4.78732e-13 -3.73348e-13 -4.30605e-13 2.39593e-13 -4.26509e-13 5.11692e-13 6.4196e-13 -2.91971e-13 2.2465e-13 -2.07696e-13 2.36603e-13 -7.7928e-13 -6.65864e-14 -1.76755e-13 5.5123e-13 -5.74683e-14 -7.40094e-13 -1.7566e-13 1.19897e-12 -2.60133e-13 4.7383e-16 -4.47894e-13 0 0 -3.1444e-14 3.1625e-14 -1.14837e-14 3.15995e-14 3.6366e-14 6.23774e-14 -4.69615e-14 6.76466e-14 -8.21314e-14 -8.2983e-14 -9.40376e-15 -1.88554e-14 -9.83364e-14 -2.08733e-13 3.91378e-15 -1.65897e-13 -2.70422e-13 -1.50479e-13 -1.9795e-14 -9.16969e-14 -4.67193e-14 -3.2893e-13 2.48937e-13 -8.57999e-14 -3.062e-14 7.41632e-14 -1.85142e-13 -2.87796e-14 5.34802e-14 6.0045e-14 -2.95005e-13 -2.70576e-14 8.30177e-14 5.61503e-14 -6.68874e-13 2.01814e-13 3.61687e-13 -3.29406e-13 -9.12162e-14 -1.80848e-13 -2.40072e-13 -3.22609e-13 -3.35535e-14 -4.69707e-13 1.68764e-13 -5.62386e-13 4.24323e-13 -2.58343e-14 2.04072e-14 -1.80343e-13 -4.33428e-14 1.09431e-13 -5.51075e-13 -3.9051e-13 -1.47222e-13 -1.09724e-12 -1.09315e-13 1.55128e-13 5.37869e-13 -7.17645e-13 3.44273e-13 -4.17221e-13 1.20257e-13 1.21435e-13 2.70825e-13 5.03976e-13 4.73753e-12 4.69407e-11 4.33575e-10 3.71742e-09 2.92879e-08 2.10801e-07 1.37767e-06 8.11849e-06 4.27786e-05 0.000199503 0.000813088 0.00285189 0.00846521 0.0209717 0.0432506 0.0754775 0.115231 0.159728 0.20708 0.256243 0.306636 0.357979 0.41031 0.463641 0.513354 0.561989 0.607851 0.654041 0.697196 0.739512 0.780728 0.816644 0.852119 0.881674 0.90166 0.920108 0.929045 0.931147 0.933353 0.93379 0.933522 0.932777 0.931766 0.930787 0.929885 0.928831 0.92709 0.930819 0.931851 0.927985 0.927397 0.92778 0.928321 0.928106 0.926783 0.923828 0.918254 0.906977 0.884597 0.843647 0.775821 0.675625 0.545805 0.401284 0.263761 0.152213 0.0760442 0.0331894 0.0131196 0.00489349 0.00176818 0.000626376 0.000218469 7.50984e-05 2.54386e-05 8.4869e-06 2.78702e-06 9.00381e-07 2.86021e-07 8.93059e-08 2.74001e-08 8.25747e-09 2.44416e-09 7.10134e-10 2.01563e-10 5.68828e-11 1.51423e-11 3.79223e-12 9.28906e-13 3.05003e-13 9.4955e-13 -8.81585e-13 1.74787e-12 5.31806e-13 -1.22773e-12 -1.17374e-12 1.59247e-12 -5.36421e-13 -9.6804e-13 -1.14086e-12 -3.56277e-13 -5.58557e-13 1.28508e-12 -2.79267e-13 -4.26468e-13 -4.33095e-13 -4.92768e-13 -6.27282e-13 -2.56844e-13 -5.89726e-14 -1.19312e-12 2.38185e-13 -2.18099e-14 1.99381e-13 1.00834e-12 -3.985e-13 -7.26466e-13 -3.82716e-13 8.16967e-13 -2.39767e-13 -4.54206e-13 -3.18616e-14 1.15539e-12 -1.63073e-13 -4.35826e-13 3.60289e-13 -3.03459e-13 4.29167e-13 2.46064e-13 -2.07739e-13 1.25804e-12 -1.02948e-12 2.46367e-13 0
				</DataArray>
				<DataArray Name="VitesseY" type="Float32" format="ascii">