<?xml version="1.0"?>
<VTKFile type="PolyData">
	<PolyData>
		<Piece NumberOfPoints="1206" NumberOfPolys="1000">
			<Points>
				<DataArray type="Float32" NumberOfComponents="3" format="ascii">
 0 0 0 0.005 0 0 0.01 0 0 0.015 0 0 0.02 0 0 0.025 0 0 0.03 0 0 0.035 0 0 0.04 0 0 0.045 0 0 0.05 0 0 0.055 0 0 0.06 0 0 0.065 0 0 0.07 0 0 0.075 0 0 0.08 0 0 0.085 0 0 0.09 0 0 0.095 0 0 0.1 0 0 0.105 0 0 0.11 0 0 0.115 0 0 0.12 0 0 0.125 0 0 0.13 0 0 0.135 0 0 0.14 0 0 0.145 0 0 0.15 0 0 0.155 0 0 0.16 0 0 0.165 0 0 0.17 0 0 0.175 0 0 0.18 0 0 0.185 0 0 0.19 0 0 0.195 0 0 0.2 0 0 0.205 0 0 0.21 0 0 0.215 0 0 0.22 0 0 0.225 0 0 0.23 0 0 0.235 0 0 0.24 0 0 0.245 0 0 0.25 0 0 0.255 0 0 0.26 0 0 0.265 0 0 0.27 0 0 0.275 0 0 0.28 0 0 0.285 0 0 0.29 0 0 0.295 0 0 0.3 0 0 0.305 0 0 0.31 0 0 0.315 0 0 0.32 0 0 0.325 0 0 0.33 0 0 0.335 0 0 0.34 0 0 0.345 0 0 0.35 0 0 0.355 0 0 0.36 0 0 0.365 0 0 0.37 0 0 0.375 0 0 0.38 0 0 0.385 0 0 0.39 0 0 0.395 0 0 0.4 0 0 0.405 0 0 0.41 0 0 0.415 0 0 0.42 0 0 0.425 0 0 0.43 0 0 0.435 0 0 0.44 0 0 0.445 0 0 0.45 0 0 0.455 0 0 0.46 0 0 0.465 0 0 0.47 0 0 0.475 0 0 0.48 0 0 0.485 0 0 0.49 0 0 0.495 0 0 0.5 0 0 0.505 0 0 0.51 0 0 0.515 0 0 0.52 0 0 0.525 0 0 0.53 0 0 0.535 0 0 0.54 0 0 0.545 0 0 0.55 0 0 0.555 0 0 0.56 0 0 0.565 0 0 0.57 0 0 0.575 0 0 0.58 0 0 0.585 0 0 0.59 0 0 0.595 0 0 0.6 0 0 0.605 0 0 0.61 0 0 0.615 0 0 0.62 0 0 0.625 0 0 0.63 0 0 0.635 0 0 0.64 0 0 0.645 0 0 0.65 0 0 0.655 0 0 0.66 0 0 0.665 0 0 0.67 0 0 0.675 0 0 0.68 0 0 0.685 0 0 0.69 0 0 0.695 0 0 0.7 0 0 0.705 0 0 0.71 0 0 0.715 0 0 0.72 0 0 0.725 0 0 0.73 0 0 0.735 0 0 0.74 0 0 0.745 0 0 0.75 0 0 0.755 0 0 0.76 0 0 0.765 0 0 0.77 0 0 0.775 0 0 0.78 0 0 0.785 0 0 0.79 0 0 0.795 0 0 0.8 0 0 0.805 0 0 0.81 0 0 0.815 0 0 0.82 0 0 0.825 0 0 0.83 0 0 0.835 0 0 0.84 0 0 0.845 0 0 0.85 0 0 0.855 0 0 0.86 0 0 0.865 0 0 0.87 0 0 0.875 0 0 0.88 0 0 0.885 0 0 0.89 0 0 0.895 0 0 0.9 0 0 0.905 0 0 0.91 0 0 0.915 0 0 0.92 0 0 0.925 0 0 0.93 0 0 0.935 0 0 0.94 0 0 0.945 0 0 0.95 0 0 0.955 0 0 0.96 0 0 0.965 0 0 0.97 0 0 0.975 0 0 0.98 0 0 0.985 0 0 0.99 0 0 0.995 0 0 1 0 0 0 0.02 0 0.005 0.02 0 0.01 0.02 0 0.015 0.02 0 0.02 0.02 0 0.025 0.02 0 0.03 0.02 0 0.035 0.02 0 0.04 0.02 0 0.045 0.02 0 0.05 0.02 0 0.055 0.02 0 0.06 0.02 0 0.065 0.02 0 0.07 0.02 0 0.075 0.02 0 0.08 0.02 0 0.085 0.02 0 0.09 0.02 0 0.095 0.02 0 0.1 0.02 0 0.105 0.02 0 0.11 0.02 0 0.115 0.02 0 0.12 0.02 0 0.125 0.02 0 0.13 0.02 0 0.135 0.02 0 0.14 0.02 0 0.145 0.02 0 0.15 0.02 0 0.155 0.02 0 0.16 0.02 0 0.165 0.02 0 0.17 0.02 0 0.175 0.02 0 0.18 0.02 0 0.185 0.02 0 0.19 0.02 0 0.195 0.02 0 0.2 0.02 0 0.205 0.02 0 0.21 0.02 0 0.215 0.02 0 0.22 0.02 0 0.225 0.02 0 0.23 0.02 0 0.235 0.02 0 0.24 0.02 0 0.245 0.02 0 0.25 0.02 0 0.255 0.02 0 0.26 0.02 0 0.265 0.02 0 0.27 0.02 0 0.275 0.02 0 0.28 0.02 0 0.285 0.02 0 0.29 0.02 0 0.295 0.02 0 0.3 0.02 0 0.305 0.02 0 0.31 0.02 0 0.315 0.02 0 0.32 0.02 0 0.325 0.02 0 0.33 0.02 0 0.335 0.02 0 0.34 0.02 0 0.345 0.02 0 0.35 0.02 0 0.355 0.02 0 0.36 0.02 0 0.365 0.02 0 0.37 0.02 0 0.375 0.02 0 0.38 0.02 0 0.385 0.02 0 0.39 0.02 0 0.395 0.02 0 0.4 0.02 0 0.405 0.02 0 0.41 0.02 0 0.415 0.02 0 0.42 0.02 0 0.425 0.02 0 0.43 0.02 0 0.435 0.02 0 0.44 0.02 0 0.445 0.02 0 0.45 0.02 0 0.455 0.02 0 0.46 0.02 0 0.465 0.02 0 0.47 0.02 0 0.475 0.02 0 0.48 0.02 0 0.485 0.02 0 0.49 0.02 0 0.495 0.02 0 0.5 0.02 0 0.505 0.02 0 0.51 0.02 0 0.515 0.02 0 0.52 0.02 0 0.525 0.02 0 0.53 0.02 0 0.535 0.02 0 0.54 0.02 0 0.545 0.02 0 0.55 0.02 0 0.555 0.02 0 0.56 0.02 0 0.565 0.02 0 0.57 0.02 0 0.575 0.02 0 0.58 0.02 0 0.585 0.02 0 0.59 0.02 0 0.595 0.02 0 0.6 0.02 0 0.605 0.02 0 0.61 0.02 0 0.615 0.02 0 0.62 0.02 0 0.625 0.02 0 0.63 0.02 0 0.635 0.02 0 0.64 0.02 0 0.645 0.02 0 0.65 0.02 0 0.655 0.02 0 0.66 0.02 0 0.665 0.02 0 0.67 0.02 0 0.675 0.02 0 0.68 0.02 0 0.685 0.02 0 0.69 0.02 0 0.695 0.02 0 0.7 0.02 0 0.705 0.02 0 0.71 0.02 0 0.715 0.02 0 0.72 0.02 0 0.725 0.02 0 0.73 0.02 0 0.735 0.02 0 0.74 0.02 0 0.745 0.02 0 0.75 0.02 0 0.755 0.02 0 0.76 0.02 0 0.765 0.02 0 0.77 0.02 0 0.775 0.02 0 0.78 0.02 0 0.785 0.02 0 0.79 0.02 0 0.795 0.02 0 0.8 0.02 0 0.805 0.02 0 0.81 0.02 0 0.815 0.02 0 0.82 0.02 0 0.825 0.02 0 0.83 0.02 0 0.835 0.02 0 0.84 0.02 0 0.845 0.02 0 0.85 0.02 0 0.855 0.02 0 0.86 0.02 0 0.865 0.02 0 0.87 0.02 0 0.875 0.02 0 0.88 0.02 0 0.885 0.02 0 0.89 0.02 0 0.895 0.02 0 0.9 0.02 0 0.905 0.02 0 0.91 0.02 0 0.915 0.02 0 0.92 0.02 0 0.925 0.02 0 0.93 0.02 0 0.935 0.02 0 0.94 0.02 0 0.945 0.02 0 0.95 0.02 0 0.955 0.02 0 0.96 0.02 0 0.965 0.02 0 0.97 0.02 0 0.975 0.02 0 0.98 0.02 0 0.985 0.02 0 0.99 0.02 0 0.995 0.02 0 1 0.02 0 0 0.04 0 0.005 0.04 0 0.01 0.04 0 0.015 0.04 0 0.02 0.04 0 0.025 0.04 0 0.03 0.04 0 0.035 0.04 0 0.04 0.04 0 0.045 0.04 0 0.05 0.04 0 0.055 0.04 0 0.06 0.04 0 0.065 0.04 0 0.07 0.04 0 0.075 0.04 0 0.08 0.04 0 0.085 0.04 0 0.09 0.04 0 0.095 0.04 0 0.1 0.04 0 0.105 0.04 0 0.11 0.04 0 0.115 0.04 0 0.12 0.04 0 0.125 0.04 0 0.13 0.04 0 0.135 0.04 0 0.14 0.04 0 0.145 0.04 0 0.15 0.04 0 0.155 0.04 0 0.16 0.04 0 0.165 0.04 0 0.17 0.04 0 0.175 0.04 0 0.18 0.04 0 0.185 0.04 0 0.19 0.04 0 0.195 0.04 0 0.2 0.04 0 0.205 0.04 0 0.21 0.04 0 0.215 0.04 0 0.22 0.04 0 0.225 0.04 0 0.23 0.04 0 0.235 0.04 0 0.24 0.04 0 0.245 0.04 0 0.25 0.04 0 0.255 0.04 0 0.26 0.04 0 0.265 0.04 0 0.27 0.04 0 0.275 0.04 0 0.28 0.04 0 0.285 0.04 0 0.29 0.04 0 0.295 0.04 0 0.3 0.04 0 0.305 0.04 0 0.31 0.04 0 0.315 0.04 0 0.32 0.04 0 0.325 0.04 0 0.33 0.04 0 0.335 0.04 0 0.34 0.04 0 0.345 0.04 0 0.35 0.04 0 0.355 0.04 0 0.36 0.04 0 0.365 0.04 0 0.37 0.04 0 0.375 0.04 0 0.38 0.04 0 0.385 0.04 0 0.39 0.04 0 0.395 0.04 0 0.4 0.04 0 0.405 0.04 0 0.41 0.04 0 0.415 0.04 0 0.42 0.04 0 0.425 0.04 0 0.43 0.04 0 0.435 0.04 0 0.44 0.04 0 0.445 0.04 0 0.45 0.04 0 0.455 0.04 0 0.46 0.04 0 0.465 0.04 0 0.47 0.04 0 0.475 0.04 0 0.48 0.04 0 0.485 0.04 0 0.49 0.04 0 0.495 0.04 0 0.5 0.04 0 0.505 0.04 0 0.51 0.04 0 0.515 0.04 0 0.52 0.04 0 0.525 0.04 0 0.53 0.04 0 0.535 0.04 0 0.54 0.04 0 0.545 0.04 0 0.55 0.04 0 0.555 0.04 0 0.56 0.04 0 0.565 0.04 0 0.57 0.04 0 0.575 0.04 0 0.58 0.04 0 0.585 0.04 0 0.59 0.04 0 0.595 0.04 0 0.6 0.04 0 0.605 0.04 0 0.61 0.04 0 0.615 0.04 0 0.62 0.04 0 0.625 0.04 0 0.63 0.04 0 0.635 0.04 0 0.64 0.04 0 0.645 0.04 0 0.65 0.04 0 0.655 0.04 0 0.66 0.04 0 0.665 0.04 0 0.67 0.04 0 0.675 0.04 0 0.68 0.04 0 0.685 0.04 0 0.69 0.04 0 0.695 0.04 0 0.7 0.04 0 0.705 0.04 0 0.71 0.04 0 0.715 0.04 0 0.72 0.04 0 0.725 0.04 0 0.73 0.04 0 0.735 0.04 0 0.74 0.04 0 0.745 0.04 0 0.75 0.04 0 0.755 0.04 0 0.76 0.04 0 0.765 0.04 0 0.77 0.04 0 0.775 0.04 0 0.78 0.04 0 0.785 0.04 0 0.79 0.04 0 0.795 0.04 0 0.8 0.04 0 0.805 0.04 0 0.81 0.04 0 0.815 0.04 0 0.82 0.04 0 0.825 0.04 0 0.83 0.04 0 0.835 0.04 0 0.84 0.04 0 0.845 0.04 0 0.85 0.04 0 0.855 0.04 0 0.86 0.04 0 0.865 0.04 0 0.87 0.04 0 0.875 0.04 0 0.88 0.04 0 0.885 0.04 0 0.89 0.04 0 0.895 0.04 0 0.9 0.04 0 0.905 0.04 0 0.91 0.04 0 0.915 0.04 0 0.92 0.04 0 0.925 0.04 0 0.93 0.04 0 0.935 0.04 0 0.94 0.04 0 0.945 0.04 0 0.95 0.04 0 0.955 0.04 0 0.96 0.04 0 0.965 0.04 0 0.97 0.04 0 0.975 0.04 0 0.98 0.04 0 0.985 0.04 0 0.99 0.04 0 0.995 0.04 0 1 0.04 0 0 0.06 0 0.005 0.06 0 0.01 0.06 0 0.015 0.06 0 0.02 0.06 0 0.025 0.06 0 0.03 0.06 0 0.035 0.06 0 0.04 0.06 0 0.045 0.06 0 0.05 0.06 0 0.055 0.06 0 0.06 0.06 0 0.065 0.06 0 0.07 0.06 0 0.075 0.06 0 0.08 0.06 0 0.085 0.06 0 0.09 0.06 0 0.095 0.06 0 0.1 0.06 0 0.105 0.06 0 0.11 0.06 0 0.115 0.06 0 0.12 0.06 0 0.125 0.06 0 0.13 0.06 0 0.135 0.06 0 0.14 0.06 0 0.145 0.06 0 0.15 0.06 0 0.155 0.06 0 0.16 0.06 0 0.165 0.06 0 0.17 0.06 0 0.175 0.06 0 0.18 0.06 0 0.185 0.06 0 0.19 0.06 0 0.195 0.06 0 0.2 0.06 0 0.205 0.06 0 0.21 0.06 0 0.215 0.06 0 0.22 0.06 0 0.225 0.06 0 0.23 0.06 0 0.235 0.06 0 0.24 0.06 0 0.245 0.06 0 0.25 0.06 0 0.255 0.06 0 0.26 0.06 0 0.265 0.06 0 0.27 0.06 0 0.275 0.06 0 0.28 0.06 0 0.285 0.06 0 0.29 0.06 0 0.295 0.06 0 0.3 0.06 0 0.305 0.06 0 0.31 0.06 0 0.315 0.06 0 0.32 0.06 0 0.325 0.06 0 0.33 0.06 0 0.335 0.06 0 0.34 0.06 0 0.345 0.06 0 0.35 0.06 0 0.355 0.06 0 0.36 0.06 0 0.365 0.06 0 0.37 0.06 0 0.375 0.06 0 0.38 0.06 0 0.385 0.06 0 0.39 0.06 0 0.395 0.06 0 0.4 0.06 0 0.405 0.06 0 0.41 0.06 0 0.415 0.06 0 0.42 0.06 0 0.425 0.06 0 0.43 0.06 0 0.435 0.06 0 0.44 0.06 0 0.445 0.06 0 0.45 0.06 0 0.455 0.06 0 0.46 0.06 0 0.465 0.06 0 0.47 0.06 0 0.475 0.06 0 0.48 0.06 0 0.485 0.06 0 0.49 0.06 0 0.495 0.06 0 0.5 0.06 0 0.505 0.06 0 0.51 0.06 0 0.515 0.06 0 0.52 0.06 0 0.525 0.06 0 0.53 0.06 0 0.535 0.06 0 0.54 0.06 0 0.545 0.06 0 0.55 0.06 0 0.555 0.06 0 0.56 0.06 0 0.565 0.06 0 0.57 0.06 0 0.575 0.06 0 0.58 0.06 0 0.585 0.06 0 0.59 0.06 0 0.595 0.06 0 0.6 0.06 0 0.605 0.06 0 0.61 0.06 0 0.615 0.06 0 0.62 0.06 0 0.625 0.06 0 0.63 0.06 0 0.635 0.06 0 0.64 0.06 0 0.645 0.06 0 0.65 0.06 0 0.655 0.06 0 0.66 0.06 0 0.665 0.06 0 0.67 0.06 0 0.675 0.06 0 0.68 0.06 0 0.685 0.06 0 0.69 0.06 0 0.695 0.06 0 0.7 0.06 0 0.705 0.06 0 0.71 0.06 0 0.715 0.06 0 0.72 0.06 0 0.725 0.06 0 0.73 0.06 0 0.735 0.06 0 0.74 0.06 0 0.745 0.06 0 0.75 0.06 0 0.755 0.06 0 0.76 0.06 0 0.765 0.06 0 0.77 0.06 0 0.775 0.06 0 0.78 0.06 0 0.785 0.06 0 0.79 0.06 0 0.795 0.06 0 0.8 0.06 0 0.805 0.06 0 0.81 0.06 0 0.815 0.06 0 0.82 0.06 0 0.825 0.06 0 0.83 0.06 0 0.835 0.06 0 0.84 0.06 0 0.845 0.06 0 0.85 0.06 0 0.855 0.06 0 0.86 0.06 0 0.865 0.06 0 0.87 0.06 0 0.875 0.06 0 0.88 0.06 0 0.885 0.06 0 0.89 0.06 0 0.895 0.06 0 0.9 0.06 0 0.905 0.06 0 0.91 0.06 0 0.915 0.06 0 0.92 0.06 0 0.925 0.06 0 0.93 0.06 0 0.935 0.06 0 0.94 0.06 0 0.945 0.06 0 0.95 0.06 0 0.955 0.06 0 0.96 0.06 0 0.965 0.06 0 0.97 0.06 0 0.975 0.06 0 0.98 0.06 0 0.985 0.06 0 0.99 0.06 0 0.995 0.06 0 1 0.06 0 0 0.08 0 0.005 0.08 0 0.01 0.08 0 0.015 0.08 0 0.02 0.08 0 0.025 0.08 0 0.03 0.08 0 0.035 0.08 0 0.04 0.08 0 0.045 0.08 0 0.05 0.08 0 0.055 0.08 0 0.06 0.08 0 0.065 0.08 0 0.07 0.08 0 0.075 0.08 0 0.08 0.08 0 0.085 0.08 0 0.09 0.08 0 0.095 0.08 0 0.1 0.08 0 0.105 0.08 0 0.11 0.08 0 0.115 0.08 0 0.12 0.08 0 0.125 0.08 0 0.13 0.08 0 0.135 0.08 0 0.14 0.08 0 0.145 0.08 0 0.15 0.08 0 0.155 0.08 0 0.16 0.08 0 0.165 0.08 0
[...]
			<PointData Scalars="VitesseX">
				<DataArray Name="VitesseX" type="Float32" format="ascii">
 0 -4.54536e-15 -2.11315e-14 -2.30053e-15 2.17218e-15 -6.86409e-14 -1.34127e-16 -1.52534e-14 -7.2464e-14 6.17912e-15 -4.55204e-14 -1.55244e-14 -1.34657e-13 -1.29879e-13 3.03144e-14 -1.37729e-13 1.0582e-13 -2.72934e-13 9.20871e-15 -1.12768e-13 -1.69401e-14 -2.73195e-13 -9.69065e-14 -7.76776e-14 -1.57102e-13 -5.16221e-14 -1.75452e-13 1.89899e-14 -1.55142e-13 4.99096e-14 -4.75214e-14 -1.7489e-13 5.71457e-14 5.42855e-14 -3.63823e-13 -3.04255e-13 -5.44666e-14 -1.00449e-13 -9.74957e-14 -9.10114e-14 -2.70318e-13 -4.60419e-13 4.74311e-14 1.84457e-13 -6.9682e-14 1.0541e-13 -6.62779e-14 -1.90316e-13 5.39064e-14 -9.44786e-15 6.50052e-15 -3.38603e-14 -1.71105e-13 -5.9129e-13 2.25248e-13 8.96971e-13 1.03808e-11 7.78719e-11 5.44546e-10 3.56797e-09 2.18497e-08 1.2461e-07 6.5935e-07 3.22247e-06 1.44711e-05 5.93424e-05 0.000220568 0.000736469 0.00218615 0.00570603 0.0129758 0.0256292 0.0442889 0.0681946 0.0958679 0.125957 0.157541 0.190078 0.223258 0.256875 0.290822 0.325049 0.359546 0.39434 0.429497 0.464687 0.498206 0.531924 0.564292 0.596752 0.628531 0.659853 0.690908 0.720929 0.750901 0.780031 0.807444 0.83509 0.859445 0.881295 0.901425 0.91404 0.923671 0.93008 0.931308 0.932126 0.932483 0.932391 0.932065 0.93157 0.931027 0.930534 0.930098 0.929705 0.929357 0.929063 0.928813 0.92855 0.928188 0.927583 0.926621 0.927362 0.932006 0.929311 0.927267 0.927285 0.927497 0.927656 0.927786 0.927769 0.927643 0.927578 0.927562 0.927366 0.926646 0.925119 0.922102 0.916034 0.904083 0.88156 0.841665 0.77658 0.680763 0.555885 0.415075 0.278607 0.165415 0.0856975 0.0389961 0.0161012 0.00628181 0.00238266 0.000891086 0.000330459 0.00012175 4.45781e-05 1.62166e-05 5.85845e-06 2.10064e-06 7.47178e-07 2.63493e-07 9.20792e-08 3.18713e-08 1.09211e-08 3.70353e-09 1.24223e-09 4.12015e-10 1.34808e-10 4.3328e-11 1.35258e-11 3.71606e-12 7.29293e-13 -7.06825e-13 9.65903e-13 -7.43183e-13 -1.64136e-13 1.51188e-13 -9.63931e-14 -2.07352e-13 3.75106e-13 -1.60994e-13 -2.55196e-13 -2.29242e-13 -1.79216e-13 1.93722e-13 -6.57567e-13 2.47682e-13 -2.54235e-13 2.11146e-13 -1.00472e-12 1.03857e-12 8.59012e-14 -1.13792e-14 1.15809e-12 1.65411e-13 6.23885e-13 1.6173e-13 2.31874e-13 -5.98686e-13 2.08593e-13 0 0 -1.33955e-14 8.01934e-15 -1.49565e-14 -4.349e-15 4.41618e-14 -1.51315e-15 -3.65632e-14 -3.777e-14 -5.23154e-14 -4.78974e-14 -8.64918e-14 1.7321e-14 -3.1026e-14 -1.56118e-13 -9.14336e-15 -2.36816e-13 7.36307e-14 -1.4994e-13 -3.37511e-14 -2.14349e-13 -2.28031e-14 -1.3054e-13 -2.14655e-13 3.04305e-14 -1.16223e-13 -5.85772e-14 -1.83477e-13 -6.04576e-14 2.92399e-14 -6.26993e-14 6.07218e-14 -1.48035e-13 -2.24021e-13 -5.95558e-14 -1.65061e-13 -1.81936e-13 -5.89058e-14 -2.16191e-13 -1.83797e-13 -9.55378e-14 -1.78197e-13 3.60116e-14 -1.95819e-13 1.82619e-13 -1.46337e-13 7.33111e-14 6.03651e-14 -6.34561e-14 -6.37688e-14 -1.96533e-13 -3.67758e-13 -3.03685e-13 1.14839e-13 -3.71005e-13 1.19442e-12 1.07577e-11 7.76065e-11 5.44497e-10 3.56852e-09 2.18494e-08 1.2461e-07 6.59349e-07 3.22247e-06 1.44711e-05 5.93424e-05 0.000220568 0.000736469 0.00218615 0.00570603 0.0129758 0.0256292 0.0442889 0.0681946 0.0958679 0.125957 0.157541 0.190078 0.223258 0.256875 0.290822 0.325049 0.359546 0.39434 0.429497 0.464687 0.498206 0.531924 0.564292 0.596752 0.628531 0.659853 0.690908 0.720929 0.750901 0.780031 0.807444 0.83509 0.859445 0.881295 0.901425 0.91404 0.923671 0.93008 0.931308 0.932126 0.932483 0.932391 0.932065 0.93157 0.931027 0.930534 0.930098 0.929705 0.929357 0.929063 0.928813 0.92855 0.928188 0.927583 0.926621 0.927362 0.932006 0.929311 0.927267 0.927285 0.927497 0.927656 0.927786 0.927769 0.927643 0.927578 0.927562 0.927366 0.926646 0.925119 0.922102 0.916034 0.904083 0.88156 0.841665 0.77658 0.680763 0.555885 0.415075 0.278607 0.165415 0.0856975 0.0389961 0.0161012 0.00628181 0.00238266 0.000891086 0.000330459 0.00012175 4.45781e-05 1.62166e-05 5.85845e-06 2.10064e-06 7.47178e-07 2.63493e-07 9.20796e-08 3.18708e-08 1.09215e-08 3.70349e-09 1.24217e-09 4.11687e-10 1.34755e-10 4.33856e-11 1.36621e-11 3.9967e-12 6.40766e-13 2.69772e-13 -6.97384e-13 -1.01097e-14 -3.02836e-13 -1.72217e-13 4.90635e-13 -3.25602e-13 1.8619e-14 -1.83701e-13 1.40171e-13 -1.32525e-13 -3.91644e-13 -9.42271e-15 1.39277e-13 -4.90558e-13 -9.24412e-14 -2.07476e-13 3.50314e-13 -7.21103e-13 3.83238e-13 7.20306e-13 -1.6365e-13 7.06056e-13 2.21544e-13 4.90241e-13 -1.13925e-13 9.01661e-14 -2.14925e-13 0 0 1.95922e-14 7.68644e-15 4.60375e-14 4.1884e-14 6.99624e-15 3.29706e-14 -1.68161e-14 1.41521e-14 -1.63081e-14 -7.66684e-14 -4.46667e-14 -1.04937e-13 -7.90285e-14 1.52939e-14 -1.27728e-13 -2.4914e-14 -1.88193e-13 2.40356e-14 -1.4742e-13 -7.44607e-14 -1.41868e-13 -9.42199e-14 -3.19348e-14 -2.62455e-13 -1.27953e-13 -6.8507e-14 3.84602e-14 -2.61077e-13 3.50083e-14 5.5645e-14 -1.45945e-13 -1.41e-14 -9.19453e-14 -4.30802e-13 -2.78247e-13 -6.12301e-14 5.80552e-14 -1.26838e-13 -8.79657e-14 -1.72689e-13 -1.11643e-13 -5.36661e-14 1.64224e-13 -1.17432e-13 -6.81375e-14 -6.07566e-14 -1.82786e-13 -6.20093e-14 -2.56084e-13 1.15304e-14 1.17211e-13 -1.36383e-13 -5.93217e-13 -9.74884e-14 1.34896e-12 1.07835e-11 7.80199e-11 5.44565e-10 3.56854e-09 2.18497e-08 1.2461e-07 6.59349e-07 3.22247e-06 1.44711e-05 5.93424e-05 0.000220568 0.000736469 0.00218615 0.00570603 0.0129758 0.0256292 0.0442889 0.0681946 0.0958679 0.125957 0.157541 0.190078 0.223258 0.256875 0.290822 0.325049 0.359546 0.39434 0.429497 0.464687 0.498206 0.531924 0.564292 0.596752 0.628531 0.659853 0.690908 0.720929 0.750901 0.780031 0.807444 0.83509 0.859445 0.881295 0.901425 0.91404 0.923671 0.93008 0.931308 0.932126 0.932483 0.932391 0.932065 0.93157 0.931027 0.930534 0.930098 0.929705 0.929357 0.929063 0.928813 0.92855 0.928188 0.927583 0.926621 0.927362 0.932006 0.929311 0.927267 0.927285 0.927497 0.927656 0.927786 0.927769 0.927643 0.927578 0.927562 0.927366 0.926646 0.925119 0.922102 0.916034 0.904083 0.88156 0.841665 0.77658 0.680763 0.555885 0.415075 0.278607 0.165415 0.0856975 0.0389961 0.0161012 0.00628181 0.00238266 0.000891086 0.000330459 0.00012175 4.45781e-05 1.62166e-05 5.85845e-06 2.10064e-06 7.47178e-07 2.63493e-07 9.20793e-08 3.1871e-08 1.09217e-08 3.70334e-09 1.2422e-09 4.11756e-10 1.34818e-10 4.34042e-11 1.34136e-11 3.80834e-12 1.05551e-12 -2.31407e-13 -2.80673e-14 -4.74883e-13 1.93468e-13 1.22399e-13 -3.51218e-13 4.39168e-13 -3.05222e-13 2.56148e-13 -9.37362e-14 -2.93642e-13 -2.42692e-13 -2.99906e-13 1.01503e-13 4.46212e-14 -7.32342e-13 -1.33922e-13 -1.92218e-13 -1.2664e-13 1.94425e-13 3.45539e-13 2.06372e-13 1.33924e-13 1.67517e-13 6.34544e-13 -2.53347e-13 3.50101e-13 9.50562e-15 0 0 2.56878e-14 4.17854e-14 4.92147e-14 4.5624e-14 1.16642e-14 5.33655e-14 -1.58405e-14 -3.78471e-14 1.21044e-14 -4.51578e-14 -4.65483e-14 -4.29135e-14 -9.16704e-14 -7.09444e-16 -8.32539e-14 -8.38702e-14 -1.50879e-13 -1.25599e-13 -1.45386e-13 -1.19899e-13 -9.29235e-14 -8.01544e-14 -1.13358e-13 -8.81919e-14 -3.05186e-14 -1.88467e-13 -1.72625e-13 -1.58726e-13 7.5692e-14 -7.27986e-14 -1.05848e-13 -1.20768e-13 5.82019e-14 -3.04226e-13 -2.45927e-13 -1.80998e-13 -2.568e-13 -3.25473e-14 4.07068e-14 -1.6775e-13 -2.71948e-13 -3.45308e-14 -5.1718e-14 -5.00272e-14 -1.67369e-13 -8.87096e-15 -2.90112e-13 2.98594e-13 5.31103e-14 -2.77246e-13 -4.88438e-14 -1.25022e-13 -1.07275e-13 7.71999e-14 1.31318e-12 1.06578e-11 7.82805e-11 5.44719e-10 3.56835e-09 2.185e-08 1.2461e-07 6.59349e-07 3.22247e-06 1.44711e-05 5.93424e-05 0.000220568 0.000736469 0.00218615 0.00570603 0.0129758 0.0256292 0.0442889 0.0681946 0.0958679 0.125957 0.157541 0.190078 0.223258 0.256875 0.290822 0.325049 0.359546 0.39434 0.429497 0.464687 0.498206 0.531924 0.564292 0.596752 0.628531 0.659853 0.690908 0.720929 0.750901 0.780031 0.807444 0.83509 0.859445 0.881295 0.901425 0.91404 0.923671 0.93008 0.931308 0.932126 0.932483 0.932391 0.932065 0.93157 0.931027 0.930534 0.930098 0.929705 0.929357 0.929063 0.928813 0.92855 0.928188 0.927583 0.926621 0.927362 0.932006 0.929311 0.927267 0.927285 0.927497 0.927656 0.927786 0.927769 0.927643 0.927578 0.927562 0.927366 0.926646 0.925119 0.922102 0.916034 0.904083 0.88156 0.841665 0.77658 0.680763 0.555885 0.415075 0.278607 0.165415 0.0856975 0.0389961 0.0161012 0.00628181 0.00238266 0.000891086 0.000330459 0.00012175 4.45781e-05 1.62166e-05 5.85845e-06 2.10064e-06 7.47178e-07 2.63493e-07 9.20791e-08 3.18712e-08 1.09211e-08 3.70358e-09 1.24211e-09 4.12156e-10 1.34678e-10 4.31109e-11 1.38094e-11 3.91611e-12 7.84151e-13 -2.1653e-13 -1.19231e-13 7.17084e-14 5.77624e-14 -1.2357e-13 1.61129e-13 2.36734e-13 1.01891e-13 2.38632e-13 -3.92885e-13 -2.27412e-13 1.49004e-13 -4.38517e-13 -6.20139e-13 -5.81371e-13 1.4664e-13 -1.77667e-13 -6.75915e-13 4.68211e-14 -1.88749e-15 2.61096e-13 1.14741e-12 2.79292e-13 1.17517e-13 1.15386e-13 -1.77741e-13 -6.87229e-13 1.03798e-12 0 0 7.61077e-15 4.71905e-14 5.81341e-15 2.81761e-15 5.29881e-14 8.06608e-15 -1.31114e-14 -4.38909e-14 -5.69521e-15 -4.6818e-14 -8.74921e-14 7.66538e-14 -3.53206e-14 -2.15564e-13 -2.95103e-15 -2.14794e-13 1.00011e-13 -2.15131e-13 -7.96943e-14 -2.0412e-13 2.53665e-14 -8.88527e-14 -1.9681e-13 1.40261e-13 -2.61558e-14 -6.3069e-14 -3.33314e-13 -7.40199e-14 -1.0059e-13 -1.33243e-13 -3.43255e-14 -1.96911e-13 -7.25904e-14 2.13814e-13 -2.4736e-13 -1.2969e-13 -1.71731e-13 -2.2586e-13 -2.23413e-13 -1.56331e-13 -1.87914e-13 -1.03976e-14 -3.90247e-13 1.83174e-13 -2.67539e-13 -7.63056e-16 -2.15551e-14 -7.91819e-16 5.5018e-14 -4.28793e-13 -4.3949e-13 -1.13926e-13 5.91214e-13 -1.88188e-13 1.38238e-12 1.07596e-11 7.78677e-11 5.44788e-10 3.56869e-09 2.18498e-08 1.2461e-07 6.59349e-07 3.22247e-06 1.44711e-05 5.93424e-05 0.000220568 0.000736469 0.00218615 0.00570603 0.0129758 0.0256292 0.0442889 0.0681946 0.0958679 0.125957 0.157541 0.190078 0.223258 0.256875 0.290822 0.325049 0.359546 0.39434 0.429497 0.464687 0.498206 0.531924 0.564292 0.596752 0.628531 0.659853 0.690908 0.720929 0.750901 0.780031 0.807444 0.83509 0.859445 0.881295 0.901425 0.91404 0.923671 0.93008 0.931308 0.932126 0.932483 0.932391 0.932065 0.93157 0.931027 0.930534 0.930098 0.929705 0.929357 0.929063 0.928813 0.92855 0.928188 0.927583 0.926621 0.927362 0.932006 0.929311 0.927267 0.927285 0.927497 0.927656 0.927786 0.927769 0.927643 0.927578 0.927562 0.927366 0.926646 0.925119 0.922102 0.916034 0.904083 0.88156 0.841665 0.77658 0.680763 0.555885 0.415075 0.278607 0.165415 0.0856975 0.0389961 0.0161012 0.00628181 0.00238266 0.000891086 0.000330459 0.00012175 4.45781e-05 1.62166e-05 5.85845e-06 2.10064e-06 7.47178e-07 2.63493e-07 9.20796e-08 3.1871e-08 1.0921e-08 3.70338e-09 1.2421e-09 4.11729e-10 1.34736e-10 4.34419e-11 1.37725e-11 3.90101e-12 6.5765e-13 2.68203e-13 -6.80693e-13 7.50742e-13 1.8211e-13 -3.65261e-13 7.06816e-13 -2.65126e-13 -2.02224e-13 -3.54532e-13 -1.64984e-13 -1.34423e-13 -2.67398e-13 -1.73532e-13 -2.36126e-13 -6.52368e-13 3.13419e-13 -5.34906e-13 -1.24858e-14 -8.65687e-13 7.00312e-13 6.1892e-13 1.04212e-13 6.17497e-13 -3.43204e-13 -6.50081e-14 -8.49376e-14 -2.23163e-13 5.77993e-13 0 0 2.52759e-14 -1.09872e-14 3.28849e-14 9.02529e-15 -6.03242e-14 -2.17655e-14 2.96991e-14 1.92924e-14 4.25946e-14 -1.06383e-13 -1.37617e-14 -1.40039e-13 -1.13184e-13 -5.65702e-14 -2.14293e-13 2.67776e-13 -2.94803e-13 1.78096e-13 -2.08722e-13 9.43953e-14 -2.74745e-13 -4.16636e-14 1.20858e-13 -2.85966e-13 -6.63557e-14 5.54847e-14 1.41486e-13 -3.86969e-13 -2.91118e-13 6.82778e-14 -4.45178e-13 1.7273e-13 5.6853e-14 -7.02347e-14 -5.33492e-13 2.89561e-13 3.03613e-13 -3.05413e-13 -4.27588e-13 -4.01782e-13 -1.59244e-13 -8.3658e-14 2.27485e-13 -2.03382e-13 6.14669e-14 -3.18197e-13 -1.39504e-13 -5.41971e-13 -3.90264e-13 1.19534e-13 1.54784e-13 1.85694e-13 -6.10424e-13 2.41505e-13 1.34446e-12 1.06361e-11 7.78731e-11 5.44818e-10 3.56869e-09 2.185e-08 1.2461e-07 6.5935e-07 3.22247e-06 1.44711e-05 5.93424e-05 0.000220568 0.000736469 0.00218615 0.00570603 0.0129758 0.0256292 0.0442889 0.0681946 0.0958679 0.125957 0.157541 0.190078 0.223258 0.256875 0.290822 0.325049 0.359546 0.39434 0.429497 0.464687 0.498206 0.531924 0.564292 0.596752 0.628531 0.659853 0.690908 0.720929 0.750901 0.780031 0.807444 0.83509 0.859445 0.881295 0.901425 0.91404 0.923671 0.93008 0.931308 0.932126 0.932483 0.932391 0.932065 0.93157 0.931027 0.930534 0.930098 0.929705 0.929357 0.929063 0.928813 0.92855 0.928188 0.927583 0.926621 0.927362 0.932006 0.929311 0.927267 0.927285 0.927497 0.927656 0.927786 0.927769 0.927643 0.927578 0.927562 0.927366 0.926646 0.925119 0.922102 0.916034 0.904083 0.88156 0.841665 0.77658 0.680763 0.555885 0.415075 0.278607 0.165415 0.0856975 0.0389961 0.0161012 0.00628181 0.00238266 0.000891086 0.000330459 0.00012175 4.45781e-05 1.62166e-05 5.85845e-06 2.10064e-06 7.47178e-07 2.63493e-07 9.20795e-08 3.18711e-08 1.09213e-08 3.70285e-09 1.24226e-09 4.11299e-10 1.35051e-10 4.4027e-11 1.29551e-11 3.30914e-12 1.30577e-12 -7.39717e-13 1.18161e-12 -3.14663e-13 1.07717e-12 2.57039e-13 -6.88724e-13 3.18468e-13 -8.80806e-13 -4.67624e-13 -2.67209e-13 -3.65498e-13 -7.14116e-13 1.42726e-13 3.49106e-14 1.17605e-12 -1.20048e-12 -3.56224e-13 -7.62929e-13 4.02484e-13 1.11267e-12 -4.52655e-14 -1.88256e-13 -3.02443e-13 -4.05611e-13 8.95478e-14 1.38637e-13 8.49315e-13 -2.62519e-13 0
				</DataArray>
				<DataArray Name="VitesseY" type="Float32" format="ascii">