<?xml version="1.0"?>
<VTKFile type="PolyData">
	<PolyData>
		<Piece NumberOfPoints="1206" NumberOfPolys="1000">
			<Points>
				<DataArray type="Float32" NumberOfComponents="3" format="ascii">
 0 0 0 0.005 0 0 0.01 0 0 0.015 0 0 0.02 0 0 0.025 0 0 0.03 0 0 0.035 0 0 0.04 0 0 0.045 0 0 0.05 0 0 0.055 0 0 0.06 0 0 0.065 0 0 0.07 0 0 0.075 0 0 0.08 0 0 0.085 0 0 0.09 0 0 0.095 0 0 0.1 0 0 0.105 0 0 0.11 0 0 0.115 0 0 0.12 0 0 0.125 0 0 0.13 0 0 0.135 0 0 0.14 0 0 0.145 0 0 0.15 0 0 0.155 0 0 0.16 0 0 0.165 0 0 0.17 0 0 0.175 0 0 0.18 0 0 0.185 0 0 0.19 0 0 0.195 0 0 0.2 0 0 0.205 0 0 0.21 0 0 0.215 0 0 0.22 0 0 0.225 0 0 0.23 0 0 0.235 0 0 0.24 0 0 0.245 0 0 0.25 0 0 0.255 0 0 0.26 0 0 0.265 0 0 0.27 0 0 0.275 0 0 0.28 0 0 0.285 0 0 0.29 0 0 0.295 0 0 0.3 0 0 0.305 0 0 0.31 0 0 0.315 0 0 0.32 0 0 0.325 0 0 0.33 0 0 0.335 0 0 0.34 0 0 0.345 0 0 0.35 0 0 0.355 0 0 0.36 0 0 0.365 0 0 0.37 0 0 0.375 0 0 0.38 0 0 0.385 0 0 0.39 0 0 0.395 0 0 0.4 0 0 0.405 0 0 0.41 0 0 0.415 0 0 0.42 0 0 0.425 0 0 0.43 0 0 0.435 0 0 0.44 0 0 0.445 0 0 0.45 0 0 0.455 0 0 0.46 0 0 0.465 0 0 0.47 0 0 0.475 0 0 0.48 0 0 0.485 0 0 0.49 0 0 0.495 0 0 0.5 0 0 0.505 0 0 0.51 0 0 0.515 0 0 0.52 0 0 0.525 0 0 0.53 0 0 0.535 0 0 0.54 0 0 0.545 0 0 0.55 0 0 0.555 0 0 0.56 0 0 0.565 0 0 0.57 0 0 0.575 0 0 0.58 0 0 0.585 0 0 0.59 0 0 0.595 0 0 0.6 0 0 0.605 0 0 0.61 0 0 0.615 0 0 0.62 0 0 0.625 0 0 0.63 0 0 0.635 0 0 0.64 0 0 0.645 0 0 0.65 0 0 0.655 0 0 0.66 0 0 0.665 0 0 0.67 0 0 0.675 0 0 0.68 0 0 0.685 0 0 0.69 0 0 0.695 0 0 0.7 0 0 0.705 0 0 0.71 0 0 0.715 0 0 0.72 0 0 0.725 0 0 0.73 0 0 0.735 0 0 0.74 0 0 0.745 0 0 0.75 0 0 0.755 0 0 0.76 0 0 0.765 0 0 0.77 0 0 0.775 0 0 0.78 0 0 0.785 0 0 0.79 0 0 0.795 0 0 0.8 0 0 0.805 0 0 0.81 0 0 0.815 0 0 0.82 0 0 0.825 0 0 0.83 0 0 0.835 0 0 0.84 0 0 0.845 0 0 0.85 0 0 0.855 0 0 0.86 0 0 0.865 0 0 0.87 0 0 0.875 0 0 0.88 0 0 0.885 0 0 0.89 0 0 0.895 0 0 0.9 0 0 0.905 0 0 0.91 0 0 0.915 0 0 0.92 0 0 0.925 0 0 0.93 0 0 0.935 0 0 0.94 0 0 0.945 0 0 0.95 0 0 0.955 0 0 0.96 0 0 0.965 0 0 0.97 0 0 0.975 0 0 0.98 0 0 0.985 0 0 0.99 0 0 0.995 0 0 1 0 0 0 0.02 0 0.005 0.02 0 0.01 0.02 0 0.015 0.02 0 0.02 0.02 0 0.025 0.02 0 0.03 0.02 0 0.035 0.02 0 0.04 0.02 0 0.045 0.02 0 0.05 0.02 0 0.055 0.02 0 0.06 0.02 0 0.065 0.02 0 0.07 0.02 0 0.075 0.02 0 0.08 0.02 0 0.085 0.02 0 0.09 0.02 0 0.095 0.02 0 0.1 0.02 0 0.105 0.02 0 0.11 0.02 0 0.115 0.02 0 0.12 0.02 0 0.125 0.02 0 0.13 0.02 0 0.135 0.02 0 0.14 0.02 0 0.145 0.02 0 0.15 0.02 0 0.155 0.02 0 0.16 0.02 0 0.165 0.02 0 0.17 0.02 0 0.175 0.02 0 0.18 0.02 0 0.185 0.02 0 0.19 0.02 0 0.195 0.02 0 0.2 0.02 0 0.205 0.02 0 0.21 0.02 0 0.215 0.02 0 0.22 0.02 0 0.225 0.02 0 0.23 0.02 0 0.235 0.02 0 0.24 0.02 0 0.245 0.02 0 0.25 0.02 0 0.255 0.02 0 0.26 0.02 0 0.265 0.02 0 0.27 0.02 0 0.275 0.02 0 0.28 0.02 0 0.285 0.02 0 0.29 0.02 0 0.295 0.02 0 0.3 0.02 0 0.305 0.02 0 0.31 0.02 0 0.315 0.02 0 0.32 0.02 0 0.325 0.02 0 0.33 0.02 0 0.335 0.02 0 0.34 0.02 0 0.345 0.02 0 0.35 0.02 0 0.355 0.02 0 0.36 0.02 0 0.365 0.02 0 0.37 0.02 0 0.375 0.02 0 0.38 0.02 0 0.385 0.02 0 0.39 0.02 0 0.395 0.02 0 0.4 0.02 0 0.405 0.02 0 0.41 0.02 0 0.415 0.02 0 0.42 0.02 0 0.425 0.02 0 0.43 0.02 0 0.435 0.02 0 0.44 0.02 0 0.445 0.02 0 0.45 0.02 0 0.455 0.02 0 0.46 0.02 0 0.465 0.02 0 0.47 0.02 0 0.475 0.02 0 0.48 0.02 0 0.485 0.02 0 0.49 0.02 0 0.495 0.02 0 0.5 0.02 0 0.505 0.02 0 0.51 0.02 0 0.515 0.02 0 0.52 0.02 0 0.525 0.02 0 0.53 0.02 0 0.535 0.02 0 0.54 0.02 0 0.545 0.02 0 0.55 0.02 0 0.555 0.02 0 0.56 0.02 0 0.565 0.02 0 0.57 0.02 0 0.575 0.02 0 0.58 0.02 0 0.585 0.02 0 0.59 0.02 0 0.595 0.02 0 0.6 0.02 0 0.605 0.02 0 0.61 0.02 0 0.615 0.02 0 0.62 0.02 0 0.625 0.02 0 0.63 0.02 0 0.635 0.02 0 0.64 0.02 0 0.645 0.02 0 0.65 0.02 0 0.655 0.02 0 0.66 0.02 0 0.665 0.02 0 0.67 0.02 0 0.675 0.02 0 0.68 0.02 0 0.685 0.02 0 0.69 0.02 0 0.695 0.02 0 0.7 0.02 0 0.705 0.02 0 0.71 0.02 0 0.715 0.02 0 0.72 0.02 0 0.725 0.02 0 0.73 0.02 0 0.735 0.02 0 0.74 0.02 0 0.745 0.02 0 0.75 0.02 0 0.755 0.02 0 0.76 0.02 0 0.765 0.02 0 0.77 0.02 0 0.775 0.02 0 0.78 0.02 0 0.785 0.02 0 0.79 0.02 0 0.795 0.02 0 0.8 0.02 0 0.805 0.02 0 0.81 0.02 0 0.815 0.02 0 0.82 0.02 0 0.825 0.02 0 0.83 0.02 0 0.835 0.02 0 0.84 0.02 0 0.845 0.02 0 0.85 0.02 0 0.855 0.02 0 0.86 0.02 0 0.865 0.02 0 0.87 0.02 0 0.875 0.02 0 0.88 0.02 0 0.885 0.02 0 0.89 0.02 0 0.895 0.02 0 0.9 0.02 0 0.905 0.02 0 0.91 0.02 0 0.915 0.02 0 0.92 0.02 0 0.925 0.02 0 0.93 0.02 0 0.935 0.02 0 0.94 0.02 0 0.945 0.02 0 0.95 0.02 0 0.955 0.02 0 0.96 0.02 0 0.965 0.02 0 0.97 0.02 0 0.975 0.02 0 0.98 0.02 0 0.985 0.02 0 0.99 0.02 0 0.995 0.02 0 1 0.02 0 0 0.04 0 0.005 0.04 0 0.01 0.04 0 0.015 0.04 0 0.02 0.04 0 0.025 0.04 0 0.03 0.04 0 0.035 0.04 0 0.04 0.04 0 0.045 0.04 0 0.05 0.04 0 0.055 0.04 0 0.06 0.04 0 0.065 0.04 0 0.07 0.04 0 0.075 0.04 0 0.08 0.04 0 0.085 0.04 0 0.09 0.04 0 0.095 0.04 0 0.1 0.04 0 0.105 0.04 0 0.11 0.04 0 0.115 0.04 0 0.12 0.04 0 0.125 0.04 0 0.13 0.04 0 0.135 0.04 0 0.14 0.04 0 0.145 0.04 0 0.15 0.04 0 0.155 0.04 0 0.16 0.04 0 0.165 0.04 0 0.17 0.04 0 0.175 0.04 0 0.18 0.04 0 0.185 0.04 0 0.19 0.04 0 0.195 0.04 0 0.2 0.04 0 0.205 0.04 0 0.21 0.04 0 0.215 0.04 0 0.22 0.04 0 0.225 0.04 0 0.23 0.04 0 0.235 0.04 0 0.24 0.04 0 0.245 0.04 0 0.25 0.04 0 0.255 0.04 0 0.26 0.04 0 0.265 0.04 0 0.27 0.04 0 0.275 0.04 0 0.28 0.04 0 0.285 0.04 0 0.29 0.04 0 0.295 0.04 0 0.3 0.04 0 0.305 0.04 0 0.31 0.04 0 0.315 0.04 0 0.32 0.04 0 0.325 0.04 0 0.33 0.04 0 0.335 0.04 0 0.34 0.04 0 0.345 0.04 0 0.35 0.04 0 0.355 0.04 0 0.36 0.04 0 0.365 0.04 0 0.37 0.04 0 0.375 0.04 0 0.38 0.04 0 0.385 0.04 0 0.39 0.04 0 0.395 0.04 0 0.4 0.04 0 0.405 0.04 0 0.41 0.04 0 0.415 0.04 0 0.42 0.04 0 0.425 0.04 0 0.43 0.04 0 0.435 0.04 0 0.44 0.04 0 0.445 0.04 0 0.45 0.04 0 0.455 0.04 0 0.46 0.04 0 0.465 0.04 0 0.47 0.04 0 0.475 0.04 0 0.48 0.04 0 0.485 0.04 0 0.49 0.04 0 0.495 0.04 0 0.5 0.04 0 0.505 0.04 0 0.51 0.04 0 0.515 0.04 0 0.52 0.04 0 0.525 0.04 0 0.53 0.04 0 0.535 0.04 0 0.54 0.04 0 0.545 0.04 0 0.55 0.04 0 0.555 0.04 0 0.56 0.04 0 0.565 0.04 0 0.57 0.04 0 0.575 0.04 0 0.58 0.04 0 0.585 0.04 0 0.59 0.04 0 0.595 0.04 0 0.6 0.04 0 0.605 0.04 0 0.61 0.04 0 0.615 0.04 0 0.62 0.04 0 0.625 0.04 0 0.63 0.04 0 0.635 0.04 0 0.64 0.04 0 0.645 0.04 0 0.65 0.04 0 0.655 0.04 0 0.66 0.04 0 0.665 0.04 0 0.67 0.04 0 0.675 0.04 0 0.68 0.04 0 0.685 0.04 0 0.69 0.04 0 0.695 0.04 0 0.7 0.04 0 0.705 0.04 0 0.71 0.04 0 0.715 0.04 0 0.72 0.04 0 0.725 0.04 0 0.73 0.04 0 0.735 0.04 0 0.74 0.04 0 0.745 0.04 0 0.75 0.04 0 0.755 0.04 0 0.76 0.04 0 0.765 0.04 0 0.77 0.04 0 0.775 0.04 0 0.78 0.04 0 0.785 0.04 0 0.79 0.04 0 0.795 0.04 0 0.8 0.04 0 0.805 0.04 0 0.81 0.04 0 0.815 0.04 0 0.82 0.04 0 0.825 0.04 0 0.83 0.04 0 0.835 0.04 0 0.84 0.04 0 0.845 0.04 0 0.85 0.04 0 0.855 0.04 0 0.86 0.04 0 0.865 0.04 0 0.87 0.04 0 0.875 0.04 0 0.88 0.04 0 0.885 0.04 0 0.89 0.04 0 0.895 0.04 0 0.9 0.04 0 0.905 0.04 0 0.91 0.04 0 0.915 0.04 0 0.92 0.04 0 0.925 0.04 0 0.93 0.04 0 0.935 0.04 0 0.94 0.04 0 0.945 0.04 0 0.95 0.04 0 0.955 0.04 0 0.96 0.04 0 0.965 0.04 0 0.97 0.04 0 0.975 0.04 0 0.98 0.04 0 0.985 0.04 0 0.99 0.04 0 0.995 0.04 0 1 0.04 0 0 0.06 0 0.005 0.06 0 0.01 0.06 0 0.015 0.06 0 0.02 0.06 0 0.025 0.06 0 0.03 0.06 0 0.035 0.06 0 0.04 0.06 0 0.045 0.06 0 0.05 0.06 0 0.055 0.06 0 0.06 0.06 0 0.065 0.06 0 0.07 0.06 0 0.075 0.06 0 0.08 0.06 0 0.085 0.06 0 0.09 0.06 0 0.095 0.06 0 0.1 0.06 0 0.105 0.06 0 0.11 0.06 0 0.115 0.06 0 0.12 0.06 0 0.125 0.06 0 0.13 0.06 0 0.135 0.06 0 0.14 0.06 0 0.145 0.06 0 0.15 0.06 0 0.155 0.06 0 0.16 0.06 0 0.165 0.06 0 0.17 0.06 0 0.175 0.06 0 0.18 0.06 0 0.185 0.06 0 0.19 0.06 0 0.195 0.06 0 0.2 0.06 0 0.205 0.06 0 0.21 0.06 0 0.215 0.06 0 0.22 0.06 0 0.225 0.06 0 0.23 0.06 0 0.235 0.06 0 0.24 0.06 0 0.245 0.06 0 0.25 0.06 0 0.255 0.06 0 0.26 0.06 0 0.265 0.06 0 0.27 0.06 0 0.275 0.06 0 0.28 0.06 0 0.285 0.06 0 0.29 0.06 0 0.295 0.06 0 0.3 0.06 0 0.305 0.06 0 0.31 0.06 0 0.315 0.06 0 0.32 0.06 0 0.325 0.06 0 0.33 0.06 0 0.335 0.06 0 0.34 0.06 0 0.345 0.06 0 0.35 0.06 0 0.355 0.06 0 0.36 0.06 0 0.365 0.06 0 0.37 0.06 0 0.375 0.06 0 0.38 0.06 0 0.385 0.06 0 0.39 0.06 0 0.395 0.06 0 0.4 0.06 0 0.405 0.06 0 0.41 0.06 0 0.415 0.06 0 0.42 0.06 0 0.425 0.06 0 0.43 0.06 0 0.435 0.06 0 0.44 0.06 0 0.445 0.06 0 0.45 0.06 0 0.455 0.06 0 0.46 0.06 0 0.465 0.06 0 0.47 0.06 0 0.475 0.06 0 0.48 0.06 0 0.485 0.06 0 0.49 0.06 0 0.495 0.06 0 0.5 0.06 0 0.505 0.06 0 0.51 0.06 0 0.515 0.06 0 0.52 0.06 0 0.525 0.06 0 0.53 0.06 0 0.535 0.06 0 0.54 0.06 0 0.545 0.06 0 0.55 0.06 0 0.555 0.06 0 0.56 0.06 0 0.565 0.06 0 0.57 0.06 0 0.575 0.06 0 0.58 0.06 0 0.585 0.06 0 0.59 0.06 0 0.595 0.06 0 0.6 0.06 0 0.605 0.06 0 0.61 0.06 0 0.615 0.06 0 0.62 0.06 0 0.625 0.06 0 0.63 0.06 0 0.635 0.06 0 0.64 0.06 0 0.645 0.06 0 0.65 0.06 0 0.655 0.06 0 0.66 0.06 0 0.665 0.06 0 0.67 0.06 0 0.675 0.06 0 0.68 0.06 0 0.685 0.06 0 0.69 0.06 0 0.695 0.06 0 0.7 0.06 0 0.705 0.06 0 0.71 0.06 0 0.715 0.06 0 0.72 0.06 0 0.725 0.06 0 0.73 0.06 0 0.735 0.06 0 0.74 0.06 0 0.745 0.06 0 0.75 0.06 0 0.755 0.06 0 0.76 0.06 0 0.765 0.06 0 0.77 0.06 0 0.775 0.06 0 0.78 0.06 0 0.785 0.06 0 0.79 0.06 0 0.795 0.06 0 0.8 0.06 0 0.805 0.06 0 0.81 0.06 0 0.815 0.06 0 0.82 0.06 0 0.825 0.06 0 0.83 0.06 0 0.835 0.06 0 0.84 0.06 0 0.845 0.06 0 0.85 0.06 0 0.855 0.06 0 0.86 0.06 0 0.865 0.06 0 0.87 0.06 0 0.875 0.06 0 0.88 0.06 0 0.885 0.06 0 0.89 0.06 0 0.895 0.06 0 0.9 0.06 0 0.905 0.06 0 0.91 0.06 0 0.915 0.06 0 0.92 0.06 0 0.925 0.06 0 0.93 0.06 0 0.935 0.06 0 0.94 0.06 0 0.945 0.06 0 0.95 0.06 0 0.955 0.06 0 0.96 0.06 0 0.965 0.06 0 0.97 0.06 0 0.975 0.06 0 0.98 0.06 0 0.985 0.06 0 0.99 0.06 0 0.995 0.06 0 1 0.06 0 0 0.08 0 0.005 0.08 0 0.01 0.08 0 0.015 0.08 0 0.02 0.08 0 0.025 0.08 0 0.03 0.08 0 0.035 0.08 0 0.04 0.08 0 0.045 0.08 0 0.05 0.08 0 0.055 0.08 0 0.06 0.08 0 0.065 0.08 0 0.07 0.08 0 0.075 0.08 0 0.08 0.08 0 0.085 0.08 0 0.09 0.08 0 0.095 0.08 0 0.1 0.08 0 0.105 0.08 0 0.11 0.08 0 0.115 0.08 0 0.12 0.08 0 0.125 0.08 0 0.13 0.08 0 0.135 0.08 0 0.14 0.08 0 0.145 0.08 0 0.15 0.08 0 0.155 0.08 0 0.16 0.08 0 0.165 0.08 0
[...]
			<PointData Scalars="VitesseX">
				<DataArray Name="VitesseX" type="Float32" format="ascii">
 0 7.75895e-15 1.60868e-14 -1.31799e-14 1.69167e-14 2.56456e-15 5.122e-15 -2.4055e-14 -1.57922e-14 -1.27497e-15 4.09288e-14 -8.89447e-14 4.14982e-14 2.94166e-14 -1.12433e-13 -3.45542e-14 -3.94608e-14 -1.60588e-13 1.08451e-14 -1.04698e-14 -1.2206e-13 7.54363e-14 -2.33457e-13 5.51435e-14 -9.13989e-14 -6.13283e-14 -1.95626e-13 -6.05707e-14 -4.31043e-13 1.16031e-13 -3.01082e-13 -1.74102e-13 -1.25811e-13 3.69804e-15 -1.62167e-13 -4.28556e-13 2.30522e-13 1.8934e-13 3.47862e-13 3.3637e-12 2.04505e-11 1.16957e-10 6.36112e-10 3.28539e-09 1.60926e-08 7.45616e-08 3.26037e-07 1.34159e-06 5.17779e-06 1.86724e-05 6.26413e-05 0.000194476 0.000555361 0.00144873 0.00342733 0.00730648 0.0139872 0.0240872 0.0376262 0.0540584 0.0726054 0.0925682 0.113445 0.134915 0.156785 0.178939 0.201292 0.223796 0.246419 0.269142 0.291954 0.314846 0.337818 0.360872 0.384017 0.407265 0.430634 0.453939 0.476771 0.499633 0.522007 0.544401 0.566511 0.588565 0.61047 0.632157 0.653823 0.675166 0.696498 0.71759 0.738416 0.759236 0.779551 0.799568 0.819544 0.838424 0.857196 0.874835 0.890142 0.904348 0.91482 0.922139 0.927721 0.929999 0.931016 0.931595 0.931598 0.931478 0.931273 0.931022 0.930739 0.930424 0.930085 0.929753 0.929454 0.929201 0.92899 0.928811 0.928664 0.92854 0.928435 0.92835 0.92828 0.928218 0.92816 0.9281 0.928025 0.927916 0.927734 0.927423 0.926925 0.92641 0.926978 0.930665 0.929949 0.927353 0.927104 0.927253 0.927443 0.92754 0.927603 0.927657 0.927626 0.927547 0.927525 0.927611 0.927616 0.927605 0.927591 0.927575 0.927551 0.927501 0.927395 0.927197 0.926814 0.926047 0.924506 0.921435 0.915402 0.90381 0.882297 0.844452 0.782696 0.691229 0.570652 0.432467 0.29576 0.179756 0.0956784 0.0447392 0.0189196 0.00753543 0.00291527 0.00111355 0.000422929 0.000160157 6.0527e-05 2.28338e-05 8.59812e-06 3.23105e-06 1.21141e-06 4.53032e-07 1.68937e-07 6.2797e-08 2.3262e-08 8.58364e-09 3.15432e-09 1.15363e-09 4.19841e-10 1.51754e-10 5.44191e-11 1.94014e-11 6.65651e-12 2.25627e-12 1.61077e-12 -1.56559e-13 1.11631e-12 -9.59836e-13 9.16353e-13 -6.79052e-13 0 0 3.04774e-15 -2.64017e-14 2.44159e-14 -2.63999e-14 -2.40452e-14 1.56545e-14 -1.32891e-14 6.1546e-15 -1.56395e-14 -4.56713e-14 7.82308e-14 -1.36122e-14 -1.32064e-13 2.81487e-15 2.73905e-14 -1.11595e-13 -3.06431e-14 -7.96163e-14 2.96815e-14 -2.81202e-14 -1.87063e-13 1.11453e-13 -2.08946e-13 -3.6132e-14 -1.52252e-13 -1.72758e-14 -2.16391e-13 -7.14871e-14 -2.63871e-13 -6.40909e-14 -1.22542e-13 -2.35508e-13 -2.51606e-13 -6.20718e-14 5.33486e-14 -2.16397e-13 -7.83546e-14 6.47963e-13 3.30645e-12 2.04002e-11 1.1675e-10 6.36127e-10 3.28611e-09 1.6092e-08 7.45619e-08 3.26037e-07 1.34159e-06 5.17779e-06 1.86724e-05 6.26413e-05 0.000194476 0.000555361 0.00144873 0.00342733 0.00730648 0.0139872 0.0240872 0.0376262 0.0540584 0.0726054 0.0925682 0.113445 0.134915 0.156785 0.178939 0.201292 0.223796 0.246419 0.269142 0.291954 0.314846 0.337818 0.360872 0.384017 0.407265 0.430634 0.453939 0.476771 0.499633 0.522007 0.544401 0.566511 0.588565 0.61047 0.632157 0.653823 0.675166 0.696498 0.71759 0.738416 0.759236 0.779551 0.799568 0.819544 0.838424 0.857196 0.874835 0.890142 0.904348 0.91482 0.922139 0.927721 0.929999 0.931016 0.931595 0.931598 0.931478 0.931273 0.931022 0.930739 0.930424 0.930085 0.929753 0.929454 0.929201 0.92899 0.928811 0.928664 0.92854 0.928435 0.92835 0.92828 0.928218 0.92816 0.9281 0.928025 0.927916 0.927734 0.927423 0.926925 0.92641 0.926978 0.930665 0.929949 0.927353 0.927104 0.927253 0.927443 0.92754 0.927603 0.927657 0.927626 0.927547 0.927525 0.927611 0.927616 0.927605 0.927591 0.927575 0.927551 0.927501 0.927395 0.927197 0.926814 0.926047 0.924506 0.921435 0.915402 0.90381 0.882297 0.844452 0.782696 0.691229 0.570652 0.432467 0.29576 0.179756 0.0956784 0.0447392 0.0189196 0.00753543 0.00291527 0.00111355 0.000422929 0.000160157 6.0527e-05 2.28338e-05 8.59812e-06 3.23105e-06 1.21141e-06 4.53032e-07 1.68937e-07 6.27975e-08 2.32616e-08 8.58358e-09 3.15425e-09 1.15372e-09 4.1989e-10 1.5183e-10 5.46503e-11 1.92632e-11 7.03007e-12 2.44184e-12 3.97624e-13 4.80229e-13 -3.8147e-13 1.11005e-12 -8.54183e-13 6.03895e-13 0 0 -1.29345e-14 -1.11486e-14 -4.16328e-14 -2.28447e-14 -2.55696e-14 -2.57219e-14 -5.60159e-14 2.17698e-15 5.5713e-14 -3.47939e-15 -5.66093e-14 4.1964e-14 3.13436e-14 -9.42477e-15 -2.43512e-14 -4.13932e-14 -1.46085e-13 2.48039e-14 -3.66309e-14 -2.74549e-14 5.01315e-14 -1.49613e-13 -3.50649e-14 -9.86157e-14 -3.65764e-14 -1.846e-13 -1.93204e-13 -1.95989e-13 -5.85464e-14 -6.35514e-14 -6.17756e-14 -1.19186e-13 -1.80253e-13 -3.03007e-13 -9.64619e-14 -3.76022e-14 -5.53896e-14 4.76851e-13 3.32629e-12 2.03252e-11 1.17022e-10 6.36439e-10 3.28611e-09 1.60919e-08 7.45615e-08 3.26037e-07 1.34159e-06 5.17779e-06 1.86724e-05 6.26413e-05 0.000194476 0.000555361 0.00144873 0.00342733 0.00730648 0.0139872 0.0240872 0.0376262 0.0540584 0.0726054 0.0925682 0.113445 0.134915 0.156785 0.178939 0.201292 0.223796 0.246419 0.269142 0.291954 0.314846 0.337818 0.360872 0.384017 0.407265 0.430634 0.453939 0.476771 0.499633 0.522007 0.544401 0.566511 0.588565 0.61047 0.632157 0.653823 0.675166 0.696498 0.71759 0.738416 0.759236 0.779551 0.799568 0.819544 0.838424 0.857196 0.874835 0.890142 0.904348 0.91482 0.922139 0.927721 0.929999 0.931016 0.931595 0.931598 0.931478 0.931273 0.931022 0.930739 0.930424 0.930085 0.929753 0.929454 0.929201 0.92899 0.928811 0.928664 0.92854 0.928435 0.92835 0.92828 0.928218 0.92816 0.9281 0.928025 0.927916 0.927734 0.927423 0.926925 0.92641 0.926978 0.930665 0.929949 0.927353 0.927104 0.927253 0.927443 0.92754 0.927603 0.927657 0.927626 0.927547 0.927525 0.927611 0.927616 0.927605 0.927591 0.927575 0.927551 0.927501 0.927395 0.927197 0.926814 0.926047 0.924506 0.921435 0.915402 0.90381 0.882297 0.844452 0.782696 0.691229 0.570652 0.432467 0.29576 0.179756 0.0956784 0.0447392 0.0189196 0.00753543 0.00291527 0.00111355 0.000422929 0.000160157 6.0527e-05 2.28338e-05 8.59812e-06 3.23105e-06 1.21141e-06 4.53032e-07 1.68937e-07 6.27975e-08 2.32617e-08 8.58389e-09 3.15408e-09 1.15365e-09 4.20091e-10 1.52083e-10 5.45776e-11 1.93628e-11 6.78552e-12 2.54299e-12 5.09632e-13 5.59074e-14 2.98505e-13 -4.27316e-13 2.05695e-13 -2.46858e-13 0 0 -7.34253e-15 -1.88846e-14 -2.78748e-14 -3.85176e-14 -1.49888e-14 -2.48161e-14 -5.96124e-14 -2.69303e-14 -1.55716e-14 1.83185e-14 1.25096e-14 1.05895e-13 3.04244e-14 -5.62505e-14 3.38263e-15 4.06005e-14 -9.41771e-14 3.80666e-14 -8.52255e-14 -4.89495e-14 -1.56551e-14 -2.36258e-14 -5.59639e-14 2.91143e-14 -1.22821e-13 -8.38073e-14 -1.73755e-13 -2.95544e-13 -1.50682e-13 -1.84665e-13 7.16715e-14 -2.44387e-13 -4.33606e-14 -1.82449e-13 -1.92349e-13 8.75069e-14 2.3929e-13 6.53413e-14 3.40456e-12 2.04619e-11 1.17207e-10 6.36596e-10 3.28608e-09 1.60921e-08 7.45614e-08 3.26037e-07 1.34159e-06 5.17779e-06 1.86724e-05 6.26413e-05 0.000194476 0.000555361 0.00144873 0.00342733 0.00730648 0.0139872 0.0240872 0.0376262 0.0540584 0.0726054 0.0925682 0.113445 0.134915 0.156785 0.178939 0.201292 0.223796 0.246419 0.269142 0.291954 0.314846 0.337818 0.360872 0.384017 0.407265 0.430634 0.453939 0.476771 0.499633 0.522007 0.544401 0.566511 0.588565 0.61047 0.632157 0.653823 0.675166 0.696498 0.71759 0.738416 0.759236 0.779551 0.799568 0.819544 0.838424 0.857196 0.874835 0.890142 0.904348 0.91482 0.922139 0.927721 0.929999 0.931016 0.931595 0.931598 0.931478 0.931273 0.931022 0.930739 0.930424 0.930085 0.929753 0.929454 0.929201 0.92899 0.928811 0.928664 0.92854 0.928435 0.92835 0.92828 0.928218 0.92816 0.9281 0.928025 0.927916 0.927734 0.927423 0.926925 0.92641 0.926978 0.930665 0.929949 0.927353 0.927104 0.927253 0.927443 0.92754 0.927603 0.927657 0.927626 0.927547 0.927525 0.927611 0.927616 0.927605 0.927591 0.927575 0.927551 0.927501 0.927395 0.927197 0.926814 0.926047 0.924506 0.921435 0.915402 0.90381 0.882297 0.844452 0.782696 0.691229 0.570652 0.432467 0.29576 0.179756 0.0956784 0.0447392 0.0189196 0.00753543 0.00291527 0.00111355 0.000422929 0.000160157 6.0527e-05 2.28338e-05 8.59812e-06 3.23105e-06 1.21141e-06 4.53032e-07 1.68937e-07 6.27977e-08 2.32618e-08 8.58394e-09 3.15429e-09 1.15392e-09 4.19804e-10 1.52515e-10 5.43156e-11 1.93785e-11 6.42583e-12 2.1255e-12 3.40827e-13 -1.02513e-13 5.04092e-13 -1.16119e-13 2.80738e-13 -2.81708e-13 0 0 -5.78063e-15 -4.21081e-14 8.49171e-15 -5.63099e-14 -2.87661e-14 -1.89569e-14 -1.20917e-14 -7.07573e-15 -3.14291e-14 -5.45928e-14 1.23103e-13 8.27652e-15 -7.22818e-14 3.21921e-14 8.52089e-14 3.92632e-14 8.75401e-14 -2.65469e-14 -4.93359e-14 -6.79494e-14 -2.73817e-13 2.16327e-13 -2.54767e-13 6.34258e-14 -1.79678e-13 -6.06751e-14 -1.69991e-13 -1.09668e-13 -2.63075e-13 -1.21329e-13 -1.03671e-13 -1.99441e-13 -5.64414e-14 1.67716e-13 2.13542e-14 -5.83342e-14 2.27551e-13 3.74809e-13 3.1713e-12 2.03114e-11 1.17041e-10 6.36363e-10 3.28619e-09 1.60919e-08 7.45619e-08 3.26037e-07 1.34159e-06 5.17779e-06 1.86724e-05 6.26413e-05 0.000194476 0.000555361 0.00144873 0.00342733 0.00730648 0.0139872 0.0240872 0.0376262 0.0540584 0.0726054 0.0925682 0.113445 0.134915 0.156785 0.178939 0.201292 0.223796 0.246419 0.269142 0.291954 0.314846 0.337818 0.360872 0.384017 0.407265 0.430634 0.453939 0.476771 0.499633 0.522007 0.544401 0.566511 0.588565 0.61047 0.632157 0.653823 0.675166 0.696498 0.71759 0.738416 0.759236 0.779551 0.799568 0.819544 0.838424 0.857196 0.874835 0.890142 0.904348 0.91482 0.922139 0.927721 0.929999 0.931016 0.931595 0.931598 0.931478 0.931273 0.931022 0.930739 0.930424 0.930085 0.929753 0.929454 0.929201 0.92899 0.928811 0.928664 0.92854 0.928435 0.92835 0.92828 0.928218 0.92816 0.9281 0.928025 0.927916 0.927734 0.927423 0.926925 0.92641 0.926978 0.930665 0.929949 0.927353 0.927104 0.927253 0.927443 0.92754 0.927603 0.927657 0.927626 0.927547 0.927525 0.927611 0.927616 0.927605 0.927591 0.927575 0.927551 0.927501 0.927395 0.927197 0.926814 0.926047 0.924506 0.921435 0.915402 0.90381 0.882297 0.844452 0.782696 0.691229 0.570652 0.432467 0.29576 0.179756 0.0956784 0.0447392 0.0189196 0.00753543 0.00291527 0.00111355 0.000422929 0.000160157 6.0527e-05 2.28338e-05 8.59812e-06 3.23105e-06 1.21141e-06 4.53032e-07 1.68937e-07 6.27979e-08 2.32617e-08 8.58372e-09 3.15428e-09 1.15399e-09 4.19766e-10 1.52314e-10 5.47596e-11 1.9164e-11 6.69613e-12 1.64875e-12 -8.1182e-14 7.32335e-13 -6.06207e-13 1.12292e-12 -6.02899e-13 7.48291e-13 0 0 -2.10817e-14 1.46084e-16 -7.25443e-14 -1.15576e-14 -2.80389e-14 -6.59122e-14 -1.44671e-14 1.59616e-14 1.09715e-13 -2.05101e-14 -1.37439e-13 -4.25868e-14 1.50819e-13 3.99728e-14 2.56149e-14 9.82675e-14 -2.8037e-14 9.04585e-14 -7.13154e-14 -1.58729e-13 3.35021e-14 -2.75685e-13 5.29944e-15 -1.47743e-13 5.63092e-14 -4.84009e-13 -6.66784e-15 -3.08295e-13 3.01894e-13 -1.7333e-13 -4.03255e-13 1.96726e-13 1.20244e-13 5.62932e-14 -3.00769e-13 2.9643e-13 2.11792e-13 6.24574e-13 2.93687e-12 1.99995e-11 1.17168e-10 6.36269e-10 3.28561e-09 1.6092e-08 7.45618e-08 3.26037e-07 1.34159e-06 5.17779e-06 1.86724e-05 6.26413e-05 0.000194476 0.000555361 0.00144873 0.00342733 0.00730648 0.0139872 0.0240872 0.0376262 0.0540584 0.0726054 0.0925682 0.113445 0.134915 0.156785 0.178939 0.201292 0.223796 0.246419 0.269142 0.291954 0.314846 0.337818 0.360872 0.384017 0.407265 0.430634 0.453939 0.476771 0.499633 0.522007 0.544401 0.566511 0.588565 0.61047 0.632157 0.653823 0.675166 0.696498 0.71759 0.738416 0.759236 0.779551 0.799568 0.819544 0.838424 0.857196 0.874835 0.890142 0.904348 0.91482 0.922139 0.927721 0.929999 0.931016 0.931595 0.931598 0.931478 0.931273 0.931022 0.930739 0.930424 0.930085 0.929753 0.929454 0.929201 0.92899 0.928811 0.928664 0.92854 0.928435 0.92835 0.92828 0.928218 0.92816 0.9281 0.928025 0.927916 0.927734 0.927423 0.926925 0.92641 0.926978 0.930665 0.929949 0.927353 0.927104 0.927253 0.927443 0.92754 0.927603 0.927657 0.927626 0.927547 0.927525 0.927611 0.927616 0.927605 0.927591 0.927575 0.927551 0.927501 0.927395 0.927197 0.926814 0.926047 0.924506 0.921435 0.915402 0.90381 0.882297 0.844452 0.782696 0.691229 0.570652 0.432467 0.29576 0.179756 0.0956784 0.0447392 0.0189196 0.00753543 0.00291527 0.00111355 0.000422929 0.000160157 6.0527e-05 2.28338e-05 8.59812e-06 3.23105e-06 1.21141e-06 4.53033e-07 1.68937e-07 6.27973e-08 2.32618e-08 8.58381e-09 3.15397e-09 1.15365e-09 4.20165e-10 1.51857e-10 5.51618e-11 1.91716e-11 6.70803e-12 1.50506e-12 9.9077e-13 6.64493e-13 2.55663e-13 -1.5565e-12 1.26883e-12 -3.20559e-13 0
				</DataArray>
				<DataArray Name="VitesseY" type="Float32" format="ascii">