<?xml version="1.0"?>
<VTKFile type="PolyData">
	<PolyData>
		<Piece NumberOfPoints="1206" NumberOfPolys="1000">
			<Points>
				<DataArray type="Float32" NumberOfComponents="3" format="ascii">
 0 0 0 0.005 0 0 0.01 0 0 0.015 0 0 0.02 0 0 0.025 0 0 0.03 0 0 0.035 0 0 0.04 0 0 0.045 0 0 0.05 0 0 0.055 0 0 0.06 0 0 0.065 0 0 0.07 0 0 0.075 0 0 0.08 0 0 0.085 0 0 0.09 0 0 0.095 0 0 0.1 0 0 0.105 0 0 0.11 0 0 0.115 0 0 0.12 0 0 0.125 0 0 0.13 0 0 0.135 0 0 0.14 0 0 0.145 0 0 0.15 0 0 0.155 0 0 0.16 0 0 0.165 0 0 0.17 0 0 0.175 0 0 0.18 0 0 0.185 0 0 0.19 0 0 0.195 0 0 0.2 0 0 0.205 0 0 0.21 0 0 0.215 0 0 0.22 0 0 0.225 0 0 0.23 0 0 0.235 0 0 0.24 0 0 0.245 0 0 0.25 0 0 0.255 0 0 0.26 0 0 0.265 0 0 0.27 0 0 0.275 0 0 0.28 0 0 0.285 0 0 0.29 0 0 0.295 0 0 0.3 0 0 0.305 0 0 0.31 0 0 0.315 0 0 0.32 0 0 0.325 0 0 0.33 0 0 0.335 0 0 0.34 0 0 0.345 0 0 0.35 0 0 0.355 0 0 0.36 0 0 0.365 0 0 0.37 0 0 0.375 0 0 0.38 0 0 0.385 0 0 0.39 0 0 0.395 0 0 0.4 0 0 0.405001 0 0 0.410003 0 0 0.415013 0 0 0.420047 0 0 0.425145 0 0 0.430368 0 0 0.435797 0 0 0.44151 0 0 0.447582 0 0 0.454086 0 0 0.461108 0 0 0.468755 0 0 0.477159 0 0 0.486491 0 0 0.496946 0 0 0.508638 0 0 0.521062 0 0 0.533227 0 0 0.545131 0 0 0.556921 0 0 0.559536 0 0 0.562078 0 0 0.564575 0 0 0.567041 0 0 0.569487 0 0 0.571917 0 0 0.574337 0 0 0.57675 0 0 0.579163 0 0 0.581578 0 0 0.583999 0 0 0.586424 0 0 0.588856 0 0 0.591292 0 0 0.593746 0 0 0.59622 0 0 0.598752 0 0 0.601337 0 0 0.604045 0 0 0.606882 0 0 0.609963 0 0 0.613319 0 0 0.617031 0 0 0.621108 0 0 0.625529 0 0 0.630219 0 0 0.63508 0 0 0.640027 0 0 0.645009 0 0 0.650003 0 0 0.655001 0 0 0.66 0 0 0.665 0 0 0.67 0 0 0.675 0 0 0.68 0 0 0.685 0 0 0.69 0 0 0.695 0 0 0.7 0 0 0.705 0 0 0.71 0 0 0.715 0 0 0.72 0 0 0.725 0 0 0.73 0 0 0.735 0 0 0.74 0 0 0.745 0 0 0.75 0 0 0.755 0 0 0.76 0 0 0.765 0 0 0.77 0 0 0.775 0 0 0.78 0 0 0.785 0 0 0.79 0 0 0.795 0 0 0.8 0 0 0.805 0 0 0.81 0 0 0.815 0 0 0.82 0 0 0.825 0 0 0.83 0 0 0.835 0 0 0.84 0 0 0.845 0 0 0.85 0 0 0.855 0 0 0.86 0 0 0.865 0 0 0.87 0 0 0.875 0 0 0.88 0 0 0.885 0 0 0.89 0 0 0.895 0 0 0.9 0 0 0.905 0 0 0.91 0 0 0.915 0 0 0.92 0 0 0.925 0 0 0.93 0 0 0.935 0 0 0.94 0 0 0.945 0 0 0.95 0 0 0.955 0 0 0.96 0 0 0.965 0 0 0.97 0 0 0.975 0 0 0.98 0 0 0.985 0 0 0.99 0 0 0.995 0 0 1 0 0 0 0.02 0 0.005 0.02 0 0.01 0.02 0 0.015 0.02 0 0.02 0.02 0 0.025 0.02 0 0.03 0.02 0 0.035 0.02 0 0.04 0.02 0 0.045 0.02 0 0.05 0.02 0 0.055 0.02 0 0.06 0.02 0 0.065 0.02 0 0.07 0.02 0 0.075 0.02 0 0.08 0.02 0 0.085 0.02 0 0.09 0.02 0 0.095 0.02 0 0.1 0.02 0 0.105 0.02 0 0.11 0.02 0 0.115 0.02 0 0.12 0.02 0 0.125 0.02 0 0.13 0.02 0 0.135 0.02 0 0.14 0.02 0 0.145 0.02 0 0.15 0.02 0 0.155 0.02 0 0.16 0.02 0 0.165 0.02 0 0.17 0.02 0 0.175 0.02 0 0.18 0.02 0 0.185 0.02 0 0.19 0.02 0 0.195 0.02 0 0.2 0.02 0 0.205 0.02 0 0.21 0.02 0 0.215 0.02 0 0.22 0.02 0 0.225 0.02 0 0.23 0.02 0 0.235 0.02 0 0.24 0.02 0 0.245 0.02 0 0.25 0.02 0 0.255 0.02 0 0.26 0.02 0 0.265 0.02 0 0.27 0.02 0 0.275 0.02 0 0.28 0.02 0 0.285 0.02 0 0.29 0.02 0 0.295 0.02 0 0.3 0.02 0 0.305 0.02 0 0.31 0.02 0 0.315 0.02 0 0.32 0.02 0 0.325 0.02 0 0.33 0.02 0 0.335 0.02 0 0.34 0.02 0 0.345 0.02 0 0.35 0.02 0 0.355 0.02 0 0.36 0.02 0 0.365 0.02 0 0.37 0.02 0 0.375 0.02 0 0.38 0.02 0 0.385 0.02 0 0.39 0.02 0 0.395 0.02 0 0.4 0.02 0 0.405001 0.02 0 0.410003 0.02 0 0.415013 0.02 0 0.420047 0.02 0 0.425145 0.02 0 0.430368 0.02 0 0.435797 0.02 0 0.44151 0.02 0 0.447582 0.02 0 0.454086 0.02 0 0.461108 0.02 0 0.468755 0.02 0 0.477159 0.02 0 0.486491 0.02 0 0.496946 0.02 0 0.508638 0.02 0 0.521062 0.02 0 0.533227 0.02 0 0.545131 0.02 0 0.556921 0.02 0 0.559536 0.02 0 0.562078 0.02 0 0.564575 0.02 0 0.567041 0.02 0 0.569487 0.02 0 0.571917 0.02 0 0.574337 0.02 0 0.57675 0.02 0 0.579163 0.02 0 0.581578 0.02 0 0.583999 0.02 0 0.586424 0.02 0 0.588856 0.02 0 0.591292 0.02 0 0.593746 0.02 0 0.59622 0.02 0 0.598752 0.02 0 0.601337 0.02 0 0.604045 0.02 0 0.606882 0.02 0 0.609963 0.02 0 0.613319 0.02 0 0.617031 0.02 0 0.621108 0.02 0 0.625529 0.02 0 0.630219 0.02 0 0.63508 0.02 0 0.640027 0.02 0 0.645009 0.02 0 0.650003 0.02 0 0.655001 0.02 0 0.66 0.02 0 0.665 0.02 0 0.67 0.02 0 0.675 0.02 0 0.68 0.02 0 0.685 0.02 0 0.69 0.02 0 0.695 0.02 0 0.7 0.02 0 0.705 0.02 0 0.71 0.02 0 0.715 0.02 0 0.72 0.02 0 0.725 0.02 0 0.73 0.02 0 0.735 0.02 0 0.74 0.02 0 0.745 0.02 0 0.75 0.02 0 0.755 0.02 0 0.76 0.02 0 0.765 0.02 0 0.77 0.02 0 0.775 0.02 0 0.78 0.02 0 0.785 0.02 0 0.79 0.02 0 0.795 0.02 0 0.8 0.02 0 0.805 0.02 0 0.81 0.02 0 0.815 0.02 0 0.82 0.02 0 0.825 0.02 0 0.83 0.02 0 0.835 0.02 0 0.84 0.02 0 0.845 0.02 0 0.85 0.02 0 0.855 0.02 0 0.86 0.02 0 0.865 0.02 0 0.87 0.02 0 0.875 0.02 0 0.88 0.02 0 0.885 0.02 0 0.89 0.02 0 0.895 0.02 0 0.9 0.02 0 0.905 0.02 0 0.91 0.02 0 0.915 0.02 0 0.92 0.02 0 0.925 0.02 0 0.93 0.02 0 0.935 0.02 0 0.94 0.02 0 0.945 0.02 0 0.95 0.02 0 0.955 0.02 0 0.96 0.02 0 0.965 0.02 0 0.97 0.02 0 0.975 0.02 0 0.98 0.02 0 0.985 0.02 0 0.99 0.02 0 0.995 0.02 0 1 0.02 0 0 0.04 0 0.005 0.04 0 0.01 0.04 0 0.015 0.04 0 0.02 0.04 0 0.025 0.04 0 0.03 0.04 0 0.035 0.04 0 0.04 0.04 0 0.045 0.04 0 0.05 0.04 0 0.055 0.04 0 0.06 0.04 0 0.065 0.04 0 0.07 0.04 0 0.075 0.04 0 0.08 0.04 0 0.085 0.04 0 0.09 0.04 0 0.095 0.04 0 0.1 0.04 0 0.105 0.04 0 0.11 0.04 0 0.115 0.04 0 0.12 0.04 0 0.125 0.04 0 0.13 0.04 0 0.135 0.04 0 0.14 0.04 0 0.145 0.04 0 0.15 0.04 0 0.155 0.04 0 0.16 0.04 0 0.165 0.04 0 0.17 0.04 0 0.175 0.04 0 0.18 0.04 0 0.185 0.04 0 0.19 0.04 0 0.195 0.04 0 0.2 0.04 0 0.205 0.04 0 0.21 0.04 0 0.215 0.04 0 0.22 0.04 0 0.225 0.04 0 0.23 0.04 0 0.235 0.04 0 0.24 0.04 0 0.245 0.04 0 0.25 0.04 0 0.255 0.04 0 0.26 0.04 0 0.265 0.04 0 0.27 0.04 0 0.275 0.04 0 0.28 0.04 0 0.285 0.04 0 0.29 0.04 0 0.295 0.04 0 0.3 0.04 0 0.305 0.04 0 0.31 0.04 0 0.315 0.04 0 0.32 0.04 0 0.325 0.04 0 0.33 0.04 0 0.335 0.04 0 0.34 0.04 0 0.345 0.04 0 0.35 0.04 0 0.355 0.04 0 0.36 0.04 0 0.365 0.04 0 0.37 0.04 0 0.375 0.04 0 0.38 0.04 0 0.385 0.04 0 0.39 0.04 0 0.395 0.04 0 0.4 0.04 0 0.405001 0.04 0 0.410003 0.04 0 0.415013 0.04 0 0.420047 0.04 0 0.425145 0.04 0 0.430368 0.04 0 0.435797 0.04 0 0.44151 0.04 0 0.447582 0.04 0 0.454086 0.04 0 0.461108 0.04 0 0.468755 0.04 0 0.477159 0.04 0 0.486491 0.04 0 0.496946 0.04 0 0.508638 0.04 0 0.521062 0.04 0 0.533227 0.04 0 0.545131 0.04 0 0.556921 0.04 0 0.559536 0.04 0 0.562078 0.04 0 0.564575 0.04 0 0.567041 0.04 0 0.569487 0.04 0 0.571917 0.04 0 0.574337 0.04 0 0.57675 0.04 0 0.579163 0.04 0 0.581578 0.04 0 0.583999 0.04 0 0.586424 0.04 0 0.588856 0.04 0 0.591292 0.04 0 0.593746 0.04 0 0.59622 0.04 0 0.598752 0.04 0 0.601337 0.04 0 0.604045 0.04 0 0.606882 0.04 0 0.609963 0.04 0 0.613319 0.04 0 0.617031 0.04 0 0.621108 0.04 0 0.625529 0.04 0 0.630219 0.04 0 0.63508 0.04 0 0.640027 0.04 0 0.645009 0.04 0 0.650003 0.04 0 0.655001 0.04 0 0.66 0.04 0 0.665 0.04 0 0.67 0.04 0 0.675 0.04 0 0.68 0.04 0 0.685 0.04 0 0.69 0.04 0 0.695 0.04 0 0.7 0.04 0 0.705 0.04 0 0.71 0.04 0 0.715 0.04 0 0.72 0.04 0 0.725 0.04 0 0.73 0.04 0 0.735 0.04 0 0.74 0.04 0 0.745 0.04 0 0.75 0.04 0 0.755 0.04 0 0.76 0.04 0 0.765 0.04 0 0.77 0.04 0 0.775 0.04 0 0.78 0.04 0 0.785 0.04 0 0.79 0.04 0 0.795 0.04 0 0.8 0.04 0 0.805 0.04 0 0.81 0.04 0 0.815 0.04 0 0.82 0.04 0 0.825 0.04 0 0.83 0.04 0 0.835 0.04 0 0.84 0.04 0 0.845 0.04 0 0.85 0.04 0 0.855 0.04 0 0.86 0.04 0 0.865 0.04 0 0.87 0.04 0 0.875 0.04 0 0.88 0.04 0 0.885 0.04 0 0.89 0.04 0 0.895 0.04 0 0.9 0.04 0 0.905 0.04 0 0.91 0.04 0 0.915 0.04 0 0.92 0.04 0 0.925 0.04 0 0.93 0.04 0 0.935 0.04 0 0.94 0.04 0 0.945 0.04 0 0.95 0.04 0 0.955 0.04 0 0.96 0.04 0 0.965 0.04 0 0.97 0.04 0 0.975 0.04 0 0.98 0.04 0 0.985 0.04 0 0.99 0.04 0 0.995 0.04 0 1 0.04 0 0 0.06 0 0.005 0.06 0 0.01 0.06 0 0.015 0.06 0 0.02 0.06 0 0.025 0.06 0 0.03 0.06 0 0.035 0.06 0 0.04 0.06 0 0.045 0.06 0 0.05 0.06 0 0.055 0.06 0 0.06 0.06 0 0.065 0.06 0 0.07 0.06 0 0.075 0.06 0 0.08 0.06 0 0.085 0.06 0 0.09 0.06 0 0.095 0.06 0 0.1 0.06 0 0.105 0.06 0 0.11 0.06 0 0.115 0.06 0 0.12 0.06 0 0.125 0.06 0 0.13 0.06 0 0.135 0.06 0 0.14 0.06 0 0.145 0.06 0 0.15 0.06 0 0.155 0.06 0 0.16 0.06 0 0.165 0.06 0 0.17 0.06 0 0.175 0.06 0 0.18 0.06 0 0.185 0.06 0 0.19 0.06 0 0.195 0.06 0 0.2 0.06 0 0.205 0.06 0 0.21 0.06 0 0.215 0.06 0 0.22 0.06 0 0.225 0.06 0 0.23 0.06 0 0.235 0.06 0 0.24 0.06 0 0.245 0.06 0 0.25 0.06 0 0.255 0.06 0 0.26 0.06 0 0.265 0.06 0 0.27 0.06 0 0.275 0.06 0 0.28 0.06 0 0.285 0.06 0 0.29 0.06 0 0.295 0.06 0 0.3 0.06 0 0.305 0.06 0 0.31 0.06 0 0.315 0.06 0 0.32 0.06 0 0.325 0.06 0 0.33 0.06 0 0.335 0.06 0 0.34 0.06 0 0.345 0.06 0 0.35 0.06 0 0.355 0.06 0 0.36 0.06 0 0.365 0.06 0 0.37 0.06 0 0.375 0.06 0 0.38 0.06 0 0.385 0.06 0 0.39 0.06 0 0.395 0.06 0 0.4 0.06 0 0.405001 0.06 0 0.410003 0.06 0 0.415013 0.06 0 0.420047 0.06 0 0.425145 0.06 0 0.430368 0.06 0 0.435797 0.06 0 0.44151 0.06 0 0.447582 0.06 0 0.454086 0.06 0 0.461108 0.06 0 0.468755 0.06 0 0.477159 0.06 0 0.486491 0.06 0 0.496946 0.06 0 0.508638 0.06 0 0.521062 0.06 0 0.533227 0.06 0 0.545131 0.06 0 0.556921 0.06 0 0.559536 0.06 0 0.562078 0.06 0 0.564575 0.06 0 0.567041 0.06 0 0.569487 0.06 0 0.571917 0.06 0 0.574337 0.06 0 0.57675 0.06 0 0.579163 0.06 0 0.581578 0.06 0 0.583999 0.06 0 0.586424 0.06 0 0.588856 0.06 0 0.591292 0.06 0 0.593746 0.06 0 0.59622 0.06 0 0.598752 0.06 0 0.601337 0.06 0 0.604045 0.06 0 0.606882 0.06 0 0.609963 0.06 0 0.613319 0.06 0 0.617031 0.06 0 0.621108 0.06 0 0.625529 0.06 0 0.630219 0.06 0 0.63508 0.06 0 0.640027 0.06 0 0.645009 0.06 0 0.650003 0.06 0 0.655001 0.06 0 0.66 0.06 0 0.665 0.06 0 0.67 0.06 0 0.675 0.06 0 0.68 0.06 0 0.685 0.06 0 0.69 0.06 0 0.695 0.06 0 0.7 0.06 0 0.705 0.06 0 0.71 0.06 0 0.715 0.06 0 0.72 0.06 0 0.725 0.06 0 0.73 0.06 0 0.735 0.06 0 0.74 0.06 0 0.745 0.06 0 0.75 0.06 0 0.755 0.06 0 0.76 0.06 0 0.765 0.06 0 0.77 0.06 0 0.775 0.06 0 0.78 0.06 0 0.785 0.06 0 0.79 0.06 0 0.795 0.06 0 0.8 0.06 0 0.805 0.06 0 0.81 0.06 0 0.815 0.06 0 0.82 0.06 0 0.825 0.06 0 0.83 0.06 0 0.835 0.06 0 0.84 0.06 0 0.845 0.06 0 0.85 0.06 0 0.855 0.06 0 0.86 0.06 0 0.865 0.06 0 0.87 0.06 0 0.875 0.06 0 0.88 0.06 0 0.885 0.06 0
[...]
			<PointData Scalars="VitesseX">
				<DataArray Name="VitesseX" type="Float32" format="ascii">
 0 -5.19152e-16 1.60873e-15 1.00307e-15 -1.04821e-15 -2.39246e-15 -4.07158e-16 -4.18213e-15 -3.84979e-15 -4.85841e-15 -5.89732e-15 5.21646e-15 -1.07641e-14 -7.64668e-15 -1.52249e-14 -2.6076e-15 -8.83302e-15 -3.26859e-15 2.80312e-15 -1.06103e-14 -1.81762e-14 -2.11128e-15 -3.78018e-15 -1.21234e-14 -1.59783e-14 -1.04002e-14 -1.83277e-14 -1.88191e-14 2.03566e-15 -6.5947e-15 -2.39801e-14 2.00651e-15 -1.657e-14 -2.73994e-14 -7.18758e-15 -2.2068e-14 -1.04339e-14 -1.13999e-14 -1.81619e-14 3.28279e-16 -1.17314e-14 -1.09196e-15 -7.2365e-15 9.2853e-15 7.91936e-16 -3.64038e-15 1.13246e-14 -1.24604e-14 4.65319e-15 7.02709e-16 -9.41775e-15 -2.62593e-14 -1.68318e-14 3.57409e-14 -1.30018e-14 -4.09298e-14 -2.43852e-14 -4.21548e-14 1.2923e-15 -4.67159e-14 -3.01298e-14 -3.11947e-14 3.14192e-14 -5.5259e-14 6.77194e-15 -2.56679e-14 3.00288e-14 1.7973e-15 -1.44596e-14 -4.82888e-14 3.69663e-15 7.59916e-14 7.07657e-13 9.45793e-12 1.1605e-10 1.29259e-09 1.30238e-08 1.17998e-07 9.54414e-07 6.83315e-06 4.28566e-05 0.000232447 0.00107289 0.00413401 0.0130428 0.033308 0.069338 0.121183 0.185546 0.259255 0.340824 0.430084 0.527511 0.633686 0.748323 0.866716 0.964986 0.969857 0.943427 0.929631 0.92609 0.926588 0.926838 0.926934 0.926921 0.926836 0.926404 0.926168 0.925137 0.924925 0.922785 0.92276 0.917894 0.918219 0.905538 0.906899 0.874936 0.879261 0.811803 0.812207 0.698682 0.641851 0.505631 0.384676 0.253879 0.145553 0.0696959 0.0281676 0.0100622 0.0033435 0.00106424 0.000328438 9.86624e-05 2.88726e-05 8.22864e-06 2.28239e-06 6.15688e-07 1.61418e-07 4.11085e-08 1.01652e-08 2.44004e-09 5.68367e-10 1.28504e-10 2.81568e-11 5.95462e-12 1.22906e-12 1.6859e-13 7.39678e-14 1.31964e-14 -8.12921e-14 4.88524e-14 -8.54541e-14 2.28237e-15 -9.01909e-14 -1.07943e-13 -7.82724e-15 -1.06043e-13 2.04204e-15 -9.81836e-14 -2.49102e-14 1.10815e-14 -8.31254e-14 1.30763e-14 -4.27866e-14 -1.60693e-14 -4.09401e-14 3.59756e-14 2.21692e-14 3.41671e-14 -5.38265e-14 -5.62978e-14 5.59003e-14 6.05198e-14 -2.94776e-14 4.45401e-15 3.74123e-14 3.49462e-14 -9.42092e-14 6.924e-14 -1.02829e-14 -2.1637e-14 6.2139e-14 3.30253e-14 -4.39721e-14 -5.45734e-14 1.06261e-14 2.80377e-14 -8.07398e-14 1.11006e-13 1.24938e-15 1.14025e-14 9.08395e-14 2.42738e-14 5.13223e-14 1.15181e-13 3.00309e-14 7.04927e-14 3.07932e-14 5.62054e-14 1.13867e-16 0 0 -3.39928e-16 -1.18724e-15 1.80736e-15 -3.42678e-15 4.50944e-16 -2.97402e-15 -3.60799e-15 -8.46492e-15 -2.97324e-15 -5.05725e-15 -4.69284e-15 6.50733e-16 -1.23905e-14 -8.69459e-15 -1.01303e-14 -7.09384e-15 1.68756e-15 -1.32765e-14 -1.27257e-14 -1.14236e-14 -9.62211e-15 -6.31265e-15 -4.65049e-17 -1.00146e-14 -1.49204e-14 -1.07833e-14 -2.20208e-14 1.06783e-14 -1.9353e-14 -2.26584e-14 1.75313e-16 -2.68185e-14 -1.62324e-14 -1.86875e-14 -1.93033e-14 -1.42649e-14 3.37854e-15 -9.53565e-15 -4.71562e-15 -2.12507e-14 2.92329e-15 -1.04221e-14 9.23646e-15 -1.05347e-14 1.87996e-15 -7.59751e-15 1.02092e-14 -3.18452e-15 1.4705e-14 -8.88922e-15 -2.48161e-14 -1.60668e-14 3.20012e-14 -2.13097e-14 -4.85087e-14 2.07878e-15 -4.53297e-14 -3.44716e-14 -5.0423e-14 -1.60458e-14 2.03438e-15 -3.51748e-14 8.91643e-15 -5.88323e-14 3.81081e-14 3.52254e-14 -3.50254e-14 -1.70005e-14 -2.66086e-14 -2.31391e-14 8.54872e-14 7.36036e-13 9.49545e-12 1.16073e-10 1.29254e-09 1.30238e-08 1.17998e-07 9.54414e-07 6.83315e-06 4.28566e-05 0.000232447 0.00107289 0.00413401 0.0130428 0.033308 0.069338 0.121183 0.185546 0.259255 0.340824 0.430084 0.527511 0.633686 0.748323 0.866716 0.964986 0.969857 0.943427 0.929631 0.92609 0.926588 0.926838 0.926934 0.926921 0.926836 0.926404 0.926168 0.925137 0.924925 0.922785 0.92276 0.917894 0.918219 0.905538 0.906899 0.874936 0.879261 0.811803 0.812207 0.698682 0.641851 0.505631 0.384676 0.253879 0.145553 0.0696959 0.0281676 0.0100622 0.0033435 0.00106424 0.000328438 9.86624e-05 2.88726e-05 8.22864e-06 2.28239e-06 6.15688e-07 1.61418e-07 4.11085e-08 1.01652e-08 2.43998e-09 5.68404e-10 1.28511e-10 2.81289e-11 5.95345e-12 1.17826e-12 1.85957e-13 5.01101e-14 -7.37267e-14 2.12882e-14 -9.35054e-14 -2.24628e-14 3.58903e-14 -1.2023e-13 -2.90633e-14 -8.09689e-14 -1.84837e-14 -3.85195e-14 -4.79412e-14 -1.27832e-13 1.3887e-14 -9.39653e-15 -9.05276e-15 -3.2735e-14 -3.64139e-14 -3.54241e-14 3.03117e-14 -1.50269e-14 -2.99318e-14 7.756e-14 -6.08358e-14 -3.49201e-15 1.09284e-13 -1.01656e-13 5.22507e-14 2.15312e-14 -8.11906e-14 7.49104e-14 -8.68975e-15 -4.20415e-14 -2.37068e-14 9.08308e-14 5.6202e-14 -1.08326e-13 7.8388e-14 -4.74978e-14 1.47553e-14 5.27083e-15 -1.35502e-14 9.81744e-14 4.22125e-14 1.17097e-14 9.81544e-14 9.40149e-14 -7.23245e-15 7.95718e-14 5.19796e-14 4.56525e-14 -8.26546e-15 -3.27666e-14 0 0 -1.17852e-15 -1.60344e-15 -1.45245e-15 -4.52047e-15 -1.92408e-15 -6.13823e-15 -7.30876e-15 -1.15016e-14 -3.63286e-15 -7.59117e-15 -7.06058e-15 -5.21809e-15 2.41623e-15 -9.13516e-15 -1.10578e-14 -1.06081e-15 -1.39224e-14 -4.67973e-15 -2.75239e-14 -8.30899e-15 -1.60984e-14 -5.67112e-15 5.51526e-15 -6.40779e-16 -1.53448e-14 -2.11804e-14 -2.30948e-14 7.54449e-15 -3.03855e-14 -1.446e-14 -2.43997e-14 -2.84668e-14 -5.64791e-15 -2.77483e-14 -1.84923e-14 1.14116e-14 -4.38871e-15 6.97822e-15 -1.25004e-14 -3.58257e-15 -4.28319e-15 -1.80997e-14 -1.50134e-14 1.51882e-14 -2.2292e-14 -2.6754e-14 2.80851e-14 -5.54583e-16 2.94779e-15 -5.35424e-15 -1.47325e-14 1.46683e-14 -1.4785e-14 -2.56494e-14 -2.86153e-14 -2.08017e-14 -5.70375e-14 -9.12552e-15 -9.13917e-14 1.11825e-14 -1.4145e-14 -5.41139e-14 4.17173e-14 -2.90676e-14 1.07829e-14 5.57692e-15 5.2501e-15 -3.70083e-14 2.02874e-14 -4.2873e-14 9.89608e-14 7.88613e-13 9.53667e-12 1.16109e-10 1.29255e-09 1.30238e-08 1.17998e-07 9.54414e-07 6.83315e-06 4.28566e-05 0.000232447 0.00107289 0.00413401 0.0130428 0.033308 0.069338 0.121183 0.185546 0.259255 0.340824 0.430084 0.527511 0.633686 0.748323 0.866716 0.964986 0.969857 0.943427 0.929631 0.92609 0.926588 0.926838 0.926934 0.926921 0.926836 0.926404 0.926168 0.925137 0.924925 0.922785 0.92276 0.917894 0.918219 0.905538 0.906899 0.874936 0.879261 0.811803 0.812207 0.698682 0.641851 0.505631 0.384676 0.253879 0.145553 0.0696959 0.0281676 0.0100622 0.0033435 0.00106424 0.000328438 9.86624e-05 2.88726e-05 8.22864e-06 2.28239e-06 6.15688e-07 1.61418e-07 4.11084e-08 1.01652e-08 2.43991e-09 5.68394e-10 1.28415e-10 2.81144e-11 5.93547e-12 1.14565e-12 1.45118e-13 -2.28284e-15 -3.49066e-14 -2.90201e-14 -1.32325e-13 -1.21378e-14 -2.92992e-14 4.26975e-14 -1.2291e-13 -1.0206e-13 5.61428e-14 -7.74742e-14 -3.73094e-14 -6.71456e-14 1.92682e-15 -2.23865e-14 8.75436e-14 -6.32602e-14 -4.9396e-14 -1.63283e-14 -1.62101e-14 5.18377e-14 -6.42419e-14 -1.67873e-14 -3.8516e-14 -3.27098e-14 1.01552e-13 -6.58235e-14 3.13868e-14 4.36375e-14 -1.43408e-13 1.08055e-13 -4.63234e-14 3.23572e-14 -1.74532e-14 2.27381e-14 3.59941e-14 -5.50448e-14 4.56014e-14 -4.05229e-14 2.56827e-14 3.22417e-14 6.4834e-14 8.38096e-14 -1.26255e-14 1.04822e-13 8.99665e-14 1.47014e-14 3.90006e-14 7.90011e-14 -1.62811e-14 -2.84986e-14 -6.93054e-14 1.95179e-14 0 0 -4.78073e-16 -1.92545e-15 -3.15737e-15 -5.18044e-15 -7.96992e-15 -7.29125e-15 -1.07409e-14 -7.10191e-15 -1.3555e-14 -2.89151e-15 -8.07736e-15 -7.9014e-15 -7.38569e-17 1.22932e-15 -3.11403e-15 -1.42078e-14 -1.59928e-14 4.57484e-15 -3.29453e-14 -1.57128e-14 -8.73322e-15 -1.34474e-14 -9.8475e-15 -1.04997e-14 -9.13215e-15 -1.00551e-14 -2.64029e-14 -2.47837e-14 -3.2793e-14 -1.17842e-14 -3.23324e-14 -2.70715e-14 -1.09337e-14 -3.28363e-14 -2.80447e-15 3.44818e-14 -1.5014e-14 -3.26859e-15 -8.44859e-15 2.13676e-14 -1.37108e-14 -1.22554e-14 2.32311e-14 2.72748e-14 -3.55639e-14 -2.39057e-14 -1.92547e-14 -1.32351e-14 -4.98228e-15 -8.80242e-16 1.51526e-14 -8.94336e-16 -4.93226e-14 -5.77424e-15 -6.56489e-14 -1.60649e-14 -7.21666e-14 -1.52176e-14 -7.06932e-14 -5.22639e-15 -2.69625e-14 -7.77799e-14 -1.79583e-14 8.78226e-14 -1.57203e-14 -2.52191e-14 5.41859e-14 -5.32677e-14 -2.19749e-14 -1.94973e-14 1.54806e-13 8.2743e-13 9.55234e-12 1.16131e-10 1.29259e-09 1.30238e-08 1.17998e-07 9.54414e-07 6.83315e-06 4.28566e-05 0.000232447 0.00107289 0.00413401 0.0130428 0.033308 0.069338 0.121183 0.185546 0.259255 0.340824 0.430084 0.527511 0.633686 0.748323 0.866716 0.964986 0.969857 0.943427 0.929631 0.92609 0.926588 0.926838 0.926934 0.926921 0.926836 0.926404 0.926168 0.925137 0.924925 0.922785 0.92276 0.917894 0.918219 0.905538 0.906899 0.874936 0.879261 0.811803 0.812207 0.698682 0.641851 0.505631 0.384676 0.253879 0.145553 0.0696959 0.0281676 0.0100622 0.0033435 0.00106424 0.000328438 9.86624e-05 2.88726e-05 8.22864e-06 2.28239e-06 6.15688e-07 1.61418e-07 4.11085e-08 1.01652e-08 2.43989e-09 5.68265e-10 1.28311e-10 2.81494e-11 5.82179e-12 1.12903e-12 1.87677e-13 -8.01061e-14 6.52082e-15 -1.06225e-13 4.28458e-15 1.70026e-14 -6.03994e-14 -4.87905e-14 -1.37613e-13 6.99425e-14 -3.0286e-14 -1.13234e-13 -8.70874e-14 1.0167e-13 -2.07867e-14 -9.88345e-14 -4.75449e-14 -6.62255e-15 -1.92606e-14 1.20744e-13 5.30838e-15 -1.76928e-14 -2.73369e-14 -1.24064e-13 3.08353e-14 -1.84939e-14 -3.84138e-14 -1.64474e-14 1.41825e-13 -4.77014e-14 -1.47623e-16 -1.58306e-13 6.75269e-14 1.13691e-13 -1.09651e-14 -5.03905e-14 -2.95991e-14 1.55511e-14 -1.4353e-14 1.41237e-13 -1.1766e-14 4.90798e-14 1.21786e-13 1.72663e-16 -5.43685e-14 8.72903e-14 1.46552e-13 -2.42896e-14 9.88006e-14 1.01664e-13 -9.91567e-14 -3.56427e-14 -1.4118e-13 1.56274e-14 0 0 1.30252e-15 -2.65e-15 -1.63513e-15 -5.49383e-15 -1.10536e-14 -1.01075e-14 -1.14838e-14 -9.14e-15 -1.82675e-14 6.70899e-15 -9.32801e-15 -1.00893e-15 -1.3187e-14 1.15237e-14 -9.63788e-15 -1.64395e-14 -4.13653e-15 -5.26955e-15 -1.89321e-14 -3.03493e-14 6.24225e-15 -1.53437e-14 -9.48095e-15 -3.62214e-14 -1.61338e-14 -1.26073e-14 -2.48779e-14 -2.97172e-14 -1.22155e-14 -4.15089e-14 6.91485e-15 -3.23134e-14 -2.97164e-14 -2.32816e-14 -2.7261e-14 1.11788e-14 -8.29618e-15 1.37473e-14 -9.60292e-15 4.75652e-14 -1.61814e-14 -5.337e-16 3.91519e-14 3.78686e-14 -2.44777e-14 -2.52613e-14 -4.64051e-14 -1.17211e-14 1.05283e-14 -2.27555e-14 7.60311e-15 -2.85414e-14 -4.76077e-14 -7.6318e-15 -8.47412e-14 8.92308e-17 -4.95841e-14 -7.19654e-14 -3.38062e-14 -1.61099e-14 -1.67861e-14 -8.5899e-14 -3.04019e-14 6.02133e-14 4.18777e-14 -1.35903e-14 -3.95936e-15 -4.36056e-14 -5.63313e-14 -5.85865e-15 9.54197e-14 8.43218e-13 9.54842e-12 1.16183e-10 1.29261e-09 1.30239e-08 1.17998e-07 9.54414e-07 6.83315e-06 4.28566e-05 0.000232447 0.00107289 0.00413401 0.0130428 0.033308 0.069338 0.121183 0.185546 0.259255 0.340824 0.430084 0.527511 0.633686 0.748323 0.866716 0.964986 0.969857 0.943427 0.929631 0.92609 0.926588 0.926838 0.926934 0.926921 0.926836 0.926404 0.926168 0.925137 0.924925 0.922785 0.92276 0.917894 0.918219 0.905538 0.906899 0.874936 0.879261 0.811803 0.812207 0.698682 0.641851 0.505631 0.384676 0.253879 0.145553 0.0696959 0.0281676 0.0100622 0.0033435 0.00106424 0.000328438 9.86624e-05 2.88726e-05 8.22864e-06 2.28239e-06 6.15688e-07 1.61418e-07 4.11086e-08 1.0165e-08 2.44001e-09 5.68154e-10 1.28433e-10 2.803e-11 5.75217e-12 1.07545e-12 1.32211e-13 -9.37175e-14 -3.53593e-14 -5.5017e-14 7.38574e-14 8.19013e-14 -2.21284e-15 -1.57458e-13 -6.15176e-14 8.467e-14 -1.13437e-13 -1.1634e-13 -3.9942e-14 -5.52196e-14 -1.60131e-14 -7.99012e-14 -1.14589e-13 3.73232e-14 -3.10926e-15 1.58391e-13 -9.85305e-14 -7.98706e-14 1.21425e-14 8.34734e-15 8.41581e-14 -1.25445e-13 -1.77855e-14 -9.64742e-14 2.11265e-13 -6.23705e-14 6.20119e-14 -1.55166e-13 5.3136e-14 5.82484e-14 5.24573e-14 -1.01449e-13 6.95199e-14 -1.35313e-13 4.63845e-14 1.80825e-13 -4.19383e-14 1.53084e-13 4.19457e-14 1.7362e-14 6.3531e-15 8.04541e-15 1.43333e-13 1.42549e-13 4.76183e-14 1.10143e-13 1.08423e-13 -1.34335e-13 -2.91893e-14 -7.31715e-14 0 0 1.36486e-15 -6.72788e-16 -2.47207e-15 -3.86236e-15 -1.33099e-14 -1.2368e-14 -1.30695e-14 -1.39993e-14 -1.56028e-14 8.23585e-15 -2.02031e-15 -8.7168e-15 -4.25953e-15 4.48266e-15 -1.75103e-14 -1.23044e-15 -1.0776e-14 3.07847e-16 -1.21804e-14 -4.122e-14 1.48871e-14 -6.28965e-15 -2.66718e-16 -4.86742e-14 -2.52522e-14 -4.4226e-14 -1.79172e-14 -1.40991e-14 1.24954e-14 -6.70327e-14 3.13509e-14 -3.03504e-14 -4.37959e-14 -6.19975e-15 -6.9359e-14 -5.68706e-15 -1.34988e-14 4.88978e-14 -1.75498e-14 7.59999e-14 -2.0446e-14 8.51542e-16 -7.37281e-15 7.34252e-14 -2.98119e-14 -2.96996e-14 -3.10097e-14 1.29411e-14 8.20954e-15 -4.60982e-14 -2.1191e-14 -1.06556e-14 -5.44017e-14 -2.53964e-14 -3.93276e-14 -3.7838e-14 -2.04053e-14 -6.15111e-14 -5.48793e-14 2.55974e-15 -4.32008e-14 -2.26972e-14 -1.45444e-14 1.10828e-14 3.48777e-14 -6.01042e-15 -3.39423e-14 -3.5151e-14 -2.32096e-14 -8.49375e-15 -1.58336e-14 8.44388e-13 9.53255e-12 1.16226e-10 1.29264e-09 1.30239e-08 1.17998e-07 9.54414e-07 6.83315e-06 4.28566e-05 0.000232447 0.00107289 0.00413401 0.0130428 0.033308 0.069338 0.121183 0.185546 0.259255 0.340824 0.430084 0.527511 0.633686 0.748323 0.866716 0.964986 0.969857 0.943427 0.929631 0.92609 0.926588 0.926838 0.926934 0.926921 0.926836 0.926404 0.926168 0.925137 0.924925 0.922785 0.92276 0.917894 0.918219 0.905538 0.906899 0.874936 0.879261 0.811803 0.812207 0.698682 0.641851 0.505631 0.384676 0.253879 0.145553 0.0696959 0.0281676 0.0100622 0.0033435 0.00106424 0.000328438 9.86624e-05 2.88726e-05 8.22864e-06 2.28239e-06 6.15688e-07 1.61418e-07 4.11086e-08 1.01649e-08 2.44014e-09 5.68128e-10 1.28555e-10 2.78887e-11 5.77963e-12 1.05685e-12 -2.39712e-14 -5.81832e-14 6.79993e-15 -7.97249e-14 1.10303e-13 6.48067e-14 -1.22225e-14 1.78133e-14 -1.43572e-13 -2.055e-14 -1.23038e-13 -8.2067e-14 1.69751e-14 -2.17415e-13 -3.24771e-15 -7.14086e-14 7.23061e-14 -1.59319e-14 -9.95344e-15 7.23561e-14 -2.65005e-13 3.13638e-14 4.41287e-14 2.19743e-14 9.47196e-14 -2.16535e-13 8.65815e-14 -1.18038e-13 1.01372e-13 5.24822e-14 3.50459e-14 -2.14198e-14 -3.43498e-14 2.80143e-14 1.18056e-13 -1.75885e-13 1.90945e-13 -2.39388e-13 1.18299e-15 1.03949e-13 -1.02479e-14 1.8151e-13 1.08244e-13 6.74421e-15 2.29574e-14 1.18743e-13 1.74736e-15 2.26471e-13 1.05194e-13 4.57428e-14 3.4927e-13 -3.14778e-13 1.57909e-13 -7.31079e-14 0
				</DataArray>
				<DataArray Name="VitesseY" type="Float32" format="ascii">