<?xml version="1.0"?>
<VTKFile type="PolyData">
	<PolyData>
		<Piece NumberOfPoints="1206" NumberOfPolys="1000">
			<Points>
				<DataArray type="Float32" NumberOfComponents="3" format="ascii">
 0 0 0 0.005 0 0 0.01 0 0 0.015 0 0 0.02 0 0 0.025 0 0 0.03 0 0 0.035 0 0 0.04 0 0 0.045 0 0 0.05 0 0 0.055 0 0 0.06 0 0 0.065 0 0 0.07 0 0 0.075 0 0 0.08 0 0 0.085 0 0 0.09 0 0 0.095 0 0 0.1 0 0 0.105 0 0 0.11 0 0 0.115 0 0 0.12 0 0 0.125 0 0 0.13 0 0 0.135 0 0 0.14 0 0 0.145 0 0 0.15 0 0 0.155 0 0 0.16 0 0 0.165 0 0 0.17 0 0 0.175 0 0 0.18 0 0 0.185 0 0 0.19 0 0 0.195 0 0 0.2 0 0 0.205 0 0 0.21 0 0 0.215 0 0 0.22 0 0 0.225 0 0 0.23 0 0 0.235 0 0 0.24 0 0 0.245 0 0 0.25 0 0 0.255 0 0 0.26 0 0 0.265 0 0 0.27 0 0 0.275 0 0 0.28 0 0 0.285 0 0 0.29 0 0 0.295 0 0 0.3 0 0 0.305 0 0 0.31 0 0 0.315 0 0 0.32 0 0 0.325 0 0 0.33 0 0 0.335 0 0 0.340001 0 0 0.345003 0 0 0.35001 0 0 0.355029 0 0 0.360076 0 0 0.365175 0 0 0.370356 0 0 0.375652 0 0 0.381091 0 0 0.386699 0 0 0.392495 0 0 0.398499 0 0 0.404734 0 0 0.411221 0 0 0.417985 0 0 0.425055 0 0 0.432464 0 0 0.44025 0 0 0.448456 0 0 0.457135 0 0 0.466345 0 0 0.476155 0 0 0.486635 0 0 0.49784 0 0 0.509736 0 0 0.521988 0 0 0.534119 0 0 0.546097 0 0 0.55795 0 0 0.569733 0 0 0.581488 0 0 0.593235 0 0 0.604991 0 0 0.607602 0 0 0.61014 0 0 0.612631 0 0 0.615092 0 0 0.617532 0 0 0.619956 0 0 0.622371 0 0 0.624784 0 0 0.627197 0 0 0.629596 0 0 0.631983 0 0 0.634365 0 0 0.636744 0 0 0.639121 0 0 0.641495 0 0 0.643868 0 0 0.64624 0 0 0.64861 0 0 0.650976 0 0 0.653341 0 0 0.655705 0 0 0.65807 0 0 0.660436 0 0 0.662801 0 0 0.665166 0 0 0.667532 0 0 0.669896 0 0 0.672261 0 0 0.674634 0 0 0.677004 0 0 0.679372 0 0 0.681742 0 0 0.684129 0 0 0.686543 0 0 0.689038 0 0 0.6916 0 0 0.694299 0 0 0.697136 0 0 0.700211 0 0 0.703555 0 0 0.70724 0 0 0.711275 0 0 0.715647 0 0 0.720291 0 0 0.725118 0 0 0.730045 0 0 0.735016 0 0 0.740006 0 0 0.745002 0 0 0.750001 0 0 0.755 0 0 0.76 0 0 0.765 0 0 0.77 0 0 0.775 0 0 0.78 0 0 0.785 0 0 0.79 0 0 0.795 0 0 0.8 0 0 0.805 0 0 0.81 0 0 0.815 0 0 0.82 0 0 0.825 0 0 0.83 0 0 0.835 0 0 0.84 0 0 0.845 0 0 0.85 0 0 0.855 0 0 0.86 0 0 0.865 0 0 0.87 0 0 0.875 0 0 0.88 0 0 0.885 0 0 0.89 0 0 0.895 0 0 0.9 0 0 0.905 0 0 0.91 0 0 0.915 0 0 0.92 0 0 0.925 0 0 0.93 0 0 0.935 0 0 0.94 0 0 0.945 0 0 0.95 0 0 0.955 0 0 0.96 0 0 0.965 0 0 0.97 0 0 0.975 0 0 0.98 0 0 0.985 0 0 0.99 0 0 0.995 0 0 1 0 0 0 0.02 0 0.005 0.02 0 0.01 0.02 0 0.015 0.02 0 0.02 0.02 0 0.025 0.02 0 0.03 0.02 0 0.035 0.02 0 0.04 0.02 0 0.045 0.02 0 0.05 0.02 0 0.055 0.02 0 0.06 0.02 0 0.065 0.02 0 0.07 0.02 0 0.075 0.02 0 0.08 0.02 0 0.085 0.02 0 0.09 0.02 0 0.095 0.02 0 0.1 0.02 0 0.105 0.02 0 0.11 0.02 0 0.115 0.02 0 0.12 0.02 0 0.125 0.02 0 0.13 0.02 0 0.135 0.02 0 0.14 0.02 0 0.145 0.02 0 0.15 0.02 0 0.155 0.02 0 0.16 0.02 0 0.165 0.02 0 0.17 0.02 0 0.175 0.02 0 0.18 0.02 0 0.185 0.02 0 0.19 0.02 0 0.195 0.02 0 0.2 0.02 0 0.205 0.02 0 0.21 0.02 0 0.215 0.02 0 0.22 0.02 0 0.225 0.02 0 0.23 0.02 0 0.235 0.02 0 0.24 0.02 0 0.245 0.02 0 0.25 0.02 0 0.255 0.02 0 0.26 0.02 0 0.265 0.02 0 0.27 0.02 0 0.275 0.02 0 0.28 0.02 0 0.285 0.02 0 0.29 0.02 0 0.295 0.02 0 0.3 0.02 0 0.305 0.02 0 0.31 0.02 0 0.315 0.02 0 0.32 0.02 0 0.325 0.02 0 0.33 0.02 0 0.335 0.02 0 0.340001 0.02 0 0.345003 0.02 0 0.35001 0.02 0 0.355029 0.02 0 0.360076 0.02 0 0.365175 0.02 0 0.370356 0.02 0 0.375652 0.02 0 0.381091 0.02 0 0.386699 0.02 0 0.392495 0.02 0 0.398499 0.02 0 0.404734 0.02 0 0.411221 0.02 0 0.417985 0.02 0 0.425055 0.02 0 0.432464 0.02 0 0.44025 0.02 0 0.448456 0.02 0 0.457135 0.02 0 0.466345 0.02 0 0.476155 0.02 0 0.486635 0.02 0 0.49784 0.02 0 0.509736 0.02 0 0.521988 0.02 0 0.534119 0.02 0 0.546097 0.02 0 0.55795 0.02 0 0.569733 0.02 0 0.581488 0.02 0 0.593235 0.02 0 0.604991 0.02 0 0.607602 0.02 0 0.61014 0.02 0 0.612631 0.02 0 0.615092 0.02 0 0.617532 0.02 0 0.619956 0.02 0 0.622371 0.02 0 0.624784 0.02 0 0.627197 0.02 0 0.629596 0.02 0 0.631983 0.02 0 0.634365 0.02 0 0.636744 0.02 0 0.639121 0.02 0 0.641495 0.02 0 0.643868 0.02 0 0.64624 0.02 0 0.64861 0.02 0 0.650976 0.02 0 0.653341 0.02 0 0.655705 0.02 0 0.65807 0.02 0 0.660436 0.02 0 0.662801 0.02 0 0.665166 0.02 0 0.667532 0.02 0 0.669896 0.02 0 0.672261 0.02 0 0.674634 0.02 0 0.677004 0.02 0 0.679372 0.02 0 0.681742 0.02 0 0.684129 0.02 0 0.686543 0.02 0 0.689038 0.02 0 0.6916 0.02 0 0.694299 0.02 0 0.697136 0.02 0 0.700211 0.02 0 0.703555 0.02 0 0.70724 0.02 0 0.711275 0.02 0 0.715647 0.02 0 0.720291 0.02 0 0.725118 0.02 0 0.730045 0.02 0 0.735016 0.02 0 0.740006 0.02 0 0.745002 0.02 0 0.750001 0.02 0 0.755 0.02 0 0.76 0.02 0 0.765 0.02 0 0.77 0.02 0 0.775 0.02 0 0.78 0.02 0 0.785 0.02 0 0.79 0.02 0 0.795 0.02 0 0.8 0.02 0 0.805 0.02 0 0.81 0.02 0 0.815 0.02 0 0.82 0.02 0 0.825 0.02 0 0.83 0.02 0 0.835 0.02 0 0.84 0.02 0 0.845 0.02 0 0.85 0.02 0 0.855 0.02 0 0.86 0.02 0 0.865 0.02 0 0.87 0.02 0 0.875 0.02 0 0.88 0.02 0 0.885 0.02 0 0.89 0.02 0 0.895 0.02 0 0.9 0.02 0 0.905 0.02 0 0.91 0.02 0 0.915 0.02 0 0.92 0.02 0 0.925 0.02 0 0.93 0.02 0 0.935 0.02 0 0.94 0.02 0 0.945 0.02 0 0.95 0.02 0 0.955 0.02 0 0.96 0.02 0 0.965 0.02 0 0.97 0.02 0 0.975 0.02 0 0.98 0.02 0 0.985 0.02 0 0.99 0.02 0 0.995 0.02 0 1 0.02 0 0 0.04 0 0.005 0.04 0 0.01 0.04 0 0.015 0.04 0 0.02 0.04 0 0.025 0.04 0 0.03 0.04 0 0.035 0.04 0 0.04 0.04 0 0.045 0.04 0 0.05 0.04 0 0.055 0.04 0 0.06 0.04 0 0.065 0.04 0 0.07 0.04 0 0.075 0.04 0 0.08 0.04 0 0.085 0.04 0 0.09 0.04 0 0.095 0.04 0 0.1 0.04 0 0.105 0.04 0 0.11 0.04 0 0.115 0.04 0 0.12 0.04 0 0.125 0.04 0 0.13 0.04 0 0.135 0.04 0 0.14 0.04 0 0.145 0.04 0 0.15 0.04 0 0.155 0.04 0 0.16 0.04 0 0.165 0.04 0 0.17 0.04 0 0.175 0.04 0 0.18 0.04 0 0.185 0.04 0 0.19 0.04 0 0.195 0.04 0 0.2 0.04 0 0.205 0.04 0 0.21 0.04 0 0.215 0.04 0 0.22 0.04 0 0.225 0.04 0 0.23 0.04 0 0.235 0.04 0 0.24 0.04 0 0.245 0.04 0 0.25 0.04 0 0.255 0.04 0 0.26 0.04 0 0.265 0.04 0 0.27 0.04 0 0.275 0.04 0 0.28 0.04 0 0.285 0.04 0 0.29 0.04 0 0.295 0.04 0 0.3 0.04 0 0.305 0.04 0 0.31 0.04 0 0.315 0.04 0 0.32 0.04 0 0.325 0.04 0 0.33 0.04 0 0.335 0.04 0 0.340001 0.04 0 0.345003 0.04 0 0.35001 0.04 0 0.355029 0.04 0 0.360076 0.04 0 0.365175 0.04 0 0.370356 0.04 0 0.375652 0.04 0 0.381091 0.04 0 0.386699 0.04 0 0.392495 0.04 0 0.398499 0.04 0 0.404734 0.04 0 0.411221 0.04 0 0.417985 0.04 0 0.425055 0.04 0 0.432464 0.04 0 0.44025 0.04 0 0.448456 0.04 0 0.457135 0.04 0 0.466345 0.04 0 0.476155 0.04 0 0.486635 0.04 0 0.49784 0.04 0 0.509736 0.04 0 0.521988 0.04 0 0.534119 0.04 0 0.546097 0.04 0 0.55795 0.04 0 0.569733 0.04 0 0.581488 0.04 0 0.593235 0.04 0 0.604991 0.04 0 0.607602 0.04 0 0.61014 0.04 0 0.612631 0.04 0 0.615092 0.04 0 0.617532 0.04 0 0.619956 0.04 0 0.622371 0.04 0 0.624784 0.04 0 0.627197 0.04 0 0.629596 0.04 0 0.631983 0.04 0 0.634365 0.04 0 0.636744 0.04 0 0.639121 0.04 0 0.641495 0.04 0 0.643868 0.04 0 0.64624 0.04 0 0.64861 0.04 0 0.650976 0.04 0 0.653341 0.04 0 0.655705 0.04 0 0.65807 0.04 0 0.660436 0.04 0 0.662801 0.04 0 0.665166 0.04 0 0.667532 0.04 0 0.669896 0.04 0 0.672261 0.04 0 0.674634 0.04 0 0.677004 0.04 0 0.679372 0.04 0 0.681742 0.04 0 0.684129 0.04 0 0.686543 0.04 0 0.689038 0.04 0 0.6916 0.04 0 0.694299 0.04 0 0.697136 0.04 0 0.700211 0.04 0 0.703555 0.04 0 0.70724 0.04 0 0.711275 0.04 0 0.715647 0.04 0 0.720291 0.04 0 0.725118 0.04 0 0.730045 0.04 0 0.735016 0.04 0 0.740006 0.04 0 0.745002 0.04 0 0.750001 0.04 0 0.755 0.04 0 0.76 0.04 0 0.765 0.04 0 0.77 0.04 0 0.775 0.04 0 0.78 0.04 0 0.785 0.04 0 0.79 0.04 0 0.795 0.04 0 0.8 0.04 0 0.805 0.04 0 0.81 0.04 0 0.815 0.04 0 0.82 0.04 0 0.825 0.04 0 0.83 0.04 0 0.835 0.04 0 0.84 0.04 0 0.845 0.04 0 0.85 0.04 0 0.855 0.04 0 0.86 0.04 0 0.865 0.04 0 0.87 0.04 0 0.875 0.04 0 0.88 0.04 0 0.885 0.04 0 0.89 0.04 0 0.895 0.04 0 0.9 0.04 0 0.905 0.04 0 0.91 0.04 0 0.915 0.04 0 0.92 0.04 0 0.925 0.04 0 0.93 0.04 0 0.935 0.04 0 0.94 0.04 0 0.945 0.04 0 0.95 0.04 0 0.955 0.04 0 0.96 0.04 0 0.965 0.04 0 0.97 0.04 0 0.975 0.04 0 0.98 0.04 0 0.985 0.04 0 0.99 0.04 0 0.995 0.04 0 1 0.04 0 0 0.06 0 0.005 0.06 0 0.01 0.06 0 0.015 0.06 0 0.02 0.06 0 0.025 0.06 0 0.03 0.06 0 0.035 0.06 0 0.04 0.06 0 0.045 0.06 0 0.05 0.06 0 0.055 0.06 0 0.06 0.06 0 0.065 0.06 0 0.07 0.06 0 0.075 0.06 0 0.08 0.06 0 0.085 0.06 0 0.09 0.06 0 0.095 0.06 0 0.1 0.06 0 0.105 0.06 0 0.11 0.06 0 0.115 0.06 0 0.12 0.06 0 0.125 0.06 0 0.13 0.06 0 0.135 0.06 0 0.14 0.06 0 0.145 0.06 0 0.15 0.06 0 0.155 0.06 0 0.16 0.06 0 0.165 0.06 0 0.17 0.06 0 0.175 0.06 0 0.18 0.06 0 0.185 0.06 0 0.19 0.06 0 0.195 0.06 0 0.2 0.06 0 0.205 0.06 0 0.21 0.06 0 0.215 0.06 0 0.22 0.06 0 0.225 0.06 0 0.23 0.06 0 0.235 0.06 0 0.24 0.06 0 0.245 0.06 0 0.25 0.06 0 0.255 0.06 0 0.26 0.06 0 0.265 0.06 0 0.27 0.06 0 0.275 0.06 0 0.28 0.06 0 0.285 0.06 0 0.29 0.06 0 0.295 0.06 0 0.3 0.06 0 0.305 0.06 0 0.31 0.06 0 0.315 0.06 0 0.32 0.06 0 0.325 0.06 0 0.33 0.06 0 0.335 0.06 0 0.340001 0.06 0 0.345003 0.06 0 0.35001 0.06 0 0.355029 0.06 0 0.360076 0.06 0 0.365175 0.06 0 0.370356 0.06 0 0.375652 0.06 0 0.381091 0.06 0 0.386699 0.06 0 0.392495 0.06 0 0.398499 0.06 0 0.404734 0.06 0 0.411221 0.06 0 0.417985 0.06 0 0.425055 0.06 0 0.432464 0.06 0 0.44025 0.06 0 0.448456 0.06 0 0.457135 0.06 0 0.466345 0.06 0 0.476155 0.06 0 0.486635 0.06 0 0.49784 0.06 0 0.509736 0.06 0 0.521988 0.06 0 0.534119 0.06 0 0.546097 0.06 0 0.55795 0.06 0 0.569733 0.06 0 0.581488 0.06 0 0.593235 0.06 0 0.604991 0.06 0 0.607602 0.06 0 0.61014 0.06 0 0.612631 0.06 0 0.615092 0.06 0 0.617532 0.06 0 0.619956 0.06 0 0.622371 0.06 0 0.624784 0.06 0 0.627197 0.06 0 0.629596 0.06 0 0.631983 0.06 0 0.634365 0.06 0 0.636744 0.06 0 0.639121 0.06 0 0.641495 0.06 0 0.643868 0.06 0 0.64624 0.06 0 0.64861 0.06 0 0.650976 0.06 0 0.653341 0.06 0 0.655705 0.06 0 0.65807 0.06 0 0.660436 0.06 0 0.662801 0.06 0 0.665166 0.06 0 0.667532 0.06 0 0.669896 0.06 0 0.672261 0.06 0 0.674634 0.06 0 0.677004 0.06 0 0.679372 0.06 0 0.681742 0.06 0 0.684129 0.06 0 0.686543 0.06 0 0.689038 0.06 0 0.6916 0.06 0 0.694299 0.06 0 0.697136 0.06 0 0.700211 0.06 0 0.703555 0.06 0 0.70724 0.06 0 0.711275 0.06 0 0.715647 0.06 0 0.720291 0.06 0 
[...]
			<PointData Scalars="VitesseX">
				<DataArray Name="VitesseX" type="Float32" format="ascii">
 0 -3.35067e-15 -4.78685e-17 3.02169e-15 -1.99665e-15 -1.37001e-15 -3.42975e-15 6.09458e-15 -6.99738e-16 5.86673e-15 -1.48722e-15 -6.43265e-15 7.94154e-15 -4.13098e-15 1.2421e-14 -3.20519e-15 1.01786e-14 9.46253e-15 5.40563e-15 -1.0236e-14 -2.75785e-15 1.33317e-14 -1.26216e-14 1.52513e-14 9.58618e-15 2.366e-14 -2.01004e-14 2.84045e-14 6.79574e-15 -6.6587e-15 -4.80482e-15 2.61629e-14 1.51475e-14 1.3476e-14 -7.75252e-15 1.94772e-15 2.13725e-14 2.24611e-14 4.08838e-15 -1.61732e-14 -1.67342e-14 2.15792e-14 1.95905e-14 2.85844e-14 -7.05933e-15 -2.4063e-14 4.38475e-14 -1.78432e-14 2.80152e-14 -2.06255e-14 7.30091e-15 3.65131e-14 3.58331e-14 -1.99849e-14 -3.94688e-14 1.12134e-13 1.37563e-13 8.67146e-13 7.95626e-12 6.28966e-11 4.66723e-10 3.22978e-09 2.08053e-08 1.24304e-07 6.8599e-07 3.4803e-06 1.61422e-05 6.79959e-05 0.000258059 0.000874094 0.00261428 0.00683142 0.0154826 0.0304366 0.0524469 0.0807992 0.114002 0.150694 0.190027 0.2316 0.275273 0.321045 0.368991 0.419234 0.47193 0.527261 0.585414 0.646551 0.710727 0.777667 0.84614 0.911969 0.961682 0.964232 0.950183 0.938806 0.932048 0.928968 0.92775 0.927222 0.926779 0.926588 0.926409 0.926252 0.926126 0.926037 0.925983 0.925957 0.925949 0.925959 0.925979 0.926001 0.926032 0.926112 0.926377 0.926761 0.926539 0.926368 0.92605 0.925771 0.925508 0.92539 0.92537 0.925328 0.924998 0.924279 0.923915 0.923617 0.92516 0.925919 0.926129 0.922513 0.911344 0.914813 0.883487 0.880694 0.811349 0.803334 0.69515 0.634554 0.506823 0.390141 0.265501 0.159241 0.0816193 0.0360551 0.0142881 0.00533185 0.00193308 0.000690636 0.00024438 8.57476e-05 2.98262e-05 1.02766e-05 3.50406e-06 1.18128e-06 3.93382e-07 1.29302e-07 4.19196e-08 1.33961e-08 4.21754e-09 1.30744e-09 3.98955e-10 1.19882e-10 3.55702e-11 1.02483e-11 2.97916e-12 1.04325e-12 2.26861e-13 -1.15971e-14 -2.62195e-14 6.72004e-14 -6.87889e-14 -5.55991e-15 -9.00859e-14 -1.17788e-13 1.35533e-13 -1.45e-13 3.066e-14 -1.80969e-15 -4.2713e-14 -6.01611e-14 -5.83285e-14 -5.66765e-15 -1.94073e-13 -1.7396e-14 1.03153e-13 -7.87955e-14 -4.85035e-14 -8.08475e-14 -2.84139e-14 -8.5954e-14 -9.23326e-14 5.19306e-14 -7.07121e-14 -1.00207e-13 -1.42212e-14 1.01649e-13 6.63956e-14 -1.04572e-13 0 0 1.49998e-15 -1.40245e-15 -1.92266e-15 1.36461e-15 -2.75526e-15 3.25924e-15 5.84615e-16 7.41337e-15 -6.75211e-15 4.12766e-15 8.41712e-16 -5.51376e-15 8.34857e-15 -5.07322e-15 9.37791e-15 6.81758e-16 5.91412e-15 1.66884e-15 2.32808e-15 4.63707e-15 6.53718e-15 2.34627e-15 1.61147e-15 9.4771e-15 1.88472e-14 2.44686e-14 -1.93916e-14 4.23027e-15 6.29399e-15 1.68139e-14 -2.23087e-14 2.52355e-14 2.11888e-14 -1.05872e-14 1.91369e-14 6.12906e-15 -1.34337e-15 2.54782e-14 -2.42381e-14 3.70464e-14 -1.81688e-14 1.61945e-14 1.21023e-14 1.90745e-15 4.90815e-15 3.04719e-15 1.0703e-14 2.10567e-15 1.68675e-14 -9.12269e-15 3.74e-14 3.41006e-14 -2.14026e-14 2.95565e-14 6.00435e-14 1.73981e-13 8.40783e-13 7.94574e-12 6.29456e-11 4.66661e-10 3.22977e-09 2.08052e-08 1.24304e-07 6.8599e-07 3.4803e-06 1.61422e-05 6.79959e-05 0.000258059 0.000874094 0.00261428 0.00683142 0.0154826 0.0304366 0.0524469 0.0807992 0.114002 0.150694 0.190027 0.2316 0.275273 0.321045 0.368991 0.419234 0.47193 0.527261 0.585414 0.646551 0.710727 0.777667 0.84614 0.911969 0.961682 0.964232 0.950183 0.938806 0.932048 0.928968 0.92775 0.927222 0.926779 0.926588 0.926409 0.926252 0.926126 0.926037 0.925983 0.925957 0.925949 0.925959 0.925979 0.926001 0.926032 0.926112 0.926377 0.926761 0.926539 0.926368 0.92605 0.925771 0.925508 0.92539 0.92537 0.925328 0.924998 0.924279 0.923915 0.923617 0.92516 0.925919 0.926129 0.922513 0.911344 0.914813 0.883487 0.880694 0.811349 0.803334 0.69515 0.634554 0.506823 0.390141 0.265501 0.159241 0.0816193 0.0360551 0.0142881 0.00533185 0.00193308 0.000690636 0.00024438 8.57476e-05 2.98262e-05 1.02766e-05 3.50406e-06 1.18128e-06 3.93382e-07 1.29302e-07 4.19196e-08 1.3396e-08 4.21749e-09 1.3075e-09 3.99085e-10 1.19842e-10 3.54338e-11 1.04092e-11 2.95485e-12 8.9418e-13 1.65618e-13 -1.10371e-14 7.24425e-14 6.90608e-14 -9.98437e-14 1.62029e-14 -2.33144e-14 -1.13391e-13 -7.52326e-14 1.40567e-13 -1.28715e-13 3.44615e-14 4.12754e-14 -7.26018e-14 -7.96183e-14 -3.56732e-14 -1.3185e-13 1.70592e-14 8.7762e-14 -1.15002e-13 -1.03875e-13 -3.4078e-14 -9.04044e-15 -8.96036e-14 6.48546e-16 -8.74607e-14 -5.66921e-14 1.6e-15 -4.15022e-14 6.51384e-14 3.28441e-14 4.77378e-14 0 0 1.28878e-15 1.19657e-15 6.89021e-16 -2.44188e-15 1.68887e-15 -1.57213e-15 4.1598e-16 7.61943e-15 -5.56458e-16 -3.4782e-15 3.42827e-15 -6.93075e-15 3.62772e-15 -8.3694e-15 1.25473e-14 -2.07376e-15 -5.22498e-15 1.62204e-14 1.33998e-14 -5.84958e-15 2.22209e-15 1.23185e-14 6.09307e-15 6.8473e-15 2.33752e-14 1.40073e-14 -1.71738e-14 1.21798e-15 -1.10279e-15 1.13736e-14 -2.24337e-14 3.37803e-14 2.12274e-14 -3.95533e-15 2.09437e-14 -1.35635e-15 -5.82242e-15 2.97612e-14 1.9875e-16 3.50566e-15 -2.30714e-14 5.35884e-14 -1.80763e-14 -3.59455e-14 2.25107e-14 -1.83251e-14 3.87276e-14 3.06929e-14 2.85518e-14 -9.8681e-15 9.42556e-15 2.57037e-15 4.47556e-14 2.64545e-14 1.36515e-13 1.36945e-13 8.39651e-13 7.91381e-12 6.29954e-11 4.66592e-10 3.22969e-09 2.08053e-08 1.24304e-07 6.8599e-07 3.4803e-06 1.61422e-05 6.79959e-05 0.000258059 0.000874094 0.00261428 0.00683142 0.0154826 0.0304366 0.0524469 0.0807992 0.114002 0.150694 0.190027 0.2316 0.275273 0.321045 0.368991 0.419234 0.47193 0.527261 0.585414 0.646551 0.710727 0.777667 0.84614 0.911969 0.961682 0.964232 0.950183 0.938806 0.932048 0.928968 0.92775 0.927222 0.926779 0.926588 0.926409 0.926252 0.926126 0.926037 0.925983 0.925957 0.925949 0.925959 0.925979 0.926001 0.926032 0.926112 0.926377 0.926761 0.926539 0.926368 0.92605 0.925771 0.925508 0.92539 0.92537 0.925328 0.924998 0.924279 0.923915 0.923617 0.92516 0.925919 0.926129 0.922513 0.911344 0.914813 0.883487 0.880694 0.811349 0.803334 0.69515 0.634554 0.506823 0.390141 0.265501 0.159241 0.0816193 0.0360551 0.0142881 0.00533185 0.00193308 0.000690636 0.00024438 8.57476e-05 2.98262e-05 1.02766e-05 3.50406e-06 1.18128e-06 3.93382e-07 1.29302e-07 4.19197e-08 1.3396e-08 4.21753e-09 1.30751e-09 3.99148e-10 1.19832e-10 3.54216e-11 1.02963e-11 3.04226e-12 7.76039e-13 9.32836e-14 -1.94446e-14 1.18608e-13 7.34674e-14 -9.30809e-14 -3.65367e-14 6.41553e-14 -1.14832e-13 -1.74499e-13 -1.82848e-14 4.41237e-14 1.54882e-13 -3.96742e-14 5.74054e-14 -1.14328e-13 -1.15448e-13 1.06036e-13 -1.02385e-13 -2.65768e-14 -6.31827e-14 4.08084e-15 -5.20188e-14 -9.84575e-14 1.78788e-14 2.90841e-14 -6.27599e-14 -6.85643e-14 -1.53928e-14 -2.12673e-14 5.04779e-14 3.77725e-14 6.53513e-14 0 0 -4.09136e-16 2.92498e-15 4.2691e-15 -2.67481e-15 3.69862e-15 -6.14049e-15 2.99776e-15 -7.06366e-15 8.15323e-16 -2.23642e-15 -3.12249e-15 2.09098e-15 -9.86661e-15 1.09903e-14 7.22707e-16 1.12404e-14 4.12273e-15 9.78036e-15 -6.5499e-15 -1.24054e-14 1.5537e-14 4.04321e-14 1.23132e-14 -7.39839e-15 7.24836e-15 -1.24085e-14 7.87963e-15 6.22719e-15 -1.24646e-14 -2.16346e-14 1.67721e-14 3.47723e-14 2.54988e-14 -1.22244e-14 4.43886e-15 3.9786e-14 2.18891e-14 -2.58791e-15 -4.05548e-14 -2.25527e-14 4.50329e-14 -2.74857e-15 1.38088e-14 -2.78822e-14 -2.68986e-14 2.3758e-14 1.84629e-14 3.11601e-14 4.68915e-15 5.03571e-14 4.71621e-15 -1.92264e-14 6.46977e-14 1.56724e-14 2.4983e-13 7.32927e-14 8.89448e-13 7.89227e-12 6.29477e-11 4.66597e-10 3.22959e-09 2.08054e-08 1.24304e-07 6.8599e-07 3.4803e-06 1.61422e-05 6.79959e-05 0.000258059 0.000874094 0.00261428 0.00683142 0.0154826 0.0304366 0.0524469 0.0807992 0.114002 0.150694 0.190027 0.2316 0.275273 0.321045 0.368991 0.419234 0.47193 0.527261 0.585414 0.646551 0.710727 0.777667 0.84614 0.911969 0.961682 0.964232 0.950183 0.938806 0.932048 0.928968 0.92775 0.927222 0.926779 0.926588 0.926409 0.926252 0.926126 0.926037 0.925983 0.925957 0.925949 0.925959 0.925979 0.926001 0.926032 0.926112 0.926377 0.926761 0.926539 0.926368 0.92605 0.925771 0.925508 0.92539 0.92537 0.925328 0.924998 0.924279 0.923915 0.923617 0.92516 0.925919 0.926129 0.922513 0.911344 0.914813 0.883487 0.880694 0.811349 0.803334 0.69515 0.634554 0.506823 0.390141 0.265501 0.159241 0.0816193 0.0360551 0.0142881 0.00533185 0.00193308 0.000690636 0.00024438 8.57476e-05 2.98262e-05 1.02766e-05 3.50406e-06 1.18128e-06 3.93382e-07 1.29302e-07 4.19196e-08 1.33963e-08 4.21754e-09 1.30757e-09 3.99036e-10 1.19811e-10 3.55614e-11 1.02487e-11 2.90651e-12 7.98369e-13 1.30924e-13 2.01061e-14 1.68434e-13 -1.84388e-14 -1.57837e-13 -4.44764e-14 3.4326e-14 4.4068e-14 -8.94116e-16 -1.75036e-13 1.3023e-13 -2.08402e-14 -3.65858e-14 1.16402e-14 -6.41952e-14 -2.25072e-14 9.42145e-14 -1.72701e-13 3.51951e-14 -5.45188e-14 1.07785e-13 -2.56787e-13 -5.9255e-14 -3.13671e-14 8.20893e-14 8.36441e-14 2.67382e-14 -5.94424e-14 5.0651e-14 -4.96319e-14 -9.60605e-14 -7.59995e-14 0 0 8.2854e-16 -2.36797e-15 2.92301e-16 1.77494e-15 -2.6429e-15 -8.21681e-16 -3.79914e-15 -8.48479e-15 -7.71067e-15 5.65064e-15 2.68827e-15 -9.86268e-16 2.11254e-15 1.59909e-15 -5.48269e-15 2.4043e-15 1.23955e-14 -5.61042e-15 6.33759e-15 1.78868e-14 9.66719e-15 6.25399e-14 -1.34811e-14 3.76632e-15 -1.6929e-14 8.2421e-15 -1.68063e-14 1.73607e-15 -2.35509e-14 -7.92646e-15 1.49717e-14 2.55664e-14 1.90072e-14 -1.64114e-14 2.88576e-15 2.5471e-14 2.25686e-14 8.68059e-15 -4.63515e-14 2.00431e-14 5.16741e-14 -2.32681e-15 -1.94575e-15 -2.42531e-14 -2.6441e-14 2.95646e-14 1.41826e-15 -2.13555e-14 2.4391e-14 3.43439e-14 1.84802e-14 2.91984e-14 8.3876e-14 1.97853e-14 1.43957e-13 1.61703e-13 8.97369e-13 7.87648e-12 6.28413e-11 4.66662e-10 3.2296e-09 2.08054e-08 1.24304e-07 6.8599e-07 3.4803e-06 1.61422e-05 6.79959e-05 0.000258059 0.000874094 0.00261428 0.00683142 0.0154826 0.0304366 0.0524469 0.0807992 0.114002 0.150694 0.190027 0.2316 0.275273 0.321045 0.368991 0.419234 0.47193 0.527261 0.585414 0.646551 0.710727 0.777667 0.84614 0.911969 0.961682 0.964232 0.950183 0.938806 0.932048 0.928968 0.92775 0.927222 0.926779 0.926588 0.926409 0.926252 0.926126 0.926037 0.925983 0.925957 0.925949 0.925959 0.925979 0.926001 0.926032 0.926112 0.926377 0.926761 0.926539 0.926368 0.92605 0.925771 0.925508 0.92539 0.92537 0.925328 0.924998 0.924279 0.923915 0.923617 0.92516 0.925919 0.926129 0.922513 0.911344 0.914813 0.883487 0.880694 0.811349 0.803334 0.69515 0.634554 0.506823 0.390141 0.265501 0.159241 0.0816193 0.0360551 0.0142881 0.00533185 0.00193308 0.000690636 0.00024438 8.57476e-05 2.98262e-05 1.02766e-05 3.50406e-06 1.18128e-06 3.93382e-07 1.29302e-07 4.19197e-08 1.33963e-08 4.2175e-09 1.30765e-09 3.98921e-10 1.19907e-10 3.54367e-11 1.03643e-11 2.85338e-12 7.20719e-13 1.63373e-13 2.54136e-13 6.17959e-14 -1.1519e-13 -1.89953e-13 -4.5461e-14 2.75632e-14 1.37228e-13 1.60027e-13 3.03364e-14 -5.19161e-14 -6.37593e-14 -6.1921e-14 -2.81888e-13 -6.74138e-14 5.78238e-14 4.96944e-14 1.81829e-14 1.97161e-13 -1.41868e-13 -1.78789e-14 -1.66144e-13 5.40391e-15 -1.56277e-13 6.85142e-14 1.40705e-13 6.1992e-14 -8.96451e-15 3.00028e-14 -5.64357e-14 -3.66044e-14 -1.19838e-13 0 0 -1.29773e-15 -5.43572e-15 2.91456e-16 -7.10108e-16 -5.16478e-15 -2.45487e-15 -7.83648e-15 -3.12989e-15 1.20604e-15 -9.24806e-16 1.0362e-14 -1.04691e-15 1.03856e-14 -1.29537e-14 -9.2771e-15 -1.30046e-14 3.72991e-15 3.72717e-15 3.76824e-14 3.68532e-14 -7.03815e-15 5.15384e-14 -2.73742e-14 2.6656e-14 -1.56389e-14 2.78355e-16 -1.65317e-14 -8.21105e-15 -4.36248e-14 1.17309e-14 2.23123e-14 1.38254e-14 5.69987e-16 -2.86281e-15 2.45505e-15 -2.22282e-14 1.4862e-14 3.51914e-14 2.11071e-14 1.37591e-15 2.50566e-14 9.52217e-14 -6.32818e-14 -7.55069e-14 1.20572e-14 1.27161e-14 4.1169e-15 -1.98416e-14 4.21467e-14 -2.62163e-14 8.09216e-15 6.96222e-14 1.50688e-13 -3.74471e-14 5.33308e-14 2.4031e-13 8.80723e-13 7.86081e-12 6.27835e-11 4.66714e-10 3.22963e-09 2.08054e-08 1.24304e-07 6.8599e-07 3.4803e-06 1.61422e-05 6.79959e-05 0.000258059 0.000874094 0.00261428 0.00683142 0.0154826 0.0304366 0.0524469 0.0807992 0.114002 0.150694 0.190027 0.2316 0.275273 0.321045 0.368991 0.419234 0.47193 0.527261 0.585414 0.646551 0.710727 0.777667 0.84614 0.911969 0.961682 0.964232 0.950183 0.938806 0.932048 0.928968 0.92775 0.927222 0.926779 0.926588 0.926409 0.926252 0.926126 0.926037 0.925983 0.925957 0.925949 0.925959 0.925979 0.926001 0.926032 0.926112 0.926377 0.926761 0.926539 0.926368 0.92605 0.925771 0.925508 0.92539 0.92537 0.925328 0.924998 0.924279 0.923915 0.923617 0.92516 0.925919 0.926129 0.922513 0.911344 0.914813 0.883487 0.880694 0.811349 0.803334 0.69515 0.634554 0.506823 0.390141 0.265501 0.159241 0.0816193 0.0360551 0.0142881 0.00533185 0.00193308 0.000690636 0.00024438 8.57476e-05 2.98262e-05 1.02766e-05 3.50406e-06 1.18128e-06 3.93382e-07 1.29302e-07 4.19198e-08 1.33962e-08 4.21752e-09 1.30763e-09 3.98852e-10 1.20053e-10 3.52957e-11 1.0253e-11 3.04782e-12 6.51841e-13 1.46799e-13 4.39248e-13 -1.4717e-13 -1.17735e-13 -1.19673e-13 -1.13095e-13 7.07747e-14 6.52144e-14 2.58939e-13 -5.18169e-14 1.225e-14 1.53456e-13 -2.55235e-13 -3.87243e-13 -1.34283e-13 -4.57216e-15 1.93265e-13 1.26171e-13 1.99318e-13 -1.49101e-13 -8.41919e-14 6.40893e-14 -7.80577e-14 -1.20848e-13 -6.31269e-14 2.15127e-13 -2.3893e-14 -3.32007e-14 -1.50665e-14 5.86828e-14 1.94831e-13 -1.57448e-13 0
				</DataArray>
				<DataArray Name="VitesseY" type="Float32" format="ascii">