<?xml version="1.0"?>
<VTKFile type="PolyData">
	<PolyData>
		<Piece NumberOfPoints="1206" NumberOfPolys="1000">
			<Points>
				<DataArray type="Float32" NumberOfComponents="3" format="ascii">
 0 0 0 0.005 0 0 0.01 0 0 0.015 0 0 0.02 0 0 0.025 0 0 0.03 0 0 0.035 0 0 0.04 0 0 0.045 0 0 0.05 0 0 0.055 0 0 0.06 0 0 0.065 0 0 0.07 0 0 0.075 0 0 0.08 0 0 0.085 0 0 0.09 0 0 0.095 0 0 0.1 0 0 0.105 0 0 0.11 0 0 0.115 0 0 0.12 0 0 0.125 0 0 0.13 0 0 0.135 0 0 0.14 0 0 0.145 0 0 0.15 0 0 0.155 0 0 0.16 0 0 0.165 0 0 0.17 0 0 0.175 0 0 0.18 0 0 0.185 0 0 0.19 0 0 0.195 0 0 0.2 0 0 0.205 0 0 0.21 0 0 0.215 0 0 0.22 0 0 0.225 0 0 0.23 0 0 0.235 0 0 0.24 0 0 0.245 0 0 0.250001 0 0 0.255002 0 0 0.260007 0 0 0.265017 0 0 0.27004 0 0 0.275087 0 0 0.28017 0 0 0.285307 0 0 0.290512 0 0 0.2958 0 0 0.30118 0 0 0.306663 0 0 0.312256 0 0 0.317966 0 0 0.323799 0 0 0.329764 0 0 0.335867 0 0 0.342117 0 0 0.348522 0 0 0.355091 0 0 0.361833 0 0 0.368761 0 0 0.375885 0 0 0.383218 0 0 0.390774 0 0 0.398568 0 0 0.406618 0 0 0.414943 0 0 0.423563 0 0 0.432501 0 0 0.441783 0 0 0.451436 0 0 0.461491 0 0 0.471978 0 0 0.482924 0 0 0.494342 0 0 0.506196 0 0 0.51832 0 0 0.530419 0 0 0.542427 0 0 0.554342 0 0 0.56618 0 0 0.577964 0 0 0.589718 0 0 0.601457 0 0 0.613188 0 0 0.624917 0 0 0.636646 0 0 0.648374 0 0 0.660105 0 0 0.671848 0 0 0.674457 0 0 0.676993 0 0 0.679483 0 0 0.681943 0 0 0.684381 0 0 0.686804 0 0 0.689218 0 0 0.69163 0 0 0.694042 0 0 0.69644 0 0 0.698826 0 0 0.701207 0 0 0.703585 0 0 0.705961 0 0 0.708333 0 0 0.710703 0 0 0.713073 0 0 0.71544 0 0 0.717804 0 0 0.720167 0 0 0.722529 0 0 0.724891 0 0 0.727255 0 0 0.729617 0 0 0.731979 0 0 0.734341 0 0 0.736702 0 0 0.739064 0 0 0.741428 0 0 0.743792 0 0 0.746154 0 0 0.748516 0 0 0.750878 0 0 0.753239 0 0 0.7556 0 0 0.757962 0 0 0.760325 0 0 0.762686 0 0 0.765047 0 0 0.767408 0 0 0.769768 0 0 0.772129 0 0 0.774491 0 0 0.776853 0 0 0.779214 0 0 0.781575 0 0 0.783937 0 0 0.786298 0 0 0.788663 0 0 0.791027 0 0 0.793388 0 0 0.79575 0 0 0.79811 0 0 0.800471 0 0 0.802834 0 0 0.805198 0 0 0.807569 0 0 0.80995 0 0 0.812354 0 0 0.814808 0 0 0.817335 0 0 0.819986 0 0 0.822775 0 0 0.825774 0 0 0.829028 0 0 0.832607 0 0 0.836535 0 0 0.84081 0 0 0.845379 0 0 0.850159 0 0 0.855062 0 0 0.860023 0 0 0.865008 0 0 0.870003 0 0 0.875001 0 0 0.88 0 0 0.885 0 0 0.89 0 0 0.895 0 0 0.9 0 0 0.905 0 0 0.91 0 0 0.915 0 0 0.92 0 0 0.925 0 0 0.93 0 0 0.935 0 0 0.94 0 0 0.945 0 0 0.95 0 0 0.955 0 0 0.96 0 0 0.965 0 0 0.97 0 0 0.975 0 0 0.98 0 0 0.985 0 0 0.99 0 0 0.995 0 0 1 0 0 0 0.02 0 0.005 0.02 0 0.01 0.02 0 0.015 0.02 0 0.02 0.02 0 0.025 0.02 0 0.03 0.02 0 0.035 0.02 0 0.04 0.02 0 0.045 0.02 0 0.05 0.02 0 0.055 0.02 0 0.06 0.02 0 0.065 0.02 0 0.07 0.02 0 0.075 0.02 0 0.08 0.02 0 0.085 0.02 0 0.09 0.02 0 0.095 0.02 0 0.1 0.02 0 0.105 0.02 0 0.11 0.02 0 0.115 0.02 0 0.12 0.02 0 0.125 0.02 0 0.13 0.02 0 0.135 0.02 0 0.14 0.02 0 0.145 0.02 0 0.15 0.02 0 0.155 0.02 0 0.16 0.02 0 0.165 0.02 0 0.17 0.02 0 0.175 0.02 0 0.18 0.02 0 0.185 0.02 0 0.19 0.02 0 0.195 0.02 0 0.2 0.02 0 0.205 0.02 0 0.21 0.02 0 0.215 0.02 0 0.22 0.02 0 0.225 0.02 0 0.23 0.02 0 0.235 0.02 0 0.24 0.02 0 0.245 0.02 0 0.250001 0.02 0 0.255002 0.02 0 0.260007 0.02 0 0.265017 0.02 0 0.27004 0.02 0 0.275087 0.02 0 0.28017 0.02 0 0.285307 0.02 0 0.290512 0.02 0 0.2958 0.02 0 0.30118 0.02 0 0.306663 0.02 0 0.312256 0.02 0 0.317966 0.02 0 0.323799 0.02 0 0.329764 0.02 0 0.335867 0.02 0 0.342117 0.02 0 0.348522 0.02 0 0.355091 0.02 0 0.361833 0.02 0 0.368761 0.02 0 0.375885 0.02 0 0.383218 0.02 0 0.390774 0.02 0 0.398568 0.02 0 0.406618 0.02 0 0.414943 0.02 0 0.423563 0.02 0 0.432501 0.02 0 0.441783 0.02 0 0.451436 0.02 0 0.461491 0.02 0 0.471978 0.02 0 0.482924 0.02 0 0.494342 0.02 0 0.506196 0.02 0 0.51832 0.02 0 0.530419 0.02 0 0.542427 0.02 0 0.554342 0.02 0 0.56618 0.02 0 0.577964 0.02 0 0.589718 0.02 0 0.601457 0.02 0 0.613188 0.02 0 0.624917 0.02 0 0.636646 0.02 0 0.648374 0.02 0 0.660105 0.02 0 0.671848 0.02 0 0.674457 0.02 0 0.676993 0.02 0 0.679483 0.02 0 0.681943 0.02 0 0.684381 0.02 0 0.686804 0.02 0 0.689218 0.02 0 0.69163 0.02 0 0.694042 0.02 0 0.69644 0.02 0 0.698826 0.02 0 0.701207 0.02 0 0.703585 0.02 0 0.705961 0.02 0 0.708333 0.02 0 0.710703 0.02 0 0.713073 0.02 0 0.71544 0.02 0 0.717804 0.02 0 0.720167 0.02 0 0.722529 0.02 0 0.724891 0.02 0 0.727255 0.02 0 0.729617 0.02 0 0.731979 0.02 0 0.734341 0.02 0 0.736702 0.02 0 0.739064 0.02 0 0.741428 0.02 0 0.743792 0.02 0 0.746154 0.02 0 0.748516 0.02 0 0.750878 0.02 0 0.753239 0.02 0 0.7556 0.02 0 0.757962 0.02 0 0.760325 0.02 0 0.762686 0.02 0 0.765047 0.02 0 0.767408 0.02 0 0.769768 0.02 0 0.772129 0.02 0 0.774491 0.02 0 0.776853 0.02 0 0.779214 0.02 0 0.781575 0.02 0 0.783937 0.02 0 0.786298 0.02 0 0.788663 0.02 0 0.791027 0.02 0 0.793388 0.02 0 0.79575 0.02 0 0.79811 0.02 0 0.800471 0.02 0 0.802834 0.02 0 0.805198 0.02 0 0.807569 0.02 0 0.80995 0.02 0 0.812354 0.02 0 0.814808 0.02 0 0.817335 0.02 0 0.819986 0.02 0 0.822775 0.02 0 0.825774 0.02 0 0.829028 0.02 0 0.832607 0.02 0 0.836535 0.02 0 0.84081 0.02 0 0.845379 0.02 0 0.850159 0.02 0 0.855062 0.02 0 0.860023 0.02 0 0.865008 0.02 0 0.870003 0.02 0 0.875001 0.02 0 0.88 0.02 0 0.885 0.02 0 0.89 0.02 0 0.895 0.02 0 0.9 0.02 0 0.905 0.02 0 0.91 0.02 0 0.915 0.02 0 0.92 0.02 0 0.925 0.02 0 0.93 0.02 0 0.935 0.02 0 0.94 0.02 0 0.945 0.02 0 0.95 0.02 0 0.955 0.02 0 0.96 0.02 0 0.965 0.02 0 0.97 0.02 0 0.975 0.02 0 0.98 0.02 0 0.985 0.02 0 0.99 0.02 0 0.995 0.02 0 1 0.02 0 0 0.04 0 0.005 0.04 0 0.01 0.04 0 0.015 0.04 0 0.02 0.04 0 0.025 0.04 0 0.03 0.04 0 0.035 0.04 0 0.04 0.04 0 0.045 0.04 0 0.05 0.04 0 0.055 0.04 0 0.06 0.04 0 0.065 0.04 0 0.07 0.04 0 0.075 0.04 0 0.08 0.04 0 0.085 0.04 0 0.09 0.04 0 0.095 0.04 0 0.1 0.04 0 0.105 0.04 0 0.11 0.04 0 0.115 0.04 0 0.12 0.04 0 0.125 0.04 0 0.13 0.04 0 0.135 0.04 0 0.14 0.04 0 0.145 0.04 0 0.15 0.04 0 0.155 0.04 0 0.16 0.04 0 0.165 0.04 0 0.17 0.04 0 0.175 0.04 0 0.18 0.04 0 0.185 0.04 0 0.19 0.04 0 0.195 0.04 0 0.2 0.04 0 0.205 0.04 0 0.21 0.04 0 0.215 0.04 0 0.22 0.04 0 0.225 0.04 0 0.23 0.04 0 0.235 0.04 0 0.24 0.04 0 0.245 0.04 0 0.250001 0.04 0 0.255002 0.04 0 0.260007 0.04 0 0.265017 0.04 0 0.27004 0.04 0 0.275087 0.04 0 0.28017 0.04 0 0.285307 0.04 0 0.290512 0.04 0 0.2958 0.04 0 0.30118 0.04 0 0.306663 0.04 0 0.312256 0.04 0 0.317966 0.04 0 0.323799 0.04 0 0.329764 0.04 0 0.335867 0.04 0 0.342117 0.04 0 0.348522 0.04 0 0.355091 0.04 0 0.361833 0.04 0 0.368761 0.04 0 0.375885 0.04 0 0.383218 0.04 0 0.390774 0.04 0 0.398568 0.04 0 0.406618 0.04 0 0.414943 0.04 0 0.423563 0.04 0 0.432501 0.04 0 0.441783 0.04 0 0.451436 0.04 0 0.461491 0.04 0 0.471978 0.04 0 0.482924 0.04 0 0.494342 0.04 0 0.506196 0.04 0 0.51832 0.04 0 0.530419 0.04 0 0.542427 0.04 0 0.554342 0.04 0 0.56618 0.04 0 0.577964 0.04 0 0.589718 0.04 0 0.601457 0.04 0 0.613188 0.04 0 0.624917 0.04 0 0.636646 0.04 0 0.648374 0.04 0 0.660105 0.04 0 0.671848 0.04 0 0.674457 0.04 0 0.676993 0.04 0 0.679483 0.04 0 0.681943 0.04 0 0.684381 0.04 0 0.686804 0.04 0 0.689218 0.04 0 0.69163 0.04 0 0.694042 0.04 0 0.69644 0.04 0 0.698826 0.04 0 0.701207 0.04 0 0.703585 0.04 0 0.705961 0.04 0 0.708333 0.04 0 0.710703 0.04 0 0.713073 0.04 0 0.71544 0.04 0 0.717804 0.04 0 0.720167 0.04 0 0.722529 0.04 0 0.724891 0.04 0 0.727255 0.04 0 0.729617 0.04 0 0.731979 0.04 0 0.734341 0.04 0 0.736702 0.04 0 0.739064 0.04 0 0.741428 0.04 0 0.743792 0.04 0 0.746154 0.04 0 0.748516 0.04 0 0.750878 0.04 0 0.753239 0.04 0 0.7556 0.04 0 0.757962 0.04 0 0.760325 0.04 0 0.762686 0.04 0 0.765047 0.04 0 0.767408 0.04 0 0.769768 0.04 0 0.772129 0.04 0 0.774491 0.04 0 0.776853 0.04 0 0.779214 0.04 0 0.781575 0.04 0 0.783937 0.04 0 0.786298 0.04 0 0.788663 0.04 0 0.791027 0.04 0 0.793388 0.04 0 0.79575 0.04 0 0.79811 0.04 0 0.800471 0.04 0 0.802834 0.04 0 0.805198 0.04 0 0.807569 0.04 0 0.80995 0.04 0 0.812354 0.04 0 0.814808 0.04 0 0.817335 0.04 0 0.819986 0.04 0 0.822775 0.04 0 0.825774 0.04 0 0.829028 0.04 0 0.832607 0.04 0 0.836535 0.04 0 0.84081 0.04 0 0.845379 0.04 0 0.850159 0.04 0 0.855062 0.04 0 0.860023 0.04 0 0.865008 0.04 0 0.870003 0.04 0 0.875001 0.04 0 0.88 0.04 0 0.885 0.04 0 0.89 0.04 0 0.895 0.04 0 0.9 0.04 0 0.905 0.04 0 0.91 0.04 0 0.915 0.04 0 0.92 0.04 0 0.925 0.04 0 0.93 0.04 0 0.935 0.04 0 0.94 0.04 0 0.945 0.04 0 0.95 0.04 0 0.955 0.04 0 0.96 0.04 0 0.965 0.04 0 0.97 0.04 0 0.975 0.04 0 0.98 0.04 0 0.985 0.04 0 0.99 0.04 0 0.995 0.04 0 1 0.04 0 0 0.06 0 0.005 0.06 0 0.01 0.06 0 0.015 0.06 0 0.02 0.06 0 0.025 0.06 0 0.03 0.06 0 0.035 0.06 0 0.04 0.06 0 0.045 0.06 0 0.05 0.06 0 0.055 0.06 0 0.06 0.06 0 0.065 0.06 0 0.07 0.06 0 0.075 0.06 0 0.08 0.06 0 0.085 0.06 0 0.09 0.06 0 0.095 0.06 0 0.1 0.06 0 0.105 0.06 0 0.11 0.06 0 0.115 0.06 0 0.12 0.06 0 0.125 0.06 0 0.13 0.06 0 0.135 0.06 0 0.14 0.06 0 0.145 0.06 0 0.15 0.06 0 0.155 0.06 0 0.16 0.06 0 0.165 0.06 0 0.17 0.06 0 0.175 0.06 0 0.18 0.06 0 0.185 0.06 0 0.19 0.06 0 0.195 0.06 0 0.2 0.06 0 0.205 0.06 0 0.21 0.06 0 0.215 0.06 0 0.22 0.06 0 0.225 0.06 0 0.23 0.06 0 0.235 0.06 0 0.24 0.06 0 0.245 0.06 0 0.250001 0.06 0 0.255002 0.06 0 0.260007 0.06 0 0.265017 0.06 0 0.27004 0.06 0 0.275087 0.06 0 0.28017 0.06 0 0.285307 0.06 0 0.290512 0.06 0 0.2958 0.06 0 0.30118 0.06 0 0.306663 0.06 0 0.312256 0.06 0 0.317966 0.06 0 0.323799 0.06 0 0.329764 0.06 0 0.335867 0.06 0 0.342117 0.06 0 0.348522 0.06 0 0.355091 0.06 0 0.361833 0.06 0 0.368761 0.06 0 0.375885 0.06 0 0.383218 0.06 0 0.390774 0.06 0 0.398568 0.06 0 0.406618 0.06 0 0.414943 0.06 0 0.423563 0.06 0 0.432501 0.06 0 0.441783 0.06 0 0.451436 0.06 0 0.461491 0.06 0 0.471978 0.06 0 0.482924 0.06 0 0.494342 0.06 0 0.506196 0.06 0 0.51832 0.06 0 0.530419 0.06 0 0.542427 0.06 0 0.554342 0.06 0 0.56618 0.06 0 0.577964 0.06 0 0.589718 0.06 0 0.601457 0.06 0 0.613188 0.06 0 0.624917 0.06 0 0.636646 0.06 0 0.648374 0.06 0 0.660105 0.06 0 0.671848 0.06 0 0.674457 0.06 0 0.676993 0.06 0 0.679483 0.06 0 0.681943 0.06 0 0.684381 0.06 0 0.686804 0.06 0 0.689218 0.06 0 0.69163 0.06 0 0.694042 0.06 0 0.69644 0.06 0 0.698826 0.06 0 0.701207 0.06 0 0.703
[...]
			<PointData Scalars="VitesseX">
				<DataArray Name="VitesseX" type="Float32" format="ascii">
 0 5.4377e-15 5.50484e-15 -4.79147e-16 3.34846e-15 -7.29346e-16 5.77461e-15 1.25696e-14 6.18934e-15 6.22122e-15 6.91333e-15 8.86587e-15 5.96499e-15 7.48131e-15 1.31936e-14 1.1849e-14 -6.75401e-15 8.65329e-15 1.18567e-14 1.02679e-14 1.34331e-14 7.45381e-15 8.83032e-17 1.24462e-14 7.70027e-15 -2.06878e-14 1.19017e-14 2.75581e-14 -1.14963e-14 3.35345e-15 2.49032e-14 1.29818e-14 4.29669e-14 -2.31051e-15 7.40613e-14 2.7064e-14 8.7948e-14 6.78493e-13 4.31942e-12 2.53643e-11 1.43354e-10 7.70441e-10 3.93463e-09 1.90455e-08 8.71845e-08 3.76498e-07 1.52942e-06 5.8253e-06 2.07255e-05 6.8578e-05 0.000209956 0.000591244 0.00152143 0.00355409 0.00749678 0.0142468 0.0244577 0.0382448 0.0551773 0.0745515 0.0956983 0.118137 0.14158 0.165871 0.190935 0.21674 0.243276 0.270549 0.298578 0.327385 0.357001 0.387462 0.418808 0.451084 0.48434 0.518628 0.554006 0.59053 0.628256 0.667233 0.707488 0.749006 0.79167 0.835137 0.878512 0.919457 0.951711 0.960339 0.952081 0.944323 0.937456 0.932544 0.929616 0.928096 0.927366 0.927021 0.926862 0.926775 0.926674 0.926532 0.9264 0.926393 0.92639 0.92639 0.926397 0.926436 0.926478 0.926472 0.926475 0.926494 0.926546 0.926645 0.926755 0.926755 0.926732 0.926704 0.926657 0.926608 0.926548 0.926485 0.926418 0.926353 0.926291 0.926238 0.926196 0.926171 0.926162 0.926215 0.926477 0.926617 0.926551 0.926432 0.926349 0.926267 0.9262 0.926166 0.926159 0.926243 0.926336 0.92634 0.926416 0.92623 0.926053 0.925766 0.925468 0.925245 0.925171 0.925387 0.927091 0.926798 0.926233 0.925291 0.92451 0.923928 0.924055 0.926259 0.926057 0.927206 0.917307 0.88746 0.890565 0.837661 0.800493 0.726596 0.660862 0.540545 0.430318 0.301195 0.188883 0.101764 0.0470959 0.0193106 0.00737913 0.00272974 0.000996586 0.000361934 0.000131138 4.74478e-05 1.71461e-05 6.18757e-06 2.22931e-06 8.01637e-07 2.87594e-07 1.02896e-07 3.66983e-08 1.3041e-08 4.61529e-09 1.62586e-09 5.69831e-10 1.98606e-10 6.88465e-11 2.38038e-11 8.19012e-12 2.87282e-12 9.95982e-13 2.81183e-13 7.34757e-14 -4.99429e-14 8.14222e-14 1.02132e-13 0 0 4.63713e-16 1.91195e-15 3.65778e-15 5.39147e-15 1.93188e-15 3.95403e-15 1.0015e-14 6.57508e-15 9.5103e-15 -1.91112e-15 4.79355e-15 3.76549e-15 1.36945e-14 1.26306e-14 1.10043e-14 1.26231e-15 -4.67802e-15 1.29588e-14 8.99958e-15 1.02401e-14 1.02825e-14 1.18102e-14 -5.08487e-15 1.61685e-14 5.63461e-17 5.84799e-15 7.38702e-15 2.38511e-15 -7.56627e-15 1.92008e-14 3.86617e-14 1.92707e-14 1.79492e-14 5.37671e-14 5.49104e-14 1.29872e-13 6.49903e-13 4.28615e-12 2.54217e-11 1.43268e-10 7.7044e-10 3.93466e-09 1.90455e-08 8.71844e-08 3.76498e-07 1.52942e-06 5.8253e-06 2.07255e-05 6.8578e-05 0.000209956 0.000591244 0.00152143 0.00355409 0.00749678 0.0142468 0.0244577 0.0382448 0.0551773 0.0745515 0.0956983 0.118137 0.14158 0.165871 0.190935 0.21674 0.243276 0.270549 0.298578 0.327385 0.357001 0.387462 0.418808 0.451084 0.48434 0.518628 0.554006 0.59053 0.628256 0.667233 0.707488 0.749006 0.79167 0.835137 0.878512 0.919457 0.951711 0.960339 0.952081 0.944323 0.937456 0.932544 0.929616 0.928096 0.927366 0.927021 0.926862 0.926775 0.926674 0.926532 0.9264 0.926393 0.92639 0.92639 0.926397 0.926436 0.926478 0.926472 0.926475 0.926494 0.926546 0.926645 0.926755 0.926755 0.926732 0.926704 0.926657 0.926608 0.926548 0.926485 0.926418 0.926353 0.926291 0.926238 0.926196 0.926171 0.926162 0.926215 0.926477 0.926617 0.926551 0.926432 0.926349 0.926267 0.9262 0.926166 0.926159 0.926243 0.926336 0.92634 0.926416 0.92623 0.926053 0.925766 0.925468 0.925245 0.925171 0.925387 0.927091 0.926798 0.926233 0.925291 0.92451 0.923928 0.924055 0.926259 0.926057 0.927206 0.917307 0.88746 0.890565 0.837661 0.800493 0.726596 0.660862 0.540545 0.430318 0.301195 0.188883 0.101764 0.0470959 0.0193106 0.00737913 0.00272974 0.000996586 0.000361934 0.000131138 4.74478e-05 1.71461e-05 6.18757e-06 2.22931e-06 8.01637e-07 2.87594e-07 1.02896e-07 3.66982e-08 1.30411e-08 4.61525e-09 1.62592e-09 5.69808e-10 1.98617e-10 6.88395e-11 2.36937e-11 8.21045e-12 2.76649e-12 1.02505e-12 4.30438e-13 -7.14082e-14 2.81807e-14 6.96169e-14 4.70311e-15 0 0 8.37044e-16 4.26489e-15 7.68921e-15 2.88504e-15 7.01517e-15 3.22609e-15 -6.75406e-16 1.27693e-15 7.33407e-15 -5.01672e-17 1.05815e-14 4.9231e-15 -2.31259e-15 1.29085e-14 1.14219e-14 2.20617e-15 7.96636e-16 5.624e-15 1.15285e-14 5.56573e-15 2.34686e-15 1.60875e-14 -5.86138e-15 9.72653e-15 2.08364e-14 3.33466e-14 -1.56417e-14 5.11216e-15 -2.23486e-14 3.14039e-14 3.54468e-14 3.98142e-14 3.98884e-14 2.22661e-14 5.44492e-14 1.57153e-13 6.87919e-13 4.20716e-12 2.54337e-11 1.43296e-10 7.70402e-10 3.93461e-09 1.90454e-08 8.71844e-08 3.76498e-07 1.52942e-06 5.8253e-06 2.07255e-05 6.8578e-05 0.000209956 0.000591244 0.00152143 0.00355409 0.00749678 0.0142468 0.0244577 0.0382448 0.0551773 0.0745515 0.0956983 0.118137 0.14158 0.165871 0.190935 0.21674 0.243276 0.270549 0.298578 0.327385 0.357001 0.387462 0.418808 0.451084 0.48434 0.518628 0.554006 0.59053 0.628256 0.667233 0.707488 0.749006 0.79167 0.835137 0.878512 0.919457 0.951711 0.960339 0.952081 0.944323 0.937456 0.932544 0.929616 0.928096 0.927366 0.927021 0.926862 0.926775 0.926674 0.926532 0.9264 0.926393 0.92639 0.92639 0.926397 0.926436 0.926478 0.926472 0.926475 0.926494 0.926546 0.926645 0.926755 0.926755 0.926732 0.926704 0.926657 0.926608 0.926548 0.926485 0.926418 0.926353 0.926291 0.926238 0.926196 0.926171 0.926162 0.926215 0.926477 0.926617 0.926551 0.926432 0.926349 0.926267 0.9262 0.926166 0.926159 0.926243 0.926336 0.92634 0.926416 0.92623 0.926053 0.925766 0.925468 0.925245 0.925171 0.925387 0.927091 0.926798 0.926233 0.925291 0.92451 0.923928 0.924055 0.926259 0.926057 0.927206 0.917307 0.88746 0.890565 0.837661 0.800493 0.726596 0.660862 0.540545 0.430318 0.301195 0.188883 0.101764 0.0470959 0.0193106 0.00737913 0.00272974 0.000996586 0.000361934 0.000131138 4.74478e-05 1.71461e-05 6.18757e-06 2.22931e-06 8.01637e-07 2.87594e-07 1.02896e-07 3.66982e-08 1.30411e-08 4.61525e-09 1.62584e-09 5.69978e-10 1.9866e-10 6.88162e-11 2.37165e-11 8.06927e-12 2.7924e-12 9.93163e-13 3.18589e-13 6.41025e-14 -4.18888e-14 -2.40293e-14 1.07682e-14 0 0 1.33149e-15 1.1761e-14 9.17867e-15 4.84443e-15 5.47999e-15 3.58987e-15 4.23547e-15 -5.29349e-15 -1.88571e-16 3.34696e-15 6.24474e-15 -1.74773e-15 -1.15975e-14 8.94501e-15 1.31253e-14 1.15163e-14 1.5391e-14 1.60556e-15 1.59179e-14 -5.51663e-15 1.12792e-14 -1.34866e-14 1.27257e-14 2.11513e-14 -7.04053e-15 3.09377e-14 2.1712e-14 -7.06841e-15 -1.548e-14 3.12198e-14 1.30658e-15 7.03944e-14 4.14309e-14 2.56246e-14 9.53787e-14 1.00217e-13 7.06563e-13 4.20791e-12 2.53711e-11 1.43326e-10 7.70376e-10 3.93463e-09 1.90454e-08 8.71844e-08 3.76498e-07 1.52942e-06 5.8253e-06 2.07255e-05 6.8578e-05 0.000209956 0.000591244 0.00152143 0.00355409 0.00749678 0.0142468 0.0244577 0.0382448 0.0551773 0.0745515 0.0956983 0.118137 0.14158 0.165871 0.190935 0.21674 0.243276 0.270549 0.298578 0.327385 0.357001 0.387462 0.418808 0.451084 0.48434 0.518628 0.554006 0.59053 0.628256 0.667233 0.707488 0.749006 0.79167 0.835137 0.878512 0.919457 0.951711 0.960339 0.952081 0.944323 0.937456 0.932544 0.929616 0.928096 0.927366 0.927021 0.926862 0.926775 0.926674 0.926532 0.9264 0.926393 0.92639 0.92639 0.926397 0.926436 0.926478 0.926472 0.926475 0.926494 0.926546 0.926645 0.926755 0.926755 0.926732 0.926704 0.926657 0.926608 0.926548 0.926485 0.926418 0.926353 0.926291 0.926238 0.926196 0.926171 0.926162 0.926215 0.926477 0.926617 0.926551 0.926432 0.926349 0.926267 0.9262 0.926166 0.926159 0.926243 0.926336 0.92634 0.926416 0.92623 0.926053 0.925766 0.925468 0.925245 0.925171 0.925387 0.927091 0.926798 0.926233 0.925291 0.92451 0.923928 0.924055 0.926259 0.926057 0.927206 0.917307 0.88746 0.890565 0.837661 0.800493 0.726596 0.660862 0.540545 0.430318 0.301195 0.188883 0.101764 0.0470959 0.0193106 0.00737913 0.00272974 0.000996586 0.000361934 0.000131138 4.74478e-05 1.71461e-05 6.18757e-06 2.22931e-06 8.01637e-07 2.87594e-07 1.02896e-07 3.66984e-08 1.3041e-08 4.61532e-09 1.62584e-09 5.69754e-10 1.98766e-10 6.8972e-11 2.37142e-11 8.24625e-12 2.98285e-12 7.50026e-13 2.92718e-14 1.32303e-14 4.16899e-14 -4.04895e-15 -2.09333e-13 0 0 -2.66563e-16 5.61795e-15 8.69453e-15 2.4592e-15 2.78447e-16 7.29812e-15 5.81183e-15 -5.54986e-15 -4.34187e-15 6.10035e-16 -5.79227e-16 -1.15416e-14 -1.84302e-15 3.31154e-15 4.45674e-15 9.83627e-15 1.47706e-14 2.47829e-14 1.2942e-14 -6.83676e-15 1.25549e-14 1.37779e-15 7.0581e-15 5.94572e-15 -1.52897e-14 1.73018e-15 3.62247e-14 2.74001e-15 -1.53941e-14 4.59659e-15 5.10794e-14 4.73617e-14 6.75767e-14 5.91231e-14 1.02345e-13 1.60648e-13 6.68648e-13 4.19386e-12 2.539e-11 1.43226e-10 7.70291e-10 3.93464e-09 1.90454e-08 8.71845e-08 3.76498e-07 1.52942e-06 5.8253e-06 2.07255e-05 6.8578e-05 0.000209956 0.000591244 0.00152143 0.00355409 0.00749678 0.0142468 0.0244577 0.0382448 0.0551773 0.0745515 0.0956983 0.118137 0.14158 0.165871 0.190935 0.21674 0.243276 0.270549 0.298578 0.327385 0.357001 0.387462 0.418808 0.451084 0.48434 0.518628 0.554006 0.59053 0.628256 0.667233 0.707488 0.749006 0.79167 0.835137 0.878512 0.919457 0.951711 0.960339 0.952081 0.944323 0.937456 0.932544 0.929616 0.928096 0.927366 0.927021 0.926862 0.926775 0.926674 0.926532 0.9264 0.926393 0.92639 0.92639 0.926397 0.926436 0.926478 0.926472 0.926475 0.926494 0.926546 0.926645 0.926755 0.926755 0.926732 0.926704 0.926657 0.926608 0.926548 0.926485 0.926418 0.926353 0.926291 0.926238 0.926196 0.926171 0.926162 0.926215 0.926477 0.926617 0.926551 0.926432 0.926349 0.926267 0.9262 0.926166 0.926159 0.926243 0.926336 0.92634 0.926416 0.92623 0.926053 0.925766 0.925468 0.925245 0.925171 0.925387 0.927091 0.926798 0.926233 0.925291 0.92451 0.923928 0.924055 0.926259 0.926057 0.927206 0.917307 0.88746 0.890565 0.837661 0.800493 0.726596 0.660862 0.540545 0.430318 0.301195 0.188883 0.101764 0.0470959 0.0193106 0.00737913 0.00272974 0.000996586 0.000361934 0.000131138 4.74478e-05 1.71461e-05 6.18757e-06 2.22931e-06 8.01637e-07 2.87594e-07 1.02896e-07 3.66984e-08 1.3041e-08 4.61545e-09 1.62588e-09 5.69783e-10 1.98706e-10 6.91831e-11 2.36683e-11 8.22395e-12 2.98227e-12 6.84677e-13 8.34117e-14 -2.62468e-14 -3.6804e-14 3.58802e-14 -2.09477e-13 0 0 2.98824e-15 -2.07544e-15 6.61543e-15 -6.43486e-15 -9.65846e-16 1.17352e-14 -5.65848e-15 -4.91969e-15 -6.43784e-15 5.16138e-15 6.79385e-15 -1.13075e-14 -5.02395e-15 2.48245e-15 -4.65292e-15 -8.22641e-15 1.83619e-14 4.35419e-14 9.37397e-15 1.44399e-15 -5.86607e-15 3.83718e-14 -4.42047e-16 -3.55948e-14 4.37412e-15 8.48366e-15 1.05261e-14 1.35747e-14 -2.60395e-14 -3.93699e-15 1.06098e-13 3.79884e-14 9.38594e-14 7.80562e-14 4.00735e-14 2.63373e-13 6.78695e-13 4.13333e-12 2.54261e-11 1.4321e-10 7.70198e-10 3.93455e-09 1.90454e-08 8.71846e-08 3.76498e-07 1.52942e-06 5.8253e-06 2.07255e-05 6.8578e-05 0.000209956 0.000591244 0.00152143 0.00355409 0.00749678 0.0142468 0.0244577 0.0382448 0.0551773 0.0745515 0.0956983 0.118137 0.14158 0.165871 0.190935 0.21674 0.243276 0.270549 0.298578 0.327385 0.357001 0.387462 0.418808 0.451084 0.48434 0.518628 0.554006 0.59053 0.628256 0.667233 0.707488 0.749006 0.79167 0.835137 0.878512 0.919457 0.951711 0.960339 0.952081 0.944323 0.937456 0.932544 0.929616 0.928096 0.927366 0.927021 0.926862 0.926775 0.926674 0.926532 0.9264 0.926393 0.92639 0.92639 0.926397 0.926436 0.926478 0.926472 0.926475 0.926494 0.926546 0.926645 0.926755 0.926755 0.926732 0.926704 0.926657 0.926608 0.926548 0.926485 0.926418 0.926353 0.926291 0.926238 0.926196 0.926171 0.926162 0.926215 0.926477 0.926617 0.926551 0.926432 0.926349 0.926267 0.9262 0.926166 0.926159 0.926243 0.926336 0.92634 0.926416 0.92623 0.926053 0.925766 0.925468 0.925245 0.925171 0.925387 0.927091 0.926798 0.926233 0.925291 0.92451 0.923928 0.924055 0.926259 0.926057 0.927206 0.917307 0.88746 0.890565 0.837661 0.800493 0.726596 0.660862 0.540545 0.430318 0.301195 0.188883 0.101764 0.0470959 0.0193106 0.00737913 0.00272974 0.000996586 0.000361934 0.000131138 4.74478e-05 1.71461e-05 6.18757e-06 2.22931e-06 8.01637e-07 2.87594e-07 1.02896e-07 3.66983e-08 1.3041e-08 4.61556e-09 1.62578e-09 5.70232e-10 1.98572e-10 6.92219e-11 2.37577e-11 7.86311e-12 2.92325e-12 8.01671e-13 1.66102e-13 2.65317e-13 -3.47446e-13 -2.63644e-14 1.13304e-13 0
				</DataArray>
				<DataArray Name="VitesseY" type="Float32" format="ascii">