<?xml version="1.0"?>
<VTKFile type="PolyData">
	<PolyData>
		<Piece NumberOfPoints="1206" NumberOfPolys="1000">
			<Points>
				<DataArray type="Float32" NumberOfComponents="3" format="ascii">
 0 0 0 0.005 0 0 0.01 0 0 0.015 0 0 0.02 0 0 0.025 0 0 0.03 0 0 0.035 0 0 0.04 0 0 0.045 0 0 0.05 0 0 0.055 0 0 0.06 0 0 0.065 0 0 0.07 0 0 0.075 0 0 0.08 0 0 0.085 0 0 0.09 0 0 0.095 0 0 0.1 0 0 0.105 0 0 0.11 0 0 0.115 0 0 0.12 0 0 0.125 0 0 0.13 0 0 0.135 0 0 0.14 0 0 0.145 0 0 0.15 0 0 0.155 0 0 0.16 0 0 0.165 0 0 0.17 0 0 0.175 0 0 0.18 0 0 0.185 0 0 0.19 0 0 0.195 0 0 0.2 0 0 0.205 0 0 0.21 0 0 0.215 0 0 0.22 0 0 0.225 0 0 0.23 0 0 0.235 0 0 0.24 0 0 0.245 0 0 0.25 0 0 0.255 0 0 0.26 0 0 0.265 0 0 0.27 0 0 0.275 0 0 0.28 0 0 0.285 0 0 0.29 0 0 0.295 0 0 0.3 0 0 0.305 0 0 0.31 0 0 0.315001 0 0 0.320003 0 0 0.32501 0 0 0.330028 0 0 0.335069 0 0 0.340152 0 0 0.345301 0 0 0.350543 0 0 0.355899 0 0 0.361389 0 0 0.367029 0 0 0.372834 0 0 0.378817 0 0 0.384992 0 0 0.391377 0 0 0.397988 0 0 0.404844 0 0 0.411967 0 0 0.419381 0 0 0.427114 0 0 0.435197 0 0 0.443666 0 0 0.452562 0 0 0.46193 0 0 0.471824 0 0 0.482296 0 0 0.493389 0 0 0.505101 0 0 0.517252 0 0 0.529406 0 0 0.541427 0 0 0.553322 0 0 0.565129 0 0 0.576888 0 0 0.58863 0 0 0.600364 0 0 0.612098 0 0 0.623844 0 0 0.626452 0 0 0.628987 0 0 0.631476 0 0 0.633935 0 0 0.636373 0 0 0.638794 0 0 0.641204 0 0 0.643608 0 0 0.646009 0 0 0.648412 0 0 0.650817 0 0 0.653224 0 0 0.655627 0 0 0.658025 0 0 0.660417 0 0 0.662803 0 0 0.665184 0 0 0.667563 0 0 0.66994 0 0 0.672315 0 0 0.674688 0 0 0.677061 0 0 0.679433 0 0 0.681804 0 0 0.684174 0 0 0.686544 0 0 0.688914 0 0 0.691283 0 0 0.693652 0 0 0.696021 0 0 0.69839 0 0 0.700759 0 0 0.703128 0 0 0.705499 0 0 0.70787 0 0 0.710245 0 0 0.712623 0 0 0.715011 0 0 0.717408 0 0 0.719829 0 0 0.722274 0 0 0.724775 0 0 0.727325 0 0 0.729989 0 0 0.732767 0 0 0.735764 0 0 0.739009 0 0 0.742586 0 0 0.746515 0 0 0.750793 0 0 0.755368 0 0 0.760153 0 0 0.765059 0 0 0.770022 0 0 0.775008 0 0 0.780003 0 0 0.785001 0 0 0.79 0 0 0.795 0 0 0.8 0 0 0.805 0 0 0.81 0 0 0.815 0 0 0.82 0 0 0.825 0 0 0.83 0 0 0.835 0 0 0.84 0 0 0.845 0 0 0.85 0 0 0.855 0 0 0.86 0 0 0.865 0 0 0.87 0 0 0.875 0 0 0.88 0 0 0.885 0 0 0.89 0 0 0.895 0 0 0.9 0 0 0.905 0 0 0.91 0 0 0.915 0 0 0.92 0 0 0.925 0 0 0.93 0 0 0.935 0 0 0.94 0 0 0.945 0 0 0.95 0 0 0.955 0 0 0.96 0 0 0.965 0 0 0.97 0 0 0.975 0 0 0.98 0 0 0.985 0 0 0.99 0 0 0.995 0 0 1 0 0 0 0.02 0 0.005 0.02 0 0.01 0.02 0 0.015 0.02 0 0.02 0.02 0 0.025 0.02 0 0.03 0.02 0 0.035 0.02 0 0.04 0.02 0 0.045 0.02 0 0.05 0.02 0 0.055 0.02 0 0.06 0.02 0 0.065 0.02 0 0.07 0.02 0 0.075 0.02 0 0.08 0.02 0 0.085 0.02 0 0.09 0.02 0 0.095 0.02 0 0.1 0.02 0 0.105 0.02 0 0.11 0.02 0 0.115 0.02 0 0.12 0.02 0 0.125 0.02 0 0.13 0.02 0 0.135 0.02 0 0.14 0.02 0 0.145 0.02 0 0.15 0.02 0 0.155 0.02 0 0.16 0.02 0 0.165 0.02 0 0.17 0.02 0 0.175 0.02 0 0.18 0.02 0 0.185 0.02 0 0.19 0.02 0 0.195 0.02 0 0.2 0.02 0 0.205 0.02 0 0.21 0.02 0 0.215 0.02 0 0.22 0.02 0 0.225 0.02 0 0.23 0.02 0 0.235 0.02 0 0.24 0.02 0 0.245 0.02 0 0.25 0.02 0 0.255 0.02 0 0.26 0.02 0 0.265 0.02 0 0.27 0.02 0 0.275 0.02 0 0.28 0.02 0 0.285 0.02 0 0.29 0.02 0 0.295 0.02 0 0.3 0.02 0 0.305 0.02 0 0.31 0.02 0 0.315001 0.02 0 0.320003 0.02 0 0.32501 0.02 0 0.330028 0.02 0 0.335069 0.02 0 0.340152 0.02 0 0.345301 0.02 0 0.350543 0.02 0 0.355899 0.02 0 0.361389 0.02 0 0.367029 0.02 0 0.372834 0.02 0 0.378817 0.02 0 0.384992 0.02 0 0.391377 0.02 0 0.397988 0.02 0 0.404844 0.02 0 0.411967 0.02 0 0.419381 0.02 0 0.427114 0.02 0 0.435197 0.02 0 0.443666 0.02 0 0.452562 0.02 0 0.46193 0.02 0 0.471824 0.02 0 0.482296 0.02 0 0.493389 0.02 0 0.505101 0.02 0 0.517252 0.02 0 0.529406 0.02 0 0.541427 0.02 0 0.553322 0.02 0 0.565129 0.02 0 0.576888 0.02 0 0.58863 0.02 0 0.600364 0.02 0 0.612098 0.02 0 0.623844 0.02 0 0.626452 0.02 0 0.628987 0.02 0 0.631476 0.02 0 0.633935 0.02 0 0.636373 0.02 0 0.638794 0.02 0 0.641204 0.02 0 0.643608 0.02 0 0.646009 0.02 0 0.648412 0.02 0 0.650817 0.02 0 0.653224 0.02 0 0.655627 0.02 0 0.658025 0.02 0 0.660417 0.02 0 0.662803 0.02 0 0.665184 0.02 0 0.667563 0.02 0 0.66994 0.02 0 0.672315 0.02 0 0.674688 0.02 0 0.677061 0.02 0 0.679433 0.02 0 0.681804 0.02 0 0.684174 0.02 0 0.686544 0.02 0 0.688914 0.02 0 0.691283 0.02 0 0.693652 0.02 0 0.696021 0.02 0 0.69839 0.02 0 0.700759 0.02 0 0.703128 0.02 0 0.705499 0.02 0 0.70787 0.02 0 0.710245 0.02 0 0.712623 0.02 0 0.715011 0.02 0 0.717408 0.02 0 0.719829 0.02 0 0.722274 0.02 0 0.724775 0.02 0 0.727325 0.02 0 0.729989 0.02 0 0.732767 0.02 0 0.735764 0.02 0 0.739009 0.02 0 0.742586 0.02 0 0.746515 0.02 0 0.750793 0.02 0 0.755368 0.02 0 0.760153 0.02 0 0.765059 0.02 0 0.770022 0.02 0 0.775008 0.02 0 0.780003 0.02 0 0.785001 0.02 0 0.79 0.02 0 0.795 0.02 0 0.8 0.02 0 0.805 0.02 0 0.81 0.02 0 0.815 0.02 0 0.82 0.02 0 0.825 0.02 0 0.83 0.02 0 0.835 0.02 0 0.84 0.02 0 0.845 0.02 0 0.85 0.02 0 0.855 0.02 0 0.86 0.02 0 0.865 0.02 0 0.87 0.02 0 0.875 0.02 0 0.88 0.02 0 0.885 0.02 0 0.89 0.02 0 0.895 0.02 0 0.9 0.02 0 0.905 0.02 0 0.91 0.02 0 0.915 0.02 0 0.92 0.02 0 0.925 0.02 0 0.93 0.02 0 0.935 0.02 0 0.94 0.02 0 0.945 0.02 0 0.95 0.02 0 0.955 0.02 0 0.96 0.02 0 0.965 0.02 0 0.97 0.02 0 0.975 0.02 0 0.98 0.02 0 0.985 0.02 0 0.99 0.02 0 0.995 0.02 0 1 0.02 0 0 0.04 0 0.005 0.04 0 0.01 0.04 0 0.015 0.04 0 0.02 0.04 0 0.025 0.04 0 0.03 0.04 0 0.035 0.04 0 0.04 0.04 0 0.045 0.04 0 0.05 0.04 0 0.055 0.04 0 0.06 0.04 0 0.065 0.04 0 0.07 0.04 0 0.075 0.04 0 0.08 0.04 0 0.085 0.04 0 0.09 0.04 0 0.095 0.04 0 0.1 0.04 0 0.105 0.04 0 0.11 0.04 0 0.115 0.04 0 0.12 0.04 0 0.125 0.04 0 0.13 0.04 0 0.135 0.04 0 0.14 0.04 0 0.145 0.04 0 0.15 0.04 0 0.155 0.04 0 0.16 0.04 0 0.165 0.04 0 0.17 0.04 0 0.175 0.04 0 0.18 0.04 0 0.185 0.04 0 0.19 0.04 0 0.195 0.04 0 0.2 0.04 0 0.205 0.04 0 0.21 0.04 0 0.215 0.04 0 0.22 0.04 0 0.225 0.04 0 0.23 0.04 0 0.235 0.04 0 0.24 0.04 0 0.245 0.04 0 0.25 0.04 0 0.255 0.04 0 0.26 0.04 0 0.265 0.04 0 0.27 0.04 0 0.275 0.04 0 0.28 0.04 0 0.285 0.04 0 0.29 0.04 0 0.295 0.04 0 0.3 0.04 0 0.305 0.04 0 0.31 0.04 0 0.315001 0.04 0 0.320003 0.04 0 0.32501 0.04 0 0.330028 0.04 0 0.335069 0.04 0 0.340152 0.04 0 0.345301 0.04 0 0.350543 0.04 0 0.355899 0.04 0 0.361389 0.04 0 0.367029 0.04 0 0.372834 0.04 0 0.378817 0.04 0 0.384992 0.04 0 0.391377 0.04 0 0.397988 0.04 0 0.404844 0.04 0 0.411967 0.04 0 0.419381 0.04 0 0.427114 0.04 0 0.435197 0.04 0 0.443666 0.04 0 0.452562 0.04 0 0.46193 0.04 0 0.471824 0.04 0 0.482296 0.04 0 0.493389 0.04 0 0.505101 0.04 0 0.517252 0.04 0 0.529406 0.04 0 0.541427 0.04 0 0.553322 0.04 0 0.565129 0.04 0 0.576888 0.04 0 0.58863 0.04 0 0.600364 0.04 0 0.612098 0.04 0 0.623844 0.04 0 0.626452 0.04 0 0.628987 0.04 0 0.631476 0.04 0 0.633935 0.04 0 0.636373 0.04 0 0.638794 0.04 0 0.641204 0.04 0 0.643608 0.04 0 0.646009 0.04 0 0.648412 0.04 0 0.650817 0.04 0 0.653224 0.04 0 0.655627 0.04 0 0.658025 0.04 0 0.660417 0.04 0 0.662803 0.04 0 0.665184 0.04 0 0.667563 0.04 0 0.66994 0.04 0 0.672315 0.04 0 0.674688 0.04 0 0.677061 0.04 0 0.679433 0.04 0 0.681804 0.04 0 0.684174 0.04 0 0.686544 0.04 0 0.688914 0.04 0 0.691283 0.04 0 0.693652 0.04 0 0.696021 0.04 0 0.69839 0.04 0 0.700759 0.04 0 0.703128 0.04 0 0.705499 0.04 0 0.70787 0.04 0 0.710245 0.04 0 0.712623 0.04 0 0.715011 0.04 0 0.717408 0.04 0 0.719829 0.04 0 0.722274 0.04 0 0.724775 0.04 0 0.727325 0.04 0 0.729989 0.04 0 0.732767 0.04 0 0.735764 0.04 0 0.739009 0.04 0 0.742586 0.04 0 0.746515 0.04 0 0.750793 0.04 0 0.755368 0.04 0 0.760153 0.04 0 0.765059 0.04 0 0.770022 0.04 0 0.775008 0.04 0 0.780003 0.04 0 0.785001 0.04 0 0.79 0.04 0 0.795 0.04 0 0.8 0.04 0 0.805 0.04 0 0.81 0.04 0 0.815 0.04 0 0.82 0.04 0 0.825 0.04 0 0.83 0.04 0 0.835 0.04 0 0.84 0.04 0 0.845 0.04 0 0.85 0.04 0 0.855 0.04 0 0.86 0.04 0 0.865 0.04 0 0.87 0.04 0 0.875 0.04 0 0.88 0.04 0 0.885 0.04 0 0.89 0.04 0 0.895 0.04 0 0.9 0.04 0 0.905 0.04 0 0.91 0.04 0 0.915 0.04 0 0.92 0.04 0 0.925 0.04 0 0.93 0.04 0 0.935 0.04 0 0.94 0.04 0 0.945 0.04 0 0.95 0.04 0 0.955 0.04 0 0.96 0.04 0 0.965 0.04 0 0.97 0.04 0 0.975 0.04 0 0.98 0.04 0 0.985 0.04 0 0.99 0.04 0 0.995 0.04 0 1 0.04 0 0 0.06 0 0.005 0.06 0 0.01 0.06 0 0.015 0.06 0 0.02 0.06 0 0.025 0.06 0 0.03 0.06 0 0.035 0.06 0 0.04 0.06 0 0.045 0.06 0 0.05 0.06 0 0.055 0.06 0 0.06 0.06 0 0.065 0.06 0 0.07 0.06 0 0.075 0.06 0 0.08 0.06 0 0.085 0.06 0 0.09 0.06 0 0.095 0.06 0 0.1 0.06 0 0.105 0.06 0 0.11 0.06 0 0.115 0.06 0 0.12 0.06 0 0.125 0.06 0 0.13 0.06 0 0.135 0.06 0 0.14 0.06 0 0.145 0.06 0 0.15 0.06 0 0.155 0.06 0 0.16 0.06 0 0.165 0.06 0 0.17 0.06 0 0.175 0.06 0 0.18 0.06 0 0.185 0.06 0 0.19 0.06 0 0.195 0.06 0 0.2 0.06 0 0.205 0.06 0 0.21 0.06 0 0.215 0.06 0 0.22 0.06 0 0.225 0.06 0 0.23 0.06 0 0.235 0.06 0 0.24 0.06 0 0.245 0.06 0 0.25 0.06 0 0.255 0.06 0 0.26 0.06 0 0.265 0.06 0 0.27 0.06 0 0.275 0.06 0 0.28 0.06 0 0.285 0.06 0 0.29 0.06 0 0.295 0.06 0 0.3 0.06 0 0.305 0.06 0 0.31 0.06 0 0.315001 0.06 0 0.320003 0.06 0 0.32501 0.06 0 0.330028 0.06 0 0.335069 0.06 0 0.340152 0.06 0 0.345301 0.06 0 0.350543 0.06 0 0.355899 0.06 0 0.361389 0.06 0 0.367029 0.06 0 0.372834 0.06 0 0.378817 0.06 0 0.384992 0.06 0 0.391377 0.06 0 0.397988 0.06 0 0.404844 0.06 0 0.411967 0.06 0 0.419381 0.06 0 0.427114 0.06 0 0.435197 0.06 0 0.443666 0.06 0 0.452562 0.06 0 0.46193 0.06 0 0.471824 0.06 0 0.482296 0.06 0 0.493389 0.06 0 0.505101 0.06 0 0.517252 0.06 0 0.529406 0.06 0 0.541427 0.06 0 0.553322 0.06 0 0.565129 0.06 0 0.576888 0.06 0 0.58863 0.06 0 0.600364 0.06 0 0.612098 0.06 0 0.623844 0.06 0 0.626452 0.06 0 0.628987 0.06 0 0.631476 0.06 0 0.633935 0.06 0 0.636373 0.06 0 0.638794 0.06 0 0.641204 0.06 0 0.643608 0.06 0 0.646009 0.06 0 0.648412 0.06 0 0.650817 0.06 0 0.653224 0.06 0 0.655627 0.06 0 0.658025 0.06 0 0.660417 0.06 0 0.662803 0.06 0 0.665184 0.06 0 0.667563 0.06 0 0.66994 0.06 0 0.672315 0.06 0 0.674688 0.06 0 0.677061 0.06 0 0.679433 0.06 0 0.681804 0.06 0 0.684174 0.06 0 0.686544 0.06 0 0.688914 0.06 0 0.691283 0.06 0 0.693652 0.06 0 0.696021 0.06 0 0.69839 0.06 0 0.700759 0.06 0 0.703128 0.06 0 0.705499 0.06 0
[...]
			<PointData Scalars="VitesseX">
				<DataArray Name="VitesseX" type="Float32" format="ascii">
 0 -2.42218e-15 -4.7255e-15 -7.17786e-15 -8.9444e-15 -8.57525e-15 -1.00418e-14 -1.18685e-14 -1.56819e-14 -1.74244e-14 -1.78804e-14 -2.12914e-14 -1.92213e-14 -1.52626e-14 -1.32255e-14 -2.1078e-14 -1.7934e-14 -1.35853e-14 -9.73293e-15 -2.17802e-14 -2.65297e-14 -6.61345e-15 -1.27466e-14 -3.01764e-14 -1.8441e-14 -4.33077e-14 -1.34319e-14 -3.00627e-14 -1.72494e-14 -2.13915e-14 -5.30579e-14 -3.21695e-14 -3.43406e-14 -2.83137e-14 -2.38715e-14 -3.43161e-14 -3.14552e-14 -3.13461e-14 -2.15448e-14 -2.70522e-14 -3.12166e-14 -4.08406e-14 -3.5388e-14 -1.51604e-14 -2.83876e-14 -4.55745e-14 -2.11294e-14 5.39802e-15 -2.69322e-14 -2.23271e-14 1.86806e-14 4.96255e-13 4.12105e-12 2.91978e-11 1.99583e-10 1.28333e-09 7.74552e-09 4.37442e-08 2.30438e-07 1.12809e-06 5.11024e-06 2.13145e-05 8.1374e-05 0.000282369 0.000883267 0.00246793 0.00610501 0.0132888 0.0254488 0.043231 0.0661945 0.0932248 0.123193 0.155317 0.189169 0.224557 0.261416 0.299749 0.339601 0.38104 0.424158 0.469061 0.515868 0.564708 0.615704 0.668952 0.724467 0.782036 0.840853 0.898417 0.947126 0.965425 0.953341 0.942835 0.934592 0.929959 0.927953 0.927131 0.926687 0.9264 0.926216 0.926186 0.926157 0.926129 0.926102 0.926074 0.926047 0.92602 0.925993 0.925967 0.92594 0.925913 0.925886 0.925859 0.925832 0.925804 0.925776 0.925746 0.925716 0.925683 0.92565 0.92561 0.925573 0.925523 0.925483 0.925416 0.925376 0.92528 0.925247 0.92509 0.925075 0.92478 0.924784 0.924135 0.924173 0.922512 0.922646 0.918087 0.91852 0.90624 0.907615 0.877874 0.881837 0.820353 0.821998 0.717888 0.669895 0.542416 0.429954 0.300725 0.187408 0.100095 0.0458679 0.018627 0.0070512 0.00258194 0.000931394 0.000333367 0.000118654 4.201e-05 1.47893e-05 5.17335e-06 1.79676e-06 6.19102e-07 2.11473e-07 7.15575e-08 2.39703e-08 7.94392e-09 2.60315e-09 8.43036e-10 2.69606e-10 8.50865e-11 2.64826e-11 8.14257e-12 2.27063e-12 6.92645e-13 1.48757e-13 9.98675e-14 3.30326e-14 9.51321e-14 6.71357e-14 -3.77135e-15 -9.54947e-15 4.83591e-14 1.5572e-14 2.2837e-14 2.6314e-14 4.72309e-14 1.74688e-14 -7.17449e-14 1.07367e-13 1.67115e-14 -7.64223e-14 7.84203e-14 -8.61749e-14 6.03883e-14 -2.63778e-15 7.93087e-14 8.79372e-14 -6.97361e-14 0 0 -2.61997e-15 -4.6546e-15 -5.87608e-15 -7.14817e-15 -1.22528e-14 -1.00528e-14 -1.3423e-14 -1.7849e-14 -1.91233e-14 -1.47284e-14 -2.20721e-14 -2.18659e-14 -7.58205e-15 -2.14773e-14 -1.82984e-14 -1.59084e-14 -1.18261e-14 -1.39562e-14 -1.44973e-14 -1.45371e-14 -1.34274e-14 -1.96386e-14 -8.58491e-15 -2.62839e-14 -2.87707e-14 -2.87158e-14 -3.78251e-14 -2.79258e-14 -2.63063e-14 -2.90815e-14 -3.48065e-14 -3.83321e-14 -2.4831e-14 -3.68193e-14 -2.63434e-14 -3.3221e-14 -2.42986e-14 -4.40966e-14 -3.29021e-14 -1.10548e-14 -4.44091e-14 -2.20798e-14 -3.76849e-14 -1.43437e-14 -3.52649e-14 -3.43756e-14 -1.11564e-14 -2.72577e-14 -6.13874e-15 3.14734e-14 5.22928e-13 4.08666e-12 2.92453e-11 1.99602e-10 1.28335e-09 7.74547e-09 4.37442e-08 2.30438e-07 1.12809e-06 5.11024e-06 2.13145e-05 8.1374e-05 0.000282369 0.000883267 0.00246793 0.00610501 0.0132888 0.0254488 0.043231 0.0661945 0.0932248 0.123193 0.155317 0.189169 0.224557 0.261416 0.299749 0.339601 0.38104 0.424158 0.469061 0.515868 0.564708 0.615704 0.668952 0.724467 0.782036 0.840853 0.898417 0.947126 0.965425 0.953341 0.942835 0.934592 0.929959 0.927953 0.927131 0.926687 0.9264 0.926216 0.926186 0.926157 0.926129 0.926102 0.926074 0.926047 0.92602 0.925993 0.925967 0.92594 0.925913 0.925886 0.925859 0.925832 0.925804 0.925776 0.925746 0.925716 0.925683 0.92565 0.92561 0.925573 0.925523 0.925483 0.925416 0.925376 0.92528 0.925247 0.92509 0.925075 0.92478 0.924784 0.924135 0.924173 0.922512 0.922646 0.918087 0.91852 0.90624 0.907615 0.877874 0.881837 0.820353 0.821998 0.717888 0.669895 0.542416 0.429954 0.300725 0.187408 0.100095 0.0458679 0.018627 0.0070512 0.00258194 0.000931394 0.000333367 0.000118654 4.201e-05 1.47893e-05 5.17335e-06 1.79676e-06 6.19102e-07 2.11473e-07 7.15576e-08 2.39702e-08 7.94393e-09 2.60314e-09 8.42991e-10 2.69623e-10 8.51753e-11 2.63926e-11 8.06293e-12 2.32313e-12 6.396e-13 1.48257e-13 9.50787e-14 2.90812e-14 7.28653e-14 7.56792e-14 -7.03311e-14 4.71773e-15 5.57463e-14 1.03134e-13 7.6441e-14 -1.05911e-13 6.76485e-14 2.3581e-14 6.53969e-14 -8.66747e-14 1.06235e-13 -2.91238e-15 2.34206e-14 6.75775e-14 -8.89738e-14 1.1303e-13 -3.96367e-14 2.84487e-15 -3.86977e-14 0 0 -2.76084e-15 -4.03557e-15 -6.88912e-15 -9.26692e-15 -1.18548e-14 -1.82268e-14 -1.86987e-14 -1.90352e-14 -1.71151e-14 -1.92142e-14 -2.50877e-14 -1.37457e-14 -1.02958e-14 -6.22693e-15 -1.57074e-14 -1.30264e-14 -1.05189e-14 -5.54968e-15 -1.27787e-14 -1.07837e-14 -2.21994e-14 -9.69997e-15 1.1791e-15 -2.07948e-14 -1.91772e-14 -2.5022e-14 -4.80159e-14 -1.24241e-14 -4.77611e-14 -2.97231e-14 -3.15146e-14 -4.9994e-14 -4.41182e-14 -2.99281e-14 -2.64862e-14 -3.74096e-14 -3.32345e-14 -5.66496e-14 -2.94963e-14 -8.82697e-15 -4.31269e-14 -2.23576e-14 -1.19256e-14 -1.22731e-14 -4.99587e-14 -2.33402e-14 -1.7785e-14 -2.61155e-14 1.07498e-14 6.45033e-14 6.06094e-13 4.05971e-12 2.92992e-11 1.99635e-10 1.28337e-09 7.74545e-09 4.37443e-08 2.30438e-07 1.12809e-06 5.11024e-06 2.13145e-05 8.1374e-05 0.000282369 0.000883267 0.00246793 0.00610501 0.0132888 0.0254488 0.043231 0.0661945 0.0932248 0.123193 0.155317 0.189169 0.224557 0.261416 0.299749 0.339601 0.38104 0.424158 0.469061 0.515868 0.564708 0.615704 0.668952 0.724467 0.782036 0.840853 0.898417 0.947126 0.965425 0.953341 0.942835 0.934592 0.929959 0.927953 0.927131 0.926687 0.9264 0.926216 0.926186 0.926157 0.926129 0.926102 0.926074 0.926047 0.92602 0.925993 0.925967 0.92594 0.925913 0.925886 0.925859 0.925832 0.925804 0.925776 0.925746 0.925716 0.925683 0.92565 0.92561 0.925573 0.925523 0.925483 0.925416 0.925376 0.92528 0.925247 0.92509 0.925075 0.92478 0.924784 0.924135 0.924173 0.922512 0.922646 0.918087 0.91852 0.90624 0.907615 0.877874 0.881837 0.820353 0.821998 0.717888 0.669895 0.542416 0.429954 0.300725 0.187408 0.100095 0.0458679 0.018627 0.0070512 0.00258194 0.000931394 0.000333367 0.000118654 4.201e-05 1.47893e-05 5.17335e-06 1.79676e-06 6.19102e-07 2.11473e-07 7.15575e-08 2.39702e-08 7.94387e-09 2.60315e-09 8.43019e-10 2.69558e-10 8.51324e-11 2.63905e-11 8.09373e-12 2.27184e-12 5.49573e-13 1.93907e-13 -1.38325e-14 1.15639e-13 2.69866e-14 8.8658e-14 -4.26149e-14 -1.03612e-13 6.41231e-14 8.83479e-14 1.06881e-13 -7.24877e-14 -7.62359e-14 8.26001e-14 6.49538e-14 1.47894e-14 9.74133e-15 4.42498e-14 2.96061e-14 8.02976e-14 -2.06168e-14 5.44725e-14 -2.87894e-14 -1.30318e-13 1.32842e-14 0 0 -2.10903e-15 -4.69592e-15 -6.61482e-15 -1.09517e-14 -1.27089e-14 -2.01494e-14 -1.79728e-14 -2.26832e-14 -1.95603e-14 -1.62647e-14 -1.06024e-14 -1.22231e-14 -6.3763e-15 1.37388e-15 -8.98195e-15 -7.98215e-15 -7.78795e-15 -8.42993e-15 -6.69902e-15 -6.25938e-15 -1.86841e-14 -1.76697e-14 -1.96537e-14 -8.17465e-15 -1.62858e-14 -1.98111e-14 -2.97693e-14 -2.20005e-14 -4.25692e-14 -5.0909e-14 -7.07531e-14 -2.3809e-14 -5.41388e-14 -2.6113e-14 -2.22431e-14 -4.90971e-14 -5.2368e-14 -3.84941e-14 -4.79157e-14 -1.78e-14 -1.59328e-14 -3.74695e-15 4.96021e-15 -2.42482e-14 -3.96524e-14 -2.10191e-14 3.36895e-14 -2.46839e-14 6.45841e-15 7.5616e-14 6.51105e-13 4.13097e-12 2.93103e-11 1.99672e-10 1.28338e-09 7.7455e-09 4.37443e-08 2.30438e-07 1.12809e-06 5.11024e-06 2.13145e-05 8.1374e-05 0.000282369 0.000883267 0.00246793 0.00610501 0.0132888 0.0254488 0.043231 0.0661945 0.0932248 0.123193 0.155317 0.189169 0.224557 0.261416 0.299749 0.339601 0.38104 0.424158 0.469061 0.515868 0.564708 0.615704 0.668952 0.724467 0.782036 0.840853 0.898417 0.947126 0.965425 0.953341 0.942835 0.934592 0.929959 0.927953 0.927131 0.926687 0.9264 0.926216 0.926186 0.926157 0.926129 0.926102 0.926074 0.926047 0.92602 0.925993 0.925967 0.92594 0.925913 0.925886 0.925859 0.925832 0.925804 0.925776 0.925746 0.925716 0.925683 0.92565 0.92561 0.925573 0.925523 0.925483 0.925416 0.925376 0.92528 0.925247 0.92509 0.925075 0.92478 0.924784 0.924135 0.924173 0.922512 0.922646 0.918087 0.91852 0.90624 0.907615 0.877874 0.881837 0.820353 0.821998 0.717888 0.669895 0.542416 0.429954 0.300725 0.187408 0.100095 0.0458679 0.018627 0.0070512 0.00258194 0.000931394 0.000333367 0.000118654 4.201e-05 1.47893e-05 5.17335e-06 1.79676e-06 6.19102e-07 2.11473e-07 7.15574e-08 2.39704e-08 7.94389e-09 2.60314e-09 8.42939e-10 2.69437e-10 8.50267e-11 2.64074e-11 8.07408e-12 2.21833e-12 5.58198e-13 1.46712e-13 -7.09474e-14 4.89415e-14 1.48031e-13 2.83885e-14 -2.64156e-14 -1.07548e-13 6.01571e-14 5.97044e-14 3.43201e-13 -6.70011e-14 -2.58089e-13 6.40041e-14 -8.13535e-14 5.71498e-14 1.0741e-15 7.01139e-14 1.07521e-13 -7.3489e-14 1.42725e-13 1.64248e-14 -2.92823e-14 -7.63491e-14 4.28736e-14 0 0 -8.21331e-16 -5.90774e-15 -5.63143e-15 -1.09229e-14 -1.86953e-14 -1.49679e-14 -1.49293e-14 -2.49217e-14 -1.53337e-14 -9.20649e-15 3.8762e-15 -9.0608e-15 3.31534e-15 5.63979e-15 3.70126e-15 -1.02515e-15 -1.43071e-14 -2.26106e-14 -8.68118e-15 -1.52519e-15 -1.03125e-14 -1.84627e-14 -2.04419e-14 -2.65706e-14 -1.55384e-15 -4.59029e-14 -1.66273e-14 -5.16596e-14 -3.04896e-14 -6.28537e-14 -9.25193e-14 -7.39048e-15 -3.07146e-14 -6.03484e-14 -1.1314e-14 -4.92062e-14 -2.98293e-14 -2.50697e-14 -5.86602e-14 -3.80183e-15 -1.93242e-14 -4.05136e-15 5.83231e-15 -1.99916e-14 -6.32419e-15 -1.62251e-14 4.22079e-14 -8.34731e-15 3.57103e-14 6.94427e-14 6.47041e-13 4.15126e-12 2.92964e-11 1.99692e-10 1.28349e-09 7.74551e-09 4.37442e-08 2.30438e-07 1.12809e-06 5.11024e-06 2.13145e-05 8.1374e-05 0.000282369 0.000883267 0.00246793 0.00610501 0.0132888 0.0254488 0.043231 0.0661945 0.0932248 0.123193 0.155317 0.189169 0.224557 0.261416 0.299749 0.339601 0.38104 0.424158 0.469061 0.515868 0.564708 0.615704 0.668952 0.724467 0.782036 0.840853 0.898417 0.947126 0.965425 0.953341 0.942835 0.934592 0.929959 0.927953 0.927131 0.926687 0.9264 0.926216 0.926186 0.926157 0.926129 0.926102 0.926074 0.926047 0.92602 0.925993 0.925967 0.92594 0.925913 0.925886 0.925859 0.925832 0.925804 0.925776 0.925746 0.925716 0.925683 0.92565 0.92561 0.925573 0.925523 0.925483 0.925416 0.925376 0.92528 0.925247 0.92509 0.925075 0.92478 0.924784 0.924135 0.924173 0.922512 0.922646 0.918087 0.91852 0.90624 0.907615 0.877874 0.881837 0.820353 0.821998 0.717888 0.669895 0.542416 0.429954 0.300725 0.187408 0.100095 0.0458679 0.018627 0.0070512 0.00258194 0.000931394 0.000333367 0.000118654 4.201e-05 1.47893e-05 5.17335e-06 1.79676e-06 6.19102e-07 2.11473e-07 7.15575e-08 2.39703e-08 7.94389e-09 2.60311e-09 8.42873e-10 2.69478e-10 8.50515e-11 2.63149e-11 7.9426e-12 2.35306e-12 3.04313e-13 1.55164e-13 1.07727e-13 -4.23679e-14 1.54591e-13 -3.90974e-14 -6.88886e-14 2.54119e-15 6.28643e-14 9.63852e-14 2.83793e-13 -6.43394e-15 -1.36954e-13 -7.76084e-14 -1.40178e-13 -1.71639e-14 6.30109e-14 5.73553e-14 1.33384e-13 -1.1153e-13 1.10879e-13 1.18271e-13 -1.03287e-13 -9.6739e-16 -2.92462e-15 0 0 -1.28536e-16 -5.91107e-15 -7.23717e-15 -1.31242e-14 -1.97521e-14 -1.6027e-14 -1.63329e-14 -2.25314e-14 -4.95507e-15 -1.27356e-14 1.63461e-15 3.34368e-15 -1.30693e-15 2.58071e-14 9.4703e-15 1.74407e-15 -2.40092e-14 -2.12813e-14 -2.23072e-14 -9.55454e-15 -7.41416e-15 5.54453e-15 -1.22249e-14 -4.42548e-14 5.34325e-15 -5.8228e-14 -2.41604e-14 -4.55642e-14 -4.01419e-14 -7.82304e-14 -6.9118e-14 -2.48273e-14 -2.00398e-14 -7.85601e-14 -1.27434e-14 -4.00507e-14 -4.1405e-15 -1.98019e-14 -4.17296e-14 1.23549e-15 -4.50592e-14 -3.65524e-14 3.81023e-14 -1.57331e-14 -8.30566e-15 1.05295e-14 9.17745e-15 8.02535e-15 6.99537e-14 7.23939e-14 6.54458e-13 4.10775e-12 2.92779e-11 1.99689e-10 1.28358e-09 7.74551e-09 4.37443e-08 2.30438e-07 1.12809e-06 5.11024e-06 2.13145e-05 8.1374e-05 0.000282369 0.000883267 0.00246793 0.00610501 0.0132888 0.0254488 0.043231 0.0661945 0.0932248 0.123193 0.155317 0.189169 0.224557 0.261416 0.299749 0.339601 0.38104 0.424158 0.469061 0.515868 0.564708 0.615704 0.668952 0.724467 0.782036 0.840853 0.898417 0.947126 0.965425 0.953341 0.942835 0.934592 0.929959 0.927953 0.927131 0.926687 0.9264 0.926216 0.926186 0.926157 0.926129 0.926102 0.926074 0.926047 0.92602 0.925993 0.925967 0.92594 0.925913 0.925886 0.925859 0.925832 0.925804 0.925776 0.925746 0.925716 0.925683 0.92565 0.92561 0.925573 0.925523 0.925483 0.925416 0.925376 0.92528 0.925247 0.92509 0.925075 0.92478 0.924784 0.924135 0.924173 0.922512 0.922646 0.918087 0.91852 0.90624 0.907615 0.877874 0.881837 0.820353 0.821998 0.717888 0.669895 0.542416 0.429954 0.300725 0.187408 0.100095 0.0458679 0.018627 0.0070512 0.00258194 0.000931394 0.000333367 0.000118654 4.201e-05 1.47893e-05 5.17335e-06 1.79676e-06 6.19102e-07 2.11473e-07 7.15575e-08 2.39702e-08 7.94378e-09 2.60312e-09 8.42959e-10 2.69557e-10 8.50497e-11 2.62932e-11 7.94082e-12 2.43759e-12 5.69496e-15 2.57216e-13 2.39126e-13 2.42896e-14 1.73893e-14 -4.13679e-14 -3.30437e-14 -6.2717e-15 7.04463e-14 5.97631e-14 -3.45437e-14 2.14254e-13 1.80582e-15 -1.47528e-13 -1.90547e-13 1.6121e-13 -5.24605e-14 -7.62955e-15 1.42165e-13 -1.3681e-13 1.3325e-13 8.3477e-14 -4.723e-14 -2.7822e-14 -5.7317e-14 0
				</DataArray>
				<DataArray Name="VitesseY" type="Float32" format="ascii">