<?xml version="1.0"?>
<VTKFile type="PolyData">
	<PolyData>
		<Piece NumberOfPoints="1206" NumberOfPolys="1000">
			<Points>
				<DataArray type="Float32" NumberOfComponents="3" format="ascii">
 0 0 0 0.005 0 0 0.01 0 0 0.015 0 0 0.02 0 0 0.025 0 0 0.03 0 0 0.035 0 0 0.04 0 0 0.045 0 0 0.05 0 0 0.055 0 0 0.06 0 0 0.065 0 0 0.07 0 0 0.075 0 0 0.08 0 0 0.085 0 0 0.09 0 0 0.095 0 0 0.1 0 0 0.105 0 0 0.11 0 0 0.115 0 0 0.12 0 0 0.125 0 0 0.13 0 0 0.135 0 0 0.14 0 0 0.145 0 0 0.15 0 0 0.155 0 0 0.16 0 0 0.165 0 0 0.17 0 0 0.175 0 0 0.18 0 0 0.185 0 0 0.19 0 0 0.195 0 0 0.2 0 0 0.205 0 0 0.21 0 0 0.215 0 0 0.22 0 0 0.225 0 0 0.23 0 0 0.235 0 0 0.240001 0 0 0.245004 0 0 0.25001 0 0 0.255025 0 0 0.260056 0 0 0.265114 0 0 0.270214 0 0 0.27537 0 0 0.280596 0 0 0.285904 0 0 0.291302 0 0 0.2968 0 0 0.302403 0 0 0.308117 0 0 0.31395 0 0 0.319907 0 0 0.325995 0 0 0.332221 0 0 0.338592 0 0 0.345118 0 0 0.351805 0 0 0.358665 0 0 0.365706 0 0 0.372941 0 0 0.380381 0 0 0.388039 0 0 0.39593 0 0 0.40407 0 0 0.412476 0 0 0.421169 0 0 0.430168 0 0 0.439498 0 0 0.449184 0 0 0.459253 0 0 0.469733 0 0 0.48065 0 0 0.492015 0 0 0.503805 0 0 0.515888 0 0 0.527981 0 0 0.539991 0 0 0.551911 0 0 0.563754 0 0 0.575542 0 0 0.587295 0 0 0.599032 0 0 0.61076 0 0 0.622485 0 0 0.634208 0 0 0.645931 0 0 0.657655 0 0 0.669381 0 0 0.681121 0 0 0.683728 0 0 0.686262 0 0 0.688751 0 0 0.691209 0 0 0.693645 0 0 0.696066 0 0 0.698475 0 0 0.700878 0 0 0.703278 0 0 0.70568 0 0 0.708085 0 0 0.71049 0 0 0.712893 0 0 0.71529 0 0 0.71768 0 0 0.720065 0 0 0.722446 0 0 0.724824 0 0 0.727199 0 0 0.729573 0 0 0.731946 0 0 0.734317 0 0 0.736688 0 0 0.739058 0 0 0.741427 0 0 0.743796 0 0 0.746164 0 0 0.748531 0 0 0.750899 0 0 0.753266 0 0 0.755632 0 0 0.757999 0 0 0.760365 0 0 0.762731 0 0 0.765097 0 0 0.767463 0 0 0.769829 0 0 0.772195 0 0 0.77456 0 0 0.776926 0 0 0.779292 0 0 0.781657 0 0 0.784023 0 0 0.786389 0 0 0.788754 0 0 0.79112 0 0 0.793486 0 0 0.795851 0 0 0.798217 0 0 0.800583 0 0 0.802949 0 0 0.805315 0 0 0.807682 0 0 0.810049 0 0 0.812416 0 0 0.814785 0 0 0.817155 0 0 0.819529 0 0 0.821907 0 0 0.824296 0 0 0.826696 0 0 0.829124 0 0 0.831578 0 0 0.834095 0 0 0.836667 0 0 0.839364 0 0 0.84219 0 0 0.845252 0 0 0.848583 0 0 0.852256 0 0 0.856284 0 0 0.860651 0 0 0.865293 0 0 0.870119 0 0 0.875046 0 0 0.880017 0 0 0.885006 0 0 0.890002 0 0 0.895001 0 0 0.9 0 0 0.905 0 0 0.91 0 0 0.915 0 0 0.92 0 0 0.925 0 0 0.93 0 0 0.935 0 0 0.94 0 0 0.945 0 0 0.95 0 0 0.955 0 0 0.96 0 0 0.965 0 0 0.97 0 0 0.975 0 0 0.98 0 0 0.985 0 0 0.99 0 0 0.995 0 0 1 0 0 0 0.02 0 0.005 0.02 0 0.01 0.02 0 0.015 0.02 0 0.02 0.02 0 0.025 0.02 0 0.03 0.02 0 0.035 0.02 0 0.04 0.02 0 0.045 0.02 0 0.05 0.02 0 0.055 0.02 0 0.06 0.02 0 0.065 0.02 0 0.07 0.02 0 0.075 0.02 0 0.08 0.02 0 0.085 0.02 0 0.09 0.02 0 0.095 0.02 0 0.1 0.02 0 0.105 0.02 0 0.11 0.02 0 0.115 0.02 0 0.12 0.02 0 0.125 0.02 0 0.13 0.02 0 0.135 0.02 0 0.14 0.02 0 0.145 0.02 0 0.15 0.02 0 0.155 0.02 0 0.16 0.02 0 0.165 0.02 0 0.17 0.02 0 0.175 0.02 0 0.18 0.02 0 0.185 0.02 0 0.19 0.02 0 0.195 0.02 0 0.2 0.02 0 0.205 0.02 0 0.21 0.02 0 0.215 0.02 0 0.22 0.02 0 0.225 0.02 0 0.23 0.02 0 0.235 0.02 0 0.240001 0.02 0 0.245004 0.02 0 0.25001 0.02 0 0.255025 0.02 0 0.260056 0.02 0 0.265114 0.02 0 0.270214 0.02 0 0.27537 0.02 0 0.280596 0.02 0 0.285904 0.02 0 0.291302 0.02 0 0.2968 0.02 0 0.302403 0.02 0 0.308117 0.02 0 0.31395 0.02 0 0.319907 0.02 0 0.325995 0.02 0 0.332221 0.02 0 0.338592 0.02 0 0.345118 0.02 0 0.351805 0.02 0 0.358665 0.02 0 0.365706 0.02 0 0.372941 0.02 0 0.380381 0.02 0 0.388039 0.02 0 0.39593 0.02 0 0.40407 0.02 0 0.412476 0.02 0 0.421169 0.02 0 0.430168 0.02 0 0.439498 0.02 0 0.449184 0.02 0 0.459253 0.02 0 0.469733 0.02 0 0.48065 0.02 0 0.492015 0.02 0 0.503805 0.02 0 0.515888 0.02 0 0.527981 0.02 0 0.539991 0.02 0 0.551911 0.02 0 0.563754 0.02 0 0.575542 0.02 0 0.587295 0.02 0 0.599032 0.02 0 0.61076 0.02 0 0.622485 0.02 0 0.634208 0.02 0 0.645931 0.02 0 0.657655 0.02 0 0.669381 0.02 0 0.681121 0.02 0 0.683728 0.02 0 0.686262 0.02 0 0.688751 0.02 0 0.691209 0.02 0 0.693645 0.02 0 0.696066 0.02 0 0.698475 0.02 0 0.700878 0.02 0 0.703278 0.02 0 0.70568 0.02 0 0.708085 0.02 0 0.71049 0.02 0 0.712893 0.02 0 0.71529 0.02 0 0.71768 0.02 0 0.720065 0.02 0 0.722446 0.02 0 0.724824 0.02 0 0.727199 0.02 0 0.729573 0.02 0 0.731946 0.02 0 0.734317 0.02 0 0.736688 0.02 0 0.739058 0.02 0 0.741427 0.02 0 0.743796 0.02 0 0.746164 0.02 0 0.748531 0.02 0 0.750899 0.02 0 0.753266 0.02 0 0.755632 0.02 0 0.757999 0.02 0 0.760365 0.02 0 0.762731 0.02 0 0.765097 0.02 0 0.767463 0.02 0 0.769829 0.02 0 0.772195 0.02 0 0.77456 0.02 0 0.776926 0.02 0 0.779292 0.02 0 0.781657 0.02 0 0.784023 0.02 0 0.786389 0.02 0 0.788754 0.02 0 0.79112 0.02 0 0.793486 0.02 0 0.795851 0.02 0 0.798217 0.02 0 0.800583 0.02 0 0.802949 0.02 0 0.805315 0.02 0 0.807682 0.02 0 0.810049 0.02 0 0.812416 0.02 0 0.814785 0.02 0 0.817155 0.02 0 0.819529 0.02 0 0.821907 0.02 0 0.824296 0.02 0 0.826696 0.02 0 0.829124 0.02 0 0.831578 0.02 0 0.834095 0.02 0 0.836667 0.02 0 0.839364 0.02 0 0.84219 0.02 0 0.845252 0.02 0 0.848583 0.02 0 0.852256 0.02 0 0.856284 0.02 0 0.860651 0.02 0 0.865293 0.02 0 0.870119 0.02 0 0.875046 0.02 0 0.880017 0.02 0 0.885006 0.02 0 0.890002 0.02 0 0.895001 0.02 0 0.9 0.02 0 0.905 0.02 0 0.91 0.02 0 0.915 0.02 0 0.92 0.02 0 0.925 0.02 0 0.93 0.02 0 0.935 0.02 0 0.94 0.02 0 0.945 0.02 0 0.95 0.02 0 0.955 0.02 0 0.96 0.02 0 0.965 0.02 0 0.97 0.02 0 0.975 0.02 0 0.98 0.02 0 0.985 0.02 0 0.99 0.02 0 0.995 0.02 0 1 0.02 0 0 0.04 0 0.005 0.04 0 0.01 0.04 0 0.015 0.04 0 0.02 0.04 0 0.025 0.04 0 0.03 0.04 0 0.035 0.04 0 0.04 0.04 0 0.045 0.04 0 0.05 0.04 0 0.055 0.04 0 0.06 0.04 0 0.065 0.04 0 0.07 0.04 0 0.075 0.04 0 0.08 0.04 0 0.085 0.04 0 0.09 0.04 0 0.095 0.04 0 0.1 0.04 0 0.105 0.04 0 0.11 0.04 0 0.115 0.04 0 0.12 0.04 0 0.125 0.04 0 0.13 0.04 0 0.135 0.04 0 0.14 0.04 0 0.145 0.04 0 0.15 0.04 0 0.155 0.04 0 0.16 0.04 0 0.165 0.04 0 0.17 0.04 0 0.175 0.04 0 0.18 0.04 0 0.185 0.04 0 0.19 0.04 0 0.195 0.04 0 0.2 0.04 0 0.205 0.04 0 0.21 0.04 0 0.215 0.04 0 0.22 0.04 0 0.225 0.04 0 0.23 0.04 0 0.235 0.04 0 0.240001 0.04 0 0.245004 0.04 0 0.25001 0.04 0 0.255025 0.04 0 0.260056 0.04 0 0.265114 0.04 0 0.270214 0.04 0 0.27537 0.04 0 0.280596 0.04 0 0.285904 0.04 0 0.291302 0.04 0 0.2968 0.04 0 0.302403 0.04 0 0.308117 0.04 0 0.31395 0.04 0 0.319907 0.04 0 0.325995 0.04 0 0.332221 0.04 0 0.338592 0.04 0 0.345118 0.04 0 0.351805 0.04 0 0.358665 0.04 0 0.365706 0.04 0 0.372941 0.04 0 0.380381 0.04 0 0.388039 0.04 0 0.39593 0.04 0 0.40407 0.04 0 0.412476 0.04 0 0.421169 0.04 0 0.430168 0.04 0 0.439498 0.04 0 0.449184 0.04 0 0.459253 0.04 0 0.469733 0.04 0 0.48065 0.04 0 0.492015 0.04 0 0.503805 0.04 0 0.515888 0.04 0 0.527981 0.04 0 0.539991 0.04 0 0.551911 0.04 0 0.563754 0.04 0 0.575542 0.04 0 0.587295 0.04 0 0.599032 0.04 0 0.61076 0.04 0 0.622485 0.04 0 0.634208 0.04 0 0.645931 0.04 0 0.657655 0.04 0 0.669381 0.04 0 0.681121 0.04 0 0.683728 0.04 0 0.686262 0.04 0 0.688751 0.04 0 0.691209 0.04 0 0.693645 0.04 0 0.696066 0.04 0 0.698475 0.04 0 0.700878 0.04 0 0.703278 0.04 0 0.70568 0.04 0 0.708085 0.04 0 0.71049 0.04 0 0.712893 0.04 0 0.71529 0.04 0 0.71768 0.04 0 0.720065 0.04 0 0.722446 0.04 0 0.724824 0.04 0 0.727199 0.04 0 0.729573 0.04 0 0.731946 0.04 0 0.734317 0.04 0 0.736688 0.04 0 0.739058 0.04 0 0.741427 0.04 0 0.743796 0.04 0 0.746164 0.04 0 0.748531 0.04 0 0.750899 0.04 0 0.753266 0.04 0 0.755632 0.04 0 0.757999 0.04 0 0.760365 0.04 0 0.762731 0.04 0 0.765097 0.04 0 0.767463 0.04 0 0.769829 0.04 0 0.772195 0.04 0 0.77456 0.04 0 0.776926 0.04 0 0.779292 0.04 0 0.781657 0.04 0 0.784023 0.04 0 0.786389 0.04 0 0.788754 0.04 0 0.79112 0.04 0 0.793486 0.04 0 0.795851 0.04 0 0.798217 0.04 0 0.800583 0.04 0 0.802949 0.04 0 0.805315 0.04 0 0.807682 0.04 0 0.810049 0.04 0 0.812416 0.04 0 0.814785 0.04 0 0.817155 0.04 0 0.819529 0.04 0 0.821907 0.04 0 0.824296 0.04 0 0.826696 0.04 0 0.829124 0.04 0 0.831578 0.04 0 0.834095 0.04 0 0.836667 0.04 0 0.839364 0.04 0 0.84219 0.04 0 0.845252 0.04 0 0.848583 0.04 0 0.852256 0.04 0 0.856284 0.04 0 0.860651 0.04 0 0.865293 0.04 0 0.870119 0.04 0 0.875046 0.04 0 0.880017 0.04 0 0.885006 0.04 0 0.890002 0.04 0 0.895001 0.04 0 0.9 0.04 0 0.905 0.04 0 0.91 0.04 0 0.915 0.04 0 0.92 0.04 0 0.925 0.04 0 0.93 0.04 0 0.935 0.04 0 0.94 0.04 0 0.945 0.04 0 0.95 0.04 0 0.955 0.04 0 0.96 0.04 0 0.965 0.04 0 0.97 0.04 0 0.975 0.04 0 0.98 0.04 0 0.985 0.04 0 0.99 0.04 0 0.995 0.04 0 1 0.04 0 0 0.06 0 0.005 0.06 0 0.01 0.06 0 0.015 0.06 0 0.02 0.06 0 0.025 0.06 0 0.03 0.06 0 0.035 0.06 0 0.04 0.06 0 0.045 0.06 0 0.05 0.06 0 0.055 0.06 0 0.06 0.06 0 0.065 0.06 0 0.07 0.06 0 0.075 0.06 0 0.08 0.06 0 0.085 0.06 0 0.09 0.06 0 0.095 0.06 0 0.1 0.06 0 0.105 0.06 0 0.11 0.06 0 0.115 0.06 0 0.12 0.06 0 0.125 0.06 0 0.13 0.06 0 0.135 0.06 0 0.14 0.06 0 0.145 0.06 0 0.15 0.06 0 0.155 0.06 0 0.16 0.06 0 0.165 0.06 0 0.17 0.06 0 0.175 0.06 0 0.18 0.06 0 0.185 0.06 0 0.19 0.06 0 0.195 0.06 0 0.2 0.06 0 0.205 0.06 0 0.21 0.06 0 0.215 0.06 0 0.22 0.06 0 0.225 0.06 0 0.23 0.06 0 0.235 0.06 0 0.240001 0.06 0 0.245004 0.06 0 0.25001 0.06 0 0.255025 0.06 0 0.260056 0.06 0 0.265114 0.06 0 0.270214 0.06 0 0.27537 0.06 0 0.280596 0.06 0 0.285904 0.06 0 0.291302 0.06 0 0.2968 0.06 0 0.302403 0.06 0 0.308117 0.06 0 0.31395 0.06 0 0.319907 0.06 0 0.325995 0.06 0 0.332221 0.06 0 0.338592 0.06 0 0.345118 0.06 0 0.351805 0.06 0 0.358665 0.06 0 0.365706 0.06 0 0.372941 0.06 0 0.380381 0.06 0 0.388039 0.06 0 0.39593 0.06 0 0.40407 0.06 0 0.412476 0.06 0 0.421169 0.06 0 0.430168 0.06 0 0.439498 0.06 0 0.449184 0.06 0 0.459253 0.06 0 0.469733 0.06 0 0.48065 0.06 0 0.492015 0.06 0 0.503805 0.06 0 0.515888 0.06 0 0.527981 0.06 0 0.539991 0.06 0 0.551911 0.06 0 0.563754 0.06 0 0.575542 0.06 0 0.587295 0.06 0 0.599032 0.06 0 0.61076 0.06 0 0.622485 0.06 0 0.634208 0.06 0 0.645931 0.06 0 0.657655 0.06 0 0.669381 0.06 0 0.681121 0.06 0 0.683728 0.06 0 0.686262 0.06 0 0.688751 0.06 0 0.691209 0.06 0 0.693645 0.06 0 0.696066 0.06 0 0.698475 0.06 0 0.700878 0.06 0
[...]
			<PointData Scalars="VitesseX">
				<DataArray Name="VitesseX" type="Float32" format="ascii">
 0 1.54895e-15 8.16605e-15 8.04762e-15 8.8595e-15 3.80859e-15 4.63772e-15 5.54045e-15 3.47777e-15 -3.60935e-15 -1.82608e-15 -1.32719e-14 -6.57294e-15 -1.52055e-14 -1.34514e-14 -1.43391e-14 -2.08688e-14 -4.05909e-14 -3.44443e-14 -3.74933e-14 -2.09582e-14 -4.47829e-14 -3.37335e-14 -2.90669e-14 -3.77151e-14 1.78378e-14 -2.79461e-14 -9.07982e-15 -2.17319e-14 -8.76542e-15 -2.01943e-14 -2.09158e-14 -4.05906e-15 7.9576e-14 4.26752e-13 2.50978e-12 1.47892e-11 8.20615e-11 4.35633e-10 2.20041e-09 1.05622e-08 4.80742e-08 2.07011e-07 8.41153e-07 3.21582e-06 1.15289e-05 3.86079e-05 0.000120224 0.000346293 0.000917165 0.00221948 0.00487868 0.00970267 0.017455 0.0285422 0.0428435 0.0598245 0.0788221 0.0992758 0.120808 0.1432 0.166333 0.190151 0.214629 0.239761 0.265551 0.292015 0.319172 0.347048 0.375673 0.405079 0.435304 0.46639 0.49838 0.531323 0.565268 0.600265 0.636363 0.673603 0.712006 0.751557 0.792153 0.833499 0.874841 0.914256 0.946682 0.959378 0.952021 0.944842 0.937995 0.932873 0.929681 0.927974 0.927148 0.92675 0.92654 0.926414 0.926331 0.926271 0.926223 0.926183 0.926175 0.926168 0.926161 0.926154 0.926147 0.926141 0.926133 0.926126 0.926119 0.926111 0.926104 0.926096 0.926088 0.92608 0.926072 0.926064 0.926056 0.926049 0.926041 0.926033 0.926025 0.926016 0.926008 0.925999 0.92599 0.925981 0.925971 0.92596 0.925949 0.925938 0.925926 0.925913 0.9259 0.925887 0.925873 0.925859 0.925844 0.92583 0.925815 0.925801 0.925784 0.92577 0.92575 0.925735 0.92571 0.925696 0.925658 0.925647 0.925583 0.925578 0.925455 0.925456 0.925185 0.925199 0.924512 0.924564 0.922675 0.922842 0.917573 0.918096 0.903994 0.905635 0.872205 0.876789 0.809553 0.807827 0.698818 0.640696 0.511336 0.394051 0.267451 0.1601 0.0819314 0.0362012 0.014391 0.00540686 0.00198201 0.000719505 0.00026019 9.39292e-05 3.3873e-05 1.22039e-05 4.3922e-06 1.57874e-06 5.66577e-07 2.02948e-07 7.2532e-08 2.58536e-08 9.18693e-09 3.25309e-09 1.14726e-09 4.02742e-10 1.40548e-10 4.88207e-11 1.68122e-11 5.64468e-12 1.90265e-12 6.48028e-13 1.38781e-13 0 0 2.42393e-15 5.11311e-15 5.3315e-15 8.10535e-15 7.97015e-15 1.21169e-15 3.44995e-15 3.08006e-15 -2.5786e-15 -5.60939e-15 -9.15915e-15 -1.26702e-14 -1.19214e-14 -1.50199e-14 -1.4524e-14 -1.86745e-14 -3.87381e-14 -3.75751e-14 -3.59054e-14 -3.77902e-14 -3.4094e-14 -1.70903e-14 -2.78144e-14 -3.04167e-14 -2.17995e-14 -7.15025e-15 -1.74701e-14 -1.59106e-14 -6.74452e-15 -8.20291e-15 -2.41725e-14 -1.01119e-15 7.86553e-14 4.19189e-13 2.56869e-12 1.4762e-11 8.20839e-11 4.35615e-10 2.20045e-09 1.05621e-08 4.80742e-08 2.07011e-07 8.41154e-07 3.21582e-06 1.15289e-05 3.86079e-05 0.000120224 0.000346293 0.000917165 0.00221948 0.00487868 0.00970267 0.017455 0.0285422 0.0428435 0.0598245 0.0788221 0.0992758 0.120808 0.1432 0.166333 0.190151 0.214629 0.239761 0.265551 0.292015 0.319172 0.347048 0.375673 0.405079 0.435304 0.46639 0.49838 0.531323 0.565268 0.600265 0.636363 0.673603 0.712006 0.751557 0.792153 0.833499 0.874841 0.914256 0.946682 0.959378 0.952021 0.944842 0.937995 0.932873 0.929681 0.927974 0.927148 0.92675 0.92654 0.926414 0.926331 0.926271 0.926223 0.926183 0.926175 0.926168 0.926161 0.926154 0.926147 0.926141 0.926133 0.926126 0.926119 0.926111 0.926104 0.926096 0.926088 0.92608 0.926072 0.926064 0.926056 0.926049 0.926041 0.926033 0.926025 0.926016 0.926008 0.925999 0.92599 0.925981 0.925971 0.92596 0.925949 0.925938 0.925926 0.925913 0.9259 0.925887 0.925873 0.925859 0.925844 0.92583 0.925815 0.925801 0.925784 0.92577 0.92575 0.925735 0.92571 0.925696 0.925658 0.925647 0.925583 0.925578 0.925455 0.925456 0.925185 0.925199 0.924512 0.924564 0.922675 0.922842 0.917573 0.918096 0.903994 0.905635 0.872205 0.876789 0.809553 0.807827 0.698818 0.640696 0.511336 0.394051 0.267451 0.1601 0.0819314 0.0362012 0.014391 0.00540686 0.00198201 0.000719505 0.00026019 9.39292e-05 3.3873e-05 1.22039e-05 4.3922e-06 1.57874e-06 5.66577e-07 2.02948e-07 7.2532e-08 2.58536e-08 9.18697e-09 3.25309e-09 1.14723e-09 4.02794e-10 1.40654e-10 4.87659e-11 1.67751e-11 5.6318e-12 1.79409e-12 5.768e-13 1.4556e-13 0 0 2.2737e-15 4.05712e-15 4.6949e-15 6.3543e-15 5.08412e-15 2.00697e-15 4.05658e-15 -4.21201e-15 -9.22735e-15 -2.18951e-15 -7.5065e-15 -1.07427e-14 -1.2385e-14 -2.26576e-14 -1.74101e-14 -4.13214e-14 -2.344e-14 -3.53438e-14 -3.36318e-14 -3.51297e-14 -4.88198e-14 -1.26785e-14 -6.73369e-15 -2.30374e-14 -1.27736e-14 -2.63126e-14 -3.45748e-14 -1.04623e-14 -1.11441e-14 3.28481e-15 -2.5305e-14 3.19865e-14 9.92594e-14 4.85838e-13 2.59981e-12 1.47838e-11 8.21118e-11 4.3561e-10 2.20046e-09 1.05621e-08 4.80742e-08 2.07011e-07 8.41153e-07 3.21582e-06 1.15289e-05 3.86079e-05 0.000120224 0.000346293 0.000917165 0.00221948 0.00487868 0.00970267 0.017455 0.0285422 0.0428435 0.0598245 0.0788221 0.0992758 0.120808 0.1432 0.166333 0.190151 0.214629 0.239761 0.265551 0.292015 0.319172 0.347048 0.375673 0.405079 0.435304 0.46639 0.49838 0.531323 0.565268 0.600265 0.636363 0.673603 0.712006 0.751557 0.792153 0.833499 0.874841 0.914256 0.946682 0.959378 0.952021 0.944842 0.937995 0.932873 0.929681 0.927974 0.927148 0.92675 0.92654 0.926414 0.926331 0.926271 0.926223 0.926183 0.926175 0.926168 0.926161 0.926154 0.926147 0.926141 0.926133 0.926126 0.926119 0.926111 0.926104 0.926096 0.926088 0.92608 0.926072 0.926064 0.926056 0.926049 0.926041 0.926033 0.926025 0.926016 0.926008 0.925999 0.92599 0.925981 0.925971 0.92596 0.925949 0.925938 0.925926 0.925913 0.9259 0.925887 0.925873 0.925859 0.925844 0.92583 0.925815 0.925801 0.925784 0.92577 0.92575 0.925735 0.92571 0.925696 0.925658 0.925647 0.925583 0.925578 0.925455 0.925456 0.925185 0.925199 0.924512 0.924564 0.922675 0.922842 0.917573 0.918096 0.903994 0.905635 0.872205 0.876789 0.809553 0.807827 0.698818 0.640696 0.511336 0.394051 0.267451 0.1601 0.0819314 0.0362012 0.014391 0.00540686 0.00198201 0.000719505 0.00026019 9.39292e-05 3.3873e-05 1.22039e-05 4.3922e-06 1.57874e-06 5.66577e-07 2.02948e-07 7.2532e-08 2.58535e-08 9.18699e-09 3.25309e-09 1.14725e-09 4.02663e-10 1.40722e-10 4.87375e-11 1.67234e-11 5.57958e-12 1.67034e-12 5.17503e-13 1.51507e-13 0 0 -1.7511e-15 1.03765e-16 2.5041e-15 2.045e-15 2.7628e-15 1.4965e-15 3.97799e-16 -7.65141e-15 -6.37353e-15 -8.67754e-15 -1.4186e-14 -2.42001e-14 -1.71516e-14 -2.7008e-14 -1.72167e-14 -3.65798e-14 -1.8687e-14 -3.59088e-14 -3.31911e-14 -1.15617e-14 -5.1582e-14 -3.18062e-14 -2.14445e-14 -3.69281e-15 7.42163e-15 -2.08501e-14 -3.83333e-14 -2.01588e-14 -1.74713e-14 1.24599e-14 -8.68875e-15 4.5677e-14 1.39893e-13 5.22926e-13 2.62919e-12 1.48433e-11 8.2132e-11 4.35646e-10 2.20043e-09 1.05621e-08 4.80742e-08 2.07011e-07 8.41153e-07 3.21582e-06 1.15289e-05 3.86079e-05 0.000120224 0.000346293 0.000917165 0.00221948 0.00487868 0.00970267 0.017455 0.0285422 0.0428435 0.0598245 0.0788221 0.0992758 0.120808 0.1432 0.166333 0.190151 0.214629 0.239761 0.265551 0.292015 0.319172 0.347048 0.375673 0.405079 0.435304 0.46639 0.49838 0.531323 0.565268 0.600265 0.636363 0.673603 0.712006 0.751557 0.792153 0.833499 0.874841 0.914256 0.946682 0.959378 0.952021 0.944842 0.937995 0.932873 0.929681 0.927974 0.927148 0.92675 0.92654 0.926414 0.926331 0.926271 0.926223 0.926183 0.926175 0.926168 0.926161 0.926154 0.926147 0.926141 0.926133 0.926126 0.926119 0.926111 0.926104 0.926096 0.926088 0.92608 0.926072 0.926064 0.926056 0.926049 0.926041 0.926033 0.926025 0.926016 0.926008 0.925999 0.92599 0.925981 0.925971 0.92596 0.925949 0.925938 0.925926 0.925913 0.9259 0.925887 0.925873 0.925859 0.925844 0.92583 0.925815 0.925801 0.925784 0.92577 0.92575 0.925735 0.92571 0.925696 0.925658 0.925647 0.925583 0.925578 0.925455 0.925456 0.925185 0.925199 0.924512 0.924564 0.922675 0.922842 0.917573 0.918096 0.903994 0.905635 0.872205 0.876789 0.809553 0.807827 0.698818 0.640696 0.511336 0.394051 0.267451 0.1601 0.0819314 0.0362012 0.014391 0.00540686 0.00198201 0.000719505 0.00026019 9.39292e-05 3.3873e-05 1.22039e-05 4.3922e-06 1.57874e-06 5.66577e-07 2.02948e-07 7.2532e-08 2.58536e-08 9.18704e-09 3.25295e-09 1.14733e-09 4.02484e-10 1.40637e-10 4.87029e-11 1.66336e-11 5.50673e-12 1.81734e-12 4.92206e-13 1.10686e-13 0 0 -5.36598e-15 -8.28694e-15 -4.17154e-15 -2.54571e-15 2.90437e-15 -2.65625e-15 -1.5857e-14 -8.53352e-15 3.65432e-16 -1.55652e-14 -2.47399e-14 -3.41835e-14 -3.30747e-14 -2.59139e-14 -2.53223e-14 -1.40241e-14 -3.90461e-14 -3.28479e-14 -3.18614e-14 2.53328e-15 -2.11757e-14 -2.50052e-14 -2.67106e-14 -2.5114e-14 -1.26935e-14 2.38515e-14 -1.75546e-14 -2.82259e-14 -1.50971e-14 1.88858e-14 -8.8338e-15 3.2858e-14 1.52097e-13 5.40311e-13 2.66952e-12 1.48443e-11 8.21253e-11 4.35676e-10 2.20045e-09 1.05621e-08 4.80742e-08 2.07011e-07 8.41153e-07 3.21582e-06 1.15289e-05 3.86079e-05 0.000120224 0.000346293 0.000917165 0.00221948 0.00487868 0.00970267 0.017455 0.0285422 0.0428435 0.0598245 0.0788221 0.0992758 0.120808 0.1432 0.166333 0.190151 0.214629 0.239761 0.265551 0.292015 0.319172 0.347048 0.375673 0.405079 0.435304 0.46639 0.49838 0.531323 0.565268 0.600265 0.636363 0.673603 0.712006 0.751557 0.792153 0.833499 0.874841 0.914256 0.946682 0.959378 0.952021 0.944842 0.937995 0.932873 0.929681 0.927974 0.927148 0.92675 0.92654 0.926414 0.926331 0.926271 0.926223 0.926183 0.926175 0.926168 0.926161 0.926154 0.926147 0.926141 0.926133 0.926126 0.926119 0.926111 0.926104 0.926096 0.926088 0.92608 0.926072 0.926064 0.926056 0.926049 0.926041 0.926033 0.926025 0.926016 0.926008 0.925999 0.92599 0.925981 0.925971 0.92596 0.925949 0.925938 0.925926 0.925913 0.9259 0.925887 0.925873 0.925859 0.925844 0.92583 0.925815 0.925801 0.925784 0.92577 0.92575 0.925735 0.92571 0.925696 0.925658 0.925647 0.925583 0.925578 0.925455 0.925456 0.925185 0.925199 0.924512 0.924564 0.922675 0.922842 0.917573 0.918096 0.903994 0.905635 0.872205 0.876789 0.809553 0.807827 0.698818 0.640696 0.511336 0.394051 0.267451 0.1601 0.0819314 0.0362012 0.014391 0.00540686 0.00198201 0.000719505 0.00026019 9.39292e-05 3.3873e-05 1.22039e-05 4.3922e-06 1.57874e-06 5.66577e-07 2.02948e-07 7.2532e-08 2.58536e-08 9.18693e-09 3.25287e-09 1.14732e-09 4.02476e-10 1.40534e-10 4.85439e-11 1.6751e-11 5.47843e-12 1.92923e-12 3.47152e-13 2.49994e-13 0 0 -5.98128e-15 -1.07273e-14 -6.57687e-15 -3.82402e-15 -1.68031e-15 -2.07722e-15 -2.5756e-14 -1.28706e-14 -3.42892e-15 -8.76159e-15 -3.10744e-14 -2.26848e-14 -4.79789e-14 -2.65387e-14 -3.63225e-14 -2.10512e-14 -5.07128e-14 -2.386e-14 -3.02869e-14 1.25529e-14 -1.34221e-14 -1.13081e-14 2.56233e-15 -6.57988e-14 -4.34062e-15 2.31325e-14 -1.73176e-15 -2.69694e-14 -1.28161e-14 1.5633e-14 -2.3471e-14 3.62982e-14 1.45191e-13 5.94823e-13 2.65268e-12 1.48346e-11 8.21038e-11 4.35681e-10 2.20048e-09 1.0562e-08 4.80742e-08 2.07011e-07 8.41153e-07 3.21582e-06 1.15289e-05 3.86079e-05 0.000120224 0.000346293 0.000917165 0.00221948 0.00487868 0.00970267 0.017455 0.0285422 0.0428435 0.0598245 0.0788221 0.0992758 0.120808 0.1432 0.166333 0.190151 0.214629 0.239761 0.265551 0.292015 0.319172 0.347048 0.375673 0.405079 0.435304 0.46639 0.49838 0.531323 0.565268 0.600265 0.636363 0.673603 0.712006 0.751557 0.792153 0.833499 0.874841 0.914256 0.946682 0.959378 0.952021 0.944842 0.937995 0.932873 0.929681 0.927974 0.927148 0.92675 0.92654 0.926414 0.926331 0.926271 0.926223 0.926183 0.926175 0.926168 0.926161 0.926154 0.926147 0.926141 0.926133 0.926126 0.926119 0.926111 0.926104 0.926096 0.926088 0.92608 0.926072 0.926064 0.926056 0.926049 0.926041 0.926033 0.926025 0.926016 0.926008 0.925999 0.92599 0.925981 0.925971 0.92596 0.925949 0.925938 0.925926 0.925913 0.9259 0.925887 0.925873 0.925859 0.925844 0.92583 0.925815 0.925801 0.925784 0.92577 0.92575 0.925735 0.92571 0.925696 0.925658 0.925647 0.925583 0.925578 0.925455 0.925456 0.925185 0.925199 0.924512 0.924564 0.922675 0.922842 0.917573 0.918096 0.903994 0.905635 0.872205 0.876789 0.809553 0.807827 0.698818 0.640696 0.511336 0.394051 0.267451 0.1601 0.0819314 0.0362012 0.014391 0.00540686 0.00198201 0.000719505 0.00026019 9.39292e-05 3.3873e-05 1.22039e-05 4.3922e-06 1.57874e-06 5.66577e-07 2.02948e-07 7.2532e-08 2.58536e-08 9.18675e-09 3.25293e-09 1.14731e-09 4.02467e-10 1.40478e-10 4.84457e-11 1.69429e-11 5.48311e-12 1.8793e-12 2.40013e-13 4.29511e-13 0
				</DataArray>
				<DataArray Name="VitesseY" type="Float32" format="ascii">