<?xml version="1.0"?>
<VTKFile type="PolyData">
	<PolyData>
		<Piece NumberOfPoints="1206" NumberOfPolys="1000">
			<Points>
				<DataArray type="Float32" NumberOfComponents="3" format="ascii">
 0 0 0 0.005 0 0 0.01 0 0 0.015 0 0 0.02 0 0 0.025 0 0 0.03 0 0 0.035 0 0 0.04 0 0 0.045 0 0 0.05 0 0 0.055 0 0 0.06 0 0 0.065 0 0 0.07 0 0 0.075 0 0 0.08 0 0 0.085 0 0 0.09 0 0 0.095 0 0 0.1 0 0 0.105 0 0 0.11 0 0 0.115 0 0 0.12 0 0 0.125 0 0 0.13 0 0 0.135 0 0 0.14 0 0 0.145 0 0 0.15 0 0 0.155 0 0 0.16 0 0 0.165 0 0 0.17 0 0 0.175 0 0 0.18 0 0 0.185 0 0 0.19 0 0 0.195 0 0 0.2 0 0 0.205 0 0 0.21 0 0 0.215 0 0 0.22 0 0 0.225 0 0 0.23 0 0 0.235 0 0 0.24 0 0 0.245 0 0 0.250001 0 0 0.255002 0 0 0.260006 0 0 0.265017 0 0 0.270039 0 0 0.275084 0 0 0.280166 0 0 0.2853 0 0 0.290502 0 0 0.295786 0 0 0.301163 0 0 0.306641 0 0 0.31223 0 0 0.317935 0 0 0.323764 0 0 0.329724 0 0 0.335823 0 0 0.342068 0 0 0.348467 0 0 0.355031 0 0 0.361768 0 0 0.36869 0 0 0.375808 0 0 0.383135 0 0 0.390685 0 0 0.398474 0 0 0.406517 0 0 0.414835 0 0 0.423449 0 0 0.43238 0 0 0.441654 0 0 0.4513 0 0 0.461348 0 0 0.471827 0 0 0.482765 0 0 0.494175 0 0 0.506021 0 0 0.518135 0 0 0.530222 0 0 0.542219 0 0 0.554123 0 0 0.565951 0 0 0.577727 0 0 0.589474 0 0 0.601208 0 0 0.612935 0 0 0.62466 0 0 0.636384 0 0 0.648109 0 0 0.659835 0 0 0.671576 0 0 0.674183 0 0 0.676717 0 0 0.679206 0 0 0.681664 0 0 0.6841 0 0 0.686521 0 0 0.68893 0 0 0.691333 0 0 0.693734 0 0 0.696136 0 0 0.69854 0 0 0.700946 0 0 0.703349 0 0 0.705746 0 0 0.708136 0 0 0.710521 0 0 0.712902 0 0 0.71528 0 0 0.717656 0 0 0.72003 0 0 0.722402 0 0 0.724774 0 0 0.727145 0 0 0.729515 0 0 0.731884 0 0 0.734253 0 0 0.736621 0 0 0.738989 0 0 0.741356 0 0 0.743723 0 0 0.74609 0 0 0.748457 0 0 0.750823 0 0 0.753189 0 0 0.755556 0 0 0.757922 0 0 0.760288 0 0 0.762653 0 0 0.765019 0 0 0.767385 0 0 0.769751 0 0 0.772117 0 0 0.774483 0 0 0.776849 0 0 0.779214 0 0 0.78158 0 0 0.783946 0 0 0.786313 0 0 0.788679 0 0 0.791046 0 0 0.793413 0 0 0.795782 0 0 0.798152 0 0 0.800524 0 0 0.802901 0 0 0.805284 0 0 0.807681 0 0 0.810094 0 0 0.812542 0 0 0.815025 0 0 0.817585 0 0 0.820214 0 0 0.823 0 0 0.825953 0 0 0.829181 0 0 0.832717 0 0 0.836611 0 0 0.840854 0 0 0.845402 0 0 0.850169 0 0 0.855066 0 0 0.860025 0 0 0.865009 0 0 0.870003 0 0 0.875001 0 0 0.88 0 0 0.885 0 0 0.89 0 0 0.895 0 0 0.9 0 0 0.905 0 0 0.91 0 0 0.915 0 0 0.92 0 0 0.925 0 0 0.93 0 0 0.935 0 0 0.94 0 0 0.945 0 0 0.95 0 0 0.955 0 0 0.96 0 0 0.965 0 0 0.97 0 0 0.975 0 0 0.98 0 0 0.985 0 0 0.99 0 0 0.995 0 0 1 0 0 0 0.02 0 0.005 0.02 0 0.01 0.02 0 0.015 0.02 0 0.02 0.02 0 0.025 0.02 0 0.03 0.02 0 0.035 0.02 0 0.04 0.02 0 0.045 0.02 0 0.05 0.02 0 0.055 0.02 0 0.06 0.02 0 0.065 0.02 0 0.07 0.02 0 0.075 0.02 0 0.08 0.02 0 0.085 0.02 0 0.09 0.02 0 0.095 0.02 0 0.1 0.02 0 0.105 0.02 0 0.11 0.02 0 0.115 0.02 0 0.12 0.02 0 0.125 0.02 0 0.13 0.02 0 0.135 0.02 0 0.14 0.02 0 0.145 0.02 0 0.15 0.02 0 0.155 0.02 0 0.16 0.02 0 0.165 0.02 0 0.17 0.02 0 0.175 0.02 0 0.18 0.02 0 0.185 0.02 0 0.19 0.02 0 0.195 0.02 0 0.2 0.02 0 0.205 0.02 0 0.21 0.02 0 0.215 0.02 0 0.22 0.02 0 0.225 0.02 0 0.23 0.02 0 0.235 0.02 0 0.24 0.02 0 0.245 0.02 0 0.250001 0.02 0 0.255002 0.02 0 0.260006 0.02 0 0.265017 0.02 0 0.270039 0.02 0 0.275084 0.02 0 0.280166 0.02 0 0.2853 0.02 0 0.290502 0.02 0 0.295786 0.02 0 0.301163 0.02 0 0.306641 0.02 0 0.31223 0.02 0 0.317935 0.02 0 0.323764 0.02 0 0.329724 0.02 0 0.335823 0.02 0 0.342068 0.02 0 0.348467 0.02 0 0.355031 0.02 0 0.361768 0.02 0 0.36869 0.02 0 0.375808 0.02 0 0.383135 0.02 0 0.390685 0.02 0 0.398474 0.02 0 0.406517 0.02 0 0.414835 0.02 0 0.423449 0.02 0 0.43238 0.02 0 0.441654 0.02 0 0.4513 0.02 0 0.461348 0.02 0 0.471827 0.02 0 0.482765 0.02 0 0.494175 0.02 0 0.506021 0.02 0 0.518135 0.02 0 0.530222 0.02 0 0.542219 0.02 0 0.554123 0.02 0 0.565951 0.02 0 0.577727 0.02 0 0.589474 0.02 0 0.601208 0.02 0 0.612935 0.02 0 0.62466 0.02 0 0.636384 0.02 0 0.648109 0.02 0 0.659835 0.02 0 0.671576 0.02 0 0.674183 0.02 0 0.676717 0.02 0 0.679206 0.02 0 0.681664 0.02 0 0.6841 0.02 0 0.686521 0.02 0 0.68893 0.02 0 0.691333 0.02 0 0.693734 0.02 0 0.696136 0.02 0 0.69854 0.02 0 0.700946 0.02 0 0.703349 0.02 0 0.705746 0.02 0 0.708136 0.02 0 0.710521 0.02 0 0.712902 0.02 0 0.71528 0.02 0 0.717656 0.02 0 0.72003 0.02 0 0.722402 0.02 0 0.724774 0.02 0 0.727145 0.02 0 0.729515 0.02 0 0.731884 0.02 0 0.734253 0.02 0 0.736621 0.02 0 0.738989 0.02 0 0.741356 0.02 0 0.743723 0.02 0 0.74609 0.02 0 0.748457 0.02 0 0.750823 0.02 0 0.753189 0.02 0 0.755556 0.02 0 0.757922 0.02 0 0.760288 0.02 0 0.762653 0.02 0 0.765019 0.02 0 0.767385 0.02 0 0.769751 0.02 0 0.772117 0.02 0 0.774483 0.02 0 0.776849 0.02 0 0.779214 0.02 0 0.78158 0.02 0 0.783946 0.02 0 0.786313 0.02 0 0.788679 0.02 0 0.791046 0.02 0 0.793413 0.02 0 0.795782 0.02 0 0.798152 0.02 0 0.800524 0.02 0 0.802901 0.02 0 0.805284 0.02 0 0.807681 0.02 0 0.810094 0.02 0 0.812542 0.02 0 0.815025 0.02 0 0.817585 0.02 0 0.820214 0.02 0 0.823 0.02 0 0.825953 0.02 0 0.829181 0.02 0 0.832717 0.02 0 0.836611 0.02 0 0.840854 0.02 0 0.845402 0.02 0 0.850169 0.02 0 0.855066 0.02 0 0.860025 0.02 0 0.865009 0.02 0 0.870003 0.02 0 0.875001 0.02 0 0.88 0.02 0 0.885 0.02 0 0.89 0.02 0 0.895 0.02 0 0.9 0.02 0 0.905 0.02 0 0.91 0.02 0 0.915 0.02 0 0.92 0.02 0 0.925 0.02 0 0.93 0.02 0 0.935 0.02 0 0.94 0.02 0 0.945 0.02 0 0.95 0.02 0 0.955 0.02 0 0.96 0.02 0 0.965 0.02 0 0.97 0.02 0 0.975 0.02 0 0.98 0.02 0 0.985 0.02 0 0.99 0.02 0 0.995 0.02 0 1 0.02 0 0 0.04 0 0.005 0.04 0 0.01 0.04 0 0.015 0.04 0 0.02 0.04 0 0.025 0.04 0 0.03 0.04 0 0.035 0.04 0 0.04 0.04 0 0.045 0.04 0 0.05 0.04 0 0.055 0.04 0 0.06 0.04 0 0.065 0.04 0 0.07 0.04 0 0.075 0.04 0 0.08 0.04 0 0.085 0.04 0 0.09 0.04 0 0.095 0.04 0 0.1 0.04 0 0.105 0.04 0 0.11 0.04 0 0.115 0.04 0 0.12 0.04 0 0.125 0.04 0 0.13 0.04 0 0.135 0.04 0 0.14 0.04 0 0.145 0.04 0 0.15 0.04 0 0.155 0.04 0 0.16 0.04 0 0.165 0.04 0 0.17 0.04 0 0.175 0.04 0 0.18 0.04 0 0.185 0.04 0 0.19 0.04 0 0.195 0.04 0 0.2 0.04 0 0.205 0.04 0 0.21 0.04 0 0.215 0.04 0 0.22 0.04 0 0.225 0.04 0 0.23 0.04 0 0.235 0.04 0 0.24 0.04 0 0.245 0.04 0 0.250001 0.04 0 0.255002 0.04 0 0.260006 0.04 0 0.265017 0.04 0 0.270039 0.04 0 0.275084 0.04 0 0.280166 0.04 0 0.2853 0.04 0 0.290502 0.04 0 0.295786 0.04 0 0.301163 0.04 0 0.306641 0.04 0 0.31223 0.04 0 0.317935 0.04 0 0.323764 0.04 0 0.329724 0.04 0 0.335823 0.04 0 0.342068 0.04 0 0.348467 0.04 0 0.355031 0.04 0 0.361768 0.04 0 0.36869 0.04 0 0.375808 0.04 0 0.383135 0.04 0 0.390685 0.04 0 0.398474 0.04 0 0.406517 0.04 0 0.414835 0.04 0 0.423449 0.04 0 0.43238 0.04 0 0.441654 0.04 0 0.4513 0.04 0 0.461348 0.04 0 0.471827 0.04 0 0.482765 0.04 0 0.494175 0.04 0 0.506021 0.04 0 0.518135 0.04 0 0.530222 0.04 0 0.542219 0.04 0 0.554123 0.04 0 0.565951 0.04 0 0.577727 0.04 0 0.589474 0.04 0 0.601208 0.04 0 0.612935 0.04 0 0.62466 0.04 0 0.636384 0.04 0 0.648109 0.04 0 0.659835 0.04 0 0.671576 0.04 0 0.674183 0.04 0 0.676717 0.04 0 0.679206 0.04 0 0.681664 0.04 0 0.6841 0.04 0 0.686521 0.04 0 0.68893 0.04 0 0.691333 0.04 0 0.693734 0.04 0 0.696136 0.04 0 0.69854 0.04 0 0.700946 0.04 0 0.703349 0.04 0 0.705746 0.04 0 0.708136 0.04 0 0.710521 0.04 0 0.712902 0.04 0 0.71528 0.04 0 0.717656 0.04 0 0.72003 0.04 0 0.722402 0.04 0 0.724774 0.04 0 0.727145 0.04 0 0.729515 0.04 0 0.731884 0.04 0 0.734253 0.04 0 0.736621 0.04 0 0.738989 0.04 0 0.741356 0.04 0 0.743723 0.04 0 0.74609 0.04 0 0.748457 0.04 0 0.750823 0.04 0 0.753189 0.04 0 0.755556 0.04 0 0.757922 0.04 0 0.760288 0.04 0 0.762653 0.04 0 0.765019 0.04 0 0.767385 0.04 0 0.769751 0.04 0 0.772117 0.04 0 0.774483 0.04 0 0.776849 0.04 0 0.779214 0.04 0 0.78158 0.04 0 0.783946 0.04 0 0.786313 0.04 0 0.788679 0.04 0 0.791046 0.04 0 0.793413 0.04 0 0.795782 0.04 0 0.798152 0.04 0 0.800524 0.04 0 0.802901 0.04 0 0.805284 0.04 0 0.807681 0.04 0 0.810094 0.04 0 0.812542 0.04 0 0.815025 0.04 0 0.817585 0.04 0 0.820214 0.04 0 0.823 0.04 0 0.825953 0.04 0 0.829181 0.04 0 0.832717 0.04 0 0.836611 0.04 0 0.840854 0.04 0 0.845402 0.04 0 0.850169 0.04 0 0.855066 0.04 0 0.860025 0.04 0 0.865009 0.04 0 0.870003 0.04 0 0.875001 0.04 0 0.88 0.04 0 0.885 0.04 0 0.89 0.04 0 0.895 0.04 0 0.9 0.04 0 0.905 0.04 0 0.91 0.04 0 0.915 0.04 0 0.92 0.04 0 0.925 0.04 0 0.93 0.04 0 0.935 0.04 0 0.94 0.04 0 0.945 0.04 0 0.95 0.04 0 0.955 0.04 0 0.96 0.04 0 0.965 0.04 0 0.97 0.04 0 0.975 0.04 0 0.98 0.04 0 0.985 0.04 0 0.99 0.04 0 0.995 0.04 0 1 0.04 0 0 0.06 0 0.005 0.06 0 0.01 0.06 0 0.015 0.06 0 0.02 0.06 0 0.025 0.06 0 0.03 0.06 0 0.035 0.06 0 0.04 0.06 0 0.045 0.06 0 0.05 0.06 0 0.055 0.06 0 0.06 0.06 0 0.065 0.06 0 0.07 0.06 0 0.075 0.06 0 0.08 0.06 0 0.085 0.06 0 0.09 0.06 0 0.095 0.06 0 0.1 0.06 0 0.105 0.06 0 0.11 0.06 0 0.115 0.06 0 0.12 0.06 0 0.125 0.06 0 0.13 0.06 0 0.135 0.06 0 0.14 0.06 0 0.145 0.06 0 0.15 0.06 0 0.155 0.06 0 0.16 0.06 0 0.165 0.06 0 0.17 0.06 0 0.175 0.06 0 0.18 0.06 0 0.185 0.06 0 0.19 0.06 0 0.195 0.06 0 0.2 0.06 0 0.205 0.06 0 0.21 0.06 0 0.215 0.06 0 0.22 0.06 0 0.225 0.06 0 0.23 0.06 0 0.235 0.06 0 0.24 0.06 0 0.245 0.06 0 0.250001 0.06 0 0.255002 0.06 0 0.260006 0.06 0 0.265017 0.06 0 0.270039 0.06 0 0.275084 0.06 0 0.280166 0.06 0 0.2853 0.06 0 0.290502 0.06 0 0.295786 0.06 0 0.301163 0.06 0 0.306641 0.06 0 0.31223 0.06 0 0.317935 0.06 0 0.323764 0.06 0 0.329724 0.06 0 0.335823 0.06 0 0.342068 0.06 0 0.348467 0.06 0 0.355031 0.06 0 0.361768 0.06 0 0.36869 0.06 0 0.375808 0.06 0 0.383135 0.06 0 0.390685 0.06 0 0.398474 0.06 0 0.406517 0.06 0 0.414835 0.06 0 0.423449 0.06 0 0.43238 0.06 0 0.441654 0.06 0 0.4513 0.06 0 0.461348 0.06 0 0.471827 0.06 0 0.482765 0.06 0 0.494175 0.06 0 0.506021 0.06 0 0.518135 0.06 0 0.530222 0.06 0 0.542219 0.06 0 0.554123 0.06 0 0.565951 0.06 0 0.577727 0.06 0 0.589474 0.06 0 0.601208 0.06 0 0.612935 0.06 0 0.62466 0.06 0 0.636384 0.06 0 0.648109 0.06 0 0.659835 0.06 0 0.671576 0.06 0 0.674183 0.06 0 0.676717 0.06 0 0.679206 0.06 0 0.681664 0.06 0 0.6841 0.06 0 0.686521 0.06 0 0.68893 0.06 0 0.691333 0.06 0 0.693734 0.06 0 0.696136 0.06 0 0.69854 0.06 0 0.700946 0.06 0 0.703349 0.06 0 0
[...]
			<PointData Scalars="VitesseX">
				<DataArray Name="VitesseX" type="Float32" format="ascii">
 0 1.09728e-15 1.63581e-15 2.62765e-15 4.24876e-15 1.06965e-14 4.48715e-15 3.8655e-15 7.07224e-15 -3.2141e-15 -1.11981e-14 -1.2652e-15 -8.79361e-15 -1.45281e-14 -1.09107e-14 -1.57506e-14 -1.35669e-14 -1.62576e-14 -3.78129e-14 -4.02409e-14 -4.39364e-14 -2.50041e-14 -3.27548e-14 -3.84575e-14 -3.35185e-14 -3.8695e-14 -2.27332e-14 -2.0936e-14 -3.28917e-14 -1.24164e-14 -3.27571e-15 -1.15439e-14 -2.67173e-14 -2.15766e-14 -6.48322e-15 2.73765e-14 7.48197e-14 6.44333e-13 3.89684e-12 2.32776e-11 1.31964e-10 7.11644e-10 3.64492e-09 1.76976e-08 8.12735e-08 3.52128e-07 1.43528e-06 5.486e-06 1.95899e-05 6.50693e-05 0.00020002 0.000565671 0.00146221 0.00343196 0.00727438 0.0138906 0.0239535 0.037605 0.0544332 0.0737378 0.0948427 0.117258 0.140688 0.164972 0.190034 0.215837 0.242374 0.26965 0.297681 0.326492 0.356112 0.386578 0.41793 0.450212 0.483475 0.517771 0.553157 0.589691 0.627427 0.666416 0.706686 0.74822 0.790903 0.834394 0.877794 0.918752 0.950962 0.959419 0.951152 0.943405 0.936606 0.931816 0.929033 0.927638 0.926985 0.926663 0.926482 0.926368 0.926289 0.926228 0.926176 0.926167 0.926158 0.926149 0.92614 0.926132 0.926124 0.926115 0.926107 0.926099 0.92609 0.926082 0.926073 0.926064 0.926054 0.926045 0.926035 0.926025 0.926015 0.926004 0.925994 0.925983 0.925972 0.925961 0.92595 0.925939 0.925928 0.925917 0.925905 0.925893 0.92588 0.925867 0.925853 0.925838 0.925822 0.925805 0.925787 0.925769 0.925747 0.925728 0.925702 0.925684 0.925651 0.925634 0.925587 0.925576 0.925498 0.925494 0.925338 0.925343 0.924985 0.925007 0.924071 0.924145 0.921545 0.921781 0.914558 0.915299 0.896612 0.898914 0.856614 0.862929 0.780698 0.767696 0.650101 0.569036 0.437445 0.314714 0.197856 0.107635 0.0501151 0.0206092 0.00787164 0.00290492 0.00105707 0.000382509 0.000138071 4.97646e-05 1.79138e-05 6.43948e-06 2.31097e-06 8.27695e-07 2.95739e-07 1.05372e-07 3.74212e-08 1.32398e-08 4.66448e-09 1.63543e-09 5.70324e-10 1.97784e-10 6.81234e-11 2.31962e-11 7.7986e-12 2.53177e-12 7.25609e-13 2.23409e-13 -4.03185e-15 7.28518e-14 8.15354e-14 -6.22645e-14 0 0 1.68997e-15 4.53915e-15 4.44698e-15 5.01897e-15 9.11811e-15 9.27572e-15 5.96231e-15 6.3546e-15 -4.94044e-15 -1.90195e-15 -6.17634e-15 -7.89949e-15 -1.50454e-14 -1.39943e-14 -2.02074e-14 -1.45436e-14 -1.95519e-14 -4.14236e-14 -3.37411e-14 -3.77337e-14 -4.06148e-14 -3.94005e-14 -2.86801e-14 -4.20094e-14 -2.65606e-14 -4.66238e-14 -2.74913e-14 -6.76437e-15 -2.12636e-14 -1.3237e-14 -2.34857e-14 -2.26909e-14 1.72206e-14 -2.43495e-14 1.85877e-14 1.10918e-13 6.46016e-13 3.92755e-12 2.32742e-11 1.31982e-10 7.11637e-10 3.64496e-09 1.76976e-08 8.12736e-08 3.52128e-07 1.43528e-06 5.486e-06 1.95899e-05 6.50693e-05 0.00020002 0.000565671 0.00146221 0.00343196 0.00727438 0.0138906 0.0239535 0.037605 0.0544332 0.0737378 0.0948427 0.117258 0.140688 0.164972 0.190034 0.215837 0.242374 0.26965 0.297681 0.326492 0.356112 0.386578 0.41793 0.450212 0.483475 0.517771 0.553157 0.589691 0.627427 0.666416 0.706686 0.74822 0.790903 0.834394 0.877794 0.918752 0.950962 0.959419 0.951152 0.943405 0.936606 0.931816 0.929033 0.927638 0.926985 0.926663 0.926482 0.926368 0.926289 0.926228 0.926176 0.926167 0.926158 0.926149 0.92614 0.926132 0.926124 0.926115 0.926107 0.926099 0.92609 0.926082 0.926073 0.926064 0.926054 0.926045 0.926035 0.926025 0.926015 0.926004 0.925994 0.925983 0.925972 0.925961 0.92595 0.925939 0.925928 0.925917 0.925905 0.925893 0.92588 0.925867 0.925853 0.925838 0.925822 0.925805 0.925787 0.925769 0.925747 0.925728 0.925702 0.925684 0.925651 0.925634 0.925587 0.925576 0.925498 0.925494 0.925338 0.925343 0.924985 0.925007 0.924071 0.924145 0.921545 0.921781 0.914558 0.915299 0.896612 0.898914 0.856614 0.862929 0.780698 0.767696 0.650101 0.569036 0.437445 0.314714 0.197856 0.107635 0.0501151 0.0206092 0.00787164 0.00290492 0.00105707 0.000382509 0.000138071 4.97646e-05 1.79138e-05 6.43948e-06 2.31097e-06 8.27695e-07 2.95739e-07 1.05372e-07 3.74213e-08 1.32398e-08 4.6644e-09 1.63547e-09 5.70421e-10 1.97702e-10 6.80634e-11 2.32073e-11 7.71265e-12 2.63102e-12 7.97195e-13 1.0439e-13 4.12162e-14 -2.46232e-14 3.01445e-14 4.2372e-15 0 0 2.61244e-15 6.65417e-15 5.63587e-15 7.87863e-15 7.95402e-15 1.02216e-14 8.41324e-15 4.19075e-15 -6.32925e-15 4.64097e-16 -1.00283e-14 -6.0755e-15 -1.21215e-14 -1.69554e-14 -1.67324e-14 -2.23518e-14 -3.69614e-14 -3.22763e-14 -3.56643e-14 -3.84042e-14 -3.48936e-14 -5.712e-14 -4.52663e-14 -3.30304e-14 -1.70362e-14 -2.81193e-14 -2.2126e-14 -1.54021e-14 -3.26639e-14 -2.44359e-14 -1.19247e-14 -1.42427e-14 -6.2879e-15 2.41305e-14 1.90004e-14 1.53029e-13 6.73763e-13 3.96489e-12 2.33012e-11 1.32018e-10 7.11659e-10 3.64493e-09 1.76976e-08 8.12736e-08 3.52128e-07 1.43528e-06 5.486e-06 1.95899e-05 6.50693e-05 0.00020002 0.000565671 0.00146221 0.00343196 0.00727438 0.0138906 0.0239535 0.037605 0.0544332 0.0737378 0.0948427 0.117258 0.140688 0.164972 0.190034 0.215837 0.242374 0.26965 0.297681 0.326492 0.356112 0.386578 0.41793 0.450212 0.483475 0.517771 0.553157 0.589691 0.627427 0.666416 0.706686 0.74822 0.790903 0.834394 0.877794 0.918752 0.950962 0.959419 0.951152 0.943405 0.936606 0.931816 0.929033 0.927638 0.926985 0.926663 0.926482 0.926368 0.926289 0.926228 0.926176 0.926167 0.926158 0.926149 0.92614 0.926132 0.926124 0.926115 0.926107 0.926099 0.92609 0.926082 0.926073 0.926064 0.926054 0.926045 0.926035 0.926025 0.926015 0.926004 0.925994 0.925983 0.925972 0.925961 0.92595 0.925939 0.925928 0.925917 0.925905 0.925893 0.92588 0.925867 0.925853 0.925838 0.925822 0.925805 0.925787 0.925769 0.925747 0.925728 0.925702 0.925684 0.925651 0.925634 0.925587 0.925576 0.925498 0.925494 0.925338 0.925343 0.924985 0.925007 0.924071 0.924145 0.921545 0.921781 0.914558 0.915299 0.896612 0.898914 0.856614 0.862929 0.780698 0.767696 0.650101 0.569036 0.437445 0.314714 0.197856 0.107635 0.0501151 0.0206092 0.00787164 0.00290492 0.00105707 0.000382509 0.000138071 4.97646e-05 1.79138e-05 6.43948e-06 2.31097e-06 8.27695e-07 2.95739e-07 1.05372e-07 3.74213e-08 1.32398e-08 4.66436e-09 1.63545e-09 5.70317e-10 1.97761e-10 6.79266e-11 2.32104e-11 7.66596e-12 2.51492e-12 7.87735e-13 1.42578e-13 4.46099e-14 -5.03428e-14 2.79213e-15 -5.54937e-14 0 0 1.15647e-15 1.66578e-15 2.27825e-15 5.26307e-15 5.62329e-15 1.24399e-14 4.25571e-15 5.92667e-15 -7.21101e-15 -1.03243e-14 -6.36655e-15 -1.18829e-14 -1.61542e-14 -8.68741e-15 -2.60051e-14 -3.13859e-14 -3.12112e-14 -2.79388e-14 -3.7877e-14 -3.66477e-14 -2.42189e-14 -3.54947e-14 -6.3496e-14 -3.6429e-14 -2.28773e-14 -4.02822e-16 -2.81618e-14 -1.79381e-14 -1.98143e-14 -2.53761e-14 -1.31675e-14 -2.42459e-14 -1.06506e-14 3.87856e-14 5.52934e-14 1.8543e-13 7.29452e-13 4.00267e-12 2.33421e-11 1.32021e-10 7.11674e-10 3.64487e-09 1.76976e-08 8.12736e-08 3.52128e-07 1.43528e-06 5.486e-06 1.95899e-05 6.50693e-05 0.00020002 0.000565671 0.00146221 0.00343196 0.00727438 0.0138906 0.0239535 0.037605 0.0544332 0.0737378 0.0948427 0.117258 0.140688 0.164972 0.190034 0.215837 0.242374 0.26965 0.297681 0.326492 0.356112 0.386578 0.41793 0.450212 0.483475 0.517771 0.553157 0.589691 0.627427 0.666416 0.706686 0.74822 0.790903 0.834394 0.877794 0.918752 0.950962 0.959419 0.951152 0.943405 0.936606 0.931816 0.929033 0.927638 0.926985 0.926663 0.926482 0.926368 0.926289 0.926228 0.926176 0.926167 0.926158 0.926149 0.92614 0.926132 0.926124 0.926115 0.926107 0.926099 0.92609 0.926082 0.926073 0.926064 0.926054 0.926045 0.926035 0.926025 0.926015 0.926004 0.925994 0.925983 0.925972 0.925961 0.92595 0.925939 0.925928 0.925917 0.925905 0.925893 0.92588 0.925867 0.925853 0.925838 0.925822 0.925805 0.925787 0.925769 0.925747 0.925728 0.925702 0.925684 0.925651 0.925634 0.925587 0.925576 0.925498 0.925494 0.925338 0.925343 0.924985 0.925007 0.924071 0.924145 0.921545 0.921781 0.914558 0.915299 0.896612 0.898914 0.856614 0.862929 0.780698 0.767696 0.650101 0.569036 0.437445 0.314714 0.197856 0.107635 0.0501151 0.0206092 0.00787164 0.00290492 0.00105707 0.000382509 0.000138071 4.97646e-05 1.79138e-05 6.43948e-06 2.31097e-06 8.27695e-07 2.95739e-07 1.05372e-07 3.74213e-08 1.32397e-08 4.6644e-09 1.63532e-09 5.7028e-10 1.97701e-10 6.79051e-11 2.32651e-11 7.60251e-12 2.49369e-12 5.34694e-13 1.34524e-13 8.02244e-14 8.56481e-14 -1.00796e-13 -4.90404e-14 0 0 1.71947e-15 5.95774e-16 3.52557e-15 1.91447e-15 -1.27356e-15 8.06129e-15 1.05463e-14 5.70326e-15 -5.24264e-15 -1.53959e-14 -7.82141e-15 -1.97116e-14 -1.79439e-14 -2.0842e-14 -4.52613e-14 -4.78704e-14 -1.48447e-14 -4.41679e-14 -1.32772e-14 -2.98354e-14 -4.53398e-14 -3.72193e-14 -1.63314e-14 -3.23974e-14 -1.04444e-14 -2.32058e-14 -2.87428e-14 -1.83931e-14 -1.93305e-15 -1.7595e-14 -2.38986e-14 -2.41739e-14 2.83331e-14 -2.5062e-14 6.52615e-14 2.24043e-13 7.74203e-13 4.03563e-12 2.33586e-11 1.32049e-10 7.1163e-10 3.64489e-09 1.76976e-08 8.12736e-08 3.52128e-07 1.43528e-06 5.486e-06 1.95899e-05 6.50693e-05 0.00020002 0.000565671 0.00146221 0.00343196 0.00727438 0.0138906 0.0239535 0.037605 0.0544332 0.0737378 0.0948427 0.117258 0.140688 0.164972 0.190034 0.215837 0.242374 0.26965 0.297681 0.326492 0.356112 0.386578 0.41793 0.450212 0.483475 0.517771 0.553157 0.589691 0.627427 0.666416 0.706686 0.74822 0.790903 0.834394 0.877794 0.918752 0.950962 0.959419 0.951152 0.943405 0.936606 0.931816 0.929033 0.927638 0.926985 0.926663 0.926482 0.926368 0.926289 0.926228 0.926176 0.926167 0.926158 0.926149 0.92614 0.926132 0.926124 0.926115 0.926107 0.926099 0.92609 0.926082 0.926073 0.926064 0.926054 0.926045 0.926035 0.926025 0.926015 0.926004 0.925994 0.925983 0.925972 0.925961 0.92595 0.925939 0.925928 0.925917 0.925905 0.925893 0.92588 0.925867 0.925853 0.925838 0.925822 0.925805 0.925787 0.925769 0.925747 0.925728 0.925702 0.925684 0.925651 0.925634 0.925587 0.925576 0.925498 0.925494 0.925338 0.925343 0.924985 0.925007 0.924071 0.924145 0.921545 0.921781 0.914558 0.915299 0.896612 0.898914 0.856614 0.862929 0.780698 0.767696 0.650101 0.569036 0.437445 0.314714 0.197856 0.107635 0.0501151 0.0206092 0.00787164 0.00290492 0.00105707 0.000382509 0.000138071 4.97646e-05 1.79138e-05 6.43948e-06 2.31097e-06 8.27695e-07 2.95739e-07 1.05372e-07 3.74213e-08 1.32395e-08 4.66444e-09 1.63518e-09 5.70338e-10 1.97576e-10 6.80566e-11 2.31713e-11 7.50257e-12 2.51767e-12 4.83357e-13 1.61001e-13 8.8593e-14 1.41348e-13 -1.74837e-13 -6.85472e-16 0 0 4.06822e-15 3.72584e-15 7.50005e-15 3.27088e-15 -5.42541e-15 -2.37833e-15 2.13485e-14 2.29771e-15 -2.05497e-15 -1.66093e-14 -1.18789e-14 -2.08031e-14 -1.22598e-14 -4.11422e-14 -4.73131e-14 -6.21522e-14 -1.83439e-14 -5.19764e-14 5.11238e-15 -3.16529e-14 -5.58032e-14 -7.16429e-14 2.26993e-14 -7.49719e-15 5.21968e-15 -3.13303e-14 -1.13672e-14 -5.10771e-14 5.45614e-16 -1.01113e-14 -9.88394e-15 -9.67696e-15 9.37399e-15 -3.72184e-14 4.81381e-14 2.36264e-13 7.8933e-13 4.03744e-12 2.33646e-11 1.3209e-10 7.11602e-10 3.6449e-09 1.76976e-08 8.12736e-08 3.52128e-07 1.43528e-06 5.486e-06 1.95899e-05 6.50693e-05 0.00020002 0.000565671 0.00146221 0.00343196 0.00727438 0.0138906 0.0239535 0.037605 0.0544332 0.0737378 0.0948427 0.117258 0.140688 0.164972 0.190034 0.215837 0.242374 0.26965 0.297681 0.326492 0.356112 0.386578 0.41793 0.450212 0.483475 0.517771 0.553157 0.589691 0.627427 0.666416 0.706686 0.74822 0.790903 0.834394 0.877794 0.918752 0.950962 0.959419 0.951152 0.943405 0.936606 0.931816 0.929033 0.927638 0.926985 0.926663 0.926482 0.926368 0.926289 0.926228 0.926176 0.926167 0.926158 0.926149 0.92614 0.926132 0.926124 0.926115 0.926107 0.926099 0.92609 0.926082 0.926073 0.926064 0.926054 0.926045 0.926035 0.926025 0.926015 0.926004 0.925994 0.925983 0.925972 0.925961 0.92595 0.925939 0.925928 0.925917 0.925905 0.925893 0.92588 0.925867 0.925853 0.925838 0.925822 0.925805 0.925787 0.925769 0.925747 0.925728 0.925702 0.925684 0.925651 0.925634 0.925587 0.925576 0.925498 0.925494 0.925338 0.925343 0.924985 0.925007 0.924071 0.924145 0.921545 0.921781 0.914558 0.915299 0.896612 0.898914 0.856614 0.862929 0.780698 0.767696 0.650101 0.569036 0.437445 0.314714 0.197856 0.107635 0.0501151 0.0206092 0.00787164 0.00290492 0.00105707 0.000382509 0.000138071 4.97646e-05 1.79138e-05 6.43948e-06 2.31097e-06 8.27695e-07 2.95739e-07 1.05372e-07 3.74211e-08 1.32394e-08 4.6645e-09 1.63511e-09 5.70232e-10 1.97653e-10 6.81524e-11 2.30146e-11 7.50544e-12 2.347e-12 6.03625e-13 3.5224e-13 1.88795e-14 1.32947e-13 -1.20734e-13 -8.48704e-14 0
				</DataArray>
				<DataArray Name="VitesseY" type="Float32" format="ascii">