<?xml version="1.0"?>
<VTKFile type="PolyData">
	<PolyData>
		<Piece NumberOfPoints="1206" NumberOfPolys="1000">
			<Points>
				<DataArray type="Float32" NumberOfComponents="3" format="ascii">
 0 0 0 0.005 0 0 0.01 0 0 0.015 0 0 0.02 0 0 0.025 0 0 0.03 0 0 0.035 0 0 0.04 0 0 0.045 0 0 0.05 0 0 0.055 0 0 0.06 0 0 0.065 0 0 0.07 0 0 0.075 0 0 0.08 0 0 0.085 0 0 0.09 0 0 0.095 0 0 0.1 0 0 0.105 0 0 0.11 0 0 0.115 0 0 0.12 0 0 0.125 0 0 0.13 0 0 0.135 0 0 0.14 0 0 0.145 0 0 0.15 0 0 0.155 0 0 0.16 0 0 0.165 0 0 0.17 0 0 0.175 0 0 0.18 0 0 0.185 0 0 0.19 0 0 0.195 0 0 0.2 0 0 0.205 0 0 0.21 0 0 0.215 0 0 0.22 0 0 0.225 0 0 0.23 0 0 0.235 0 0 0.24 0 0 0.245 0 0 0.25 0 0 0.255 0 0 0.26 0 0 0.265 0 0 0.27 0 0 0.275 0 0 0.28 0 0 0.285 0 0 0.29 0 0 0.295 0 0 0.3 0 0 0.305 0 0 0.31 0 0 0.315 0 0 0.32 0 0 0.325 0 0 0.33 0 0 0.335 0 0 0.34 0 0 0.345 0 0 0.35 0 0 0.355 0 0 0.36 0 0 0.365 0 0 0.37 0 0 0.375 0 0 0.38 0 0 0.385 0 0 0.39 0 0 0.395 0 0 0.4 0 0 0.405 0 0 0.41 0 0 0.415 0 0 0.42 0 0 0.425 0 0 0.43 0 0 0.435002 0 0 0.44001 0 0 0.445046 0 0 0.450167 0 0 0.455484 0 0 0.461144 0 0 0.467308 0 0 0.474149 0 0 0.481882 0 0 0.490802 0 0 0.501285 0 0 0.513457 0 0 0.525905 0 0 0.537917 0 0 0.540555 0 0 0.543117 0 0 0.545633 0 0 0.548119 0 0 0.550585 0 0 0.553039 0 0 0.555489 0 0 0.557942 0 0 0.560418 0 0 0.562929 0 0 0.5655 0 0 0.568203 0 0 0.571086 0 0 0.574237 0 0 0.57771 0 0 0.581557 0 0 0.585779 0 0 0.590332 0 0 0.595119 0 0 0.600038 0 0 0.605011 0 0 0.610003 0 0 0.615001 0 0 0.62 0 0 0.625 0 0 0.63 0 0 0.635 0 0 0.64 0 0 0.645 0 0 0.65 0 0 0.655 0 0 0.66 0 0 0.665 0 0 0.67 0 0 0.675 0 0 0.68 0 0 0.685 0 0 0.69 0 0 0.695 0 0 0.7 0 0 0.705 0 0 0.71 0 0 0.715 0 0 0.72 0 0 0.725 0 0 0.73 0 0 0.735 0 0 0.74 0 0 0.745 0 0 0.75 0 0 0.755 0 0 0.76 0 0 0.765 0 0 0.77 0 0 0.775 0 0 0.78 0 0 0.785 0 0 0.79 0 0 0.795 0 0 0.8 0 0 0.805 0 0 0.81 0 0 0.815 0 0 0.82 0 0 0.825 0 0 0.83 0 0 0.835 0 0 0.84 0 0 0.845 0 0 0.85 0 0 0.855 0 0 0.86 0 0 0.865 0 0 0.87 0 0 0.875 0 0 0.88 0 0 0.885 0 0 0.89 0 0 0.895 0 0 0.9 0 0 0.905 0 0 0.91 0 0 0.915 0 0 0.92 0 0 0.925 0 0 0.93 0 0 0.935 0 0 0.94 0 0 0.945 0 0 0.95 0 0 0.955 0 0 0.96 0 0 0.965 0 0 0.97 0 0 0.975 0 0 0.98 0 0 0.985 0 0 0.99 0 0 0.995 0 0 1 0 0 0 0.02 0 0.005 0.02 0 0.01 0.02 0 0.015 0.02 0 0.02 0.02 0 0.025 0.02 0 0.03 0.02 0 0.035 0.02 0 0.04 0.02 0 0.045 0.02 0 0.05 0.02 0 0.055 0.02 0 0.06 0.02 0 0.065 0.02 0 0.07 0.02 0 0.075 0.02 0 0.08 0.02 0 0.085 0.02 0 0.09 0.02 0 0.095 0.02 0 0.1 0.02 0 0.105 0.02 0 0.11 0.02 0 0.115 0.02 0 0.12 0.02 0 0.125 0.02 0 0.13 0.02 0 0.135 0.02 0 0.14 0.02 0 0.145 0.02 0 0.15 0.02 0 0.155 0.02 0 0.16 0.02 0 0.165 0.02 0 0.17 0.02 0 0.175 0.02 0 0.18 0.02 0 0.185 0.02 0 0.19 0.02 0 0.195 0.02 0 0.2 0.02 0 0.205 0.02 0 0.21 0.02 0 0.215 0.02 0 0.22 0.02 0 0.225 0.02 0 0.23 0.02 0 0.235 0.02 0 0.24 0.02 0 0.245 0.02 0 0.25 0.02 0 0.255 0.02 0 0.26 0.02 0 0.265 0.02 0 0.27 0.02 0 0.275 0.02 0 0.28 0.02 0 0.285 0.02 0 0.29 0.02 0 0.295 0.02 0 0.3 0.02 0 0.305 0.02 0 0.31 0.02 0 0.315 0.02 0 0.32 0.02 0 0.325 0.02 0 0.33 0.02 0 0.335 0.02 0 0.34 0.02 0 0.345 0.02 0 0.35 0.02 0 0.355 0.02 0 0.36 0.02 0 0.365 0.02 0 0.37 0.02 0 0.375 0.02 0 0.38 0.02 0 0.385 0.02 0 0.39 0.02 0 0.395 0.02 0 0.4 0.02 0 0.405 0.02 0 0.41 0.02 0 0.415 0.02 0 0.42 0.02 0 0.425 0.02 0 0.43 0.02 0 0.435002 0.02 0 0.44001 0.02 0 0.445046 0.02 0 0.450167 0.02 0 0.455484 0.02 0 0.461144 0.02 0 0.467308 0.02 0 0.474149 0.02 0 0.481882 0.02 0 0.490802 0.02 0 0.501285 0.02 0 0.513457 0.02 0 0.525905 0.02 0 0.537917 0.02 0 0.540555 0.02 0 0.543117 0.02 0 0.545633 0.02 0 0.548119 0.02 0 0.550585 0.02 0 0.553039 0.02 0 0.555489 0.02 0 0.557942 0.02 0 0.560418 0.02 0 0.562929 0.02 0 0.5655 0.02 0 0.568203 0.02 0 0.571086 0.02 0 0.574237 0.02 0 0.57771 0.02 0 0.581557 0.02 0 0.585779 0.02 0 0.590332 0.02 0 0.595119 0.02 0 0.600038 0.02 0 0.605011 0.02 0 0.610003 0.02 0 0.615001 0.02 0 0.62 0.02 0 0.625 0.02 0 0.63 0.02 0 0.635 0.02 0 0.64 0.02 0 0.645 0.02 0 0.65 0.02 0 0.655 0.02 0 0.66 0.02 0 0.665 0.02 0 0.67 0.02 0 0.675 0.02 0 0.68 0.02 0 0.685 0.02 0 0.69 0.02 0 0.695 0.02 0 0.7 0.02 0 0.705 0.02 0 0.71 0.02 0 0.715 0.02 0 0.72 0.02 0 0.725 0.02 0 0.73 0.02 0 0.735 0.02 0 0.74 0.02 0 0.745 0.02 0 0.75 0.02 0 0.755 0.02 0 0.76 0.02 0 0.765 0.02 0 0.77 0.02 0 0.775 0.02 0 0.78 0.02 0 0.785 0.02 0 0.79 0.02 0 0.795 0.02 0 0.8 0.02 0 0.805 0.02 0 0.81 0.02 0 0.815 0.02 0 0.82 0.02 0 0.825 0.02 0 0.83 0.02 0 0.835 0.02 0 0.84 0.02 0 0.845 0.02 0 0.85 0.02 0 0.855 0.02 0 0.86 0.02 0 0.865 0.02 0 0.87 0.02 0 0.875 0.02 0 0.88 0.02 0 0.885 0.02 0 0.89 0.02 0 0.895 0.02 0 0.9 0.02 0 0.905 0.02 0 0.91 0.02 0 0.915 0.02 0 0.92 0.02 0 0.925 0.02 0 0.93 0.02 0 0.935 0.02 0 0.94 0.02 0 0.945 0.02 0 0.95 0.02 0 0.955 0.02 0 0.96 0.02 0 0.965 0.02 0 0.97 0.02 0 0.975 0.02 0 0.98 0.02 0 0.985 0.02 0 0.99 0.02 0 0.995 0.02 0 1 0.02 0 0 0.04 0 0.005 0.04 0 0.01 0.04 0 0.015 0.04 0 0.02 0.04 0 0.025 0.04 0 0.03 0.04 0 0.035 0.04 0 0.04 0.04 0 0.045 0.04 0 0.05 0.04 0 0.055 0.04 0 0.06 0.04 0 0.065 0.04 0 0.07 0.04 0 0.075 0.04 0 0.08 0.04 0 0.085 0.04 0 0.09 0.04 0 0.095 0.04 0 0.1 0.04 0 0.105 0.04 0 0.11 0.04 0 0.115 0.04 0 0.12 0.04 0 0.125 0.04 0 0.13 0.04 0 0.135 0.04 0 0.14 0.04 0 0.145 0.04 0 0.15 0.04 0 0.155 0.04 0 0.16 0.04 0 0.165 0.04 0 0.17 0.04 0 0.175 0.04 0 0.18 0.04 0 0.185 0.04 0 0.19 0.04 0 0.195 0.04 0 0.2 0.04 0 0.205 0.04 0 0.21 0.04 0 0.215 0.04 0 0.22 0.04 0 0.225 0.04 0 0.23 0.04 0 0.235 0.04 0 0.24 0.04 0 0.245 0.04 0 0.25 0.04 0 0.255 0.04 0 0.26 0.04 0 0.265 0.04 0 0.27 0.04 0 0.275 0.04 0 0.28 0.04 0 0.285 0.04 0 0.29 0.04 0 0.295 0.04 0 0.3 0.04 0 0.305 0.04 0 0.31 0.04 0 0.315 0.04 0 0.32 0.04 0 0.325 0.04 0 0.33 0.04 0 0.335 0.04 0 0.34 0.04 0 0.345 0.04 0 0.35 0.04 0 0.355 0.04 0 0.36 0.04 0 0.365 0.04 0 0.37 0.04 0 0.375 0.04 0 0.38 0.04 0 0.385 0.04 0 0.39 0.04 0 0.395 0.04 0 0.4 0.04 0 0.405 0.04 0 0.41 0.04 0 0.415 0.04 0 0.42 0.04 0 0.425 0.04 0 0.43 0.04 0 0.435002 0.04 0 0.44001 0.04 0 0.445046 0.04 0 0.450167 0.04 0 0.455484 0.04 0 0.461144 0.04 0 0.467308 0.04 0 0.474149 0.04 0 0.481882 0.04 0 0.490802 0.04 0 0.501285 0.04 0 0.513457 0.04 0 0.525905 0.04 0 0.537917 0.04 0 0.540555 0.04 0 0.543117 0.04 0 0.545633 0.04 0 0.548119 0.04 0 0.550585 0.04 0 0.553039 0.04 0 0.555489 0.04 0 0.557942 0.04 0 0.560418 0.04 0 0.562929 0.04 0 0.5655 0.04 0 0.568203 0.04 0 0.571086 0.04 0 0.574237 0.04 0 0.57771 0.04 0 0.581557 0.04 0 0.585779 0.04 0 0.590332 0.04 0 0.595119 0.04 0 0.600038 0.04 0 0.605011 0.04 0 0.610003 0.04 0 0.615001 0.04 0 0.62 0.04 0 0.625 0.04 0 0.63 0.04 0 0.635 0.04 0 0.64 0.04 0 0.645 0.04 0 0.65 0.04 0 0.655 0.04 0 0.66 0.04 0 0.665 0.04 0 0.67 0.04 0 0.675 0.04 0 0.68 0.04 0 0.685 0.04 0 0.69 0.04 0 0.695 0.04 0 0.7 0.04 0 0.705 0.04 0 0.71 0.04 0 0.715 0.04 0 0.72 0.04 0 0.725 0.04 0 0.73 0.04 0 0.735 0.04 0 0.74 0.04 0 0.745 0.04 0 0.75 0.04 0 0.755 0.04 0 0.76 0.04 0 0.765 0.04 0 0.77 0.04 0 0.775 0.04 0 0.78 0.04 0 0.785 0.04 0 0.79 0.04 0 0.795 0.04 0 0.8 0.04 0 0.805 0.04 0 0.81 0.04 0 0.815 0.04 0 0.82 0.04 0 0.825 0.04 0 0.83 0.04 0 0.835 0.04 0 0.84 0.04 0 0.845 0.04 0 0.85 0.04 0 0.855 0.04 0 0.86 0.04 0 0.865 0.04 0 0.87 0.04 0 0.875 0.04 0 0.88 0.04 0 0.885 0.04 0 0.89 0.04 0 0.895 0.04 0 0.9 0.04 0 0.905 0.04 0 0.91 0.04 0 0.915 0.04 0 0.92 0.04 0 0.925 0.04 0 0.93 0.04 0 0.935 0.04 0 0.94 0.04 0 0.945 0.04 0 0.95 0.04 0 0.955 0.04 0 0.96 0.04 0 0.965 0.04 0 0.97 0.04 0 0.975 0.04 0 0.98 0.04 0 0.985 0.04 0 0.99 0.04 0 0.995 0.04 0 1 0.04 0 0 0.06 0 0.005 0.06 0 0.01 0.06 0 0.015 0.06 0 0.02 0.06 0 0.025 0.06 0 0.03 0.06 0 0.035 0.06 0 0.04 0.06 0 0.045 0.06 0 0.05 0.06 0 0.055 0.06 0 0.06 0.06 0 0.065 0.06 0 0.07 0.06 0 0.075 0.06 0 0.08 0.06 0 0.085 0.06 0 0.09 0.06 0 0.095 0.06 0 0.1 0.06 0 0.105 0.06 0 0.11 0.06 0 0.115 0.06 0 0.12 0.06 0 0.125 0.06 0 0.13 0.06 0 0.135 0.06 0 0.14 0.06 0 0.145 0.06 0 0.15 0.06 0 0.155 0.06 0 0.16 0.06 0 0.165 0.06 0 0.17 0.06 0 0.175 0.06 0 0.18 0.06 0 0.185 0.06 0 0.19 0.06 0 0.195 0.06 0 0.2 0.06 0 0.205 0.06 0 0.21 0.06 0 0.215 0.06 0 0.22 0.06 0 0.225 0.06 0 0.23 0.06 0 0.235 0.06 0 0.24 0.06 0 0.245 0.06 0 0.25 0.06 0 0.255 0.06 0 0.26 0.06 0 0.265 0.06 0 0.27 0.06 0 0.275 0.06 0 0.28 0.06 0 0.285 0.06 0 0.29 0.06 0 0.295 0.06 0 0.3 0.06 0 0.305 0.06 0 0.31 0.06 0 0.315 0.06 0 0.32 0.06 0 0.325 0.06 0 0.33 0.06 0 0.335 0.06 0 0.34 0.06 0 0.345 0.06 0 0.35 0.06 0 0.355 0.06 0 0.36 0.06 0 0.365 0.06 0 0.37 0.06 0 0.375 0.06 0 0.38 0.06 0 0.385 0.06 0 0.39 0.06 0 0.395 0.06 0 0.4 0.06 0 0.405 0.06 0 0.41 0.06 0 0.415 0.06 0 0.42 0.06 0 0.425 0.06 0 0.43 0.06 0 0.435002 0.06 0 0.44001 0.06 0 0.445046 0.06 0 0.450167 0.06 0 0.455484 0.06 0 0.461144 0.06 0 0.467308 0.06 0 0.474149 0.06 0 0.481882 0.06 0 0.490802 0.06 0 0.501285 0.06 0 0.513457 0.06 0 0.525905 0.06 0 0.537917 0.06 0 0.540555 0.06 0 0.543117 0.06 0 0.545633 0.06 0 0.548119 0.06 0 0.550585 0.06 0 0.553039 0.06 0 0.555489 0.06 0 0.557942 0.06 0 0.560418 0.06 0 0.562929 0.06 0 0.5655 0.06 0 0.568203 0.06 0 0.571086 0.06 0 0.574237 0.06 0 0.57771 0.06 0 0.581557 0.06 0 0.585779 0.06 0 0.590332 0.06 0 0.595119 0.06 0 0.600038 0.06 0 0.605011 0.06 0 0.610003 0.06 0 0.615001 0.06 0 0.62 0.06 0 0.625 0.06 0 0.63 0.06 0 0.635 0.06 0 0.64 0.06 0 0.645 0.06 0 0.65 0.06 0 0.655 0.06 0 0.66 0.06 0 0.665 0.06 0 0.67 0.06 0 0.675 0.06 0 0.68 0.06 0 0.685 0.06 0 0.69 0.06 0 0.695 0.06 0 0.7 0.06 0 0.705 0.06 0 0.71 0.06 0 0.715 0.06 0 0.72 0.06 0 0.725 0.06 0 0.73 0.06 0 0.735 0.06 0 0.74 0.06 0 0.745 0.06 0 0.75 0.06 0 0.755 0.06 0 0.76 0.06 0 0.765 0.06 0 0.77 0.06 0 0.775 0.06 0 0.78 0.06 0 0.785 0.06 0 0.79 0.06 0 0.795 0.06 0 0.8 0.06 0 0.805 0.06 0 0.81 0.06 0 0.815 0.06 0 0.82 0.06 0 0.825 0.06 0 0.83 0.06 0 0.835 0.06 0 0.84 0.06 0 0.845 0.06 0 0.85 0.06 0 0.855 0.06 0 0.86 0.06 0 0.865 0.06 0 0.87 0.06 0 0.875 0.06 0 0.88 0.06 0 0.885 0.06 0 0.89 0.06 0 0.895 0.06 0 0.9 0.06 0 0.905 0.06 0 0.91 0.06 0 0.915 0.06 0 0.92 0.06 0 0.925 0.06 0 0.93 0.06 0 0.935 0.06 0 0.94 0.06 0 0.945 0.06 0 0.95 0.06 0 0.955 0.06 0 0.96 0.06 0 0.965 0.0
[...]
			<PointData Scalars="VitesseX">
				<DataArray Name="VitesseX" type="Float32" format="ascii">
 0 5.79442e-17 -4.30691e-16 7.61949e-16 3.29261e-15 -2.0134e-15 -1.19373e-15 -4.73664e-15 5.44376e-15 7.39258e-16 -5.2865e-15 -3.1965e-15 4.68731e-15 1.28752e-14 -1.26411e-14 -1.75025e-15 -4.68437e-15 1.23947e-14 -7.29163e-15 3.12554e-15 -4.86138e-15 2.02728e-15 -8.81694e-16 1.16713e-14 -3.62315e-15 -9.13171e-15 2.18269e-14 -1.1804e-14 8.16557e-15 -1.31152e-14 4.0495e-16 1.81783e-14 -1.1754e-14 4.09557e-15 -1.02653e-15 -1.09263e-14 1.75377e-14 -1.60734e-14 6.22268e-15 -6.97924e-15 3.3477e-15 -9.73851e-15 -1.46905e-14 5.08501e-15 6.12886e-15 -1.21182e-15 1.40603e-14 7.16704e-15 -2.03041e-14 9.13742e-15 3.03067e-14 -7.10129e-15 -3.597e-14 5.01669e-14 -3.32357e-14 2.25024e-14 2.24099e-14 -3.65858e-14 2.19016e-14 -1.58968e-14 1.30772e-14 2.98755e-14 -1.88325e-14 1.54464e-14 1.38456e-14 2.93144e-15 -2.97634e-15 -4.2969e-14 4.02416e-14 -3.60829e-14 3.58203e-14 1.85508e-14 -2.79938e-14 -2.99457e-14 2.09231e-14 3.93589e-14 1.50003e-14 -1.02738e-14 1.66873e-13 3.355e-12 5.99232e-11 9.51413e-10 1.33325e-08 1.63426e-07 1.73386e-06 1.5717e-05 0.000119755 0.00075103 0.00377467 0.0147607 0.043995 0.100771 0.185562 0.292742 0.418341 0.561866 0.723209 0.891682 0.991744 0.947055 0.931537 0.929305 0.926395 0.922902 0.919226 0.916038 0.914508 0.914018 0.912703 0.901119 0.889784 0.841355 0.800817 0.705742 0.609119 0.47644 0.340713 0.210568 0.108532 0.0452352 0.0156454 0.00478701 0.00136144 0.000367899 9.51281e-05 2.35737e-05 5.59895e-06 1.2743e-06 2.77907e-07 5.80823e-08 1.16359e-08 2.23522e-09 4.11917e-10 7.28236e-11 1.24072e-11 1.9224e-12 3.41794e-13 7.84348e-14 -4.47751e-14 2.66946e-16 -4.61344e-14 4.47893e-14 6.41704e-14 -1.57454e-14 -1.25289e-14 8.3342e-14 -5.58773e-14 -5.75561e-14 4.67447e-14 3.30614e-14 -5.60923e-14 4.78058e-14 -5.47779e-14 -2.55675e-14 8.75657e-14 2.79704e-14 1.71495e-14 3.55012e-14 3.04547e-14 -4.49177e-14 3.97267e-14 -1.18936e-13 1.16697e-13 -8.98904e-15 -1.05063e-13 1.54492e-13 -7.35449e-15 -5.60623e-14 4.87864e-14 8.18681e-15 -9.05304e-14 -6.99606e-14 1.04645e-13 -2.72873e-14 -1.08141e-14 -6.36265e-14 3.89197e-14 -7.79179e-14 1.32595e-14 -2.91897e-14 2.11621e-14 -3.35967e-14 4.39218e-14 -4.47557e-15 -5.49854e-14 3.40199e-14 3.62951e-14 -5.19357e-14 -5.28505e-14 -1.03976e-14 -6.56197e-15 -5.06428e-14 1.50749e-14 -1.14584e-14 -6.14179e-14 1.05601e-13 -8.83666e-14 5.64369e-14 -1.20239e-14 3.78867e-16 0 0 -3.6732e-16 5.90128e-16 -1.03992e-15 -2.03498e-15 1.1444e-15 9.85437e-16 2.83387e-15 -4.23664e-15 1.76809e-15 -1.41264e-15 3.311e-15 -5.46865e-15 5.71452e-15 -4.44246e-15 3.63144e-15 -2.44473e-15 -9.79775e-15 1.20129e-14 -1.19962e-14 7.60405e-15 2.32897e-15 -4.45085e-16 1.19681e-14 -1.27816e-14 -1.358e-14 2.79063e-14 1.29097e-14 -1.94498e-14 4.8682e-15 -4.6794e-15 -1.35001e-15 7.11187e-15 6.87392e-15 -1.49079e-14 1.47144e-14 -8.82959e-15 6.38222e-15 -2.10194e-14 2.271e-14 -2.70567e-14 2.112e-14 -2.70267e-14 1.88592e-14 -1.34222e-14 -1.16405e-16 1.68197e-14 5.06241e-16 -7.17384e-15 -2.53739e-14 4.9643e-14 3.71581e-15 -1.42335e-14 4.9884e-15 2.09587e-14 -1.60493e-14 4.09464e-14 -6.50445e-15 -2.57789e-14 3.1516e-14 -6.97981e-15 1.39584e-14 7.37193e-15 -2.41585e-14 3.16239e-14 5.03466e-15 -5.1605e-15 -3.62369e-14 -9.06166e-15 1.92588e-14 2.9506e-14 -2.19607e-14 -1.56344e-14 -5.97208e-16 2.65991e-14 3.13397e-14 -6.01993e-15 4.1521e-14 1.50583e-13 3.32687e-12 5.98996e-11 9.5144e-10 1.33326e-08 1.63426e-07 1.73386e-06 1.5717e-05 0.000119755 0.00075103 0.00377467 0.0147607 0.043995 0.100771 0.185562 0.292742 0.418341 0.561866 0.723209 0.891682 0.991744 0.947055 0.931537 0.929305 0.926395 0.922902 0.919226 0.916038 0.914508 0.914018 0.912703 0.901119 0.889784 0.841355 0.800817 0.705742 0.609119 0.47644 0.340713 0.210568 0.108532 0.0452352 0.0156454 0.00478701 0.00136144 0.000367899 9.51281e-05 2.35737e-05 5.59895e-06 1.2743e-06 2.77907e-07 5.80822e-08 1.1636e-08 2.23527e-09 4.11896e-10 7.28016e-11 1.23892e-11 2.02635e-12 2.86464e-13 4.83862e-14 -3.30281e-14 3.79538e-15 -8.59222e-15 -6.6038e-14 1.03923e-13 -4.07844e-14 6.88786e-14 -2.24066e-14 1.27446e-14 -3.06715e-15 -4.74967e-14 8.70291e-14 -1.04062e-13 8.26387e-14 -4.80482e-14 4.09126e-14 7.63376e-14 2.02527e-14 1.221e-14 6.22851e-14 -3.26555e-14 -1.86271e-14 1.16969e-16 -5.92672e-14 1.2359e-13 -6.19751e-14 6.44066e-14 -1.17308e-13 9.01846e-14 -6.23286e-14 4.60131e-14 -4.63342e-14 1.29442e-14 -5.81002e-14 5.33046e-15 -4.92255e-14 4.49357e-14 -3.14329e-14 -5.52153e-15 -9.06338e-14 6.19966e-14 -2.80933e-14 -5.70111e-14 1.20618e-13 -3.60117e-14 -5.42458e-14 -7.02693e-14 7.50265e-14 7.53279e-14 -1.28399e-13 9.67323e-14 -1.42408e-13 8.25013e-14 -6.12648e-14 -1.01827e-13 1.56012e-14 1.13763e-14 -6.23939e-15 3.66275e-14 -5.54979e-14 8.21835e-14 -4.70025e-14 0 0 -5.51896e-16 -3.73735e-16 -8.34781e-16 -1.69285e-15 2.49282e-15 -2.55595e-16 3.85591e-15 -2.7932e-15 -1.06932e-15 -2.13106e-15 3.8054e-15 5.4478e-15 -4.86628e-15 -6.5182e-15 1.02419e-14 -8.8415e-15 -7.65205e-15 1.02961e-14 1.73735e-15 9.00443e-15 -1.46617e-14 4.95991e-15 4.28973e-15 -6.46459e-15 -3.09792e-15 9.96193e-15 1.58777e-14 -3.39832e-15 3.30749e-15 -1.94528e-14 1.13905e-14 -9.6288e-15 2.63908e-14 -1.72429e-14 8.32865e-15 -8.03186e-16 -6.95868e-15 -4.65113e-15 1.31969e-14 -1.05322e-14 1.77333e-14 -2.29907e-14 4.09797e-14 -1.36894e-14 -2.48759e-14 -1.44582e-15 -2.23596e-14 2.13921e-14 9.45437e-15 1.97803e-14 3.73649e-14 -3.00846e-14 -2.458e-14 5.25897e-14 1.23506e-14 -6.33567e-15 -7.58911e-15 4.73219e-14 4.67523e-15 -4.86403e-14 2.96971e-14 -1.39062e-14 -2.02937e-14 1.03402e-13 -5.13139e-14 -4.75969e-14 9.79361e-15 -4.47654e-14 2.46881e-14 1.25614e-14 2.78356e-14 -2.87339e-14 9.31201e-15 4.56263e-14 6.46715e-15 3.82891e-15 7.15487e-14 1.78469e-13 3.29868e-12 5.9896e-11 9.51445e-10 1.33326e-08 1.63426e-07 1.73386e-06 1.5717e-05 0.000119755 0.00075103 0.00377467 0.0147607 0.043995 0.100771 0.185562 0.292742 0.418341 0.561866 0.723209 0.891682 0.991744 0.947055 0.931537 0.929305 0.926395 0.922902 0.919226 0.916038 0.914508 0.914018 0.912703 0.901119 0.889784 0.841355 0.800817 0.705742 0.609119 0.47644 0.340713 0.210568 0.108532 0.0452352 0.0156454 0.00478701 0.00136144 0.000367899 9.51281e-05 2.35737e-05 5.59895e-06 1.2743e-06 2.77907e-07 5.80822e-08 1.1636e-08 2.23525e-09 4.11852e-10 7.28553e-11 1.23408e-11 2.0921e-12 2.96097e-13 -1.16365e-13 1.15364e-13 -2.83508e-14 6.33259e-14 -9.14222e-14 4.87533e-14 -5.40531e-14 1.44074e-13 -2.45174e-14 -3.17005e-14 6.90182e-14 -6.35464e-14 1.15474e-15 -6.81076e-14 8.91316e-14 6.59931e-14 1.54833e-14 -4.55583e-14 6.68706e-14 3.94796e-14 4.75564e-14 -5.48581e-15 6.98693e-14 -5.63677e-14 -2.76185e-14 8.33683e-14 -8.91057e-14 -1.34112e-13 -6.23133e-14 1.32267e-13 -5.57837e-15 1.76856e-14 -3.67491e-14 9.09655e-14 -5.32066e-14 -9.5655e-14 -1.44836e-13 1.59858e-13 1.99671e-14 -8.75926e-14 -2.56298e-14 -5.65597e-14 2.18935e-14 -7.57582e-14 1.3342e-13 -9.2217e-14 -5.15013e-14 -1.44902e-15 9.03383e-14 1.01539e-13 -9.9594e-14 6.25478e-14 -1.93593e-13 8.00956e-14 1.00494e-14 -1.74027e-13 8.68606e-15 6.54932e-14 -1.29535e-14 -2.10574e-14 -2.72813e-14 5.44312e-14 -6.2647e-14 0 0 -6.6936e-16 -2.77981e-16 -8.4408e-16 3.85361e-15 8.18623e-17 -1.83731e-15 -5.49453e-15 1.93491e-15 5.54872e-15 3.63571e-15 -6.98805e-15 5.12258e-15 9.93565e-15 -1.85339e-14 4.51149e-15 -5.89038e-15 6.50344e-15 5.53986e-15 1.57665e-14 -6.26595e-15 -1.04115e-14 6.26649e-15 -1.08255e-14 -2.77836e-15 -9.07903e-15 9.31893e-15 1.16039e-14 2.19533e-14 -1.6358e-14 8.79239e-15 -1.76586e-14 -1.80696e-14 2.26965e-14 8.66268e-15 -1.53089e-14 8.07654e-15 -1.5508e-14 2.14817e-14 2.15634e-14 7.18934e-15 -2.91542e-14 3.74521e-14 3.99592e-15 -3.9531e-15 -1.40857e-15 -1.47826e-14 -4.45131e-14 1.16571e-14 6.47645e-14 -1.88263e-14 -6.58047e-15 1.9634e-14 -1.05936e-14 8.61055e-14 -2.12204e-14 -3.4546e-14 1.17449e-14 1.64797e-14 -7.36982e-15 -6.23327e-14 5.34131e-14 -1.04331e-14 3.94079e-14 6.06457e-14 -5.25033e-14 -5.45335e-14 -5.0233e-15 8.42418e-15 -2.7296e-14 -2.13119e-14 1.11897e-13 -3.50428e-14 2.74526e-14 3.60953e-14 -2.62092e-14 5.35909e-15 4.65031e-14 2.6803e-13 3.2944e-12 5.98274e-11 9.51473e-10 1.33325e-08 1.63426e-07 1.73386e-06 1.5717e-05 0.000119755 0.00075103 0.00377467 0.0147607 0.043995 0.100771 0.185562 0.292742 0.418341 0.561866 0.723209 0.891682 0.991744 0.947055 0.931537 0.929305 0.926395 0.922902 0.919226 0.916038 0.914508 0.914018 0.912703 0.901119 0.889784 0.841355 0.800817 0.705742 0.609119 0.47644 0.340713 0.210568 0.108532 0.0452352 0.0156454 0.00478701 0.00136144 0.000367899 9.51281e-05 2.35737e-05 5.59895e-06 1.2743e-06 2.77907e-07 5.80823e-08 1.1636e-08 2.23524e-09 4.1188e-10 7.2914e-11 1.22362e-11 2.27126e-12 8.02493e-14 -8.51143e-14 6.68072e-14 1.67216e-14 6.9051e-14 8.77061e-14 -1.17535e-13 -1.34942e-15 2.81614e-15 5.46313e-14 8.86112e-15 3.68656e-14 -3.27884e-15 -8.22736e-14 1.75036e-15 8.84888e-14 1.24684e-13 -1.13882e-14 -3.04812e-14 -9.81042e-14 1.33233e-13 1.19129e-13 -3.40199e-15 1.24358e-13 -1.16111e-13 1.02289e-13 3.18407e-14 -1.66412e-13 -1.59907e-13 7.36252e-14 -1.06463e-13 1.11568e-13 -1.01677e-13 1.05907e-14 9.16809e-14 -6.39922e-14 -1.22421e-14 -7.91211e-14 -4.31028e-14 1.09527e-13 -4.57057e-14 -5.3014e-14 -1.16446e-13 6.76088e-14 1.48863e-14 -1.20034e-13 1.26559e-14 8.71305e-14 2.68658e-14 -8.16453e-15 3.79428e-14 1.24098e-13 -5.07214e-14 -2.53398e-13 2.6048e-14 -2.93285e-14 2.97912e-14 -9.46763e-14 5.91168e-14 6.00994e-14 -1.45383e-13 -7.97226e-14 8.2331e-14 7.76564e-14 0 0 -2.21805e-16 1.54556e-15 -1.4896e-15 1.12157e-15 4.49182e-15 -9.10791e-16 -8.95075e-16 -6.2881e-15 1.27745e-14 5.23527e-15 -4.19318e-15 -5.471e-15 9.64139e-15 -4.55858e-16 -1.2565e-15 6.69043e-15 7.00695e-16 1.13561e-14 2.65235e-15 -1.85824e-14 2.29043e-15 -3.84378e-15 8.85013e-15 -2.43214e-15 -8.11357e-15 5.82279e-15 7.3709e-15 -2.34044e-14 3.35766e-15 3.40136e-14 -3.79059e-14 9.29171e-15 -9.16162e-15 1.70513e-14 -1.62353e-14 -1.93945e-14 1.7026e-14 5.12873e-15 4.84296e-14 -2.17979e-14 -2.46737e-15 1.0574e-13 -5.4085e-14 -8.76962e-15 -1.9596e-14 -6.72243e-15 6.95509e-15 1.12328e-14 -9.47986e-17 2.44954e-14 -4.50618e-14 3.222e-14 5.84206e-15 5.12766e-14 -6.16068e-14 2.61086e-14 2.62172e-14 -3.79544e-14 -1.29824e-14 -2.7083e-14 1.66769e-14 2.27184e-14 2.14751e-14 -9.26223e-15 1.01067e-14 -4.49556e-15 -3.19646e-14 2.15287e-14 1.59383e-14 7.37869e-15 6.48196e-14 -2.50814e-14 4.70103e-14 -1.50651e-14 -6.24614e-14 -4.289e-15 8.2401e-14 2.54795e-13 3.29027e-12 5.97138e-11 9.51488e-10 1.33327e-08 1.63426e-07 1.73386e-06 1.5717e-05 0.000119755 0.00075103 0.00377467 0.0147607 0.043995 0.100771 0.185562 0.292742 0.418341 0.561866 0.723209 0.891682 0.991744 0.947055 0.931537 0.929305 0.926395 0.922902 0.919226 0.916038 0.914508 0.914018 0.912703 0.901119 0.889784 0.841355 0.800817 0.705742 0.609119 0.47644 0.340713 0.210568 0.108532 0.0452352 0.0156454 0.00478701 0.00136144 0.000367899 9.51281e-05 2.35737e-05 5.59895e-06 1.2743e-06 2.77907e-07 5.80823e-08 1.1636e-08 2.23528e-09 4.11879e-10 7.28657e-11 1.23112e-11 2.28711e-12 -3.12085e-14 -2.20521e-16 -6.46119e-14 4.82752e-14 5.261e-14 9.69639e-14 4.32585e-15 -3.66487e-14 -7.35067e-14 5.02391e-14 3.74912e-14 1.09599e-14 -4.68339e-14 -3.45829e-14 4.44055e-14 2.02818e-13 -2.84855e-14 3.7642e-14 2.49997e-14 -1.22084e-13 2.16499e-14 2.03742e-13 7.63161e-14 -3.77394e-14 -1.93648e-14 1.11664e-13 -5.14928e-14 -1.17419e-13 7.78824e-14 -1.25323e-13 -9.64894e-14 1.39173e-14 -7.93475e-14 -4.43625e-14 5.26071e-14 3.97832e-15 -1.00516e-14 1.96222e-13 -1.10249e-13 -7.45261e-14 1.28775e-14 -1.92386e-13 7.78046e-14 1.44865e-13 -2.90854e-15 -2.01899e-13 -6.37714e-14 1.49636e-13 2.8173e-14 -9.08979e-14 5.42052e-14 1.70596e-13 2.41169e-14 -1.35781e-13 -1.84783e-13 -2.79505e-14 5.27519e-14 -8.98716e-14 -2.06787e-14 4.4365e-14 -3.41802e-14 -1.66202e-13 2.43691e-14 1.11341e-13 0 0 5.83902e-16 1.28868e-15 -1.18815e-16 -1.48722e-15 9.50335e-15 -1.82274e-15 6.50635e-15 -8.11538e-15 9.51598e-15 -3.52424e-15 3.38204e-15 5.33304e-15 -8.87492e-15 1.93636e-14 -6.54041e-17 7.68374e-15 5.08065e-15 9.07371e-16 4.36441e-15 -2.66935e-14 -6.55027e-15 -1.02922e-14 3.56657e-14 9.7033e-15 1.37634e-14 -2.10541e-14 -1.4334e-14 -5.04467e-14 2.31947e-14 2.13006e-14 3.16479e-15 9.48726e-15 -2.05869e-14 1.10807e-14 -2.55508e-14 -2.13516e-14 2.23128e-14 6.25336e-15 2.77269e-14 -2.15776e-14 3.68617e-14 1.29958e-13 -6.68358e-14 -4.03862e-15 -8.71056e-14 -6.35044e-15 6.43718e-14 3.59792e-14 -5.09246e-14 5.72246e-14 -1.67657e-14 -4.25003e-14 2.39015e-14 -3.96314e-14 -1.47043e-15 4.9155e-14 -9.81067e-15 5.92352e-14 -8.08035e-14 2.55803e-16 -1.21195e-14 4.91439e-15 -1.26894e-14 1.75852e-14 1.54542e-14 1.22269e-14 -4.79051e-15 -4.9569e-15 6.1244e-14 5.93123e-14 2.39893e-14 -3.42702e-14 2.89881e-14 -4.33433e-14 -8.28906e-14 1.54018e-14 1.21577e-13 1.96174e-13 3.29037e-12 5.96885e-11 9.51453e-10 1.33328e-08 1.63426e-07 1.73386e-06 1.5717e-05 0.000119755 0.00075103 0.00377467 0.0147607 0.043995 0.100771 0.185562 0.292742 0.418341 0.561866 0.723209 0.891682 0.991744 0.947055 0.931537 0.929305 0.926395 0.922902 0.919226 0.916038 0.914508 0.914018 0.912703 0.901119 0.889784 0.841355 0.800817 0.705742 0.609119 0.47644 0.340713 0.210568 0.108532 0.0452352 0.0156454 0.00478701 0.00136144 0.000367899 9.51281e-05 2.35737e-05 5.59895e-06 1.2743e-06 2.77907e-07 5.80824e-08 1.16361e-08 2.23525e-09 4.11827e-10 7.28346e-11 1.24606e-11 2.08588e-12 1.38285e-13 -8.12582e-14 -1.0938e-14 -9.105e-16 6.48734e-14 1.25939e-14 1.97486e-13 -1.13097e-13 -1.49019e-14 7.04057e-14 -8.74093e-14 3.47132e-14 -7.26914e-14 -4.32941e-14 1.00929e-13 2.89241e-13 -1.32675e-13 2.18599e-14 -4.52608e-14 7.33624e-14 -1.50972e-13 1.75566e-13 2.44345e-13 -1.91825e-13 1.20396e-13 -3.67959e-14 -1.3011e-13 3.50393e-14 -2.66773e-14 -1.33468e-13 9.67793e-14 -1.37675e-13 3.66875e-14 -8.29113e-14 -1.23939e-14 7.60488e-14 -9.30093e-14 3.31924e-13 8.45436e-14 -3.29215e-13 -7.92305e-15 -2.26269e-13 1.64702e-13 2.25276e-13 -5.2139e-14 -1.7197e-13 -2.21461e-13 1.25894e-13 8.54816e-14 -1.00571e-13 1.21757e-13 9.90871e-14 2.8148e-14 1.2213e-13 -4.33333e-13 9.46839e-14 -8.32769e-14 -1.55708e-14 -1.12626e-13 6.07958e-14 1.87642e-14 -5.99171e-14 -1.83463e-13 3.63908e-14 0
				</DataArray>
				<DataArray Name="VitesseY" type="Float32" format="ascii">