<?xml version="1.0"?>
<VTKFile type="PolyData">
	<PolyData>
		<Piece NumberOfPoints="1206" NumberOfPolys="1000">
			<Points>
				<DataArray type="Float32" NumberOfComponents="3" format="ascii">
 0 0 0 0.005 0 0 0.01 0 0 0.015 0 0 0.02 0 0 0.025 0 0 0.03 0 0 0.035 0 0 0.04 0 0 0.045 0 0 0.05 0 0 0.055 0 0 0.06 0 0 0.065 0 0 0.07 0 0 0.075 0 0 0.08 0 0 0.085 0 0 0.09 0 0 0.095 0 0 0.1 0 0 0.105 0 0 0.11 0 0 0.115 0 0 0.12 0 0 0.125 0 0 0.13 0 0 0.135 0 0 0.14 0 0 0.145 0 0 0.15 0 0 0.155 0 0 0.16 0 0 0.165 0 0 0.17 0 0 0.175 0 0 0.18 0 0 0.185 0 0 0.19 0 0 0.195 0 0 0.2 0 0 0.205 0 0 0.21 0 0 0.215 0 0 0.22 0 0 0.225 0 0 0.23 0 0 0.235 0 0 0.24 0 0 0.245 0 0 0.25 0 0 0.255 0 0 0.26 0 0 0.265 0 0 0.27 0 0 0.275 0 0 0.28 0 0 0.285 0 0 0.29 0 0 0.295 0 0 0.3 0 0 0.305 0 0 0.31 0 0 0.315001 0 0 0.320003 0 0 0.325011 0 0 0.330029 0 0 0.335071 0 0 0.340157 0 0 0.345309 0 0 0.350555 0 0 0.355916 0 0 0.361412 0 0 0.367058 0 0 0.372869 0 0 0.378858 0 0 0.38504 0 0 0.391432 0 0 0.39805 0 0 0.404913 0 0 0.412044 0 0 0.419466 0 0 0.427208 0 0 0.435299 0 0 0.443777 0 0 0.452682 0 0 0.462061 0 0 0.471965 0 0 0.482447 0 0 0.493551 0 0 0.505272 0 0 0.517433 0 0 0.529598 0 0 0.54163 0 0 0.553537 0 0 0.565355 0 0 0.577124 0 0 0.588871 0 0 0.60061 0 0 0.612347 0 0 0.624095 0 0 0.626705 0 0 0.629241 0 0 0.631733 0 0 0.634194 0 0 0.636634 0 0 0.639058 0 0 0.641474 0 0 0.643887 0 0 0.6463 0 0 0.648699 0 0 0.651086 0 0 0.653467 0 0 0.655845 0 0 0.658221 0 0 0.660594 0 0 0.662964 0 0 0.665334 0 0 0.667702 0 0 0.670067 0 0 0.672431 0 0 0.674793 0 0 0.677157 0 0 0.679521 0 0 0.681885 0 0 0.684248 0 0 0.686611 0 0 0.688973 0 0 0.691335 0 0 0.693699 0 0 0.696063 0 0 0.698428 0 0 0.700793 0 0 0.703157 0 0 0.705521 0 0 0.707886 0 0 0.71025 0 0 0.712617 0 0 0.714981 0 0 0.717355 0 0 0.719749 0 0 0.722152 0 0 0.724618 0 0 0.727173 0 0 0.729811 0 0 0.732627 0 0 0.735627 0 0 0.738912 0 0 0.742513 0 0 0.74647 0 0 0.750768 0 0 0.755356 0 0 0.760148 0 0 0.765057 0 0 0.770021 0 0 0.775008 0 0 0.780003 0 0 0.785001 0 0 0.79 0 0 0.795 0 0 0.8 0 0 0.805 0 0 0.81 0 0 0.815 0 0 0.82 0 0 0.825 0 0 0.83 0 0 0.835 0 0 0.84 0 0 0.845 0 0 0.85 0 0 0.855 0 0 0.86 0 0 0.865 0 0 0.87 0 0 0.875 0 0 0.88 0 0 0.885 0 0 0.89 0 0 0.895 0 0 0.9 0 0 0.905 0 0 0.91 0 0 0.915 0 0 0.92 0 0 0.925 0 0 0.93 0 0 0.935 0 0 0.94 0 0 0.945 0 0 0.95 0 0 0.955 0 0 0.96 0 0 0.965 0 0 0.97 0 0 0.975 0 0 0.98 0 0 0.985 0 0 0.99 0 0 0.995 0 0 1 0 0 0 0.02 0 0.005 0.02 0 0.01 0.02 0 0.015 0.02 0 0.02 0.02 0 0.025 0.02 0 0.03 0.02 0 0.035 0.02 0 0.04 0.02 0 0.045 0.02 0 0.05 0.02 0 0.055 0.02 0 0.06 0.02 0 0.065 0.02 0 0.07 0.02 0 0.075 0.02 0 0.08 0.02 0 0.085 0.02 0 0.09 0.02 0 0.095 0.02 0 0.1 0.02 0 0.105 0.02 0 0.11 0.02 0 0.115 0.02 0 0.12 0.02 0 0.125 0.02 0 0.13 0.02 0 0.135 0.02 0 0.14 0.02 0 0.145 0.02 0 0.15 0.02 0 0.155 0.02 0 0.16 0.02 0 0.165 0.02 0 0.17 0.02 0 0.175 0.02 0 0.18 0.02 0 0.185 0.02 0 0.19 0.02 0 0.195 0.02 0 0.2 0.02 0 0.205 0.02 0 0.21 0.02 0 0.215 0.02 0 0.22 0.02 0 0.225 0.02 0 0.23 0.02 0 0.235 0.02 0 0.24 0.02 0 0.245 0.02 0 0.25 0.02 0 0.255 0.02 0 0.26 0.02 0 0.265 0.02 0 0.27 0.02 0 0.275 0.02 0 0.28 0.02 0 0.285 0.02 0 0.29 0.02 0 0.295 0.02 0 0.3 0.02 0 0.305 0.02 0 0.31 0.02 0 0.315001 0.02 0 0.320003 0.02 0 0.325011 0.02 0 0.330029 0.02 0 0.335071 0.02 0 0.340157 0.02 0 0.345309 0.02 0 0.350555 0.02 0 0.355916 0.02 0 0.361412 0.02 0 0.367058 0.02 0 0.372869 0.02 0 0.378858 0.02 0 0.38504 0.02 0 0.391432 0.02 0 0.39805 0.02 0 0.404913 0.02 0 0.412044 0.02 0 0.419466 0.02 0 0.427208 0.02 0 0.435299 0.02 0 0.443777 0.02 0 0.452682 0.02 0 0.462061 0.02 0 0.471965 0.02 0 0.482447 0.02 0 0.493551 0.02 0 0.505272 0.02 0 0.517433 0.02 0 0.529598 0.02 0 0.54163 0.02 0 0.553537 0.02 0 0.565355 0.02 0 0.577124 0.02 0 0.588871 0.02 0 0.60061 0.02 0 0.612347 0.02 0 0.624095 0.02 0 0.626705 0.02 0 0.629241 0.02 0 0.631733 0.02 0 0.634194 0.02 0 0.636634 0.02 0 0.639058 0.02 0 0.641474 0.02 0 0.643887 0.02 0 0.6463 0.02 0 0.648699 0.02 0 0.651086 0.02 0 0.653467 0.02 0 0.655845 0.02 0 0.658221 0.02 0 0.660594 0.02 0 0.662964 0.02 0 0.665334 0.02 0 0.667702 0.02 0 0.670067 0.02 0 0.672431 0.02 0 0.674793 0.02 0 0.677157 0.02 0 0.679521 0.02 0 0.681885 0.02 0 0.684248 0.02 0 0.686611 0.02 0 0.688973 0.02 0 0.691335 0.02 0 0.693699 0.02 0 0.696063 0.02 0 0.698428 0.02 0 0.700793 0.02 0 0.703157 0.02 0 0.705521 0.02 0 0.707886 0.02 0 0.71025 0.02 0 0.712617 0.02 0 0.714981 0.02 0 0.717355 0.02 0 0.719749 0.02 0 0.722152 0.02 0 0.724618 0.02 0 0.727173 0.02 0 0.729811 0.02 0 0.732627 0.02 0 0.735627 0.02 0 0.738912 0.02 0 0.742513 0.02 0 0.74647 0.02 0 0.750768 0.02 0 0.755356 0.02 0 0.760148 0.02 0 0.765057 0.02 0 0.770021 0.02 0 0.775008 0.02 0 0.780003 0.02 0 0.785001 0.02 0 0.79 0.02 0 0.795 0.02 0 0.8 0.02 0 0.805 0.02 0 0.81 0.02 0 0.815 0.02 0 0.82 0.02 0 0.825 0.02 0 0.83 0.02 0 0.835 0.02 0 0.84 0.02 0 0.845 0.02 0 0.85 0.02 0 0.855 0.02 0 0.86 0.02 0 0.865 0.02 0 0.87 0.02 0 0.875 0.02 0 0.88 0.02 0 0.885 0.02 0 0.89 0.02 0 0.895 0.02 0 0.9 0.02 0 0.905 0.02 0 0.91 0.02 0 0.915 0.02 0 0.92 0.02 0 0.925 0.02 0 0.93 0.02 0 0.935 0.02 0 0.94 0.02 0 0.945 0.02 0 0.95 0.02 0 0.955 0.02 0 0.96 0.02 0 0.965 0.02 0 0.97 0.02 0 0.975 0.02 0 0.98 0.02 0 0.985 0.02 0 0.99 0.02 0 0.995 0.02 0 1 0.02 0 0 0.04 0 0.005 0.04 0 0.01 0.04 0 0.015 0.04 0 0.02 0.04 0 0.025 0.04 0 0.03 0.04 0 0.035 0.04 0 0.04 0.04 0 0.045 0.04 0 0.05 0.04 0 0.055 0.04 0 0.06 0.04 0 0.065 0.04 0 0.07 0.04 0 0.075 0.04 0 0.08 0.04 0 0.085 0.04 0 0.09 0.04 0 0.095 0.04 0 0.1 0.04 0 0.105 0.04 0 0.11 0.04 0 0.115 0.04 0 0.12 0.04 0 0.125 0.04 0 0.13 0.04 0 0.135 0.04 0 0.14 0.04 0 0.145 0.04 0 0.15 0.04 0 0.155 0.04 0 0.16 0.04 0 0.165 0.04 0 0.17 0.04 0 0.175 0.04 0 0.18 0.04 0 0.185 0.04 0 0.19 0.04 0 0.195 0.04 0 0.2 0.04 0 0.205 0.04 0 0.21 0.04 0 0.215 0.04 0 0.22 0.04 0 0.225 0.04 0 0.23 0.04 0 0.235 0.04 0 0.24 0.04 0 0.245 0.04 0 0.25 0.04 0 0.255 0.04 0 0.26 0.04 0 0.265 0.04 0 0.27 0.04 0 0.275 0.04 0 0.28 0.04 0 0.285 0.04 0 0.29 0.04 0 0.295 0.04 0 0.3 0.04 0 0.305 0.04 0 0.31 0.04 0 0.315001 0.04 0 0.320003 0.04 0 0.325011 0.04 0 0.330029 0.04 0 0.335071 0.04 0 0.340157 0.04 0 0.345309 0.04 0 0.350555 0.04 0 0.355916 0.04 0 0.361412 0.04 0 0.367058 0.04 0 0.372869 0.04 0 0.378858 0.04 0 0.38504 0.04 0 0.391432 0.04 0 0.39805 0.04 0 0.404913 0.04 0 0.412044 0.04 0 0.419466 0.04 0 0.427208 0.04 0 0.435299 0.04 0 0.443777 0.04 0 0.452682 0.04 0 0.462061 0.04 0 0.471965 0.04 0 0.482447 0.04 0 0.493551 0.04 0 0.505272 0.04 0 0.517433 0.04 0 0.529598 0.04 0 0.54163 0.04 0 0.553537 0.04 0 0.565355 0.04 0 0.577124 0.04 0 0.588871 0.04 0 0.60061 0.04 0 0.612347 0.04 0 0.624095 0.04 0 0.626705 0.04 0 0.629241 0.04 0 0.631733 0.04 0 0.634194 0.04 0 0.636634 0.04 0 0.639058 0.04 0 0.641474 0.04 0 0.643887 0.04 0 0.6463 0.04 0 0.648699 0.04 0 0.651086 0.04 0 0.653467 0.04 0 0.655845 0.04 0 0.658221 0.04 0 0.660594 0.04 0 0.662964 0.04 0 0.665334 0.04 0 0.667702 0.04 0 0.670067 0.04 0 0.672431 0.04 0 0.674793 0.04 0 0.677157 0.04 0 0.679521 0.04 0 0.681885 0.04 0 0.684248 0.04 0 0.686611 0.04 0 0.688973 0.04 0 0.691335 0.04 0 0.693699 0.04 0 0.696063 0.04 0 0.698428 0.04 0 0.700793 0.04 0 0.703157 0.04 0 0.705521 0.04 0 0.707886 0.04 0 0.71025 0.04 0 0.712617 0.04 0 0.714981 0.04 0 0.717355 0.04 0 0.719749 0.04 0 0.722152 0.04 0 0.724618 0.04 0 0.727173 0.04 0 0.729811 0.04 0 0.732627 0.04 0 0.735627 0.04 0 0.738912 0.04 0 0.742513 0.04 0 0.74647 0.04 0 0.750768 0.04 0 0.755356 0.04 0 0.760148 0.04 0 0.765057 0.04 0 0.770021 0.04 0 0.775008 0.04 0 0.780003 0.04 0 0.785001 0.04 0 0.79 0.04 0 0.795 0.04 0 0.8 0.04 0 0.805 0.04 0 0.81 0.04 0 0.815 0.04 0 0.82 0.04 0 0.825 0.04 0 0.83 0.04 0 0.835 0.04 0 0.84 0.04 0 0.845 0.04 0 0.85 0.04 0 0.855 0.04 0 0.86 0.04 0 0.865 0.04 0 0.87 0.04 0 0.875 0.04 0 0.88 0.04 0 0.885 0.04 0 0.89 0.04 0 0.895 0.04 0 0.9 0.04 0 0.905 0.04 0 0.91 0.04 0 0.915 0.04 0 0.92 0.04 0 0.925 0.04 0 0.93 0.04 0 0.935 0.04 0 0.94 0.04 0 0.945 0.04 0 0.95 0.04 0 0.955 0.04 0 0.96 0.04 0 0.965 0.04 0 0.97 0.04 0 0.975 0.04 0 0.98 0.04 0 0.985 0.04 0 0.99 0.04 0 0.995 0.04 0 1 0.04 0 0 0.06 0 0.005 0.06 0 0.01 0.06 0 0.015 0.06 0 0.02 0.06 0 0.025 0.06 0 0.03 0.06 0 0.035 0.06 0 0.04 0.06 0 0.045 0.06 0 0.05 0.06 0 0.055 0.06 0 0.06 0.06 0 0.065 0.06 0 0.07 0.06 0 0.075 0.06 0 0.08 0.06 0 0.085 0.06 0 0.09 0.06 0 0.095 0.06 0 0.1 0.06 0 0.105 0.06 0 0.11 0.06 0 0.115 0.06 0 0.12 0.06 0 0.125 0.06 0 0.13 0.06 0 0.135 0.06 0 0.14 0.06 0 0.145 0.06 0 0.15 0.06 0 0.155 0.06 0 0.16 0.06 0 0.165 0.06 0 0.17 0.06 0 0.175 0.06 0 0.18 0.06 0 0.185 0.06 0 0.19 0.06 0 0.195 0.06 0 0.2 0.06 0 0.205 0.06 0 0.21 0.06 0 0.215 0.06 0 0.22 0.06 0 0.225 0.06 0 0.23 0.06 0 0.235 0.06 0 0.24 0.06 0 0.245 0.06 0 0.25 0.06 0 0.255 0.06 0 0.26 0.06 0 0.265 0.06 0 0.27 0.06 0 0.275 0.06 0 0.28 0.06 0 0.285 0.06 0 0.29 0.06 0 0.295 0.06 0 0.3 0.06 0 0.305 0.06 0 0.31 0.06 0 0.315001 0.06 0 0.320003 0.06 0 0.325011 0.06 0 0.330029 0.06 0 0.335071 0.06 0 0.340157 0.06 0 0.345309 0.06 0 0.350555 0.06 0 0.355916 0.06 0 0.361412 0.06 0 0.367058 0.06 0 0.372869 0.06 0 0.378858 0.06 0 0.38504 0.06 0 0.391432 0.06 0 0.39805 0.06 0 0.404913 0.06 0 0.412044 0.06 0 0.419466 0.06 0 0.427208 0.06 0 0.435299 0.06 0 0.443777 0.06 0 0.452682 0.06 0 0.462061 0.06 0 0.471965 0.06 0 0.482447 0.06 0 0.493551 0.06 0 0.505272 0.06 0 0.517433 0.06 0 0.529598 0.06 0 0.54163 0.06 0 0.553537 0.06 0 0.565355 0.06 0 0.577124 0.06 0 0.588871 0.06 0 0.60061 0.06 0 0.612347 0.06 0 0.624095 0.06 0 0.626705 0.06 0 0.629241 0.06 0 0.631733 0.06 0 0.634194 0.06 0 0.636634 0.06 0 0.639058 0.06 0 0.641474 0.06 0 0.643887 0.06 0 0.6463 0.06 0 0.648699 0.06 0 0.651086 0.06 0 0.653467 0.06 0 0.655845 0.06 0 0.658221 0.06 0 0.660594 0.06 0 0.662964 0.06 0 0.665334 0.06 0 0.667702 0.06 0 0.670067 0.06 0 0.672431 0.06 0 0.674793 0.06 0 0.677157 0.06 0 0.679521 0.06 0 0.681885 0.06 0 0.684248 0.06 0 0.686611 0.06 0 0.688973 0.06 0 0.691335 0.06 0 0.693699 0.06 0 0.696063 0.06 0 0.698428 0.06 0 0.700793 0.06 0 0.703157 0.06 0 0.705521 0.06 0 0.7078
[...]
			<PointData Scalars="VitesseX">
				<DataArray Name="VitesseX" type="Float32" format="ascii">
 0 1.0539e-15 7.62582e-16 -1.47829e-15 2.08875e-15 1.77419e-15 -2.90319e-15 5.643e-15 -3.24143e-15 6.6575e-15 6.5895e-15 -1.31314e-15 8.8828e-15 2.49632e-15 -3.03411e-15 1.02545e-14 -5.72942e-15 -2.09445e-15 9.37566e-15 -3.54708e-16 1.21754e-14 1.3102e-14 8.37452e-15 9.50542e-15 7.42175e-15 1.57519e-14 1.17904e-15 9.40274e-15 2.02988e-14 1.75138e-14 2.06222e-14 2.06693e-14 -5.89006e-16 6.07729e-15 1.84687e-14 -1.24131e-14 -2.57448e-15 1.72675e-14 -2.74986e-14 4.08705e-14 4.41105e-14 -9.31574e-15 -3.11826e-15 -1.91325e-14 9.58628e-15 1.88649e-14 2.56983e-14 -5.78355e-15 -4.0087e-16 8.39576e-14 9.3934e-14 5.93643e-13 4.42925e-12 3.21178e-11 2.18956e-10 1.40261e-09 8.43188e-09 4.74289e-08 2.48812e-07 1.21284e-06 5.4698e-06 2.27091e-05 8.62789e-05 0.000297862 0.000926684 0.0025744 0.00633029 0.0136961 0.0260784 0.0440751 0.0672044 0.0943408 0.124368 0.156522 0.190388 0.225781 0.26264 0.300969 0.340815 0.382246 0.425353 0.470244 0.517037 0.56586 0.616836 0.67006 0.725543 0.783072 0.841833 0.899319 0.947947 0.96628 0.954269 0.943862 0.935579 0.930758 0.928533 0.927572 0.927043 0.926634 0.926413 0.926476 0.926564 0.926728 0.926876 0.926814 0.926788 0.926726 0.926648 0.926555 0.926461 0.926368 0.926284 0.926214 0.926161 0.926126 0.926109 0.926106 0.926087 0.926065 0.926031 0.925989 0.925925 0.925834 0.925695 0.925515 0.925308 0.925123 0.924996 0.92499 0.925462 0.925545 0.925132 0.924629 0.924165 0.924692 0.92338 0.923256 0.920202 0.92183 0.917158 0.895624 0.856965 0.867847 0.773751 0.752492 0.633119 0.544202 0.414873 0.293342 0.18128 0.0966539 0.0442179 0.0179775 0.00682503 0.0025084 0.000908525 0.00032657 0.000116761 4.15394e-05 1.46991e-05 5.17011e-06 1.80611e-06 6.2614e-07 2.15248e-07 7.33178e-08 2.47271e-08 8.25156e-09 2.72293e-09 8.88042e-10 2.86114e-10 9.10368e-11 2.85e-11 8.93724e-12 2.7868e-12 8.8669e-13 2.4054e-13 9.4995e-15 1.16804e-14 -9.15853e-14 5.1884e-14 -1.47041e-13 -6.42831e-14 6.97905e-14 3.23894e-14 -4.00687e-14 1.56567e-14 -1.57315e-13 -6.57678e-14 6.18787e-14 -1.04194e-13 -1.05995e-13 4.10598e-14 -5.15423e-14 -8.34949e-14 -2.26153e-16 -6.05642e-14 -6.83595e-14 6.17759e-14 3.11218e-14 0 0 -7.40325e-16 -1.14813e-15 2.66152e-15 1.84451e-15 3.72154e-15 2.33567e-15 -4.41355e-15 1.52096e-15 -5.92266e-17 -2.91307e-15 6.22554e-15 8.47319e-15 6.73043e-15 1.01288e-14 -1.02854e-14 -1.84775e-16 1.44539e-15 1.54474e-14 -1.97663e-15 1.26619e-14 -2.26629e-15 1.19596e-14 1.56626e-14 7.42288e-15 7.87322e-15 -9.81026e-16 1.71379e-14 1.18046e-15 2.84332e-14 2.7963e-15 2.40077e-14 7.7502e-15 2.47404e-14 -7.49345e-15 4.22755e-15 2.15692e-15 1.95363e-14 7.82646e-15 1.13857e-14 -2.53987e-14 1.88635e-14 2.30997e-14 1.51676e-14 -1.07679e-14 4.39058e-15 2.24906e-14 1.75902e-14 9.82837e-15 4.77644e-14 1.59589e-13 5.78426e-13 4.38829e-12 3.2127e-11 2.18927e-10 1.40262e-09 8.43191e-09 4.74289e-08 2.48812e-07 1.21284e-06 5.4698e-06 2.27091e-05 8.62789e-05 0.000297862 0.000926684 0.0025744 0.00633029 0.0136961 0.0260784 0.0440751 0.0672044 0.0943408 0.124368 0.156522 0.190388 0.225781 0.26264 0.300969 0.340815 0.382246 0.425353 0.470244 0.517037 0.56586 0.616836 0.67006 0.725543 0.783072 0.841833 0.899319 0.947947 0.96628 0.954269 0.943862 0.935579 0.930758 0.928533 0.927572 0.927043 0.926634 0.926413 0.926476 0.926564 0.926728 0.926876 0.926814 0.926788 0.926726 0.926648 0.926555 0.926461 0.926368 0.926284 0.926214 0.926161 0.926126 0.926109 0.926106 0.926087 0.926065 0.926031 0.925989 0.925925 0.925834 0.925695 0.925515 0.925308 0.925123 0.924996 0.92499 0.925462 0.925545 0.925132 0.924629 0.924165 0.924692 0.92338 0.923256 0.920202 0.92183 0.917158 0.895624 0.856965 0.867847 0.773751 0.752492 0.633119 0.544202 0.414873 0.293342 0.18128 0.0966539 0.0442179 0.0179775 0.00682503 0.0025084 0.000908525 0.00032657 0.000116761 4.15394e-05 1.46991e-05 5.17011e-06 1.80611e-06 6.2614e-07 2.15247e-07 7.33179e-08 2.47271e-08 8.25162e-09 2.72295e-09 8.88029e-10 2.8612e-10 9.09999e-11 2.85355e-11 8.93629e-12 2.79028e-12 8.53083e-13 2.89881e-13 -1.72108e-14 -4.93332e-14 -9.40743e-15 -8.96664e-14 5.51263e-14 -5.79667e-14 -3.942e-14 -1.68056e-15 -6.87149e-14 -1.99971e-14 5.53174e-14 5.94336e-14 -1.22094e-13 -1.03558e-13 -9.15978e-15 -1.06534e-13 -8.46424e-14 6.64638e-14 -3.56633e-14 -1.76336e-14 -3.5612e-14 3.65709e-14 -6.54186e-14 0 0 4.4214e-16 4.90358e-16 -5.99731e-16 6.07924e-16 -1.55423e-17 4.20697e-15 1.61861e-16 -4.57933e-15 -4.96122e-15 1.0857e-15 8.02412e-15 -4.85515e-16 7.56343e-15 1.51159e-14 -6.99253e-15 6.58409e-15 7.86321e-15 1.82948e-14 -4.37057e-16 1.03722e-14 -1.96532e-15 1.06618e-14 1.37405e-15 -3.81751e-15 2.35273e-14 -1.21046e-14 1.68715e-14 2.16995e-14 1.06007e-15 -2.57835e-14 1.84791e-14 1.51713e-14 2.33981e-14 -4.14308e-15 -1.23065e-14 3.21341e-14 2.14341e-14 2.41722e-14 -2.55227e-14 -2.97669e-14 3.60488e-14 -1.37096e-14 4.41973e-14 3.12196e-14 5.15639e-15 1.10917e-14 2.35929e-14 4.41855e-16 5.1984e-14 1.90455e-13 5.84242e-13 4.37995e-12 3.20495e-11 2.18976e-10 1.40252e-09 8.43198e-09 4.74288e-08 2.48812e-07 1.21284e-06 5.4698e-06 2.27091e-05 8.62789e-05 0.000297862 0.000926684 0.0025744 0.00633029 0.0136961 0.0260784 0.0440751 0.0672044 0.0943408 0.124368 0.156522 0.190388 0.225781 0.26264 0.300969 0.340815 0.382246 0.425353 0.470244 0.517037 0.56586 0.616836 0.67006 0.725543 0.783072 0.841833 0.899319 0.947947 0.96628 0.954269 0.943862 0.935579 0.930758 0.928533 0.927572 0.927043 0.926634 0.926413 0.926476 0.926564 0.926728 0.926876 0.926814 0.926788 0.926726 0.926648 0.926555 0.926461 0.926368 0.926284 0.926214 0.926161 0.926126 0.926109 0.926106 0.926087 0.926065 0.926031 0.925989 0.925925 0.925834 0.925695 0.925515 0.925308 0.925123 0.924996 0.92499 0.925462 0.925545 0.925132 0.924629 0.924165 0.924692 0.92338 0.923256 0.920202 0.92183 0.917158 0.895624 0.856965 0.867847 0.773751 0.752492 0.633119 0.544202 0.414873 0.293342 0.18128 0.0966539 0.0442179 0.0179775 0.00682503 0.0025084 0.000908525 0.00032657 0.000116761 4.15394e-05 1.46991e-05 5.17011e-06 1.80611e-06 6.2614e-07 2.15247e-07 7.33179e-08 2.47271e-08 8.25159e-09 2.72296e-09 8.88076e-10 2.86149e-10 9.09401e-11 2.85601e-11 8.96032e-12 2.76204e-12 1.03204e-12 1.25576e-13 1.49793e-13 -1.13849e-13 -1.44697e-13 -1.66928e-13 1.77978e-14 1.12957e-13 -4.43197e-14 -6.89185e-14 -6.71373e-14 1.78948e-15 8.66134e-14 1.12173e-13 -1.83994e-13 -4.6808e-14 8.75056e-14 -9.35839e-14 -7.90892e-14 9.28615e-14 1.97856e-14 1.32138e-14 -2.49077e-14 -8.17367e-14 1.78188e-14 0 0 -7.84905e-16 8.26389e-16 -3.36548e-15 -6.49369e-16 -3.40072e-15 2.42494e-16 5.49104e-15 -6.69571e-15 3.5628e-15 -3.40464e-15 3.31125e-15 2.18056e-15 1.36489e-14 5.93591e-15 1.92461e-14 3.39908e-15 1.4083e-14 1.91302e-14 4.64934e-15 6.72109e-15 9.03365e-17 -7.70162e-15 -1.18841e-14 -8.97837e-15 1.79425e-14 2.07064e-14 -4.91512e-15 9.14678e-17 1.11009e-14 -1.25357e-14 1.00007e-15 1.3731e-14 1.28773e-14 6.05758e-15 2.01372e-15 -2.48394e-14 4.10452e-14 -6.44756e-15 -8.20434e-15 2.8289e-15 2.49383e-14 -3.4154e-14 3.87385e-14 3.27062e-14 3.24318e-14 2.29553e-14 -4.27485e-15 3.92561e-14 9.19656e-14 2.05017e-13 6.05787e-13 4.3224e-12 3.20382e-11 2.18903e-10 1.40252e-09 8.43193e-09 4.74289e-08 2.48812e-07 1.21284e-06 5.4698e-06 2.27091e-05 8.62789e-05 0.000297862 0.000926684 0.0025744 0.00633029 0.0136961 0.0260784 0.0440751 0.0672044 0.0943408 0.124368 0.156522 0.190388 0.225781 0.26264 0.300969 0.340815 0.382246 0.425353 0.470244 0.517037 0.56586 0.616836 0.67006 0.725543 0.783072 0.841833 0.899319 0.947947 0.96628 0.954269 0.943862 0.935579 0.930758 0.928533 0.927572 0.927043 0.926634 0.926413 0.926476 0.926564 0.926728 0.926876 0.926814 0.926788 0.926726 0.926648 0.926555 0.926461 0.926368 0.926284 0.926214 0.926161 0.926126 0.926109 0.926106 0.926087 0.926065 0.926031 0.925989 0.925925 0.925834 0.925695 0.925515 0.925308 0.925123 0.924996 0.92499 0.925462 0.925545 0.925132 0.924629 0.924165 0.924692 0.92338 0.923256 0.920202 0.92183 0.917158 0.895624 0.856965 0.867847 0.773751 0.752492 0.633119 0.544202 0.414873 0.293342 0.18128 0.0966539 0.0442179 0.0179775 0.00682503 0.0025084 0.000908525 0.00032657 0.000116761 4.15394e-05 1.46991e-05 5.17011e-06 1.80611e-06 6.2614e-07 2.15247e-07 7.33179e-08 2.47271e-08 8.25164e-09 2.72285e-09 8.88114e-10 2.86206e-10 9.09945e-11 2.87125e-11 8.93498e-12 2.65159e-12 1.06103e-12 6.74511e-14 1.03926e-15 8.26559e-14 -4.0916e-14 -8.10124e-14 -1.10007e-13 -8.62172e-14 1.03983e-13 1.61596e-15 1.19881e-14 -1.44166e-13 -5.494e-14 3.37741e-14 -1.1008e-13 7.25468e-14 1.09165e-13 4.40051e-15 -6.67386e-15 -5.3843e-15 6.00413e-14 -1.15273e-13 5.38533e-14 6.31218e-14 -5.60694e-14 0 0 -2.428e-15 -1.93393e-15 6.11736e-16 -1.63215e-15 -3.22733e-15 4.58258e-16 -3.19604e-15 2.70211e-16 3.82852e-15 -8.32873e-15 -1.75365e-15 1.89456e-15 1.3401e-14 2.03685e-14 2.27131e-14 1.21785e-14 6.63508e-15 5.98025e-15 -1.17817e-15 -4.56295e-15 -7.44616e-15 -7.42184e-15 9.55767e-15 1.64018e-15 -1.24673e-14 1.87844e-14 2.58738e-16 -1.89715e-14 1.35024e-14 2.28474e-14 -5.21093e-15 -4.10302e-15 1.98933e-14 2.02088e-14 1.31863e-14 -5.19549e-14 5.39573e-14 -3.71799e-15 -5.91429e-15 -3.50454e-14 8.08744e-15 -5.93877e-15 2.85974e-14 3.99391e-15 2.35693e-14 5.4633e-14 4.26002e-15 1.09499e-13 7.90094e-14 1.88549e-13 5.95669e-13 4.26583e-12 3.21475e-11 2.18852e-10 1.4025e-09 8.43185e-09 4.74289e-08 2.48812e-07 1.21284e-06 5.4698e-06 2.27091e-05 8.62789e-05 0.000297862 0.000926684 0.0025744 0.00633029 0.0136961 0.0260784 0.0440751 0.0672044 0.0943408 0.124368 0.156522 0.190388 0.225781 0.26264 0.300969 0.340815 0.382246 0.425353 0.470244 0.517037 0.56586 0.616836 0.67006 0.725543 0.783072 0.841833 0.899319 0.947947 0.96628 0.954269 0.943862 0.935579 0.930758 0.928533 0.927572 0.927043 0.926634 0.926413 0.926476 0.926564 0.926728 0.926876 0.926814 0.926788 0.926726 0.926648 0.926555 0.926461 0.926368 0.926284 0.926214 0.926161 0.926126 0.926109 0.926106 0.926087 0.926065 0.926031 0.925989 0.925925 0.925834 0.925695 0.925515 0.925308 0.925123 0.924996 0.92499 0.925462 0.925545 0.925132 0.924629 0.924165 0.924692 0.92338 0.923256 0.920202 0.92183 0.917158 0.895624 0.856965 0.867847 0.773751 0.752492 0.633119 0.544202 0.414873 0.293342 0.18128 0.0966539 0.0442179 0.0179775 0.00682503 0.0025084 0.000908525 0.00032657 0.000116761 4.15394e-05 1.46991e-05 5.17011e-06 1.80611e-06 6.2614e-07 2.15247e-07 7.3318e-08 2.47272e-08 8.25161e-09 2.723e-09 8.8808e-10 2.86234e-10 9.11182e-11 2.89674e-11 8.76211e-12 2.87446e-12 5.55017e-13 6.90111e-14 -1.53536e-13 7.00727e-15 2.37346e-13 5.3998e-14 1.78686e-14 -1.23211e-13 -3.40301e-16 -3.17934e-14 3.77432e-14 -1.35289e-13 2.78806e-14 9.1864e-15 -1.15758e-13 -2.44493e-14 6.52857e-14 5.92133e-14 -3.96004e-16 -1.06622e-13 -2.98108e-14 2.17775e-14 -3.3911e-14 1.51391e-13 -1.20067e-13 0 0 1.32643e-16 -1.48107e-15 -4.63429e-17 -2.34999e-15 -5.3532e-15 1.27094e-15 -2.58032e-15 -1.51015e-15 -2.61505e-15 4.73886e-15 -7.84578e-15 -9.60661e-15 3.66642e-15 3.58052e-14 2.37745e-14 2.53671e-14 -4.15473e-15 -1.12295e-14 -8.93058e-15 -1.4972e-14 -1.36908e-15 6.3385e-15 2.38119e-14 6.17807e-15 -1.37596e-14 -2.49122e-14 1.92177e-14 2.3211e-14 -3.24295e-14 3.42288e-14 -2.80978e-15 -2.14148e-14 1.74249e-14 5.34719e-14 -2.31363e-14 3.14904e-15 4.68873e-14 1.0652e-14 -2.83662e-14 -4.03744e-14 -8.64683e-15 -2.03064e-14 1.86448e-14 3.61367e-14 2.67165e-15 6.62559e-14 2.32916e-14 1.21311e-13 6.64844e-14 1.2273e-13 5.8504e-13 4.29943e-12 3.21812e-11 2.18953e-10 1.40238e-09 8.43189e-09 4.74288e-08 2.48812e-07 1.21284e-06 5.4698e-06 2.27091e-05 8.62789e-05 0.000297862 0.000926684 0.0025744 0.00633029 0.0136961 0.0260784 0.0440751 0.0672044 0.0943408 0.124368 0.156522 0.190388 0.225781 0.26264 0.300969 0.340815 0.382246 0.425353 0.470244 0.517037 0.56586 0.616836 0.67006 0.725543 0.783072 0.841833 0.899319 0.947947 0.96628 0.954269 0.943862 0.935579 0.930758 0.928533 0.927572 0.927043 0.926634 0.926413 0.926476 0.926564 0.926728 0.926876 0.926814 0.926788 0.926726 0.926648 0.926555 0.926461 0.926368 0.926284 0.926214 0.926161 0.926126 0.926109 0.926106 0.926087 0.926065 0.926031 0.925989 0.925925 0.925834 0.925695 0.925515 0.925308 0.925123 0.924996 0.92499 0.925462 0.925545 0.925132 0.924629 0.924165 0.924692 0.92338 0.923256 0.920202 0.92183 0.917158 0.895624 0.856965 0.867847 0.773751 0.752492 0.633119 0.544202 0.414873 0.293342 0.18128 0.0966539 0.0442179 0.0179775 0.00682503 0.0025084 0.000908525 0.00032657 0.000116761 4.15394e-05 1.46991e-05 5.17011e-06 1.80611e-06 6.2614e-07 2.15247e-07 7.3318e-08 2.47272e-08 8.25145e-09 2.72323e-09 8.88069e-10 2.8623e-10 9.11643e-11 2.90589e-11 8.63945e-12 3.17558e-12 2.32328e-13 -8.48538e-14 3.43096e-14 -2.68462e-13 1.94678e-13 1.6741e-13 3.42596e-14 2.03647e-13 -1.48692e-13 -1.68241e-13 1.51704e-14 7.78377e-14 7.1843e-14 -9.58462e-15 -7.35354e-14 -1.8487e-13 -4.62161e-16 1.76259e-13 -2.82811e-14 -2.33157e-13 -6.87146e-14 2.7525e-13 -2.2263e-13 1.459e-15 6.90998e-14 0
				</DataArray>
				<DataArray Name="VitesseY" type="Float32" format="ascii">