<?xml version="1.0"?>
<VTKFile type="PolyData">
	<PolyData>
		<Piece NumberOfPoints="1206" NumberOfPolys="1000">
			<Points>
				<DataArray type="Float32" NumberOfComponents="3" format="ascii">
 0 0 0 0.005 0 0 0.01 0 0 0.015 0 0 0.02 0 0 0.025 0 0 0.03 0 0 0.035 0 0 0.04 0 0 0.045 0 0 0.05 0 0 0.055 0 0 0.06 0 0 0.065 0 0 0.07 0 0 0.075 0 0 0.08 0 0 0.085 0 0 0.09 0 0 0.095 0 0 0.1 0 0 0.105 0 0 0.11 0 0 0.115 0 0 0.12 0 0 0.125 0 0 0.13 0 0 0.135 0 0 0.14 0 0 0.145 0 0 0.15 0 0 0.155 0 0 0.16 0 0 0.165 0 0 0.17 0 0 0.175 0 0 0.18 0 0 0.185 0 0 0.19 0 0 0.195 0 0 0.2 0 0 0.205 0 0 0.21 0 0 0.215 0 0 0.22 0 0 0.225 0 0 0.23 0 0 0.235 0 0 0.24 0 0 0.245 0 0 0.25 0 0 0.255 0 0 0.26 0 0 0.265 0 0 0.27 0 0 0.275 0 0 0.28 0 0 0.285 0 0 0.29 0 0 0.295 0 0 0.3 0 0 0.305 0 0 0.31 0 0 0.315 0 0 0.32 0 0 0.325 0 0 0.330002 0 0 0.335006 0 0 0.340018 0 0 0.345047 0 0 0.350112 0 0 0.355237 0 0 0.360451 0 0 0.365781 0 0 0.37125 0 0 0.376878 0 0 0.382682 0 0 0.388678 0 0 0.394884 0 0 0.401319 0 0 0.408003 0 0 0.41496 0 0 0.422216 0 0 0.429801 0 0 0.437749 0 0 0.446099 0 0 0.454899 0 0 0.464199 0 0 0.474059 0 0 0.48454 0 0 0.495691 0 0 0.507495 0 0 0.519708 0 0 0.531858 0 0 0.543866 0 0 0.555746 0 0 0.567546 0 0 0.579306 0 0 0.591051 0 0 0.602793 0 0 0.614544 0 0 0.617154 0 0 0.61969 0 0 0.622181 0 0 0.624642 0 0 0.627081 0 0 0.629505 0 0 0.631919 0 0 0.634333 0 0 0.636747 0 0 0.639146 0 0 0.641535 0 0 0.643917 0 0 0.646296 0 0 0.648673 0 0 0.651047 0 0 0.653418 0 0 0.655788 0 0 0.658156 0 0 0.660521 0 0 0.662884 0 0 0.665247 0 0 0.667611 0 0 0.669976 0 0 0.672341 0 0 0.674705 0 0 0.67707 0 0 0.679433 0 0 0.681797 0 0 0.684163 0 0 0.686532 0 0 0.688899 0 0 0.691265 0 0 0.693628 0 0 0.695987 0 0 0.698354 0 0 0.700732 0 0 0.70315 0 0 0.705583 0 0 0.708089 0 0 0.7107 0 0 0.713438 0 0 0.716371 0 0 0.719533 0 0 0.72301 0 0 0.726829 0 0 0.730999 0 0 0.735485 0 0 0.740209 0 0 0.745083 0 0 0.750031 0 0 0.755011 0 0 0.760004 0 0 0.765001 0 0 0.770001 0 0 0.775 0 0 0.78 0 0 0.785 0 0 0.79 0 0 0.795 0 0 0.8 0 0 0.805 0 0 0.81 0 0 0.815 0 0 0.82 0 0 0.825 0 0 0.83 0 0 0.835 0 0 0.84 0 0 0.845 0 0 0.85 0 0 0.855 0 0 0.86 0 0 0.865 0 0 0.87 0 0 0.875 0 0 0.88 0 0 0.885 0 0 0.89 0 0 0.895 0 0 0.9 0 0 0.905 0 0 0.91 0 0 0.915 0 0 0.92 0 0 0.925 0 0 0.93 0 0 0.935 0 0 0.94 0 0 0.945 0 0 0.95 0 0 0.955 0 0 0.96 0 0 0.965 0 0 0.97 0 0 0.975 0 0 0.98 0 0 0.985 0 0 0.99 0 0 0.995 0 0 1 0 0 0 0.02 0 0.005 0.02 0 0.01 0.02 0 0.015 0.02 0 0.02 0.02 0 0.025 0.02 0 0.03 0.02 0 0.035 0.02 0 0.04 0.02 0 0.045 0.02 0 0.05 0.02 0 0.055 0.02 0 0.06 0.02 0 0.065 0.02 0 0.07 0.02 0 0.075 0.02 0 0.08 0.02 0 0.085 0.02 0 0.09 0.02 0 0.095 0.02 0 0.1 0.02 0 0.105 0.02 0 0.11 0.02 0 0.115 0.02 0 0.12 0.02 0 0.125 0.02 0 0.13 0.02 0 0.135 0.02 0 0.14 0.02 0 0.145 0.02 0 0.15 0.02 0 0.155 0.02 0 0.16 0.02 0 0.165 0.02 0 0.17 0.02 0 0.175 0.02 0 0.18 0.02 0 0.185 0.02 0 0.19 0.02 0 0.195 0.02 0 0.2 0.02 0 0.205 0.02 0 0.21 0.02 0 0.215 0.02 0 0.22 0.02 0 0.225 0.02 0 0.23 0.02 0 0.235 0.02 0 0.24 0.02 0 0.245 0.02 0 0.25 0.02 0 0.255 0.02 0 0.26 0.02 0 0.265 0.02 0 0.27 0.02 0 0.275 0.02 0 0.28 0.02 0 0.285 0.02 0 0.29 0.02 0 0.295 0.02 0 0.3 0.02 0 0.305 0.02 0 0.31 0.02 0 0.315 0.02 0 0.32 0.02 0 0.325 0.02 0 0.330002 0.02 0 0.335006 0.02 0 0.340018 0.02 0 0.345047 0.02 0 0.350112 0.02 0 0.355237 0.02 0 0.360451 0.02 0 0.365781 0.02 0 0.37125 0.02 0 0.376878 0.02 0 0.382682 0.02 0 0.388678 0.02 0 0.394884 0.02 0 0.401319 0.02 0 0.408003 0.02 0 0.41496 0.02 0 0.422216 0.02 0 0.429801 0.02 0 0.437749 0.02 0 0.446099 0.02 0 0.454899 0.02 0 0.464199 0.02 0 0.474059 0.02 0 0.48454 0.02 0 0.495691 0.02 0 0.507495 0.02 0 0.519708 0.02 0 0.531858 0.02 0 0.543866 0.02 0 0.555746 0.02 0 0.567546 0.02 0 0.579306 0.02 0 0.591051 0.02 0 0.602793 0.02 0 0.614544 0.02 0 0.617154 0.02 0 0.61969 0.02 0 0.622181 0.02 0 0.624642 0.02 0 0.627081 0.02 0 0.629505 0.02 0 0.631919 0.02 0 0.634333 0.02 0 0.636747 0.02 0 0.639146 0.02 0 0.641535 0.02 0 0.643917 0.02 0 0.646296 0.02 0 0.648673 0.02 0 0.651047 0.02 0 0.653418 0.02 0 0.655788 0.02 0 0.658156 0.02 0 0.660521 0.02 0 0.662884 0.02 0 0.665247 0.02 0 0.667611 0.02 0 0.669976 0.02 0 0.672341 0.02 0 0.674705 0.02 0 0.67707 0.02 0 0.679433 0.02 0 0.681797 0.02 0 0.684163 0.02 0 0.686532 0.02 0 0.688899 0.02 0 0.691265 0.02 0 0.693628 0.02 0 0.695987 0.02 0 0.698354 0.02 0 0.700732 0.02 0 0.70315 0.02 0 0.705583 0.02 0 0.708089 0.02 0 0.7107 0.02 0 0.713438 0.02 0 0.716371 0.02 0 0.719533 0.02 0 0.72301 0.02 0 0.726829 0.02 0 0.730999 0.02 0 0.735485 0.02 0 0.740209 0.02 0 0.745083 0.02 0 0.750031 0.02 0 0.755011 0.02 0 0.760004 0.02 0 0.765001 0.02 0 0.770001 0.02 0 0.775 0.02 0 0.78 0.02 0 0.785 0.02 0 0.79 0.02 0 0.795 0.02 0 0.8 0.02 0 0.805 0.02 0 0.81 0.02 0 0.815 0.02 0 0.82 0.02 0 0.825 0.02 0 0.83 0.02 0 0.835 0.02 0 0.84 0.02 0 0.845 0.02 0 0.85 0.02 0 0.855 0.02 0 0.86 0.02 0 0.865 0.02 0 0.87 0.02 0 0.875 0.02 0 0.88 0.02 0 0.885 0.02 0 0.89 0.02 0 0.895 0.02 0 0.9 0.02 0 0.905 0.02 0 0.91 0.02 0 0.915 0.02 0 0.92 0.02 0 0.925 0.02 0 0.93 0.02 0 0.935 0.02 0 0.94 0.02 0 0.945 0.02 0 0.95 0.02 0 0.955 0.02 0 0.96 0.02 0 0.965 0.02 0 0.97 0.02 0 0.975 0.02 0 0.98 0.02 0 0.985 0.02 0 0.99 0.02 0 0.995 0.02 0 1 0.02 0 0 0.04 0 0.005 0.04 0 0.01 0.04 0 0.015 0.04 0 0.02 0.04 0 0.025 0.04 0 0.03 0.04 0 0.035 0.04 0 0.04 0.04 0 0.045 0.04 0 0.05 0.04 0 0.055 0.04 0 0.06 0.04 0 0.065 0.04 0 0.07 0.04 0 0.075 0.04 0 0.08 0.04 0 0.085 0.04 0 0.09 0.04 0 0.095 0.04 0 0.1 0.04 0 0.105 0.04 0 0.11 0.04 0 0.115 0.04 0 0.12 0.04 0 0.125 0.04 0 0.13 0.04 0 0.135 0.04 0 0.14 0.04 0 0.145 0.04 0 0.15 0.04 0 0.155 0.04 0 0.16 0.04 0 0.165 0.04 0 0.17 0.04 0 0.175 0.04 0 0.18 0.04 0 0.185 0.04 0 0.19 0.04 0 0.195 0.04 0 0.2 0.04 0 0.205 0.04 0 0.21 0.04 0 0.215 0.04 0 0.22 0.04 0 0.225 0.04 0 0.23 0.04 0 0.235 0.04 0 0.24 0.04 0 0.245 0.04 0 0.25 0.04 0 0.255 0.04 0 0.26 0.04 0 0.265 0.04 0 0.27 0.04 0 0.275 0.04 0 0.28 0.04 0 0.285 0.04 0 0.29 0.04 0 0.295 0.04 0 0.3 0.04 0 0.305 0.04 0 0.31 0.04 0 0.315 0.04 0 0.32 0.04 0 0.325 0.04 0 0.330002 0.04 0 0.335006 0.04 0 0.340018 0.04 0 0.345047 0.04 0 0.350112 0.04 0 0.355237 0.04 0 0.360451 0.04 0 0.365781 0.04 0 0.37125 0.04 0 0.376878 0.04 0 0.382682 0.04 0 0.388678 0.04 0 0.394884 0.04 0 0.401319 0.04 0 0.408003 0.04 0 0.41496 0.04 0 0.422216 0.04 0 0.429801 0.04 0 0.437749 0.04 0 0.446099 0.04 0 0.454899 0.04 0 0.464199 0.04 0 0.474059 0.04 0 0.48454 0.04 0 0.495691 0.04 0 0.507495 0.04 0 0.519708 0.04 0 0.531858 0.04 0 0.543866 0.04 0 0.555746 0.04 0 0.567546 0.04 0 0.579306 0.04 0 0.591051 0.04 0 0.602793 0.04 0 0.614544 0.04 0 0.617154 0.04 0 0.61969 0.04 0 0.622181 0.04 0 0.624642 0.04 0 0.627081 0.04 0 0.629505 0.04 0 0.631919 0.04 0 0.634333 0.04 0 0.636747 0.04 0 0.639146 0.04 0 0.641535 0.04 0 0.643917 0.04 0 0.646296 0.04 0 0.648673 0.04 0 0.651047 0.04 0 0.653418 0.04 0 0.655788 0.04 0 0.658156 0.04 0 0.660521 0.04 0 0.662884 0.04 0 0.665247 0.04 0 0.667611 0.04 0 0.669976 0.04 0 0.672341 0.04 0 0.674705 0.04 0 0.67707 0.04 0 0.679433 0.04 0 0.681797 0.04 0 0.684163 0.04 0 0.686532 0.04 0 0.688899 0.04 0 0.691265 0.04 0 0.693628 0.04 0 0.695987 0.04 0 0.698354 0.04 0 0.700732 0.04 0 0.70315 0.04 0 0.705583 0.04 0 0.708089 0.04 0 0.7107 0.04 0 0.713438 0.04 0 0.716371 0.04 0 0.719533 0.04 0 0.72301 0.04 0 0.726829 0.04 0 0.730999 0.04 0 0.735485 0.04 0 0.740209 0.04 0 0.745083 0.04 0 0.750031 0.04 0 0.755011 0.04 0 0.760004 0.04 0 0.765001 0.04 0 0.770001 0.04 0 0.775 0.04 0 0.78 0.04 0 0.785 0.04 0 0.79 0.04 0 0.795 0.04 0 0.8 0.04 0 0.805 0.04 0 0.81 0.04 0 0.815 0.04 0 0.82 0.04 0 0.825 0.04 0 0.83 0.04 0 0.835 0.04 0 0.84 0.04 0 0.845 0.04 0 0.85 0.04 0 0.855 0.04 0 0.86 0.04 0 0.865 0.04 0 0.87 0.04 0 0.875 0.04 0 0.88 0.04 0 0.885 0.04 0 0.89 0.04 0 0.895 0.04 0 0.9 0.04 0 0.905 0.04 0 0.91 0.04 0 0.915 0.04 0 0.92 0.04 0 0.925 0.04 0 0.93 0.04 0 0.935 0.04 0 0.94 0.04 0 0.945 0.04 0 0.95 0.04 0 0.955 0.04 0 0.96 0.04 0 0.965 0.04 0 0.97 0.04 0 0.975 0.04 0 0.98 0.04 0 0.985 0.04 0 0.99 0.04 0 0.995 0.04 0 1 0.04 0 0 0.06 0 0.005 0.06 0 0.01 0.06 0 0.015 0.06 0 0.02 0.06 0 0.025 0.06 0 0.03 0.06 0 0.035 0.06 0 0.04 0.06 0 0.045 0.06 0 0.05 0.06 0 0.055 0.06 0 0.06 0.06 0 0.065 0.06 0 0.07 0.06 0 0.075 0.06 0 0.08 0.06 0 0.085 0.06 0 0.09 0.06 0 0.095 0.06 0 0.1 0.06 0 0.105 0.06 0 0.11 0.06 0 0.115 0.06 0 0.12 0.06 0 0.125 0.06 0 0.13 0.06 0 0.135 0.06 0 0.14 0.06 0 0.145 0.06 0 0.15 0.06 0 0.155 0.06 0 0.16 0.06 0 0.165 0.06 0 0.17 0.06 0 0.175 0.06 0 0.18 0.06 0 0.185 0.06 0 0.19 0.06 0 0.195 0.06 0 0.2 0.06 0 0.205 0.06 0 0.21 0.06 0 0.215 0.06 0 0.22 0.06 0 0.225 0.06 0 0.23 0.06 0 0.235 0.06 0 0.24 0.06 0 0.245 0.06 0 0.25 0.06 0 0.255 0.06 0 0.26 0.06 0 0.265 0.06 0 0.27 0.06 0 0.275 0.06 0 0.28 0.06 0 0.285 0.06 0 0.29 0.06 0 0.295 0.06 0 0.3 0.06 0 0.305 0.06 0 0.31 0.06 0 0.315 0.06 0 0.32 0.06 0 0.325 0.06 0 0.330002 0.06 0 0.335006 0.06 0 0.340018 0.06 0 0.345047 0.06 0 0.350112 0.06 0 0.355237 0.06 0 0.360451 0.06 0 0.365781 0.06 0 0.37125 0.06 0 0.376878 0.06 0 0.382682 0.06 0 0.388678 0.06 0 0.394884 0.06 0 0.401319 0.06 0 0.408003 0.06 0 0.41496 0.06 0 0.422216 0.06 0 0.429801 0.06 0 0.437749 0.06 0 0.446099 0.06 0 0.454899 0.06 0 0.464199 0.06 0 0.474059 0.06 0 0.48454 0.06 0 0.495691 0.06 0 0.507495 0.06 0 0.519708 0.06 0 0.531858 0.06 0 0.543866 0.06 0 0.555746 0.06 0 0.567546 0.06 0 0.579306 0.06 0 0.591051 0.06 0 0.602793 0.06 0 0.614544 0.06 0 0.617154 0.06 0 0.61969 0.06 0 0.622181 0.06 0 0.624642 0.06 0 0.627081 0.06 0 0.629505 0.06 0 0.631919 0.06 0 0.634333 0.06 0 0.636747 0.06 0 0.639146 0.06 0 0.641535 0.06 0 0.643917 0.06 0 0.646296 0.06 0 0.648673 0.06 0 0.651047 0.06 0 0.653418 0.06 0 0.655788 0.06 0 0.658156 0.06 0 0.660521 0.06 0 0.662884 0.06 0 0.665247 0.06 0 0.667611 0.06 0 0.669976 0.06 0 0.672341 0.06 0 0.674705 0.06 0 0.67707 0.06 0 0.679433 0.06 0 0.681797 0.06 0 0.684163 0.06 0 0.686532 0.06 0 0.688899 0.06 0 0.691265 0.06 0 0.693628 0.06 0 0.695987 0.06 0 0.698354 0.06 0 0.700732 0.06 0 0.70315 0.06 0 0.705583 0.06 0 0.708089 0.06 0
[...]
			<PointData Scalars="VitesseX">
				<DataArray Name="VitesseX" type="Float32" format="ascii">
 0 5.46139e-16 1.53401e-15 -1.77939e-15 -3.12627e-15 2.82862e-15 -1.45318e-15 4.40021e-15 -1.50949e-15 1.34826e-15 4.87655e-15 2.62267e-15 2.98979e-15 -3.5468e-15 1.19318e-14 -3.69514e-15 1.17227e-14 -1.13601e-15 -1.56193e-15 2.35841e-15 8.8419e-15 -4.32895e-16 5.81263e-15 1.38175e-14 8.58957e-15 1.70161e-14 2.094e-14 -2.49145e-14 2.23497e-14 2.48756e-14 -4.27887e-15 2.71776e-14 1.99697e-14 -4.99306e-15 1.28252e-14 2.13339e-16 -3.1746e-15 1.69464e-14 6.90694e-15 6.59714e-15 -1.17006e-14 -1.62911e-14 6.16956e-14 -1.55573e-14 2.32171e-14 1.13276e-14 -2.74117e-14 3.16354e-14 -1.37236e-14 8.19681e-15 2.68591e-14 -5.92339e-16 4.90463e-14 1.39911e-13 7.2886e-13 6.01003e-12 4.56328e-11 3.23231e-10 2.14629e-09 1.33225e-08 7.70591e-08 4.13829e-07 2.05474e-06 9.38694e-06 3.92307e-05 0.000148967 0.000509761 0.00155724 0.00420454 0.00994832 0.0205525 0.0372467 0.0600501 0.0879215 0.119523 0.15382 0.190222 0.228457 0.268433 0.310153 0.353674 0.399088 0.446513 0.496087 0.547962 0.60229 0.659194 0.718703 0.780575 0.843813 0.905214 0.954743 0.965932 0.952466 0.94139 0.933744 0.92977 0.928102 0.927378 0.926895 0.926387 0.926359 0.926343 0.926337 0.926336 0.926339 0.926343 0.92637 0.926502 0.926705 0.926714 0.926627 0.926514 0.92638 0.926263 0.926138 0.926026 0.925922 0.925835 0.92577 0.925729 0.925723 0.925755 0.925976 0.925686 0.925496 0.925169 0.924973 0.924865 0.925564 0.925301 0.924292 0.923382 0.922036 0.92198 0.924191 0.914085 0.915921 0.873199 0.863238 0.817655 0.738013 0.696968 0.573621 0.466931 0.33898 0.221903 0.125532 0.060769 0.0256559 0.00991741 0.00366674 0.0013283 0.000476187 0.000169501 5.99456e-05 2.1056e-05 7.34011e-06 2.53725e-06 8.6891e-07 2.94555e-07 9.87619e-08 3.27286e-08 1.07126e-08 3.46128e-09 1.10335e-09 3.46867e-10 1.07481e-10 3.29796e-11 9.82323e-12 2.92233e-12 8.53299e-13 1.81936e-13 -7.37621e-14 4.77829e-14 3.76073e-14 1.05242e-13 -7.57314e-15 -1.67127e-14 -1.06352e-13 -8.26268e-14 -7.31598e-14 -8.24751e-14 3.13457e-14 1.11226e-13 -1.7672e-13 -2.31356e-13 1.47692e-13 8.36425e-14 -1.61284e-13 -1.12774e-13 -8.33919e-14 4.92982e-14 -1.02693e-13 -2.23177e-14 -3.24585e-14 7.53313e-14 -8.14676e-14 -2.13059e-14 3.00673e-14 0 0 -4.29802e-16 -1.37417e-15 -1.62308e-16 1.14804e-15 1.67863e-15 1.50816e-15 1.77056e-15 5.0382e-16 -6.19655e-15 4.20319e-15 1.07678e-15 4.30392e-15 7.48338e-15 2.54184e-15 -8.4038e-15 1.20059e-14 5.75595e-15 -8.76317e-15 8.74733e-15 4.80933e-15 3.4576e-15 1.36803e-14 3.32358e-15 1.06436e-14 1.36912e-14 2.52296e-14 -2.18765e-14 2.13258e-14 1.31363e-14 2.20504e-15 8.14218e-15 1.33749e-14 4.31256e-15 -3.63182e-15 2.77766e-14 -1.11633e-14 1.9575e-14 2.82482e-14 -2.57184e-14 -2.18846e-15 3.50772e-14 -2.04886e-14 1.36299e-14 3.27014e-14 -7.18297e-17 7.01779e-15 2.42068e-14 -6.06586e-16 1.06148e-14 -1.19777e-14 4.08385e-14 5.24708e-14 1.51877e-13 7.20969e-13 6.0351e-12 4.55837e-11 3.23235e-10 2.14631e-09 1.33224e-08 7.70592e-08 4.13829e-07 2.05474e-06 9.38694e-06 3.92307e-05 0.000148967 0.000509761 0.00155724 0.00420454 0.00994832 0.0205525 0.0372467 0.0600501 0.0879215 0.119523 0.15382 0.190222 0.228457 0.268433 0.310153 0.353674 0.399088 0.446513 0.496087 0.547962 0.60229 0.659194 0.718703 0.780575 0.843813 0.905214 0.954743 0.965932 0.952466 0.94139 0.933744 0.92977 0.928102 0.927378 0.926895 0.926387 0.926359 0.926343 0.926337 0.926336 0.926339 0.926343 0.92637 0.926502 0.926705 0.926714 0.926627 0.926514 0.92638 0.926263 0.926138 0.926026 0.925922 0.925835 0.92577 0.925729 0.925723 0.925755 0.925976 0.925686 0.925496 0.925169 0.924973 0.924865 0.925564 0.925301 0.924292 0.923382 0.922036 0.92198 0.924191 0.914085 0.915921 0.873199 0.863238 0.817655 0.738013 0.696968 0.573621 0.466931 0.33898 0.221903 0.125532 0.060769 0.0256559 0.00991741 0.00366674 0.0013283 0.000476187 0.000169501 5.99456e-05 2.1056e-05 7.34011e-06 2.53725e-06 8.6891e-07 2.94555e-07 9.87619e-08 3.27286e-08 1.07125e-08 3.46127e-09 1.10335e-09 3.46967e-10 1.07448e-10 3.29218e-11 9.83272e-12 2.93941e-12 8.90604e-13 2.08727e-13 -1.6207e-14 -8.24038e-14 3.57476e-14 1.28355e-13 1.89378e-14 -6.30065e-14 -3.83284e-14 -8.1693e-14 3.09194e-14 -7.45135e-14 -4.18781e-14 -6.11467e-14 2.29905e-14 -4.79559e-14 9.29725e-14 -1.52649e-13 -6.33479e-14 -3.16746e-14 -7.03548e-14 -4.30763e-14 -6.62988e-14 -6.69963e-14 8.93427e-14 -7.54337e-14 3.58454e-14 -4.94394e-14 6.62976e-14 0 0 -1.05496e-15 1.51641e-16 1.668e-15 1.13581e-15 -3.73333e-16 -3.47352e-15 6.40277e-15 -2.06691e-15 -3.86022e-15 2.69629e-15 -3.21669e-15 4.36419e-15 1.01333e-14 -3.07012e-15 -7.24843e-15 1.23558e-14 7.97579e-15 2.19145e-15 5.19165e-15 1.56416e-14 5.19668e-16 1.26567e-14 -5.03581e-15 1.09432e-14 2.18701e-14 -1.59099e-14 1.72706e-14 5.20933e-15 -3.70495e-15 -4.97077e-15 1.14251e-14 8.99224e-15 2.02689e-15 1.7575e-14 2.2032e-14 -8.53372e-15 6.60003e-15 -2.43437e-15 2.51714e-14 2.07442e-14 -9.91187e-15 1.20705e-15 -1.64301e-14 2.32128e-14 2.71428e-14 1.78735e-14 6.96697e-15 3.12299e-14 1.35176e-14 -3.16632e-14 4.74816e-14 1.01328e-13 1.82613e-13 6.53866e-13 6.03188e-12 4.55867e-11 3.23242e-10 2.14627e-09 1.33224e-08 7.70593e-08 4.13829e-07 2.05474e-06 9.38694e-06 3.92307e-05 0.000148967 0.000509761 0.00155724 0.00420454 0.00994832 0.0205525 0.0372467 0.0600501 0.0879215 0.119523 0.15382 0.190222 0.228457 0.268433 0.310153 0.353674 0.399088 0.446513 0.496087 0.547962 0.60229 0.659194 0.718703 0.780575 0.843813 0.905214 0.954743 0.965932 0.952466 0.94139 0.933744 0.92977 0.928102 0.927378 0.926895 0.926387 0.926359 0.926343 0.926337 0.926336 0.926339 0.926343 0.92637 0.926502 0.926705 0.926714 0.926627 0.926514 0.92638 0.926263 0.926138 0.926026 0.925922 0.925835 0.92577 0.925729 0.925723 0.925755 0.925976 0.925686 0.925496 0.925169 0.924973 0.924865 0.925564 0.925301 0.924292 0.923382 0.922036 0.92198 0.924191 0.914085 0.915921 0.873199 0.863238 0.817655 0.738013 0.696968 0.573621 0.466931 0.33898 0.221903 0.125532 0.060769 0.0256559 0.00991741 0.00366674 0.0013283 0.000476187 0.000169501 5.99456e-05 2.1056e-05 7.34011e-06 2.53725e-06 8.6891e-07 2.94554e-07 9.8762e-08 3.27285e-08 1.07125e-08 3.4613e-09 1.10325e-09 3.47005e-10 1.07471e-10 3.2816e-11 9.96077e-12 2.9021e-12 8.81394e-13 1.56619e-13 1.19266e-13 -1.02204e-13 -8.81793e-14 1.38201e-13 -7.86235e-14 -4.47885e-14 2.2057e-14 1.15854e-13 -1.75635e-13 -8.5882e-15 -6.49489e-14 -4.08771e-14 5.23004e-14 7.4353e-14 2.20033e-14 -2.06157e-13 -4.42377e-14 1.08037e-13 -8.98433e-14 -3.88566e-14 6.62162e-15 -7.61679e-14 4.82722e-14 -2.9697e-14 9.37264e-15 1.45662e-14 1.09518e-13 0 0 2.71643e-15 4.87547e-16 2.30087e-15 7.34074e-16 -3.55967e-15 -8.59393e-16 -5.65406e-15 1.31477e-15 1.59606e-15 -5.52244e-15 2.62261e-15 -1.12231e-15 6.3638e-15 7.01796e-15 2.33142e-15 9.86634e-15 5.3181e-15 8.10311e-15 1.63365e-14 2.80342e-14 -1.05505e-14 2.32886e-15 -5.07537e-15 1.06869e-14 -4.95979e-15 -7.55173e-15 2.16139e-14 -2.34902e-14 1.50611e-14 1.24802e-14 -1.44645e-14 2.48067e-14 3.25419e-15 3.65392e-14 1.68439e-14 1.30106e-15 -5.52806e-14 8.02139e-15 1.92835e-14 2.82205e-14 -5.81304e-14 6.08242e-14 -1.73343e-14 2.58086e-14 2.1694e-14 -2.46815e-14 3.65293e-15 3.00564e-14 1.87762e-14 1.03666e-14 4.63408e-14 1.04066e-13 2.13592e-13 7.31194e-13 5.91306e-12 4.56421e-11 3.23134e-10 2.1463e-09 1.33224e-08 7.70593e-08 4.13829e-07 2.05474e-06 9.38694e-06 3.92307e-05 0.000148967 0.000509761 0.00155724 0.00420454 0.00994832 0.0205525 0.0372467 0.0600501 0.0879215 0.119523 0.15382 0.190222 0.228457 0.268433 0.310153 0.353674 0.399088 0.446513 0.496087 0.547962 0.60229 0.659194 0.718703 0.780575 0.843813 0.905214 0.954743 0.965932 0.952466 0.94139 0.933744 0.92977 0.928102 0.927378 0.926895 0.926387 0.926359 0.926343 0.926337 0.926336 0.926339 0.926343 0.92637 0.926502 0.926705 0.926714 0.926627 0.926514 0.92638 0.926263 0.926138 0.926026 0.925922 0.925835 0.92577 0.925729 0.925723 0.925755 0.925976 0.925686 0.925496 0.925169 0.924973 0.924865 0.925564 0.925301 0.924292 0.923382 0.922036 0.92198 0.924191 0.914085 0.915921 0.873199 0.863238 0.817655 0.738013 0.696968 0.573621 0.466931 0.33898 0.221903 0.125532 0.060769 0.0256559 0.00991741 0.00366674 0.0013283 0.000476187 0.000169501 5.99456e-05 2.1056e-05 7.34011e-06 2.53725e-06 8.6891e-07 2.94555e-07 9.8762e-08 3.27285e-08 1.07126e-08 3.46119e-09 1.10336e-09 3.46881e-10 1.07529e-10 3.28359e-11 9.94713e-12 3.01887e-12 7.01793e-13 2.89546e-13 1.8056e-13 -1.37285e-13 -1.40488e-13 4.04455e-14 5.55248e-14 -1.1076e-14 -3.88463e-14 2.08151e-13 -2.47577e-13 -2.81623e-14 -1.95093e-14 -9.76238e-14 -5.91003e-14 4.66684e-15 7.10485e-14 4.08473e-14 -2.31069e-13 3.72317e-14 -5.91714e-15 1.29538e-13 -4.77584e-14 4.05039e-14 4.74098e-14 -4.30525e-14 -6.97784e-14 6.0252e-14 -2.31961e-14 0 0 2.58892e-15 -3.8083e-16 -1.88113e-16 6.0775e-16 -4.76069e-15 8.99663e-16 -1.04253e-14 1.58807e-15 6.41222e-17 -2.47428e-15 2.0403e-15 -2.56891e-15 -1.78247e-15 9.50589e-15 1.96057e-15 1.04531e-14 1.39536e-14 1.29482e-14 3.61479e-14 4.55139e-15 -4.76862e-15 9.15966e-15 -1.35349e-14 -1.99059e-15 -1.85805e-14 1.08581e-14 -1.19489e-14 -1.74518e-14 3.62594e-14 1.49518e-14 -3.31368e-14 2.45138e-14 2.55416e-14 1.54288e-14 1.2281e-14 3.06163e-15 -4.92671e-14 6.83563e-14 -4.50294e-14 1.58993e-14 -2.46797e-14 2.48514e-14 1.28248e-14 4.61829e-14 -2.29553e-14 -5.37763e-15 -2.53411e-15 4.89658e-16 2.07256e-14 4.47229e-14 9.43239e-14 8.95134e-14 1.60837e-13 7.84146e-13 5.91596e-12 4.56507e-11 3.23046e-10 2.14628e-09 1.33224e-08 7.70591e-08 4.13829e-07 2.05474e-06 9.38694e-06 3.92307e-05 0.000148967 0.000509761 0.00155724 0.00420454 0.00994832 0.0205525 0.0372467 0.0600501 0.0879215 0.119523 0.15382 0.190222 0.228457 0.268433 0.310153 0.353674 0.399088 0.446513 0.496087 0.547962 0.60229 0.659194 0.718703 0.780575 0.843813 0.905214 0.954743 0.965932 0.952466 0.94139 0.933744 0.92977 0.928102 0.927378 0.926895 0.926387 0.926359 0.926343 0.926337 0.926336 0.926339 0.926343 0.92637 0.926502 0.926705 0.926714 0.926627 0.926514 0.92638 0.926263 0.926138 0.926026 0.925922 0.925835 0.92577 0.925729 0.925723 0.925755 0.925976 0.925686 0.925496 0.925169 0.924973 0.924865 0.925564 0.925301 0.924292 0.923382 0.922036 0.92198 0.924191 0.914085 0.915921 0.873199 0.863238 0.817655 0.738013 0.696968 0.573621 0.466931 0.33898 0.221903 0.125532 0.060769 0.0256559 0.00991741 0.00366674 0.0013283 0.000476187 0.000169501 5.99456e-05 2.1056e-05 7.34011e-06 2.53725e-06 8.6891e-07 2.94555e-07 9.87619e-08 3.27286e-08 1.07124e-08 3.46131e-09 1.10345e-09 3.46954e-10 1.07619e-10 3.28049e-11 1.00438e-11 3.00191e-12 7.85221e-13 6.70844e-14 1.62233e-13 -2.68241e-13 -2.44206e-14 4.40298e-14 1.65121e-13 8.52146e-14 -9.63889e-14 -7.89258e-14 3.86163e-14 -1.16898e-13 4.60815e-14 -2.68511e-13 -2.62231e-14 6.35822e-14 1.43859e-13 4.79633e-14 5.16879e-14 -1.34464e-13 2.19621e-14 -3.28272e-14 -6.15442e-14 1.64632e-13 -2.23703e-14 -2.3078e-14 -2.11549e-15 -7.34038e-14 -6.8924e-14 0 0 -9.59181e-16 2.84888e-15 -3.09674e-15 -3.40337e-15 -3.67735e-15 -7.89842e-15 4.12214e-15 -6.10434e-15 2.95705e-15 7.95906e-15 -7.12891e-15 2.1714e-16 -1.45395e-14 5.6837e-15 -2.12611e-15 1.35962e-14 2.05746e-14 3.00374e-14 3.48699e-14 -1.64592e-14 5.25506e-15 1.74271e-14 -1.98203e-14 -1.61663e-14 6.13259e-15 -2.45192e-14 -1.37458e-14 2.19351e-15 3.35898e-14 -1.36872e-14 -3.60117e-15 1.06185e-14 3.50104e-14 1.3018e-14 -2.04015e-14 5.60581e-15 3.0236e-15 6.62117e-14 -2.02491e-14 9.52231e-15 -3.93677e-14 3.31412e-14 -1.53592e-14 4.49885e-14 -2.35417e-14 3.29075e-14 -1.52183e-14 -9.18418e-15 1.79009e-14 5.62007e-14 1.0866e-13 1.17656e-13 9.5873e-14 7.00558e-13 6.00938e-12 4.56559e-11 3.23068e-10 2.14619e-09 1.33224e-08 7.70591e-08 4.13829e-07 2.05474e-06 9.38694e-06 3.92307e-05 0.000148967 0.000509761 0.00155724 0.00420454 0.00994832 0.0205525 0.0372467 0.0600501 0.0879215 0.119523 0.15382 0.190222 0.228457 0.268433 0.310153 0.353674 0.399088 0.446513 0.496087 0.547962 0.60229 0.659194 0.718703 0.780575 0.843813 0.905214 0.954743 0.965932 0.952466 0.94139 0.933744 0.92977 0.928102 0.927378 0.926895 0.926387 0.926359 0.926343 0.926337 0.926336 0.926339 0.926343 0.92637 0.926502 0.926705 0.926714 0.926627 0.926514 0.92638 0.926263 0.926138 0.926026 0.925922 0.925835 0.92577 0.925729 0.925723 0.925755 0.925976 0.925686 0.925496 0.925169 0.924973 0.924865 0.925564 0.925301 0.924292 0.923382 0.922036 0.92198 0.924191 0.914085 0.915921 0.873199 0.863238 0.817655 0.738013 0.696968 0.573621 0.466931 0.33898 0.221903 0.125532 0.060769 0.0256559 0.00991741 0.00366674 0.0013283 0.000476187 0.000169501 5.99456e-05 2.1056e-05 7.34011e-06 2.53725e-06 8.6891e-07 2.94555e-07 9.87619e-08 3.27286e-08 1.07122e-08 3.46158e-09 1.10334e-09 3.47091e-10 1.07709e-10 3.27057e-11 1.02721e-11 2.81373e-12 1.00141e-12 -3.67378e-13 1.6048e-13 -2.54208e-13 2.16599e-14 1.32199e-13 1.65426e-14 2.12528e-13 -1.00404e-13 -2.61733e-13 8.60775e-14 -1.28137e-13 1.16275e-13 -1.89364e-13 -5.16965e-14 1.31852e-13 1.52225e-13 -9.3548e-15 4.42039e-13 -1.76963e-13 -6.67055e-14 -2.67471e-13 1.51376e-14 2.07576e-13 -2.53974e-13 2.06829e-13 8.56557e-16 -1.60846e-13 2.46263e-14 0
				</DataArray>
				<DataArray Name="VitesseY" type="Float32" format="ascii">