<?xml version="1.0"?>
<VTKFile type="PolyData">
	<PolyData>
		<Piece NumberOfPoints="1206" NumberOfPolys="1000">
			<Points>
				<DataArray type="Float32" NumberOfComponents="3" format="ascii">
 0 0 0 0.005 0 0 0.01 0 0 0.015 0 0 0.02 0 0 0.025 0 0 0.03 0 0 0.035 0 0 0.04 0 0 0.045 0 0 0.05 0 0 0.055 0 0 0.06 0 0 0.065 0 0 0.07 0 0 0.075 0 0 0.08 0 0 0.085 0 0 0.09 0 0 0.095 0 0 0.1 0 0 0.105 0 0 0.11 0 0 0.115 0 0 0.12 0 0 0.125 0 0 0.13 0 0 0.135 0 0 0.14 0 0 0.145 0 0 0.15 0 0 0.155 0 0 0.16 0 0 0.165 0 0 0.17 0 0 0.175 0 0 0.18 0 0 0.185 0 0 0.19 0 0 0.195 0 0 0.2 0 0 0.205 0 0 0.21 0 0 0.215 0 0 0.22 0 0 0.225 0 0 0.23 0 0 0.235 0 0 0.24 0 0 0.245 0 0 0.25 0 0 0.255 0 0 0.26 0 0 0.265 0 0 0.27 0 0 0.275001 0 0 0.280002 0 0 0.285006 0 0 0.290017 0 0 0.295041 0 0 0.300091 0 0 0.305183 0 0 0.310336 0 0 0.315569 0 0 0.320897 0 0 0.326333 0 0 0.331888 0 0 0.337572 0 0 0.343393 0 0 0.34936 0 0 0.355484 0 0 0.361773 0 0 0.36824 0 0 0.374897 0 0 0.381755 0 0 0.388829 0 0 0.396136 0 0 0.403693 0 0 0.411518 0 0 0.419635 0 0 0.428067 0 0 0.436841 0 0 0.445988 0 0 0.455542 0 0 0.465538 0 0 0.476014 0 0 0.487004 0 0 0.498515 0 0 0.510482 0 0 0.522638 0 0 0.534706 0 0 0.54667 0 0 0.558537 0 0 0.570334 0 0 0.582091 0 0 0.59383 0 0 0.60556 0 0 0.617288 0 0 0.629014 0 0 0.640742 0 0 0.652484 0 0 0.655092 0 0 0.657626 0 0 0.660115 0 0 0.662573 0 0 0.66501 0 0 0.667431 0 0 0.669841 0 0 0.672244 0 0 0.674644 0 0 0.677047 0 0 0.679451 0 0 0.681857 0 0 0.68426 0 0 0.686658 0 0 0.689048 0 0 0.691434 0 0 0.693815 0 0 0.696193 0 0 0.698569 0 0 0.700943 0 0 0.703316 0 0 0.705688 0 0 0.708059 0 0 0.710429 0 0 0.712799 0 0 0.715168 0 0 0.717536 0 0 0.719904 0 0 0.722272 0 0 0.724639 0 0 0.727007 0 0 0.729374 0 0 0.731741 0 0 0.734107 0 0 0.736474 0 0 0.73884 0 0 0.741207 0 0 0.743573 0 0 0.74594 0 0 0.748306 0 0 0.750673 0 0 0.75304 0 0 0.755408 0 0 0.757775 0 0 0.760144 0 0 0.762515 0 0 0.764889 0 0 0.767267 0 0 0.769655 0 0 0.772053 0 0 0.774477 0 0 0.776926 0 0 0.779435 0 0 0.781996 0 0 0.784676 0 0 0.787477 0 0 0.790506 0 0 0.793794 0 0 0.797418 0 0 0.801397 0 0 0.80572 0 0 0.810329 0 0 0.815136 0 0 0.820052 0 0 0.825019 0 0 0.830007 0 0 0.835003 0 0 0.840001 0 0 0.845 0 0 0.85 0 0 0.855 0 0 0.86 0 0 0.865 0 0 0.87 0 0 0.875 0 0 0.88 0 0 0.885 0 0 0.89 0 0 0.895 0 0 0.9 0 0 0.905 0 0 0.91 0 0 0.915 0 0 0.92 0 0 0.925 0 0 0.93 0 0 0.935 0 0 0.94 0 0 0.945 0 0 0.95 0 0 0.955 0 0 0.96 0 0 0.965 0 0 0.97 0 0 0.975 0 0 0.98 0 0 0.985 0 0 0.99 0 0 0.995 0 0 1 0 0 0 0.02 0 0.005 0.02 0 0.01 0.02 0 0.015 0.02 0 0.02 0.02 0 0.025 0.02 0 0.03 0.02 0 0.035 0.02 0 0.04 0.02 0 0.045 0.02 0 0.05 0.02 0 0.055 0.02 0 0.06 0.02 0 0.065 0.02 0 0.07 0.02 0 0.075 0.02 0 0.08 0.02 0 0.085 0.02 0 0.09 0.02 0 0.095 0.02 0 0.1 0.02 0 0.105 0.02 0 0.11 0.02 0 0.115 0.02 0 0.12 0.02 0 0.125 0.02 0 0.13 0.02 0 0.135 0.02 0 0.14 0.02 0 0.145 0.02 0 0.15 0.02 0 0.155 0.02 0 0.16 0.02 0 0.165 0.02 0 0.17 0.02 0 0.175 0.02 0 0.18 0.02 0 0.185 0.02 0 0.19 0.02 0 0.195 0.02 0 0.2 0.02 0 0.205 0.02 0 0.21 0.02 0 0.215 0.02 0 0.22 0.02 0 0.225 0.02 0 0.23 0.02 0 0.235 0.02 0 0.24 0.02 0 0.245 0.02 0 0.25 0.02 0 0.255 0.02 0 0.26 0.02 0 0.265 0.02 0 0.27 0.02 0 0.275001 0.02 0 0.280002 0.02 0 0.285006 0.02 0 0.290017 0.02 0 0.295041 0.02 0 0.300091 0.02 0 0.305183 0.02 0 0.310336 0.02 0 0.315569 0.02 0 0.320897 0.02 0 0.326333 0.02 0 0.331888 0.02 0 0.337572 0.02 0 0.343393 0.02 0 0.34936 0.02 0 0.355484 0.02 0 0.361773 0.02 0 0.36824 0.02 0 0.374897 0.02 0 0.381755 0.02 0 0.388829 0.02 0 0.396136 0.02 0 0.403693 0.02 0 0.411518 0.02 0 0.419635 0.02 0 0.428067 0.02 0 0.436841 0.02 0 0.445988 0.02 0 0.455542 0.02 0 0.465538 0.02 0 0.476014 0.02 0 0.487004 0.02 0 0.498515 0.02 0 0.510482 0.02 0 0.522638 0.02 0 0.534706 0.02 0 0.54667 0.02 0 0.558537 0.02 0 0.570334 0.02 0 0.582091 0.02 0 0.59383 0.02 0 0.60556 0.02 0 0.617288 0.02 0 0.629014 0.02 0 0.640742 0.02 0 0.652484 0.02 0 0.655092 0.02 0 0.657626 0.02 0 0.660115 0.02 0 0.662573 0.02 0 0.66501 0.02 0 0.667431 0.02 0 0.669841 0.02 0 0.672244 0.02 0 0.674644 0.02 0 0.677047 0.02 0 0.679451 0.02 0 0.681857 0.02 0 0.68426 0.02 0 0.686658 0.02 0 0.689048 0.02 0 0.691434 0.02 0 0.693815 0.02 0 0.696193 0.02 0 0.698569 0.02 0 0.700943 0.02 0 0.703316 0.02 0 0.705688 0.02 0 0.708059 0.02 0 0.710429 0.02 0 0.712799 0.02 0 0.715168 0.02 0 0.717536 0.02 0 0.719904 0.02 0 0.722272 0.02 0 0.724639 0.02 0 0.727007 0.02 0 0.729374 0.02 0 0.731741 0.02 0 0.734107 0.02 0 0.736474 0.02 0 0.73884 0.02 0 0.741207 0.02 0 0.743573 0.02 0 0.74594 0.02 0 0.748306 0.02 0 0.750673 0.02 0 0.75304 0.02 0 0.755408 0.02 0 0.757775 0.02 0 0.760144 0.02 0 0.762515 0.02 0 0.764889 0.02 0 0.767267 0.02 0 0.769655 0.02 0 0.772053 0.02 0 0.774477 0.02 0 0.776926 0.02 0 0.779435 0.02 0 0.781996 0.02 0 0.784676 0.02 0 0.787477 0.02 0 0.790506 0.02 0 0.793794 0.02 0 0.797418 0.02 0 0.801397 0.02 0 0.80572 0.02 0 0.810329 0.02 0 0.815136 0.02 0 0.820052 0.02 0 0.825019 0.02 0 0.830007 0.02 0 0.835003 0.02 0 0.840001 0.02 0 0.845 0.02 0 0.85 0.02 0 0.855 0.02 0 0.86 0.02 0 0.865 0.02 0 0.87 0.02 0 0.875 0.02 0 0.88 0.02 0 0.885 0.02 0 0.89 0.02 0 0.895 0.02 0 0.9 0.02 0 0.905 0.02 0 0.91 0.02 0 0.915 0.02 0 0.92 0.02 0 0.925 0.02 0 0.93 0.02 0 0.935 0.02 0 0.94 0.02 0 0.945 0.02 0 0.95 0.02 0 0.955 0.02 0 0.96 0.02 0 0.965 0.02 0 0.97 0.02 0 0.975 0.02 0 0.98 0.02 0 0.985 0.02 0 0.99 0.02 0 0.995 0.02 0 1 0.02 0 0 0.04 0 0.005 0.04 0 0.01 0.04 0 0.015 0.04 0 0.02 0.04 0 0.025 0.04 0 0.03 0.04 0 0.035 0.04 0 0.04 0.04 0 0.045 0.04 0 0.05 0.04 0 0.055 0.04 0 0.06 0.04 0 0.065 0.04 0 0.07 0.04 0 0.075 0.04 0 0.08 0.04 0 0.085 0.04 0 0.09 0.04 0 0.095 0.04 0 0.1 0.04 0 0.105 0.04 0 0.11 0.04 0 0.115 0.04 0 0.12 0.04 0 0.125 0.04 0 0.13 0.04 0 0.135 0.04 0 0.14 0.04 0 0.145 0.04 0 0.15 0.04 0 0.155 0.04 0 0.16 0.04 0 0.165 0.04 0 0.17 0.04 0 0.175 0.04 0 0.18 0.04 0 0.185 0.04 0 0.19 0.04 0 0.195 0.04 0 0.2 0.04 0 0.205 0.04 0 0.21 0.04 0 0.215 0.04 0 0.22 0.04 0 0.225 0.04 0 0.23 0.04 0 0.235 0.04 0 0.24 0.04 0 0.245 0.04 0 0.25 0.04 0 0.255 0.04 0 0.26 0.04 0 0.265 0.04 0 0.27 0.04 0 0.275001 0.04 0 0.280002 0.04 0 0.285006 0.04 0 0.290017 0.04 0 0.295041 0.04 0 0.300091 0.04 0 0.305183 0.04 0 0.310336 0.04 0 0.315569 0.04 0 0.320897 0.04 0 0.326333 0.04 0 0.331888 0.04 0 0.337572 0.04 0 0.343393 0.04 0 0.34936 0.04 0 0.355484 0.04 0 0.361773 0.04 0 0.36824 0.04 0 0.374897 0.04 0 0.381755 0.04 0 0.388829 0.04 0 0.396136 0.04 0 0.403693 0.04 0 0.411518 0.04 0 0.419635 0.04 0 0.428067 0.04 0 0.436841 0.04 0 0.445988 0.04 0 0.455542 0.04 0 0.465538 0.04 0 0.476014 0.04 0 0.487004 0.04 0 0.498515 0.04 0 0.510482 0.04 0 0.522638 0.04 0 0.534706 0.04 0 0.54667 0.04 0 0.558537 0.04 0 0.570334 0.04 0 0.582091 0.04 0 0.59383 0.04 0 0.60556 0.04 0 0.617288 0.04 0 0.629014 0.04 0 0.640742 0.04 0 0.652484 0.04 0 0.655092 0.04 0 0.657626 0.04 0 0.660115 0.04 0 0.662573 0.04 0 0.66501 0.04 0 0.667431 0.04 0 0.669841 0.04 0 0.672244 0.04 0 0.674644 0.04 0 0.677047 0.04 0 0.679451 0.04 0 0.681857 0.04 0 0.68426 0.04 0 0.686658 0.04 0 0.689048 0.04 0 0.691434 0.04 0 0.693815 0.04 0 0.696193 0.04 0 0.698569 0.04 0 0.700943 0.04 0 0.703316 0.04 0 0.705688 0.04 0 0.708059 0.04 0 0.710429 0.04 0 0.712799 0.04 0 0.715168 0.04 0 0.717536 0.04 0 0.719904 0.04 0 0.722272 0.04 0 0.724639 0.04 0 0.727007 0.04 0 0.729374 0.04 0 0.731741 0.04 0 0.734107 0.04 0 0.736474 0.04 0 0.73884 0.04 0 0.741207 0.04 0 0.743573 0.04 0 0.74594 0.04 0 0.748306 0.04 0 0.750673 0.04 0 0.75304 0.04 0 0.755408 0.04 0 0.757775 0.04 0 0.760144 0.04 0 0.762515 0.04 0 0.764889 0.04 0 0.767267 0.04 0 0.769655 0.04 0 0.772053 0.04 0 0.774477 0.04 0 0.776926 0.04 0 0.779435 0.04 0 0.781996 0.04 0 0.784676 0.04 0 0.787477 0.04 0 0.790506 0.04 0 0.793794 0.04 0 0.797418 0.04 0 0.801397 0.04 0 0.80572 0.04 0 0.810329 0.04 0 0.815136 0.04 0 0.820052 0.04 0 0.825019 0.04 0 0.830007 0.04 0 0.835003 0.04 0 0.840001 0.04 0 0.845 0.04 0 0.85 0.04 0 0.855 0.04 0 0.86 0.04 0 0.865 0.04 0 0.87 0.04 0 0.875 0.04 0 0.88 0.04 0 0.885 0.04 0 0.89 0.04 0 0.895 0.04 0 0.9 0.04 0 0.905 0.04 0 0.91 0.04 0 0.915 0.04 0 0.92 0.04 0 0.925 0.04 0 0.93 0.04 0 0.935 0.04 0 0.94 0.04 0 0.945 0.04 0 0.95 0.04 0 0.955 0.04 0 0.96 0.04 0 0.965 0.04 0 0.97 0.04 0 0.975 0.04 0 0.98 0.04 0 0.985 0.04 0 0.99 0.04 0 0.995 0.04 0 1 0.04 0 0 0.06 0 0.005 0.06 0 0.01 0.06 0 0.015 0.06 0 0.02 0.06 0 0.025 0.06 0 0.03 0.06 0 0.035 0.06 0 0.04 0.06 0 0.045 0.06 0 0.05 0.06 0 0.055 0.06 0 0.06 0.06 0 0.065 0.06 0 0.07 0.06 0 0.075 0.06 0 0.08 0.06 0 0.085 0.06 0 0.09 0.06 0 0.095 0.06 0 0.1 0.06 0 0.105 0.06 0 0.11 0.06 0 0.115 0.06 0 0.12 0.06 0 0.125 0.06 0 0.13 0.06 0 0.135 0.06 0 0.14 0.06 0 0.145 0.06 0 0.15 0.06 0 0.155 0.06 0 0.16 0.06 0 0.165 0.06 0 0.17 0.06 0 0.175 0.06 0 0.18 0.06 0 0.185 0.06 0 0.19 0.06 0 0.195 0.06 0 0.2 0.06 0 0.205 0.06 0 0.21 0.06 0 0.215 0.06 0 0.22 0.06 0 0.225 0.06 0 0.23 0.06 0 0.235 0.06 0 0.24 0.06 0 0.245 0.06 0 0.25 0.06 0 0.255 0.06 0 0.26 0.06 0 0.265 0.06 0 0.27 0.06 0 0.275001 0.06 0 0.280002 0.06 0 0.285006 0.06 0 0.290017 0.06 0 0.295041 0.06 0 0.300091 0.06 0 0.305183 0.06 0 0.310336 0.06 0 0.315569 0.06 0 0.320897 0.06 0 0.326333 0.06 0 0.331888 0.06 0 0.337572 0.06 0 0.343393 0.06 0 0.34936 0.06 0 0.355484 0.06 0 0.361773 0.06 0 0.36824 0.06 0 0.374897 0.06 0 0.381755 0.06 0 0.388829 0.06 0 0.396136 0.06 0 0.403693 0.06 0 0.411518 0.06 0 0.419635 0.06 0 0.428067 0.06 0 0.436841 0.06 0 0.445988 0.06 0 0.455542 0.06 0 0.465538 0.06 0 0.476014 0.06 0 0.487004 0.06 0 0.498515 0.06 0 0.510482 0.06 0 0.522638 0.06 0 0.534706 0.06 0 0.54667 0.06 0 0.558537 0.06 0 0.570334 0.06 0 0.582091 0.06 0 0.59383 0.06 0 0.60556 0.06 0 0.617288 0.06 0 0.629014 0.06 0 0.640742 0.06 0 0.652484 0.06 0 0.655092 0.06 0 0.657626 0.06 0 0.660115 0.06 0 0.662573 0.06 0 0.66501 0.06 0 0.667431 0.06 0 0.669841 0.06 0 0.672244 0.06 0 0.674644 0.06 0 0.677047 0.06 0 0.679451 0.06 0 0.681857 0.06 0 0.68426 0.06 0 0.686658 0.06 0 0.689048 0.06 0 0.691434 0.06 0 0.693815 0.06 0 0.696193 0.06 0 0.698569 0.06 0 0.700943 0.06 0 0.70
[...]
			<PointData Scalars="VitesseX">
				<DataArray Name="VitesseX" type="Float32" format="ascii">
 0 -9.16455e-16 -2.467e-15 -2.45373e-15 -6.12115e-15 -6.29797e-15 -7.18137e-15 -7.74654e-15 -7.36257e-15 -4.8142e-15 -3.16203e-15 -3.65518e-15 -9.33931e-15 -1.63914e-14 -7.16536e-15 -1.31347e-14 -1.77451e-14 -1.2023e-14 -1.19921e-14 -2.08e-14 -1.86798e-14 -2.96521e-14 -3.41474e-14 -4.14126e-14 -3.85247e-14 -2.46172e-14 -3.75822e-14 -4.4179e-14 -2.72083e-14 -2.71896e-14 -3.8224e-14 -2.73715e-14 -4.37883e-14 -2.31198e-14 -2.3929e-14 -2.66929e-14 -2.45287e-14 -2.02983e-14 -3.50598e-14 -1.59674e-14 -2.60973e-14 2.02544e-14 1.93155e-13 1.36533e-12 9.07644e-12 5.68089e-11 3.3572e-10 1.87901e-09 9.94161e-09 4.95885e-08 2.32563e-07 1.02238e-06 4.19836e-06 1.60394e-05 5.67401e-05 0.000184827 0.000550806 0.00149081 0.00363741 0.00795085 0.0155273 0.0271712 0.0430105 0.062497 0.0847735 0.109061 0.13483 0.161777 0.189753 0.218692 0.248572 0.279402 0.311203 0.344012 0.377872 0.412837 0.448967 0.48633 0.524999 0.565049 0.606559 0.649596 0.694207 0.740381 0.787972 0.836508 0.884681 0.928873 0.959136 0.957621 0.94876 0.940147 0.933767 0.929917 0.928008 0.927151 0.926739 0.926505 0.926358 0.926256 0.926174 0.92616 0.926145 0.926132 0.926118 0.926104 0.926091 0.926077 0.926064 0.92605 0.926036 0.926023 0.926009 0.925995 0.925982 0.925968 0.925954 0.925941 0.925927 0.925913 0.925898 0.925883 0.925868 0.925851 0.925834 0.925817 0.925797 0.925778 0.925756 0.925735 0.925711 0.925689 0.92566 0.925638 0.925603 0.925581 0.925534 0.925516 0.925443 0.925432 0.9253 0.925298 0.925023 0.925034 0.924371 0.924416 0.92264 0.92279 0.91787 0.918347 0.905142 0.90665 0.875081 0.879337 0.815035 0.815046 0.708472 0.655365 0.526945 0.411898 0.283926 0.173484 0.0907345 0.0408388 0.0164165 0.00619743 0.00227431 0.000824906 0.000297667 0.000107105 3.84496e-05 1.37701e-05 4.91807e-06 1.75089e-06 6.21003e-07 2.19308e-07 7.70693e-08 2.6935e-08 9.35638e-09 3.22833e-09 1.106e-09 3.75788e-10 1.26683e-10 4.23185e-11 1.3947e-11 4.48103e-12 1.38859e-12 3.24476e-13 1.4987e-13 -7.93126e-14 3.31395e-14 9.42477e-14 3.95747e-14 7.44951e-14 -4.24941e-14 -3.00324e-14 3.28925e-14 -7.43191e-14 -2.55522e-14 -3.56251e-15 0 0 -1.18011e-15 -1.19155e-15 -3.4952e-15 -3.11132e-15 -3.81124e-15 -5.04638e-15 -5.59326e-15 -5.31398e-15 -1.54365e-15 9.31361e-17 -8.07718e-15 -9.98861e-15 -9.40872e-15 -1.52082e-14 -1.15878e-14 -1.74135e-14 -1.50352e-14 -1.37206e-14 -1.57677e-14 -3.34428e-14 -2.52856e-14 -4.12166e-14 -3.16626e-14 -4.22355e-14 -4.05441e-14 -2.29008e-14 -3.27047e-14 -3.96519e-14 -2.64295e-14 -3.44659e-14 -2.8887e-14 -3.57053e-14 -4.15267e-14 -2.13483e-14 -2.27777e-14 -1.24719e-14 -2.25588e-14 -2.32222e-14 -2.15898e-14 -1.08503e-14 2.97856e-14 1.87923e-13 1.39027e-12 9.10857e-12 5.68183e-11 3.35715e-10 1.87903e-09 9.94154e-09 4.95885e-08 2.32563e-07 1.02238e-06 4.19836e-06 1.60394e-05 5.67401e-05 0.000184827 0.000550806 0.00149081 0.00363741 0.00795085 0.0155273 0.0271712 0.0430105 0.062497 0.0847735 0.109061 0.13483 0.161777 0.189753 0.218692 0.248572 0.279402 0.311203 0.344012 0.377872 0.412837 0.448967 0.48633 0.524999 0.565049 0.606559 0.649596 0.694207 0.740381 0.787972 0.836508 0.884681 0.928873 0.959136 0.957621 0.94876 0.940147 0.933767 0.929917 0.928008 0.927151 0.926739 0.926505 0.926358 0.926256 0.926174 0.92616 0.926145 0.926132 0.926118 0.926104 0.926091 0.926077 0.926064 0.92605 0.926036 0.926023 0.926009 0.925995 0.925982 0.925968 0.925954 0.925941 0.925927 0.925913 0.925898 0.925883 0.925868 0.925851 0.925834 0.925817 0.925797 0.925778 0.925756 0.925735 0.925711 0.925689 0.92566 0.925638 0.925603 0.925581 0.925534 0.925516 0.925443 0.925432 0.9253 0.925298 0.925023 0.925034 0.924371 0.924416 0.92264 0.92279 0.91787 0.918347 0.905142 0.90665 0.875081 0.879337 0.815035 0.815046 0.708472 0.655365 0.526945 0.411898 0.283926 0.173484 0.0907345 0.0408388 0.0164165 0.00619743 0.00227431 0.000824906 0.000297667 0.000107105 3.84496e-05 1.37701e-05 4.91807e-06 1.75089e-06 6.21003e-07 2.19307e-07 7.70693e-08 2.6935e-08 9.35638e-09 3.22839e-09 1.10594e-09 3.75828e-10 1.26662e-10 4.2247e-11 1.39628e-11 4.3862e-12 1.39399e-12 3.3154e-13 1.65295e-14 7.2015e-14 2.43963e-14 5.37461e-14 -2.27981e-14 -7.98689e-14 -2.16354e-14 1.82856e-14 -1.51118e-14 7.07559e-14 -7.4889e-15 1.75733e-14 0 0 -9.91627e-16 -9.49114e-16 -2.15579e-15 -8.25687e-16 -3.18758e-15 1.85604e-15 -5.89019e-15 3.51289e-16 1.87596e-15 6.22345e-15 -5.42686e-15 -1.10533e-14 -1.07664e-14 -1.42174e-14 -9.66538e-15 -2.35471e-14 -1.52999e-14 -2.15578e-14 -2.06169e-14 -4.18577e-14 -3.12046e-14 -3.25604e-14 -4.20196e-14 -3.84313e-14 -4.91049e-14 -4.73351e-14 -2.37816e-14 -4.6766e-14 -1.64313e-14 -4.01984e-14 -2.93333e-14 -2.65227e-14 -4.21309e-14 -3.69594e-14 -1.99283e-14 2.87766e-15 -1.25964e-14 -1.82982e-14 -1.96894e-14 1.46533e-15 5.45284e-14 2.5623e-13 1.43167e-12 9.1229e-12 5.68611e-11 3.35699e-10 1.87907e-09 9.94157e-09 4.95885e-08 2.32563e-07 1.02238e-06 4.19836e-06 1.60394e-05 5.67401e-05 0.000184827 0.000550806 0.00149081 0.00363741 0.00795085 0.0155273 0.0271712 0.0430105 0.062497 0.0847735 0.109061 0.13483 0.161777 0.189753 0.218692 0.248572 0.279402 0.311203 0.344012 0.377872 0.412837 0.448967 0.48633 0.524999 0.565049 0.606559 0.649596 0.694207 0.740381 0.787972 0.836508 0.884681 0.928873 0.959136 0.957621 0.94876 0.940147 0.933767 0.929917 0.928008 0.927151 0.926739 0.926505 0.926358 0.926256 0.926174 0.92616 0.926145 0.926132 0.926118 0.926104 0.926091 0.926077 0.926064 0.92605 0.926036 0.926023 0.926009 0.925995 0.925982 0.925968 0.925954 0.925941 0.925927 0.925913 0.925898 0.925883 0.925868 0.925851 0.925834 0.925817 0.925797 0.925778 0.925756 0.925735 0.925711 0.925689 0.92566 0.925638 0.925603 0.925581 0.925534 0.925516 0.925443 0.925432 0.9253 0.925298 0.925023 0.925034 0.924371 0.924416 0.92264 0.92279 0.91787 0.918347 0.905142 0.90665 0.875081 0.879337 0.815035 0.815046 0.708472 0.655365 0.526945 0.411898 0.283926 0.173484 0.0907345 0.0408388 0.0164165 0.00619743 0.00227431 0.000824906 0.000297667 0.000107105 3.84496e-05 1.37701e-05 4.91807e-06 1.75089e-06 6.21003e-07 2.19308e-07 7.70693e-08 2.69349e-08 9.35635e-09 3.22834e-09 1.10592e-09 3.75834e-10 1.26554e-10 4.22754e-11 1.38991e-11 4.39699e-12 1.27009e-12 2.18564e-13 1.20259e-13 7.14871e-15 6.97898e-14 -1.64806e-14 -6.76373e-14 -4.9144e-14 -6.58174e-14 -4.03481e-14 4.30326e-14 4.221e-14 7.7234e-14 1.25414e-14 0 0 2.72794e-15 2.30553e-15 3.7649e-15 7.11682e-15 3.25184e-15 4.60975e-16 -2.35038e-15 1.32521e-15 4.702e-15 1.72987e-15 -7.57123e-15 -3.42325e-15 -2.82935e-15 -2.19368e-14 -1.24266e-14 -2.16941e-14 -2.32877e-14 -2.63388e-14 -1.6892e-14 -4.71681e-14 -4.02061e-14 -3.78941e-14 -6.47119e-14 -1.51611e-14 -2.49367e-14 -6.5567e-14 -3.59066e-14 -5.06481e-14 -9.06735e-15 -4.26911e-14 -3.16398e-14 -4.44674e-15 -4.18642e-14 -1.74761e-14 -2.95653e-14 -2.17176e-14 3.751e-15 -3.51888e-14 -3.25861e-15 1.35747e-14 1.23106e-13 2.81259e-13 1.4808e-12 9.19945e-12 5.68583e-11 3.35675e-10 1.87907e-09 9.94167e-09 4.95885e-08 2.32563e-07 1.02238e-06 4.19836e-06 1.60394e-05 5.67401e-05 0.000184827 0.000550806 0.00149081 0.00363741 0.00795085 0.0155273 0.0271712 0.0430105 0.062497 0.0847735 0.109061 0.13483 0.161777 0.189753 0.218692 0.248572 0.279402 0.311203 0.344012 0.377872 0.412837 0.448967 0.48633 0.524999 0.565049 0.606559 0.649596 0.694207 0.740381 0.787972 0.836508 0.884681 0.928873 0.959136 0.957621 0.94876 0.940147 0.933767 0.929917 0.928008 0.927151 0.926739 0.926505 0.926358 0.926256 0.926174 0.92616 0.926145 0.926132 0.926118 0.926104 0.926091 0.926077 0.926064 0.92605 0.926036 0.926023 0.926009 0.925995 0.925982 0.925968 0.925954 0.925941 0.925927 0.925913 0.925898 0.925883 0.925868 0.925851 0.925834 0.925817 0.925797 0.925778 0.925756 0.925735 0.925711 0.925689 0.92566 0.925638 0.925603 0.925581 0.925534 0.925516 0.925443 0.925432 0.9253 0.925298 0.925023 0.925034 0.924371 0.924416 0.92264 0.92279 0.91787 0.918347 0.905142 0.90665 0.875081 0.879337 0.815035 0.815046 0.708472 0.655365 0.526945 0.411898 0.283926 0.173484 0.0907345 0.0408388 0.0164165 0.00619743 0.00227431 0.000824906 0.000297667 0.000107105 3.84496e-05 1.37701e-05 4.91807e-06 1.75089e-06 6.21003e-07 2.19308e-07 7.70692e-08 2.69349e-08 9.35652e-09 3.22823e-09 1.10587e-09 3.75854e-10 1.26459e-10 4.2128e-11 1.38594e-11 4.46526e-12 1.14756e-12 1.88183e-13 -1.77989e-14 6.78253e-14 9.08133e-14 -3.29655e-14 -8.32877e-14 1.58128e-13 -7.10818e-14 -1.05549e-14 -7.53776e-14 -1.23224e-13 6.05134e-14 -6.56116e-14 0 0 6.73493e-15 1.06171e-14 1.03663e-14 1.5794e-14 1.27376e-14 8.92707e-15 9.08799e-15 2.45685e-15 4.46872e-15 -1.77042e-15 -2.96819e-14 1.16618e-14 8.57673e-16 -2.0588e-14 -1.62883e-14 -1.46625e-14 -3.08031e-14 -2.70228e-14 -1.38496e-14 -6.16699e-14 -5.36306e-14 -4.6234e-14 -4.15039e-14 -2.31846e-14 -3.65475e-14 -2.52188e-14 -3.19992e-14 -2.90075e-14 -3.47737e-14 -4.41976e-14 1.63153e-15 -3.95508e-14 -9.40976e-15 2.41215e-16 -2.58825e-14 -3.01931e-14 -9.51051e-15 -1.7041e-14 -3.084e-15 5.88052e-14 1.01084e-13 3.04933e-13 1.4796e-12 9.25145e-12 5.68909e-11 3.35686e-10 1.87906e-09 9.94165e-09 4.95885e-08 2.32563e-07 1.02238e-06 4.19836e-06 1.60394e-05 5.67401e-05 0.000184827 0.000550806 0.00149081 0.00363741 0.00795085 0.0155273 0.0271712 0.0430105 0.062497 0.0847735 0.109061 0.13483 0.161777 0.189753 0.218692 0.248572 0.279402 0.311203 0.344012 0.377872 0.412837 0.448967 0.48633 0.524999 0.565049 0.606559 0.649596 0.694207 0.740381 0.787972 0.836508 0.884681 0.928873 0.959136 0.957621 0.94876 0.940147 0.933767 0.929917 0.928008 0.927151 0.926739 0.926505 0.926358 0.926256 0.926174 0.92616 0.926145 0.926132 0.926118 0.926104 0.926091 0.926077 0.926064 0.92605 0.926036 0.926023 0.926009 0.925995 0.925982 0.925968 0.925954 0.925941 0.925927 0.925913 0.925898 0.925883 0.925868 0.925851 0.925834 0.925817 0.925797 0.925778 0.925756 0.925735 0.925711 0.925689 0.92566 0.925638 0.925603 0.925581 0.925534 0.925516 0.925443 0.925432 0.9253 0.925298 0.925023 0.925034 0.924371 0.924416 0.92264 0.92279 0.91787 0.918347 0.905142 0.90665 0.875081 0.879337 0.815035 0.815046 0.708472 0.655365 0.526945 0.411898 0.283926 0.173484 0.0907345 0.0408388 0.0164165 0.00619743 0.00227431 0.000824906 0.000297667 0.000107105 3.84496e-05 1.37701e-05 4.91807e-06 1.75089e-06 6.21003e-07 2.19308e-07 7.70692e-08 2.69349e-08 9.3564e-09 3.22851e-09 1.10557e-09 3.76036e-10 1.26298e-10 4.20222e-11 1.38033e-11 4.4052e-12 1.26081e-12 2.2631e-13 -1.13609e-13 1.03552e-13 7.81228e-14 4.59069e-14 -1.16488e-13 8.0776e-14 -2.74654e-14 2.42059e-14 -1.68018e-13 -4.4782e-14 -8.5952e-14 1.36289e-14 0 0 7.47449e-15 1.46411e-14 1.34279e-14 1.58045e-14 1.39209e-14 2.35557e-14 1.45364e-14 6.23126e-15 1.55847e-15 2.09802e-15 -4.25758e-14 1.87013e-14 -1.17328e-14 -2.48624e-15 -1.70132e-14 -1.59492e-14 -2.75833e-14 -2.90344e-14 -2.44136e-14 -6.45132e-14 -6.83391e-14 -3.35147e-14 -1.57107e-14 -4.69635e-14 -6.49604e-14 -5.7541e-15 -1.8518e-14 1.84478e-15 -5.86059e-14 -5.27018e-14 3.82787e-14 -9.56312e-14 4.05807e-14 -1.97167e-14 -1.36286e-14 -1.07805e-14 -2.68966e-14 1.1084e-14 -1.18175e-14 8.89948e-14 2.56965e-14 3.77117e-13 1.44575e-12 9.2091e-12 5.69598e-11 3.35709e-10 1.87906e-09 9.94162e-09 4.95885e-08 2.32563e-07 1.02238e-06 4.19836e-06 1.60394e-05 5.67401e-05 0.000184827 0.000550806 0.00149081 0.00363741 0.00795085 0.0155273 0.0271712 0.0430105 0.062497 0.0847735 0.109061 0.13483 0.161777 0.189753 0.218692 0.248572 0.279402 0.311203 0.344012 0.377872 0.412837 0.448967 0.48633 0.524999 0.565049 0.606559 0.649596 0.694207 0.740381 0.787972 0.836508 0.884681 0.928873 0.959136 0.957621 0.94876 0.940147 0.933767 0.929917 0.928008 0.927151 0.926739 0.926505 0.926358 0.926256 0.926174 0.92616 0.926145 0.926132 0.926118 0.926104 0.926091 0.926077 0.926064 0.92605 0.926036 0.926023 0.926009 0.925995 0.925982 0.925968 0.925954 0.925941 0.925927 0.925913 0.925898 0.925883 0.925868 0.925851 0.925834 0.925817 0.925797 0.925778 0.925756 0.925735 0.925711 0.925689 0.92566 0.925638 0.925603 0.925581 0.925534 0.925516 0.925443 0.925432 0.9253 0.925298 0.925023 0.925034 0.924371 0.924416 0.92264 0.92279 0.91787 0.918347 0.905142 0.90665 0.875081 0.879337 0.815035 0.815046 0.708472 0.655365 0.526945 0.411898 0.283926 0.173484 0.0907345 0.0408388 0.0164165 0.00619743 0.00227431 0.000824906 0.000297667 0.000107105 3.84496e-05 1.37701e-05 4.91807e-06 1.75089e-06 6.21003e-07 2.19308e-07 7.70693e-08 2.69349e-08 9.35608e-09 3.2288e-09 1.10536e-09 3.76163e-10 1.26143e-10 4.21632e-11 1.37077e-11 4.38282e-12 1.36696e-12 1.75023e-13 1.66067e-13 -1.37859e-13 9.81635e-14 1.11575e-13 -1.16612e-13 -1.92804e-14 -4.37891e-14 -7.81456e-14 -3.66934e-14 2.53057e-14 -1.48859e-13 1.45038e-13 0
				</DataArray>
				<DataArray Name="VitesseY" type="Float32" format="ascii">