<?xml version="1.0"?>
<VTKFile type="PolyData">
	<PolyData>
		<Piece NumberOfPoints="1206" NumberOfPolys="1000">
			<Points>
				<DataArray type="Float32" NumberOfComponents="3" format="ascii">
 0 0 0 0.005 0 0 0.01 0 0 0.015 0 0 0.02 0 0 0.025 0 0 0.03 0 0 0.035 0 0 0.04 0 0 0.045 0 0 0.05 0 0 0.055 0 0 0.06 0 0 0.065 0 0 0.07 0 0 0.075 0 0 0.08 0 0 0.085 0 0 0.09 0 0 0.095 0 0 0.1 0 0 0.105 0 0 0.11 0 0 0.115 0 0 0.12 0 0 0.125 0 0 0.13 0 0 0.135 0 0 0.14 0 0 0.145 0 0 0.15 0 0 0.155 0 0 0.16 0 0 0.165 0 0 0.17 0 0 0.175 0 0 0.18 0 0 0.185 0 0 0.19 0 0 0.195 0 0 0.2 0 0 0.205 0 0 0.21 0 0 0.215 0 0 0.22 0 0 0.225 0 0 0.23 0 0 0.235 0 0 0.24 0 0 0.245 0 0 0.25 0 0 0.255 0 0 0.26 0 0 0.265 0 0 0.27 0 0 0.275 0 0 0.28 0 0 0.285 0 0 0.29 0 0 0.295 0 0 0.3 0 0 0.305 0 0 0.31 0 0 0.315 0 0 0.32 0 0 0.325 0 0 0.33 0 0 0.335 0 0 0.34 0 0 0.345 0 0 0.35 0 0 0.355 0 0 0.36 0 0 0.365 0 0 0.37 0 0 0.375 0 0 0.38 0 0 0.385 0 0 0.39 0 0 0.395 0 0 0.4 0 0 0.405 0 0 0.41 0 0 0.415 0 0 0.42 0 0 0.425 0 0 0.43 0 0 0.435 0 0 0.44 0 0 0.445 0 0 0.450003 0 0 0.455017 0 0 0.460086 0 0 0.465322 0 0 0.470927 0 0 0.477161 0 0 0.484334 0 0 0.492873 0 0 0.503369 0 0 0.515888 0 0 0.528222 0 0 0.530888 0 0 0.533487 0 0 0.536048 0 0 0.538584 0 0 0.541084 0 0 0.543538 0 0 0.546042 0 0 0.548693 0 0 0.55146 0 0 0.554535 0 0 0.55792 0 0 0.561661 0 0 0.565821 0 0 0.570337 0 0 0.575114 0 0 0.580032 0 0 0.585008 0 0 0.590002 0 0 0.595 0 0 0.6 0 0 0.605 0 0 0.61 0 0 0.615 0 0 0.62 0 0 0.625 0 0 0.63 0 0 0.635 0 0 0.64 0 0 0.645 0 0 0.65 0 0 0.655 0 0 0.66 0 0 0.665 0 0 0.67 0 0 0.675 0 0 0.68 0 0 0.685 0 0 0.69 0 0 0.695 0 0 0.7 0 0 0.705 0 0 0.71 0 0 0.715 0 0 0.72 0 0 0.725 0 0 0.73 0 0 0.735 0 0 0.74 0 0 0.745 0 0 0.75 0 0 0.755 0 0 0.76 0 0 0.765 0 0 0.77 0 0 0.775 0 0 0.78 0 0 0.785 0 0 0.79 0 0 0.795 0 0 0.8 0 0 0.805 0 0 0.81 0 0 0.815 0 0 0.82 0 0 0.825 0 0 0.83 0 0 0.835 0 0 0.84 0 0 0.845 0 0 0.85 0 0 0.855 0 0 0.86 0 0 0.865 0 0 0.87 0 0 0.875 0 0 0.88 0 0 0.885 0 0 0.89 0 0 0.895 0 0 0.9 0 0 0.905 0 0 0.91 0 0 0.915 0 0 0.92 0 0 0.925 0 0 0.93 0 0 0.935 0 0 0.94 0 0 0.945 0 0 0.95 0 0 0.955 0 0 0.96 0 0 0.965 0 0 0.97 0 0 0.975 0 0 0.98 0 0 0.985 0 0 0.99 0 0 0.995 0 0 1 0 0 0 0.02 0 0.005 0.02 0 0.01 0.02 0 0.015 0.02 0 0.02 0.02 0 0.025 0.02 0 0.03 0.02 0 0.035 0.02 0 0.04 0.02 0 0.045 0.02 0 0.05 0.02 0 0.055 0.02 0 0.06 0.02 0 0.065 0.02 0 0.07 0.02 0 0.075 0.02 0 0.08 0.02 0 0.085 0.02 0 0.09 0.02 0 0.095 0.02 0 0.1 0.02 0 0.105 0.02 0 0.11 0.02 0 0.115 0.02 0 0.12 0.02 0 0.125 0.02 0 0.13 0.02 0 0.135 0.02 0 0.14 0.02 0 0.145 0.02 0 0.15 0.02 0 0.155 0.02 0 0.16 0.02 0 0.165 0.02 0 0.17 0.02 0 0.175 0.02 0 0.18 0.02 0 0.185 0.02 0 0.19 0.02 0 0.195 0.02 0 0.2 0.02 0 0.205 0.02 0 0.21 0.02 0 0.215 0.02 0 0.22 0.02 0 0.225 0.02 0 0.23 0.02 0 0.235 0.02 0 0.24 0.02 0 0.245 0.02 0 0.25 0.02 0 0.255 0.02 0 0.26 0.02 0 0.265 0.02 0 0.27 0.02 0 0.275 0.02 0 0.28 0.02 0 0.285 0.02 0 0.29 0.02 0 0.295 0.02 0 0.3 0.02 0 0.305 0.02 0 0.31 0.02 0 0.315 0.02 0 0.32 0.02 0 0.325 0.02 0 0.33 0.02 0 0.335 0.02 0 0.34 0.02 0 0.345 0.02 0 0.35 0.02 0 0.355 0.02 0 0.36 0.02 0 0.365 0.02 0 0.37 0.02 0 0.375 0.02 0 0.38 0.02 0 0.385 0.02 0 0.39 0.02 0 0.395 0.02 0 0.4 0.02 0 0.405 0.02 0 0.41 0.02 0 0.415 0.02 0 0.42 0.02 0 0.425 0.02 0 0.43 0.02 0 0.435 0.02 0 0.44 0.02 0 0.445 0.02 0 0.450003 0.02 0 0.455017 0.02 0 0.460086 0.02 0 0.465322 0.02 0 0.470927 0.02 0 0.477161 0.02 0 0.484334 0.02 0 0.492873 0.02 0 0.503369 0.02 0 0.515888 0.02 0 0.528222 0.02 0 0.530888 0.02 0 0.533487 0.02 0 0.536048 0.02 0 0.538584 0.02 0 0.541084 0.02 0 0.543538 0.02 0 0.546042 0.02 0 0.548693 0.02 0 0.55146 0.02 0 0.554535 0.02 0 0.55792 0.02 0 0.561661 0.02 0 0.565821 0.02 0 0.570337 0.02 0 0.575114 0.02 0 0.580032 0.02 0 0.585008 0.02 0 0.590002 0.02 0 0.595 0.02 0 0.6 0.02 0 0.605 0.02 0 0.61 0.02 0 0.615 0.02 0 0.62 0.02 0 0.625 0.02 0 0.63 0.02 0 0.635 0.02 0 0.64 0.02 0 0.645 0.02 0 0.65 0.02 0 0.655 0.02 0 0.66 0.02 0 0.665 0.02 0 0.67 0.02 0 0.675 0.02 0 0.68 0.02 0 0.685 0.02 0 0.69 0.02 0 0.695 0.02 0 0.7 0.02 0 0.705 0.02 0 0.71 0.02 0 0.715 0.02 0 0.72 0.02 0 0.725 0.02 0 0.73 0.02 0 0.735 0.02 0 0.74 0.02 0 0.745 0.02 0 0.75 0.02 0 0.755 0.02 0 0.76 0.02 0 0.765 0.02 0 0.77 0.02 0 0.775 0.02 0 0.78 0.02 0 0.785 0.02 0 0.79 0.02 0 0.795 0.02 0 0.8 0.02 0 0.805 0.02 0 0.81 0.02 0 0.815 0.02 0 0.82 0.02 0 0.825 0.02 0 0.83 0.02 0 0.835 0.02 0 0.84 0.02 0 0.845 0.02 0 0.85 0.02 0 0.855 0.02 0 0.86 0.02 0 0.865 0.02 0 0.87 0.02 0 0.875 0.02 0 0.88 0.02 0 0.885 0.02 0 0.89 0.02 0 0.895 0.02 0 0.9 0.02 0 0.905 0.02 0 0.91 0.02 0 0.915 0.02 0 0.92 0.02 0 0.925 0.02 0 0.93 0.02 0 0.935 0.02 0 0.94 0.02 0 0.945 0.02 0 0.95 0.02 0 0.955 0.02 0 0.96 0.02 0 0.965 0.02 0 0.97 0.02 0 0.975 0.02 0 0.98 0.02 0 0.985 0.02 0 0.99 0.02 0 0.995 0.02 0 1 0.02 0 0 0.04 0 0.005 0.04 0 0.01 0.04 0 0.015 0.04 0 0.02 0.04 0 0.025 0.04 0 0.03 0.04 0 0.035 0.04 0 0.04 0.04 0 0.045 0.04 0 0.05 0.04 0 0.055 0.04 0 0.06 0.04 0 0.065 0.04 0 0.07 0.04 0 0.075 0.04 0 0.08 0.04 0 0.085 0.04 0 0.09 0.04 0 0.095 0.04 0 0.1 0.04 0 0.105 0.04 0 0.11 0.04 0 0.115 0.04 0 0.12 0.04 0 0.125 0.04 0 0.13 0.04 0 0.135 0.04 0 0.14 0.04 0 0.145 0.04 0 0.15 0.04 0 0.155 0.04 0 0.16 0.04 0 0.165 0.04 0 0.17 0.04 0 0.175 0.04 0 0.18 0.04 0 0.185 0.04 0 0.19 0.04 0 0.195 0.04 0 0.2 0.04 0 0.205 0.04 0 0.21 0.04 0 0.215 0.04 0 0.22 0.04 0 0.225 0.04 0 0.23 0.04 0 0.235 0.04 0 0.24 0.04 0 0.245 0.04 0 0.25 0.04 0 0.255 0.04 0 0.26 0.04 0 0.265 0.04 0 0.27 0.04 0 0.275 0.04 0 0.28 0.04 0 0.285 0.04 0 0.29 0.04 0 0.295 0.04 0 0.3 0.04 0 0.305 0.04 0 0.31 0.04 0 0.315 0.04 0 0.32 0.04 0 0.325 0.04 0 0.33 0.04 0 0.335 0.04 0 0.34 0.04 0 0.345 0.04 0 0.35 0.04 0 0.355 0.04 0 0.36 0.04 0 0.365 0.04 0 0.37 0.04 0 0.375 0.04 0 0.38 0.04 0 0.385 0.04 0 0.39 0.04 0 0.395 0.04 0 0.4 0.04 0 0.405 0.04 0 0.41 0.04 0 0.415 0.04 0 0.42 0.04 0 0.425 0.04 0 0.43 0.04 0 0.435 0.04 0 0.44 0.04 0 0.445 0.04 0 0.450003 0.04 0 0.455017 0.04 0 0.460086 0.04 0 0.465322 0.04 0 0.470927 0.04 0 0.477161 0.04 0 0.484334 0.04 0 0.492873 0.04 0 0.503369 0.04 0 0.515888 0.04 0 0.528222 0.04 0 0.530888 0.04 0 0.533487 0.04 0 0.536048 0.04 0 0.538584 0.04 0 0.541084 0.04 0 0.543538 0.04 0 0.546042 0.04 0 0.548693 0.04 0 0.55146 0.04 0 0.554535 0.04 0 0.55792 0.04 0 0.561661 0.04 0 0.565821 0.04 0 0.570337 0.04 0 0.575114 0.04 0 0.580032 0.04 0 0.585008 0.04 0 0.590002 0.04 0 0.595 0.04 0 0.6 0.04 0 0.605 0.04 0 0.61 0.04 0 0.615 0.04 0 0.62 0.04 0 0.625 0.04 0 0.63 0.04 0 0.635 0.04 0 0.64 0.04 0 0.645 0.04 0 0.65 0.04 0 0.655 0.04 0 0.66 0.04 0 0.665 0.04 0 0.67 0.04 0 0.675 0.04 0 0.68 0.04 0 0.685 0.04 0 0.69 0.04 0 0.695 0.04 0 0.7 0.04 0 0.705 0.04 0 0.71 0.04 0 0.715 0.04 0 0.72 0.04 0 0.725 0.04 0 0.73 0.04 0 0.735 0.04 0 0.74 0.04 0 0.745 0.04 0 0.75 0.04 0 0.755 0.04 0 0.76 0.04 0 0.765 0.04 0 0.77 0.04 0 0.775 0.04 0 0.78 0.04 0 0.785 0.04 0 0.79 0.04 0 0.795 0.04 0 0.8 0.04 0 0.805 0.04 0 0.81 0.04 0 0.815 0.04 0 0.82 0.04 0 0.825 0.04 0 0.83 0.04 0 0.835 0.04 0 0.84 0.04 0 0.845 0.04 0 0.85 0.04 0 0.855 0.04 0 0.86 0.04 0 0.865 0.04 0 0.87 0.04 0 0.875 0.04 0 0.88 0.04 0 0.885 0.04 0 0.89 0.04 0 0.895 0.04 0 0.9 0.04 0 0.905 0.04 0 0.91 0.04 0 0.915 0.04 0 0.92 0.04 0 0.925 0.04 0 0.93 0.04 0 0.935 0.04 0 0.94 0.04 0 0.945 0.04 0 0.95 0.04 0 0.955 0.04 0 0.96 0.04 0 0.965 0.04 0 0.97 0.04 0 0.975 0.04 0 0.98 0.04 0 0.985 0.04 0 0.99 0.04 0 0.995 0.04 0 1 0.04 0 0 0.06 0 0.005 0.06 0 0.01 0.06 0 0.015 0.06 0 0.02 0.06 0 0.025 0.06 0 0.03 0.06 0 0.035 0.06 0 0.04 0.06 0 0.045 0.06 0 0.05 0.06 0 0.055 0.06 0 0.06 0.06 0 0.065 0.06 0 0.07 0.06 0 0.075 0.06 0 0.08 0.06 0 0.085 0.06 0 0.09 0.06 0 0.095 0.06 0 0.1 0.06 0 0.105 0.06 0 0.11 0.06 0 0.115 0.06 0 0.12 0.06 0 0.125 0.06 0 0.13 0.06 0 0.135 0.06 0 0.14 0.06 0 0.145 0.06 0 0.15 0.06 0 0.155 0.06 0 0.16 0.06 0 0.165 0.06 0 0.17 0.06 0 0.175 0.06 0 0.18 0.06 0 0.185 0.06 0 0.19 0.06 0 0.195 0.06 0 0.2 0.06 0 0.205 0.06 0 0.21 0.06 0 0.215 0.06 0 0.22 0.06 0 0.225 0.06 0 0.23 0.06 0 0.235 0.06 0 0.24 0.06 0 0.245 0.06 0 0.25 0.06 0 0.255 0.06 0 0.26 0.06 0 0.265 0.06 0 0.27 0.06 0 0.275 0.06 0 0.28 0.06 0 0.285 0.06 0 0.29 0.06 0 0.295 0.06 0 0.3 0.06 0 0.305 0.06 0 0.31 0.06 0 0.315 0.06 0 0.32 0.06 0 0.325 0.06 0 0.33 0.06 0 0.335 0.06 0 0.34 0.06 0 0.345 0.06 0 0.35 0.06 0 0.355 0.06 0 0.36 0.06 0 0.365 0.06 0 0.37 0.06 0 0.375 0.06 0 0.38 0.06 0 0.385 0.06 0 0.39 0.06 0 0.395 0.06 0 0.4 0.06 0 0.405 0.06 0 0.41 0.06 0 0.415 0.06 0 0.42 0.06 0 0.425 0.06 0 0.43 0.06 0 0.435 0.06 0 0.44 0.06 0 0.445 0.06 0 0.450003 0.06 0 0.455017 0.06 0 0.460086 0.06 0 0.465322 0.06 0 0.470927 0.06 0 0.477161 0.06 0 0.484334 0.06 0 0.492873 0.06 0 0.503369 0.06 0 0.515888 0.06 0 0.528222 0.06 0 0.530888 0.06 0 0.533487 0.06 0 0.536048 0.06 0 0.538584 0.06 0 0.541084 0.06 0 0.543538 0.06 0 0.546042 0.06 0 0.548693 0.06 0 0.55146 0.06 0 0.554535 0.06 0 0.55792 0.06 0 0.561661 0.06 0 0.565821 0.06 0 0.570337 0.06 0 0.575114 0.06 0 0.580032 0.06 0 0.585008 0.06 0 0.590002 0.06 0 0.595 0.06 0 0.6 0.06 0 0.605 0.06 0 0.61 0.06 0 0.615 0.06 0 0.62 0.06 0 0.625 0.06 0 0.63 0.06 0 0.635 0.06 0 0.64 0.06 0 0.645 0.06 0 0.65 0.06 0 0.655 0.06 0 0.66 0.06 0 0.665 0.06 0 0.67 0.06 0 0.675 0.06 0 0.68 0.06 0 0.685 0.06 0 0.69 0.06 0 0.695 0.06 0 0.7 0.06 0 0.705 0.06 0 0.71 0.06 0 0.715 0.06 0 0.72 0.06 0 0.725 0.06 0 0.73 0.06 0 0.735 0.06 0 0.74 0.06 0 0.745 0.06 0 0.75 0.06 0 0.755 0.06 0 0.76 0.06 0 0.765 0.06 0 0.77 0.06 0 0.775 0.06 0 0.78 0.06 0 0.785 0.06 0 0.79 0.06 0 0.795 0.06 0 0.8 0.06 0 0.805 0.06 0 0.81 0.06 0 0.815 0.06 0 0.82 0.06 0 0.825 0.06 0 0.83 0.06 0 0.835 0.06 0 0.84 0.06 0 0.845 0.06 0 0.85 0.06 0 0.855 0.06 0 0.86 0.06 0 0.865 0.06 0 0.87 0.06 0 0.875 0.06 0 0.88 0.06 0 0.885 0.06 0 0.89 0.06 0 0.895 0.06 0 0.9 0.06 0 0.905 0.06 0 0.91 0.06 0 0.915 0.06 0 0.92 0.06 0 0.925 0.06 0 0.93 0.06 0 0.935 0.06 0 0.94 0.06 0 0.945 0.06 0 0.95 0.06 0 0.955 0.06 0 0.96 0.06 0 0.965 0.06 0 0.97 0.06 0 0.975 0.06 0 0.98 0.06 0 0.985 0.06 0 0.99 0.06 0 0.995 0.06 0 1 0.06 0 0 0.08 0 0.005 0
[...]
			<PointData Scalars="VitesseX">
				<DataArray Name="VitesseX" type="Float32" format="ascii">
 0 3.04962e-16 -1.64662e-15 1.04701e-15 9.36763e-16 1.38727e-15 -2.39153e-15 -6.17939e-15 5.59616e-15 -4.34663e-15 5.2413e-15 -5.92283e-15 6.6633e-15 7.062e-15 -1.15581e-14 2.58149e-15 -5.06644e-16 -1.60997e-15 -2.08322e-15 9.32278e-15 -7.52301e-15 1.6663e-15 4.58926e-15 5.2294e-15 -1.3236e-14 2.20493e-15 6.42188e-15 -1.57214e-14 2.62696e-14 -1.85029e-14 9.9316e-15 -8.58235e-15 1.92762e-14 -1.50163e-14 -1.02263e-14 7.67576e-15 1.21483e-14 -1.6911e-14 1.87928e-14 -1.36759e-14 -1.14408e-14 1.23321e-14 -3.55007e-15 -1.24856e-14 8.03732e-15 1.84484e-15 8.00545e-15 -2.15009e-15 -7.31064e-15 -1.8389e-15 3.09399e-14 0 -4.31464e-14 3.23183e-14 6.47064e-15 -3.08778e-15 -3.12068e-14 3.3846e-14 -9.52361e-15 -4.14889e-14 3.39778e-14 2.1475e-14 -2.28555e-14 3.11657e-14 1.38166e-15 1.00342e-15 1.64083e-15 1.48526e-14 -4.67508e-14 2.56647e-14 4.26207e-14 -3.18696e-14 -4.42992e-14 3.55928e-14 -1.89871e-14 4.10545e-14 4.84433e-15 -2.07115e-14 1.34087e-14 1.16306e-14 -3.50966e-14 7.75014e-14 7.49525e-13 1.89382e-11 4.09276e-10 7.68054e-09 1.23433e-07 1.67682e-06 1.89369e-05 0.000174003 0.00126434 0.00700405 0.0284695 0.0834991 0.182616 0.321574 0.493888 0.697368 0.913502 0.988589 0.928025 0.922068 0.917353 0.914644 0.907781 0.930063 0.922555 0.858788 0.904019 0.72904 0.631272 0.565303 0.377319 0.238713 0.120031 0.0478364 0.0152179 0.00417649 0.00104805 0.000246452 5.47274e-05 1.15039e-05 2.29156e-06 4.32951e-07 7.76495e-08 1.32311e-08 2.14363e-09 3.30443e-10 4.84931e-11 6.86491e-12 8.60718e-13 1.79036e-13 -4.59843e-14 -2.5621e-14 4.4104e-14 -1.80781e-14 -6.8045e-15 3.39833e-14 -4.01268e-14 3.96832e-14 -6.20354e-14 8.57904e-16 7.12559e-14 -1.8968e-14 1.32614e-14 -2.43097e-14 9.37685e-14 -7.19455e-14 5.60548e-14 -1.5672e-14 -5.91924e-14 -7.2577e-15 -7.38585e-14 9.90064e-14 1.56767e-14 -3.23355e-15 1.91243e-14 1.03182e-14 4.03052e-14 -2.15153e-14 2.47355e-14 2.95639e-14 -1.14896e-13 1.26284e-13 -1.22089e-13 2.25497e-14 8.05461e-15 1.35407e-14 -3.87786e-14 -3.29859e-15 4.17306e-14 -5.95242e-14 -7.67729e-15 -2.81774e-14 5.1314e-14 3.47987e-16 -3.38423e-14 1.8337e-14 -2.43048e-15 -4.72553e-14 2.68856e-14 -3.82667e-14 -5.15744e-15 1.14155e-13 -2.67583e-14 -7.86221e-14 9.04481e-15 3.40441e-15 -2.7277e-14 8.68314e-14 -4.45939e-14 -8.0551e-14 1.93989e-14 -1.02329e-13 8.03199e-14 2.05938e-14 -2.46512e-14 7.39336e-14 -8.23312e-14 -6.31183e-15 0 0 5.14392e-17 1.49145e-15 -1.5045e-15 -2.51878e-15 -7.17071e-17 -3.25909e-17 5.37095e-15 -5.92663e-15 1.99853e-15 -3.59418e-15 7.06352e-15 1.49498e-16 -7.07301e-15 5.14276e-15 1.46493e-15 -3.92123e-15 -5.67734e-15 -4.72506e-16 1.00055e-14 1.18156e-15 -4.23364e-15 9.59301e-15 -1.30628e-14 -2.71272e-15 7.09527e-15 -1.7094e-14 2.30179e-14 1.72326e-16 6.35054e-15 3.34011e-15 -2.50661e-14 1.88772e-14 -8.47949e-15 9.5806e-15 -4.74614e-15 -1.47766e-14 2.85131e-14 -1.83527e-14 -1.80291e-15 -1.00276e-14 -8.96729e-15 2.10309e-14 -1.87802e-14 8.19078e-15 1.38381e-14 -1.49459e-14 1.1191e-14 2.64375e-15 -7.75183e-15 2.58749e-14 -8.32017e-15 -1.31345e-14 4.57985e-15 1.79441e-14 -1.39732e-14 -5.2097e-15 3.67997e-14 -4.10436e-14 3.38833e-15 -2.3717e-15 4.48869e-14 -3.1273e-14 2.24831e-14 1.27485e-14 -1.58406e-14 4.07573e-15 2.0478e-15 -2.9951e-14 2.75942e-14 3.09617e-14 -1.80226e-14 -4.38744e-14 7.32472e-15 3.37911e-14 -3.5453e-15 3.0011e-14 -1.47293e-14 -2.57e-14 4.13394e-14 -2.59096e-14 6.00104e-14 7.78838e-13 1.88932e-11 4.09319e-10 7.68053e-09 1.23433e-07 1.67682e-06 1.89369e-05 0.000174003 0.00126434 0.00700405 0.0284695 0.0834991 0.182616 0.321574 0.493888 0.697368 0.913502 0.988589 0.928025 0.922068 0.917353 0.914644 0.907781 0.930063 0.922555 0.858788 0.904019 0.72904 0.631272 0.565303 0.377319 0.238713 0.120031 0.0478364 0.0152179 0.00417649 0.00104805 0.000246452 5.47274e-05 1.15039e-05 2.29156e-06 4.32951e-07 7.76495e-08 1.32311e-08 2.1436e-09 3.30471e-10 4.8528e-11 6.76295e-12 9.18187e-13 1.18059e-13 -6.15067e-16 -4.63129e-15 -1.32431e-15 4.31642e-14 -3.9356e-15 8.84507e-15 -4.45601e-14 1.25771e-15 -6.67609e-14 9.11059e-14 -1.63881e-14 5.59508e-14 -7.32704e-14 1.37566e-14 8.63505e-14 -2.58494e-14 -3.66896e-14 9.34568e-15 -2.05464e-14 -2.53152e-14 3.86763e-14 -2.02015e-14 5.7963e-14 4.11935e-14 -8.32748e-15 1.99e-14 -5.66608e-15 2.88779e-14 -8.82225e-15 1.37441e-14 -1.04711e-13 1.20337e-13 -4.55155e-14 6.36534e-14 -1.22501e-13 1.14257e-13 -6.62627e-14 -2.81513e-14 -6.5592e-16 -3.64914e-14 3.59093e-14 -4.09137e-14 3.6087e-15 3.12593e-14 -7.99702e-14 7.04073e-14 -1.01423e-13 6.41884e-15 6.2099e-15 -6.33575e-14 8.48725e-14 2.74939e-14 5.72084e-14 -7.21255e-14 -9.00238e-14 4.57949e-14 -3.20931e-14 3.29646e-14 -6.51745e-14 2.42248e-14 -2.06085e-14 -4.78362e-14 5.85271e-14 4.10113e-14 -1.01205e-13 7.04398e-14 2.2764e-14 -8.26223e-14 0 0 9.40889e-16 9.65207e-16 -1.67981e-15 -5.23828e-16 -3.77742e-15 2.19216e-15 5.0552e-15 -2.7545e-15 8.8869e-16 -4.64991e-15 1.56246e-15 6.66578e-15 -6.3117e-15 2.1955e-16 1.6112e-15 3.43131e-15 -2.84641e-15 -7.63169e-15 1.06881e-14 -1.73059e-15 6.78515e-15 -2.23356e-15 -1.09943e-14 1.04319e-14 2.724e-15 -2.41135e-14 1.63086e-14 1.7899e-14 -4.74909e-15 5.28031e-15 -1.66718e-14 2.40546e-15 -8.25401e-15 2.73104e-14 -1.39949e-14 -1.68702e-14 2.46008e-14 -1.62957e-14 -1.78617e-14 2.16529e-14 -9.36517e-15 2.24873e-14 -1.94078e-14 1.39056e-15 -7.97142e-15 5.26156e-15 -7.47773e-15 1.61237e-15 2.49066e-14 6.63998e-15 1.51295e-14 -4.90006e-14 5.94763e-14 -1.38664e-14 3.69011e-14 -1.12544e-15 -2.13738e-14 -1.13351e-15 3.20418e-14 -3.96841e-14 2.41157e-14 1.29464e-15 2.16587e-14 -1.04353e-14 -1.87651e-14 1.3288e-14 -2.8563e-14 -2.44631e-14 3.39933e-14 4.96185e-15 3.53378e-14 -6.66291e-14 -6.86563e-15 4.71939e-14 1.0435e-14 6.05198e-14 -5.00722e-14 4.56812e-15 1.38745e-14 2.15069e-14 2.89417e-14 7.12793e-13 1.89352e-11 4.09357e-10 7.68048e-09 1.23433e-07 1.67682e-06 1.89369e-05 0.000174003 0.00126434 0.00700405 0.0284695 0.0834991 0.182616 0.321574 0.493888 0.697368 0.913502 0.988589 0.928025 0.922068 0.917353 0.914644 0.907781 0.930063 0.922555 0.858788 0.904019 0.72904 0.631272 0.565303 0.377319 0.238713 0.120031 0.0478364 0.0152179 0.00417649 0.00104805 0.000246452 5.47274e-05 1.15039e-05 2.29156e-06 4.32951e-07 7.76495e-08 1.32311e-08 2.14366e-09 3.30467e-10 4.84217e-11 6.89184e-12 8.70193e-13 1.49566e-13 4.12672e-14 -3.39975e-14 -3.03131e-14 -2.47548e-14 1.05695e-14 3.38678e-14 -3.32177e-14 -3.63067e-14 2.25117e-15 1.45169e-13 -1.18967e-13 4.69226e-14 -1.19547e-13 4.19255e-14 1.17528e-13 -9.67112e-15 -9.58509e-14 1.04245e-14 3.16301e-14 -5.94487e-14 9.36231e-14 2.77557e-14 4.75545e-14 4.42414e-14 -2.69467e-14 -3.54056e-15 2.17978e-15 4.99019e-15 -5.13137e-14 9.71621e-14 -1.21671e-13 5.97103e-14 -9.16849e-14 1.2211e-13 -9.69373e-14 1.19849e-13 -1.76805e-14 1.02317e-14 -1.23384e-13 -8.40703e-15 -3.98933e-14 7.25231e-14 -1.21985e-13 5.36066e-14 -8.86331e-14 4.86924e-14 -2.48288e-14 4.14669e-14 -5.24879e-14 -3.67272e-15 5.85654e-14 -4.50463e-14 8.87993e-14 -6.50418e-14 -9.84717e-14 6.34791e-14 -4.26783e-14 3.59423e-14 -1.38757e-13 5.33588e-14 6.85316e-14 -4.76132e-14 -3.93228e-14 5.05365e-14 -1.15079e-14 -1.52835e-14 1.97028e-14 -3.6005e-14 0 0 7.1833e-16 -1.31082e-15 4.25993e-16 1.34705e-15 -2.5428e-15 2.26633e-15 -6.0175e-15 3.98115e-15 -2.26551e-15 1.00138e-15 -3.24188e-15 7.22211e-15 -1.08846e-15 4.31433e-15 -9.45613e-15 8.43877e-15 -1.06623e-15 3.16457e-15 6.76194e-16 -3.1797e-15 8.11814e-15 -2.05709e-14 7.92312e-15 1.15149e-14 -1.50487e-14 1.2399e-14 -1.38539e-14 2.20853e-14 5.23667e-16 -3.19286e-15 -8.6224e-15 5.90575e-15 -1.10119e-15 8.75673e-15 -1.51912e-14 -4.73817e-15 -1.0542e-14 2.4169e-14 -1.95824e-14 1.73052e-14 1.94214e-14 -2.92968e-14 -3.884e-15 1.69815e-14 -6.02929e-16 3.07264e-14 5.52167e-16 1.02539e-14 -2.14622e-14 -1.04031e-14 8.08287e-15 -4.29187e-14 9.82383e-14 -7.0693e-14 4.33656e-14 4.25477e-14 -3.78404e-14 -1.96624e-14 4.17814e-14 3.0807e-14 -4.01642e-14 2.32004e-14 -4.45804e-14 3.07672e-14 -3.09468e-14 2.32099e-14 -2.42063e-14 -3.70226e-14 9.65934e-15 3.12958e-14 8.74404e-15 -1.61661e-14 5.90344e-15 3.89825e-14 3.76085e-14 2.74636e-14 -2.81646e-14 2.97254e-14 -1.02836e-14 6.50145e-14 -2.89948e-14 7.60029e-13 1.8907e-11 4.09301e-10 7.68056e-09 1.23433e-07 1.67682e-06 1.89369e-05 0.000174003 0.00126434 0.00700405 0.0284695 0.0834991 0.182616 0.321574 0.493888 0.697368 0.913502 0.988589 0.928025 0.922068 0.917353 0.914644 0.907781 0.930063 0.922555 0.858788 0.904019 0.72904 0.631272 0.565303 0.377319 0.238713 0.120031 0.0478364 0.0152179 0.00417649 0.00104805 0.000246452 5.47274e-05 1.15039e-05 2.29156e-06 4.32951e-07 7.76496e-08 1.32311e-08 2.14371e-09 3.30456e-10 4.84921e-11 6.72463e-12 1.02562e-12 2.11369e-13 -9.23949e-14 4.68348e-14 -1.0763e-13 -6.71976e-14 -2.0586e-14 4.65607e-14 3.39664e-14 -5.12772e-14 1.25257e-13 -3.50879e-14 9.04888e-15 -6.25691e-14 -8.11507e-14 5.81226e-14 1.10993e-13 -1.01014e-13 -4.28254e-14 8.1503e-14 -2.87959e-14 -1.41643e-14 6.59831e-14 8.80519e-14 1.0293e-13 3.54002e-14 -9.55086e-14 -1.17293e-13 6.71102e-14 7.37811e-14 5.15251e-14 -2.51904e-14 -2.45897e-14 -5.61565e-14 -6.59415e-14 -5.31549e-14 1.02565e-13 1.8487e-15 7.88499e-14 4.12789e-14 -1.14876e-13 -7.51317e-14 -4.33481e-14 2.54488e-14 -8.59992e-14 -1.92889e-13 4.04448e-14 6.97941e-14 1.34679e-13 1.20634e-14 -8.20633e-14 9.70754e-14 -8.45776e-14 -9.92478e-15 -2.13648e-14 8.01405e-14 6.65878e-14 -1.98641e-13 7.97047e-14 -3.03964e-14 -1.22424e-14 -2.09649e-14 -6.68643e-14 1.6902e-13 -1.72756e-13 -2.7761e-14 1.43694e-13 -8.8525e-14 1.34273e-14 2.24169e-14 0 0 5.51607e-17 -4.37688e-16 6.8526e-16 -2.2938e-15 2.90411e-15 2.2839e-15 -5.71967e-15 4.0067e-15 2.08745e-15 -4.9142e-18 6.46762e-15 -7.01485e-16 -6.08806e-15 9.91144e-15 -5.43152e-15 2.01184e-15 -6.51294e-15 9.90469e-15 -9.18339e-15 6.34545e-16 -1.38176e-16 -2.34071e-15 5.30827e-15 7.81503e-15 -1.40809e-14 1.11717e-14 -3.68921e-15 9.95676e-16 7.64529e-15 -7.17569e-15 -1.62163e-14 9.45828e-15 1.19253e-14 1.51423e-14 -2.68661e-14 -1.63058e-14 1.39439e-15 1.53984e-14 1.89916e-14 -9.38973e-15 9.16372e-16 -2.99911e-14 9.39234e-16 2.34424e-14 3.45439e-14 5.40477e-14 -6.02791e-14 1.56286e-14 -1.65234e-14 -1.58713e-14 -9.67052e-15 9.25627e-15 3.83759e-14 -4.69022e-14 3.02657e-14 2.57576e-14 -1.2434e-14 -4.79506e-14 5.46323e-14 3.35419e-14 -5.28883e-14 2.21578e-14 -6.73924e-14 4.20023e-14 -4.42379e-15 2.12204e-14 6.56128e-15 -2.09863e-14 -3.99855e-14 1.83796e-14 -2.56338e-15 4.88814e-14 7.90092e-14 2.74385e-14 6.43599e-15 -2.19763e-14 -2.22195e-14 1.39492e-14 5.16522e-14 1.44136e-14 -1.38784e-14 7.81896e-13 1.89079e-11 4.0929e-10 7.68063e-09 1.23433e-07 1.67682e-06 1.89369e-05 0.000174003 0.00126434 0.00700405 0.0284695 0.0834991 0.182616 0.321574 0.493888 0.697368 0.913502 0.988589 0.928025 0.922068 0.917353 0.914644 0.907781 0.930063 0.922555 0.858788 0.904019 0.72904 0.631272 0.565303 0.377319 0.238713 0.120031 0.0478364 0.0152179 0.00417649 0.00104805 0.000246452 5.47274e-05 1.15039e-05 2.29156e-06 4.32951e-07 7.76495e-08 1.32311e-08 2.14364e-09 3.3048e-10 4.85573e-11 6.83134e-12 8.40022e-13 2.2226e-13 -1.3187e-13 5.66426e-14 -9.34337e-14 -2.55517e-14 -4.43697e-14 3.44392e-14 4.26193e-14 -5.78256e-14 1.23378e-13 -9.61172e-14 1.28517e-13 -2.98584e-14 -7.87189e-14 3.79234e-14 7.17105e-14 -1.33844e-13 8.83405e-15 2.81755e-14 1.23376e-14 3.2825e-14 -4.21501e-14 1.67856e-13 7.25895e-14 7.4375e-14 -1.11771e-13 -1.21031e-13 -3.56144e-14 2.235e-13 1.90079e-13 -1.1286e-13 8.68015e-14 -6.40237e-14 -4.10036e-14 -2.26484e-13 1.05873e-13 4.24907e-14 2.34397e-14 -6.19162e-15 1.51416e-14 -4.99914e-14 -4.10674e-14 -1.66029e-13 -1.19317e-14 -1.58647e-13 -1.16113e-14 1.7775e-14 4.47326e-14 6.05958e-14 -2.23326e-14 1.15098e-13 -4.09507e-14 -8.56681e-14 -3.29413e-14 2.62841e-13 -6.79141e-14 -2.49383e-13 1.01684e-13 -9.72837e-14 1.60829e-13 -1.9503e-14 -1.55025e-13 1.43714e-13 -1.18259e-13 4.26225e-15 1.00639e-14 -2.05588e-14 5.25328e-14 -2.67323e-14 0 0 7.57523e-16 -9.52827e-16 1.21491e-15 -2.35504e-15 4.86966e-15 2.09312e-15 -6.21524e-15 1.19915e-14 2.13961e-15 1.11725e-15 2.49404e-15 3.84867e-15 -1.41457e-15 -1.02103e-14 1.09233e-14 1.34458e-15 -6.84151e-15 -2.92135e-15 -9.03117e-15 -5.71882e-15 7.19124e-15 1.73966e-14 4.13661e-15 5.65355e-15 -4.60192e-15 -1.00717e-14 -8.81079e-15 1.95437e-14 -2.64589e-14 5.84634e-15 -6.98163e-15 -6.56219e-15 1.14877e-14 3.80043e-14 -3.41716e-14 -1.51741e-14 -8.62605e-16 5.3657e-15 3.13545e-14 -1.46956e-15 -2.54738e-14 -2.02606e-15 -4.09435e-15 7.35875e-15 2.85195e-14 9.50629e-14 -1.6115e-13 1.3759e-15 7.33553e-14 -1.84662e-14 1.13925e-14 -1.05286e-14 2.23865e-14 -9.56873e-15 7.24608e-14 -5.66185e-14 -3.1688e-14 1.372e-14 4.15197e-14 -3.51773e-14 -4.55155e-14 4.01944e-14 -1.61072e-14 -2.25157e-14 4.82003e-14 1.60864e-14 1.51662e-14 -3.70239e-15 -6.0827e-14 -3.52113e-14 5.22363e-14 4.02865e-14 1.53424e-13 -1.52694e-14 6.67015e-15 -3.30178e-14 -7.95071e-14 4.23924e-14 8.05725e-14 -4.14654e-14 4.55967e-14 6.61172e-13 1.90241e-11 4.0933e-10 7.68057e-09 1.23433e-07 1.67682e-06 1.89369e-05 0.000174003 0.00126434 0.00700405 0.0284695 0.0834991 0.182616 0.321574 0.493888 0.697368 0.913502 0.988589 0.928025 0.922068 0.917353 0.914644 0.907781 0.930063 0.922555 0.858788 0.904019 0.72904 0.631272 0.565303 0.377319 0.238713 0.120031 0.0478364 0.0152179 0.00417649 0.00104805 0.000246452 5.47274e-05 1.15039e-05 2.29156e-06 4.32951e-07 7.76495e-08 1.32312e-08 2.14363e-09 3.30484e-10 4.8411e-11 7.33624e-12 3.93391e-13 2.63547e-13 -4.11113e-14 -6.45735e-14 1.45221e-14 -7.03831e-14 -2.5184e-14 5.98463e-14 -2.64935e-16 -4.87247e-14 7.21703e-14 -1.30933e-14 1.0495e-13 2.82003e-14 -7.46415e-14 -8.41463e-15 7.75229e-14 -1.05378e-13 4.09956e-14 -1.2012e-13 1.27229e-13 1.83022e-14 -1.79986e-13 3.54698e-13 -6.57981e-14 8.07383e-14 -5.03237e-14 -4.36664e-14 -1.49337e-13 2.30367e-13 2.17006e-13 2.10582e-14 7.40623e-14 -1.06266e-14 -1.64745e-13 -2.07283e-13 6.57627e-14 1.06009e-13 -5.25563e-14 -2.17024e-14 5.64936e-14 4.7206e-14 -1.54786e-13 -1.8442e-13 -5.17988e-14 1.13357e-13 -1.55185e-13 -1.28917e-13 -2.92145e-14 1.19828e-13 2.87721e-14 1.16977e-13 2.94595e-14 -1.8239e-13 1.35775e-14 3.01162e-13 -2.76417e-13 -6.22764e-14 -4.6649e-15 -4.12291e-14 1.54201e-13 -1.93221e-14 2.15407e-14 -1.5233e-13 -6.21674e-15 1.03764e-13 -1.12402e-13 3.86098e-14 -1.03111e-14 -1.15189e-14 0
				</DataArray>
				<DataArray Name="VitesseY" type="Float32" format="ascii">