<?xml version="1.0"?>
<VTKFile type="PolyData">
	<PolyData>
		<Piece NumberOfPoints="1206" NumberOfPolys="1000">
			<Points>
				<DataArray type="Float32" NumberOfComponents="3" format="ascii">
 0 0 0 0.005 0 0 0.01 0 0 0.015 0 0 0.02 0 0 0.025 0 0 0.03 0 0 0.035 0 0 0.04 0 0 0.045 0 0 0.05 0 0 0.055 0 0 0.06 0 0 0.065 0 0 0.07 0 0 0.075 0 0 0.08 0 0 0.085 0 0 0.09 0 0 0.095 0 0 0.1 0 0 0.105 0 0 0.11 0 0 0.115 0 0 0.12 0 0 0.125 0 0 0.13 0 0 0.135 0 0 0.14 0 0 0.145 0 0 0.15 0 0 0.155 0 0 0.16 0 0 0.165 0 0 0.17 0 0 0.175 0 0 0.18 0 0 0.185 0 0 0.19 0 0 0.195 0 0 0.2 0 0 0.205 0 0 0.21 0 0 0.215 0 0 0.22 0 0 0.225 0 0 0.23 0 0 0.235 0 0 0.24 0 0 0.245 0 0 0.25 0 0 0.255 0 0 0.26 0 0 0.265 0 0 0.27 0 0 0.275 0 0 0.28 0 0 0.285 0 0 0.29 0 0 0.295 0 0 0.3 0 0 0.305 0 0 0.31 0 0 0.315 0 0 0.32 0 0 0.325 0 0 0.33 0 0 0.335 0 0 0.34 0 0 0.345 0 0 0.35 0 0 0.355 0 0 0.36 0 0 0.365 0 0 0.37 0 0 0.375 0 0 0.380001 0 0 0.385004 0 0 0.390015 0 0 0.395048 0 0 0.400131 0 0 0.405307 0 0 0.410627 0 0 0.416142 0 0 0.421895 0 0 0.427926 0 0 0.434277 0 0 0.440993 0 0 0.448125 0 0 0.455738 0 0 0.463906 0 0 0.472724 0 0 0.482303 0 0 0.492764 0 0 0.50419 0 0 0.516405 0 0 0.528661 0 0 0.540683 0 0 0.55253 0 0 0.564301 0 0 0.576071 0 0 0.578684 0 0 0.581223 0 0 0.583716 0 0 0.586179 0 0 0.588621 0 0 0.591046 0 0 0.59346 0 0 0.595868 0 0 0.598273 0 0 0.600679 0 0 0.603089 0 0 0.605499 0 0 0.607907 0 0 0.610309 0 0 0.612706 0 0 0.615097 0 0 0.617487 0 0 0.619875 0 0 0.622267 0 0 0.624663 0 0 0.627073 0 0 0.629497 0 0 0.631959 0 0 0.634456 0 0 0.637036 0 0 0.639689 0 0 0.642509 0 0 0.645509 0 0 0.648798 0 0 0.652408 0 0 0.656382 0 0 0.660703 0 0 0.665315 0 0 0.670125 0 0 0.675046 0 0 0.680016 0 0 0.685005 0 0 0.690002 0 0 0.695001 0 0 0.7 0 0 0.705 0 0 0.71 0 0 0.715 0 0 0.72 0 0 0.725 0 0 0.73 0 0 0.735 0 0 0.74 0 0 0.745 0 0 0.75 0 0 0.755 0 0 0.76 0 0 0.765 0 0 0.77 0 0 0.775 0 0 0.78 0 0 0.785 0 0 0.79 0 0 0.795 0 0 0.8 0 0 0.805 0 0 0.81 0 0 0.815 0 0 0.82 0 0 0.825 0 0 0.83 0 0 0.835 0 0 0.84 0 0 0.845 0 0 0.85 0 0 0.855 0 0 0.86 0 0 0.865 0 0 0.87 0 0 0.875 0 0 0.88 0 0 0.885 0 0 0.89 0 0 0.895 0 0 0.9 0 0 0.905 0 0 0.91 0 0 0.915 0 0 0.92 0 0 0.925 0 0 0.93 0 0 0.935 0 0 0.94 0 0 0.945 0 0 0.95 0 0 0.955 0 0 0.96 0 0 0.965 0 0 0.97 0 0 0.975 0 0 0.98 0 0 0.985 0 0 0.99 0 0 0.995 0 0 1 0 0 0 0.02 0 0.005 0.02 0 0.01 0.02 0 0.015 0.02 0 0.02 0.02 0 0.025 0.02 0 0.03 0.02 0 0.035 0.02 0 0.04 0.02 0 0.045 0.02 0 0.05 0.02 0 0.055 0.02 0 0.06 0.02 0 0.065 0.02 0 0.07 0.02 0 0.075 0.02 0 0.08 0.02 0 0.085 0.02 0 0.09 0.02 0 0.095 0.02 0 0.1 0.02 0 0.105 0.02 0 0.11 0.02 0 0.115 0.02 0 0.12 0.02 0 0.125 0.02 0 0.13 0.02 0 0.135 0.02 0 0.14 0.02 0 0.145 0.02 0 0.15 0.02 0 0.155 0.02 0 0.16 0.02 0 0.165 0.02 0 0.17 0.02 0 0.175 0.02 0 0.18 0.02 0 0.185 0.02 0 0.19 0.02 0 0.195 0.02 0 0.2 0.02 0 0.205 0.02 0 0.21 0.02 0 0.215 0.02 0 0.22 0.02 0 0.225 0.02 0 0.23 0.02 0 0.235 0.02 0 0.24 0.02 0 0.245 0.02 0 0.25 0.02 0 0.255 0.02 0 0.26 0.02 0 0.265 0.02 0 0.27 0.02 0 0.275 0.02 0 0.28 0.02 0 0.285 0.02 0 0.29 0.02 0 0.295 0.02 0 0.3 0.02 0 0.305 0.02 0 0.31 0.02 0 0.315 0.02 0 0.32 0.02 0 0.325 0.02 0 0.33 0.02 0 0.335 0.02 0 0.34 0.02 0 0.345 0.02 0 0.35 0.02 0 0.355 0.02 0 0.36 0.02 0 0.365 0.02 0 0.37 0.02 0 0.375 0.02 0 0.380001 0.02 0 0.385004 0.02 0 0.390015 0.02 0 0.395048 0.02 0 0.400131 0.02 0 0.405307 0.02 0 0.410627 0.02 0 0.416142 0.02 0 0.421895 0.02 0 0.427926 0.02 0 0.434277 0.02 0 0.440993 0.02 0 0.448125 0.02 0 0.455738 0.02 0 0.463906 0.02 0 0.472724 0.02 0 0.482303 0.02 0 0.492764 0.02 0 0.50419 0.02 0 0.516405 0.02 0 0.528661 0.02 0 0.540683 0.02 0 0.55253 0.02 0 0.564301 0.02 0 0.576071 0.02 0 0.578684 0.02 0 0.581223 0.02 0 0.583716 0.02 0 0.586179 0.02 0 0.588621 0.02 0 0.591046 0.02 0 0.59346 0.02 0 0.595868 0.02 0 0.598273 0.02 0 0.600679 0.02 0 0.603089 0.02 0 0.605499 0.02 0 0.607907 0.02 0 0.610309 0.02 0 0.612706 0.02 0 0.615097 0.02 0 0.617487 0.02 0 0.619875 0.02 0 0.622267 0.02 0 0.624663 0.02 0 0.627073 0.02 0 0.629497 0.02 0 0.631959 0.02 0 0.634456 0.02 0 0.637036 0.02 0 0.639689 0.02 0 0.642509 0.02 0 0.645509 0.02 0 0.648798 0.02 0 0.652408 0.02 0 0.656382 0.02 0 0.660703 0.02 0 0.665315 0.02 0 0.670125 0.02 0 0.675046 0.02 0 0.680016 0.02 0 0.685005 0.02 0 0.690002 0.02 0 0.695001 0.02 0 0.7 0.02 0 0.705 0.02 0 0.71 0.02 0 0.715 0.02 0 0.72 0.02 0 0.725 0.02 0 0.73 0.02 0 0.735 0.02 0 0.74 0.02 0 0.745 0.02 0 0.75 0.02 0 0.755 0.02 0 0.76 0.02 0 0.765 0.02 0 0.77 0.02 0 0.775 0.02 0 0.78 0.02 0 0.785 0.02 0 0.79 0.02 0 0.795 0.02 0 0.8 0.02 0 0.805 0.02 0 0.81 0.02 0 0.815 0.02 0 0.82 0.02 0 0.825 0.02 0 0.83 0.02 0 0.835 0.02 0 0.84 0.02 0 0.845 0.02 0 0.85 0.02 0 0.855 0.02 0 0.86 0.02 0 0.865 0.02 0 0.87 0.02 0 0.875 0.02 0 0.88 0.02 0 0.885 0.02 0 0.89 0.02 0 0.895 0.02 0 0.9 0.02 0 0.905 0.02 0 0.91 0.02 0 0.915 0.02 0 0.92 0.02 0 0.925 0.02 0 0.93 0.02 0 0.935 0.02 0 0.94 0.02 0 0.945 0.02 0 0.95 0.02 0 0.955 0.02 0 0.96 0.02 0 0.965 0.02 0 0.97 0.02 0 0.975 0.02 0 0.98 0.02 0 0.985 0.02 0 0.99 0.02 0 0.995 0.02 0 1 0.02 0 0 0.04 0 0.005 0.04 0 0.01 0.04 0 0.015 0.04 0 0.02 0.04 0 0.025 0.04 0 0.03 0.04 0 0.035 0.04 0 0.04 0.04 0 0.045 0.04 0 0.05 0.04 0 0.055 0.04 0 0.06 0.04 0 0.065 0.04 0 0.07 0.04 0 0.075 0.04 0 0.08 0.04 0 0.085 0.04 0 0.09 0.04 0 0.095 0.04 0 0.1 0.04 0 0.105 0.04 0 0.11 0.04 0 0.115 0.04 0 0.12 0.04 0 0.125 0.04 0 0.13 0.04 0 0.135 0.04 0 0.14 0.04 0 0.145 0.04 0 0.15 0.04 0 0.155 0.04 0 0.16 0.04 0 0.165 0.04 0 0.17 0.04 0 0.175 0.04 0 0.18 0.04 0 0.185 0.04 0 0.19 0.04 0 0.195 0.04 0 0.2 0.04 0 0.205 0.04 0 0.21 0.04 0 0.215 0.04 0 0.22 0.04 0 0.225 0.04 0 0.23 0.04 0 0.235 0.04 0 0.24 0.04 0 0.245 0.04 0 0.25 0.04 0 0.255 0.04 0 0.26 0.04 0 0.265 0.04 0 0.27 0.04 0 0.275 0.04 0 0.28 0.04 0 0.285 0.04 0 0.29 0.04 0 0.295 0.04 0 0.3 0.04 0 0.305 0.04 0 0.31 0.04 0 0.315 0.04 0 0.32 0.04 0 0.325 0.04 0 0.33 0.04 0 0.335 0.04 0 0.34 0.04 0 0.345 0.04 0 0.35 0.04 0 0.355 0.04 0 0.36 0.04 0 0.365 0.04 0 0.37 0.04 0 0.375 0.04 0 0.380001 0.04 0 0.385004 0.04 0 0.390015 0.04 0 0.395048 0.04 0 0.400131 0.04 0 0.405307 0.04 0 0.410627 0.04 0 0.416142 0.04 0 0.421895 0.04 0 0.427926 0.04 0 0.434277 0.04 0 0.440993 0.04 0 0.448125 0.04 0 0.455738 0.04 0 0.463906 0.04 0 0.472724 0.04 0 0.482303 0.04 0 0.492764 0.04 0 0.50419 0.04 0 0.516405 0.04 0 0.528661 0.04 0 0.540683 0.04 0 0.55253 0.04 0 0.564301 0.04 0 0.576071 0.04 0 0.578684 0.04 0 0.581223 0.04 0 0.583716 0.04 0 0.586179 0.04 0 0.588621 0.04 0 0.591046 0.04 0 0.59346 0.04 0 0.595868 0.04 0 0.598273 0.04 0 0.600679 0.04 0 0.603089 0.04 0 0.605499 0.04 0 0.607907 0.04 0 0.610309 0.04 0 0.612706 0.04 0 0.615097 0.04 0 0.617487 0.04 0 0.619875 0.04 0 0.622267 0.04 0 0.624663 0.04 0 0.627073 0.04 0 0.629497 0.04 0 0.631959 0.04 0 0.634456 0.04 0 0.637036 0.04 0 0.639689 0.04 0 0.642509 0.04 0 0.645509 0.04 0 0.648798 0.04 0 0.652408 0.04 0 0.656382 0.04 0 0.660703 0.04 0 0.665315 0.04 0 0.670125 0.04 0 0.675046 0.04 0 0.680016 0.04 0 0.685005 0.04 0 0.690002 0.04 0 0.695001 0.04 0 0.7 0.04 0 0.705 0.04 0 0.71 0.04 0 0.715 0.04 0 0.72 0.04 0 0.725 0.04 0 0.73 0.04 0 0.735 0.04 0 0.74 0.04 0 0.745 0.04 0 0.75 0.04 0 0.755 0.04 0 0.76 0.04 0 0.765 0.04 0 0.77 0.04 0 0.775 0.04 0 0.78 0.04 0 0.785 0.04 0 0.79 0.04 0 0.795 0.04 0 0.8 0.04 0 0.805 0.04 0 0.81 0.04 0 0.815 0.04 0 0.82 0.04 0 0.825 0.04 0 0.83 0.04 0 0.835 0.04 0 0.84 0.04 0 0.845 0.04 0 0.85 0.04 0 0.855 0.04 0 0.86 0.04 0 0.865 0.04 0 0.87 0.04 0 0.875 0.04 0 0.88 0.04 0 0.885 0.04 0 0.89 0.04 0 0.895 0.04 0 0.9 0.04 0 0.905 0.04 0 0.91 0.04 0 0.915 0.04 0 0.92 0.04 0 0.925 0.04 0 0.93 0.04 0 0.935 0.04 0 0.94 0.04 0 0.945 0.04 0 0.95 0.04 0 0.955 0.04 0 0.96 0.04 0 0.965 0.04 0 0.97 0.04 0 0.975 0.04 0 0.98 0.04 0 0.985 0.04 0 0.99 0.04 0 0.995 0.04 0 1 0.04 0 0 0.06 0 0.005 0.06 0 0.01 0.06 0 0.015 0.06 0 0.02 0.06 0 0.025 0.06 0 0.03 0.06 0 0.035 0.06 0 0.04 0.06 0 0.045 0.06 0 0.05 0.06 0 0.055 0.06 0 0.06 0.06 0 0.065 0.06 0 0.07 0.06 0 0.075 0.06 0 0.08 0.06 0 0.085 0.06 0 0.09 0.06 0 0.095 0.06 0 0.1 0.06 0 0.105 0.06 0 0.11 0.06 0 0.115 0.06 0 0.12 0.06 0 0.125 0.06 0 0.13 0.06 0 0.135 0.06 0 0.14 0.06 0 0.145 0.06 0 0.15 0.06 0 0.155 0.06 0 0.16 0.06 0 0.165 0.06 0 0.17 0.06 0 0.175 0.06 0 0.18 0.06 0 0.185 0.06 0 0.19 0.06 0 0.195 0.06 0 0.2 0.06 0 0.205 0.06 0 0.21 0.06 0 0.215 0.06 0 0.22 0.06 0 0.225 0.06 0 0.23 0.06 0 0.235 0.06 0 0.24 0.06 0 0.245 0.06 0 0.25 0.06 0 0.255 0.06 0 0.26 0.06 0 0.265 0.06 0 0.27 0.06 0 0.275 0.06 0 0.28 0.06 0 0.285 0.06 0 0.29 0.06 0 0.295 0.06 0 0.3 0.06 0 0.305 0.06 0 0.31 0.06 0 0.315 0.06 0 0.32 0.06 0 0.325 0.06 0 0.33 0.06 0 0.335 0.06 0 0.34 0.06 0 0.345 0.06 0 0.35 0.06 0 0.355 0.06 0 0.36 0.06 0 0.365 0.06 0 0.37 0.06 0 0.375 0.06 0 0.380001 0.06 0 0.385004 0.06 0 0.390015 0.06 0 0.395048 0.06 0 0.400131 0.06 0 0.405307 0.06 0 0.410627 0.06 0 0.416142 0.06 0 0.421895 0.06 0 0.427926 0.06 0 0.434277 0.06 0 0.440993 0.06 0 0.448125 0.06 0 0.455738 0.06 0 0.463906 0.06 0 0.472724 0.06 0 0.482303 0.06 0 0.492764 0.06 0 0.50419 0.06 0 0.516405 0.06 0 0.528661 0.06 0 0.540683 0.06 0 0.55253 0.06 0 0.564301 0.06 0 0.576071 0.06 0 0.578684 0.06 0 0.581223 0.06 0 0.583716 0.06 0 0.586179 0.06 0 0.588621 0.06 0 0.591046 0.06 0 0.59346 0.06 0 0.595868 0.06 0 0.598273 0.06 0 0.600679 0.06 0 0.603089 0.06 0 0.605499 0.06 0 0.607907 0.06 0 0.610309 0.06 0 0.612706 0.06 0 0.615097 0.06 0 0.617487 0.06 0 0.619875 0.06 0 0.622267 0.06 0 0.624663 0.06 0 0.627073 0.06 0 0.629497 0.06 0 0.631959 0.06 0 0.634456 0.06 0 0.637036 0.06 0 0.639689 0.06 0 0.642509 0.06 0 0.645509 0.06 0 0.648798 0.06 0 0.652408 0.06 0 0.656382 0.06 0 0.660703 0.06 0 0.665315 0.06 0 0.670125 0.06 0 0.675046 0.06 0 0.680016 0.06 0 0.685005 0.06 0 0.690002 0.06 0 0.695001 0.06 0 0.7 0.06 0 0.705 0.06 0 0.71 0.06 0 0.715 0.06 0 0.72 0.06 0 0.725 0.06 0 0.73 0.06 0 0.735 0.06 0 0.74 0.06 0 0.745 0.06 0 0.75 0.06 0 0.755 0.06 0 0.76 0.06 0 0.765 0.06 0 0.77 0.06 0 0.775 0.06 0 0.78 0.06 0 0.785 0.06 0 0.79 0.06 0 0.795 0.06 0 0.8 0.06 0 0.805 0.06 0 0.81 0.
[...]
			<PointData Scalars="VitesseX">
				<DataArray Name="VitesseX" type="Float32" format="ascii">
 0 -2.61177e-15 -4.40656e-15 -4.67422e-15 -5.5363e-15 -6.21963e-15 -7.70524e-15 -9.72426e-15 -7.96108e-15 -6.10317e-15 -7.48085e-15 -2.02983e-14 -7.52099e-15 -1.28131e-14 -1.84252e-14 -5.53831e-15 -1.47707e-14 -1.55047e-14 -1.41156e-14 -1.30219e-14 -1.43466e-14 -1.16328e-14 -9.95151e-15 -9.38895e-15 -2.31349e-14 -9.03881e-15 -1.07466e-14 -2.88129e-14 -1.33662e-14 -2.80632e-14 -1.94168e-14 -2.09689e-14 -2.96468e-14 4.04528e-15 -2.03923e-14 -1.63758e-14 -2.29901e-14 1.8751e-14 -2.1227e-14 1.16988e-14 1.31976e-14 -1.78451e-14 -1.61419e-14 -2.0073e-14 3.69917e-15 -2.29163e-14 -2.09386e-14 -1.97381e-14 -1.32555e-14 -1.10084e-14 4.28754e-15 -6.15145e-15 -2.33649e-14 -5.88636e-14 -8.72254e-15 -4.36701e-14 -1.12298e-14 -3.6951e-14 -2.00508e-14 -5.08238e-14 -5.91655e-14 -3.50675e-14 -2.17666e-14 2.70598e-14 -4.75817e-14 1.87347e-13 1.07828e-12 1.1517e-11 1.12893e-10 1.01775e-09 8.43932e-09 6.40302e-08 4.42193e-07 2.76267e-06 1.55016e-05 7.7435e-05 0.000340666 0.0013028 0.00426713 0.0118045 0.0273805 0.0535774 0.0903906 0.135716 0.187236 0.243528 0.304031 0.368692 0.437712 0.511429 0.590218 0.674334 0.763428 0.854952 0.938305 0.975147 0.953625 0.938242 0.929917 0.927777 0.927328 0.927121 0.926902 0.926675 0.92644 0.92621 0.925976 0.92577 0.925555 0.925398 0.925193 0.925091 0.924831 0.924783 0.924307 0.924305 0.923223 0.923277 0.920513 0.920736 0.913186 0.913953 0.894253 0.896711 0.851899 0.858485 0.771606 0.755427 0.633575 0.546327 0.412226 0.28817 0.174435 0.0903403 0.0397989 0.0154848 0.00559301 0.00194029 0.000656505 0.000217806 7.09423e-05 2.26828e-05 7.11585e-06 2.18905e-06 6.60028e-07 1.94959e-07 5.63927e-08 1.59672e-08 4.42401e-09 1.19902e-09 3.17722e-10 8.22827e-11 2.08714e-11 5.04634e-12 1.21615e-12 1.81103e-13 -5.07445e-14 -3.01408e-14 -8.69274e-15 -1.0267e-13 -7.78477e-14 -6.83551e-14 3.12013e-14 -8.68923e-14 9.99244e-14 -4.15741e-14 -5.4183e-14 6.14117e-14 -8.31372e-14 -3.98152e-14 8.7168e-14 -9.35454e-14 1.83421e-14 8.63133e-14 -8.20768e-14 -9.69651e-15 -8.02044e-14 1.07137e-13 -4.48422e-14 -8.15081e-14 1.83517e-14 -2.23133e-15 -6.56186e-14 6.63241e-14 6.99766e-14 2.81358e-14 9.53993e-14 1.16975e-13 8.5058e-15 7.04832e-14 1.12706e-13 1.95057e-15 8.88491e-14 3.86298e-14 7.22234e-14 -1.06378e-14 -7.19192e-14 5.31585e-14 -9.15456e-15 -1.39585e-15 0 0 -3.00748e-15 -4.01586e-15 -7.32863e-15 -2.84373e-15 -1.00248e-14 -7.86804e-15 -6.55026e-15 -6.99317e-15 -1.17596e-14 -9.16954e-15 -9.60296e-15 -1.48023e-14 -1.5019e-14 -1.12228e-14 -1.50594e-14 -1.16867e-14 -1.46856e-14 -1.4782e-14 -1.63298e-14 -7.91745e-15 -9.58893e-15 -1.20747e-14 -2.35674e-14 -8.85458e-15 -6.19824e-15 -2.58946e-14 -2.44828e-14 -2.71323e-14 -1.25351e-14 -2.44408e-14 -2.21429e-14 -1.67101e-14 -1.34008e-14 -7.72693e-15 5.08955e-15 -1.82734e-14 -8.26164e-16 -8.81014e-15 3.06012e-15 6.02869e-15 -2.50169e-14 -1.34801e-14 4.19009e-16 -7.12747e-16 -1.48119e-14 -2.18642e-14 -2.82934e-14 -1.75418e-14 -2.09889e-14 -9.8464e-15 -1.15578e-14 -3.36008e-14 -3.85516e-14 -1.46297e-14 -4.6364e-14 -2.43108e-14 -3.44579e-14 -1.90017e-15 -3.77135e-14 -4.31315e-14 -5.34968e-14 1.40626e-14 -5.7978e-15 -1.69136e-14 1.39311e-13 1.11698e-12 1.15776e-11 1.12877e-10 1.0178e-09 8.43931e-09 6.40302e-08 4.42193e-07 2.76267e-06 1.55016e-05 7.7435e-05 0.000340666 0.0013028 0.00426713 0.0118045 0.0273805 0.0535774 0.0903906 0.135716 0.187236 0.243528 0.304031 0.368692 0.437712 0.511429 0.590218 0.674334 0.763428 0.854952 0.938305 0.975147 0.953625 0.938242 0.929917 0.927777 0.927328 0.927121 0.926902 0.926675 0.92644 0.92621 0.925976 0.92577 0.925555 0.925398 0.925193 0.925091 0.924831 0.924783 0.924307 0.924305 0.923223 0.923277 0.920513 0.920736 0.913186 0.913953 0.894253 0.896711 0.851899 0.858485 0.771606 0.755427 0.633575 0.546327 0.412226 0.28817 0.174435 0.0903403 0.0397989 0.0154848 0.00559301 0.00194029 0.000656505 0.000217806 7.09423e-05 2.26828e-05 7.11585e-06 2.18905e-06 6.60028e-07 1.9496e-07 5.63926e-08 1.59672e-08 4.42404e-09 1.19896e-09 3.17801e-10 8.22304e-11 2.07973e-11 5.11882e-12 1.12717e-12 1.85481e-13 4.17544e-15 -1.92634e-15 -1.03893e-13 -2.66628e-14 -8.24369e-14 -2.21229e-14 -1.55893e-14 3.89513e-14 -7.52922e-14 7.29899e-14 -8.84766e-14 4.9402e-15 -6.87255e-14 -6.83556e-14 8.18553e-14 -9.01272e-15 -2.45919e-14 8.60684e-15 -2.03496e-15 -6.32806e-14 4.01217e-14 -7.6921e-15 -3.39849e-14 -7.31854e-14 6.3756e-14 -4.83233e-14 1.17883e-14 -8.62144e-15 8.63803e-14 4.69875e-15 1.28219e-13 3.66875e-14 8.17618e-14 -1.15383e-14 8.72494e-14 1.02667e-13 5.38193e-14 -2.81366e-14 8.7355e-14 -6.69563e-14 -2.7979e-14 8.83204e-15 6.88698e-14 -2.67491e-14 0 0 -1.68838e-15 -3.44356e-15 -6.37429e-15 -6.50184e-15 -7.85629e-15 -6.03541e-15 -1.52301e-15 -8.56578e-15 -1.25212e-14 -7.92937e-15 -1.02013e-14 -1.70107e-14 -1.33901e-14 -1.19157e-14 -1.81006e-14 -1.07118e-14 -1.16424e-14 -2.70646e-14 -1.6956e-14 -4.97042e-15 -6.03387e-15 -3.19495e-14 -2.0237e-14 -1.64661e-14 -1.51484e-14 -1.75742e-14 -2.08076e-14 -2.29244e-14 -1.81958e-14 -3.74023e-14 2.83224e-15 1.53684e-14 -1.77525e-14 1.94884e-15 -9.44958e-15 -6.46957e-15 -1.50588e-14 7.67054e-15 -3.63983e-15 -3.04641e-14 -2.15735e-14 -1.77609e-14 2.19995e-14 -1.66911e-15 -1.88461e-14 -2.95676e-14 -1.77125e-14 -3.53998e-14 -1.9187e-14 -2.60807e-14 -3.28138e-14 -1.30644e-14 -4.02753e-14 -4.97121e-14 -3.63338e-14 -1.83598e-16 -2.63378e-14 -1.74013e-14 -4.85737e-15 -2.60069e-14 -2.44533e-14 -1.56165e-14 -1.86444e-14 4.72362e-14 1.00048e-13 1.17926e-12 1.16287e-11 1.12889e-10 1.01785e-09 8.43931e-09 6.40302e-08 4.42193e-07 2.76267e-06 1.55016e-05 7.7435e-05 0.000340666 0.0013028 0.00426713 0.0118045 0.0273805 0.0535774 0.0903906 0.135716 0.187236 0.243528 0.304031 0.368692 0.437712 0.511429 0.590218 0.674334 0.763428 0.854952 0.938305 0.975147 0.953625 0.938242 0.929917 0.927777 0.927328 0.927121 0.926902 0.926675 0.92644 0.92621 0.925976 0.92577 0.925555 0.925398 0.925193 0.925091 0.924831 0.924783 0.924307 0.924305 0.923223 0.923277 0.920513 0.920736 0.913186 0.913953 0.894253 0.896711 0.851899 0.858485 0.771606 0.755427 0.633575 0.546327 0.412226 0.28817 0.174435 0.0903403 0.0397989 0.0154848 0.00559301 0.00194029 0.000656505 0.000217806 7.09423e-05 2.26828e-05 7.11585e-06 2.18905e-06 6.60028e-07 1.94959e-07 5.63926e-08 1.59672e-08 4.42397e-09 1.19897e-09 3.1775e-10 8.22832e-11 2.07673e-11 5.05676e-12 1.06844e-12 1.76798e-13 -3.42716e-14 -6.63201e-14 -1.18221e-13 6.48396e-14 -2.70843e-14 4.0924e-14 -6.70976e-14 6.1964e-14 -1.56606e-13 1.99923e-14 1.49426e-14 -9.81111e-14 -1.09404e-14 1.99822e-14 6.02092e-14 -5.61665e-14 -6.69229e-14 3.03019e-14 -1.52635e-14 -7.8709e-14 3.45569e-14 -2.08517e-14 3.65305e-14 -6.5234e-14 9.05643e-16 -5.02812e-14 6.38846e-14 3.27888e-14 1.22797e-13 4.0161e-14 2.5986e-14 8.85299e-15 7.15524e-14 -8.89813e-14 1.26587e-13 5.08075e-14 1.14768e-13 -9.5883e-17 -5.47717e-14 -4.96135e-14 6.62041e-14 2.69919e-14 1.81044e-14 7.64165e-15 0 0 -7.44363e-16 -3.40782e-15 -3.52786e-15 -6.52099e-15 -4.12314e-15 -3.74772e-15 -6.17588e-15 -3.162e-15 -1.03627e-14 -5.53229e-15 -2.14879e-14 -1.70525e-14 -2.15267e-15 -1.80158e-14 -1.14587e-14 -1.35006e-14 -2.89256e-14 -1.7151e-14 -2.79969e-14 -1.97293e-14 -1.96419e-14 -1.84584e-14 -2.25212e-14 -2.6448e-14 -2.88991e-14 -1.51793e-14 -2.01039e-14 -1.18588e-14 -1.6777e-14 -1.45098e-14 1.06328e-14 8.67937e-15 6.03848e-16 1.48903e-15 -4.64704e-14 -3.9617e-15 7.16759e-15 4.87713e-15 -1.44899e-14 -6.95005e-14 -2.8752e-15 -1.98491e-14 4.96544e-15 -1.47859e-14 -4.33766e-14 -7.70209e-15 -8.93302e-15 -7.58899e-15 -4.67771e-14 -3.10261e-14 -5.41296e-14 4.55504e-15 -5.70289e-14 -2.92694e-14 -4.96144e-14 4.94312e-15 -1.07661e-14 -1.48933e-14 2.44246e-14 -1.83948e-14 -1.38156e-14 -5.01381e-14 3.49447e-14 6.22355e-14 1.42661e-13 1.20582e-12 1.15728e-11 1.1298e-10 1.01786e-09 8.43936e-09 6.40302e-08 4.42193e-07 2.76267e-06 1.55016e-05 7.7435e-05 0.000340666 0.0013028 0.00426713 0.0118045 0.0273805 0.0535774 0.0903906 0.135716 0.187236 0.243528 0.304031 0.368692 0.437712 0.511429 0.590218 0.674334 0.763428 0.854952 0.938305 0.975147 0.953625 0.938242 0.929917 0.927777 0.927328 0.927121 0.926902 0.926675 0.92644 0.92621 0.925976 0.92577 0.925555 0.925398 0.925193 0.925091 0.924831 0.924783 0.924307 0.924305 0.923223 0.923277 0.920513 0.920736 0.913186 0.913953 0.894253 0.896711 0.851899 0.858485 0.771606 0.755427 0.633575 0.546327 0.412226 0.28817 0.174435 0.0903403 0.0397989 0.0154848 0.00559301 0.00194029 0.000656505 0.000217806 7.09423e-05 2.26828e-05 7.11585e-06 2.18905e-06 6.60028e-07 1.94959e-07 5.63925e-08 1.59672e-08 4.42399e-09 1.19893e-09 3.17546e-10 8.23538e-11 2.07749e-11 4.93813e-12 1.06498e-12 1.0741e-13 4.78256e-14 -1.08702e-13 5.3746e-14 -1.06572e-13 1.17443e-13 -1.12559e-14 -3.16555e-14 -2.12694e-13 9.76246e-14 -7.49985e-14 -1.45137e-13 9.37019e-14 8.13951e-14 2.18152e-14 -1.32003e-13 -1.00906e-13 7.07619e-14 -6.14147e-14 1.58863e-14 -1.53435e-14 -2.26873e-14 7.55948e-14 -3.44287e-14 -8.47142e-14 1.16638e-14 -1.25674e-13 5.05756e-14 1.89119e-13 1.4869e-13 5.79244e-14 -2.35544e-14 -9.50672e-14 4.38636e-14 -4.33271e-14 1.06333e-13 6.58078e-14 9.74777e-14 1.33022e-14 -1.41261e-13 8.91585e-14 1.08889e-13 9.45278e-14 -2.48069e-14 9.28375e-14 0 0 -6.42781e-16 -3.2941e-15 -2.92177e-15 1.21455e-15 -4.4617e-15 -8.63333e-15 -9.28127e-15 2.27526e-15 -1.45351e-14 -2.70917e-15 -2.4276e-14 -1.08254e-14 8.41147e-16 -1.13872e-14 -1.66879e-14 -2.20436e-14 -2.74969e-14 -1.25034e-14 -3.19399e-14 -3.00441e-14 -3.88233e-14 -3.08155e-14 -1.34952e-14 -4.10232e-15 -2.60873e-14 -3.4566e-14 -2.55826e-14 -1.50873e-14 -7.40677e-15 2.04261e-15 1.22115e-14 -8.69966e-15 1.54458e-14 -5.19439e-15 6.0199e-15 1.13546e-14 9.89959e-15 -1.48331e-14 -3.92682e-14 -7.83426e-14 -1.75406e-14 8.9979e-15 7.12404e-15 -6.91119e-14 -3.92157e-14 -2.87061e-14 -2.61703e-14 3.49712e-15 -6.12065e-14 -8.23369e-15 -6.78349e-14 -5.37726e-14 -4.9578e-14 -5.16762e-15 -4.32417e-14 -1.43181e-14 -2.2427e-14 -3.37539e-15 4.44577e-14 3.13974e-14 -2.86086e-14 -1.26537e-14 6.92309e-15 5.08301e-14 1.29452e-13 1.22639e-12 1.16176e-11 1.13029e-10 1.01786e-09 8.4394e-09 6.40303e-08 4.42193e-07 2.76267e-06 1.55016e-05 7.7435e-05 0.000340666 0.0013028 0.00426713 0.0118045 0.0273805 0.0535774 0.0903906 0.135716 0.187236 0.243528 0.304031 0.368692 0.437712 0.511429 0.590218 0.674334 0.763428 0.854952 0.938305 0.975147 0.953625 0.938242 0.929917 0.927777 0.927328 0.927121 0.926902 0.926675 0.92644 0.92621 0.925976 0.92577 0.925555 0.925398 0.925193 0.925091 0.924831 0.924783 0.924307 0.924305 0.923223 0.923277 0.920513 0.920736 0.913186 0.913953 0.894253 0.896711 0.851899 0.858485 0.771606 0.755427 0.633575 0.546327 0.412226 0.28817 0.174435 0.0903403 0.0397989 0.0154848 0.00559301 0.00194029 0.000656505 0.000217806 7.09423e-05 2.26828e-05 7.11585e-06 2.18905e-06 6.60028e-07 1.94959e-07 5.63926e-08 1.59672e-08 4.42394e-09 1.19878e-09 3.17517e-10 8.23231e-11 2.05678e-11 4.94209e-12 1.12952e-12 6.27492e-14 -1.94261e-14 7.99417e-14 3.21602e-14 -1.97813e-13 1.6695e-13 -1.12433e-13 2.24343e-14 -1.4215e-13 7.40256e-14 -2.26505e-15 -2.16501e-13 2.03703e-14 -6.08819e-14 -4.04031e-14 -2.2039e-14 -4.39043e-14 1.6477e-13 -5.19747e-14 4.77687e-14 -1.01151e-13 3.29937e-14 1.65437e-14 -6.88689e-14 -1.01901e-13 1.18454e-13 -1.51998e-13 4.12194e-14 4.23587e-14 2.11103e-13 5.43398e-14 -1.40818e-13 -6.03068e-14 8.5544e-14 1.2157e-13 6.45521e-14 1.33032e-13 -7.14895e-14 -3.87444e-14 8.74669e-14 5.58165e-14 1.11335e-13 -4.7393e-14 1.5022e-13 2.65587e-14 0 0 2.29602e-16 -3.03453e-15 -1.55336e-15 2.61856e-15 -2.55979e-15 -1.38112e-14 -5.88053e-15 -2.31783e-16 -1.59712e-14 6.45732e-16 -2.70712e-14 5.1634e-16 -3.56772e-15 -6.55362e-15 -2.20792e-14 -2.99069e-14 -6.56076e-15 -2.93856e-14 -2.21605e-14 -2.90821e-14 -4.28855e-14 -7.44154e-14 1.53237e-14 6.33356e-15 -2.13155e-14 -3.28794e-14 -3.24199e-14 -1.14075e-14 -2.06442e-14 -1.2235e-14 3.21389e-14 -2.47881e-16 2.50256e-14 -1.44076e-14 5.95266e-14 3.12502e-14 -4.25027e-15 -2.7686e-14 -5.12576e-14 -7.74721e-14 -4.02892e-14 3.29905e-14 2.74051e-14 -1.06865e-13 -2.26629e-14 -7.83535e-14 -3.30509e-14 -2.67993e-14 -3.62634e-14 1.74038e-14 -7.60741e-14 -9.89473e-14 -4.74092e-14 -3.06837e-14 -1.08643e-14 -1.49782e-15 -4.40326e-14 -2.80171e-14 5.49548e-14 7.4668e-14 -6.56638e-15 -6.15593e-15 -5.46768e-14 5.79073e-14 8.24039e-14 1.24396e-12 1.17087e-11 1.13015e-10 1.01785e-09 8.43941e-09 6.40304e-08 4.42193e-07 2.76267e-06 1.55016e-05 7.7435e-05 0.000340666 0.0013028 0.00426713 0.0118045 0.0273805 0.0535774 0.0903906 0.135716 0.187236 0.243528 0.304031 0.368692 0.437712 0.511429 0.590218 0.674334 0.763428 0.854952 0.938305 0.975147 0.953625 0.938242 0.929917 0.927777 0.927328 0.927121 0.926902 0.926675 0.92644 0.92621 0.925976 0.92577 0.925555 0.925398 0.925193 0.925091 0.924831 0.924783 0.924307 0.924305 0.923223 0.923277 0.920513 0.920736 0.913186 0.913953 0.894253 0.896711 0.851899 0.858485 0.771606 0.755427 0.633575 0.546327 0.412226 0.28817 0.174435 0.0903403 0.0397989 0.0154848 0.00559301 0.00194029 0.000656505 0.000217806 7.09423e-05 2.26828e-05 7.11585e-06 2.18905e-06 6.60028e-07 1.94959e-07 5.63927e-08 1.59672e-08 4.42378e-09 1.19872e-09 3.17561e-10 8.2327e-11 2.0397e-11 4.92969e-12 1.22754e-12 7.42716e-14 -2.62202e-13 2.18504e-13 -8.08787e-14 -1.02285e-13 1.31859e-13 -1.4505e-13 3.63762e-14 1.00065e-13 -1.10274e-13 -2.13974e-15 9.78273e-15 -2.91533e-13 -2.52536e-13 1.19463e-14 2.63366e-13 -7.40402e-14 1.21796e-13 1.48373e-13 -4.47584e-14 -2.11727e-13 2.03933e-14 -3.71766e-14 2.78241e-14 -9.94993e-14 1.06346e-13 -5.8629e-14 1.99027e-14 -1.4455e-13 2.67736e-13 9.21264e-14 -3.43483e-13 1.31051e-13 7.17127e-14 2.4535e-13 1.074e-13 3.26793e-14 -1.27015e-13 -9.43332e-15 2.45506e-13 -4.2646e-14 1.21271e-13 -1.94267e-13 2.39171e-13 -6.54402e-14 0
				</DataArray>
				<DataArray Name="VitesseY" type="Float32" format="ascii">