<?xml version="1.0"?>
<VTKFile type="PolyData">
	<PolyData>
		<Piece NumberOfPoints="1206" NumberOfPolys="1000">
			<Points>
				<DataArray type="Float32" NumberOfComponents="3" format="ascii">
 0 0 0 0.005 0 0 0.01 0 0 0.015 0 0 0.02 0 0 0.025 0 0 0.03 0 0 0.035 0 0 0.04 0 0 0.045 0 0 0.05 0 0 0.055 0 0 0.06 0 0 0.065 0 0 0.07 0 0 0.075 0 0 0.08 0 0 0.085 0 0 0.09 0 0 0.095 0 0 0.1 0 0 0.105 0 0 0.11 0 0 0.115 0 0 0.12 0 0 0.125 0 0 0.13 0 0 0.135 0 0 0.14 0 0 0.145 0 0 0.15 0 0 0.155 0 0 0.16 0 0 0.165 0 0 0.17 0 0 0.175 0 0 0.18 0 0 0.185 0 0 0.19 0 0 0.195 0 0 0.2 0 0 0.205 0 0 0.21 0 0 0.215 0 0 0.22 0 0 0.225 0 0 0.23 0 0 0.235 0 0 0.24 0 0 0.245 0 0 0.25 0 0 0.255 0 0 0.26 0 0 0.265 0 0 0.27 0 0 0.275 0 0 0.28 0 0 0.285 0 0 0.29 0 0 0.295 0 0 0.3 0 0 0.305 0 0 0.31 0 0 0.315 0 0 0.32 0 0 0.325 0 0 0.330002 0 0 0.335006 0 0 0.340017 0 0 0.345045 0 0 0.350108 0 0 0.35523 0 0 0.36044 0 0 0.365765 0 0 0.371228 0 0 0.37685 0 0 0.382647 0 0 0.388637 0 0 0.394836 0 0 0.401263 0 0 0.407939 0 0 0.414888 0 0 0.422135 0 0 0.429711 0 0 0.43765 0 0 0.445991 0 0 0.45478 0 0 0.46407 0 0 0.47392 0 0 0.484389 0 0 0.495529 0 0 0.507323 0 0 0.519526 0 0 0.531665 0 0 0.543662 0 0 0.555529 0 0 0.567317 0 0 0.57907 0 0 0.59081 0 0 0.602547 0 0 0.614295 0 0 0.616904 0 0 0.619439 0 0 0.621929 0 0 0.624388 0 0 0.626825 0 0 0.629247 0 0 0.631658 0 0 0.634062 0 0 0.636463 0 0 0.638866 0 0 0.641272 0 0 0.643679 0 0 0.646083 0 0 0.648481 0 0 0.650873 0 0 0.653259 0 0 0.655641 0 0 0.65802 0 0 0.660397 0 0 0.662773 0 0 0.665147 0 0 0.66752 0 0 0.669892 0 0 0.672264 0 0 0.674635 0 0 0.677006 0 0 0.679377 0 0 0.681747 0 0 0.684118 0 0 0.686489 0 0 0.688861 0 0 0.691235 0 0 0.693613 0 0 0.695996 0 0 0.698391 0 0 0.700799 0 0 0.703239 0 0 0.705709 0 0 0.70825 0 0 0.710852 0 0 0.713596 0 0 0.716489 0 0 0.71964 0 0 0.723082 0 0 0.726876 0 0 0.731026 0 0 0.735498 0 0 0.740215 0 0 0.745085 0 0 0.750032 0 0 0.755011 0 0 0.760004 0 0 0.765001 0 0 0.770001 0 0 0.775 0 0 0.78 0 0 0.785 0 0 0.79 0 0 0.795 0 0 0.8 0 0 0.805 0 0 0.81 0 0 0.815 0 0 0.82 0 0 0.825 0 0 0.83 0 0 0.835 0 0 0.84 0 0 0.845 0 0 0.85 0 0 0.855 0 0 0.86 0 0 0.865 0 0 0.87 0 0 0.875 0 0 0.88 0 0 0.885 0 0 0.89 0 0 0.895 0 0 0.9 0 0 0.905 0 0 0.91 0 0 0.915 0 0 0.92 0 0 0.925 0 0 0.93 0 0 0.935 0 0 0.94 0 0 0.945 0 0 0.95 0 0 0.955 0 0 0.96 0 0 0.965 0 0 0.97 0 0 0.975 0 0 0.98 0 0 0.985 0 0 0.99 0 0 0.995 0 0 1 0 0 0 0.02 0 0.005 0.02 0 0.01 0.02 0 0.015 0.02 0 0.02 0.02 0 0.025 0.02 0 0.03 0.02 0 0.035 0.02 0 0.04 0.02 0 0.045 0.02 0 0.05 0.02 0 0.055 0.02 0 0.06 0.02 0 0.065 0.02 0 0.07 0.02 0 0.075 0.02 0 0.08 0.02 0 0.085 0.02 0 0.09 0.02 0 0.095 0.02 0 0.1 0.02 0 0.105 0.02 0 0.11 0.02 0 0.115 0.02 0 0.12 0.02 0 0.125 0.02 0 0.13 0.02 0 0.135 0.02 0 0.14 0.02 0 0.145 0.02 0 0.15 0.02 0 0.155 0.02 0 0.16 0.02 0 0.165 0.02 0 0.17 0.02 0 0.175 0.02 0 0.18 0.02 0 0.185 0.02 0 0.19 0.02 0 0.195 0.02 0 0.2 0.02 0 0.205 0.02 0 0.21 0.02 0 0.215 0.02 0 0.22 0.02 0 0.225 0.02 0 0.23 0.02 0 0.235 0.02 0 0.24 0.02 0 0.245 0.02 0 0.25 0.02 0 0.255 0.02 0 0.26 0.02 0 0.265 0.02 0 0.27 0.02 0 0.275 0.02 0 0.28 0.02 0 0.285 0.02 0 0.29 0.02 0 0.295 0.02 0 0.3 0.02 0 0.305 0.02 0 0.31 0.02 0 0.315 0.02 0 0.32 0.02 0 0.325 0.02 0 0.330002 0.02 0 0.335006 0.02 0 0.340017 0.02 0 0.345045 0.02 0 0.350108 0.02 0 0.35523 0.02 0 0.36044 0.02 0 0.365765 0.02 0 0.371228 0.02 0 0.37685 0.02 0 0.382647 0.02 0 0.388637 0.02 0 0.394836 0.02 0 0.401263 0.02 0 0.407939 0.02 0 0.414888 0.02 0 0.422135 0.02 0 0.429711 0.02 0 0.43765 0.02 0 0.445991 0.02 0 0.45478 0.02 0 0.46407 0.02 0 0.47392 0.02 0 0.484389 0.02 0 0.495529 0.02 0 0.507323 0.02 0 0.519526 0.02 0 0.531665 0.02 0 0.543662 0.02 0 0.555529 0.02 0 0.567317 0.02 0 0.57907 0.02 0 0.59081 0.02 0 0.602547 0.02 0 0.614295 0.02 0 0.616904 0.02 0 0.619439 0.02 0 0.621929 0.02 0 0.624388 0.02 0 0.626825 0.02 0 0.629247 0.02 0 0.631658 0.02 0 0.634062 0.02 0 0.636463 0.02 0 0.638866 0.02 0 0.641272 0.02 0 0.643679 0.02 0 0.646083 0.02 0 0.648481 0.02 0 0.650873 0.02 0 0.653259 0.02 0 0.655641 0.02 0 0.65802 0.02 0 0.660397 0.02 0 0.662773 0.02 0 0.665147 0.02 0 0.66752 0.02 0 0.669892 0.02 0 0.672264 0.02 0 0.674635 0.02 0 0.677006 0.02 0 0.679377 0.02 0 0.681747 0.02 0 0.684118 0.02 0 0.686489 0.02 0 0.688861 0.02 0 0.691235 0.02 0 0.693613 0.02 0 0.695996 0.02 0 0.698391 0.02 0 0.700799 0.02 0 0.703239 0.02 0 0.705709 0.02 0 0.70825 0.02 0 0.710852 0.02 0 0.713596 0.02 0 0.716489 0.02 0 0.71964 0.02 0 0.723082 0.02 0 0.726876 0.02 0 0.731026 0.02 0 0.735498 0.02 0 0.740215 0.02 0 0.745085 0.02 0 0.750032 0.02 0 0.755011 0.02 0 0.760004 0.02 0 0.765001 0.02 0 0.770001 0.02 0 0.775 0.02 0 0.78 0.02 0 0.785 0.02 0 0.79 0.02 0 0.795 0.02 0 0.8 0.02 0 0.805 0.02 0 0.81 0.02 0 0.815 0.02 0 0.82 0.02 0 0.825 0.02 0 0.83 0.02 0 0.835 0.02 0 0.84 0.02 0 0.845 0.02 0 0.85 0.02 0 0.855 0.02 0 0.86 0.02 0 0.865 0.02 0 0.87 0.02 0 0.875 0.02 0 0.88 0.02 0 0.885 0.02 0 0.89 0.02 0 0.895 0.02 0 0.9 0.02 0 0.905 0.02 0 0.91 0.02 0 0.915 0.02 0 0.92 0.02 0 0.925 0.02 0 0.93 0.02 0 0.935 0.02 0 0.94 0.02 0 0.945 0.02 0 0.95 0.02 0 0.955 0.02 0 0.96 0.02 0 0.965 0.02 0 0.97 0.02 0 0.975 0.02 0 0.98 0.02 0 0.985 0.02 0 0.99 0.02 0 0.995 0.02 0 1 0.02 0 0 0.04 0 0.005 0.04 0 0.01 0.04 0 0.015 0.04 0 0.02 0.04 0 0.025 0.04 0 0.03 0.04 0 0.035 0.04 0 0.04 0.04 0 0.045 0.04 0 0.05 0.04 0 0.055 0.04 0 0.06 0.04 0 0.065 0.04 0 0.07 0.04 0 0.075 0.04 0 0.08 0.04 0 0.085 0.04 0 0.09 0.04 0 0.095 0.04 0 0.1 0.04 0 0.105 0.04 0 0.11 0.04 0 0.115 0.04 0 0.12 0.04 0 0.125 0.04 0 0.13 0.04 0 0.135 0.04 0 0.14 0.04 0 0.145 0.04 0 0.15 0.04 0 0.155 0.04 0 0.16 0.04 0 0.165 0.04 0 0.17 0.04 0 0.175 0.04 0 0.18 0.04 0 0.185 0.04 0 0.19 0.04 0 0.195 0.04 0 0.2 0.04 0 0.205 0.04 0 0.21 0.04 0 0.215 0.04 0 0.22 0.04 0 0.225 0.04 0 0.23 0.04 0 0.235 0.04 0 0.24 0.04 0 0.245 0.04 0 0.25 0.04 0 0.255 0.04 0 0.26 0.04 0 0.265 0.04 0 0.27 0.04 0 0.275 0.04 0 0.28 0.04 0 0.285 0.04 0 0.29 0.04 0 0.295 0.04 0 0.3 0.04 0 0.305 0.04 0 0.31 0.04 0 0.315 0.04 0 0.32 0.04 0 0.325 0.04 0 0.330002 0.04 0 0.335006 0.04 0 0.340017 0.04 0 0.345045 0.04 0 0.350108 0.04 0 0.35523 0.04 0 0.36044 0.04 0 0.365765 0.04 0 0.371228 0.04 0 0.37685 0.04 0 0.382647 0.04 0 0.388637 0.04 0 0.394836 0.04 0 0.401263 0.04 0 0.407939 0.04 0 0.414888 0.04 0 0.422135 0.04 0 0.429711 0.04 0 0.43765 0.04 0 0.445991 0.04 0 0.45478 0.04 0 0.46407 0.04 0 0.47392 0.04 0 0.484389 0.04 0 0.495529 0.04 0 0.507323 0.04 0 0.519526 0.04 0 0.531665 0.04 0 0.543662 0.04 0 0.555529 0.04 0 0.567317 0.04 0 0.57907 0.04 0 0.59081 0.04 0 0.602547 0.04 0 0.614295 0.04 0 0.616904 0.04 0 0.619439 0.04 0 0.621929 0.04 0 0.624388 0.04 0 0.626825 0.04 0 0.629247 0.04 0 0.631658 0.04 0 0.634062 0.04 0 0.636463 0.04 0 0.638866 0.04 0 0.641272 0.04 0 0.643679 0.04 0 0.646083 0.04 0 0.648481 0.04 0 0.650873 0.04 0 0.653259 0.04 0 0.655641 0.04 0 0.65802 0.04 0 0.660397 0.04 0 0.662773 0.04 0 0.665147 0.04 0 0.66752 0.04 0 0.669892 0.04 0 0.672264 0.04 0 0.674635 0.04 0 0.677006 0.04 0 0.679377 0.04 0 0.681747 0.04 0 0.684118 0.04 0 0.686489 0.04 0 0.688861 0.04 0 0.691235 0.04 0 0.693613 0.04 0 0.695996 0.04 0 0.698391 0.04 0 0.700799 0.04 0 0.703239 0.04 0 0.705709 0.04 0 0.70825 0.04 0 0.710852 0.04 0 0.713596 0.04 0 0.716489 0.04 0 0.71964 0.04 0 0.723082 0.04 0 0.726876 0.04 0 0.731026 0.04 0 0.735498 0.04 0 0.740215 0.04 0 0.745085 0.04 0 0.750032 0.04 0 0.755011 0.04 0 0.760004 0.04 0 0.765001 0.04 0 0.770001 0.04 0 0.775 0.04 0 0.78 0.04 0 0.785 0.04 0 0.79 0.04 0 0.795 0.04 0 0.8 0.04 0 0.805 0.04 0 0.81 0.04 0 0.815 0.04 0 0.82 0.04 0 0.825 0.04 0 0.83 0.04 0 0.835 0.04 0 0.84 0.04 0 0.845 0.04 0 0.85 0.04 0 0.855 0.04 0 0.86 0.04 0 0.865 0.04 0 0.87 0.04 0 0.875 0.04 0 0.88 0.04 0 0.885 0.04 0 0.89 0.04 0 0.895 0.04 0 0.9 0.04 0 0.905 0.04 0 0.91 0.04 0 0.915 0.04 0 0.92 0.04 0 0.925 0.04 0 0.93 0.04 0 0.935 0.04 0 0.94 0.04 0 0.945 0.04 0 0.95 0.04 0 0.955 0.04 0 0.96 0.04 0 0.965 0.04 0 0.97 0.04 0 0.975 0.04 0 0.98 0.04 0 0.985 0.04 0 0.99 0.04 0 0.995 0.04 0 1 0.04 0 0 0.06 0 0.005 0.06 0 0.01 0.06 0 0.015 0.06 0 0.02 0.06 0 0.025 0.06 0 0.03 0.06 0 0.035 0.06 0 0.04 0.06 0 0.045 0.06 0 0.05 0.06 0 0.055 0.06 0 0.06 0.06 0 0.065 0.06 0 0.07 0.06 0 0.075 0.06 0 0.08 0.06 0 0.085 0.06 0 0.09 0.06 0 0.095 0.06 0 0.1 0.06 0 0.105 0.06 0 0.11 0.06 0 0.115 0.06 0 0.12 0.06 0 0.125 0.06 0 0.13 0.06 0 0.135 0.06 0 0.14 0.06 0 0.145 0.06 0 0.15 0.06 0 0.155 0.06 0 0.16 0.06 0 0.165 0.06 0 0.17 0.06 0 0.175 0.06 0 0.18 0.06 0 0.185 0.06 0 0.19 0.06 0 0.195 0.06 0 0.2 0.06 0 0.205 0.06 0 0.21 0.06 0 0.215 0.06 0 0.22 0.06 0 0.225 0.06 0 0.23 0.06 0 0.235 0.06 0 0.24 0.06 0 0.245 0.06 0 0.25 0.06 0 0.255 0.06 0 0.26 0.06 0 0.265 0.06 0 0.27 0.06 0 0.275 0.06 0 0.28 0.06 0 0.285 0.06 0 0.29 0.06 0 0.295 0.06 0 0.3 0.06 0 0.305 0.06 0 0.31 0.06 0 0.315 0.06 0 0.32 0.06 0 0.325 0.06 0 0.330002 0.06 0 0.335006 0.06 0 0.340017 0.06 0 0.345045 0.06 0 0.350108 0.06 0 0.35523 0.06 0 0.36044 0.06 0 0.365765 0.06 0 0.371228 0.06 0 0.37685 0.06 0 0.382647 0.06 0 0.388637 0.06 0 0.394836 0.06 0 0.401263 0.06 0 0.407939 0.06 0 0.414888 0.06 0 0.422135 0.06 0 0.429711 0.06 0 0.43765 0.06 0 0.445991 0.06 0 0.45478 0.06 0 0.46407 0.06 0 0.47392 0.06 0 0.484389 0.06 0 0.495529 0.06 0 0.507323 0.06 0 0.519526 0.06 0 0.531665 0.06 0 0.543662 0.06 0 0.555529 0.06 0 0.567317 0.06 0 0.57907 0.06 0 0.59081 0.06 0 0.602547 0.06 0 0.614295 0.06 0 0.616904 0.06 0 0.619439 0.06 0 0.621929 0.06 0 0.624388 0.06 0 0.626825 0.06 0 0.629247 0.06 0 0.631658 0.06 0 0.634062 0.06 0 0.636463 0.06 0 0.638866 0.06 0 0.641272 0.06 0 0.643679 0.06 0 0.646083 0.06 0 0.648481 0.06 0 0.650873 0.06 0 0.653259 0.06 0 0.655641 0.06 0 0.65802 0.06 0 0.660397 0.06 0 0.662773 0.06 0 0.665147 0.06 0 0.66752 0.06 0 0.669892 0.06 0 0.672264 0.06 0 0.674635 0.06 0 0.677006 0.06 0 0.679377 0.06 0 0.681747 0.06 0 0.684118 0.06 0 0.686489 0.06 0 0.688861 0.06 0 0.691235 0.06 0 0.693613 0.06 0 0.695996 0.06 0 0.698391 0.06 0 0.700799 0.06 0 0.703239 0.06 0 0.705709 0.06 0 0.70825 0.06 0 0.710852 0.06 0 0
[...]
			<PointData Scalars="VitesseX">
				<DataArray Name="VitesseX" type="Float32" format="ascii">
 0 -1.34916e-15 -3.12541e-15 -3.77055e-15 -7.28777e-15 -9.00814e-15 -1.01926e-14 -9.59069e-15 -1.1446e-14 -1.94576e-14 -2.093e-14 -1.86938e-14 -1.92587e-14 -1.76912e-14 -9.51684e-15 -1.62404e-14 -1.2418e-14 -2.49929e-14 -2.84636e-14 -2.9612e-14 -8.23139e-15 -2.47791e-14 -2.5793e-14 -9.5445e-15 -2.35987e-14 1.64621e-15 -3.09955e-14 -1.4363e-14 -4.11195e-14 -1.99981e-14 -2.34462e-14 -8.93956e-15 -3.85203e-14 -2.90665e-14 -3.03092e-14 -2.66541e-14 -2.50363e-14 -2.3628e-14 -3.47414e-14 -2.46802e-14 -2.57947e-14 -4.95383e-14 -1.79186e-14 -3.18194e-14 -4.14515e-14 -1.37987e-14 -3.22171e-14 -2.4684e-14 -1.37363e-14 -1.09378e-14 -1.20214e-14 -4.5922e-14 -3.26454e-14 4.2714e-14 7.22377e-13 5.47903e-12 4.13214e-11 2.94001e-10 1.95991e-09 1.22172e-08 7.09737e-08 3.82851e-07 1.90971e-06 8.76614e-06 3.68194e-05 0.000140546 0.000483625 0.00148615 0.00403763 0.00961477 0.0199885 0.0364336 0.0590259 0.0867533 0.118272 0.152527 0.18891 0.227138 0.267113 0.308837 0.352366 0.39779 0.445228 0.494817 0.546711 0.601061 0.657994 0.717538 0.779458 0.842767 0.904269 0.953914 0.965094 0.951504 0.940323 0.932736 0.929004 0.927578 0.926942 0.926524 0.926251 0.926212 0.926175 0.926139 0.926104 0.926071 0.926037 0.926004 0.925971 0.925937 0.925903 0.925868 0.925832 0.925796 0.925757 0.925718 0.925674 0.925632 0.925581 0.925535 0.925473 0.925424 0.925342 0.925295 0.925176 0.925139 0.924942 0.924927 0.924542 0.924551 0.923684 0.923739 0.921473 0.921664 0.915446 0.916064 0.899741 0.901684 0.863651 0.869079 0.794359 0.787052 0.672942 0.60199 0.471162 0.34983 0.227818 0.129285 0.0625918 0.026411 0.0101869 0.00375367 0.0013542 0.000483241 0.000171148 6.01995e-05 2.10218e-05 7.28259e-06 2.5008e-06 8.5053e-07 2.86267e-07 9.52815e-08 3.13411e-08 1.0182e-08 3.26531e-09 1.03323e-09 3.22472e-10 9.9141e-11 3.00002e-11 8.85419e-12 2.55779e-12 5.78285e-13 2.13119e-13 -5.82757e-14 -2.98321e-14 -4.17457e-14 4.20959e-14 -6.97413e-14 7.37879e-14 -7.06209e-14 9.18715e-14 1.11477e-13 6.18697e-14 7.48816e-14 -1.58439e-14 7.7653e-14 2.38506e-14 5.72628e-14 1.03246e-15 -5.61556e-14 6.29203e-14 3.97155e-14 -4.08595e-14 4.75459e-14 -2.4278e-14 8.06617e-14 -3.7859e-14 5.76968e-14 5.20569e-14 -3.57361e-14 0 0 -1.23636e-15 -2.75329e-15 -5.16078e-15 -7.51512e-15 -8.81737e-15 -1.10598e-14 -1.15688e-14 -1.39427e-14 -1.87562e-14 -1.93027e-14 -2.19875e-14 -1.52301e-14 -1.38787e-14 -2.09502e-14 -1.82231e-14 -1.82147e-14 -1.929e-14 -2.62205e-14 -1.64553e-14 -1.40288e-14 -1.96961e-14 -1.52052e-14 -3.09588e-14 -2.87497e-15 -1.95751e-14 -8.91157e-15 -2.7961e-14 -3.24251e-14 -1.775e-14 -2.23988e-14 -3.72065e-14 -3.68924e-14 -2.56306e-14 -1.9331e-14 -2.46301e-14 -2.46277e-14 -3.40878e-14 -2.59122e-14 -3.45492e-14 -3.58937e-14 -2.9849e-14 -3.48237e-14 -2.08836e-14 -2.64287e-14 -2.93541e-14 -1.89673e-14 -4.31958e-14 -2.45472e-14 -1.93161e-14 -2.33054e-14 -8.95017e-16 -3.64629e-14 7.0252e-14 7.07004e-13 5.49502e-12 4.14016e-11 2.93962e-10 1.95991e-09 1.22173e-08 7.09737e-08 3.82851e-07 1.90971e-06 8.76614e-06 3.68194e-05 0.000140546 0.000483625 0.00148615 0.00403763 0.00961477 0.0199885 0.0364336 0.0590259 0.0867533 0.118272 0.152527 0.18891 0.227138 0.267113 0.308837 0.352366 0.39779 0.445228 0.494817 0.546711 0.601061 0.657994 0.717538 0.779458 0.842767 0.904269 0.953914 0.965094 0.951504 0.940323 0.932736 0.929004 0.927578 0.926942 0.926524 0.926251 0.926212 0.926175 0.926139 0.926104 0.926071 0.926037 0.926004 0.925971 0.925937 0.925903 0.925868 0.925832 0.925796 0.925757 0.925718 0.925674 0.925632 0.925581 0.925535 0.925473 0.925424 0.925342 0.925295 0.925176 0.925139 0.924942 0.924927 0.924542 0.924551 0.923684 0.923739 0.921473 0.921664 0.915446 0.916064 0.899741 0.901684 0.863651 0.869079 0.794359 0.787052 0.672942 0.60199 0.471162 0.34983 0.227818 0.129285 0.0625918 0.026411 0.0101869 0.00375367 0.0013542 0.000483241 0.000171148 6.01995e-05 2.10218e-05 7.28259e-06 2.5008e-06 8.5053e-07 2.86267e-07 9.52814e-08 3.1341e-08 1.0182e-08 3.26532e-09 1.03325e-09 3.22368e-10 9.91439e-11 3.00091e-11 8.83637e-12 2.57638e-12 6.49034e-13 -3.66311e-16 6.19241e-14 -6.58925e-14 1.23183e-13 -9.86961e-14 -3.61065e-14 -2.50727e-14 5.86539e-14 2.23761e-14 1.13993e-13 9.21598e-14 -3.41995e-14 7.79378e-14 -5.84212e-15 1.28629e-13 -4.63024e-14 1.94123e-14 1.00243e-13 -1.63278e-14 5.29337e-14 3.47289e-14 1.47895e-14 4.97867e-14 -3.39123e-14 5.2282e-14 -1.634e-14 -3.54175e-14 2.58702e-15 0 0 -2.41265e-15 -4.8262e-15 -6.3244e-15 -7.7326e-15 -1.02924e-14 -1.06498e-14 -1.80964e-14 -2.01647e-14 -1.76797e-14 -1.66914e-14 -2.03065e-14 -2.21225e-14 -2.02446e-14 -1.69288e-14 -9.44808e-15 -2.71269e-14 -1.4124e-14 -1.47552e-14 -5.3798e-15 -1.35884e-14 -1.48111e-14 -1.2825e-14 -1.39651e-14 -1.34441e-14 -1.866e-14 -1.12891e-14 -3.89065e-15 -3.70939e-14 -2.11043e-14 -4.35594e-14 -3.90355e-14 -1.40288e-14 -2.75807e-14 -2.89775e-14 -2.34356e-14 -4.22485e-14 -4.43877e-14 -3.07291e-14 -3.42587e-14 -1.62803e-14 -4.16594e-14 -2.03996e-14 -3.40731e-14 -3.95415e-14 -2.3726e-14 -2.79987e-14 -3.67418e-14 -3.0135e-14 -2.21081e-14 -1.29217e-14 -2.05401e-14 1.47548e-14 7.67102e-14 7.38454e-13 5.52846e-12 4.14776e-11 2.93997e-10 1.95991e-09 1.22173e-08 7.09737e-08 3.82851e-07 1.90971e-06 8.76614e-06 3.68194e-05 0.000140546 0.000483625 0.00148615 0.00403763 0.00961477 0.0199885 0.0364336 0.0590259 0.0867533 0.118272 0.152527 0.18891 0.227138 0.267113 0.308837 0.352366 0.39779 0.445228 0.494817 0.546711 0.601061 0.657994 0.717538 0.779458 0.842767 0.904269 0.953914 0.965094 0.951504 0.940323 0.932736 0.929004 0.927578 0.926942 0.926524 0.926251 0.926212 0.926175 0.926139 0.926104 0.926071 0.926037 0.926004 0.925971 0.925937 0.925903 0.925868 0.925832 0.925796 0.925757 0.925718 0.925674 0.925632 0.925581 0.925535 0.925473 0.925424 0.925342 0.925295 0.925176 0.925139 0.924942 0.924927 0.924542 0.924551 0.923684 0.923739 0.921473 0.921664 0.915446 0.916064 0.899741 0.901684 0.863651 0.869079 0.794359 0.787052 0.672942 0.60199 0.471162 0.34983 0.227818 0.129285 0.0625918 0.026411 0.0101869 0.00375367 0.0013542 0.000483241 0.000171148 6.01995e-05 2.10218e-05 7.28259e-06 2.5008e-06 8.5053e-07 2.86267e-07 9.52814e-08 3.1341e-08 1.01819e-08 3.26531e-09 1.03327e-09 3.22269e-10 9.91246e-11 2.99837e-11 8.8084e-12 2.52159e-12 4.71588e-13 1.52569e-13 -1.04667e-15 2.74446e-14 1.00023e-13 -6.07015e-14 -1.25952e-14 -2.79217e-14 1.07057e-13 -6.37963e-14 4.68008e-14 1.45052e-13 4.76771e-14 4.23005e-14 5.94677e-14 4.96341e-14 -4.10362e-14 -2.80682e-14 9.8207e-14 2.95727e-14 1.07267e-13 7.49137e-14 2.96201e-15 2.3128e-15 -1.64285e-14 2.5935e-14 -1.07307e-13 7.91288e-15 -7.03558e-14 0 0 -3.57742e-15 -5.71256e-15 -4.79809e-15 -1.05283e-14 -1.04307e-14 -1.14996e-14 -2.15214e-14 -1.62263e-14 -1.49571e-14 -2.56302e-14 -2.79681e-14 -2.29626e-14 -3.28073e-14 -4.60173e-15 -9.34913e-15 -1.92782e-14 -5.17141e-15 8.13402e-16 8.40782e-15 -5.66563e-15 -4.2359e-15 -3.88867e-14 7.91229e-16 -2.62565e-14 -1.26996e-14 -1.00784e-14 5.13101e-15 -1.61736e-14 -3.4022e-14 -5.97657e-14 -2.02282e-14 -1.83866e-14 -4.00016e-14 -4.50607e-14 -3.80276e-14 -4.40888e-14 -5.7545e-14 -3.69607e-14 -6.37895e-15 -3.59924e-14 -2.87626e-14 -3.06187e-14 -6.71107e-14 -1.17106e-14 -1.10159e-15 -1.28961e-14 -2.98713e-14 -1.57603e-14 -2.59862e-14 -9.33816e-15 -3.32631e-14 1.52885e-14 1.45923e-13 7.80408e-13 5.5792e-12 4.14678e-11 2.94025e-10 1.95996e-09 1.22173e-08 7.09737e-08 3.82851e-07 1.90971e-06 8.76614e-06 3.68194e-05 0.000140546 0.000483625 0.00148615 0.00403763 0.00961477 0.0199885 0.0364336 0.0590259 0.0867533 0.118272 0.152527 0.18891 0.227138 0.267113 0.308837 0.352366 0.39779 0.445228 0.494817 0.546711 0.601061 0.657994 0.717538 0.779458 0.842767 0.904269 0.953914 0.965094 0.951504 0.940323 0.932736 0.929004 0.927578 0.926942 0.926524 0.926251 0.926212 0.926175 0.926139 0.926104 0.926071 0.926037 0.926004 0.925971 0.925937 0.925903 0.925868 0.925832 0.925796 0.925757 0.925718 0.925674 0.925632 0.925581 0.925535 0.925473 0.925424 0.925342 0.925295 0.925176 0.925139 0.924942 0.924927 0.924542 0.924551 0.923684 0.923739 0.921473 0.921664 0.915446 0.916064 0.899741 0.901684 0.863651 0.869079 0.794359 0.787052 0.672942 0.60199 0.471162 0.34983 0.227818 0.129285 0.0625918 0.026411 0.0101869 0.00375367 0.0013542 0.000483241 0.000171148 6.01995e-05 2.10218e-05 7.28259e-06 2.50081e-06 8.50529e-07 2.86267e-07 9.52813e-08 3.13411e-08 1.01818e-08 3.26538e-09 1.03307e-09 3.22403e-10 9.91127e-11 2.98746e-11 8.88508e-12 2.40237e-12 4.06707e-13 8.64378e-14 3.74639e-14 6.86925e-14 -1.76372e-15 9.52899e-14 4.16889e-14 7.18598e-14 -2.70104e-14 -1.16544e-13 -6.17045e-14 1.51315e-13 1.69937e-13 -4.47394e-15 6.43653e-14 -2.0328e-14 6.65133e-14 -3.75503e-14 -9.20222e-14 6.13937e-14 1.60033e-13 -1.69994e-14 2.70492e-14 -1.46738e-14 3.12831e-15 1.28261e-14 -1.06895e-13 5.8145e-15 -4.4841e-14 0 0 -2.34617e-15 -3.77137e-15 -3.76776e-15 -7.92024e-15 -9.33919e-15 -1.67468e-14 -2.0991e-14 -1.77027e-14 -2.10469e-14 -1.98985e-14 -2.46427e-14 -1.93401e-14 -1.46068e-14 8.31046e-16 -1.44556e-14 3.42689e-15 -8.10505e-15 9.4865e-15 1.1593e-14 -2.22233e-14 4.47559e-15 -3.38341e-14 -2.48004e-14 -1.2876e-14 -5.45822e-15 -1.38454e-14 -2.18697e-14 -1.56109e-14 -2.2837e-14 -2.46483e-14 -3.27982e-14 -4.40499e-14 -4.51431e-14 -6.49721e-14 -6.96337e-14 -2.05622e-14 -7.98015e-14 -3.12721e-14 1.01076e-14 -3.93797e-14 -3.67863e-14 -5.65998e-14 -4.92757e-14 3.14187e-14 8.95844e-15 1.81946e-14 -1.15632e-14 -7.77221e-15 -3.19363e-14 -1.05783e-14 2.23276e-14 9.74843e-15 1.87871e-13 7.702e-13 5.55246e-12 4.14836e-11 2.94062e-10 1.96e-09 1.22174e-08 7.09737e-08 3.82851e-07 1.90971e-06 8.76614e-06 3.68194e-05 0.000140546 0.000483625 0.00148615 0.00403763 0.00961477 0.0199885 0.0364336 0.0590259 0.0867533 0.118272 0.152527 0.18891 0.227138 0.267113 0.308837 0.352366 0.39779 0.445228 0.494817 0.546711 0.601061 0.657994 0.717538 0.779458 0.842767 0.904269 0.953914 0.965094 0.951504 0.940323 0.932736 0.929004 0.927578 0.926942 0.926524 0.926251 0.926212 0.926175 0.926139 0.926104 0.926071 0.926037 0.926004 0.925971 0.925937 0.925903 0.925868 0.925832 0.925796 0.925757 0.925718 0.925674 0.925632 0.925581 0.925535 0.925473 0.925424 0.925342 0.925295 0.925176 0.925139 0.924942 0.924927 0.924542 0.924551 0.923684 0.923739 0.921473 0.921664 0.915446 0.916064 0.899741 0.901684 0.863651 0.869079 0.794359 0.787052 0.672942 0.60199 0.471162 0.34983 0.227818 0.129285 0.0625918 0.026411 0.0101869 0.00375367 0.0013542 0.000483241 0.000171148 6.01995e-05 2.10218e-05 7.28259e-06 2.5008e-06 8.5053e-07 2.86267e-07 9.52813e-08 3.13411e-08 1.01818e-08 3.26525e-09 1.03313e-09 3.22408e-10 9.90319e-11 2.98518e-11 8.95437e-12 2.31356e-12 5.56581e-13 -4.31097e-15 -5.25649e-14 1.3851e-13 -1.3013e-14 7.16129e-14 8.94698e-14 -6.91645e-14 -5.94524e-14 1.78512e-14 -2.5975e-14 3.6798e-14 8.02642e-14 7.10254e-14 2.32984e-14 -1.23637e-14 -6.10319e-14 2.46057e-13 -1.08655e-13 -1.26813e-14 4.89243e-15 -9.87761e-14 -9.11567e-14 9.93978e-14 -1.06051e-13 6.5802e-14 1.05712e-14 -6.63741e-14 2.95325e-14 0 0 -1.23925e-15 -3.38885e-15 -4.03712e-15 -2.50663e-15 -9.77509e-15 -1.98668e-14 -2.15851e-14 -2.68429e-14 -2.94841e-14 -4.24413e-15 -8.68081e-15 -2.57985e-14 5.97817e-15 9.39159e-15 -8.90316e-15 1.51678e-14 -2.05282e-14 1.18133e-14 -1.0907e-15 -4.0466e-14 2.41394e-15 -1.09274e-14 -2.67403e-14 -1.79759e-14 1.79591e-14 -4.32845e-14 -2.02237e-14 -4.93317e-14 -4.33682e-15 4.46762e-15 -3.77375e-14 -4.41195e-14 -4.32498e-14 -8.94251e-14 -8.74774e-14 -1.32246e-14 -8.87407e-14 -3.29979e-14 8.87395e-15 6.6574e-15 -8.92064e-14 -4.10326e-14 -2.25283e-14 1.85815e-14 1.75774e-14 1.19015e-14 2.48404e-14 -8.93581e-15 -2.8422e-14 6.26581e-15 2.59693e-14 5.87099e-14 1.39526e-13 7.6486e-13 5.49242e-12 4.15051e-11 2.94144e-10 1.96e-09 1.22174e-08 7.09737e-08 3.82852e-07 1.90971e-06 8.76614e-06 3.68194e-05 0.000140546 0.000483625 0.00148615 0.00403763 0.00961477 0.0199885 0.0364336 0.0590259 0.0867533 0.118272 0.152527 0.18891 0.227138 0.267113 0.308837 0.352366 0.39779 0.445228 0.494817 0.546711 0.601061 0.657994 0.717538 0.779458 0.842767 0.904269 0.953914 0.965094 0.951504 0.940323 0.932736 0.929004 0.927578 0.926942 0.926524 0.926251 0.926212 0.926175 0.926139 0.926104 0.926071 0.926037 0.926004 0.925971 0.925937 0.925903 0.925868 0.925832 0.925796 0.925757 0.925718 0.925674 0.925632 0.925581 0.925535 0.925473 0.925424 0.925342 0.925295 0.925176 0.925139 0.924942 0.924927 0.924542 0.924551 0.923684 0.923739 0.921473 0.921664 0.915446 0.916064 0.899741 0.901684 0.863651 0.869079 0.794359 0.787052 0.672942 0.60199 0.471162 0.34983 0.227818 0.129285 0.0625918 0.026411 0.0101869 0.00375367 0.0013542 0.000483241 0.000171148 6.01995e-05 2.10218e-05 7.28259e-06 2.5008e-06 8.5053e-07 2.86267e-07 9.52815e-08 3.1341e-08 1.01817e-08 3.26505e-09 1.03338e-09 3.22283e-10 9.89408e-11 2.99036e-11 8.93687e-12 2.27033e-12 5.2265e-13 3.37499e-13 -3.64579e-13 2.96544e-13 -1.09747e-13 7.09835e-14 7.2763e-14 -2.13198e-13 -3.79552e-14 1.88658e-13 4.87925e-14 -6.16027e-14 5.90196e-14 6.41685e-14 1.26619e-13 -1.18101e-13 -1.86977e-13 4.73475e-13 -9.37969e-14 6.09522e-15 -1.62051e-13 -1.24077e-13 -2.12817e-13 1.08904e-13 -1.02927e-13 1.49738e-14 1.10453e-13 -5.87636e-15 -3.28794e-14 0
				</DataArray>
				<DataArray Name="VitesseY" type="Float32" format="ascii">