<?xml version="1.0"?>
<VTKFile type="PolyData">
	<PolyData>
		<Piece NumberOfPoints="1206" NumberOfPolys="1000">
			<Points>
				<DataArray type="Float32" NumberOfComponents="3" format="ascii">
 0 0 0 0.005 0 0 0.01 0 0 0.015 0 0 0.02 0 0 0.025 0 0 0.03 0 0 0.035 0 0 0.04 0 0 0.045 0 0 0.05 0 0 0.055 0 0 0.06 0 0 0.065 0 0 0.07 0 0 0.075 0 0 0.08 0 0 0.085 0 0 0.09 0 0 0.095 0 0 0.1 0 0 0.105 0 0 0.11 0 0 0.115 0 0 0.12 0 0 0.125 0 0 0.13 0 0 0.135 0 0 0.14 0 0 0.145 0 0 0.15 0 0 0.155 0 0 0.16 0 0 0.165 0 0 0.17 0 0 0.175 0 0 0.18 0 0 0.185 0 0 0.19 0 0 0.195 0 0 0.2 0 0 0.205 0 0 0.21 0 0 0.215 0 0 0.22 0 0 0.225 0 0 0.23 0 0 0.235 0 0 0.24 0 0 0.245 0 0 0.25 0 0 0.255 0 0 0.26 0 0 0.265 0 0 0.27 0 0 0.275 0 0 0.28 0 0 0.285 0 0 0.29 0 0 0.295 0 0 0.3 0 0 0.305 0 0 0.31 0 0 0.315 0 0 0.32 0 0 0.325 0 0 0.33 0 0 0.335 0 0 0.34 0 0 0.345 0 0 0.35 0 0 0.355 0 0 0.36 0 0 0.365 0 0 0.37 0 0 0.375 0 0 0.38 0 0 0.385 0 0 0.39 0 0 0.395002 0 0 0.400007 0 0 0.405027 0 0 0.410083 0 0 0.415219 0 0 0.420492 0 0 0.425968 0 0 0.431704 0 0 0.437752 0 0 0.444169 0 0 0.451013 0 0 0.458358 0 0 0.466292 0 0 0.474927 0 0 0.484397 0 0 0.494855 0 0 0.506398 0 0 0.518725 0 0 0.530947 0 0 0.542915 0 0 0.554722 0 0 0.566496 0 0 0.569111 0 0 0.571653 0 0 0.574149 0 0 0.576615 0 0 0.579059 0 0 0.581487 0 0 0.583903 0 0 0.586312 0 0 0.58872 0 0 0.591128 0 0 0.59354 0 0 0.595954 0 0 0.598366 0 0 0.600774 0 0 0.603179 0 0 0.605585 0 0 0.607995 0 0 0.610421 0 0 0.612866 0 0 0.615358 0 0 0.617894 0 0 0.620531 0 0 0.623265 0 0 0.626202 0 0 0.629366 0 0 0.632855 0 0 0.636693 0 0 0.640895 0 0 0.645415 0 0 0.650169 0 0 0.655062 0 0 0.660021 0 0 0.665007 0 0 0.670002 0 0 0.675001 0 0 0.68 0 0 0.685 0 0 0.69 0 0 0.695 0 0 0.7 0 0 0.705 0 0 0.71 0 0 0.715 0 0 0.72 0 0 0.725 0 0 0.73 0 0 0.735 0 0 0.74 0 0 0.745 0 0 0.75 0 0 0.755 0 0 0.76 0 0 0.765 0 0 0.77 0 0 0.775 0 0 0.78 0 0 0.785 0 0 0.79 0 0 0.795 0 0 0.8 0 0 0.805 0 0 0.81 0 0 0.815 0 0 0.82 0 0 0.825 0 0 0.83 0 0 0.835 0 0 0.84 0 0 0.845 0 0 0.85 0 0 0.855 0 0 0.86 0 0 0.865 0 0 0.87 0 0 0.875 0 0 0.88 0 0 0.885 0 0 0.89 0 0 0.895 0 0 0.9 0 0 0.905 0 0 0.91 0 0 0.915 0 0 0.92 0 0 0.925 0 0 0.93 0 0 0.935 0 0 0.94 0 0 0.945 0 0 0.95 0 0 0.955 0 0 0.96 0 0 0.965 0 0 0.97 0 0 0.975 0 0 0.98 0 0 0.985 0 0 0.99 0 0 0.995 0 0 1 0 0 0 0.02 0 0.005 0.02 0 0.01 0.02 0 0.015 0.02 0 0.02 0.02 0 0.025 0.02 0 0.03 0.02 0 0.035 0.02 0 0.04 0.02 0 0.045 0.02 0 0.05 0.02 0 0.055 0.02 0 0.06 0.02 0 0.065 0.02 0 0.07 0.02 0 0.075 0.02 0 0.08 0.02 0 0.085 0.02 0 0.09 0.02 0 0.095 0.02 0 0.1 0.02 0 0.105 0.02 0 0.11 0.02 0 0.115 0.02 0 0.12 0.02 0 0.125 0.02 0 0.13 0.02 0 0.135 0.02 0 0.14 0.02 0 0.145 0.02 0 0.15 0.02 0 0.155 0.02 0 0.16 0.02 0 0.165 0.02 0 0.17 0.02 0 0.175 0.02 0 0.18 0.02 0 0.185 0.02 0 0.19 0.02 0 0.195 0.02 0 0.2 0.02 0 0.205 0.02 0 0.21 0.02 0 0.215 0.02 0 0.22 0.02 0 0.225 0.02 0 0.23 0.02 0 0.235 0.02 0 0.24 0.02 0 0.245 0.02 0 0.25 0.02 0 0.255 0.02 0 0.26 0.02 0 0.265 0.02 0 0.27 0.02 0 0.275 0.02 0 0.28 0.02 0 0.285 0.02 0 0.29 0.02 0 0.295 0.02 0 0.3 0.02 0 0.305 0.02 0 0.31 0.02 0 0.315 0.02 0 0.32 0.02 0 0.325 0.02 0 0.33 0.02 0 0.335 0.02 0 0.34 0.02 0 0.345 0.02 0 0.35 0.02 0 0.355 0.02 0 0.36 0.02 0 0.365 0.02 0 0.37 0.02 0 0.375 0.02 0 0.38 0.02 0 0.385 0.02 0 0.39 0.02 0 0.395002 0.02 0 0.400007 0.02 0 0.405027 0.02 0 0.410083 0.02 0 0.415219 0.02 0 0.420492 0.02 0 0.425968 0.02 0 0.431704 0.02 0 0.437752 0.02 0 0.444169 0.02 0 0.451013 0.02 0 0.458358 0.02 0 0.466292 0.02 0 0.474927 0.02 0 0.484397 0.02 0 0.494855 0.02 0 0.506398 0.02 0 0.518725 0.02 0 0.530947 0.02 0 0.542915 0.02 0 0.554722 0.02 0 0.566496 0.02 0 0.569111 0.02 0 0.571653 0.02 0 0.574149 0.02 0 0.576615 0.02 0 0.579059 0.02 0 0.581487 0.02 0 0.583903 0.02 0 0.586312 0.02 0 0.58872 0.02 0 0.591128 0.02 0 0.59354 0.02 0 0.595954 0.02 0 0.598366 0.02 0 0.600774 0.02 0 0.603179 0.02 0 0.605585 0.02 0 0.607995 0.02 0 0.610421 0.02 0 0.612866 0.02 0 0.615358 0.02 0 0.617894 0.02 0 0.620531 0.02 0 0.623265 0.02 0 0.626202 0.02 0 0.629366 0.02 0 0.632855 0.02 0 0.636693 0.02 0 0.640895 0.02 0 0.645415 0.02 0 0.650169 0.02 0 0.655062 0.02 0 0.660021 0.02 0 0.665007 0.02 0 0.670002 0.02 0 0.675001 0.02 0 0.68 0.02 0 0.685 0.02 0 0.69 0.02 0 0.695 0.02 0 0.7 0.02 0 0.705 0.02 0 0.71 0.02 0 0.715 0.02 0 0.72 0.02 0 0.725 0.02 0 0.73 0.02 0 0.735 0.02 0 0.74 0.02 0 0.745 0.02 0 0.75 0.02 0 0.755 0.02 0 0.76 0.02 0 0.765 0.02 0 0.77 0.02 0 0.775 0.02 0 0.78 0.02 0 0.785 0.02 0 0.79 0.02 0 0.795 0.02 0 0.8 0.02 0 0.805 0.02 0 0.81 0.02 0 0.815 0.02 0 0.82 0.02 0 0.825 0.02 0 0.83 0.02 0 0.835 0.02 0 0.84 0.02 0 0.845 0.02 0 0.85 0.02 0 0.855 0.02 0 0.86 0.02 0 0.865 0.02 0 0.87 0.02 0 0.875 0.02 0 0.88 0.02 0 0.885 0.02 0 0.89 0.02 0 0.895 0.02 0 0.9 0.02 0 0.905 0.02 0 0.91 0.02 0 0.915 0.02 0 0.92 0.02 0 0.925 0.02 0 0.93 0.02 0 0.935 0.02 0 0.94 0.02 0 0.945 0.02 0 0.95 0.02 0 0.955 0.02 0 0.96 0.02 0 0.965 0.02 0 0.97 0.02 0 0.975 0.02 0 0.98 0.02 0 0.985 0.02 0 0.99 0.02 0 0.995 0.02 0 1 0.02 0 0 0.04 0 0.005 0.04 0 0.01 0.04 0 0.015 0.04 0 0.02 0.04 0 0.025 0.04 0 0.03 0.04 0 0.035 0.04 0 0.04 0.04 0 0.045 0.04 0 0.05 0.04 0 0.055 0.04 0 0.06 0.04 0 0.065 0.04 0 0.07 0.04 0 0.075 0.04 0 0.08 0.04 0 0.085 0.04 0 0.09 0.04 0 0.095 0.04 0 0.1 0.04 0 0.105 0.04 0 0.11 0.04 0 0.115 0.04 0 0.12 0.04 0 0.125 0.04 0 0.13 0.04 0 0.135 0.04 0 0.14 0.04 0 0.145 0.04 0 0.15 0.04 0 0.155 0.04 0 0.16 0.04 0 0.165 0.04 0 0.17 0.04 0 0.175 0.04 0 0.18 0.04 0 0.185 0.04 0 0.19 0.04 0 0.195 0.04 0 0.2 0.04 0 0.205 0.04 0 0.21 0.04 0 0.215 0.04 0 0.22 0.04 0 0.225 0.04 0 0.23 0.04 0 0.235 0.04 0 0.24 0.04 0 0.245 0.04 0 0.25 0.04 0 0.255 0.04 0 0.26 0.04 0 0.265 0.04 0 0.27 0.04 0 0.275 0.04 0 0.28 0.04 0 0.285 0.04 0 0.29 0.04 0 0.295 0.04 0 0.3 0.04 0 0.305 0.04 0 0.31 0.04 0 0.315 0.04 0 0.32 0.04 0 0.325 0.04 0 0.33 0.04 0 0.335 0.04 0 0.34 0.04 0 0.345 0.04 0 0.35 0.04 0 0.355 0.04 0 0.36 0.04 0 0.365 0.04 0 0.37 0.04 0 0.375 0.04 0 0.38 0.04 0 0.385 0.04 0 0.39 0.04 0 0.395002 0.04 0 0.400007 0.04 0 0.405027 0.04 0 0.410083 0.04 0 0.415219 0.04 0 0.420492 0.04 0 0.425968 0.04 0 0.431704 0.04 0 0.437752 0.04 0 0.444169 0.04 0 0.451013 0.04 0 0.458358 0.04 0 0.466292 0.04 0 0.474927 0.04 0 0.484397 0.04 0 0.494855 0.04 0 0.506398 0.04 0 0.518725 0.04 0 0.530947 0.04 0 0.542915 0.04 0 0.554722 0.04 0 0.566496 0.04 0 0.569111 0.04 0 0.571653 0.04 0 0.574149 0.04 0 0.576615 0.04 0 0.579059 0.04 0 0.581487 0.04 0 0.583903 0.04 0 0.586312 0.04 0 0.58872 0.04 0 0.591128 0.04 0 0.59354 0.04 0 0.595954 0.04 0 0.598366 0.04 0 0.600774 0.04 0 0.603179 0.04 0 0.605585 0.04 0 0.607995 0.04 0 0.610421 0.04 0 0.612866 0.04 0 0.615358 0.04 0 0.617894 0.04 0 0.620531 0.04 0 0.623265 0.04 0 0.626202 0.04 0 0.629366 0.04 0 0.632855 0.04 0 0.636693 0.04 0 0.640895 0.04 0 0.645415 0.04 0 0.650169 0.04 0 0.655062 0.04 0 0.660021 0.04 0 0.665007 0.04 0 0.670002 0.04 0 0.675001 0.04 0 0.68 0.04 0 0.685 0.04 0 0.69 0.04 0 0.695 0.04 0 0.7 0.04 0 0.705 0.04 0 0.71 0.04 0 0.715 0.04 0 0.72 0.04 0 0.725 0.04 0 0.73 0.04 0 0.735 0.04 0 0.74 0.04 0 0.745 0.04 0 0.75 0.04 0 0.755 0.04 0 0.76 0.04 0 0.765 0.04 0 0.77 0.04 0 0.775 0.04 0 0.78 0.04 0 0.785 0.04 0 0.79 0.04 0 0.795 0.04 0 0.8 0.04 0 0.805 0.04 0 0.81 0.04 0 0.815 0.04 0 0.82 0.04 0 0.825 0.04 0 0.83 0.04 0 0.835 0.04 0 0.84 0.04 0 0.845 0.04 0 0.85 0.04 0 0.855 0.04 0 0.86 0.04 0 0.865 0.04 0 0.87 0.04 0 0.875 0.04 0 0.88 0.04 0 0.885 0.04 0 0.89 0.04 0 0.895 0.04 0 0.9 0.04 0 0.905 0.04 0 0.91 0.04 0 0.915 0.04 0 0.92 0.04 0 0.925 0.04 0 0.93 0.04 0 0.935 0.04 0 0.94 0.04 0 0.945 0.04 0 0.95 0.04 0 0.955 0.04 0 0.96 0.04 0 0.965 0.04 0 0.97 0.04 0 0.975 0.04 0 0.98 0.04 0 0.985 0.04 0 0.99 0.04 0 0.995 0.04 0 1 0.04 0 0 0.06 0 0.005 0.06 0 0.01 0.06 0 0.015 0.06 0 0.02 0.06 0 0.025 0.06 0 0.03 0.06 0 0.035 0.06 0 0.04 0.06 0 0.045 0.06 0 0.05 0.06 0 0.055 0.06 0 0.06 0.06 0 0.065 0.06 0 0.07 0.06 0 0.075 0.06 0 0.08 0.06 0 0.085 0.06 0 0.09 0.06 0 0.095 0.06 0 0.1 0.06 0 0.105 0.06 0 0.11 0.06 0 0.115 0.06 0 0.12 0.06 0 0.125 0.06 0 0.13 0.06 0 0.135 0.06 0 0.14 0.06 0 0.145 0.06 0 0.15 0.06 0 0.155 0.06 0 0.16 0.06 0 0.165 0.06 0 0.17 0.06 0 0.175 0.06 0 0.18 0.06 0 0.185 0.06 0 0.19 0.06 0 0.195 0.06 0 0.2 0.06 0 0.205 0.06 0 0.21 0.06 0 0.215 0.06 0 0.22 0.06 0 0.225 0.06 0 0.23 0.06 0 0.235 0.06 0 0.24 0.06 0 0.245 0.06 0 0.25 0.06 0 0.255 0.06 0 0.26 0.06 0 0.265 0.06 0 0.27 0.06 0 0.275 0.06 0 0.28 0.06 0 0.285 0.06 0 0.29 0.06 0 0.295 0.06 0 0.3 0.06 0 0.305 0.06 0 0.31 0.06 0 0.315 0.06 0 0.32 0.06 0 0.325 0.06 0 0.33 0.06 0 0.335 0.06 0 0.34 0.06 0 0.345 0.06 0 0.35 0.06 0 0.355 0.06 0 0.36 0.06 0 0.365 0.06 0 0.37 0.06 0 0.375 0.06 0 0.38 0.06 0 0.385 0.06 0 0.39 0.06 0 0.395002 0.06 0 0.400007 0.06 0 0.405027 0.06 0 0.410083 0.06 0 0.415219 0.06 0 0.420492 0.06 0 0.425968 0.06 0 0.431704 0.06 0 0.437752 0.06 0 0.444169 0.06 0 0.451013 0.06 0 0.458358 0.06 0 0.466292 0.06 0 0.474927 0.06 0 0.484397 0.06 0 0.494855 0.06 0 0.506398 0.06 0 0.518725 0.06 0 0.530947 0.06 0 0.542915 0.06 0 0.554722 0.06 0 0.566496 0.06 0 0.569111 0.06 0 0.571653 0.06 0 0.574149 0.06 0 0.576615 0.06 0 0.579059 0.06 0 0.581487 0.06 0 0.583903 0.06 0 0.586312 0.06 0 0.58872 0.06 0 0.591128 0.06 0 0.59354 0.06 0 0.595954 0.06 0 0.598366 0.06 0 0.600774 0.06 0 0.603179 0.06 0 0.605585 0.06 0 0.607995 0.06 0 0.610421 0.06 0 0.612866 0.06 0 0.615358 0.06 0 0.617894 0.06 0 0.620531 0.06 0 0.623265 0.06 0 0.626202 0.06 0 0.629366 0.06 0 0.632855 0.06 0 0.636693 0.06 0 0.640895 0.06 0 0.645415 0.06 0 0.650169 0.06 0 0.655062 0.06 0 0.660021 0.06 0 0.665007 0.06 0 0.670002 0.06 0 0.675001 0.06 0 0.68 0.06 0 0.685 0.06 0 0.69 0.06 0 0.695 0.06 0 0.7 0.06 0 0.705 0.06 0 0.71 0.06 0 0.715 0.06 0 0.72 0.06 0 0.725 0.06 0 0.73 0.06 0 0.735 0.06 0 0.74 0.06 0 0.745 0.06 0 0.75 0.06 0 0.755 0.06 0 0.76 0.06 0 0.765 0.06 0 0.77 0.06 0 0.775 0.06 0 0.78 0.06 0 0.785 0.06 0 0.79 0.06 0 0.795 0.06 0 0.8 0.06 0 0.805 0.06 0 0.81 0.06 0 0.815 0.06 0 0.82 0.06 0 0.825 0.06 0 0.83 0.06 0 0.835 0.06 0 0.84 0.06 0 0.845 0.06 0 0.8
[...]
			<PointData Scalars="VitesseX">
				<DataArray Name="VitesseX" type="Float32" format="ascii">
 0 -6.32429e-16 -8.99535e-16 -4.35342e-15 -3.14229e-15 -3.65629e-15 -5.85829e-15 -2.86174e-15 -8.92341e-15 -4.95213e-15 -4.44564e-15 -1.20412e-14 -9.91655e-15 -1.00597e-14 -7.56729e-15 -1.49816e-14 -1.02099e-14 -1.01342e-14 -1.10412e-14 -7.32651e-15 -8.54106e-15 -9.71079e-15 -2.02269e-14 -4.90009e-15 -1.3487e-14 2.7253e-15 -1.15738e-14 -2.61185e-14 -2.4824e-14 -9.31036e-15 -2.73369e-14 -1.98568e-14 -4.40239e-15 -9.87867e-15 -3.38748e-14 -1.97686e-14 6.77096e-15 -1.90217e-14 -4.82735e-15 1.17663e-15 2.30223e-15 -2.45372e-14 -1.5668e-14 -4.6348e-15 1.04683e-14 -9.62837e-16 -2.53599e-15 -1.04423e-14 -2.92413e-14 -2.41013e-15 1.76862e-14 -1.14888e-14 -2.72262e-14 4.93205e-14 -5.18904e-14 -4.98333e-14 -4.97945e-14 1.31869e-14 -6.41977e-14 -4.9638e-14 -1.24359e-14 -3.3615e-14 -2.73898e-14 -3.86041e-14 1.88668e-14 -1.84697e-15 1.09786e-14 4.1801e-14 3.35294e-14 1.00815e-12 1.12691e-11 1.2204e-10 1.20847e-09 1.09204e-08 8.95866e-08 6.63135e-07 4.39745e-06 2.58999e-05 0.000134064 0.000601967 0.00230804 0.00742833 0.0197953 0.0435861 0.0805866 0.129206 0.186504 0.250335 0.319795 0.394788 0.47562 0.562768 0.656626 0.75685 0.860034 0.950618 0.974654 0.949077 0.933764 0.928021 0.927527 0.927307 0.927055 0.926796 0.926579 0.926352 0.926186 0.925932 0.925785 0.92538 0.925244 0.924489 0.924415 0.922837 0.922872 0.919121 0.919406 0.90951 0.910571 0.885182 0.888568 0.833069 0.838518 0.737979 0.703637 0.573868 0.467437 0.333071 0.213102 0.116084 0.0534199 0.0212064 0.00764154 0.00260688 0.000860215 0.000276815 8.70867e-05 2.67968e-05 8.06271e-06 2.37114e-06 6.8123e-07 1.91106e-07 5.23225e-08 1.39748e-08 3.63974e-09 9.24017e-10 2.28631e-10 5.50979e-11 1.2891e-11 2.95475e-12 6.14674e-13 2.60512e-14 -9.9911e-14 2.18095e-14 -7.72741e-14 -9.01557e-14 -4.46659e-14 -4.16399e-14 -5.0375e-14 1.05895e-14 -8.25613e-14 -6.62769e-14 -1.20996e-13 7.64697e-14 2.47583e-14 -8.88206e-14 4.73623e-15 4.54451e-14 2.04723e-14 -6.75964e-14 4.43628e-15 5.15703e-14 -2.70962e-14 3.2233e-14 4.40216e-15 -5.47115e-17 -6.96027e-14 -6.83887e-14 1.48289e-13 6.10629e-14 -4.81012e-14 -1.15488e-13 -1.44435e-14 7.89713e-14 -6.30757e-15 4.42604e-14 4.46946e-14 -8.82515e-14 8.48781e-14 8.80249e-14 7.33538e-14 1.06333e-13 5.76986e-14 9.94295e-15 3.83917e-14 4.84229e-14 6.39229e-14 3.19046e-15 2.51172e-14 -3.01616e-14 0 0 -3.96525e-16 -2.33768e-15 -3.6526e-15 -4.30438e-15 -7.71596e-15 -5.26621e-15 -6.55049e-15 -6.71994e-15 -5.51008e-15 -1.0093e-14 -3.29724e-15 -7.59174e-15 -1.13335e-14 -1.20995e-14 -8.27307e-15 -1.50434e-14 -1.39402e-14 -9.61686e-15 -5.31307e-15 -6.30254e-15 -1.52907e-14 -1.43283e-14 -1.39754e-14 -1.03718e-14 -1.62607e-15 -1.6202e-14 -1.6627e-14 -9.42947e-15 -3.0679e-14 -2.14341e-14 -1.67416e-14 -2.0104e-14 -1.18879e-14 -2.66271e-14 -1.9811e-14 5.9921e-15 -4.72965e-15 7.25891e-15 6.09948e-15 -2.05449e-14 -9.87105e-15 -6.34939e-15 -1.42266e-14 -8.26519e-15 7.7953e-15 5.94632e-15 -2.25161e-14 -2.72319e-14 3.33307e-15 -5.6966e-15 5.33661e-15 -4.1887e-14 3.77434e-14 -2.77392e-14 -4.08268e-14 -5.08719e-14 -4.67951e-14 -1.97009e-14 -4.58465e-14 -2.34019e-14 -1.66922e-14 -3.39252e-14 -3.45055e-14 9.65044e-15 -1.41362e-14 6.0703e-15 3.05678e-14 1.03261e-13 9.77169e-13 1.13212e-11 1.22077e-10 1.20846e-09 1.09204e-08 8.95866e-08 6.63135e-07 4.39745e-06 2.58999e-05 0.000134064 0.000601967 0.00230804 0.00742833 0.0197953 0.0435861 0.0805866 0.129206 0.186504 0.250335 0.319795 0.394788 0.47562 0.562768 0.656626 0.75685 0.860034 0.950618 0.974654 0.949077 0.933764 0.928021 0.927527 0.927307 0.927055 0.926796 0.926579 0.926352 0.926186 0.925932 0.925785 0.92538 0.925244 0.924489 0.924415 0.922837 0.922872 0.919121 0.919406 0.90951 0.910571 0.885182 0.888568 0.833069 0.838518 0.737979 0.703637 0.573868 0.467437 0.333071 0.213102 0.116084 0.0534199 0.0212064 0.00764154 0.00260688 0.000860215 0.000276815 8.70867e-05 2.67968e-05 8.06271e-06 2.37114e-06 6.8123e-07 1.91106e-07 5.23225e-08 1.39748e-08 3.6397e-09 9.24087e-10 2.28605e-10 5.50342e-11 1.29077e-11 2.84592e-12 5.93922e-13 8.19217e-14 -4.18027e-14 -4.5542e-14 -5.53308e-15 -8.32668e-14 -2.57133e-14 -6.06719e-14 -8.04802e-14 3.73278e-14 -8.91285e-14 -8.24266e-14 -4.57135e-14 5.58895e-14 -1.64793e-14 -3.24586e-14 -4.81308e-14 3.582e-15 -6.75321e-15 9.66303e-14 -6.35813e-14 5.53884e-14 1.25159e-14 -1.11661e-13 3.57193e-14 1.46187e-14 -2.64053e-14 -9.51265e-14 1.10941e-13 -2.23478e-14 -2.82087e-14 -7.37306e-15 -7.50584e-14 6.99175e-14 9.06506e-14 1.23301e-16 1.83936e-14 -1.8821e-14 6.33366e-14 1.02589e-13 4.42491e-14 8.4889e-14 1.09716e-13 4.21406e-14 -9.43513e-14 1.89307e-14 7.39042e-14 6.63525e-14 -8.1151e-14 -2.51727e-14 0 0 -2.19705e-15 -3.98026e-15 -6.32787e-15 -5.23754e-15 -1.07792e-14 -5.13923e-15 -1.00811e-14 -2.99545e-15 -8.72482e-15 -3.45074e-15 -9.3624e-15 -8.25394e-15 -1.03635e-14 -6.44627e-15 -2.19976e-14 -1.03317e-14 -1.54694e-14 -1.18374e-14 -8.29609e-15 -7.09883e-15 -4.47334e-15 -1.1763e-14 -1.80901e-14 -2.17168e-14 -9.36803e-15 -2.22971e-14 -2.36724e-14 -2.32384e-14 -4.15446e-15 -1.25687e-14 -2.03808e-14 -1.93294e-14 2.31107e-15 -2.04397e-14 -2.38662e-14 -1.55078e-14 3.15522e-15 2.63337e-14 -3.83371e-15 -4.88613e-15 2.57435e-15 -1.20646e-14 -2.41398e-14 -1.80488e-14 1.19983e-15 2.19429e-15 -5.88971e-15 -2.32134e-14 -2.37141e-14 -1.80132e-14 1.64852e-15 -5.13679e-14 -3.20995e-14 2.2826e-14 -4.92869e-14 -2.57125e-14 -2.03553e-14 -3.98544e-14 -4.60574e-14 -3.34125e-14 1.87796e-14 -5.26208e-14 -1.433e-14 -4.38008e-14 1.67674e-14 2.13452e-15 2.36861e-14 1.63083e-13 9.9913e-13 1.1419e-11 1.221e-10 1.20848e-09 1.09204e-08 8.95866e-08 6.63135e-07 4.39745e-06 2.58999e-05 0.000134064 0.000601967 0.00230804 0.00742833 0.0197953 0.0435861 0.0805866 0.129206 0.186504 0.250335 0.319795 0.394788 0.47562 0.562768 0.656626 0.75685 0.860034 0.950618 0.974654 0.949077 0.933764 0.928021 0.927527 0.927307 0.927055 0.926796 0.926579 0.926352 0.926186 0.925932 0.925785 0.92538 0.925244 0.924489 0.924415 0.922837 0.922872 0.919121 0.919406 0.90951 0.910571 0.885182 0.888568 0.833069 0.838518 0.737979 0.703637 0.573868 0.467437 0.333071 0.213102 0.116084 0.0534199 0.0212064 0.00764154 0.00260688 0.000860215 0.000276815 8.70867e-05 2.67968e-05 8.06271e-06 2.37114e-06 6.8123e-07 1.91106e-07 5.23225e-08 1.39747e-08 3.63968e-09 9.2404e-10 2.28671e-10 5.50133e-11 1.28337e-11 2.81768e-12 5.18669e-13 4.8397e-14 -1.24729e-14 -7.50918e-15 -4.81634e-14 -7.76469e-14 -1.02651e-13 -1.98526e-14 5.81356e-14 -7.6853e-14 -5.10561e-14 -4.72232e-14 1.26493e-13 -1.01615e-13 4.17095e-14 -7.63672e-14 -7.57141e-14 8.5034e-14 -4.71853e-14 1.05e-13 -7.64391e-14 -5.84931e-14 2.86802e-15 -1.15321e-13 -8.19032e-14 9.91832e-14 3.27749e-14 -7.53519e-14 1.17689e-13 -9.13957e-14 2.05677e-14 2.78572e-14 -1.01958e-13 1.08042e-13 6.58325e-14 -6.04604e-14 9.92794e-14 1.05665e-13 -5.55395e-14 5.15479e-16 1.59056e-13 -1.56263e-14 9.64687e-14 1.0816e-14 1.89969e-14 -6.50132e-14 6.35646e-14 8.29197e-14 -2.08818e-13 -1.70457e-14 0 0 -3.8732e-15 -4.85882e-15 -1.03144e-14 -4.93593e-15 -8.61051e-15 -7.1323e-15 -5.38372e-15 -5.74378e-15 -8.44424e-15 -4.29531e-15 -4.0501e-15 -9.71075e-15 -8.05683e-15 -2.00902e-14 -3.34319e-14 -4.69624e-15 -7.54293e-15 -1.47486e-14 2.33051e-16 -1.88607e-14 -1.82671e-14 -2.1174e-14 -9.80203e-15 -3.08505e-14 -2.96624e-14 -2.11655e-14 -2.25538e-14 -1.91521e-14 7.7519e-15 -3.1167e-14 -1.87239e-14 -1.10584e-14 5.07089e-15 -1.23233e-14 -2.54226e-14 5.42463e-15 9.18957e-15 9.3185e-15 -5.60575e-15 -2.30189e-14 1.51833e-14 -2.3232e-14 -1.47688e-14 -2.98237e-14 -3.96003e-15 2.68168e-14 -1.44507e-14 -1.42113e-14 -3.59951e-14 -2.05652e-14 -2.00325e-14 -3.62736e-14 -6.38246e-14 -1.54394e-14 -5.20855e-14 2.20326e-15 1.27524e-14 -7.84216e-14 -1.70629e-14 -2.26302e-14 -4.87662e-14 3.55437e-14 9.73559e-15 -5.49143e-14 2.07727e-14 -1.26724e-14 4.14403e-14 1.40064e-13 1.05745e-12 1.14668e-11 1.22084e-10 1.20855e-09 1.09204e-08 8.95866e-08 6.63134e-07 4.39745e-06 2.58999e-05 0.000134064 0.000601967 0.00230804 0.00742833 0.0197953 0.0435861 0.0805866 0.129206 0.186504 0.250335 0.319795 0.394788 0.47562 0.562768 0.656626 0.75685 0.860034 0.950618 0.974654 0.949077 0.933764 0.928021 0.927527 0.927307 0.927055 0.926796 0.926579 0.926352 0.926186 0.925932 0.925785 0.92538 0.925244 0.924489 0.924415 0.922837 0.922872 0.919121 0.919406 0.90951 0.910571 0.885182 0.888568 0.833069 0.838518 0.737979 0.703637 0.573868 0.467437 0.333071 0.213102 0.116084 0.0534199 0.0212064 0.00764154 0.00260688 0.000860215 0.000276815 8.70867e-05 2.67968e-05 8.06271e-06 2.37114e-06 6.8123e-07 1.91106e-07 5.23224e-08 1.39747e-08 3.6396e-09 9.24055e-10 2.28567e-10 5.50445e-11 1.28033e-11 2.80854e-12 6.06731e-13 -8.14781e-14 -1.35953e-13 1.24448e-13 -1.0879e-13 -5.81069e-14 -1.14497e-13 -1.12803e-13 1.39055e-13 -1.2376e-13 -1.00034e-13 4.41217e-14 6.31761e-14 -8.7706e-14 -2.29147e-14 7.84434e-14 2.62486e-14 9.33859e-14 -9.39966e-14 6.18296e-14 -9.09681e-14 -8.54093e-14 -2.49761e-15 -4.28022e-14 -2.27078e-13 1.04664e-13 7.39919e-14 5.63035e-14 -3.03078e-14 5.37609e-14 2.53365e-14 -2.66788e-14 -2.10317e-14 -4.55447e-14 8.30668e-14 -1.07166e-13 1.33461e-13 1.29717e-13 3.7576e-15 -9.44913e-14 1.2954e-13 4.49692e-14 -2.28439e-14 3.34684e-14 2.51883e-13 8.81297e-15 3.20965e-14 -1.20147e-13 -5.17216e-14 -1.21898e-13 0 0 -4.46892e-15 -6.22479e-15 -1.04901e-14 -6.24864e-15 -4.92409e-15 -9.64586e-15 -2.01454e-15 -1.3413e-15 -6.42227e-15 -1.56498e-14 5.62038e-15 -7.52584e-15 -1.00212e-14 -2.58477e-14 -1.07403e-14 -1.23017e-14 -1.05886e-14 -3.40299e-15 -1.03847e-14 -2.18241e-14 -3.43619e-14 -2.49421e-14 -2.82862e-14 -3.98144e-14 -3.03538e-14 -2.63978e-14 -1.1342e-14 8.69539e-15 -2.63622e-14 -3.3918e-14 -1.21938e-14 -7.30862e-15 -9.32391e-15 2.16677e-14 -5.08874e-15 3.12095e-14 1.20558e-14 -2.10799e-14 1.3462e-14 -4.22617e-14 6.74129e-15 -3.3737e-14 -2.14795e-14 -3.37815e-14 9.13455e-15 3.49997e-14 -7.31592e-15 -7.53482e-15 -6.98076e-14 -4.60481e-14 -1.71696e-14 -5.05793e-14 -5.7971e-14 -6.09494e-14 -5.60888e-14 2.62303e-14 -2.11501e-14 -2.5262e-14 -2.10771e-14 5.63484e-15 -2.57542e-14 3.47678e-14 1.24228e-14 -3.5021e-14 -3.26271e-14 -8.31327e-15 2.44806e-14 1.23348e-13 1.07971e-12 1.14509e-11 1.2207e-10 1.20859e-09 1.09205e-08 8.95866e-08 6.63134e-07 4.39745e-06 2.58999e-05 0.000134064 0.000601967 0.00230804 0.00742833 0.0197953 0.0435861 0.0805866 0.129206 0.186504 0.250335 0.319795 0.394788 0.47562 0.562768 0.656626 0.75685 0.860034 0.950618 0.974654 0.949077 0.933764 0.928021 0.927527 0.927307 0.927055 0.926796 0.926579 0.926352 0.926186 0.925932 0.925785 0.92538 0.925244 0.924489 0.924415 0.922837 0.922872 0.919121 0.919406 0.90951 0.910571 0.885182 0.888568 0.833069 0.838518 0.737979 0.703637 0.573868 0.467437 0.333071 0.213102 0.116084 0.0534199 0.0212064 0.00764154 0.00260688 0.000860215 0.000276815 8.70867e-05 2.67968e-05 8.06271e-06 2.37114e-06 6.8123e-07 1.91106e-07 5.23224e-08 1.39747e-08 3.63958e-09 9.24167e-10 2.28447e-10 5.49047e-11 1.2848e-11 2.6509e-12 5.96869e-13 -3.56597e-14 -1.09481e-13 4.71943e-14 -9.59284e-14 -7.43938e-14 -2.21495e-14 -7.50412e-14 -9.10535e-14 2.17533e-14 -7.13989e-14 6.32761e-14 2.67426e-15 -1.18009e-14 -1.52014e-13 8.17076e-14 5.49722e-14 -1.76042e-13 3.90382e-14 4.2167e-14 -6.38523e-14 -1.98128e-14 1.4035e-13 -4.27377e-14 -1.06709e-13 8.39576e-14 2.00222e-14 -9.26977e-14 -1.4117e-13 9.94423e-14 1.35676e-13 4.40063e-14 -4.05426e-14 -8.92769e-14 1.06941e-14 -1.41053e-13 1.11075e-13 1.75106e-13 3.40913e-14 5.30129e-14 -9.81477e-14 1.51969e-13 -4.30278e-14 1.73277e-13 1.39118e-13 5.60623e-14 9.36273e-14 -1.07152e-14 4.65022e-14 -9.56754e-14 0 0 -5.42493e-15 -6.91663e-15 -1.00552e-14 -7.63403e-15 -2.40989e-15 -1.06314e-14 -3.18464e-15 7.33051e-15 -7.33765e-15 -1.387e-14 -4.83062e-15 -6.87115e-15 -1.20484e-14 -7.77573e-15 2.95259e-15 -1.59973e-14 -1.92838e-14 7.20901e-15 -3.4528e-14 -1.60605e-14 -2.02657e-14 -2.26324e-14 -5.0098e-14 -5.41048e-14 -1.41414e-14 -3.42286e-14 -1.77856e-14 3.25314e-15 -2.44895e-14 -1.51081e-14 -1.4075e-14 4.64642e-15 -1.02703e-14 4.64819e-14 1.27887e-14 1.53409e-14 2.48061e-15 -2.74745e-14 1.94458e-14 -4.86577e-15 -1.65304e-14 -4.81086e-14 -3.78826e-14 -1.70145e-14 1.20354e-14 6.32578e-15 3.70802e-14 -7.85128e-15 -1.24129e-13 -5.79128e-14 -1.31392e-14 -7.47994e-14 -7.86582e-14 -4.17799e-14 -7.47602e-14 4.85785e-14 -1.73841e-15 1.81469e-15 -5.8088e-14 2.40731e-14 8.33527e-14 -6.63328e-14 7.12153e-15 -4.82492e-14 -4.68393e-14 1.18253e-14 -5.88187e-15 1.19741e-13 1.09659e-12 1.14329e-11 1.22058e-10 1.20859e-09 1.09205e-08 8.95866e-08 6.63135e-07 4.39745e-06 2.58999e-05 0.000134064 0.000601967 0.00230804 0.00742833 0.0197953 0.0435861 0.0805866 0.129206 0.186504 0.250335 0.319795 0.394788 0.47562 0.562768 0.656626 0.75685 0.860034 0.950618 0.974654 0.949077 0.933764 0.928021 0.927527 0.927307 0.927055 0.926796 0.926579 0.926352 0.926186 0.925932 0.925785 0.92538 0.925244 0.924489 0.924415 0.922837 0.922872 0.919121 0.919406 0.90951 0.910571 0.885182 0.888568 0.833069 0.838518 0.737979 0.703637 0.573868 0.467437 0.333071 0.213102 0.116084 0.0534199 0.0212064 0.00764154 0.00260688 0.000860215 0.000276815 8.70867e-05 2.67968e-05 8.06271e-06 2.37114e-06 6.8123e-07 1.91106e-07 5.23223e-08 1.39747e-08 3.63964e-09 9.24146e-10 2.28522e-10 5.47766e-11 1.2832e-11 2.58271e-12 4.4454e-13 5.07538e-14 1.13829e-14 -5.71457e-14 -1.37105e-13 -1.11673e-13 -1.3776e-14 1.15648e-13 -2.33776e-13 7.30987e-14 5.086e-14 4.21368e-14 1.02406e-13 -8.6773e-14 -1.17284e-13 -1.70222e-13 6.79558e-15 -3.30667e-13 2.05338e-13 -9.05463e-14 3.26277e-14 -4.51535e-14 2.39498e-13 2.49643e-14 9.9266e-15 1.28045e-13 -5.89106e-14 -3.2662e-13 -5.94028e-14 1.47715e-14 2.70378e-13 9.65091e-14 -1.07243e-13 6.74872e-14 -2.00683e-13 -1.44408e-13 1.61748e-13 2.51706e-13 -9.19981e-14 1.78771e-13 -1.52714e-13 1.19415e-13 -8.91532e-15 2.2686e-13 3.94886e-14 -2.49192e-14 1.66408e-13 2.55285e-13 -3.38925e-14 3.83822e-14 0
				</DataArray>
				<DataArray Name="VitesseY" type="Float32" format="ascii">