<?xml version="1.0"?>
<VTKFile type="PolyData">
	<PolyData>
		<Piece NumberOfPoints="1206" NumberOfPolys="1000">
			<Points>
				<DataArray type="Float32" NumberOfComponents="3" format="ascii">
 0 0 0 0.005 0 0 0.01 0 0 0.015 0 0 0.02 0 0 0.025 0 0 0.03 0 0 0.035 0 0 0.04 0 0 0.045 0 0 0.05 0 0 0.055 0 0 0.06 0 0 0.065 0 0 0.07 0 0 0.075 0 0 0.08 0 0 0.085 0 0 0.09 0 0 0.095 0 0 0.1 0 0 0.105 0 0 0.11 0 0 0.115 0 0 0.12 0 0 0.125 0 0 0.13 0 0 0.135 0 0 0.14 0 0 0.145 0 0 0.15 0 0 0.155 0 0 0.16 0 0 0.165 0 0 0.17 0 0 0.175 0 0 0.18 0 0 0.185 0 0 0.19 0 0 0.195 0 0 0.2 0 0 0.205 0 0 0.21 0 0 0.215 0 0 0.22 0 0 0.225 0 0 0.23 0 0 0.235 0 0 0.24 0 0 0.245 0 0 0.25 0 0 0.255 0 0 0.26 0 0 0.265 0 0 0.27 0 0 0.275 0 0 0.28 0 0 0.285 0 0 0.29 0 0 0.295 0 0 0.3 0 0 0.305 0 0 0.31 0 0 0.315 0 0 0.32 0 0 0.325 0 0 0.33 0 0 0.335 0 0 0.34 0 0 0.345 0 0 0.35 0 0 0.355 0 0 0.36 0 0 0.365 0 0 0.37 0 0 0.375 0 0 0.38 0 0 0.385 0 0 0.39 0 0 0.395 0 0 0.4 0 0 0.405 0 0 0.41 0 0 0.415 0 0 0.420001 0 0 0.425005 0 0 0.430024 0 0 0.435086 0 0 0.440257 0 0 0.445631 0 0 0.451316 0 0 0.457419 0 0 0.464049 0 0 0.471336 0 0 0.479444 0 0 0.488594 0 0 0.49905 0 0 0.510943 0 0 0.523421 0 0 0.535504 0 0 0.547365 0 0 0.549979 0 0 0.55252 0 0 0.555015 0 0 0.557482 0 0 0.559929 0 0 0.562363 0 0 0.564789 0 0 0.567213 0 0 0.569639 0 0 0.572078 0 0 0.574532 0 0 0.577019 0 0 0.579536 0 0 0.582124 0 0 0.584775 0 0 0.587576 0 0 0.590542 0 0 0.593795 0 0 0.597371 0 0 0.601327 0 0 0.605647 0 0 0.61027 0 0 0.615098 0 0 0.620032 0 0 0.62501 0 0 0.630003 0 0 0.635001 0 0 0.64 0 0 0.645 0 0 0.65 0 0 0.655 0 0 0.66 0 0 0.665 0 0 0.67 0 0 0.675 0 0 0.68 0 0 0.685 0 0 0.69 0 0 0.695 0 0 0.7 0 0 0.705 0 0 0.71 0 0 0.715 0 0 0.72 0 0 0.725 0 0 0.73 0 0 0.735 0 0 0.74 0 0 0.745 0 0 0.75 0 0 0.755 0 0 0.76 0 0 0.765 0 0 0.77 0 0 0.775 0 0 0.78 0 0 0.785 0 0 0.79 0 0 0.795 0 0 0.8 0 0 0.805 0 0 0.81 0 0 0.815 0 0 0.82 0 0 0.825 0 0 0.83 0 0 0.835 0 0 0.84 0 0 0.845 0 0 0.85 0 0 0.855 0 0 0.86 0 0 0.865 0 0 0.87 0 0 0.875 0 0 0.88 0 0 0.885 0 0 0.89 0 0 0.895 0 0 0.9 0 0 0.905 0 0 0.91 0 0 0.915 0 0 0.92 0 0 0.925 0 0 0.93 0 0 0.935 0 0 0.94 0 0 0.945 0 0 0.95 0 0 0.955 0 0 0.96 0 0 0.965 0 0 0.97 0 0 0.975 0 0 0.98 0 0 0.985 0 0 0.99 0 0 0.995 0 0 1 0 0 0 0.02 0 0.005 0.02 0 0.01 0.02 0 0.015 0.02 0 0.02 0.02 0 0.025 0.02 0 0.03 0.02 0 0.035 0.02 0 0.04 0.02 0 0.045 0.02 0 0.05 0.02 0 0.055 0.02 0 0.06 0.02 0 0.065 0.02 0 0.07 0.02 0 0.075 0.02 0 0.08 0.02 0 0.085 0.02 0 0.09 0.02 0 0.095 0.02 0 0.1 0.02 0 0.105 0.02 0 0.11 0.02 0 0.115 0.02 0 0.12 0.02 0 0.125 0.02 0 0.13 0.02 0 0.135 0.02 0 0.14 0.02 0 0.145 0.02 0 0.15 0.02 0 0.155 0.02 0 0.16 0.02 0 0.165 0.02 0 0.17 0.02 0 0.175 0.02 0 0.18 0.02 0 0.185 0.02 0 0.19 0.02 0 0.195 0.02 0 0.2 0.02 0 0.205 0.02 0 0.21 0.02 0 0.215 0.02 0 0.22 0.02 0 0.225 0.02 0 0.23 0.02 0 0.235 0.02 0 0.24 0.02 0 0.245 0.02 0 0.25 0.02 0 0.255 0.02 0 0.26 0.02 0 0.265 0.02 0 0.27 0.02 0 0.275 0.02 0 0.28 0.02 0 0.285 0.02 0 0.29 0.02 0 0.295 0.02 0 0.3 0.02 0 0.305 0.02 0 0.31 0.02 0 0.315 0.02 0 0.32 0.02 0 0.325 0.02 0 0.33 0.02 0 0.335 0.02 0 0.34 0.02 0 0.345 0.02 0 0.35 0.02 0 0.355 0.02 0 0.36 0.02 0 0.365 0.02 0 0.37 0.02 0 0.375 0.02 0 0.38 0.02 0 0.385 0.02 0 0.39 0.02 0 0.395 0.02 0 0.4 0.02 0 0.405 0.02 0 0.41 0.02 0 0.415 0.02 0 0.420001 0.02 0 0.425005 0.02 0 0.430024 0.02 0 0.435086 0.02 0 0.440257 0.02 0 0.445631 0.02 0 0.451316 0.02 0 0.457419 0.02 0 0.464049 0.02 0 0.471336 0.02 0 0.479444 0.02 0 0.488594 0.02 0 0.49905 0.02 0 0.510943 0.02 0 0.523421 0.02 0 0.535504 0.02 0 0.547365 0.02 0 0.549979 0.02 0 0.55252 0.02 0 0.555015 0.02 0 0.557482 0.02 0 0.559929 0.02 0 0.562363 0.02 0 0.564789 0.02 0 0.567213 0.02 0 0.569639 0.02 0 0.572078 0.02 0 0.574532 0.02 0 0.577019 0.02 0 0.579536 0.02 0 0.582124 0.02 0 0.584775 0.02 0 0.587576 0.02 0 0.590542 0.02 0 0.593795 0.02 0 0.597371 0.02 0 0.601327 0.02 0 0.605647 0.02 0 0.61027 0.02 0 0.615098 0.02 0 0.620032 0.02 0 0.62501 0.02 0 0.630003 0.02 0 0.635001 0.02 0 0.64 0.02 0 0.645 0.02 0 0.65 0.02 0 0.655 0.02 0 0.66 0.02 0 0.665 0.02 0 0.67 0.02 0 0.675 0.02 0 0.68 0.02 0 0.685 0.02 0 0.69 0.02 0 0.695 0.02 0 0.7 0.02 0 0.705 0.02 0 0.71 0.02 0 0.715 0.02 0 0.72 0.02 0 0.725 0.02 0 0.73 0.02 0 0.735 0.02 0 0.74 0.02 0 0.745 0.02 0 0.75 0.02 0 0.755 0.02 0 0.76 0.02 0 0.765 0.02 0 0.77 0.02 0 0.775 0.02 0 0.78 0.02 0 0.785 0.02 0 0.79 0.02 0 0.795 0.02 0 0.8 0.02 0 0.805 0.02 0 0.81 0.02 0 0.815 0.02 0 0.82 0.02 0 0.825 0.02 0 0.83 0.02 0 0.835 0.02 0 0.84 0.02 0 0.845 0.02 0 0.85 0.02 0 0.855 0.02 0 0.86 0.02 0 0.865 0.02 0 0.87 0.02 0 0.875 0.02 0 0.88 0.02 0 0.885 0.02 0 0.89 0.02 0 0.895 0.02 0 0.9 0.02 0 0.905 0.02 0 0.91 0.02 0 0.915 0.02 0 0.92 0.02 0 0.925 0.02 0 0.93 0.02 0 0.935 0.02 0 0.94 0.02 0 0.945 0.02 0 0.95 0.02 0 0.955 0.02 0 0.96 0.02 0 0.965 0.02 0 0.97 0.02 0 0.975 0.02 0 0.98 0.02 0 0.985 0.02 0 0.99 0.02 0 0.995 0.02 0 1 0.02 0 0 0.04 0 0.005 0.04 0 0.01 0.04 0 0.015 0.04 0 0.02 0.04 0 0.025 0.04 0 0.03 0.04 0 0.035 0.04 0 0.04 0.04 0 0.045 0.04 0 0.05 0.04 0 0.055 0.04 0 0.06 0.04 0 0.065 0.04 0 0.07 0.04 0 0.075 0.04 0 0.08 0.04 0 0.085 0.04 0 0.09 0.04 0 0.095 0.04 0 0.1 0.04 0 0.105 0.04 0 0.11 0.04 0 0.115 0.04 0 0.12 0.04 0 0.125 0.04 0 0.13 0.04 0 0.135 0.04 0 0.14 0.04 0 0.145 0.04 0 0.15 0.04 0 0.155 0.04 0 0.16 0.04 0 0.165 0.04 0 0.17 0.04 0 0.175 0.04 0 0.18 0.04 0 0.185 0.04 0 0.19 0.04 0 0.195 0.04 0 0.2 0.04 0 0.205 0.04 0 0.21 0.04 0 0.215 0.04 0 0.22 0.04 0 0.225 0.04 0 0.23 0.04 0 0.235 0.04 0 0.24 0.04 0 0.245 0.04 0 0.25 0.04 0 0.255 0.04 0 0.26 0.04 0 0.265 0.04 0 0.27 0.04 0 0.275 0.04 0 0.28 0.04 0 0.285 0.04 0 0.29 0.04 0 0.295 0.04 0 0.3 0.04 0 0.305 0.04 0 0.31 0.04 0 0.315 0.04 0 0.32 0.04 0 0.325 0.04 0 0.33 0.04 0 0.335 0.04 0 0.34 0.04 0 0.345 0.04 0 0.35 0.04 0 0.355 0.04 0 0.36 0.04 0 0.365 0.04 0 0.37 0.04 0 0.375 0.04 0 0.38 0.04 0 0.385 0.04 0 0.39 0.04 0 0.395 0.04 0 0.4 0.04 0 0.405 0.04 0 0.41 0.04 0 0.415 0.04 0 0.420001 0.04 0 0.425005 0.04 0 0.430024 0.04 0 0.435086 0.04 0 0.440257 0.04 0 0.445631 0.04 0 0.451316 0.04 0 0.457419 0.04 0 0.464049 0.04 0 0.471336 0.04 0 0.479444 0.04 0 0.488594 0.04 0 0.49905 0.04 0 0.510943 0.04 0 0.523421 0.04 0 0.535504 0.04 0 0.547365 0.04 0 0.549979 0.04 0 0.55252 0.04 0 0.555015 0.04 0 0.557482 0.04 0 0.559929 0.04 0 0.562363 0.04 0 0.564789 0.04 0 0.567213 0.04 0 0.569639 0.04 0 0.572078 0.04 0 0.574532 0.04 0 0.577019 0.04 0 0.579536 0.04 0 0.582124 0.04 0 0.584775 0.04 0 0.587576 0.04 0 0.590542 0.04 0 0.593795 0.04 0 0.597371 0.04 0 0.601327 0.04 0 0.605647 0.04 0 0.61027 0.04 0 0.615098 0.04 0 0.620032 0.04 0 0.62501 0.04 0 0.630003 0.04 0 0.635001 0.04 0 0.64 0.04 0 0.645 0.04 0 0.65 0.04 0 0.655 0.04 0 0.66 0.04 0 0.665 0.04 0 0.67 0.04 0 0.675 0.04 0 0.68 0.04 0 0.685 0.04 0 0.69 0.04 0 0.695 0.04 0 0.7 0.04 0 0.705 0.04 0 0.71 0.04 0 0.715 0.04 0 0.72 0.04 0 0.725 0.04 0 0.73 0.04 0 0.735 0.04 0 0.74 0.04 0 0.745 0.04 0 0.75 0.04 0 0.755 0.04 0 0.76 0.04 0 0.765 0.04 0 0.77 0.04 0 0.775 0.04 0 0.78 0.04 0 0.785 0.04 0 0.79 0.04 0 0.795 0.04 0 0.8 0.04 0 0.805 0.04 0 0.81 0.04 0 0.815 0.04 0 0.82 0.04 0 0.825 0.04 0 0.83 0.04 0 0.835 0.04 0 0.84 0.04 0 0.845 0.04 0 0.85 0.04 0 0.855 0.04 0 0.86 0.04 0 0.865 0.04 0 0.87 0.04 0 0.875 0.04 0 0.88 0.04 0 0.885 0.04 0 0.89 0.04 0 0.895 0.04 0 0.9 0.04 0 0.905 0.04 0 0.91 0.04 0 0.915 0.04 0 0.92 0.04 0 0.925 0.04 0 0.93 0.04 0 0.935 0.04 0 0.94 0.04 0 0.945 0.04 0 0.95 0.04 0 0.955 0.04 0 0.96 0.04 0 0.965 0.04 0 0.97 0.04 0 0.975 0.04 0 0.98 0.04 0 0.985 0.04 0 0.99 0.04 0 0.995 0.04 0 1 0.04 0 0 0.06 0 0.005 0.06 0 0.01 0.06 0 0.015 0.06 0 0.02 0.06 0 0.025 0.06 0 0.03 0.06 0 0.035 0.06 0 0.04 0.06 0 0.045 0.06 0 0.05 0.06 0 0.055 0.06 0 0.06 0.06 0 0.065 0.06 0 0.07 0.06 0 0.075 0.06 0 0.08 0.06 0 0.085 0.06 0 0.09 0.06 0 0.095 0.06 0 0.1 0.06 0 0.105 0.06 0 0.11 0.06 0 0.115 0.06 0 0.12 0.06 0 0.125 0.06 0 0.13 0.06 0 0.135 0.06 0 0.14 0.06 0 0.145 0.06 0 0.15 0.06 0 0.155 0.06 0 0.16 0.06 0 0.165 0.06 0 0.17 0.06 0 0.175 0.06 0 0.18 0.06 0 0.185 0.06 0 0.19 0.06 0 0.195 0.06 0 0.2 0.06 0 0.205 0.06 0 0.21 0.06 0 0.215 0.06 0 0.22 0.06 0 0.225 0.06 0 0.23 0.06 0 0.235 0.06 0 0.24 0.06 0 0.245 0.06 0 0.25 0.06 0 0.255 0.06 0 0.26 0.06 0 0.265 0.06 0 0.27 0.06 0 0.275 0.06 0 0.28 0.06 0 0.285 0.06 0 0.29 0.06 0 0.295 0.06 0 0.3 0.06 0 0.305 0.06 0 0.31 0.06 0 0.315 0.06 0 0.32 0.06 0 0.325 0.06 0 0.33 0.06 0 0.335 0.06 0 0.34 0.06 0 0.345 0.06 0 0.35 0.06 0 0.355 0.06 0 0.36 0.06 0 0.365 0.06 0 0.37 0.06 0 0.375 0.06 0 0.38 0.06 0 0.385 0.06 0 0.39 0.06 0 0.395 0.06 0 0.4 0.06 0 0.405 0.06 0 0.41 0.06 0 0.415 0.06 0 0.420001 0.06 0 0.425005 0.06 0 0.430024 0.06 0 0.435086 0.06 0 0.440257 0.06 0 0.445631 0.06 0 0.451316 0.06 0 0.457419 0.06 0 0.464049 0.06 0 0.471336 0.06 0 0.479444 0.06 0 0.488594 0.06 0 0.49905 0.06 0 0.510943 0.06 0 0.523421 0.06 0 0.535504 0.06 0 0.547365 0.06 0 0.549979 0.06 0 0.55252 0.06 0 0.555015 0.06 0 0.557482 0.06 0 0.559929 0.06 0 0.562363 0.06 0 0.564789 0.06 0 0.567213 0.06 0 0.569639 0.06 0 0.572078 0.06 0 0.574532 0.06 0 0.577019 0.06 0 0.579536 0.06 0 0.582124 0.06 0 0.584775 0.06 0 0.587576 0.06 0 0.590542 0.06 0 0.593795 0.06 0 0.597371 0.06 0 0.601327 0.06 0 0.605647 0.06 0 0.61027 0.06 0 0.615098 0.06 0 0.620032 0.06 0 0.62501 0.06 0 0.630003 0.06 0 0.635001 0.06 0 0.64 0.06 0 0.645 0.06 0 0.65 0.06 0 0.655 0.06 0 0.66 0.06 0 0.665 0.06 0 0.67 0.06 0 0.675 0.06 0 0.68 0.06 0 0.685 0.06 0 0.69 0.06 0 0.695 0.06 0 0.7 0.06 0 0.705 0.06 0 0.71 0.06 0 0.715 0.06 0 0.72 0.06 0 0.725 0.06 0 0.73 0.06 0 0.735 0.06 0 0.74 0.06 0 0.745 0.06 0 0.75 0.06 0 0.755 0.06 0 0.76 0.06 0 0.765 0.06 0 0.77 0.06 0 0.775 0.06 0 0.78 0.06 0 0.785 0.06 0 0.79 0.06 0 0.795 0.06 0 0.8 0.06 0 0.805 0.06 0 0.81 0.06 0 0.815 0.06 0 0.82 0.06 0 0.825 0.06 0 0.83 0.06 0 0.835 0.06 0 0.84 0.06 0 0.845 0.06 0 0.85 0.06 0 0.855 0.06 0 0.86 0.06 0 0.865 0.06 0 0.87 0.06 0 0.875 0.06 0 0.88 0.06 0 0.885 0.06 0 0.89 0.06 0 0.895 0.06 0 0.9 0.06 0 0.905 0.06 0 0.91 0.06 0 0.915 0.06 0 0.92 0.06 0 0.925 0.0
[...]
			<PointData Scalars="VitesseX">
				<DataArray Name="VitesseX" type="Float32" format="ascii">
 0 3.85634e-16 -8.60686e-16 1.92694e-15 2.51454e-15 -1.63832e-15 -4.51687e-15 -2.44759e-15 -2.8885e-15 7.97294e-16 -3.46498e-15 -2.79517e-15 5.80713e-15 -1.23038e-14 8.20805e-15 -9.07474e-15 -8.88914e-15 4.64451e-16 -8.29975e-15 4.09346e-15 -8.39117e-15 -6.56237e-15 -2.29123e-15 -1.12732e-14 -1.1037e-15 -7.5917e-15 -2.31354e-14 -1.91411e-14 7.1843e-15 -1.97936e-14 -2.11312e-14 3.38556e-15 -7.94458e-16 -8.20936e-15 -4.84672e-15 -9.88933e-15 -3.042e-14 -1.3906e-14 -1.51656e-14 1.11682e-14 -1.59544e-14 -1.24015e-14 2.31144e-14 1.1663e-14 -2.34521e-14 2.31231e-14 -9.12407e-15 2.14903e-14 1.64742e-14 -2.97223e-15 -2.20686e-14 -5.13318e-14 -1.40438e-14 2.12084e-14 -4.54664e-14 -2.07583e-14 1.07362e-14 -5.35993e-14 4.65619e-14 -5.30345e-14 1.57356e-14 -3.43225e-14 7.32734e-15 2.57832e-15 -4.51493e-14 1.64704e-14 1.09646e-14 -3.50908e-14 2.00534e-14 -3.88024e-14 -3.09203e-14 3.77337e-14 -2.03092e-14 -3.54709e-14 2.4566e-14 3.57093e-13 6.44912e-12 9.17615e-11 1.19037e-09 1.38279e-08 1.42716e-07 1.29751e-06 1.02843e-05 7.0162e-05 0.0004054 0.00194396 0.00755495 0.0232998 0.0567042 0.111303 0.184464 0.271706 0.370569 0.48076 0.602948 0.736988 0.87609 0.980542 0.959993 0.936907 0.925464 0.924785 0.924396 0.924046 0.924008 0.923435 0.923455 0.921696 0.921715 0.916717 0.917154 0.902435 0.904164 0.864475 0.869914 0.787868 0.781466 0.652719 0.574499 0.429598 0.300094 0.177429 0.0878085 0.0357435 0.0125072 0.00399499 0.00121081 0.00035364 9.99583e-05 2.7351e-05 7.23943e-06 1.85212e-06 4.57731e-07 1.09237e-07 2.51692e-08 5.59843e-09 1.2023e-09 2.49222e-10 4.98759e-11 9.61311e-12 1.78639e-12 2.55967e-13 2.68997e-14 4.15151e-14 -8.83863e-14 8.17405e-14 -1.93018e-14 6.98518e-14 9.04026e-15 -7.08143e-14 2.97974e-14 -1.08409e-13 6.99906e-14 -9.70907e-14 -7.99414e-14 -5.64142e-14 -2.912e-14 -6.22579e-14 -9.05675e-14 -6.55545e-14 1.1578e-13 -3.59473e-14 1.87701e-15 -9.15204e-14 -1.11687e-14 -8.39839e-15 1.4621e-14 1.37878e-14 6.86779e-14 -3.0297e-14 6.35835e-15 -2.64321e-15 8.91236e-15 -6.33361e-14 1.16444e-13 -8.17871e-14 8.69247e-14 4.50868e-14 -3.86721e-14 -5.72576e-14 7.07582e-14 6.73019e-14 -1.04137e-14 -5.30831e-14 -1.20796e-14 -7.06999e-14 -6.54076e-14 1.39583e-13 -1.52187e-14 -5.93215e-14 1.14236e-14 1.22684e-13 -3.73423e-14 9.58946e-14 9.1796e-14 -3.40623e-14 1.10391e-13 5.98389e-14 5.84876e-14 8.0401e-14 0 0 4.42394e-16 -1.00808e-15 -1.48231e-15 2.73799e-15 -1.59501e-15 -2.53072e-15 -4.475e-15 1.82866e-15 -2.77631e-15 1.33418e-15 -5.77678e-15 -7.0488e-15 1.82326e-16 -4.40599e-15 -8.61287e-15 -2.07926e-15 -8.32257e-15 -6.55535e-15 -1.65842e-15 -1.72584e-15 -5.32948e-17 -1.19696e-14 -8.45501e-15 -1.49619e-14 -3.46634e-15 -9.85359e-15 -1.4461e-14 -1.46283e-14 5.42666e-16 -1.58493e-14 -1.68498e-14 2.37619e-14 -2.96931e-14 -1.67272e-14 -7.84934e-15 -1.40299e-14 -2.07613e-14 -1.81718e-14 -2.24411e-15 -2.68168e-15 -3.04393e-15 1.9345e-14 -5.64427e-15 -4.68501e-15 -1.26291e-14 1.73307e-14 1.84791e-14 6.56613e-15 8.20287e-15 -5.12969e-15 -4.20277e-14 -9.99527e-15 -7.27702e-15 -4.97979e-14 1.93965e-15 -5.14108e-15 -1.32782e-14 -2.77651e-14 1.09627e-15 -1.70579e-14 -1.97055e-14 -4.33648e-14 2.47097e-14 -1.37874e-14 3.72859e-14 -2.98075e-14 -6.41281e-15 -3.63385e-14 -1.47359e-14 -2.44821e-14 2.18911e-14 -3.44485e-14 -2.48127e-14 1.08163e-14 4.25377e-13 6.45762e-12 9.17354e-11 1.19037e-09 1.38279e-08 1.42717e-07 1.29751e-06 1.02843e-05 7.0162e-05 0.0004054 0.00194396 0.00755495 0.0232998 0.0567042 0.111303 0.184464 0.271706 0.370569 0.48076 0.602948 0.736988 0.87609 0.980542 0.959993 0.936907 0.925464 0.924785 0.924396 0.924046 0.924008 0.923435 0.923455 0.921696 0.921715 0.916717 0.917154 0.902435 0.904164 0.864475 0.869914 0.787868 0.781466 0.652719 0.574499 0.429598 0.300094 0.177429 0.0878085 0.0357435 0.0125072 0.00399499 0.00121081 0.00035364 9.99583e-05 2.7351e-05 7.23943e-06 1.85212e-06 4.57731e-07 1.09237e-07 2.51692e-08 5.59842e-09 1.2023e-09 2.49259e-10 4.98525e-11 9.58787e-12 1.76164e-12 3.30282e-13 -8.29785e-15 5.04418e-14 -2.9656e-14 -7.38887e-14 5.33227e-14 1.1695e-14 -8.68552e-15 8.94151e-15 -8.42498e-14 -2.64898e-14 -4.0299e-14 -6.70685e-15 -8.63701e-14 -8.56145e-14 3.01287e-14 -2.54128e-14 -8.39783e-14 -6.50124e-14 3.83119e-14 6.71157e-15 -3.21802e-14 -9.32849e-14 3.31552e-14 -1.01923e-13 4.27472e-14 -2.25018e-14 5.1383e-14 -3.93405e-14 5.74814e-14 -5.67079e-14 4.26914e-15 6.48041e-14 6.44498e-14 6.12766e-15 1.98173e-14 -6.83497e-15 -1.80653e-14 -8.1088e-14 6.15731e-14 4.9469e-14 -2.50046e-14 5.15857e-14 -7.67697e-14 3.63513e-15 -6.81465e-14 7.28209e-14 -1.65359e-14 -4.51512e-15 7.53765e-14 -2.35531e-14 7.91195e-14 5.7496e-14 8.21482e-14 9.48718e-14 3.34149e-14 3.6182e-14 1.43547e-14 5.99919e-14 0 0 -4.71603e-16 -8.68325e-16 -1.35837e-15 -1.74168e-16 -8.9774e-16 -2.08471e-15 -5.18757e-15 -6.50302e-16 -4.40918e-15 1.57075e-15 -8.04026e-15 -9.40126e-15 -6.35998e-15 -1.22561e-14 -1.73487e-15 -5.9529e-15 -8.4916e-15 -9.74322e-15 8.22736e-16 -4.08903e-15 -9.67827e-15 -9.64035e-15 -1.37533e-14 -1.22052e-14 -7.59325e-15 -1.28014e-14 1.35608e-14 -2.86019e-14 -1.09785e-14 5.48264e-15 -2.36759e-14 -1.35877e-14 -2.27956e-14 -2.5289e-14 -2.6152e-15 -2.00334e-14 -2.23668e-14 1.08031e-14 -2.04849e-14 8.98491e-15 -6.81689e-15 1.09954e-16 -1.11943e-14 9.39387e-15 -1.74873e-14 1.13002e-14 -5.84342e-15 1.02105e-14 6.99314e-15 1.9134e-14 -3.60284e-14 2.55891e-14 -1.70039e-14 6.33201e-15 -2.79233e-14 -4.50057e-14 -1.14686e-14 -6.33596e-14 -1.07997e-16 -2.66474e-14 -2.49679e-14 -2.33397e-14 1.22022e-14 1.94898e-14 -1.5035e-14 -5.90742e-14 1.6172e-14 -4.65733e-14 1.71046e-15 2.35702e-14 -2.91463e-14 -5.02116e-14 -2.4507e-14 4.5502e-14 4.8583e-13 6.46113e-12 9.17582e-11 1.19036e-09 1.38279e-08 1.42717e-07 1.29751e-06 1.02843e-05 7.0162e-05 0.0004054 0.00194396 0.00755495 0.0232998 0.0567042 0.111303 0.184464 0.271706 0.370569 0.48076 0.602948 0.736988 0.87609 0.980542 0.959993 0.936907 0.925464 0.924785 0.924396 0.924046 0.924008 0.923435 0.923455 0.921696 0.921715 0.916717 0.917154 0.902435 0.904164 0.864475 0.869914 0.787868 0.781466 0.652719 0.574499 0.429598 0.300094 0.177429 0.0878085 0.0357435 0.0125072 0.00399499 0.00121081 0.00035364 9.99583e-05 2.7351e-05 7.23943e-06 1.85212e-06 4.57731e-07 1.09237e-07 2.51693e-08 5.59839e-09 1.20226e-09 2.49189e-10 4.98646e-11 9.59088e-12 1.79975e-12 2.29038e-13 1.04459e-13 -3.39681e-14 5.16566e-14 -1.38537e-13 -3.68847e-14 -1.50583e-14 3.69254e-14 -9.10444e-14 -1.10926e-14 -2.88845e-14 -6.35616e-14 -1.01337e-13 -8.66446e-15 -7.9652e-14 5.2012e-14 5.99793e-14 -5.57735e-14 -3.17348e-14 -1.96773e-14 -3.97839e-14 -7.83614e-14 6.69115e-14 -1.35782e-13 1.70475e-14 -7.40069e-14 -5.47167e-14 4.59146e-14 -2.64077e-14 -5.09833e-14 7.50955e-14 -2.4232e-14 1.23364e-13 1.0781e-13 3.1442e-14 1.52952e-14 -8.52013e-14 -1.42967e-14 -1.12307e-13 -6.63023e-14 8.09749e-14 1.27355e-14 6.72475e-14 -8.39059e-14 9.62529e-14 4.21442e-14 -1.71086e-13 4.80168e-14 6.24815e-14 4.54318e-14 5.78591e-14 2.54529e-14 8.47657e-14 8.69015e-14 1.2829e-13 -2.89824e-14 -3.38675e-14 6.66993e-14 3.74528e-14 0 0 1.43999e-16 -1.17089e-15 1.28191e-15 -3.18169e-15 2.3796e-15 -6.56598e-15 1.41029e-15 -1.12208e-14 -7.92878e-15 -1.68709e-15 -1.08575e-14 -1.28391e-14 -4.74849e-15 -1.30326e-14 7.48964e-15 -3.89533e-15 -1.21028e-15 -1.83983e-14 -7.25652e-15 -2.90673e-15 -9.00049e-15 -1.52728e-14 -1.77285e-14 -9.04664e-15 -1.10332e-14 1.2751e-15 -5.25454e-15 -1.96636e-14 -3.7654e-14 2.55581e-15 -2.88442e-14 -3.95797e-14 -1.26058e-14 -1.08575e-14 3.69908e-15 -3.44703e-14 -6.506e-15 1.73198e-14 -1.3373e-14 -2.25956e-15 2.64263e-14 4.75116e-15 -1.12685e-14 -1.46313e-14 9.66288e-15 -1.54926e-14 -3.0936e-14 1.33995e-14 1.01073e-14 -2.60584e-14 -3.85242e-14 3.9722e-14 1.62379e-14 4.41175e-14 -4.32661e-14 -5.13032e-14 -4.39298e-14 -5.54187e-14 -5.43495e-14 -2.91194e-14 -6.45604e-15 9.14433e-15 -3.86774e-14 -6.96086e-14 1.62474e-15 -1.14452e-14 -5.95724e-14 2.03857e-14 3.05886e-14 2.05829e-14 -1.06956e-13 -1.7173e-14 -2.33221e-14 9.05094e-14 5.36204e-13 6.4527e-12 9.18111e-11 1.19039e-09 1.38278e-08 1.42717e-07 1.29751e-06 1.02843e-05 7.0162e-05 0.0004054 0.00194396 0.00755495 0.0232998 0.0567042 0.111303 0.184464 0.271706 0.370569 0.48076 0.602948 0.736988 0.87609 0.980542 0.959993 0.936907 0.925464 0.924785 0.924396 0.924046 0.924008 0.923435 0.923455 0.921696 0.921715 0.916717 0.917154 0.902435 0.904164 0.864475 0.869914 0.787868 0.781466 0.652719 0.574499 0.429598 0.300094 0.177429 0.0878085 0.0357435 0.0125072 0.00399499 0.00121081 0.00035364 9.99583e-05 2.7351e-05 7.23943e-06 1.85212e-06 4.57731e-07 1.09237e-07 2.51692e-08 5.59847e-09 1.20226e-09 2.49129e-10 4.97671e-11 9.59566e-12 1.74789e-12 1.43872e-13 1.25355e-13 -1.00286e-13 -6.63529e-16 3.66013e-14 -9.32855e-15 -4.47165e-14 -1.15298e-13 8.47802e-15 -3.38919e-14 -2.50364e-14 -1.92742e-14 -2.12802e-13 1.33835e-14 -5.16312e-14 -2.74792e-14 8.08907e-14 -4.32705e-14 -3.82622e-14 -6.60124e-14 4.13696e-14 -4.94667e-14 -6.84719e-15 -4.1427e-14 8.48246e-14 -2.21087e-13 2.13281e-14 1.8223e-14 6.97203e-14 -1.21051e-13 1.10378e-13 4.85042e-14 7.75929e-15 9.33626e-14 1.8514e-14 -1.02796e-13 -3.76108e-14 2.887e-14 -1.04876e-13 -1.04544e-14 2.06628e-14 1.15278e-13 -1.00149e-13 9.13314e-16 3.65829e-14 1.54019e-13 -1.05674e-13 7.31528e-14 1.16375e-14 8.66501e-14 1.44553e-13 -6.44374e-14 7.00274e-14 -2.9337e-15 1.36523e-14 -3.02837e-14 7.75502e-14 1.52937e-13 4.26169e-14 0 0 -1.04441e-15 -7.26194e-16 -5.7048e-16 -1.18687e-15 3.77332e-15 -6.41264e-15 -9.59736e-15 -8.12275e-15 -1.49106e-14 -5.84055e-15 -5.80148e-15 -1.86243e-14 -2.98929e-15 -1.20106e-14 1.07573e-14 9.68986e-15 -1.42973e-14 -5.89346e-15 -2.1749e-14 -1.76042e-17 8.20755e-15 -2.67157e-14 -1.28433e-14 -1.41538e-14 6.36408e-15 7.9004e-15 -1.77589e-14 -4.51296e-14 -1.60786e-14 -3.12479e-14 -3.60174e-14 -2.26244e-14 -1.85582e-14 -8.9193e-15 -1.67637e-14 -3.12305e-15 -3.56792e-14 -1.24762e-14 -8.79359e-15 5.27326e-14 5.96349e-14 1.94689e-14 -6.22408e-15 -2.39196e-14 -4.56645e-15 -1.06069e-14 -1.75696e-14 1.96147e-15 -5.51945e-15 -6.56375e-14 -1.88125e-15 1.89221e-14 2.55059e-14 -1.69749e-15 2.25824e-14 -4.17301e-14 -6.57404e-14 -8.1387e-14 -1.85797e-14 -5.11224e-14 -5.21665e-14 -4.74281e-14 1.4519e-14 -9.41736e-14 -2.16676e-15 1.38178e-14 -7.71508e-14 1.23263e-14 5.47877e-14 -9.17535e-15 -6.09473e-14 -7.39243e-14 -6.264e-15 4.33307e-14 5.42337e-13 6.49705e-12 9.18304e-11 1.19044e-09 1.38278e-08 1.42717e-07 1.29751e-06 1.02843e-05 7.0162e-05 0.0004054 0.00194396 0.00755495 0.0232998 0.0567042 0.111303 0.184464 0.271706 0.370569 0.48076 0.602948 0.736988 0.87609 0.980542 0.959993 0.936907 0.925464 0.924785 0.924396 0.924046 0.924008 0.923435 0.923455 0.921696 0.921715 0.916717 0.917154 0.902435 0.904164 0.864475 0.869914 0.787868 0.781466 0.652719 0.574499 0.429598 0.300094 0.177429 0.0878085 0.0357435 0.0125072 0.00399499 0.00121081 0.00035364 9.99583e-05 2.7351e-05 7.23943e-06 1.85212e-06 4.57731e-07 1.09237e-07 2.51692e-08 5.59855e-09 1.20221e-09 2.49204e-10 4.97361e-11 9.48347e-12 1.73401e-12 2.25158e-13 -9.95548e-14 -9.63279e-14 -1.75578e-13 7.40384e-14 6.33106e-14 -2.15264e-14 -1.221e-13 1.38279e-13 -4.0833e-14 -1.28116e-13 -1.45877e-14 1.92031e-14 -2.52421e-14 -8.80967e-14 -1.42591e-13 -7.0809e-15 -2.88453e-14 4.58534e-14 -2.04639e-13 7.99982e-14 1.85745e-14 -1.82925e-13 -2.03938e-15 -2.02447e-14 1.48867e-14 2.55438e-13 -5.60859e-14 -2.50853e-14 2.63909e-14 -6.36601e-14 9.19352e-14 -1.31205e-14 -9.15769e-14 -2.8619e-14 -8.92972e-14 8.73846e-15 5.96788e-14 -2.04332e-14 2.72288e-14 -8.82234e-14 1.56595e-13 2.41196e-14 2.21509e-14 3.53402e-15 7.26263e-14 5.19419e-14 3.09903e-14 1.00738e-14 8.33567e-14 1.68469e-13 1.30725e-14 6.06874e-14 -3.52733e-14 -2.04729e-14 -7.15817e-14 2.37851e-13 5.61831e-14 1.73916e-13 0 0 -3.81917e-15 3.08212e-16 -1.52996e-15 6.79884e-16 2.54365e-15 -3.31819e-15 -2.5888e-14 -1.65024e-15 -1.64322e-14 -1.12988e-14 2.78993e-15 -1.04682e-14 -2.18701e-14 -5.4482e-15 1.12166e-14 1.0534e-14 -2.60477e-14 1.03341e-14 -1.99291e-14 -7.3393e-15 8.60376e-15 -2.05185e-14 -1.20993e-14 -5.80468e-15 1.89491e-14 -1.57805e-14 1.18938e-14 -7.16948e-14 3.14902e-16 -4.60748e-14 -2.4613e-14 -4.1583e-14 -6.31909e-15 -1.8094e-14 -4.03466e-14 2.02674e-14 -7.54635e-14 -1.68079e-14 -1.61546e-14 1.17363e-13 4.64697e-14 1.408e-14 1.06518e-14 -1.38711e-14 -1.5052e-14 -1.14137e-14 -4.2205e-16 8.86799e-16 -3.66452e-14 -5.26994e-14 3.39526e-14 1.5525e-14 2.02907e-14 -2.48367e-14 5.12127e-14 -4.9847e-14 -9.36014e-14 -7.65636e-14 1.60965e-14 -4.74494e-14 -1.36268e-13 -6.57673e-14 8.3956e-14 -2.77252e-14 -9.57543e-14 2.95723e-15 -2.50781e-14 -1.65351e-14 4.24887e-14 5.66781e-15 2.76759e-14 -1.65338e-13 -7.43249e-16 -4.20071e-16 4.90266e-13 6.54486e-12 9.18457e-11 1.19045e-09 1.38279e-08 1.42717e-07 1.29751e-06 1.02843e-05 7.0162e-05 0.0004054 0.00194396 0.00755495 0.0232998 0.0567042 0.111303 0.184464 0.271706 0.370569 0.48076 0.602948 0.736988 0.87609 0.980542 0.959993 0.936907 0.925464 0.924785 0.924396 0.924046 0.924008 0.923435 0.923455 0.921696 0.921715 0.916717 0.917154 0.902435 0.904164 0.864475 0.869914 0.787868 0.781466 0.652719 0.574499 0.429598 0.300094 0.177429 0.0878085 0.0357435 0.0125072 0.00399499 0.00121081 0.00035364 9.99583e-05 2.7351e-05 7.23943e-06 1.85212e-06 4.57731e-07 1.09238e-07 2.51692e-08 5.59855e-09 1.20212e-09 2.49233e-10 4.98379e-11 9.3945e-12 1.83481e-12 2.16157e-13 -1.97609e-13 -1.19555e-13 -2.75506e-13 2.73476e-14 -5.4372e-14 6.26208e-14 8.64207e-14 -1.15304e-14 1.62004e-13 -3.19639e-13 3.22827e-14 1.77183e-13 -1.79299e-15 -1.17302e-13 -2.15429e-13 -6.73484e-14 -5.62799e-15 1.69152e-13 -2.77427e-13 -5.18886e-14 4.55524e-14 -1.2325e-13 -2.70415e-13 1.92354e-14 2.52877e-13 4.17362e-13 -9.1197e-14 -1.94313e-13 8.40451e-14 -8.71349e-14 3.91178e-14 1.18887e-14 -1.66931e-13 -1.25135e-13 1.05131e-13 -1.88389e-14 3.0829e-14 4.95194e-14 -1.09304e-13 -8.73117e-14 1.47704e-13 2.26566e-13 1.60722e-14 4.86919e-14 -7.53941e-15 -3.2869e-14 2.95815e-14 7.13147e-14 -5.53402e-14 3.33507e-13 1.07821e-14 1.31948e-13 3.65536e-14 -3.55984e-14 -9.6841e-14 2.40457e-13 -3.05855e-14 2.97879e-13 0
				</DataArray>
				<DataArray Name="VitesseY" type="Float32" format="ascii">