<?xml version="1.0"?>
<VTKFile type="PolyData">
	<PolyData>
		<Piece NumberOfPoints="1206" NumberOfPolys="1000">
			<Points>
				<DataArray type="Float32" NumberOfComponents="3" format="ascii">
 0 0 0 0.005 0 0 0.01 0 0 0.015 0 0 0.02 0 0 0.025 0 0 0.03 0 0 0.035 0 0 0.04 0 0 0.045 0 0 0.05 0 0 0.055 0 0 0.06 0 0 0.065 0 0 0.07 0 0 0.075 0 0 0.08 0 0 0.085 0 0 0.09 0 0 0.095 0 0 0.1 0 0 0.105 0 0 0.11 0 0 0.115 0 0 0.12 0 0 0.125 0 0 0.13 0 0 0.135 0 0 0.14 0 0 0.145 0 0 0.15 0 0 0.155 0 0 0.16 0 0 0.165 0 0 0.17 0 0 0.175 0 0 0.18 0 0 0.185 0 0 0.19 0 0 0.195 0 0 0.2 0 0 0.205 0 0 0.21 0 0 0.215 0 0 0.22 0 0 0.225 0 0 0.23 0 0 0.235 0 0 0.24 0 0 0.245 0 0 0.25 0 0 0.255 0 0 0.26 0 0 0.265 0 0 0.27 0 0 0.275 0 0 0.28 0 0 0.285 0 0 0.29 0 0 0.295 0 0 0.3 0 0 0.305 0 0 0.31 0 0 0.315 0 0 0.32 0 0 0.325 0 0 0.33 0 0 0.335 0 0 0.34 0 0 0.345 0 0 0.35 0 0 0.355 0 0 0.36 0 0 0.365001 0 0 0.370002 0 0 0.375009 0 0 0.380029 0 0 0.385082 0 0 0.390198 0 0 0.395418 0 0 0.400787 0 0 0.406343 0 0 0.412119 0 0 0.418146 0 0 0.424455 0 0 0.431083 0 0 0.438068 0 0 0.445458 0 0 0.453308 0 0 0.461684 0 0 0.470665 0 0 0.480345 0 0 0.490823 0 0 0.502169 0 0 0.51428 0 0 0.526557 0 0 0.538632 0 0 0.550535 0 0 0.562339 0 0 0.574105 0 0 0.585872 0 0 0.588484 0 0 0.591023 0 0 0.593516 0 0 0.595979 0 0 0.598421 0 0 0.600849 0 0 0.603267 0 0 0.605684 0 0 0.6081 0 0 0.610501 0 0 0.61289 0 0 0.615273 0 0 0.617653 0 0 0.62003 0 0 0.622404 0 0 0.624776 0 0 0.62715 0 0 0.629521 0 0 0.631891 0 0 0.634258 0 0 0.636624 0 0 0.638993 0 0 0.641365 0 0 0.643735 0 0 0.646119 0 0 0.648522 0 0 0.65096 0 0 0.653452 0 0 0.656052 0 0 0.658757 0 0 0.661658 0 0 0.664777 0 0 0.668204 0 0 0.671967 0 0 0.676088 0 0 0.680533 0 0 0.685231 0 0 0.690091 0 0 0.695033 0 0 0.700012 0 0 0.705004 0 0 0.710001 0 0 0.715 0 0 0.72 0 0 0.725 0 0 0.73 0 0 0.735 0 0 0.74 0 0 0.745 0 0 0.75 0 0 0.755 0 0 0.76 0 0 0.765 0 0 0.77 0 0 0.775 0 0 0.78 0 0 0.785 0 0 0.79 0 0 0.795 0 0 0.8 0 0 0.805 0 0 0.81 0 0 0.815 0 0 0.82 0 0 0.825 0 0 0.83 0 0 0.835 0 0 0.84 0 0 0.845 0 0 0.85 0 0 0.855 0 0 0.86 0 0 0.865 0 0 0.87 0 0 0.875 0 0 0.88 0 0 0.885 0 0 0.89 0 0 0.895 0 0 0.9 0 0 0.905 0 0 0.91 0 0 0.915 0 0 0.92 0 0 0.925 0 0 0.93 0 0 0.935 0 0 0.94 0 0 0.945 0 0 0.95 0 0 0.955 0 0 0.96 0 0 0.965 0 0 0.97 0 0 0.975 0 0 0.98 0 0 0.985 0 0 0.99 0 0 0.995 0 0 1 0 0 0 0.02 0 0.005 0.02 0 0.01 0.02 0 0.015 0.02 0 0.02 0.02 0 0.025 0.02 0 0.03 0.02 0 0.035 0.02 0 0.04 0.02 0 0.045 0.02 0 0.05 0.02 0 0.055 0.02 0 0.06 0.02 0 0.065 0.02 0 0.07 0.02 0 0.075 0.02 0 0.08 0.02 0 0.085 0.02 0 0.09 0.02 0 0.095 0.02 0 0.1 0.02 0 0.105 0.02 0 0.11 0.02 0 0.115 0.02 0 0.12 0.02 0 0.125 0.02 0 0.13 0.02 0 0.135 0.02 0 0.14 0.02 0 0.145 0.02 0 0.15 0.02 0 0.155 0.02 0 0.16 0.02 0 0.165 0.02 0 0.17 0.02 0 0.175 0.02 0 0.18 0.02 0 0.185 0.02 0 0.19 0.02 0 0.195 0.02 0 0.2 0.02 0 0.205 0.02 0 0.21 0.02 0 0.215 0.02 0 0.22 0.02 0 0.225 0.02 0 0.23 0.02 0 0.235 0.02 0 0.24 0.02 0 0.245 0.02 0 0.25 0.02 0 0.255 0.02 0 0.26 0.02 0 0.265 0.02 0 0.27 0.02 0 0.275 0.02 0 0.28 0.02 0 0.285 0.02 0 0.29 0.02 0 0.295 0.02 0 0.3 0.02 0 0.305 0.02 0 0.31 0.02 0 0.315 0.02 0 0.32 0.02 0 0.325 0.02 0 0.33 0.02 0 0.335 0.02 0 0.34 0.02 0 0.345 0.02 0 0.35 0.02 0 0.355 0.02 0 0.36 0.02 0 0.365001 0.02 0 0.370002 0.02 0 0.375009 0.02 0 0.380029 0.02 0 0.385082 0.02 0 0.390198 0.02 0 0.395418 0.02 0 0.400787 0.02 0 0.406343 0.02 0 0.412119 0.02 0 0.418146 0.02 0 0.424455 0.02 0 0.431083 0.02 0 0.438068 0.02 0 0.445458 0.02 0 0.453308 0.02 0 0.461684 0.02 0 0.470665 0.02 0 0.480345 0.02 0 0.490823 0.02 0 0.502169 0.02 0 0.51428 0.02 0 0.526557 0.02 0 0.538632 0.02 0 0.550535 0.02 0 0.562339 0.02 0 0.574105 0.02 0 0.585872 0.02 0 0.588484 0.02 0 0.591023 0.02 0 0.593516 0.02 0 0.595979 0.02 0 0.598421 0.02 0 0.600849 0.02 0 0.603267 0.02 0 0.605684 0.02 0 0.6081 0.02 0 0.610501 0.02 0 0.61289 0.02 0 0.615273 0.02 0 0.617653 0.02 0 0.62003 0.02 0 0.622404 0.02 0 0.624776 0.02 0 0.62715 0.02 0 0.629521 0.02 0 0.631891 0.02 0 0.634258 0.02 0 0.636624 0.02 0 0.638993 0.02 0 0.641365 0.02 0 0.643735 0.02 0 0.646119 0.02 0 0.648522 0.02 0 0.65096 0.02 0 0.653452 0.02 0 0.656052 0.02 0 0.658757 0.02 0 0.661658 0.02 0 0.664777 0.02 0 0.668204 0.02 0 0.671967 0.02 0 0.676088 0.02 0 0.680533 0.02 0 0.685231 0.02 0 0.690091 0.02 0 0.695033 0.02 0 0.700012 0.02 0 0.705004 0.02 0 0.710001 0.02 0 0.715 0.02 0 0.72 0.02 0 0.725 0.02 0 0.73 0.02 0 0.735 0.02 0 0.74 0.02 0 0.745 0.02 0 0.75 0.02 0 0.755 0.02 0 0.76 0.02 0 0.765 0.02 0 0.77 0.02 0 0.775 0.02 0 0.78 0.02 0 0.785 0.02 0 0.79 0.02 0 0.795 0.02 0 0.8 0.02 0 0.805 0.02 0 0.81 0.02 0 0.815 0.02 0 0.82 0.02 0 0.825 0.02 0 0.83 0.02 0 0.835 0.02 0 0.84 0.02 0 0.845 0.02 0 0.85 0.02 0 0.855 0.02 0 0.86 0.02 0 0.865 0.02 0 0.87 0.02 0 0.875 0.02 0 0.88 0.02 0 0.885 0.02 0 0.89 0.02 0 0.895 0.02 0 0.9 0.02 0 0.905 0.02 0 0.91 0.02 0 0.915 0.02 0 0.92 0.02 0 0.925 0.02 0 0.93 0.02 0 0.935 0.02 0 0.94 0.02 0 0.945 0.02 0 0.95 0.02 0 0.955 0.02 0 0.96 0.02 0 0.965 0.02 0 0.97 0.02 0 0.975 0.02 0 0.98 0.02 0 0.985 0.02 0 0.99 0.02 0 0.995 0.02 0 1 0.02 0 0 0.04 0 0.005 0.04 0 0.01 0.04 0 0.015 0.04 0 0.02 0.04 0 0.025 0.04 0 0.03 0.04 0 0.035 0.04 0 0.04 0.04 0 0.045 0.04 0 0.05 0.04 0 0.055 0.04 0 0.06 0.04 0 0.065 0.04 0 0.07 0.04 0 0.075 0.04 0 0.08 0.04 0 0.085 0.04 0 0.09 0.04 0 0.095 0.04 0 0.1 0.04 0 0.105 0.04 0 0.11 0.04 0 0.115 0.04 0 0.12 0.04 0 0.125 0.04 0 0.13 0.04 0 0.135 0.04 0 0.14 0.04 0 0.145 0.04 0 0.15 0.04 0 0.155 0.04 0 0.16 0.04 0 0.165 0.04 0 0.17 0.04 0 0.175 0.04 0 0.18 0.04 0 0.185 0.04 0 0.19 0.04 0 0.195 0.04 0 0.2 0.04 0 0.205 0.04 0 0.21 0.04 0 0.215 0.04 0 0.22 0.04 0 0.225 0.04 0 0.23 0.04 0 0.235 0.04 0 0.24 0.04 0 0.245 0.04 0 0.25 0.04 0 0.255 0.04 0 0.26 0.04 0 0.265 0.04 0 0.27 0.04 0 0.275 0.04 0 0.28 0.04 0 0.285 0.04 0 0.29 0.04 0 0.295 0.04 0 0.3 0.04 0 0.305 0.04 0 0.31 0.04 0 0.315 0.04 0 0.32 0.04 0 0.325 0.04 0 0.33 0.04 0 0.335 0.04 0 0.34 0.04 0 0.345 0.04 0 0.35 0.04 0 0.355 0.04 0 0.36 0.04 0 0.365001 0.04 0 0.370002 0.04 0 0.375009 0.04 0 0.380029 0.04 0 0.385082 0.04 0 0.390198 0.04 0 0.395418 0.04 0 0.400787 0.04 0 0.406343 0.04 0 0.412119 0.04 0 0.418146 0.04 0 0.424455 0.04 0 0.431083 0.04 0 0.438068 0.04 0 0.445458 0.04 0 0.453308 0.04 0 0.461684 0.04 0 0.470665 0.04 0 0.480345 0.04 0 0.490823 0.04 0 0.502169 0.04 0 0.51428 0.04 0 0.526557 0.04 0 0.538632 0.04 0 0.550535 0.04 0 0.562339 0.04 0 0.574105 0.04 0 0.585872 0.04 0 0.588484 0.04 0 0.591023 0.04 0 0.593516 0.04 0 0.595979 0.04 0 0.598421 0.04 0 0.600849 0.04 0 0.603267 0.04 0 0.605684 0.04 0 0.6081 0.04 0 0.610501 0.04 0 0.61289 0.04 0 0.615273 0.04 0 0.617653 0.04 0 0.62003 0.04 0 0.622404 0.04 0 0.624776 0.04 0 0.62715 0.04 0 0.629521 0.04 0 0.631891 0.04 0 0.634258 0.04 0 0.636624 0.04 0 0.638993 0.04 0 0.641365 0.04 0 0.643735 0.04 0 0.646119 0.04 0 0.648522 0.04 0 0.65096 0.04 0 0.653452 0.04 0 0.656052 0.04 0 0.658757 0.04 0 0.661658 0.04 0 0.664777 0.04 0 0.668204 0.04 0 0.671967 0.04 0 0.676088 0.04 0 0.680533 0.04 0 0.685231 0.04 0 0.690091 0.04 0 0.695033 0.04 0 0.700012 0.04 0 0.705004 0.04 0 0.710001 0.04 0 0.715 0.04 0 0.72 0.04 0 0.725 0.04 0 0.73 0.04 0 0.735 0.04 0 0.74 0.04 0 0.745 0.04 0 0.75 0.04 0 0.755 0.04 0 0.76 0.04 0 0.765 0.04 0 0.77 0.04 0 0.775 0.04 0 0.78 0.04 0 0.785 0.04 0 0.79 0.04 0 0.795 0.04 0 0.8 0.04 0 0.805 0.04 0 0.81 0.04 0 0.815 0.04 0 0.82 0.04 0 0.825 0.04 0 0.83 0.04 0 0.835 0.04 0 0.84 0.04 0 0.845 0.04 0 0.85 0.04 0 0.855 0.04 0 0.86 0.04 0 0.865 0.04 0 0.87 0.04 0 0.875 0.04 0 0.88 0.04 0 0.885 0.04 0 0.89 0.04 0 0.895 0.04 0 0.9 0.04 0 0.905 0.04 0 0.91 0.04 0 0.915 0.04 0 0.92 0.04 0 0.925 0.04 0 0.93 0.04 0 0.935 0.04 0 0.94 0.04 0 0.945 0.04 0 0.95 0.04 0 0.955 0.04 0 0.96 0.04 0 0.965 0.04 0 0.97 0.04 0 0.975 0.04 0 0.98 0.04 0 0.985 0.04 0 0.99 0.04 0 0.995 0.04 0 1 0.04 0 0 0.06 0 0.005 0.06 0 0.01 0.06 0 0.015 0.06 0 0.02 0.06 0 0.025 0.06 0 0.03 0.06 0 0.035 0.06 0 0.04 0.06 0 0.045 0.06 0 0.05 0.06 0 0.055 0.06 0 0.06 0.06 0 0.065 0.06 0 0.07 0.06 0 0.075 0.06 0 0.08 0.06 0 0.085 0.06 0 0.09 0.06 0 0.095 0.06 0 0.1 0.06 0 0.105 0.06 0 0.11 0.06 0 0.115 0.06 0 0.12 0.06 0 0.125 0.06 0 0.13 0.06 0 0.135 0.06 0 0.14 0.06 0 0.145 0.06 0 0.15 0.06 0 0.155 0.06 0 0.16 0.06 0 0.165 0.06 0 0.17 0.06 0 0.175 0.06 0 0.18 0.06 0 0.185 0.06 0 0.19 0.06 0 0.195 0.06 0 0.2 0.06 0 0.205 0.06 0 0.21 0.06 0 0.215 0.06 0 0.22 0.06 0 0.225 0.06 0 0.23 0.06 0 0.235 0.06 0 0.24 0.06 0 0.245 0.06 0 0.25 0.06 0 0.255 0.06 0 0.26 0.06 0 0.265 0.06 0 0.27 0.06 0 0.275 0.06 0 0.28 0.06 0 0.285 0.06 0 0.29 0.06 0 0.295 0.06 0 0.3 0.06 0 0.305 0.06 0 0.31 0.06 0 0.315 0.06 0 0.32 0.06 0 0.325 0.06 0 0.33 0.06 0 0.335 0.06 0 0.34 0.06 0 0.345 0.06 0 0.35 0.06 0 0.355 0.06 0 0.36 0.06 0 0.365001 0.06 0 0.370002 0.06 0 0.375009 0.06 0 0.380029 0.06 0 0.385082 0.06 0 0.390198 0.06 0 0.395418 0.06 0 0.400787 0.06 0 0.406343 0.06 0 0.412119 0.06 0 0.418146 0.06 0 0.424455 0.06 0 0.431083 0.06 0 0.438068 0.06 0 0.445458 0.06 0 0.453308 0.06 0 0.461684 0.06 0 0.470665 0.06 0 0.480345 0.06 0 0.490823 0.06 0 0.502169 0.06 0 0.51428 0.06 0 0.526557 0.06 0 0.538632 0.06 0 0.550535 0.06 0 0.562339 0.06 0 0.574105 0.06 0 0.585872 0.06 0 0.588484 0.06 0 0.591023 0.06 0 0.593516 0.06 0 0.595979 0.06 0 0.598421 0.06 0 0.600849 0.06 0 0.603267 0.06 0 0.605684 0.06 0 0.6081 0.06 0 0.610501 0.06 0 0.61289 0.06 0 0.615273 0.06 0 0.617653 0.06 0 0.62003 0.06 0 0.622404 0.06 0 0.624776 0.06 0 0.62715 0.06 0 0.629521 0.06 0 0.631891 0.06 0 0.634258 0.06 0 0.636624 0.06 0 0.638993 0.06 0 0.641365 0.06 0 0.643735 0.06 0 0.646119 0.06 0 0.648522 0.06 0 0.65096 0.06 0 0.653452 0.06 0 0.656052 0.06 0 0.658757 0.06 0 0.661658 0.06 0 0.664777 0.06 0 0.668204 0.06 0 0.671967 0.06 0 0.676088 0.06 0 0.680533 0.06 0 0.685231 0.06 0 0.690091 0.06 0 0.695033 0.06 0 0.700012 0.06 0 0.705004 0.06 0 0.710001 0.06 0 0.715 0.06 0 0.72 0.06 0 0.725 0.06 0 0.73 0.06 0 0.735 0.06 0 0.74 0.06 0 0.745 0.06 0 0.75 0.06 0 0.755 0.06 0 0.76 0.06 0 0.765 0.06 0 0.77 0.06 0 0.775 0.06 0 0.78 0.06
[...]
			<PointData Scalars="VitesseX">
				<DataArray Name="VitesseX" type="Float32" format="ascii">
 0 2.82595e-15 -1.14005e-15 -1.74303e-15 5.58927e-17 -7.29328e-16 5.06537e-16 -4.35752e-15 5.89129e-15 -2.41792e-15 -6.55437e-15 7.12602e-15 -5.55983e-15 1.14046e-14 -9.64968e-15 7.75359e-15 -5.67759e-15 1.54531e-14 -2.99298e-15 -3.89309e-15 6.69741e-15 1.03986e-14 -1.49613e-14 1.24452e-14 -1.13352e-14 1.04569e-14 2.3744e-14 -3.18963e-14 1.24622e-14 2.8034e-14 1.21612e-14 -2.48162e-14 6.56123e-15 -9.74978e-15 2.16306e-14 7.53702e-15 -1.56857e-14 2.47419e-14 1.44808e-14 6.71158e-15 8.59059e-15 1.36331e-14 -2.11042e-14 7.73706e-15 2.62363e-14 -2.25872e-15 -1.84247e-14 6.82056e-15 3.06639e-15 -4.34187e-15 5.22003e-14 4.10879e-14 1.72969e-14 -2.1638e-14 3.73643e-14 -5.21803e-14 2.26186e-15 -9.9041e-16 1.65361e-14 2.5266e-14 2.94476e-14 -6.08883e-16 1.1307e-13 1.21013e-12 1.193e-11 1.06303e-10 8.84434e-10 6.8037e-09 4.82021e-08 3.13071e-07 1.85426e-06 9.95242e-06 4.80464e-05 0.000206737 0.000784177 0.00258872 0.00734062 0.0177095 0.0363403 0.0642653 0.100403 0.142709 0.189501 0.239869 0.293477 0.350305 0.410496 0.474285 0.541959 0.613801 0.689966 0.770114 0.852261 0.928829 0.973233 0.958104 0.943717 0.933647 0.929441 0.92792 0.926966 0.926865 0.926799 0.926782 0.926838 0.927229 0.927114 0.926992 0.926764 0.926464 0.926072 0.925644 0.925205 0.924839 0.924595 0.92454 0.924713 0.925053 0.924634 0.923689 0.92347 0.923421 0.923207 0.92183 0.918996 0.917525 0.898501 0.900167 0.846989 0.844317 0.750386 0.710585 0.59039 0.48841 0.358474 0.238889 0.137396 0.0674924 0.0286524 0.0110074 0.00400377 0.00141527 0.000491411 0.000168153 5.67239e-05 1.88517e-05 6.16692e-06 1.98395e-06 6.27183e-07 1.94696e-07 5.93157e-08 1.77264e-08 5.19435e-09 1.492e-09 4.20024e-10 1.15854e-10 3.13158e-11 8.28485e-12 2.21496e-12 4.89884e-13 1.93341e-13 -3.27808e-14 9.362e-14 -1.77913e-14 -1.29995e-13 1.48643e-13 -8.17888e-14 8.44635e-14 -4.63024e-14 -2.9522e-14 1.22951e-13 2.41142e-14 -6.64738e-14 -3.1714e-14 -3.23358e-14 -1.29847e-13 -2.97148e-14 1.45386e-13 2.37433e-14 -1.15425e-13 1.80472e-14 -9.22276e-14 -8.6404e-14 2.62054e-14 -4.56408e-14 9.34729e-14 -5.96217e-14 -1.56152e-13 -2.83948e-14 -6.15452e-14 -1.17012e-13 2.81969e-14 8.12429e-15 -4.46561e-14 -6.21349e-14 5.69485e-14 6.84554e-14 -9.22926e-14 -8.37106e-14 9.71316e-14 0 0 -9.48079e-16 -1.41082e-16 2.14857e-16 -2.94756e-15 2.41395e-15 -1.99433e-15 1.60047e-15 -4.46835e-15 5.24406e-15 -4.1979e-15 3.69561e-15 5.44636e-15 -8.19508e-15 3.47709e-15 -1.09435e-15 5.61687e-15 1.02082e-14 -4.58254e-15 -2.95637e-15 1.01445e-14 1.0071e-14 -3.99213e-15 -3.22616e-15 -7.92594e-15 1.58547e-14 -1.34048e-14 2.29775e-14 -2.89174e-15 1.55128e-14 1.16292e-15 1.29137e-14 -3.76447e-15 1.39595e-14 9.83961e-15 -3.58697e-15 4.26985e-15 2.21133e-14 -4.44111e-15 2.66757e-17 -5.4234e-17 5.2491e-15 1.29829e-14 -1.49384e-14 7.90251e-15 6.43999e-15 6.94108e-15 -2.66147e-14 2.13939e-14 -1.58851e-14 4.31587e-14 1.62244e-14 3.89637e-14 1.98862e-14 -1.36792e-14 -2.55911e-14 -1.66095e-14 4.20668e-14 -2.08505e-14 2.29199e-14 4.09607e-14 1.47121e-14 1.55534e-13 1.17651e-12 1.19001e-11 1.06314e-10 8.84445e-10 6.80373e-09 4.8202e-08 3.13071e-07 1.85426e-06 9.95242e-06 4.80464e-05 0.000206737 0.000784177 0.00258872 0.00734062 0.0177095 0.0363403 0.0642653 0.100403 0.142709 0.189501 0.239869 0.293477 0.350305 0.410496 0.474285 0.541959 0.613801 0.689966 0.770114 0.852261 0.928829 0.973233 0.958104 0.943717 0.933647 0.929441 0.92792 0.926966 0.926865 0.926799 0.926782 0.926838 0.927229 0.927114 0.926992 0.926764 0.926464 0.926072 0.925644 0.925205 0.924839 0.924595 0.92454 0.924713 0.925053 0.924634 0.923689 0.92347 0.923421 0.923207 0.92183 0.918996 0.917525 0.898501 0.900167 0.846989 0.844317 0.750386 0.710585 0.59039 0.48841 0.358474 0.238889 0.137396 0.0674924 0.0286524 0.0110074 0.00400377 0.00141527 0.000491411 0.000168153 5.67239e-05 1.88517e-05 6.16692e-06 1.98395e-06 6.27183e-07 1.94696e-07 5.93157e-08 1.77263e-08 5.19437e-09 1.49206e-09 4.20019e-10 1.15849e-10 3.1283e-11 8.36227e-12 2.12867e-12 6.12847e-13 1.65457e-13 -2.18307e-14 -9.1575e-14 1.7533e-13 9.65447e-15 -1.61647e-13 -2.76961e-14 1.33048e-13 1.07094e-13 -4.6643e-14 6.28259e-15 6.34806e-14 2.20919e-14 -8.34779e-14 -8.29536e-14 5.7686e-15 -7.77386e-14 -5.18111e-14 7.59942e-14 -4.3075e-14 -1.11658e-13 -9.24125e-14 4.84859e-15 2.71576e-14 8.19568e-14 -5.93339e-14 -8.15138e-14 -1.04475e-13 -8.42221e-14 -2.95841e-14 -1.32547e-14 -4.2369e-14 -9.11341e-14 6.16691e-14 -9.61725e-14 3.6373e-14 6.16686e-14 -9.10606e-14 -1.00565e-14 -4.10061e-14 0 0 -1.11198e-15 -1.72221e-15 3.21802e-16 -2.27223e-15 2.99784e-15 7.24804e-16 7.73269e-16 -2.52973e-15 6.4295e-15 2.49892e-16 2.33697e-15 4.65965e-15 -5.52387e-15 -9.20736e-15 -1.23961e-14 1.42913e-14 8.81207e-15 7.89158e-15 -1.72395e-15 9.84602e-15 -5.66127e-15 1.52802e-14 -6.30716e-15 3.02257e-15 8.25479e-16 -3.03797e-14 5.25424e-14 1.33287e-14 3.61015e-15 1.35842e-14 -3.33426e-15 1.71132e-14 3.55185e-14 -2.79759e-14 9.76899e-15 3.74214e-15 6.34382e-15 -2.05741e-14 -8.41009e-15 2.75591e-14 -7.76447e-15 -8.42722e-15 2.39933e-14 8.87581e-15 -1.87186e-15 5.13729e-15 -1.56063e-14 -2.01045e-14 1.81238e-14 -6.66015e-15 5.07458e-14 4.38737e-14 2.43479e-14 -8.36772e-16 -4.26635e-14 3.11332e-15 3.50919e-15 1.07751e-14 5.01643e-14 3.28118e-14 3.84194e-15 1.59861e-13 1.22095e-12 1.18511e-11 1.06279e-10 8.84435e-10 6.80377e-09 4.82019e-08 3.13071e-07 1.85426e-06 9.95242e-06 4.80464e-05 0.000206737 0.000784177 0.00258872 0.00734062 0.0177095 0.0363403 0.0642653 0.100403 0.142709 0.189501 0.239869 0.293477 0.350305 0.410496 0.474285 0.541959 0.613801 0.689966 0.770114 0.852261 0.928829 0.973233 0.958104 0.943717 0.933647 0.929441 0.92792 0.926966 0.926865 0.926799 0.926782 0.926838 0.927229 0.927114 0.926992 0.926764 0.926464 0.926072 0.925644 0.925205 0.924839 0.924595 0.92454 0.924713 0.925053 0.924634 0.923689 0.92347 0.923421 0.923207 0.92183 0.918996 0.917525 0.898501 0.900167 0.846989 0.844317 0.750386 0.710585 0.59039 0.48841 0.358474 0.238889 0.137396 0.0674924 0.0286524 0.0110074 0.00400377 0.00141527 0.000491411 0.000168153 5.67239e-05 1.88517e-05 6.16692e-06 1.98395e-06 6.27183e-07 1.94696e-07 5.93157e-08 1.77264e-08 5.19437e-09 1.49212e-09 4.19933e-10 1.15859e-10 3.12768e-11 8.37079e-12 2.33976e-12 4.36124e-13 7.96565e-14 -8.88651e-14 -1.42091e-14 5.26165e-14 1.52988e-13 -1.16799e-13 7.02927e-14 -2.35806e-14 2.65698e-13 -5.94135e-14 -6.45548e-14 -6.27223e-15 -7.12387e-14 7.47653e-14 8.75206e-15 1.0721e-13 -1.64814e-13 -1.05549e-13 -5.63189e-14 1.17291e-13 -2.60767e-13 1.41767e-13 -7.6723e-14 -9.27116e-15 6.0579e-14 -5.75583e-14 -2.8847e-14 -7.91811e-14 -1.64873e-13 8.08747e-14 -9.63968e-14 -7.55458e-14 -1.49245e-13 -1.54829e-14 1.13685e-13 -2.11868e-14 -8.73663e-14 -8.34031e-15 -1.00554e-14 -2.12922e-14 0 0 1.76643e-15 3.36704e-16 -8.52455e-16 -1.88507e-15 5.72878e-16 -1.15397e-16 5.9175e-15 1.23019e-15 -4.90926e-15 -1.70789e-15 -2.98666e-16 5.70884e-15 -5.50693e-15 -1.18149e-14 -3.54459e-15 3.05775e-15 7.30109e-16 1.55941e-14 1.10865e-14 1.20017e-14 -2.60457e-14 1.48728e-14 -2.1231e-15 -3.54126e-15 1.70114e-14 -3.97308e-16 3.85543e-14 3.48731e-14 3.7803e-15 -1.75429e-15 -1.8752e-14 2.11376e-14 2.23211e-14 -3.64792e-14 2.068e-14 -1.69512e-14 -1.72738e-15 2.35752e-14 1.34974e-14 -2.00175e-14 2.30408e-14 -1.14636e-14 8.18042e-15 2.50355e-14 -3.40387e-15 -1.64608e-14 8.76705e-15 -2.66428e-14 3.21741e-14 2.39256e-15 2.42598e-15 3.80039e-14 4.86923e-14 -9.26821e-15 -1.06312e-14 6.19529e-14 -6.48009e-14 3.12094e-14 7.73579e-14 2.22294e-14 -7.88086e-15 2.04685e-13 1.14184e-12 1.18524e-11 1.06293e-10 8.84406e-10 6.80374e-09 4.82019e-08 3.13071e-07 1.85426e-06 9.95242e-06 4.80464e-05 0.000206737 0.000784177 0.00258872 0.00734062 0.0177095 0.0363403 0.0642653 0.100403 0.142709 0.189501 0.239869 0.293477 0.350305 0.410496 0.474285 0.541959 0.613801 0.689966 0.770114 0.852261 0.928829 0.973233 0.958104 0.943717 0.933647 0.929441 0.92792 0.926966 0.926865 0.926799 0.926782 0.926838 0.927229 0.927114 0.926992 0.926764 0.926464 0.926072 0.925644 0.925205 0.924839 0.924595 0.92454 0.924713 0.925053 0.924634 0.923689 0.92347 0.923421 0.923207 0.92183 0.918996 0.917525 0.898501 0.900167 0.846989 0.844317 0.750386 0.710585 0.59039 0.48841 0.358474 0.238889 0.137396 0.0674924 0.0286524 0.0110074 0.00400377 0.00141527 0.000491411 0.000168153 5.67239e-05 1.88517e-05 6.16692e-06 1.98395e-06 6.27183e-07 1.94696e-07 5.93158e-08 1.77264e-08 5.19442e-09 1.49201e-09 4.19994e-10 1.15836e-10 3.13305e-11 8.14494e-12 2.59063e-12 3.11189e-13 1.24085e-13 -1.49995e-13 2.38153e-13 -2.23149e-13 2.62147e-13 -2.40075e-14 -1.41487e-14 -3.17324e-14 1.65654e-13 -1.65109e-14 -1.19487e-15 -1.09385e-13 -9.89423e-14 2.01897e-13 4.43908e-14 7.73364e-14 -1.94476e-13 -1.80075e-13 -9.31375e-14 8.52391e-14 6.1213e-14 3.18411e-14 -1.5509e-13 -4.01425e-14 1.08954e-13 -5.26611e-14 1.19977e-14 -1.6015e-13 5.2536e-14 1.53733e-13 -2.30414e-13 -1.28245e-13 -4.11283e-14 -1.59422e-13 1.25451e-13 -1.04385e-14 -1.32438e-13 1.472e-14 1.08788e-14 2.40742e-13 0 0 4.19133e-15 2.67966e-15 -1.1099e-15 -4.1391e-15 -2.06933e-15 -2.33803e-15 7.60366e-15 1.57874e-16 -5.07429e-15 3.97815e-16 -8.95971e-15 -9.00034e-16 -6.57648e-15 7.22851e-15 2.76363e-15 1.45372e-15 -4.49714e-15 7.71499e-15 -5.97759e-15 1.07422e-14 -1.07273e-14 2.8076e-15 1.0076e-14 -2.37277e-14 1.90451e-14 4.29285e-14 4.21235e-14 1.34266e-14 1.11319e-14 -1.42541e-14 -1.26707e-14 2.10569e-16 -5.69691e-15 -1.03929e-14 7.0403e-15 4.2584e-14 -1.32822e-14 -1.26246e-14 -1.39013e-14 -2.79537e-14 8.55609e-14 1.616e-14 -5.8294e-14 -1.16132e-14 2.31671e-14 -1.70917e-14 -2.72529e-14 3.41243e-14 4.20103e-14 6.17481e-14 -2.38742e-14 2.64498e-14 3.80226e-14 -5.59541e-14 6.8636e-15 7.22301e-14 7.09762e-15 1.96929e-14 4.08714e-14 3.74161e-14 1.04522e-13 1.85822e-13 1.11101e-12 1.17714e-11 1.06352e-10 8.84415e-10 6.80366e-09 4.82019e-08 3.13071e-07 1.85426e-06 9.95242e-06 4.80464e-05 0.000206737 0.000784177 0.00258872 0.00734062 0.0177095 0.0363403 0.0642653 0.100403 0.142709 0.189501 0.239869 0.293477 0.350305 0.410496 0.474285 0.541959 0.613801 0.689966 0.770114 0.852261 0.928829 0.973233 0.958104 0.943717 0.933647 0.929441 0.92792 0.926966 0.926865 0.926799 0.926782 0.926838 0.927229 0.927114 0.926992 0.926764 0.926464 0.926072 0.925644 0.925205 0.924839 0.924595 0.92454 0.924713 0.925053 0.924634 0.923689 0.92347 0.923421 0.923207 0.92183 0.918996 0.917525 0.898501 0.900167 0.846989 0.844317 0.750386 0.710585 0.59039 0.48841 0.358474 0.238889 0.137396 0.0674924 0.0286524 0.0110074 0.00400377 0.00141527 0.000491411 0.000168153 5.67239e-05 1.88517e-05 6.16692e-06 1.98395e-06 6.27183e-07 1.94696e-07 5.93158e-08 1.77263e-08 5.19444e-09 1.49202e-09 4.20007e-10 1.15897e-10 3.13166e-11 8.1416e-12 2.42891e-12 4.0331e-13 1.95278e-13 1.20437e-14 1.28499e-13 5.41369e-14 8.04519e-14 -5.75521e-14 2.01381e-14 -6.33646e-14 -9.21697e-14 3.86591e-14 -4.60892e-14 -2.43822e-14 3.10664e-14 2.17891e-13 1.19462e-14 3.49324e-14 -1.65179e-13 -2.66208e-13 -1.38071e-13 -8.222e-14 2.56532e-13 3.81385e-15 2.41138e-14 -1.66406e-13 5.28168e-14 -1.988e-13 7.77185e-14 -3.13064e-13 2.89202e-13 2.11931e-14 5.67544e-14 -2.84918e-13 3.15969e-14 1.11596e-13 -8.92429e-14 -7.54719e-14 -4.69669e-14 2.92586e-14 -1.01815e-14 1.68453e-13 0 0 7.34795e-15 3.83595e-16 -2.04402e-15 -3.10149e-15 -4.84596e-15 1.49954e-15 -2.63959e-15 7.62389e-15 -3.77116e-16 6.55263e-15 -1.29133e-14 -2.0351e-14 1.4608e-14 3.06821e-15 -2.23343e-15 8.46314e-15 2.20634e-15 6.1971e-15 -3.55564e-14 3.58141e-15 9.57078e-15 -5.46952e-16 3.06813e-14 -2.9811e-14 -1.55341e-14 7.64457e-14 3.43721e-14 2.01008e-15 1.89319e-14 1.20042e-14 -4.51495e-14 6.46265e-15 -2.26678e-14 -1.82789e-15 6.96952e-15 1.02329e-13 -2.99067e-14 -9.01848e-14 -6.49593e-14 4.79448e-14 1.12646e-13 -8.67721e-15 -4.73484e-14 -4.51146e-14 3.42594e-14 -2.32941e-14 -4.32024e-14 4.16038e-14 8.33485e-14 7.12737e-14 5.75304e-14 4.00866e-15 -3.40541e-14 -3.03227e-14 -5.13355e-14 6.22619e-14 6.56915e-14 5.67543e-14 6.78185e-15 4.3523e-14 2.02456e-13 8.39969e-14 1.23736e-12 1.16701e-11 1.06353e-10 8.84432e-10 6.80365e-09 4.82019e-08 3.13071e-07 1.85426e-06 9.95242e-06 4.80464e-05 0.000206737 0.000784177 0.00258872 0.00734062 0.0177095 0.0363403 0.0642653 0.100403 0.142709 0.189501 0.239869 0.293477 0.350305 0.410496 0.474285 0.541959 0.613801 0.689966 0.770114 0.852261 0.928829 0.973233 0.958104 0.943717 0.933647 0.929441 0.92792 0.926966 0.926865 0.926799 0.926782 0.926838 0.927229 0.927114 0.926992 0.926764 0.926464 0.926072 0.925644 0.925205 0.924839 0.924595 0.92454 0.924713 0.925053 0.924634 0.923689 0.92347 0.923421 0.923207 0.92183 0.918996 0.917525 0.898501 0.900167 0.846989 0.844317 0.750386 0.710585 0.59039 0.48841 0.358474 0.238889 0.137396 0.0674924 0.0286524 0.0110074 0.00400377 0.00141527 0.000491411 0.000168153 5.67239e-05 1.88517e-05 6.16692e-06 1.98395e-06 6.27183e-07 1.94696e-07 5.93156e-08 1.77263e-08 5.19439e-09 1.49215e-09 4.19877e-10 1.15996e-10 3.12764e-11 8.29544e-12 2.31361e-12 3.2107e-13 1.64667e-13 1.57735e-13 2.93477e-14 2.91377e-13 -2.07345e-13 1.70687e-13 1.82577e-13 -2.92133e-13 -2.45089e-13 5.4839e-14 -1.08441e-13 5.45751e-14 6.79954e-15 3.16523e-13 8.55012e-14 -1.23385e-14 -1.45045e-13 -1.3395e-13 -3.30489e-13 -1.29462e-13 1.10366e-13 3.19963e-13 1.08782e-13 -2.99233e-13 -2.00214e-13 -1.94642e-13 1.78026e-13 -4.10729e-13 2.83288e-13 -1.06061e-13 2.91063e-13 -3.51504e-13 3.68938e-14 3.42824e-13 -7.16578e-14 -1.88146e-13 -5.87101e-14 1.02131e-13 -1.26351e-13 -8.38854e-15 0
				</DataArray>
				<DataArray Name="VitesseY" type="Float32" format="ascii">