<?xml version="1.0"?>
<VTKFile type="PolyData">
	<PolyData>
		<Piece NumberOfPoints="1206" NumberOfPolys="1000">
			<Points>
				<DataArray type="Float32" NumberOfComponents="3" format="ascii">
 0 0 0 0.005 0 0 0.01 0 0 0.015 0 0 0.02 0 0 0.025 0 0 0.03 0 0 0.035 0 0 0.04 0 0 0.045 0 0 0.05 0 0 0.055 0 0 0.06 0 0 0.065 0 0 0.07 0 0 0.075 0 0 0.08 0 0 0.085 0 0 0.09 0 0 0.095 0 0 0.1 0 0 0.105 0 0 0.11 0 0 0.115 0 0 0.12 0 0 0.125 0 0 0.13 0 0 0.135 0 0 0.14 0 0 0.145 0 0 0.15 0 0 0.155 0 0 0.16 0 0 0.165 0 0 0.17 0 0 0.175 0 0 0.18 0 0 0.185 0 0 0.19 0 0 0.195 0 0 0.2 0 0 0.205 0 0 0.21 0 0 0.215 0 0 0.22 0 0 0.225 0 0 0.23 0 0 0.235 0 0 0.24 0 0 0.245 0 0 0.25 0 0 0.255 0 0 0.26 0 0 0.265 0 0 0.27 0 0 0.275 0 0 0.28 0 0 0.285 0 0 0.29 0 0 0.295 0 0 0.3 0 0 0.305 0 0 0.31 0 0 0.315 0 0 0.32 0 0 0.325 0 0 0.33 0 0 0.335 0 0 0.34 0 0 0.345 0 0 0.35 0 0 0.355 0 0 0.36 0 0 0.365 0 0 0.37 0 0 0.375 0 0 0.38 0 0 0.385 0 0 0.39 0 0 0.395002 0 0 0.400008 0 0 0.405028 0 0 0.410087 0 0 0.415227 0 0 0.420508 0 0 0.425992 0 0 0.431738 0 0 0.437799 0 0 0.444228 0 0 0.451085 0 0 0.458445 0 0 0.466395 0 0 0.475046 0 0 0.484533 0 0 0.495009 0 0 0.506568 0 0 0.518903 0 0 0.531129 0 0 0.543109 0 0 0.554937 0 0 0.566729 0 0 0.569345 0 0 0.571887 0 0 0.574384 0 0 0.57685 0 0 0.579296 0 0 0.581727 0 0 0.584149 0 0 0.586569 0 0 0.588989 0 0 0.591393 0 0 0.593786 0 0 0.596172 0 0 0.598555 0 0 0.600938 0 0 0.60332 0 0 0.605704 0 0 0.608092 0 0 0.610487 0 0 0.612894 0 0 0.615336 0 0 0.617856 0 0 0.620457 0 0 0.623211 0 0 0.626137 0 0 0.629332 0 0 0.632831 0 0 0.636686 0 0 0.640896 0 0 0.645418 0 0 0.650172 0 0 0.655064 0 0 0.660022 0 0 0.665007 0 0 0.670002 0 0 0.675001 0 0 0.68 0 0 0.685 0 0 0.69 0 0 0.695 0 0 0.7 0 0 0.705 0 0 0.71 0 0 0.715 0 0 0.72 0 0 0.725 0 0 0.73 0 0 0.735 0 0 0.74 0 0 0.745 0 0 0.75 0 0 0.755 0 0 0.76 0 0 0.765 0 0 0.77 0 0 0.775 0 0 0.78 0 0 0.785 0 0 0.79 0 0 0.795 0 0 0.8 0 0 0.805 0 0 0.81 0 0 0.815 0 0 0.82 0 0 0.825 0 0 0.83 0 0 0.835 0 0 0.84 0 0 0.845 0 0 0.85 0 0 0.855 0 0 0.86 0 0 0.865 0 0 0.87 0 0 0.875 0 0 0.88 0 0 0.885 0 0 0.89 0 0 0.895 0 0 0.9 0 0 0.905 0 0 0.91 0 0 0.915 0 0 0.92 0 0 0.925 0 0 0.93 0 0 0.935 0 0 0.94 0 0 0.945 0 0 0.95 0 0 0.955 0 0 0.96 0 0 0.965 0 0 0.97 0 0 0.975 0 0 0.98 0 0 0.985 0 0 0.99 0 0 0.995 0 0 1 0 0 0 0.02 0 0.005 0.02 0 0.01 0.02 0 0.015 0.02 0 0.02 0.02 0 0.025 0.02 0 0.03 0.02 0 0.035 0.02 0 0.04 0.02 0 0.045 0.02 0 0.05 0.02 0 0.055 0.02 0 0.06 0.02 0 0.065 0.02 0 0.07 0.02 0 0.075 0.02 0 0.08 0.02 0 0.085 0.02 0 0.09 0.02 0 0.095 0.02 0 0.1 0.02 0 0.105 0.02 0 0.11 0.02 0 0.115 0.02 0 0.12 0.02 0 0.125 0.02 0 0.13 0.02 0 0.135 0.02 0 0.14 0.02 0 0.145 0.02 0 0.15 0.02 0 0.155 0.02 0 0.16 0.02 0 0.165 0.02 0 0.17 0.02 0 0.175 0.02 0 0.18 0.02 0 0.185 0.02 0 0.19 0.02 0 0.195 0.02 0 0.2 0.02 0 0.205 0.02 0 0.21 0.02 0 0.215 0.02 0 0.22 0.02 0 0.225 0.02 0 0.23 0.02 0 0.235 0.02 0 0.24 0.02 0 0.245 0.02 0 0.25 0.02 0 0.255 0.02 0 0.26 0.02 0 0.265 0.02 0 0.27 0.02 0 0.275 0.02 0 0.28 0.02 0 0.285 0.02 0 0.29 0.02 0 0.295 0.02 0 0.3 0.02 0 0.305 0.02 0 0.31 0.02 0 0.315 0.02 0 0.32 0.02 0 0.325 0.02 0 0.33 0.02 0 0.335 0.02 0 0.34 0.02 0 0.345 0.02 0 0.35 0.02 0 0.355 0.02 0 0.36 0.02 0 0.365 0.02 0 0.37 0.02 0 0.375 0.02 0 0.38 0.02 0 0.385 0.02 0 0.39 0.02 0 0.395002 0.02 0 0.400008 0.02 0 0.405028 0.02 0 0.410087 0.02 0 0.415227 0.02 0 0.420508 0.02 0 0.425992 0.02 0 0.431738 0.02 0 0.437799 0.02 0 0.444228 0.02 0 0.451085 0.02 0 0.458445 0.02 0 0.466395 0.02 0 0.475046 0.02 0 0.484533 0.02 0 0.495009 0.02 0 0.506568 0.02 0 0.518903 0.02 0 0.531129 0.02 0 0.543109 0.02 0 0.554937 0.02 0 0.566729 0.02 0 0.569345 0.02 0 0.571887 0.02 0 0.574384 0.02 0 0.57685 0.02 0 0.579296 0.02 0 0.581727 0.02 0 0.584149 0.02 0 0.586569 0.02 0 0.588989 0.02 0 0.591393 0.02 0 0.593786 0.02 0 0.596172 0.02 0 0.598555 0.02 0 0.600938 0.02 0 0.60332 0.02 0 0.605704 0.02 0 0.608092 0.02 0 0.610487 0.02 0 0.612894 0.02 0 0.615336 0.02 0 0.617856 0.02 0 0.620457 0.02 0 0.623211 0.02 0 0.626137 0.02 0 0.629332 0.02 0 0.632831 0.02 0 0.636686 0.02 0 0.640896 0.02 0 0.645418 0.02 0 0.650172 0.02 0 0.655064 0.02 0 0.660022 0.02 0 0.665007 0.02 0 0.670002 0.02 0 0.675001 0.02 0 0.68 0.02 0 0.685 0.02 0 0.69 0.02 0 0.695 0.02 0 0.7 0.02 0 0.705 0.02 0 0.71 0.02 0 0.715 0.02 0 0.72 0.02 0 0.725 0.02 0 0.73 0.02 0 0.735 0.02 0 0.74 0.02 0 0.745 0.02 0 0.75 0.02 0 0.755 0.02 0 0.76 0.02 0 0.765 0.02 0 0.77 0.02 0 0.775 0.02 0 0.78 0.02 0 0.785 0.02 0 0.79 0.02 0 0.795 0.02 0 0.8 0.02 0 0.805 0.02 0 0.81 0.02 0 0.815 0.02 0 0.82 0.02 0 0.825 0.02 0 0.83 0.02 0 0.835 0.02 0 0.84 0.02 0 0.845 0.02 0 0.85 0.02 0 0.855 0.02 0 0.86 0.02 0 0.865 0.02 0 0.87 0.02 0 0.875 0.02 0 0.88 0.02 0 0.885 0.02 0 0.89 0.02 0 0.895 0.02 0 0.9 0.02 0 0.905 0.02 0 0.91 0.02 0 0.915 0.02 0 0.92 0.02 0 0.925 0.02 0 0.93 0.02 0 0.935 0.02 0 0.94 0.02 0 0.945 0.02 0 0.95 0.02 0 0.955 0.02 0 0.96 0.02 0 0.965 0.02 0 0.97 0.02 0 0.975 0.02 0 0.98 0.02 0 0.985 0.02 0 0.99 0.02 0 0.995 0.02 0 1 0.02 0 0 0.04 0 0.005 0.04 0 0.01 0.04 0 0.015 0.04 0 0.02 0.04 0 0.025 0.04 0 0.03 0.04 0 0.035 0.04 0 0.04 0.04 0 0.045 0.04 0 0.05 0.04 0 0.055 0.04 0 0.06 0.04 0 0.065 0.04 0 0.07 0.04 0 0.075 0.04 0 0.08 0.04 0 0.085 0.04 0 0.09 0.04 0 0.095 0.04 0 0.1 0.04 0 0.105 0.04 0 0.11 0.04 0 0.115 0.04 0 0.12 0.04 0 0.125 0.04 0 0.13 0.04 0 0.135 0.04 0 0.14 0.04 0 0.145 0.04 0 0.15 0.04 0 0.155 0.04 0 0.16 0.04 0 0.165 0.04 0 0.17 0.04 0 0.175 0.04 0 0.18 0.04 0 0.185 0.04 0 0.19 0.04 0 0.195 0.04 0 0.2 0.04 0 0.205 0.04 0 0.21 0.04 0 0.215 0.04 0 0.22 0.04 0 0.225 0.04 0 0.23 0.04 0 0.235 0.04 0 0.24 0.04 0 0.245 0.04 0 0.25 0.04 0 0.255 0.04 0 0.26 0.04 0 0.265 0.04 0 0.27 0.04 0 0.275 0.04 0 0.28 0.04 0 0.285 0.04 0 0.29 0.04 0 0.295 0.04 0 0.3 0.04 0 0.305 0.04 0 0.31 0.04 0 0.315 0.04 0 0.32 0.04 0 0.325 0.04 0 0.33 0.04 0 0.335 0.04 0 0.34 0.04 0 0.345 0.04 0 0.35 0.04 0 0.355 0.04 0 0.36 0.04 0 0.365 0.04 0 0.37 0.04 0 0.375 0.04 0 0.38 0.04 0 0.385 0.04 0 0.39 0.04 0 0.395002 0.04 0 0.400008 0.04 0 0.405028 0.04 0 0.410087 0.04 0 0.415227 0.04 0 0.420508 0.04 0 0.425992 0.04 0 0.431738 0.04 0 0.437799 0.04 0 0.444228 0.04 0 0.451085 0.04 0 0.458445 0.04 0 0.466395 0.04 0 0.475046 0.04 0 0.484533 0.04 0 0.495009 0.04 0 0.506568 0.04 0 0.518903 0.04 0 0.531129 0.04 0 0.543109 0.04 0 0.554937 0.04 0 0.566729 0.04 0 0.569345 0.04 0 0.571887 0.04 0 0.574384 0.04 0 0.57685 0.04 0 0.579296 0.04 0 0.581727 0.04 0 0.584149 0.04 0 0.586569 0.04 0 0.588989 0.04 0 0.591393 0.04 0 0.593786 0.04 0 0.596172 0.04 0 0.598555 0.04 0 0.600938 0.04 0 0.60332 0.04 0 0.605704 0.04 0 0.608092 0.04 0 0.610487 0.04 0 0.612894 0.04 0 0.615336 0.04 0 0.617856 0.04 0 0.620457 0.04 0 0.623211 0.04 0 0.626137 0.04 0 0.629332 0.04 0 0.632831 0.04 0 0.636686 0.04 0 0.640896 0.04 0 0.645418 0.04 0 0.650172 0.04 0 0.655064 0.04 0 0.660022 0.04 0 0.665007 0.04 0 0.670002 0.04 0 0.675001 0.04 0 0.68 0.04 0 0.685 0.04 0 0.69 0.04 0 0.695 0.04 0 0.7 0.04 0 0.705 0.04 0 0.71 0.04 0 0.715 0.04 0 0.72 0.04 0 0.725 0.04 0 0.73 0.04 0 0.735 0.04 0 0.74 0.04 0 0.745 0.04 0 0.75 0.04 0 0.755 0.04 0 0.76 0.04 0 0.765 0.04 0 0.77 0.04 0 0.775 0.04 0 0.78 0.04 0 0.785 0.04 0 0.79 0.04 0 0.795 0.04 0 0.8 0.04 0 0.805 0.04 0 0.81 0.04 0 0.815 0.04 0 0.82 0.04 0 0.825 0.04 0 0.83 0.04 0 0.835 0.04 0 0.84 0.04 0 0.845 0.04 0 0.85 0.04 0 0.855 0.04 0 0.86 0.04 0 0.865 0.04 0 0.87 0.04 0 0.875 0.04 0 0.88 0.04 0 0.885 0.04 0 0.89 0.04 0 0.895 0.04 0 0.9 0.04 0 0.905 0.04 0 0.91 0.04 0 0.915 0.04 0 0.92 0.04 0 0.925 0.04 0 0.93 0.04 0 0.935 0.04 0 0.94 0.04 0 0.945 0.04 0 0.95 0.04 0 0.955 0.04 0 0.96 0.04 0 0.965 0.04 0 0.97 0.04 0 0.975 0.04 0 0.98 0.04 0 0.985 0.04 0 0.99 0.04 0 0.995 0.04 0 1 0.04 0 0 0.06 0 0.005 0.06 0 0.01 0.06 0 0.015 0.06 0 0.02 0.06 0 0.025 0.06 0 0.03 0.06 0 0.035 0.06 0 0.04 0.06 0 0.045 0.06 0 0.05 0.06 0 0.055 0.06 0 0.06 0.06 0 0.065 0.06 0 0.07 0.06 0 0.075 0.06 0 0.08 0.06 0 0.085 0.06 0 0.09 0.06 0 0.095 0.06 0 0.1 0.06 0 0.105 0.06 0 0.11 0.06 0 0.115 0.06 0 0.12 0.06 0 0.125 0.06 0 0.13 0.06 0 0.135 0.06 0 0.14 0.06 0 0.145 0.06 0 0.15 0.06 0 0.155 0.06 0 0.16 0.06 0 0.165 0.06 0 0.17 0.06 0 0.175 0.06 0 0.18 0.06 0 0.185 0.06 0 0.19 0.06 0 0.195 0.06 0 0.2 0.06 0 0.205 0.06 0 0.21 0.06 0 0.215 0.06 0 0.22 0.06 0 0.225 0.06 0 0.23 0.06 0 0.235 0.06 0 0.24 0.06 0 0.245 0.06 0 0.25 0.06 0 0.255 0.06 0 0.26 0.06 0 0.265 0.06 0 0.27 0.06 0 0.275 0.06 0 0.28 0.06 0 0.285 0.06 0 0.29 0.06 0 0.295 0.06 0 0.3 0.06 0 0.305 0.06 0 0.31 0.06 0 0.315 0.06 0 0.32 0.06 0 0.325 0.06 0 0.33 0.06 0 0.335 0.06 0 0.34 0.06 0 0.345 0.06 0 0.35 0.06 0 0.355 0.06 0 0.36 0.06 0 0.365 0.06 0 0.37 0.06 0 0.375 0.06 0 0.38 0.06 0 0.385 0.06 0 0.39 0.06 0 0.395002 0.06 0 0.400008 0.06 0 0.405028 0.06 0 0.410087 0.06 0 0.415227 0.06 0 0.420508 0.06 0 0.425992 0.06 0 0.431738 0.06 0 0.437799 0.06 0 0.444228 0.06 0 0.451085 0.06 0 0.458445 0.06 0 0.466395 0.06 0 0.475046 0.06 0 0.484533 0.06 0 0.495009 0.06 0 0.506568 0.06 0 0.518903 0.06 0 0.531129 0.06 0 0.543109 0.06 0 0.554937 0.06 0 0.566729 0.06 0 0.569345 0.06 0 0.571887 0.06 0 0.574384 0.06 0 0.57685 0.06 0 0.579296 0.06 0 0.581727 0.06 0 0.584149 0.06 0 0.586569 0.06 0 0.588989 0.06 0 0.591393 0.06 0 0.593786 0.06 0 0.596172 0.06 0 0.598555 0.06 0 0.600938 0.06 0 0.60332 0.06 0 0.605704 0.06 0 0.608092 0.06 0 0.610487 0.06 0 0.612894 0.06 0 0.615336 0.06 0 0.617856 0.06 0 0.620457 0.06 0 0.623211 0.06 0 0.626137 0.06 0 0.629332 0.06 0 0.632831 0.06 0 0.636686 0.06 0 0.640896 0.06 0 0.645418 0.06 0 0.650172 0.06 0 0.655064 0.06 0 0.660022 0.06 0 0.665007 0.06 0 0.670002 0.06 0 0.675001 0.06 0 0.68 0.06 0 0.685 0.06 0 0.69 0.06 0 0.695 0.06 0 0.7 0.06 0 0.705 0.06 0 0.71 0.06 0 0.715 0.06 0 0.72 0.06 0 0.725 0.06 0 0.73 0.06 0 0.735 0.06 0 0.74 0.06 0 0.745 0.06 0 0.75 0.06 0 0.755 0.06 0 0.76 0.06 0 0.765 0.06 0 0.77 0.06 0 0.775 0.06 0 0.78 0.06 0 0.785 0.06 0 0.79 0.06 0 0.795 0.06 0 0.8 0.06 0 0.805 0.06 0 0.81 0.06 0 0.815 0.06 0 0.82 0.06 0 0.825 0.06 0 0.83 0.06 0 0.835 0.06 0 0.84 0.06 0 0.845 0.06 0 0.8
[...]
			<PointData Scalars="VitesseX">
				<DataArray Name="VitesseX" type="Float32" format="ascii">
 0 5.09903e-16 9.89107e-16 -5.36453e-16 -2.86448e-15 4.37289e-16 1.90055e-15 1.12656e-15 -2.71934e-15 -4.81074e-15 5.18032e-15 -2.08303e-15 -3.94042e-15 -4.88574e-16 -2.27678e-15 -2.34908e-15 4.70228e-15 -7.25044e-15 8.57466e-15 -8.43341e-15 6.01519e-15 1.20608e-14 -2.36561e-15 5.51018e-15 1.10092e-14 -2.56988e-14 5.77902e-15 1.36993e-14 1.75899e-14 -1.10212e-14 -5.16509e-15 4.26686e-15 6.28856e-15 9.12511e-15 -2.47126e-14 2.72447e-14 -6.03641e-15 1.33037e-14 -6.86817e-15 1.70541e-14 -2.55986e-14 1.49445e-14 2.11818e-14 -3.89598e-14 1.03774e-14 -1.48487e-14 1.36057e-14 1.47723e-14 -1.5948e-14 2.3466e-14 1.09941e-14 2.10391e-14 2.12405e-14 2.28598e-14 2.83041e-14 -1.48617e-14 4.00591e-14 3.56357e-14 -5.64166e-14 -5.16892e-15 1.78502e-14 -1.42639e-14 6.02461e-15 -3.38638e-15 -4.55309e-15 3.37925e-14 -1.33331e-14 2.11695e-14 1.184e-13 1.04083e-12 1.29155e-11 1.37883e-10 1.35711e-09 1.2183e-08 9.92695e-08 7.29713e-07 4.80431e-06 2.80856e-05 0.000144241 0.000642308 0.00244101 0.00778337 0.0205466 0.0448427 0.0822965 0.131208 0.188649 0.252533 0.322 0.396974 0.477769 0.564861 0.658634 0.758721 0.861648 0.951677 0.974966 0.950007 0.935496 0.929877 0.92784 0.927525 0.927277 0.92713 0.927075 0.927247 0.927032 0.9266 0.925954 0.925031 0.924228 0.923434 0.923045 0.922849 0.92287 0.924244 0.925137 0.92152 0.907413 0.909143 0.876489 0.866919 0.799329 0.77531 0.665065 0.584219 0.45352 0.329777 0.210177 0.115451 0.0536017 0.0215194 0.00784728 0.00271025 0.000905688 0.000295177 9.40243e-05 2.92736e-05 8.90336e-06 2.64362e-06 7.65885e-07 2.16395e-07 5.96064e-08 1.60022e-08 4.18622e-09 1.06694e-09 2.65023e-10 6.40597e-11 1.50922e-11 3.59329e-12 7.47873e-13 1.72939e-13 7.25237e-14 6.4442e-14 2.52114e-14 3.98911e-14 -6.33834e-14 1.00119e-13 6.93756e-14 -5.0279e-14 4.54452e-15 1.16682e-13 -7.82423e-14 -2.61033e-15 -1.20199e-15 -5.02599e-14 -5.04794e-14 1.4145e-14 -8.83295e-17 1.66054e-14 -8.4164e-14 -9.14881e-14 1.40545e-13 7.2097e-14 -9.0584e-14 1.39735e-14 -7.90245e-14 -9.11915e-14 -5.03949e-14 7.97956e-15 9.56569e-15 -7.00557e-14 7.18697e-14 -1.82818e-13 6.42605e-14 2.94623e-14 -1.48356e-13 3.23247e-14 -7.62026e-14 1.98078e-13 3.83421e-14 -1.8399e-13 8.61214e-14 -9.71542e-14 -9.57825e-14 -2.06224e-14 8.47088e-14 -1.28534e-13 5.72677e-14 -5.52778e-14 0 0 9.92394e-16 1.23602e-16 -7.37699e-16 2.26359e-15 -2.76844e-15 9.26119e-16 -2.08403e-15 1.2715e-15 3.20892e-15 -7.04266e-15 2.62681e-16 3.67685e-15 -7.05356e-15 4.56572e-15 -1.39781e-16 1.866e-16 2.26948e-15 -4.18932e-15 6.52203e-15 -7.24998e-15 6.94259e-15 -6.22189e-15 1.22609e-14 1.08341e-14 8.86258e-15 -2.45235e-14 1.81243e-14 6.99861e-15 -3.59573e-15 -4.70834e-15 1.38308e-14 -1.00601e-14 6.26383e-15 5.89827e-15 -8.03418e-15 6.10866e-15 3.44785e-15 1.38038e-14 -8.19641e-15 1.92716e-14 -1.59788e-14 -8.47218e-15 2.77898e-14 -2.02484e-14 -2.28575e-15 -1.04746e-14 4.75065e-14 5.76569e-15 -2.36873e-14 3.92527e-14 1.91122e-14 -1.41853e-14 6.25714e-15 4.58277e-14 -1.18794e-14 1.76402e-15 2.40378e-14 1.82665e-15 -2.10871e-14 -1.87521e-14 3.28448e-14 -1.10025e-14 2.12826e-14 -1.12988e-14 2.86257e-14 -1.12823e-14 2.86763e-14 1.09902e-13 1.09635e-12 1.28804e-11 1.37884e-10 1.35712e-09 1.21829e-08 9.92694e-08 7.29713e-07 4.80431e-06 2.80856e-05 0.000144241 0.000642308 0.00244101 0.00778337 0.0205466 0.0448427 0.0822965 0.131208 0.188649 0.252533 0.322 0.396974 0.477769 0.564861 0.658634 0.758721 0.861648 0.951677 0.974966 0.950007 0.935496 0.929877 0.92784 0.927525 0.927277 0.92713 0.927075 0.927247 0.927032 0.9266 0.925954 0.925031 0.924228 0.923434 0.923045 0.922849 0.92287 0.924244 0.925137 0.92152 0.907413 0.909143 0.876489 0.866919 0.799329 0.77531 0.665065 0.584219 0.45352 0.329777 0.210177 0.115451 0.0536017 0.0215194 0.00784728 0.00271025 0.000905688 0.000295177 9.40243e-05 2.92736e-05 8.90336e-06 2.64362e-06 7.65885e-07 2.16395e-07 5.96064e-08 1.60022e-08 4.18625e-09 1.06698e-09 2.64943e-10 6.41623e-11 1.50938e-11 3.50305e-12 7.75939e-13 2.02016e-13 1.31222e-13 -8.12672e-14 -7.6218e-14 1.32143e-13 6.91521e-14 1.27059e-15 3.37056e-14 -2.35224e-14 -3.1203e-14 1.11633e-13 -4.04413e-14 1.45089e-14 -9.29758e-14 8.34141e-14 3.73423e-14 7.33836e-14 -1.35994e-13 -3.35031e-14 -4.91708e-14 2.6202e-15 -4.99659e-14 1.14453e-13 -3.66419e-15 5.08224e-14 -9.0636e-14 -2.07239e-14 -8.25141e-14 6.91309e-14 -1.31205e-13 1.23778e-13 -1.02813e-13 -1.0401e-13 -9.24595e-14 3.19887e-14 1.89245e-14 -8.98195e-14 1.08362e-14 6.00462e-14 -1.08854e-14 -1.93487e-15 -5.36213e-14 -2.07143e-14 -5.07275e-14 -1.53189e-14 -9.03204e-14 9.71432e-15 -6.5551e-14 3.69684e-14 0 0 2.52549e-16 2.31956e-15 9.90732e-16 3.16474e-15 -2.66398e-15 -3.21609e-16 -2.08202e-15 3.28449e-15 2.98483e-16 5.59089e-15 -6.94094e-15 5.05264e-15 -5.2146e-15 1.35267e-14 3.89026e-15 2.93788e-15 -1.02483e-14 -8.12573e-15 -8.00488e-15 3.24813e-15 2.40696e-15 8.51392e-15 -3.0772e-15 1.73584e-14 1.6728e-14 -1.63347e-14 1.53653e-14 -2.73275e-14 1.40632e-14 2.40637e-14 -6.84698e-15 5.43875e-15 -1.13521e-14 3.76114e-14 -2.51837e-14 -2.35733e-14 2.62319e-14 2.96563e-14 2.29546e-14 -1.6232e-14 -2.08461e-14 -7.0869e-15 2.8462e-14 -8.73048e-15 -1.36013e-14 1.98946e-14 -2.98521e-15 4.62227e-14 -1.07003e-14 3.55201e-14 -4.25706e-14 -2.88598e-14 -3.6743e-14 8.48324e-14 -1.54743e-14 1.43854e-14 3.45805e-14 -1.4643e-14 -2.74774e-14 4.79087e-16 1.95818e-14 3.81793e-14 -4.88955e-15 6.38586e-15 2.86418e-14 -1.25882e-14 3.72163e-14 9.23359e-14 1.16775e-12 1.28513e-11 1.37895e-10 1.35699e-09 1.2183e-08 9.92693e-08 7.29713e-07 4.80431e-06 2.80856e-05 0.000144241 0.000642308 0.00244101 0.00778337 0.0205466 0.0448427 0.0822965 0.131208 0.188649 0.252533 0.322 0.396974 0.477769 0.564861 0.658634 0.758721 0.861648 0.951677 0.974966 0.950007 0.935496 0.929877 0.92784 0.927525 0.927277 0.92713 0.927075 0.927247 0.927032 0.9266 0.925954 0.925031 0.924228 0.923434 0.923045 0.922849 0.92287 0.924244 0.925137 0.92152 0.907413 0.909143 0.876489 0.866919 0.799329 0.77531 0.665065 0.584219 0.45352 0.329777 0.210177 0.115451 0.0536017 0.0215194 0.00784728 0.00271025 0.000905688 0.000295177 9.40243e-05 2.92736e-05 8.90336e-06 2.64362e-06 7.65885e-07 2.16395e-07 5.96065e-08 1.60022e-08 4.18629e-09 1.06696e-09 2.65025e-10 6.41647e-11 1.50621e-11 3.46046e-12 8.09224e-13 2.13419e-13 9.37239e-14 -4.51667e-14 -3.84067e-14 6.30146e-14 1.5457e-13 -8.82716e-14 -1.20763e-13 9.44141e-14 -8.34995e-14 1.44853e-13 -1.00057e-13 1.4773e-13 1.55663e-13 -4.26917e-14 3.93292e-14 3.42704e-14 -9.76437e-14 -1.02348e-13 -6.74601e-15 1.98728e-14 -6.67686e-14 6.90935e-14 1.2549e-14 3.05772e-14 7.74488e-14 -3.20172e-14 -3.64796e-14 4.56666e-14 -6.9176e-14 -9.36172e-14 -1.0088e-13 -4.55904e-14 -8.44926e-14 -1.59394e-13 1.65569e-13 -8.91365e-14 6.95179e-14 -1.55791e-13 6.60773e-14 3.96836e-14 -7.02412e-14 -1.98584e-14 -1.1298e-13 -1.05681e-14 1.11025e-14 -7.74385e-14 -7.40202e-14 3.59224e-14 0 0 -1.65353e-15 -8.72934e-17 7.00558e-16 7.62015e-16 2.91013e-15 -1.84979e-15 -2.23044e-15 2.06021e-15 -1.25458e-15 9.59956e-15 -1.06012e-14 2.47287e-15 6.80205e-15 7.25677e-15 -6.38249e-15 7.82996e-15 -7.99232e-15 -1.70825e-14 -7.50621e-15 1.29543e-14 -7.33805e-15 2.80897e-14 1.208e-14 -1.23757e-14 1.8001e-14 1.21359e-14 -2.55572e-14 -7.33208e-15 4.9267e-15 2.40791e-14 -5.46762e-15 3.01167e-14 -5.27577e-16 5.25199e-16 2.62249e-14 -4.30548e-14 2.73319e-14 2.77719e-14 -1.41505e-14 1.08337e-14 1.45684e-14 1.78384e-14 -4.10806e-14 1.8219e-14 -1.71487e-14 1.44551e-15 1.42504e-14 1.72233e-14 3.45649e-14 8.05975e-15 -5.17776e-14 -3.56172e-14 -1.38811e-14 -3.37157e-15 2.77667e-14 3.48303e-14 1.13518e-14 3.73608e-14 -5.5821e-14 1.91954e-14 4.55227e-14 2.29025e-14 1.76514e-14 8.51664e-15 -1.76471e-14 6.97616e-14 1.21389e-14 7.76725e-14 1.09191e-12 1.2871e-11 1.37953e-10 1.35696e-09 1.2183e-08 9.92694e-08 7.29713e-07 4.80431e-06 2.80856e-05 0.000144241 0.000642308 0.00244101 0.00778337 0.0205466 0.0448427 0.0822965 0.131208 0.188649 0.252533 0.322 0.396974 0.477769 0.564861 0.658634 0.758721 0.861648 0.951677 0.974966 0.950007 0.935496 0.929877 0.92784 0.927525 0.927277 0.92713 0.927075 0.927247 0.927032 0.9266 0.925954 0.925031 0.924228 0.923434 0.923045 0.922849 0.92287 0.924244 0.925137 0.92152 0.907413 0.909143 0.876489 0.866919 0.799329 0.77531 0.665065 0.584219 0.45352 0.329777 0.210177 0.115451 0.0536017 0.0215194 0.00784728 0.00271025 0.000905688 0.000295177 9.40243e-05 2.92736e-05 8.90336e-06 2.64362e-06 7.65885e-07 2.16395e-07 5.96064e-08 1.60024e-08 4.18627e-09 1.06706e-09 2.64959e-10 6.41261e-11 1.51563e-11 3.49341e-12 8.17859e-13 5.55959e-14 5.35357e-14 1.1591e-13 1.2237e-13 -4.57473e-14 7.62883e-14 -8.44352e-14 6.11903e-14 -3.76341e-14 -1.31401e-13 7.39763e-14 -1.7954e-13 2.41938e-13 1.15659e-13 3.642e-15 -3.69727e-14 -1.35835e-13 1.24256e-13 7.89661e-14 2.03551e-14 1.26523e-14 9.28251e-15 -1.07987e-13 -2.06447e-13 1.39831e-14 2.45329e-13 -1.652e-15 -2.24462e-14 1.12191e-13 -1.29174e-14 -3.07659e-13 -6.75747e-14 -1.52917e-13 1.37868e-13 -1.65987e-13 -3.69508e-14 6.08354e-14 1.89805e-15 -8.95718e-14 -7.54495e-15 -3.83889e-14 4.21557e-14 -9.74317e-14 -2.47744e-14 -8.49603e-14 1.68098e-14 -2.98449e-14 -1.03399e-13 -6.17377e-14 0 0 -1.40867e-16 -3.84924e-15 -1.2825e-15 1.9831e-15 1.28289e-15 4.33623e-15 5.76989e-16 -2.81045e-15 7.79792e-15 -7.73953e-15 4.18892e-15 -2.37499e-15 4.46712e-15 -1.75761e-15 -1.31763e-14 1.54459e-15 6.04109e-15 -1.52671e-14 1.07658e-14 -3.47164e-15 -8.83073e-15 4.77947e-15 1.82541e-14 -1.29107e-14 1.65057e-14 9.70641e-15 -3.28523e-14 1.38622e-14 -4.16811e-15 2.04266e-14 2.0661e-14 2.31501e-14 5.49404e-14 -9.43628e-15 -1.24291e-14 -1.08841e-14 -2.13837e-14 3.53451e-15 -2.49548e-14 9.26498e-14 2.76564e-14 -2.50981e-14 -7.97362e-15 -1.91349e-14 3.36831e-15 -2.55251e-14 7.21737e-14 5.72322e-14 -2.32582e-14 -1.42206e-14 -2.7078e-14 -6.30611e-14 2.31215e-14 -2.11556e-14 6.37568e-14 3.33326e-14 -4.48572e-14 7.44186e-14 -2.44592e-14 -2.34664e-14 8.24732e-14 2.6602e-16 8.14236e-15 1.53944e-14 1.50596e-14 3.54982e-14 3.65376e-14 8.97594e-14 1.04674e-12 1.28847e-11 1.37941e-10 1.35695e-09 1.21828e-08 9.92694e-08 7.29713e-07 4.80431e-06 2.80856e-05 0.000144241 0.000642308 0.00244101 0.00778337 0.0205466 0.0448427 0.0822965 0.131208 0.188649 0.252533 0.322 0.396974 0.477769 0.564861 0.658634 0.758721 0.861648 0.951677 0.974966 0.950007 0.935496 0.929877 0.92784 0.927525 0.927277 0.92713 0.927075 0.927247 0.927032 0.9266 0.925954 0.925031 0.924228 0.923434 0.923045 0.922849 0.92287 0.924244 0.925137 0.92152 0.907413 0.909143 0.876489 0.866919 0.799329 0.77531 0.665065 0.584219 0.45352 0.329777 0.210177 0.115451 0.0536017 0.0215194 0.00784728 0.00271025 0.000905688 0.000295177 9.40243e-05 2.92736e-05 8.90336e-06 2.64362e-06 7.65884e-07 2.16395e-07 5.96062e-08 1.60023e-08 4.18634e-09 1.0671e-09 2.64981e-10 6.41353e-11 1.51756e-11 3.63053e-12 8.12607e-13 9.18975e-14 -1.40904e-14 9.71776e-14 4.37691e-14 -7.01476e-14 1.05412e-13 -1.78523e-13 2.9367e-13 -1.61885e-13 -1.20944e-13 -3.83013e-14 -2.50292e-13 9.92758e-14 -2.71728e-14 1.76034e-13 4.48154e-14 -1.07559e-14 1.24264e-13 1.63298e-13 1.48011e-13 -1.97321e-13 1.74569e-16 -3.37499e-13 -1.21675e-13 -2.02552e-14 7.20549e-14 1.30602e-13 9.66321e-14 2.45663e-13 -1.05446e-13 -2.53241e-13 -1.36496e-13 -6.56029e-14 1.85281e-13 4.19024e-14 -1.53816e-13 -2.02359e-13 1.85769e-13 -1.07139e-14 -1.97083e-13 -4.35317e-14 -3.97175e-14 -8.73809e-14 9.37685e-14 -1.16735e-13 -7.02743e-14 2.40637e-14 -1.45318e-13 3.63009e-14 0 0 2.05553e-15 -2.14286e-15 -1.0457e-15 1.37999e-15 -2.60827e-15 1.17771e-14 6.74546e-15 -8.43468e-15 7.47339e-15 -4.23078e-15 1.309e-14 -1.08845e-14 -1.48052e-15 -2.38368e-15 -7.8766e-15 -2.36589e-15 -4.21916e-15 4.33259e-15 -9.43148e-16 -5.84053e-15 4.17404e-18 -1.95144e-14 -1.28179e-14 2.29879e-14 -1.29585e-14 1.72977e-14 -6.40883e-15 -8.6738e-15 6.10703e-15 4.50739e-14 1.51685e-14 2.3353e-14 8.48293e-14 1.87907e-14 -8.43624e-14 -1.05906e-15 -3.85593e-14 -2.3638e-14 5.77476e-14 6.70265e-14 3.1386e-14 -6.19207e-14 2.85984e-14 -4.12946e-14 3.55415e-15 2.04029e-14 2.96354e-14 1.44984e-13 -6.62063e-14 -4.10317e-14 -5.29272e-14 -6.29964e-14 1.08646e-14 7.07453e-14 4.99287e-14 6.23064e-14 -5.56971e-14 -1.52401e-14 4.4774e-14 -2.90111e-14 3.3111e-14 5.91152e-14 -7.47489e-14 4.45718e-14 9.92381e-14 -8.44718e-14 8.7047e-14 1.07441e-13 1.09331e-12 1.28849e-11 1.37881e-10 1.35683e-09 1.21828e-08 9.92694e-08 7.29713e-07 4.80431e-06 2.80856e-05 0.000144241 0.000642308 0.00244101 0.00778337 0.0205466 0.0448427 0.0822965 0.131208 0.188649 0.252533 0.322 0.396974 0.477769 0.564861 0.658634 0.758721 0.861648 0.951677 0.974966 0.950007 0.935496 0.929877 0.92784 0.927525 0.927277 0.92713 0.927075 0.927247 0.927032 0.9266 0.925954 0.925031 0.924228 0.923434 0.923045 0.922849 0.92287 0.924244 0.925137 0.92152 0.907413 0.909143 0.876489 0.866919 0.799329 0.77531 0.665065 0.584219 0.45352 0.329777 0.210177 0.115451 0.0536017 0.0215194 0.00784728 0.00271025 0.000905688 0.000295177 9.40243e-05 2.92736e-05 8.90336e-06 2.64362e-06 7.65884e-07 2.16396e-07 5.96062e-08 1.60021e-08 4.18643e-09 1.06698e-09 2.65231e-10 6.40825e-11 1.50668e-11 3.78232e-12 8.03911e-13 2.68404e-13 -1.37422e-13 9.91766e-14 -5.61372e-14 -1.46748e-13 1.66318e-13 -2.669e-13 2.25382e-13 -6.23853e-14 -7.85928e-14 -4.11309e-14 -3.38618e-13 -2.11879e-14 2.10182e-13 4.2261e-14 1.17074e-13 1.86209e-13 7.65447e-14 4.70279e-14 2.55879e-13 -4.76894e-13 8.8565e-14 -4.7794e-13 1.11005e-13 -9.55417e-14 -8.93268e-14 1.51097e-13 2.79922e-13 2.28163e-13 -5.15006e-14 -3.96218e-13 -6.20723e-14 1.08594e-13 1.75234e-13 6.28788e-14 -8.79821e-14 -4.92094e-13 4.08593e-13 -7.60841e-14 -1.86955e-13 -1.11134e-13 -1.11079e-13 -7.55156e-14 1.693e-14 -7.47101e-14 1.13066e-13 -1.95286e-13 -4.40502e-14 1.38224e-13 0
				</DataArray>
				<DataArray Name="VitesseY" type="Float32" format="ascii">