<?xml version="1.0"?>
<VTKFile type="PolyData">
	<PolyData>
		<Piece NumberOfPoints="1206" NumberOfPolys="1000">
			<Points>
				<DataArray type="Float32" NumberOfComponents="3" format="ascii">
 0 0 0 0.005 0 0 0.01 0 0 0.015 0 0 0.02 0 0 0.025 0 0 0.03 0 0 0.035 0 0 0.04 0 0 0.045 0 0 0.05 0 0 0.055 0 0 0.06 0 0 0.065 0 0 0.07 0 0 0.075 0 0 0.08 0 0 0.085 0 0 0.09 0 0 0.095 0 0 0.1 0 0 0.105 0 0 0.11 0 0 0.115 0 0 0.12 0 0 0.125 0 0 0.13 0 0 0.135 0 0 0.14 0 0 0.145 0 0 0.15 0 0 0.155 0 0 0.16 0 0 0.165 0 0 0.17 0 0 0.175 0 0 0.18 0 0 0.185 0 0 0.19 0 0 0.195 0 0 0.2 0 0 0.205 0 0 0.21 0 0 0.215 0 0 0.22 0 0 0.225 0 0 0.23 0 0 0.235 0 0 0.24 0 0 0.245 0 0 0.25 0 0 0.255 0 0 0.26 0 0 0.265001 0 0 0.270004 0 0 0.27501 0 0 0.280026 0 0 0.28506 0 0 0.290125 0 0 0.295237 0 0 0.300415 0 0 0.305674 0 0 0.311027 0 0 0.316486 0 0 0.322058 0 0 0.327753 0 0 0.333578 0 0 0.339542 0 0 0.345652 0 0 0.351918 0 0 0.358349 0 0 0.364956 0 0 0.37175 0 0 0.378743 0 0 0.385949 0 0 0.393382 0 0 0.401059 0 0 0.408999 0 0 0.41722 0 0 0.425747 0 0 0.434603 0 0 0.443818 0 0 0.45342 0 0 0.463443 0 0 0.473921 0 0 0.484883 0 0 0.496341 0 0 0.508246 0 0 0.520385 0 0 0.532464 0 0 0.544446 0 0 0.556332 0 0 0.568144 0 0 0.57991 0 0 0.591652 0 0 0.603384 0 0 0.615111 0 0 0.626837 0 0 0.638562 0 0 0.650289 0 0 0.66203 0 0 0.664638 0 0 0.667172 0 0 0.66966 0 0 0.672119 0 0 0.674555 0 0 0.676976 0 0 0.679386 0 0 0.681788 0 0 0.684189 0 0 0.686591 0 0 0.688996 0 0 0.691401 0 0 0.693804 0 0 0.696202 0 0 0.698592 0 0 0.700977 0 0 0.703358 0 0 0.705736 0 0 0.708112 0 0 0.710486 0 0 0.712859 0 0 0.715231 0 0 0.717602 0 0 0.719972 0 0 0.722341 0 0 0.72471 0 0 0.727078 0 0 0.729446 0 0 0.731814 0 0 0.734181 0 0 0.736548 0 0 0.738915 0 0 0.741281 0 0 0.743648 0 0 0.746014 0 0 0.748381 0 0 0.750747 0 0 0.753113 0 0 0.755479 0 0 0.757845 0 0 0.760211 0 0 0.762577 0 0 0.764944 0 0 0.76731 0 0 0.769676 0 0 0.772043 0 0 0.774411 0 0 0.776779 0 0 0.779148 0 0 0.78152 0 0 0.783894 0 0 0.786276 0 0 0.788665 0 0 0.791074 0 0 0.793502 0 0 0.795978 0 0 0.798495 0 0 0.801109 0 0 0.803813 0 0 0.806708 0 0 0.809816 0 0 0.813233 0 0 0.816988 0 0 0.821102 0 0 0.825543 0 0 0.830238 0 0 0.835095 0 0 0.840036 0 0 0.845013 0 0 0.850005 0 0 0.855002 0 0 0.860001 0 0 0.865 0 0 0.87 0 0 0.875 0 0 0.88 0 0 0.885 0 0 0.89 0 0 0.895 0 0 0.9 0 0 0.905 0 0 0.91 0 0 0.915 0 0 0.92 0 0 0.925 0 0 0.93 0 0 0.935 0 0 0.94 0 0 0.945 0 0 0.95 0 0 0.955 0 0 0.96 0 0 0.965 0 0 0.97 0 0 0.975 0 0 0.98 0 0 0.985 0 0 0.99 0 0 0.995 0 0 1 0 0 0 0.02 0 0.005 0.02 0 0.01 0.02 0 0.015 0.02 0 0.02 0.02 0 0.025 0.02 0 0.03 0.02 0 0.035 0.02 0 0.04 0.02 0 0.045 0.02 0 0.05 0.02 0 0.055 0.02 0 0.06 0.02 0 0.065 0.02 0 0.07 0.02 0 0.075 0.02 0 0.08 0.02 0 0.085 0.02 0 0.09 0.02 0 0.095 0.02 0 0.1 0.02 0 0.105 0.02 0 0.11 0.02 0 0.115 0.02 0 0.12 0.02 0 0.125 0.02 0 0.13 0.02 0 0.135 0.02 0 0.14 0.02 0 0.145 0.02 0 0.15 0.02 0 0.155 0.02 0 0.16 0.02 0 0.165 0.02 0 0.17 0.02 0 0.175 0.02 0 0.18 0.02 0 0.185 0.02 0 0.19 0.02 0 0.195 0.02 0 0.2 0.02 0 0.205 0.02 0 0.21 0.02 0 0.215 0.02 0 0.22 0.02 0 0.225 0.02 0 0.23 0.02 0 0.235 0.02 0 0.24 0.02 0 0.245 0.02 0 0.25 0.02 0 0.255 0.02 0 0.26 0.02 0 0.265001 0.02 0 0.270004 0.02 0 0.27501 0.02 0 0.280026 0.02 0 0.28506 0.02 0 0.290125 0.02 0 0.295237 0.02 0 0.300415 0.02 0 0.305674 0.02 0 0.311027 0.02 0 0.316486 0.02 0 0.322058 0.02 0 0.327753 0.02 0 0.333578 0.02 0 0.339542 0.02 0 0.345652 0.02 0 0.351918 0.02 0 0.358349 0.02 0 0.364956 0.02 0 0.37175 0.02 0 0.378743 0.02 0 0.385949 0.02 0 0.393382 0.02 0 0.401059 0.02 0 0.408999 0.02 0 0.41722 0.02 0 0.425747 0.02 0 0.434603 0.02 0 0.443818 0.02 0 0.45342 0.02 0 0.463443 0.02 0 0.473921 0.02 0 0.484883 0.02 0 0.496341 0.02 0 0.508246 0.02 0 0.520385 0.02 0 0.532464 0.02 0 0.544446 0.02 0 0.556332 0.02 0 0.568144 0.02 0 0.57991 0.02 0 0.591652 0.02 0 0.603384 0.02 0 0.615111 0.02 0 0.626837 0.02 0 0.638562 0.02 0 0.650289 0.02 0 0.66203 0.02 0 0.664638 0.02 0 0.667172 0.02 0 0.66966 0.02 0 0.672119 0.02 0 0.674555 0.02 0 0.676976 0.02 0 0.679386 0.02 0 0.681788 0.02 0 0.684189 0.02 0 0.686591 0.02 0 0.688996 0.02 0 0.691401 0.02 0 0.693804 0.02 0 0.696202 0.02 0 0.698592 0.02 0 0.700977 0.02 0 0.703358 0.02 0 0.705736 0.02 0 0.708112 0.02 0 0.710486 0.02 0 0.712859 0.02 0 0.715231 0.02 0 0.717602 0.02 0 0.719972 0.02 0 0.722341 0.02 0 0.72471 0.02 0 0.727078 0.02 0 0.729446 0.02 0 0.731814 0.02 0 0.734181 0.02 0 0.736548 0.02 0 0.738915 0.02 0 0.741281 0.02 0 0.743648 0.02 0 0.746014 0.02 0 0.748381 0.02 0 0.750747 0.02 0 0.753113 0.02 0 0.755479 0.02 0 0.757845 0.02 0 0.760211 0.02 0 0.762577 0.02 0 0.764944 0.02 0 0.76731 0.02 0 0.769676 0.02 0 0.772043 0.02 0 0.774411 0.02 0 0.776779 0.02 0 0.779148 0.02 0 0.78152 0.02 0 0.783894 0.02 0 0.786276 0.02 0 0.788665 0.02 0 0.791074 0.02 0 0.793502 0.02 0 0.795978 0.02 0 0.798495 0.02 0 0.801109 0.02 0 0.803813 0.02 0 0.806708 0.02 0 0.809816 0.02 0 0.813233 0.02 0 0.816988 0.02 0 0.821102 0.02 0 0.825543 0.02 0 0.830238 0.02 0 0.835095 0.02 0 0.840036 0.02 0 0.845013 0.02 0 0.850005 0.02 0 0.855002 0.02 0 0.860001 0.02 0 0.865 0.02 0 0.87 0.02 0 0.875 0.02 0 0.88 0.02 0 0.885 0.02 0 0.89 0.02 0 0.895 0.02 0 0.9 0.02 0 0.905 0.02 0 0.91 0.02 0 0.915 0.02 0 0.92 0.02 0 0.925 0.02 0 0.93 0.02 0 0.935 0.02 0 0.94 0.02 0 0.945 0.02 0 0.95 0.02 0 0.955 0.02 0 0.96 0.02 0 0.965 0.02 0 0.97 0.02 0 0.975 0.02 0 0.98 0.02 0 0.985 0.02 0 0.99 0.02 0 0.995 0.02 0 1 0.02 0 0 0.04 0 0.005 0.04 0 0.01 0.04 0 0.015 0.04 0 0.02 0.04 0 0.025 0.04 0 0.03 0.04 0 0.035 0.04 0 0.04 0.04 0 0.045 0.04 0 0.05 0.04 0 0.055 0.04 0 0.06 0.04 0 0.065 0.04 0 0.07 0.04 0 0.075 0.04 0 0.08 0.04 0 0.085 0.04 0 0.09 0.04 0 0.095 0.04 0 0.1 0.04 0 0.105 0.04 0 0.11 0.04 0 0.115 0.04 0 0.12 0.04 0 0.125 0.04 0 0.13 0.04 0 0.135 0.04 0 0.14 0.04 0 0.145 0.04 0 0.15 0.04 0 0.155 0.04 0 0.16 0.04 0 0.165 0.04 0 0.17 0.04 0 0.175 0.04 0 0.18 0.04 0 0.185 0.04 0 0.19 0.04 0 0.195 0.04 0 0.2 0.04 0 0.205 0.04 0 0.21 0.04 0 0.215 0.04 0 0.22 0.04 0 0.225 0.04 0 0.23 0.04 0 0.235 0.04 0 0.24 0.04 0 0.245 0.04 0 0.25 0.04 0 0.255 0.04 0 0.26 0.04 0 0.265001 0.04 0 0.270004 0.04 0 0.27501 0.04 0 0.280026 0.04 0 0.28506 0.04 0 0.290125 0.04 0 0.295237 0.04 0 0.300415 0.04 0 0.305674 0.04 0 0.311027 0.04 0 0.316486 0.04 0 0.322058 0.04 0 0.327753 0.04 0 0.333578 0.04 0 0.339542 0.04 0 0.345652 0.04 0 0.351918 0.04 0 0.358349 0.04 0 0.364956 0.04 0 0.37175 0.04 0 0.378743 0.04 0 0.385949 0.04 0 0.393382 0.04 0 0.401059 0.04 0 0.408999 0.04 0 0.41722 0.04 0 0.425747 0.04 0 0.434603 0.04 0 0.443818 0.04 0 0.45342 0.04 0 0.463443 0.04 0 0.473921 0.04 0 0.484883 0.04 0 0.496341 0.04 0 0.508246 0.04 0 0.520385 0.04 0 0.532464 0.04 0 0.544446 0.04 0 0.556332 0.04 0 0.568144 0.04 0 0.57991 0.04 0 0.591652 0.04 0 0.603384 0.04 0 0.615111 0.04 0 0.626837 0.04 0 0.638562 0.04 0 0.650289 0.04 0 0.66203 0.04 0 0.664638 0.04 0 0.667172 0.04 0 0.66966 0.04 0 0.672119 0.04 0 0.674555 0.04 0 0.676976 0.04 0 0.679386 0.04 0 0.681788 0.04 0 0.684189 0.04 0 0.686591 0.04 0 0.688996 0.04 0 0.691401 0.04 0 0.693804 0.04 0 0.696202 0.04 0 0.698592 0.04 0 0.700977 0.04 0 0.703358 0.04 0 0.705736 0.04 0 0.708112 0.04 0 0.710486 0.04 0 0.712859 0.04 0 0.715231 0.04 0 0.717602 0.04 0 0.719972 0.04 0 0.722341 0.04 0 0.72471 0.04 0 0.727078 0.04 0 0.729446 0.04 0 0.731814 0.04 0 0.734181 0.04 0 0.736548 0.04 0 0.738915 0.04 0 0.741281 0.04 0 0.743648 0.04 0 0.746014 0.04 0 0.748381 0.04 0 0.750747 0.04 0 0.753113 0.04 0 0.755479 0.04 0 0.757845 0.04 0 0.760211 0.04 0 0.762577 0.04 0 0.764944 0.04 0 0.76731 0.04 0 0.769676 0.04 0 0.772043 0.04 0 0.774411 0.04 0 0.776779 0.04 0 0.779148 0.04 0 0.78152 0.04 0 0.783894 0.04 0 0.786276 0.04 0 0.788665 0.04 0 0.791074 0.04 0 0.793502 0.04 0 0.795978 0.04 0 0.798495 0.04 0 0.801109 0.04 0 0.803813 0.04 0 0.806708 0.04 0 0.809816 0.04 0 0.813233 0.04 0 0.816988 0.04 0 0.821102 0.04 0 0.825543 0.04 0 0.830238 0.04 0 0.835095 0.04 0 0.840036 0.04 0 0.845013 0.04 0 0.850005 0.04 0 0.855002 0.04 0 0.860001 0.04 0 0.865 0.04 0 0.87 0.04 0 0.875 0.04 0 0.88 0.04 0 0.885 0.04 0 0.89 0.04 0 0.895 0.04 0 0.9 0.04 0 0.905 0.04 0 0.91 0.04 0 0.915 0.04 0 0.92 0.04 0 0.925 0.04 0 0.93 0.04 0 0.935 0.04 0 0.94 0.04 0 0.945 0.04 0 0.95 0.04 0 0.955 0.04 0 0.96 0.04 0 0.965 0.04 0 0.97 0.04 0 0.975 0.04 0 0.98 0.04 0 0.985 0.04 0 0.99 0.04 0 0.995 0.04 0 1 0.04 0 0 0.06 0 0.005 0.06 0 0.01 0.06 0 0.015 0.06 0 0.02 0.06 0 0.025 0.06 0 0.03 0.06 0 0.035 0.06 0 0.04 0.06 0 0.045 0.06 0 0.05 0.06 0 0.055 0.06 0 0.06 0.06 0 0.065 0.06 0 0.07 0.06 0 0.075 0.06 0 0.08 0.06 0 0.085 0.06 0 0.09 0.06 0 0.095 0.06 0 0.1 0.06 0 0.105 0.06 0 0.11 0.06 0 0.115 0.06 0 0.12 0.06 0 0.125 0.06 0 0.13 0.06 0 0.135 0.06 0 0.14 0.06 0 0.145 0.06 0 0.15 0.06 0 0.155 0.06 0 0.16 0.06 0 0.165 0.06 0 0.17 0.06 0 0.175 0.06 0 0.18 0.06 0 0.185 0.06 0 0.19 0.06 0 0.195 0.06 0 0.2 0.06 0 0.205 0.06 0 0.21 0.06 0 0.215 0.06 0 0.22 0.06 0 0.225 0.06 0 0.23 0.06 0 0.235 0.06 0 0.24 0.06 0 0.245 0.06 0 0.25 0.06 0 0.255 0.06 0 0.26 0.06 0 0.265001 0.06 0 0.270004 0.06 0 0.27501 0.06 0 0.280026 0.06 0 0.28506 0.06 0 0.290125 0.06 0 0.295237 0.06 0 0.300415 0.06 0 0.305674 0.06 0 0.311027 0.06 0 0.316486 0.06 0 0.322058 0.06 0 0.327753 0.06 0 0.333578 0.06 0 0.339542 0.06 0 0.345652 0.06 0 0.351918 0.06 0 0.358349 0.06 0 0.364956 0.06 0 0.37175 0.06 0 0.378743 0.06 0 0.385949 0.06 0 0.393382 0.06 0 0.401059 0.06 0 0.408999 0.06 0 0.41722 0.06 0 0.425747 0.06 0 0.434603 0.06 0 0.443818 0.06 0 0.45342 0.06 0 0.463443 0.06 0 0.473921 0.06 0 0.484883 0.06 0 0.496341 0.06 0 0.508246 0.06 0 0.520385 0.06 0 0.532464 0.06 0 0.544446 0.06 0 0.556332 0.06 0 0.568144 0.06 0 0.57991 0.06 0 0.591652 0.06 0 0.603384 0.06 0 0.615111 0.06 0 0.626837 0.06 0 0.638562 0.06 0 0.650289 0.06 0 0.66203 0.06 0 0.664638 0.06 0 0.667172 0.06 0 0.66966 0.06 0 0.672119 0.06 0 0.674555 0.06 0 0.676976 0.06 0 0.679386 0.06 0 0.681788 0.06 0 0.684189 0.06 0 0.686591 0.06 0 0.688996 0.06 0 0.691401 0.06 0 0.693804 0.06 0 0.696202 0.06 0 0.698592 0.06 0 0.700977 0.06 0
[...]
			<PointData Scalars="VitesseX">
				<DataArray Name="VitesseX" type="Float32" format="ascii">
 0 -2.38907e-16 8.07732e-16 -1.85144e-15 1.48226e-15 1.47479e-15 -8.38866e-16 -1.23472e-15 -2.43162e-15 4.40784e-15 -5.04409e-15 -8.75547e-15 -1.17294e-14 -1.19499e-14 -9.91324e-15 -1.03681e-14 -1.67099e-14 -1.52413e-14 -1.98592e-14 -2.83843e-14 -2.7469e-14 -3.83285e-14 -4.14684e-14 -3.42609e-14 -3.23516e-14 -4.33435e-14 -2.26391e-14 -3.37334e-14 -1.84757e-14 -4.52193e-14 -2.22647e-14 -2.90088e-14 -9.68569e-15 -1.91298e-14 -2.04098e-14 -2.08209e-14 -2.37195e-14 -2.37237e-14 8.37746e-15 1.45886e-13 9.3503e-13 5.97589e-12 3.65061e-11 2.11124e-10 1.15869e-09 6.02649e-09 2.96361e-08 1.37456e-07 5.99644e-07 2.45272e-06 9.37268e-06 3.33212e-05 0.000109669 0.000332248 0.000920444 0.00231535 0.00525349 0.0107041 0.0195823 0.0323491 0.0488115 0.0682965 0.0900206 0.113358 0.137912 0.163462 0.189902 0.217183 0.245292 0.274236 0.304033 0.334712 0.366311 0.398872 0.432444 0.467082 0.502847 0.539802 0.578013 0.617546 0.658458 0.700786 0.744516 0.789517 0.83539 0.881057 0.923615 0.955156 0.958817 0.950093 0.941835 0.935186 0.930822 0.928473 0.927367 0.926853 0.926584 0.926422 0.926316 0.926238 0.926174 0.926162 0.92615 0.926139 0.926127 0.926116 0.926106 0.926095 0.926084 0.926074 0.926064 0.926053 0.926043 0.926033 0.926022 0.926011 0.926 0.925989 0.925977 0.925965 0.925952 0.925938 0.925925 0.925911 0.925896 0.925881 0.925866 0.925851 0.925835 0.925819 0.925803 0.925786 0.925769 0.925751 0.925733 0.925711 0.925692 0.925664 0.925645 0.925606 0.925588 0.925527 0.925514 0.925408 0.925404 0.92519 0.925197 0.924705 0.924737 0.923446 0.923552 0.919968 0.920303 0.910524 0.911583 0.887051 0.890254 0.837619 0.842852 0.747716 0.716736 0.592722 0.491915 0.360318 0.239988 0.138136 0.0681367 0.0292053 0.0114054 0.00424912 0.00155158 0.000561983 0.000202824 7.30503e-05 2.62653e-05 9.42648e-06 3.37591e-06 1.20596e-06 4.29506e-07 1.52437e-07 5.38845e-08 1.89609e-08 6.63794e-09 2.31079e-09 7.99376e-10 2.74681e-10 9.36032e-11 3.16356e-11 1.05883e-11 3.52264e-12 1.09298e-12 2.24388e-13 5.37814e-14 6.07945e-14 -3.73553e-14 -4.07609e-14 4.58409e-14 -5.79265e-14 5.97233e-14 -8.29852e-14 0 0 6.36069e-16 1.65974e-15 3.12017e-15 2.33715e-15 3.66044e-15 -2.00102e-16 2.96994e-15 5.4607e-15 7.61924e-16 -5.62829e-15 -4.86831e-15 -6.41271e-15 -1.52712e-14 -1.44554e-14 -1.36018e-14 -2.36428e-14 -9.06926e-15 -3.05366e-14 -3.20379e-14 -3.25489e-14 -3.75378e-14 -4.3842e-14 -3.36011e-14 -4.66863e-14 -2.55538e-14 -3.77029e-14 -3.42855e-14 -2.65532e-14 -2.97231e-14 -2.07647e-14 -3.36955e-14 -1.67626e-14 -6.85036e-15 -7.19519e-15 -2.68805e-14 -1.55115e-14 -1.32898e-14 1.64885e-14 1.53381e-13 9.38504e-13 6.01412e-12 3.64984e-11 2.11132e-10 1.15874e-09 6.02649e-09 2.96361e-08 1.37456e-07 5.99644e-07 2.45272e-06 9.37268e-06 3.33212e-05 0.000109669 0.000332248 0.000920444 0.00231535 0.00525349 0.0107041 0.0195823 0.0323491 0.0488115 0.0682965 0.0900206 0.113358 0.137912 0.163462 0.189902 0.217183 0.245292 0.274236 0.304033 0.334712 0.366311 0.398872 0.432444 0.467082 0.502847 0.539802 0.578013 0.617546 0.658458 0.700786 0.744516 0.789517 0.83539 0.881057 0.923615 0.955156 0.958817 0.950093 0.941835 0.935186 0.930822 0.928473 0.927367 0.926853 0.926584 0.926422 0.926316 0.926238 0.926174 0.926162 0.92615 0.926139 0.926127 0.926116 0.926106 0.926095 0.926084 0.926074 0.926064 0.926053 0.926043 0.926033 0.926022 0.926011 0.926 0.925989 0.925977 0.925965 0.925952 0.925938 0.925925 0.925911 0.925896 0.925881 0.925866 0.925851 0.925835 0.925819 0.925803 0.925786 0.925769 0.925751 0.925733 0.925711 0.925692 0.925664 0.925645 0.925606 0.925588 0.925527 0.925514 0.925408 0.925404 0.92519 0.925197 0.924705 0.924737 0.923446 0.923552 0.919968 0.920303 0.910524 0.911583 0.887051 0.890254 0.837619 0.842852 0.747716 0.716736 0.592722 0.491915 0.360318 0.239988 0.138136 0.0681367 0.0292053 0.0114054 0.00424912 0.00155158 0.000561983 0.000202824 7.30503e-05 2.62653e-05 9.42648e-06 3.37591e-06 1.20596e-06 4.29506e-07 1.52437e-07 5.38844e-08 1.89609e-08 6.63796e-09 2.31075e-09 7.99338e-10 2.74589e-10 9.36438e-11 3.16776e-11 1.05688e-11 3.4542e-12 1.06421e-12 2.51452e-13 -3.05997e-14 4.22265e-14 -1.23842e-14 -1.02137e-13 2.13715e-14 3.91946e-14 1.00521e-13 -3.88974e-14 0 0 1.53971e-15 2.25979e-15 3.55623e-15 5.79902e-15 7.18245e-15 3.16414e-15 6.12659e-15 8.56633e-15 3.53226e-15 -7.86358e-15 -1.66288e-15 -9.22779e-15 -1.34107e-14 -1.50077e-14 -1.70524e-14 -1.65458e-14 -1.32203e-14 -4.00112e-14 -4.33521e-14 -4.36362e-14 -3.33502e-14 -3.59197e-14 -3.63733e-14 -5.96699e-14 -4.60282e-14 -2.98979e-14 -3.3766e-14 -2.10479e-14 -1.9123e-14 -1.83476e-14 -3.02174e-14 -1.31323e-14 -2.41765e-14 -6.0753e-15 -1.21928e-14 -2.14665e-14 -4.3865e-16 2.85548e-14 1.97815e-13 9.88875e-13 6.04286e-12 3.65469e-11 2.11178e-10 1.15871e-09 6.0265e-09 2.96362e-08 1.37456e-07 5.99644e-07 2.45272e-06 9.37268e-06 3.33212e-05 0.000109669 0.000332248 0.000920444 0.00231535 0.00525349 0.0107041 0.0195823 0.0323491 0.0488115 0.0682965 0.0900206 0.113358 0.137912 0.163462 0.189902 0.217183 0.245292 0.274236 0.304033 0.334712 0.366311 0.398872 0.432444 0.467082 0.502847 0.539802 0.578013 0.617546 0.658458 0.700786 0.744516 0.789517 0.83539 0.881057 0.923615 0.955156 0.958817 0.950093 0.941835 0.935186 0.930822 0.928473 0.927367 0.926853 0.926584 0.926422 0.926316 0.926238 0.926174 0.926162 0.92615 0.926139 0.926127 0.926116 0.926106 0.926095 0.926084 0.926074 0.926064 0.926053 0.926043 0.926033 0.926022 0.926011 0.926 0.925989 0.925977 0.925965 0.925952 0.925938 0.925925 0.925911 0.925896 0.925881 0.925866 0.925851 0.925835 0.925819 0.925803 0.925786 0.925769 0.925751 0.925733 0.925711 0.925692 0.925664 0.925645 0.925606 0.925588 0.925527 0.925514 0.925408 0.925404 0.92519 0.925197 0.924705 0.924737 0.923446 0.923552 0.919968 0.920303 0.910524 0.911583 0.887051 0.890254 0.837619 0.842852 0.747716 0.716736 0.592722 0.491915 0.360318 0.239988 0.138136 0.0681367 0.0292053 0.0114054 0.00424912 0.00155158 0.000561983 0.000202824 7.30503e-05 2.62653e-05 9.42648e-06 3.37591e-06 1.20596e-06 4.29506e-07 1.52437e-07 5.38845e-08 1.89609e-08 6.63796e-09 2.31078e-09 7.99358e-10 2.74553e-10 9.35907e-11 3.15983e-11 1.04067e-11 3.49174e-12 9.29699e-13 1.82525e-13 3.94306e-14 -4.05814e-14 -1.02512e-14 -1.12871e-13 5.58899e-15 8.98925e-14 6.81335e-14 4.20514e-16 0 0 2.53973e-15 5.06273e-15 2.22175e-15 1.03257e-14 4.9551e-15 6.67171e-15 5.07427e-15 5.17393e-15 1.04137e-15 -3.0316e-15 -2.41833e-17 -1.16571e-14 -9.60489e-15 -2.15131e-14 -1.381e-14 -1.66877e-14 -2.91973e-14 -3.24274e-14 -4.38336e-14 -4.36955e-14 -3.5153e-14 -4.31074e-14 -1.9411e-14 -5.50319e-14 -5.68187e-14 -4.95795e-14 -1.84792e-14 -1.51713e-14 -2.01623e-14 -1.60132e-14 -3.77745e-14 -7.81619e-15 -3.15972e-14 4.68434e-16 -1.08105e-14 -1.15622e-15 -1.29897e-14 5.93168e-14 2.40359e-13 1.05549e-12 6.0634e-12 3.66068e-11 2.11172e-10 1.1587e-09 6.02651e-09 2.96362e-08 1.37456e-07 5.99644e-07 2.45272e-06 9.37268e-06 3.33212e-05 0.000109669 0.000332248 0.000920444 0.00231535 0.00525349 0.0107041 0.0195823 0.0323491 0.0488115 0.0682965 0.0900206 0.113358 0.137912 0.163462 0.189902 0.217183 0.245292 0.274236 0.304033 0.334712 0.366311 0.398872 0.432444 0.467082 0.502847 0.539802 0.578013 0.617546 0.658458 0.700786 0.744516 0.789517 0.83539 0.881057 0.923615 0.955156 0.958817 0.950093 0.941835 0.935186 0.930822 0.928473 0.927367 0.926853 0.926584 0.926422 0.926316 0.926238 0.926174 0.926162 0.92615 0.926139 0.926127 0.926116 0.926106 0.926095 0.926084 0.926074 0.926064 0.926053 0.926043 0.926033 0.926022 0.926011 0.926 0.925989 0.925977 0.925965 0.925952 0.925938 0.925925 0.925911 0.925896 0.925881 0.925866 0.925851 0.925835 0.925819 0.925803 0.925786 0.925769 0.925751 0.925733 0.925711 0.925692 0.925664 0.925645 0.925606 0.925588 0.925527 0.925514 0.925408 0.925404 0.92519 0.925197 0.924705 0.924737 0.923446 0.923552 0.919968 0.920303 0.910524 0.911583 0.887051 0.890254 0.837619 0.842852 0.747716 0.716736 0.592722 0.491915 0.360318 0.239988 0.138136 0.0681367 0.0292053 0.0114054 0.00424912 0.00155158 0.000561983 0.000202824 7.30503e-05 2.62653e-05 9.42648e-06 3.37591e-06 1.20596e-06 4.29506e-07 1.52437e-07 5.38845e-08 1.89608e-08 6.63786e-09 2.31078e-09 7.99336e-10 2.74566e-10 9.34657e-11 3.15648e-11 1.03128e-11 3.39427e-12 6.98929e-13 2.47833e-13 1.22033e-13 1.12788e-13 4.49529e-14 -1.12868e-13 -1.99146e-14 -6.67257e-14 -6.83791e-14 -6.85849e-14 0 0 6.62202e-15 1.30544e-14 1.21167e-14 1.83347e-14 1.1599e-14 8.85175e-15 -1.58306e-15 7.56653e-15 -3.58662e-15 -3.21359e-16 -6.32133e-16 -1.55902e-14 -1.24297e-14 -2.05596e-14 -2.15674e-14 -3.24572e-14 -3.97712e-14 -3.75058e-14 -5.42948e-14 -3.72128e-14 -2.49296e-14 -3.27682e-14 -2.63249e-14 -3.83256e-14 -2.70526e-14 -4.93373e-14 -3.45867e-14 -1.91271e-14 -9.2566e-16 -2.41253e-14 -3.95569e-14 -1.90266e-14 -1.47711e-15 -1.42457e-15 -2.71903e-14 3.37111e-14 -1.09316e-14 8.24892e-14 2.46952e-13 1.06308e-12 6.11157e-12 3.66136e-11 2.11201e-10 1.15871e-09 6.02649e-09 2.96362e-08 1.37456e-07 5.99644e-07 2.45272e-06 9.37268e-06 3.33212e-05 0.000109669 0.000332248 0.000920444 0.00231535 0.00525349 0.0107041 0.0195823 0.0323491 0.0488115 0.0682965 0.0900206 0.113358 0.137912 0.163462 0.189902 0.217183 0.245292 0.274236 0.304033 0.334712 0.366311 0.398872 0.432444 0.467082 0.502847 0.539802 0.578013 0.617546 0.658458 0.700786 0.744516 0.789517 0.83539 0.881057 0.923615 0.955156 0.958817 0.950093 0.941835 0.935186 0.930822 0.928473 0.927367 0.926853 0.926584 0.926422 0.926316 0.926238 0.926174 0.926162 0.92615 0.926139 0.926127 0.926116 0.926106 0.926095 0.926084 0.926074 0.926064 0.926053 0.926043 0.926033 0.926022 0.926011 0.926 0.925989 0.925977 0.925965 0.925952 0.925938 0.925925 0.925911 0.925896 0.925881 0.925866 0.925851 0.925835 0.925819 0.925803 0.925786 0.925769 0.925751 0.925733 0.925711 0.925692 0.925664 0.925645 0.925606 0.925588 0.925527 0.925514 0.925408 0.925404 0.92519 0.925197 0.924705 0.924737 0.923446 0.923552 0.919968 0.920303 0.910524 0.911583 0.887051 0.890254 0.837619 0.842852 0.747716 0.716736 0.592722 0.491915 0.360318 0.239988 0.138136 0.0681367 0.0292053 0.0114054 0.00424912 0.00155158 0.000561983 0.000202824 7.30503e-05 2.62653e-05 9.42648e-06 3.37591e-06 1.20596e-06 4.29506e-07 1.52437e-07 5.38844e-08 1.89607e-08 6.63804e-09 2.31045e-09 7.99391e-10 2.74544e-10 9.33458e-11 3.1489e-11 1.04808e-11 3.14562e-12 7.55458e-13 2.89488e-13 2.24445e-13 2.55519e-13 -7.38472e-14 -3.17941e-14 -1.0254e-13 -1.40852e-13 -3.8883e-14 -1.18668e-13 0 0 9.73295e-15 1.79911e-14 1.88106e-14 2.44242e-14 2.18067e-14 1.02497e-14 -8.2361e-15 8.56484e-15 6.92543e-16 -4.09418e-15 -3.5605e-15 -2.52257e-14 -1.38783e-14 -9.11075e-15 -3.27843e-14 -3.40547e-14 -4.46912e-14 -4.89651e-14 -7.19353e-14 -3.66782e-14 -9.5065e-15 -4.94553e-15 -5.3633e-14 -2.49063e-14 -2.476e-14 -6.54466e-15 -6.49096e-14 -1.53765e-14 1.44541e-14 -3.36549e-14 -2.56173e-14 -2.4846e-14 6.45807e-15 -2.19561e-14 -2.4205e-14 3.41052e-14 6.09495e-15 7.88548e-14 2.4794e-13 1.05095e-12 6.12971e-12 3.66165e-11 2.11274e-10 1.15864e-09 6.02645e-09 2.96362e-08 1.37456e-07 5.99644e-07 2.45272e-06 9.37268e-06 3.33212e-05 0.000109669 0.000332248 0.000920444 0.00231535 0.00525349 0.0107041 0.0195823 0.0323491 0.0488115 0.0682965 0.0900206 0.113358 0.137912 0.163462 0.189902 0.217183 0.245292 0.274236 0.304033 0.334712 0.366311 0.398872 0.432444 0.467082 0.502847 0.539802 0.578013 0.617546 0.658458 0.700786 0.744516 0.789517 0.83539 0.881057 0.923615 0.955156 0.958817 0.950093 0.941835 0.935186 0.930822 0.928473 0.927367 0.926853 0.926584 0.926422 0.926316 0.926238 0.926174 0.926162 0.92615 0.926139 0.926127 0.926116 0.926106 0.926095 0.926084 0.926074 0.926064 0.926053 0.926043 0.926033 0.926022 0.926011 0.926 0.925989 0.925977 0.925965 0.925952 0.925938 0.925925 0.925911 0.925896 0.925881 0.925866 0.925851 0.925835 0.925819 0.925803 0.925786 0.925769 0.925751 0.925733 0.925711 0.925692 0.925664 0.925645 0.925606 0.925588 0.925527 0.925514 0.925408 0.925404 0.92519 0.925197 0.924705 0.924737 0.923446 0.923552 0.919968 0.920303 0.910524 0.911583 0.887051 0.890254 0.837619 0.842852 0.747716 0.716736 0.592722 0.491915 0.360318 0.239988 0.138136 0.0681367 0.0292053 0.0114054 0.00424912 0.00155158 0.000561983 0.000202824 7.30503e-05 2.62653e-05 9.42648e-06 3.37591e-06 1.20596e-06 4.29506e-07 1.52437e-07 5.38844e-08 1.89606e-08 6.63829e-09 2.31021e-09 7.99526e-10 2.74566e-10 9.32568e-11 3.13257e-11 1.06007e-11 3.10029e-12 9.36709e-13 1.69975e-13 3.9867e-13 1.80101e-13 -2.71023e-13 9.95507e-14 -1.51344e-13 -1.04762e-13 5.42322e-14 -1.0437e-13 0
				</DataArray>
				<DataArray Name="VitesseY" type="Float32" format="ascii">