<?xml version="1.0"?>
<VTKFile type="PolyData">
	<PolyData>
		<Piece NumberOfPoints="1206" NumberOfPolys="1000">
			<Points>
				<DataArray type="Float32" NumberOfComponents="3" format="ascii">
 0 0 0 0.005 0 0 0.01 0 0 0.015 0 0 0.02 0 0 0.025 0 0 0.03 0 0 0.035 0 0 0.04 0 0 0.045 0 0 0.05 0 0 0.055 0 0 0.06 0 0 0.065 0 0 0.07 0 0 0.075 0 0 0.08 0 0 0.085 0 0 0.09 0 0 0.095 0 0 0.1 0 0 0.105 0 0 0.11 0 0 0.115 0 0 0.12 0 0 0.125 0 0 0.13 0 0 0.135 0 0 0.14 0 0 0.145 0 0 0.15 0 0 0.155 0 0 0.16 0 0 0.165 0 0 0.17 0 0 0.175 0 0 0.18 0 0 0.185 0 0 0.19 0 0 0.195 0 0 0.2 0 0 0.205 0 0 0.21 0 0 0.215 0 0 0.22 0 0 0.225 0 0 0.23 0 0 0.235 0 0 0.24 0 0 0.245 0 0 0.25 0 0 0.255 0 0 0.26 0 0 0.265 0 0 0.27 0 0 0.275001 0 0 0.280002 0 0 0.285007 0 0 0.290018 0 0 0.295043 0 0 0.300094 0 0 0.305188 0 0 0.310345 0 0 0.315581 0 0 0.320913 0 0 0.326353 0 0 0.331913 0 0 0.337602 0 0 0.343428 0 0 0.3494 0 0 0.35553 0 0 0.361825 0 0 0.368298 0 0 0.37496 0 0 0.381824 0 0 0.388905 0 0 0.396219 0 0 0.403782 0 0 0.411615 0 0 0.419739 0 0 0.428178 0 0 0.43696 0 0 0.446115 0 0 0.455677 0 0 0.465681 0 0 0.476166 0 0 0.487164 0 0 0.498685 0 0 0.510661 0 0 0.522827 0 0 0.534907 0 0 0.546883 0 0 0.55876 0 0 0.570567 0 0 0.582332 0 0 0.594076 0 0 0.605811 0 0 0.617542 0 0 0.629272 0 0 0.641005 0 0 0.652752 0 0 0.655362 0 0 0.657898 0 0 0.660388 0 0 0.662848 0 0 0.665287 0 0 0.66771 0 0 0.670124 0 0 0.672536 0 0 0.674948 0 0 0.677346 0 0 0.679732 0 0 0.682112 0 0 0.684489 0 0 0.686864 0 0 0.689236 0 0 0.691606 0 0 0.693975 0 0 0.696342 0 0 0.698706 0 0 0.701069 0 0 0.703431 0 0 0.705794 0 0 0.708158 0 0 0.710521 0 0 0.712885 0 0 0.715248 0 0 0.71761 0 0 0.719973 0 0 0.722336 0 0 0.7247 0 0 0.727063 0 0 0.729425 0 0 0.731787 0 0 0.734149 0 0 0.73651 0 0 0.738872 0 0 0.741235 0 0 0.743596 0 0 0.745958 0 0 0.748323 0 0 0.750685 0 0 0.753048 0 0 0.755411 0 0 0.757774 0 0 0.760135 0 0 0.762498 0 0 0.764865 0 0 0.767231 0 0 0.769591 0 0 0.771966 0 0 0.774338 0 0 0.776761 0 0 0.779229 0 0 0.781799 0 0 0.784458 0 0 0.787301 0 0 0.79034 0 0 0.793672 0 0 0.797327 0 0 0.801339 0 0 0.805688 0 0 0.810314 0 0 0.815129 0 0 0.82005 0 0 0.825018 0 0 0.830007 0 0 0.835002 0 0 0.840001 0 0 0.845 0 0 0.85 0 0 0.855 0 0 0.86 0 0 0.865 0 0 0.87 0 0 0.875 0 0 0.88 0 0 0.885 0 0 0.89 0 0 0.895 0 0 0.9 0 0 0.905 0 0 0.91 0 0 0.915 0 0 0.92 0 0 0.925 0 0 0.93 0 0 0.935 0 0 0.94 0 0 0.945 0 0 0.95 0 0 0.955 0 0 0.96 0 0 0.965 0 0 0.97 0 0 0.975 0 0 0.98 0 0 0.985 0 0 0.99 0 0 0.995 0 0 1 0 0 0 0.02 0 0.005 0.02 0 0.01 0.02 0 0.015 0.02 0 0.02 0.02 0 0.025 0.02 0 0.03 0.02 0 0.035 0.02 0 0.04 0.02 0 0.045 0.02 0 0.05 0.02 0 0.055 0.02 0 0.06 0.02 0 0.065 0.02 0 0.07 0.02 0 0.075 0.02 0 0.08 0.02 0 0.085 0.02 0 0.09 0.02 0 0.095 0.02 0 0.1 0.02 0 0.105 0.02 0 0.11 0.02 0 0.115 0.02 0 0.12 0.02 0 0.125 0.02 0 0.13 0.02 0 0.135 0.02 0 0.14 0.02 0 0.145 0.02 0 0.15 0.02 0 0.155 0.02 0 0.16 0.02 0 0.165 0.02 0 0.17 0.02 0 0.175 0.02 0 0.18 0.02 0 0.185 0.02 0 0.19 0.02 0 0.195 0.02 0 0.2 0.02 0 0.205 0.02 0 0.21 0.02 0 0.215 0.02 0 0.22 0.02 0 0.225 0.02 0 0.23 0.02 0 0.235 0.02 0 0.24 0.02 0 0.245 0.02 0 0.25 0.02 0 0.255 0.02 0 0.26 0.02 0 0.265 0.02 0 0.27 0.02 0 0.275001 0.02 0 0.280002 0.02 0 0.285007 0.02 0 0.290018 0.02 0 0.295043 0.02 0 0.300094 0.02 0 0.305188 0.02 0 0.310345 0.02 0 0.315581 0.02 0 0.320913 0.02 0 0.326353 0.02 0 0.331913 0.02 0 0.337602 0.02 0 0.343428 0.02 0 0.3494 0.02 0 0.35553 0.02 0 0.361825 0.02 0 0.368298 0.02 0 0.37496 0.02 0 0.381824 0.02 0 0.388905 0.02 0 0.396219 0.02 0 0.403782 0.02 0 0.411615 0.02 0 0.419739 0.02 0 0.428178 0.02 0 0.43696 0.02 0 0.446115 0.02 0 0.455677 0.02 0 0.465681 0.02 0 0.476166 0.02 0 0.487164 0.02 0 0.498685 0.02 0 0.510661 0.02 0 0.522827 0.02 0 0.534907 0.02 0 0.546883 0.02 0 0.55876 0.02 0 0.570567 0.02 0 0.582332 0.02 0 0.594076 0.02 0 0.605811 0.02 0 0.617542 0.02 0 0.629272 0.02 0 0.641005 0.02 0 0.652752 0.02 0 0.655362 0.02 0 0.657898 0.02 0 0.660388 0.02 0 0.662848 0.02 0 0.665287 0.02 0 0.66771 0.02 0 0.670124 0.02 0 0.672536 0.02 0 0.674948 0.02 0 0.677346 0.02 0 0.679732 0.02 0 0.682112 0.02 0 0.684489 0.02 0 0.686864 0.02 0 0.689236 0.02 0 0.691606 0.02 0 0.693975 0.02 0 0.696342 0.02 0 0.698706 0.02 0 0.701069 0.02 0 0.703431 0.02 0 0.705794 0.02 0 0.708158 0.02 0 0.710521 0.02 0 0.712885 0.02 0 0.715248 0.02 0 0.71761 0.02 0 0.719973 0.02 0 0.722336 0.02 0 0.7247 0.02 0 0.727063 0.02 0 0.729425 0.02 0 0.731787 0.02 0 0.734149 0.02 0 0.73651 0.02 0 0.738872 0.02 0 0.741235 0.02 0 0.743596 0.02 0 0.745958 0.02 0 0.748323 0.02 0 0.750685 0.02 0 0.753048 0.02 0 0.755411 0.02 0 0.757774 0.02 0 0.760135 0.02 0 0.762498 0.02 0 0.764865 0.02 0 0.767231 0.02 0 0.769591 0.02 0 0.771966 0.02 0 0.774338 0.02 0 0.776761 0.02 0 0.779229 0.02 0 0.781799 0.02 0 0.784458 0.02 0 0.787301 0.02 0 0.79034 0.02 0 0.793672 0.02 0 0.797327 0.02 0 0.801339 0.02 0 0.805688 0.02 0 0.810314 0.02 0 0.815129 0.02 0 0.82005 0.02 0 0.825018 0.02 0 0.830007 0.02 0 0.835002 0.02 0 0.840001 0.02 0 0.845 0.02 0 0.85 0.02 0 0.855 0.02 0 0.86 0.02 0 0.865 0.02 0 0.87 0.02 0 0.875 0.02 0 0.88 0.02 0 0.885 0.02 0 0.89 0.02 0 0.895 0.02 0 0.9 0.02 0 0.905 0.02 0 0.91 0.02 0 0.915 0.02 0 0.92 0.02 0 0.925 0.02 0 0.93 0.02 0 0.935 0.02 0 0.94 0.02 0 0.945 0.02 0 0.95 0.02 0 0.955 0.02 0 0.96 0.02 0 0.965 0.02 0 0.97 0.02 0 0.975 0.02 0 0.98 0.02 0 0.985 0.02 0 0.99 0.02 0 0.995 0.02 0 1 0.02 0 0 0.04 0 0.005 0.04 0 0.01 0.04 0 0.015 0.04 0 0.02 0.04 0 0.025 0.04 0 0.03 0.04 0 0.035 0.04 0 0.04 0.04 0 0.045 0.04 0 0.05 0.04 0 0.055 0.04 0 0.06 0.04 0 0.065 0.04 0 0.07 0.04 0 0.075 0.04 0 0.08 0.04 0 0.085 0.04 0 0.09 0.04 0 0.095 0.04 0 0.1 0.04 0 0.105 0.04 0 0.11 0.04 0 0.115 0.04 0 0.12 0.04 0 0.125 0.04 0 0.13 0.04 0 0.135 0.04 0 0.14 0.04 0 0.145 0.04 0 0.15 0.04 0 0.155 0.04 0 0.16 0.04 0 0.165 0.04 0 0.17 0.04 0 0.175 0.04 0 0.18 0.04 0 0.185 0.04 0 0.19 0.04 0 0.195 0.04 0 0.2 0.04 0 0.205 0.04 0 0.21 0.04 0 0.215 0.04 0 0.22 0.04 0 0.225 0.04 0 0.23 0.04 0 0.235 0.04 0 0.24 0.04 0 0.245 0.04 0 0.25 0.04 0 0.255 0.04 0 0.26 0.04 0 0.265 0.04 0 0.27 0.04 0 0.275001 0.04 0 0.280002 0.04 0 0.285007 0.04 0 0.290018 0.04 0 0.295043 0.04 0 0.300094 0.04 0 0.305188 0.04 0 0.310345 0.04 0 0.315581 0.04 0 0.320913 0.04 0 0.326353 0.04 0 0.331913 0.04 0 0.337602 0.04 0 0.343428 0.04 0 0.3494 0.04 0 0.35553 0.04 0 0.361825 0.04 0 0.368298 0.04 0 0.37496 0.04 0 0.381824 0.04 0 0.388905 0.04 0 0.396219 0.04 0 0.403782 0.04 0 0.411615 0.04 0 0.419739 0.04 0 0.428178 0.04 0 0.43696 0.04 0 0.446115 0.04 0 0.455677 0.04 0 0.465681 0.04 0 0.476166 0.04 0 0.487164 0.04 0 0.498685 0.04 0 0.510661 0.04 0 0.522827 0.04 0 0.534907 0.04 0 0.546883 0.04 0 0.55876 0.04 0 0.570567 0.04 0 0.582332 0.04 0 0.594076 0.04 0 0.605811 0.04 0 0.617542 0.04 0 0.629272 0.04 0 0.641005 0.04 0 0.652752 0.04 0 0.655362 0.04 0 0.657898 0.04 0 0.660388 0.04 0 0.662848 0.04 0 0.665287 0.04 0 0.66771 0.04 0 0.670124 0.04 0 0.672536 0.04 0 0.674948 0.04 0 0.677346 0.04 0 0.679732 0.04 0 0.682112 0.04 0 0.684489 0.04 0 0.686864 0.04 0 0.689236 0.04 0 0.691606 0.04 0 0.693975 0.04 0 0.696342 0.04 0 0.698706 0.04 0 0.701069 0.04 0 0.703431 0.04 0 0.705794 0.04 0 0.708158 0.04 0 0.710521 0.04 0 0.712885 0.04 0 0.715248 0.04 0 0.71761 0.04 0 0.719973 0.04 0 0.722336 0.04 0 0.7247 0.04 0 0.727063 0.04 0 0.729425 0.04 0 0.731787 0.04 0 0.734149 0.04 0 0.73651 0.04 0 0.738872 0.04 0 0.741235 0.04 0 0.743596 0.04 0 0.745958 0.04 0 0.748323 0.04 0 0.750685 0.04 0 0.753048 0.04 0 0.755411 0.04 0 0.757774 0.04 0 0.760135 0.04 0 0.762498 0.04 0 0.764865 0.04 0 0.767231 0.04 0 0.769591 0.04 0 0.771966 0.04 0 0.774338 0.04 0 0.776761 0.04 0 0.779229 0.04 0 0.781799 0.04 0 0.784458 0.04 0 0.787301 0.04 0 0.79034 0.04 0 0.793672 0.04 0 0.797327 0.04 0 0.801339 0.04 0 0.805688 0.04 0 0.810314 0.04 0 0.815129 0.04 0 0.82005 0.04 0 0.825018 0.04 0 0.830007 0.04 0 0.835002 0.04 0 0.840001 0.04 0 0.845 0.04 0 0.85 0.04 0 0.855 0.04 0 0.86 0.04 0 0.865 0.04 0 0.87 0.04 0 0.875 0.04 0 0.88 0.04 0 0.885 0.04 0 0.89 0.04 0 0.895 0.04 0 0.9 0.04 0 0.905 0.04 0 0.91 0.04 0 0.915 0.04 0 0.92 0.04 0 0.925 0.04 0 0.93 0.04 0 0.935 0.04 0 0.94 0.04 0 0.945 0.04 0 0.95 0.04 0 0.955 0.04 0 0.96 0.04 0 0.965 0.04 0 0.97 0.04 0 0.975 0.04 0 0.98 0.04 0 0.985 0.04 0 0.99 0.04 0 0.995 0.04 0 1 0.04 0 0 0.06 0 0.005 0.06 0 0.01 0.06 0 0.015 0.06 0 0.02 0.06 0 0.025 0.06 0 0.03 0.06 0 0.035 0.06 0 0.04 0.06 0 0.045 0.06 0 0.05 0.06 0 0.055 0.06 0 0.06 0.06 0 0.065 0.06 0 0.07 0.06 0 0.075 0.06 0 0.08 0.06 0 0.085 0.06 0 0.09 0.06 0 0.095 0.06 0 0.1 0.06 0 0.105 0.06 0 0.11 0.06 0 0.115 0.06 0 0.12 0.06 0 0.125 0.06 0 0.13 0.06 0 0.135 0.06 0 0.14 0.06 0 0.145 0.06 0 0.15 0.06 0 0.155 0.06 0 0.16 0.06 0 0.165 0.06 0 0.17 0.06 0 0.175 0.06 0 0.18 0.06 0 0.185 0.06 0 0.19 0.06 0 0.195 0.06 0 0.2 0.06 0 0.205 0.06 0 0.21 0.06 0 0.215 0.06 0 0.22 0.06 0 0.225 0.06 0 0.23 0.06 0 0.235 0.06 0 0.24 0.06 0 0.245 0.06 0 0.25 0.06 0 0.255 0.06 0 0.26 0.06 0 0.265 0.06 0 0.27 0.06 0 0.275001 0.06 0 0.280002 0.06 0 0.285007 0.06 0 0.290018 0.06 0 0.295043 0.06 0 0.300094 0.06 0 0.305188 0.06 0 0.310345 0.06 0 0.315581 0.06 0 0.320913 0.06 0 0.326353 0.06 0 0.331913 0.06 0 0.337602 0.06 0 0.343428 0.06 0 0.3494 0.06 0 0.35553 0.06 0 0.361825 0.06 0 0.368298 0.06 0 0.37496 0.06 0 0.381824 0.06 0 0.388905 0.06 0 0.396219 0.06 0 0.403782 0.06 0 0.411615 0.06 0 0.419739 0.06 0 0.428178 0.06 0 0.43696 0.06 0 0.446115 0.06 0 0.455677 0.06 0 0.465681 0.06 0 0.476166 0.06 0 0.487164 0.06 0 0.498685 0.06 0 0.510661 0.06 0 0.522827 0.06 0 0.534907 0.06 0 0.546883 0.06 0 0.55876 0.06 0 0.570567 0.06 0 0.582332 0.06 0 0.594076 0.06 0 0.605811 0.06 0 0.617542 0.06 0 0.629272 0.06 0 0.641005 0.06 0 0.652752 0.06 0 0.655362 0.06 0 0.657898 0.06 0 0.660388 0.06 0 0.662848 0.06 0 0.665287 0.06 0 0.66771 0.06 0 0.670124 0.06 0 0.672536 0.06 0 0.674948 0.06 0 0.677346 0.06 0 0.679732 0.06 0 0.682112 0.06 0 0.684489 0.06 0 0.686864 0.06 0 0.689236 0.06 0 0.691606 0.06 0 0.693975 0.06 0 0.696342 0.06 0 0.698706 0.06 0 0.701069 0.06 0 0.703431 0
[...]
			<PointData Scalars="VitesseX">
				<DataArray Name="VitesseX" type="Float32" format="ascii">
 0 -2.18326e-15 -1.83469e-15 1.75931e-15 5.83383e-15 7.60783e-15 -1.79135e-15 9.04946e-15 -7.35953e-15 8.9513e-15 1.54674e-15 -4.85231e-16 6.3963e-15 1.25991e-14 1.45135e-14 1.12278e-14 1.00492e-14 1.10854e-14 7.90484e-15 5.42661e-15 4.87586e-15 -3.80442e-15 8.12579e-15 5.57378e-15 1.53255e-14 1.7308e-14 1.40836e-14 4.35989e-15 -9.85168e-15 1.31648e-14 1.11271e-14 2.58363e-14 -2.24908e-14 1.61884e-14 1.82089e-14 3.36812e-14 2.25225e-14 1.19699e-14 3.00425e-14 2.32474e-14 1.71855e-14 5.80193e-14 2.17753e-13 1.57962e-12 1.00119e-11 6.19558e-11 3.65446e-10 2.03932e-09 1.0753e-08 5.34497e-08 2.49776e-07 1.094e-06 4.47534e-06 1.70298e-05 5.99933e-05 0.00019457 0.000577157 0.00155448 0.00377324 0.00820422 0.0159387 0.0277562 0.043751 0.0633532 0.0857038 0.110034 0.135826 0.162785 0.190766 0.219707 0.249587 0.280414 0.312211 0.345015 0.378869 0.413827 0.44995 0.487304 0.525962 0.566002 0.607499 0.650521 0.695115 0.741268 0.788833 0.837336 0.885471 0.929633 0.959941 0.958554 0.949706 0.941081 0.93461 0.930605 0.928533 0.927555 0.927075 0.926842 0.92677 0.926729 0.926536 0.926503 0.926474 0.926445 0.926416 0.926385 0.92635 0.926313 0.926273 0.926234 0.926198 0.926168 0.926147 0.926136 0.926142 0.926211 0.926249 0.92624 0.926252 0.926269 0.926291 0.926346 0.926497 0.926717 0.926669 0.926615 0.92652 0.926425 0.926337 0.926287 0.926264 0.926225 0.926126 0.925946 0.925703 0.925499 0.925325 0.925272 0.925575 0.927088 0.926791 0.926222 0.925405 0.924501 0.923934 0.923756 0.925347 0.927436 0.926675 0.920642 0.916223 0.905703 0.907101 0.851816 0.860886 0.764609 0.739661 0.618629 0.525165 0.395582 0.274476 0.165929 0.0863709 0.0387353 0.0155695 0.00589015 0.00216839 0.000789272 0.000285857 0.000103245 3.72087e-05 1.33796e-05 4.7986e-06 1.71576e-06 6.11277e-07 2.16877e-07 7.65828e-08 2.68988e-08 9.39215e-09 3.25826e-09 1.12228e-09 3.83736e-10 1.30089e-10 4.36899e-11 1.46886e-11 4.7544e-12 1.63643e-12 5.91444e-13 1.13787e-13 1.6333e-13 -3.84058e-14 7.92017e-14 -8.85807e-14 -1.1427e-13 7.07504e-14 9.49079e-14 -5.60984e-14 1.07062e-14 -3.50222e-14 -1.97252e-13 0 0 5.96276e-16 -1.25981e-15 -3.40875e-16 3.18113e-15 3.82311e-15 5.1948e-15 2.33659e-15 6.07722e-15 3.94111e-15 4.51443e-15 4.01174e-15 3.1725e-15 1.10868e-14 9.82898e-15 1.22545e-14 6.30512e-15 1.39828e-14 2.22297e-15 6.0907e-15 1.43158e-14 -3.74765e-15 -3.25422e-15 9.27075e-15 1.4243e-14 1.54115e-14 6.42289e-15 2.39679e-14 -1.91862e-14 7.17217e-15 2.27956e-14 -5.87954e-15 6.21759e-15 8.87953e-15 2.74624e-14 -3.45451e-15 3.2625e-14 2.10374e-14 1.37131e-14 3.27129e-14 5.57893e-14 5.46958e-14 2.30013e-13 1.55496e-12 1.00248e-11 6.19248e-11 3.6544e-10 2.03933e-09 1.0753e-08 5.34497e-08 2.49776e-07 1.094e-06 4.47534e-06 1.70298e-05 5.99933e-05 0.00019457 0.000577157 0.00155448 0.00377324 0.00820422 0.0159387 0.0277562 0.043751 0.0633532 0.0857038 0.110034 0.135826 0.162785 0.190766 0.219707 0.249587 0.280414 0.312211 0.345015 0.378869 0.413827 0.44995 0.487304 0.525962 0.566002 0.607499 0.650521 0.695115 0.741268 0.788833 0.837336 0.885471 0.929633 0.959941 0.958554 0.949706 0.941081 0.93461 0.930605 0.928533 0.927555 0.927075 0.926842 0.92677 0.926729 0.926536 0.926503 0.926474 0.926445 0.926416 0.926385 0.92635 0.926313 0.926273 0.926234 0.926198 0.926168 0.926147 0.926136 0.926142 0.926211 0.926249 0.92624 0.926252 0.926269 0.926291 0.926346 0.926497 0.926717 0.926669 0.926615 0.92652 0.926425 0.926337 0.926287 0.926264 0.926225 0.926126 0.925946 0.925703 0.925499 0.925325 0.925272 0.925575 0.927088 0.926791 0.926222 0.925405 0.924501 0.923934 0.923756 0.925347 0.927436 0.926675 0.920642 0.916223 0.905703 0.907101 0.851816 0.860886 0.764609 0.739661 0.618629 0.525165 0.395582 0.274476 0.165929 0.0863709 0.0387353 0.0155695 0.00589015 0.00216839 0.000789272 0.000285857 0.000103245 3.72087e-05 1.33796e-05 4.7986e-06 1.71576e-06 6.11277e-07 2.16877e-07 7.65828e-08 2.68988e-08 9.39211e-09 3.25814e-09 1.12238e-09 3.83657e-10 1.30202e-10 4.38236e-11 1.45135e-11 4.7974e-12 1.61732e-12 5.29046e-13 1.06223e-13 1.38912e-13 -3.10595e-14 3.0198e-14 4.40432e-14 2.87268e-14 -1.00281e-13 7.76646e-15 6.07427e-14 -6.80506e-14 -4.24178e-14 1.06588e-15 0 0 9.22153e-16 2.95452e-17 2.59089e-15 -2.03697e-15 4.38956e-15 7.1966e-15 6.73931e-15 1.55152e-14 6.31215e-16 9.15024e-15 -3.05801e-15 2.45876e-15 1.06695e-14 5.65754e-15 7.91746e-15 3.32072e-15 -3.97471e-15 1.39971e-14 2.0754e-14 1.7219e-15 -9.79976e-15 4.94847e-15 -2.18027e-15 1.91802e-14 2.35966e-15 1.35255e-14 2.30759e-14 -1.51251e-14 1.14333e-14 1.15472e-14 4.32744e-16 1.50924e-15 2.2383e-14 1.80673e-14 8.46915e-15 2.95166e-14 4.2718e-15 1.86387e-14 5.05157e-14 3.76407e-14 6.86978e-14 2.80702e-13 1.52274e-12 9.95875e-12 6.19909e-11 3.65394e-10 2.03925e-09 1.07531e-08 5.34496e-08 2.49776e-07 1.094e-06 4.47534e-06 1.70298e-05 5.99933e-05 0.00019457 0.000577157 0.00155448 0.00377324 0.00820422 0.0159387 0.0277562 0.043751 0.0633532 0.0857038 0.110034 0.135826 0.162785 0.190766 0.219707 0.249587 0.280414 0.312211 0.345015 0.378869 0.413827 0.44995 0.487304 0.525962 0.566002 0.607499 0.650521 0.695115 0.741268 0.788833 0.837336 0.885471 0.929633 0.959941 0.958554 0.949706 0.941081 0.93461 0.930605 0.928533 0.927555 0.927075 0.926842 0.92677 0.926729 0.926536 0.926503 0.926474 0.926445 0.926416 0.926385 0.92635 0.926313 0.926273 0.926234 0.926198 0.926168 0.926147 0.926136 0.926142 0.926211 0.926249 0.92624 0.926252 0.926269 0.926291 0.926346 0.926497 0.926717 0.926669 0.926615 0.92652 0.926425 0.926337 0.926287 0.926264 0.926225 0.926126 0.925946 0.925703 0.925499 0.925325 0.925272 0.925575 0.927088 0.926791 0.926222 0.925405 0.924501 0.923934 0.923756 0.925347 0.927436 0.926675 0.920642 0.916223 0.905703 0.907101 0.851816 0.860886 0.764609 0.739661 0.618629 0.525165 0.395582 0.274476 0.165929 0.0863709 0.0387353 0.0155695 0.00589015 0.00216839 0.000789272 0.000285857 0.000103245 3.72087e-05 1.33796e-05 4.7986e-06 1.71576e-06 6.11277e-07 2.16877e-07 7.65828e-08 2.68989e-08 9.39216e-09 3.25818e-09 1.12229e-09 3.8373e-10 1.30197e-10 4.38153e-11 1.45801e-11 4.83906e-12 1.61082e-12 4.95123e-13 6.67885e-14 1.00094e-13 -3.28659e-14 -1.0019e-13 1.74906e-13 2.52554e-14 -1.60067e-13 6.61274e-14 -5.36815e-14 -2.75893e-15 -3.9934e-15 4.72913e-14 0 0 1.10657e-15 2.22739e-15 4.24897e-15 6.7078e-15 1.28937e-14 7.45056e-15 8.92373e-15 1.68337e-14 6.83753e-15 6.94907e-15 -2.3873e-15 -4.27931e-15 2.47791e-15 1.04044e-14 8.11714e-15 6.77846e-15 -2.26182e-14 6.20341e-16 1.76921e-14 8.47521e-15 -1.11817e-14 2.62577e-14 -1.23658e-14 5.79821e-15 7.29324e-15 2.86159e-14 -7.22301e-15 1.35684e-14 1.65454e-14 1.8655e-15 -1.08135e-14 8.31849e-15 2.21828e-14 2.06602e-14 2.80182e-14 3.46848e-14 -3.91843e-15 3.34067e-14 2.82925e-14 4.73801e-14 9.63433e-14 2.13281e-13 1.54972e-12 9.9771e-12 6.2036e-11 3.65316e-10 2.03919e-09 1.07531e-08 5.34496e-08 2.49776e-07 1.094e-06 4.47534e-06 1.70298e-05 5.99933e-05 0.00019457 0.000577157 0.00155448 0.00377324 0.00820422 0.0159387 0.0277562 0.043751 0.0633532 0.0857038 0.110034 0.135826 0.162785 0.190766 0.219707 0.249587 0.280414 0.312211 0.345015 0.378869 0.413827 0.44995 0.487304 0.525962 0.566002 0.607499 0.650521 0.695115 0.741268 0.788833 0.837336 0.885471 0.929633 0.959941 0.958554 0.949706 0.941081 0.93461 0.930605 0.928533 0.927555 0.927075 0.926842 0.92677 0.926729 0.926536 0.926503 0.926474 0.926445 0.926416 0.926385 0.92635 0.926313 0.926273 0.926234 0.926198 0.926168 0.926147 0.926136 0.926142 0.926211 0.926249 0.92624 0.926252 0.926269 0.926291 0.926346 0.926497 0.926717 0.926669 0.926615 0.92652 0.926425 0.926337 0.926287 0.926264 0.926225 0.926126 0.925946 0.925703 0.925499 0.925325 0.925272 0.925575 0.927088 0.926791 0.926222 0.925405 0.924501 0.923934 0.923756 0.925347 0.927436 0.926675 0.920642 0.916223 0.905703 0.907101 0.851816 0.860886 0.764609 0.739661 0.618629 0.525165 0.395582 0.274476 0.165929 0.0863709 0.0387353 0.0155695 0.00589015 0.00216839 0.000789272 0.000285857 0.000103245 3.72087e-05 1.33796e-05 4.7986e-06 1.71576e-06 6.11277e-07 2.16877e-07 7.65828e-08 2.68989e-08 9.39207e-09 3.25824e-09 1.12244e-09 3.83557e-10 1.30254e-10 4.38286e-11 1.47407e-11 4.88706e-12 1.73973e-12 2.83874e-13 1.15817e-13 9.26573e-14 4.82348e-14 -1.41958e-13 -5.53316e-14 -2.35334e-15 -4.98899e-14 6.37741e-14 -5.17061e-14 -5.26292e-14 -9.37233e-14 5.11976e-14 0 0 2.37182e-15 1.78283e-15 7.45381e-15 1.36295e-14 1.09379e-14 1.56471e-14 -7.53301e-16 1.44911e-14 6.63392e-15 6.2127e-15 4.37507e-15 -7.22695e-15 -2.57512e-15 8.23938e-15 -1.49261e-15 -2.61328e-15 -4.46184e-15 -9.21118e-15 -8.29282e-15 1.81579e-14 -1.21286e-15 5.48593e-15 1.88067e-15 8.36456e-15 -7.22627e-15 1.39899e-14 2.05394e-14 2.14589e-14 4.31544e-15 2.28086e-14 -2.68479e-14 8.58934e-15 -2.08168e-15 5.02334e-15 5.3553e-15 3.02331e-14 1.72907e-14 2.3857e-14 7.73546e-14 1.04707e-13 1.37821e-13 1.49706e-13 1.58389e-12 9.96274e-12 6.19471e-11 3.65249e-10 2.03928e-09 1.0753e-08 5.34496e-08 2.49776e-07 1.094e-06 4.47534e-06 1.70298e-05 5.99933e-05 0.00019457 0.000577157 0.00155448 0.00377324 0.00820422 0.0159387 0.0277562 0.043751 0.0633532 0.0857038 0.110034 0.135826 0.162785 0.190766 0.219707 0.249587 0.280414 0.312211 0.345015 0.378869 0.413827 0.44995 0.487304 0.525962 0.566002 0.607499 0.650521 0.695115 0.741268 0.788833 0.837336 0.885471 0.929633 0.959941 0.958554 0.949706 0.941081 0.93461 0.930605 0.928533 0.927555 0.927075 0.926842 0.92677 0.926729 0.926536 0.926503 0.926474 0.926445 0.926416 0.926385 0.92635 0.926313 0.926273 0.926234 0.926198 0.926168 0.926147 0.926136 0.926142 0.926211 0.926249 0.92624 0.926252 0.926269 0.926291 0.926346 0.926497 0.926717 0.926669 0.926615 0.92652 0.926425 0.926337 0.926287 0.926264 0.926225 0.926126 0.925946 0.925703 0.925499 0.925325 0.925272 0.925575 0.927088 0.926791 0.926222 0.925405 0.924501 0.923934 0.923756 0.925347 0.927436 0.926675 0.920642 0.916223 0.905703 0.907101 0.851816 0.860886 0.764609 0.739661 0.618629 0.525165 0.395582 0.274476 0.165929 0.0863709 0.0387353 0.0155695 0.00589015 0.00216839 0.000789272 0.000285857 0.000103245 3.72087e-05 1.33796e-05 4.7986e-06 1.71576e-06 6.11277e-07 2.16877e-07 7.65829e-08 2.68989e-08 9.39213e-09 3.25816e-09 1.12245e-09 3.83678e-10 1.30209e-10 4.39096e-11 1.46811e-11 5.01386e-12 1.64941e-12 1.97177e-13 9.2175e-14 -1.49976e-13 2.58698e-13 -7.78231e-14 -1.37482e-13 5.38938e-14 2.61175e-14 -7.83063e-14 2.48858e-14 -1.03727e-13 -1.22063e-13 1.25391e-13 0 0 9.99008e-16 -1.45087e-16 1.40325e-14 9.241e-15 4.82904e-15 1.86053e-14 -1.49914e-15 6.83099e-15 1.9243e-15 9.34564e-15 -1.1e-15 -9.26446e-16 1.65841e-15 1.84051e-15 -1.66657e-14 -1.47031e-14 1.14832e-14 1.17901e-14 -1.72166e-14 -9.46733e-16 4.02898e-15 -1.70124e-14 1.11646e-14 3.03326e-14 -3.78347e-14 -9.63078e-16 5.81009e-14 1.40515e-14 -2.77282e-15 3.05166e-14 6.39204e-15 -3.13658e-14 -5.33379e-15 -3.1855e-14 1.22028e-14 7.40223e-15 2.08571e-14 2.07945e-14 1.56977e-13 9.55422e-14 1.68979e-13 1.91981e-13 1.58353e-12 9.85104e-12 6.19102e-11 3.65222e-10 2.03935e-09 1.0753e-08 5.34496e-08 2.49776e-07 1.094e-06 4.47534e-06 1.70298e-05 5.99933e-05 0.00019457 0.000577157 0.00155448 0.00377324 0.00820422 0.0159387 0.0277562 0.043751 0.0633532 0.0857038 0.110034 0.135826 0.162785 0.190766 0.219707 0.249587 0.280414 0.312211 0.345015 0.378869 0.413827 0.44995 0.487304 0.525962 0.566002 0.607499 0.650521 0.695115 0.741268 0.788833 0.837336 0.885471 0.929633 0.959941 0.958554 0.949706 0.941081 0.93461 0.930605 0.928533 0.927555 0.927075 0.926842 0.92677 0.926729 0.926536 0.926503 0.926474 0.926445 0.926416 0.926385 0.92635 0.926313 0.926273 0.926234 0.926198 0.926168 0.926147 0.926136 0.926142 0.926211 0.926249 0.92624 0.926252 0.926269 0.926291 0.926346 0.926497 0.926717 0.926669 0.926615 0.92652 0.926425 0.926337 0.926287 0.926264 0.926225 0.926126 0.925946 0.925703 0.925499 0.925325 0.925272 0.925575 0.927088 0.926791 0.926222 0.925405 0.924501 0.923934 0.923756 0.925347 0.927436 0.926675 0.920642 0.916223 0.905703 0.907101 0.851816 0.860886 0.764609 0.739661 0.618629 0.525165 0.395582 0.274476 0.165929 0.0863709 0.0387353 0.0155695 0.00589015 0.00216839 0.000789272 0.000285857 0.000103245 3.72087e-05 1.33796e-05 4.7986e-06 1.71576e-06 6.11277e-07 2.16877e-07 7.6583e-08 2.68988e-08 9.39237e-09 3.25817e-09 1.12212e-09 3.84124e-10 1.29988e-10 4.38352e-11 1.47034e-11 5.09212e-12 1.44381e-12 3.50977e-13 -1.24296e-14 -3.99741e-13 3.78743e-13 -5.31729e-14 8.57352e-15 -9.00648e-15 1.03437e-13 -7.21943e-14 -1.32083e-13 3.88867e-14 -1.49981e-14 4.28577e-14 0
				</DataArray>
				<DataArray Name="VitesseY" type="Float32" format="ascii">