<?xml version="1.0"?>
<VTKFile type="PolyData">
	<PolyData>
		<Piece NumberOfPoints="1206" NumberOfPolys="1000">
			<Points>
				<DataArray type="Float32" NumberOfComponents="3" format="ascii">
 0 0 0 0.005 0 0 0.01 0 0 0.015 0 0 0.02 0 0 0.025 0 0 0.03 0 0 0.035 0 0 0.04 0 0 0.045 0 0 0.05 0 0 0.055 0 0 0.06 0 0 0.065 0 0 0.07 0 0 0.075 0 0 0.08 0 0 0.085 0 0 0.09 0 0 0.095 0 0 0.1 0 0 0.105 0 0 0.11 0 0 0.115 0 0 0.12 0 0 0.125 0 0 0.13 0 0 0.135 0 0 0.14 0 0 0.145 0 0 0.15 0 0 0.155 0 0 0.16 0 0 0.165 0 0 0.17 0 0 0.175 0 0 0.18 0 0 0.185 0 0 0.19 0 0 0.195 0 0 0.2 0 0 0.205 0 0 0.21 0 0 0.215 0 0 0.22 0 0 0.225 0 0 0.23 0 0 0.235 0 0 0.24 0 0 0.245 0 0 0.25 0 0 0.255 0 0 0.26 0 0 0.265 0 0 0.27 0 0 0.275 0 0 0.28 0 0 0.285 0 0 0.29 0 0 0.295 0 0 0.3 0 0 0.305 0 0 0.31 0 0 0.315 0 0 0.32 0 0 0.325 0 0 0.33 0 0 0.335 0 0 0.34 0 0 0.345 0 0 0.35 0 0 0.355 0 0 0.36 0 0 0.365 0 0 0.37 0 0 0.375 0 0 0.38 0 0 0.385 0 0 0.39 0 0 0.395 0 0 0.4 0 0 0.405 0 0 0.41 0 0 0.415 0 0 0.42 0 0 0.425 0 0 0.43 0 0 0.435 0 0 0.44 0 0 0.445 0 0 0.45 0 0 0.455 0 0 0.46 0 0 0.465004 0 0 0.470029 0 0 0.475169 0 0 0.480681 0 0 0.487032 0 0 0.494923 0 0 0.505464 0 0 0.518579 0 0 0.521238 0 0 0.523743 0 0 0.526224 0 0 0.528776 0 0 0.53149 0 0 0.534462 0 0 0.537783 0 0 0.541522 0 0 0.545697 0 0 0.550254 0 0 0.555072 0 0 0.560017 0 0 0.565003 0 0 0.570001 0 0 0.575 0 0 0.58 0 0 0.585 0 0 0.59 0 0 0.595 0 0 0.6 0 0 0.605 0 0 0.61 0 0 0.615 0 0 0.62 0 0 0.625 0 0 0.63 0 0 0.635 0 0 0.64 0 0 0.645 0 0 0.65 0 0 0.655 0 0 0.66 0 0 0.665 0 0 0.67 0 0 0.675 0 0 0.68 0 0 0.685 0 0 0.69 0 0 0.695 0 0 0.7 0 0 0.705 0 0 0.71 0 0 0.715 0 0 0.72 0 0 0.725 0 0 0.73 0 0 0.735 0 0 0.74 0 0 0.745 0 0 0.75 0 0 0.755 0 0 0.76 0 0 0.765 0 0 0.77 0 0 0.775 0 0 0.78 0 0 0.785 0 0 0.79 0 0 0.795 0 0 0.8 0 0 0.805 0 0 0.81 0 0 0.815 0 0 0.82 0 0 0.825 0 0 0.83 0 0 0.835 0 0 0.84 0 0 0.845 0 0 0.85 0 0 0.855 0 0 0.86 0 0 0.865 0 0 0.87 0 0 0.875 0 0 0.88 0 0 0.885 0 0 0.89 0 0 0.895 0 0 0.9 0 0 0.905 0 0 0.91 0 0 0.915 0 0 0.92 0 0 0.925 0 0 0.93 0 0 0.935 0 0 0.94 0 0 0.945 0 0 0.95 0 0 0.955 0 0 0.96 0 0 0.965 0 0 0.97 0 0 0.975 0 0 0.98 0 0 0.985 0 0 0.99 0 0 0.995 0 0 1 0 0 0 0.02 0 0.005 0.02 0 0.01 0.02 0 0.015 0.02 0 0.02 0.02 0 0.025 0.02 0 0.03 0.02 0 0.035 0.02 0 0.04 0.02 0 0.045 0.02 0 0.05 0.02 0 0.055 0.02 0 0.06 0.02 0 0.065 0.02 0 0.07 0.02 0 0.075 0.02 0 0.08 0.02 0 0.085 0.02 0 0.09 0.02 0 0.095 0.02 0 0.1 0.02 0 0.105 0.02 0 0.11 0.02 0 0.115 0.02 0 0.12 0.02 0 0.125 0.02 0 0.13 0.02 0 0.135 0.02 0 0.14 0.02 0 0.145 0.02 0 0.15 0.02 0 0.155 0.02 0 0.16 0.02 0 0.165 0.02 0 0.17 0.02 0 0.175 0.02 0 0.18 0.02 0 0.185 0.02 0 0.19 0.02 0 0.195 0.02 0 0.2 0.02 0 0.205 0.02 0 0.21 0.02 0 0.215 0.02 0 0.22 0.02 0 0.225 0.02 0 0.23 0.02 0 0.235 0.02 0 0.24 0.02 0 0.245 0.02 0 0.25 0.02 0 0.255 0.02 0 0.26 0.02 0 0.265 0.02 0 0.27 0.02 0 0.275 0.02 0 0.28 0.02 0 0.285 0.02 0 0.29 0.02 0 0.295 0.02 0 0.3 0.02 0 0.305 0.02 0 0.31 0.02 0 0.315 0.02 0 0.32 0.02 0 0.325 0.02 0 0.33 0.02 0 0.335 0.02 0 0.34 0.02 0 0.345 0.02 0 0.35 0.02 0 0.355 0.02 0 0.36 0.02 0 0.365 0.02 0 0.37 0.02 0 0.375 0.02 0 0.38 0.02 0 0.385 0.02 0 0.39 0.02 0 0.395 0.02 0 0.4 0.02 0 0.405 0.02 0 0.41 0.02 0 0.415 0.02 0 0.42 0.02 0 0.425 0.02 0 0.43 0.02 0 0.435 0.02 0 0.44 0.02 0 0.445 0.02 0 0.45 0.02 0 0.455 0.02 0 0.46 0.02 0 0.465004 0.02 0 0.470029 0.02 0 0.475169 0.02 0 0.480681 0.02 0 0.487032 0.02 0 0.494923 0.02 0 0.505464 0.02 0 0.518579 0.02 0 0.521238 0.02 0 0.523743 0.02 0 0.526224 0.02 0 0.528776 0.02 0 0.53149 0.02 0 0.534462 0.02 0 0.537783 0.02 0 0.541522 0.02 0 0.545697 0.02 0 0.550254 0.02 0 0.555072 0.02 0 0.560017 0.02 0 0.565003 0.02 0 0.570001 0.02 0 0.575 0.02 0 0.58 0.02 0 0.585 0.02 0 0.59 0.02 0 0.595 0.02 0 0.6 0.02 0 0.605 0.02 0 0.61 0.02 0 0.615 0.02 0 0.62 0.02 0 0.625 0.02 0 0.63 0.02 0 0.635 0.02 0 0.64 0.02 0 0.645 0.02 0 0.65 0.02 0 0.655 0.02 0 0.66 0.02 0 0.665 0.02 0 0.67 0.02 0 0.675 0.02 0 0.68 0.02 0 0.685 0.02 0 0.69 0.02 0 0.695 0.02 0 0.7 0.02 0 0.705 0.02 0 0.71 0.02 0 0.715 0.02 0 0.72 0.02 0 0.725 0.02 0 0.73 0.02 0 0.735 0.02 0 0.74 0.02 0 0.745 0.02 0 0.75 0.02 0 0.755 0.02 0 0.76 0.02 0 0.765 0.02 0 0.77 0.02 0 0.775 0.02 0 0.78 0.02 0 0.785 0.02 0 0.79 0.02 0 0.795 0.02 0 0.8 0.02 0 0.805 0.02 0 0.81 0.02 0 0.815 0.02 0 0.82 0.02 0 0.825 0.02 0 0.83 0.02 0 0.835 0.02 0 0.84 0.02 0 0.845 0.02 0 0.85 0.02 0 0.855 0.02 0 0.86 0.02 0 0.865 0.02 0 0.87 0.02 0 0.875 0.02 0 0.88 0.02 0 0.885 0.02 0 0.89 0.02 0 0.895 0.02 0 0.9 0.02 0 0.905 0.02 0 0.91 0.02 0 0.915 0.02 0 0.92 0.02 0 0.925 0.02 0 0.93 0.02 0 0.935 0.02 0 0.94 0.02 0 0.945 0.02 0 0.95 0.02 0 0.955 0.02 0 0.96 0.02 0 0.965 0.02 0 0.97 0.02 0 0.975 0.02 0 0.98 0.02 0 0.985 0.02 0 0.99 0.02 0 0.995 0.02 0 1 0.02 0 0 0.04 0 0.005 0.04 0 0.01 0.04 0 0.015 0.04 0 0.02 0.04 0 0.025 0.04 0 0.03 0.04 0 0.035 0.04 0 0.04 0.04 0 0.045 0.04 0 0.05 0.04 0 0.055 0.04 0 0.06 0.04 0 0.065 0.04 0 0.07 0.04 0 0.075 0.04 0 0.08 0.04 0 0.085 0.04 0 0.09 0.04 0 0.095 0.04 0 0.1 0.04 0 0.105 0.04 0 0.11 0.04 0 0.115 0.04 0 0.12 0.04 0 0.125 0.04 0 0.13 0.04 0 0.135 0.04 0 0.14 0.04 0 0.145 0.04 0 0.15 0.04 0 0.155 0.04 0 0.16 0.04 0 0.165 0.04 0 0.17 0.04 0 0.175 0.04 0 0.18 0.04 0 0.185 0.04 0 0.19 0.04 0 0.195 0.04 0 0.2 0.04 0 0.205 0.04 0 0.21 0.04 0 0.215 0.04 0 0.22 0.04 0 0.225 0.04 0 0.23 0.04 0 0.235 0.04 0 0.24 0.04 0 0.245 0.04 0 0.25 0.04 0 0.255 0.04 0 0.26 0.04 0 0.265 0.04 0 0.27 0.04 0 0.275 0.04 0 0.28 0.04 0 0.285 0.04 0 0.29 0.04 0 0.295 0.04 0 0.3 0.04 0 0.305 0.04 0 0.31 0.04 0 0.315 0.04 0 0.32 0.04 0 0.325 0.04 0 0.33 0.04 0 0.335 0.04 0 0.34 0.04 0 0.345 0.04 0 0.35 0.04 0 0.355 0.04 0 0.36 0.04 0 0.365 0.04 0 0.37 0.04 0 0.375 0.04 0 0.38 0.04 0 0.385 0.04 0 0.39 0.04 0 0.395 0.04 0 0.4 0.04 0 0.405 0.04 0 0.41 0.04 0 0.415 0.04 0 0.42 0.04 0 0.425 0.04 0 0.43 0.04 0 0.435 0.04 0 0.44 0.04 0 0.445 0.04 0 0.45 0.04 0 0.455 0.04 0 0.46 0.04 0 0.465004 0.04 0 0.470029 0.04 0 0.475169 0.04 0 0.480681 0.04 0 0.487032 0.04 0 0.494923 0.04 0 0.505464 0.04 0 0.518579 0.04 0 0.521238 0.04 0 0.523743 0.04 0 0.526224 0.04 0 0.528776 0.04 0 0.53149 0.04 0 0.534462 0.04 0 0.537783 0.04 0 0.541522 0.04 0 0.545697 0.04 0 0.550254 0.04 0 0.555072 0.04 0 0.560017 0.04 0 0.565003 0.04 0 0.570001 0.04 0 0.575 0.04 0 0.58 0.04 0 0.585 0.04 0 0.59 0.04 0 0.595 0.04 0 0.6 0.04 0 0.605 0.04 0 0.61 0.04 0 0.615 0.04 0 0.62 0.04 0 0.625 0.04 0 0.63 0.04 0 0.635 0.04 0 0.64 0.04 0 0.645 0.04 0 0.65 0.04 0 0.655 0.04 0 0.66 0.04 0 0.665 0.04 0 0.67 0.04 0 0.675 0.04 0 0.68 0.04 0 0.685 0.04 0 0.69 0.04 0 0.695 0.04 0 0.7 0.04 0 0.705 0.04 0 0.71 0.04 0 0.715 0.04 0 0.72 0.04 0 0.725 0.04 0 0.73 0.04 0 0.735 0.04 0 0.74 0.04 0 0.745 0.04 0 0.75 0.04 0 0.755 0.04 0 0.76 0.04 0 0.765 0.04 0 0.77 0.04 0 0.775 0.04 0 0.78 0.04 0 0.785 0.04 0 0.79 0.04 0 0.795 0.04 0 0.8 0.04 0 0.805 0.04 0 0.81 0.04 0 0.815 0.04 0 0.82 0.04 0 0.825 0.04 0 0.83 0.04 0 0.835 0.04 0 0.84 0.04 0 0.845 0.04 0 0.85 0.04 0 0.855 0.04 0 0.86 0.04 0 0.865 0.04 0 0.87 0.04 0 0.875 0.04 0 0.88 0.04 0 0.885 0.04 0 0.89 0.04 0 0.895 0.04 0 0.9 0.04 0 0.905 0.04 0 0.91 0.04 0 0.915 0.04 0 0.92 0.04 0 0.925 0.04 0 0.93 0.04 0 0.935 0.04 0 0.94 0.04 0 0.945 0.04 0 0.95 0.04 0 0.955 0.04 0 0.96 0.04 0 0.965 0.04 0 0.97 0.04 0 0.975 0.04 0 0.98 0.04 0 0.985 0.04 0 0.99 0.04 0 0.995 0.04 0 1 0.04 0 0 0.06 0 0.005 0.06 0 0.01 0.06 0 0.015 0.06 0 0.02 0.06 0 0.025 0.06 0 0.03 0.06 0 0.035 0.06 0 0.04 0.06 0 0.045 0.06 0 0.05 0.06 0 0.055 0.06 0 0.06 0.06 0 0.065 0.06 0 0.07 0.06 0 0.075 0.06 0 0.08 0.06 0 0.085 0.06 0 0.09 0.06 0 0.095 0.06 0 0.1 0.06 0 0.105 0.06 0 0.11 0.06 0 0.115 0.06 0 0.12 0.06 0 0.125 0.06 0 0.13 0.06 0 0.135 0.06 0 0.14 0.06 0 0.145 0.06 0 0.15 0.06 0 0.155 0.06 0 0.16 0.06 0 0.165 0.06 0 0.17 0.06 0 0.175 0.06 0 0.18 0.06 0 0.185 0.06 0 0.19 0.06 0 0.195 0.06 0 0.2 0.06 0 0.205 0.06 0 0.21 0.06 0 0.215 0.06 0 0.22 0.06 0 0.225 0.06 0 0.23 0.06 0 0.235 0.06 0 0.24 0.06 0 0.245 0.06 0 0.25 0.06 0 0.255 0.06 0 0.26 0.06 0 0.265 0.06 0 0.27 0.06 0 0.275 0.06 0 0.28 0.06 0 0.285 0.06 0 0.29 0.06 0 0.295 0.06 0 0.3 0.06 0 0.305 0.06 0 0.31 0.06 0 0.315 0.06 0 0.32 0.06 0 0.325 0.06 0 0.33 0.06 0 0.335 0.06 0 0.34 0.06 0 0.345 0.06 0 0.35 0.06 0 0.355 0.06 0 0.36 0.06 0 0.365 0.06 0 0.37 0.06 0 0.375 0.06 0 0.38 0.06 0 0.385 0.06 0 0.39 0.06 0 0.395 0.06 0 0.4 0.06 0 0.405 0.06 0 0.41 0.06 0 0.415 0.06 0 0.42 0.06 0 0.425 0.06 0 0.43 0.06 0 0.435 0.06 0 0.44 0.06 0 0.445 0.06 0 0.45 0.06 0 0.455 0.06 0 0.46 0.06 0 0.465004 0.06 0 0.470029 0.06 0 0.475169 0.06 0 0.480681 0.06 0 0.487032 0.06 0 0.494923 0.06 0 0.505464 0.06 0 0.518579 0.06 0 0.521238 0.06 0 0.523743 0.06 0 0.526224 0.06 0 0.528776 0.06 0 0.53149 0.06 0 0.534462 0.06 0 0.537783 0.06 0 0.541522 0.06 0 0.545697 0.06 0 0.550254 0.06 0 0.555072 0.06 0 0.560017 0.06 0 0.565003 0.06 0 0.570001 0.06 0 0.575 0.06 0 0.58 0.06 0 0.585 0.06 0 0.59 0.06 0 0.595 0.06 0 0.6 0.06 0 0.605 0.06 0 0.61 0.06 0 0.615 0.06 0 0.62 0.06 0 0.625 0.06 0 0.63 0.06 0 0.635 0.06 0 0.64 0.06 0 0.645 0.06 0 0.65 0.06 0 0.655 0.06 0 0.66 0.06 0 0.665 0.06 0 0.67 0.06 0 0.675 0.06 0 0.68 0.06 0 0.685 0.06 0 0.69 0.06 0 0.695 0.06 0 0.7 0.06 0 0.705 0.06 0 0.71 0.06 0 0.715 0.06 0 0.72 0.06 0 0.725 0.06 0 0.73 0.06 0 0.735 0.06 0 0.74 0.06 0 0.745 0.06 0 0.75 0.06 0 0.755 0.06 0 0.76 0.06 0 0.765 0.06 0 0.77 0.06 0 0.775 0.06 0 0.78 0.06 0 0.785 0.06 0 0.79 0.06 0 0.795 0.06 0 0.8 0.06 0 0.805 0.06 0 0.81 0.06 0 0.815 0.06 0 0.82 0.06 0 0.825 0.06 0 0.83 0.06 0 0.835 0.06 0 0.84 0.06 0 0.845 0.06 0 0.85 0.06 0 0.855 0.06 0 0.86 0.06 0 0.865 0.06 0 0.87 0.06 0 0.875 0.06 0 0.88 0.06 0 0.885 0.06 0 0.89 0.06 0 0.895 0.06 0 0.9 0.06 0 0.905 0.06 0 0.91 0.06 0 0.915 0.06 0 0.92 0.06 0 0.925 0.06 0 0.93 0.06 0 0.935 0.06 0 0.94 0.06 0 0.945 0.06 0 0.95 0.06 0 0.955 0.06 0 0.96 0.06 0 0.965 0.06 0 0.97 0.06 0 0.975 0.06 0 0.98 0.06 0 0.985 0.06 0 0.99 0.06 0 0.995 0.06 0 1 0.06 0 0 0.08 0 0.005 0.08 0 0.01 0.08 0 0.015 0.08 0 0.02 0.08 0 0.025 0.08 0 0.03 0.08 0 0.035 0.08 0 0.04 0.08 0 0.0
[...]
			<PointData Scalars="VitesseX">
				<DataArray Name="VitesseX" type="Float32" format="ascii">
 0 -6.94508e-16 -7.48493e-16 -9.72119e-16 1.72061e-15 2.07708e-15 -3.19036e-15 -3.86165e-15 2.51961e-15 3.43429e-15 -4.6507e-15 7.79814e-16 -6.19416e-15 1.10466e-14 -1.38011e-14 1.15703e-14 0 -9.85925e-15 1.2573e-14 -6.09961e-15 -5.54672e-15 -3.4512e-15 1.01164e-14 1.99822e-15 -2.28784e-15 1.67175e-14 -2.57676e-14 8.57537e-16 -4.74715e-15 1.23363e-14 -8.44671e-15 1.60718e-14 -1.43739e-14 -1.00624e-14 -1.43588e-14 2.07227e-14 -5.10792e-15 2.47506e-15 1.90557e-14 -1.8419e-14 -1.49398e-14 -3.13383e-15 -1.07767e-14 1.83404e-14 1.26288e-15 1.64208e-14 -2.45905e-14 1.61848e-14 2.17011e-16 1.90956e-14 1.16837e-14 -2.36715e-14 -3.5521e-14 3.28865e-14 -2.16404e-14 1.46119e-14 -4.96024e-14 3.49495e-15 1.21485e-14 1.99483e-14 -1.07202e-14 -7.21154e-15 -3.44929e-15 2.38612e-14 -9.16681e-15 2.05129e-14 -4.80518e-14 1.1422e-14 -1.36991e-14 2.84495e-15 -1.16464e-15 -3.76292e-14 4.74696e-14 3.98829e-15 -3.37156e-14 3.50777e-14 1.39849e-14 -2.91973e-14 -5.00686e-14 4.96322e-14 -6.22813e-14 -1.3586e-14 3.81809e-14 -6.3418e-14 2.37094e-14 1.16381e-13 1.64786e-12 5.8351e-11 1.79476e-09 4.58436e-08 9.55989e-07 1.59107e-05 0.000205065 0.00196335 0.0132127 0.0591876 0.175663 0.374959 0.648638 0.958677 0.931191 0.963028 0.979627 0.964738 0.920938 0.842616 0.725636 0.5751 0.404274 0.239097 0.110418 0.0373764 0.0096422 0.00210886 0.00041748 7.65198e-05 1.3078e-05 2.09024e-06 3.12947e-07 4.39432e-08 5.79264e-09 7.17427e-10 8.34412e-11 9.1839e-12 9.50821e-13 7.45253e-14 -1.8312e-14 -3.1308e-14 3.2457e-14 5.13385e-14 -3.98202e-14 2.03802e-14 -5.68133e-14 1.57131e-14 3.58232e-14 -2.03064e-14 8.26995e-15 -3.13714e-14 1.91967e-14 -4.67809e-14 -3.34473e-14 -3.13047e-14 8.93899e-14 -2.74798e-14 1.84731e-14 -1.22024e-14 6.13889e-14 -1.02138e-13 2.7198e-14 2.93988e-14 -1.29878e-14 -8.71865e-15 3.11784e-15 8.14443e-14 -9.25572e-14 2.66921e-14 -3.11858e-14 -6.48161e-14 5.64793e-15 -1.46325e-14 -4.93098e-14 2.57731e-14 -4.27576e-14 9.24342e-14 -3.85767e-14 2.27004e-15 -5.74724e-14 9.33381e-14 -9.86011e-15 4.16661e-14 1.56323e-14 -6.11482e-14 -5.77658e-14 7.73738e-14 4.08394e-15 -8.79566e-15 1.59458e-14 2.31526e-14 -3.31875e-14 5.71495e-14 -2.21232e-14 -4.9885e-14 3.58101e-14 3.41477e-14 -6.78514e-15 3.83626e-14 -1.76424e-14 -4.40016e-14 5.38316e-14 -1.53047e-14 -4.62768e-14 -7.19103e-15 -1.91858e-14 1.09386e-13 9.81062e-15 3.8997e-14 1.00305e-14 -1.04642e-14 4.9723e-14 0 0 0 -6.34802e-16 -7.69208e-16 1.34569e-15 -1.3687e-15 2.43808e-16 -2.3733e-15 3.83701e-15 -4.72421e-15 1.90606e-15 -4.23804e-15 2.21533e-17 4.2561e-15 -1.15836e-14 1.2775e-14 2.62382e-15 -9.97868e-15 1.05237e-14 -1.08553e-14 8.71753e-15 -5.53852e-15 -1.34666e-14 1.13251e-14 1.81039e-15 4.39962e-15 4.89134e-15 -1.81979e-14 -8.32188e-15 3.84945e-15 6.79817e-15 -1.89711e-15 1.42146e-14 -2.19745e-14 -1.7882e-14 1.53358e-15 6.4861e-16 1.03353e-14 4.6738e-15 1.26698e-14 -1.54836e-14 -6.57142e-15 -1.12782e-14 -1.08627e-14 6.84106e-15 2.6111e-14 -2.07703e-15 -1.44056e-14 1.19848e-14 1.25878e-14 6.09175e-15 5.84183e-15 -3.14801e-14 -3.09198e-14 3.08615e-14 -3.58798e-14 1.84565e-14 -1.9231e-14 -3.95315e-14 3.86675e-14 4.46671e-15 -1.02884e-14 -1.52627e-14 4.42096e-16 2.83227e-14 -1.92042e-14 -3.84374e-15 -1.84008e-14 5.31705e-15 -6.09088e-16 -1.20339e-14 -1.78913e-14 8.57094e-15 1.95061e-14 2.31277e-14 -3.75661e-14 1.85518e-14 2.38743e-14 -2.22028e-14 -5.53176e-14 3.04949e-15 -4.68266e-15 -3.42023e-14 1.44185e-14 -1.37234e-14 2.36597e-14 7.30751e-14 1.65777e-12 5.84083e-11 1.79474e-09 4.58436e-08 9.55989e-07 1.59107e-05 0.000205065 0.00196335 0.0132127 0.0591876 0.175663 0.374959 0.648638 0.958677 0.931191 0.963028 0.979627 0.964738 0.920938 0.842616 0.725636 0.5751 0.404274 0.239097 0.110418 0.0373764 0.0096422 0.00210886 0.00041748 7.65198e-05 1.3078e-05 2.09024e-06 3.12947e-07 4.39432e-08 5.7926e-09 7.17438e-10 8.34647e-11 9.09586e-12 9.53613e-13 5.8761e-14 8.26114e-14 -5.26439e-14 -7.62062e-15 6.21922e-14 -2.69656e-14 -3.3943e-15 -3.67218e-14 8.02569e-15 2.33712e-14 -4.75873e-14 9.52184e-15 9.32024e-15 1.25578e-14 -9.13104e-16 -8.01379e-14 -7.06089e-14 5.04963e-14 2.77873e-14 1.10638e-14 -1.48166e-14 1.58971e-14 2.03413e-14 -2.16136e-14 -1.15706e-14 7.06741e-14 -6.69181e-14 7.28169e-14 -6.03732e-15 -5.11639e-14 -8.75028e-15 -1.70129e-14 -1.03268e-13 -1.17361e-14 -3.93351e-14 -6.14584e-15 4.47455e-14 -4.00885e-14 6.59e-14 -7.91099e-14 7.01407e-14 -6.89558e-14 1.03173e-13 -2.08924e-14 5.57124e-14 1.84731e-14 -5.11752e-14 -1.39713e-14 -4.16918e-14 1.94388e-14 7.4341e-15 4.17214e-14 1.75044e-14 1.81853e-15 1.05584e-14 -8.43246e-15 -2.09644e-14 1.56464e-14 -3.97621e-14 6.32954e-14 -3.15428e-14 3.33385e-14 1.06283e-14 5.42419e-15 1.07993e-14 -6.59066e-14 3.58207e-14 3.39562e-14 5.43815e-15 3.17443e-14 8.34716e-14 -9.02706e-16 3.95549e-14 1.93476e-15 2.14475e-14 0 0 7.35929e-16 -6.27654e-16 1.29268e-15 1.37634e-15 -3.02509e-15 -3.25871e-15 1.9634e-15 -9.20017e-16 -1.78125e-15 -1.83722e-15 -5.55116e-15 5.14968e-15 3.02621e-15 -2.79258e-15 4.12387e-15 -5.75066e-16 1.01215e-14 -1.05983e-14 2.69103e-15 -9.88906e-15 -6.55108e-15 6.73861e-15 1.47715e-15 -5.51573e-15 1.65228e-15 -1.1335e-14 -2.55793e-14 6.24986e-15 2.52916e-14 5.36933e-15 -2.74461e-14 -1.14573e-15 -2.41051e-14 -1.83234e-14 9.41134e-15 1.66608e-14 1.06152e-14 1.78988e-14 -1.19928e-14 -5.3649e-15 -9.6883e-15 -1.85589e-14 2.31486e-14 2.30917e-14 -1.81616e-14 5.50611e-15 3.35075e-15 2.98029e-14 -2.2374e-14 -5.14839e-15 -4.56012e-14 -3.70948e-14 4.07758e-15 -2.20393e-14 3.51276e-14 5.56626e-15 -4.48126e-14 -3.80139e-15 9.46027e-15 -1.31766e-15 -2.28883e-14 3.34546e-14 8.64892e-15 -7.42573e-15 -4.8304e-14 -2.29119e-14 -2.26058e-15 3.17623e-14 -3.15291e-14 -2.46788e-14 9.77325e-15 1.68582e-15 4.17052e-14 -3.26145e-14 1.79311e-14 1.40037e-14 -6.00984e-14 1.07103e-14 -2.5882e-14 2.97402e-14 -2.99383e-14 -2.42783e-14 4.44342e-14 4.97368e-14 1.58926e-14 1.66495e-12 5.84334e-11 1.79473e-09 4.58437e-08 9.55989e-07 1.59107e-05 0.000205065 0.00196335 0.0132127 0.0591876 0.175663 0.374959 0.648638 0.958677 0.931191 0.963028 0.979627 0.964738 0.920938 0.842616 0.725636 0.5751 0.404274 0.239097 0.110418 0.0373764 0.0096422 0.00210886 0.00041748 7.65198e-05 1.3078e-05 2.09024e-06 3.12947e-07 4.39432e-08 5.79254e-09 7.17487e-10 8.34295e-11 9.06121e-12 9.11024e-13 5.63468e-14 5.41142e-14 3.71029e-14 -9.34192e-14 4.91815e-14 2.19373e-14 -4.66119e-14 8.87193e-14 -9.25697e-14 -3.62983e-14 4.14619e-14 -2.2048e-14 1.74424e-14 3.89855e-14 -2.0254e-14 -9.74286e-14 -6.90071e-14 -2.60661e-14 5.3908e-14 6.96772e-14 -7.33515e-14 4.76388e-15 1.14468e-13 -2.86931e-14 -6.09649e-14 1.06608e-14 5.47905e-15 9.15777e-14 -3.6657e-14 -1.71461e-15 -1.04149e-13 -2.12063e-14 -3.69954e-14 -9.39308e-14 -3.0198e-14 -1.92859e-14 8.52104e-14 5.41427e-15 -2.48377e-14 -2.34853e-14 1.02747e-13 -8.19864e-14 6.27591e-14 5.02748e-15 5.55827e-14 6.32206e-14 -1.10829e-13 -6.26602e-14 -8.93932e-14 9.84089e-14 -1.34144e-14 3.17365e-14 1.21095e-13 -4.72236e-14 -3.5158e-14 -1.10592e-14 7.85607e-14 3.95531e-15 -1.23491e-13 3.70997e-14 3.05393e-15 9.44148e-14 -2.10406e-14 1.5112e-14 -3.00871e-14 6.89208e-14 6.58777e-14 -1.88757e-14 -7.75928e-15 1.57249e-14 7.87163e-14 6.92126e-14 9.20772e-14 -1.00812e-13 7.67625e-14 0 0 4.11381e-16 -4.6476e-16 3.75981e-17 9.01769e-16 -4.00632e-15 2.80806e-15 -7.06333e-15 6.626e-15 -2.60588e-15 -2.5525e-15 -4.27128e-15 -3.25604e-15 1.20528e-14 -9.73321e-15 6.57993e-15 4.76771e-15 -9.35281e-15 7.81766e-15 -1.13456e-14 -2.87091e-15 -4.17225e-15 3.1499e-15 2.08622e-15 -1.15661e-14 -8.13631e-15 -1.96009e-14 1.25783e-15 2.80493e-15 1.81616e-14 1.59039e-14 -3.26178e-14 9.13693e-15 -3.80979e-14 -2.4401e-14 1.85065e-14 2.04026e-14 -3.8407e-15 1.25049e-14 -5.08255e-15 -2.2744e-14 1.1454e-14 -2.84155e-14 1.97367e-14 8.36593e-15 2.60852e-14 -1.36187e-14 7.72504e-15 1.69608e-14 -2.54972e-14 2.18198e-15 -4.88498e-14 -6.91835e-15 -4.39005e-14 -7.70169e-16 2.30767e-14 3.6887e-14 -3.95926e-14 -4.58983e-14 3.36777e-14 -1.88371e-14 -9.18568e-15 6.01521e-14 -2.76666e-14 1.33765e-14 -4.43394e-14 -4.34173e-14 -3.65641e-14 1.23275e-14 -2.26964e-14 8.3758e-15 -7.03379e-14 3.69218e-14 5.07413e-14 2.65533e-14 -7.08919e-14 -2.66193e-14 -4.93331e-15 5.00164e-14 1.23818e-14 -6.36802e-14 3.63552e-14 -3.11464e-14 3.88039e-14 4.85169e-14 3.10099e-14 1.68469e-12 5.83726e-11 1.79476e-09 4.58437e-08 9.55989e-07 1.59107e-05 0.000205065 0.00196335 0.0132127 0.0591876 0.175663 0.374959 0.648638 0.958677 0.931191 0.963028 0.979627 0.964738 0.920938 0.842616 0.725636 0.5751 0.404274 0.239097 0.110418 0.0373764 0.0096422 0.00210886 0.00041748 7.65198e-05 1.3078e-05 2.09024e-06 3.12947e-07 4.39432e-08 5.79254e-09 7.17432e-10 8.3502e-11 9.13755e-12 8.14623e-13 9.22191e-14 -7.60277e-14 9.30602e-14 -1.20552e-13 -2.05515e-14 9.05873e-14 -3.50955e-14 1.36081e-13 -1.30047e-13 -3.68554e-14 1.15122e-13 -8.72408e-14 -6.73799e-14 7.93992e-14 -6.69264e-14 -1.70379e-14 -3.55015e-14 -3.56399e-14 7.71548e-14 2.16637e-14 -6.87553e-14 -2.1977e-14 6.9553e-14 2.38246e-14 -5.92651e-14 -2.90785e-14 -3.30837e-14 1.51252e-13 -1.93412e-14 -6.07502e-14 -9.33998e-14 -3.74439e-14 -2.94555e-14 -1.13801e-13 1.77699e-14 3.50608e-14 2.11874e-14 -7.54814e-15 -8.10113e-14 9.52276e-14 -3.54188e-15 -5.2458e-14 4.57598e-14 1.59508e-14 -5.94011e-15 2.19092e-14 -6.42241e-14 -1.27855e-13 7.39097e-14 -4.50686e-15 1.102e-13 -3.24996e-16 3.74664e-14 -5.08093e-14 -4.70778e-14 -3.32641e-14 7.74926e-14 -5.24742e-14 6.92106e-14 3.59797e-14 1.78872e-14 -7.96909e-14 -5.98674e-14 1.57061e-13 -1.12986e-13 9.48924e-14 1.57688e-13 5.1811e-15 -9.27975e-14 7.45858e-15 6.23606e-14 9.87298e-14 3.54815e-14 2.56976e-14 7.82619e-14 0 0 -8.75887e-16 -1.50918e-15 -7.27786e-16 -1.8402e-15 -6.25235e-15 4.09361e-15 -6.28353e-15 -5.78876e-16 3.71953e-15 -4.06351e-15 -3.97752e-15 -2.00874e-15 -7.86725e-15 7.57618e-15 -3.29591e-15 1.9709e-15 -4.98557e-15 5.47119e-16 -4.43855e-15 1.04967e-14 -7.92657e-15 -7.23725e-16 2.84678e-15 -8.7088e-16 -5.31034e-15 -2.2667e-14 2.14086e-14 1.07053e-14 -1.88271e-14 1.88409e-15 1.27829e-14 -1.68749e-14 -2.61606e-14 4.88098e-15 -2.84344e-15 2.13161e-14 4.18286e-15 -2.55793e-14 -3.42928e-14 3.45353e-15 -1.12652e-14 -3.72963e-14 -1.35392e-16 1.03545e-14 4.72521e-14 -1.56495e-14 1.12835e-14 1.1386e-14 -1.56136e-14 1.86068e-14 -1.30608e-14 6.53062e-15 -2.99349e-14 -4.29845e-15 -1.10776e-14 4.17728e-14 -4.31842e-14 3.09145e-15 8.23169e-16 -2.19004e-14 3.325e-15 3.64407e-14 -2.94306e-14 1.50734e-14 -3.54495e-14 -2.71287e-14 -2.38685e-14 -3.26222e-14 -6.70771e-15 -1.02418e-14 -7.3813e-14 2.98564e-15 1.7654e-14 4.60366e-14 -9.82594e-14 -2.5977e-15 4.49377e-14 6.88635e-14 -2.10903e-15 -7.97939e-14 2.02094e-14 -2.65672e-14 1.5257e-15 4.78301e-14 3.94799e-14 1.7022e-12 5.83551e-11 1.79481e-09 4.58437e-08 9.55989e-07 1.59107e-05 0.000205065 0.00196335 0.0132127 0.0591876 0.175663 0.374959 0.648638 0.958677 0.931191 0.963028 0.979627 0.964738 0.920938 0.842616 0.725636 0.5751 0.404274 0.239097 0.110418 0.0373764 0.0096422 0.00210886 0.00041748 7.65198e-05 1.3078e-05 2.09024e-06 3.12947e-07 4.39432e-08 5.79255e-09 7.17347e-10 8.36026e-11 9.07891e-12 8.99864e-13 3.80308e-15 -4.89387e-14 4.0755e-14 -1.45741e-14 -5.9919e-14 4.84599e-14 1.48263e-14 8.0684e-14 -2.69223e-14 -5.1589e-14 3.82105e-14 -2.14621e-13 -4.03251e-14 -2.81333e-14 4.3306e-14 3.56969e-14 -1.27787e-14 6.89746e-15 1.09984e-13 -5.42154e-14 -5.71141e-14 -1.51996e-15 -7.84792e-15 5.17297e-14 -2.67442e-14 1.23574e-14 -1.32619e-13 1.20997e-13 -2.5687e-14 -4.09863e-14 2.14241e-14 -8.28419e-14 -1.20786e-13 1.82947e-14 -5.57594e-14 5.26703e-14 5.68336e-14 -1.55139e-13 5.26542e-15 8.37151e-14 -3.38344e-14 3.98774e-15 5.49342e-14 -4.42407e-14 -2.74265e-14 -1.31436e-15 -1.01116e-13 1.68096e-14 7.29324e-14 -8.2775e-14 1.05418e-13 -2.35213e-14 -3.28026e-14 6.91642e-14 -9.98896e-15 2.35373e-14 -1.38936e-13 -7.80449e-14 2.50315e-13 9.47976e-14 -2.49833e-14 -1.58744e-13 1.66982e-14 1.63176e-13 -2.94679e-14 -1.01673e-13 7.13192e-14 1.37458e-13 -1.14134e-13 1.89717e-15 -5.25277e-14 5.71324e-14 1.69133e-13 4.99366e-14 9.20947e-14 0 0 -5.2758e-16 -2.55422e-15 -2.60892e-15 1.72676e-15 -8.95278e-15 -2.39008e-15 -6.04928e-15 -4.28177e-15 8.71049e-15 -2.87109e-15 -9.7793e-15 -1.91238e-15 4.26138e-16 -1.03175e-14 -5.18132e-15 1.32136e-14 -1.92929e-15 -1.45402e-15 -4.33849e-15 1.24875e-14 2.87121e-15 -6.80392e-15 2.85285e-15 -7.28164e-16 1.58913e-14 -1.81742e-14 6.64411e-15 1.58543e-14 -2.46542e-14 -2.19535e-14 2.35519e-14 -2.47401e-14 1.36592e-15 4.49117e-15 -4.45174e-15 9.37003e-15 3.0405e-14 -4.66546e-14 -6.98579e-14 3.98683e-14 -4.53923e-14 -4.39305e-14 1.12114e-14 -7.98499e-16 2.65855e-14 1.11713e-14 6.03369e-15 2.34977e-14 -1.80686e-14 2.25529e-14 1.96642e-14 -2.0973e-14 7.24974e-15 -1.01593e-15 -2.03544e-14 9.76381e-15 -1.42505e-14 2.51902e-14 -3.57737e-14 1.09465e-15 2.55855e-15 1.5153e-14 -1.90142e-14 1.77839e-14 -5.06278e-14 -2.44968e-14 2.1658e-14 -3.88556e-14 -4.16797e-15 -5.19748e-14 -4.21748e-14 -5.60432e-14 -2.50315e-14 1.51542e-14 -2.08986e-14 4.2287e-14 -5.24638e-15 1.19681e-13 -3.72122e-14 -2.5663e-14 -3.73496e-14 -3.00544e-14 -2.16591e-14 7.44899e-14 1.89561e-14 1.69726e-12 5.83663e-11 1.79484e-09 4.58437e-08 9.55989e-07 1.59107e-05 0.000205065 0.00196335 0.0132127 0.0591876 0.175663 0.374959 0.648638 0.958677 0.931191 0.963028 0.979627 0.964738 0.920938 0.842616 0.725636 0.5751 0.404274 0.239097 0.110418 0.0373764 0.0096422 0.00210886 0.00041748 7.65198e-05 1.3078e-05 2.09024e-06 3.12947e-07 4.39433e-08 5.79254e-09 7.17355e-10 8.35719e-11 8.99754e-12 1.03634e-12 -1.06965e-13 -2.10611e-14 4.35238e-14 7.27767e-14 -5.33945e-14 -2.62036e-14 3.38873e-14 8.33719e-14 2.08575e-14 -1.12892e-13 4.02752e-15 -3.09611e-13 3.9168e-14 -1.42832e-13 1.34997e-13 3.73609e-14 1.72061e-14 2.10617e-14 9.01953e-14 -1.60301e-14 -1.05867e-13 8.00257e-14 -6.88094e-14 6.8764e-14 -4.44622e-15 -5.02528e-14 -6.3049e-14 -1.9877e-14 7.3973e-15 4.57641e-14 6.55471e-14 -1.30317e-13 -1.15036e-13 1.05262e-13 -1.43421e-13 -4.04215e-14 1.78052e-13 -2.46696e-13 8.36193e-14 4.96134e-14 6.89799e-15 2.93069e-14 3.06985e-14 -7.8439e-14 -1.6845e-15 5.86393e-14 -2.54053e-13 1.34399e-13 -1.98896e-14 5.57631e-15 -5.99351e-14 -5.03519e-14 8.96601e-14 1.08663e-13 4.01099e-14 8.6454e-14 -2.83601e-13 -3.8748e-14 2.28894e-13 5.84654e-14 2.18056e-14 -5.3618e-14 4.58851e-14 8.5628e-14 6.99752e-14 -1.70041e-13 -1.19817e-13 1.39971e-13 4.04334e-14 -3.34803e-14 -2.00302e-13 6.71486e-14 3.61808e-13 -1.0736e-13 1.38046e-13 0
				</DataArray>
				<DataArray Name="VitesseY" type="Float32" format="ascii">