<?xml version="1.0"?>
<VTKFile type="PolyData">
	<PolyData>
		<Piece NumberOfPoints="1206" NumberOfPolys="1000">
			<Points>
				<DataArray type="Float32" NumberOfComponents="3" format="ascii">
 0 0 0 0.005 0 0 0.01 0 0 0.015 0 0 0.02 0 0 0.025 0 0 0.03 0 0 0.035 0 0 0.04 0 0 0.045 0 0 0.05 0 0 0.055 0 0 0.06 0 0 0.065 0 0 0.07 0 0 0.075 0 0 0.08 0 0 0.085 0 0 0.09 0 0 0.095 0 0 0.1 0 0 0.105 0 0 0.11 0 0 0.115 0 0 0.12 0 0 0.125 0 0 0.13 0 0 0.135 0 0 0.14 0 0 0.145 0 0 0.15 0 0 0.155 0 0 0.16 0 0 0.165 0 0 0.17 0 0 0.175 0 0 0.18 0 0 0.185 0 0 0.19 0 0 0.195 0 0 0.2 0 0 0.205 0 0 0.21 0 0 0.215 0 0 0.22 0 0 0.225 0 0 0.23 0 0 0.235 0 0 0.24 0 0 0.245 0 0 0.25 0 0 0.255 0 0 0.26 0 0 0.265 0 0 0.27 0 0 0.275 0 0 0.28 0 0 0.285 0 0 0.29 0 0 0.295 0 0 0.3 0 0 0.305 0 0 0.31 0 0 0.315 0 0 0.32 0 0 0.325 0 0 0.33 0 0 0.335 0 0 0.34 0 0 0.345 0 0 0.35 0 0 0.355 0 0 0.36 0 0 0.365001 0 0 0.370002 0 0 0.375009 0 0 0.380028 0 0 0.385078 0 0 0.390191 0 0 0.395407 0 0 0.400769 0 0 0.406317 0 0 0.412084 0 0 0.418102 0 0 0.424402 0 0 0.43102 0 0 0.437994 0 0 0.445372 0 0 0.45321 0 0 0.461574 0 0 0.470542 0 0 0.480208 0 0 0.490671 0 0 0.502004 0 0 0.514104 0 0 0.526374 0 0 0.538438 0 0 0.550327 0 0 0.562115 0 0 0.573872 0 0 0.585636 0 0 0.588247 0 0 0.590784 0 0 0.593276 0 0 0.595737 0 0 0.598177 0 0 0.6006 0 0 0.603013 0 0 0.605418 0 0 0.607822 0 0 0.610227 0 0 0.612635 0 0 0.615044 0 0 0.61745 0 0 0.619851 0 0 0.622245 0 0 0.624634 0 0 0.627019 0 0 0.629402 0 0 0.631782 0 0 0.634163 0 0 0.636544 0 0 0.638928 0 0 0.641315 0 0 0.643713 0 0 0.646122 0 0 0.648561 0 0 0.651027 0 0 0.653559 0 0 0.65615 0 0 0.658875 0 0 0.661739 0 0 0.664854 0 0 0.66825 0 0 0.671998 0 0 0.676103 0 0 0.680539 0 0 0.685233 0 0 0.690091 0 0 0.695033 0 0 0.700012 0 0 0.705004 0 0 0.710001 0 0 0.715 0 0 0.72 0 0 0.725 0 0 0.73 0 0 0.735 0 0 0.74 0 0 0.745 0 0 0.75 0 0 0.755 0 0 0.76 0 0 0.765 0 0 0.77 0 0 0.775 0 0 0.78 0 0 0.785 0 0 0.79 0 0 0.795 0 0 0.8 0 0 0.805 0 0 0.81 0 0 0.815 0 0 0.82 0 0 0.825 0 0 0.83 0 0 0.835 0 0 0.84 0 0 0.845 0 0 0.85 0 0 0.855 0 0 0.86 0 0 0.865 0 0 0.87 0 0 0.875 0 0 0.88 0 0 0.885 0 0 0.89 0 0 0.895 0 0 0.9 0 0 0.905 0 0 0.91 0 0 0.915 0 0 0.92 0 0 0.925 0 0 0.93 0 0 0.935 0 0 0.94 0 0 0.945 0 0 0.95 0 0 0.955 0 0 0.96 0 0 0.965 0 0 0.97 0 0 0.975 0 0 0.98 0 0 0.985 0 0 0.99 0 0 0.995 0 0 1 0 0 0 0.02 0 0.005 0.02 0 0.01 0.02 0 0.015 0.02 0 0.02 0.02 0 0.025 0.02 0 0.03 0.02 0 0.035 0.02 0 0.04 0.02 0 0.045 0.02 0 0.05 0.02 0 0.055 0.02 0 0.06 0.02 0 0.065 0.02 0 0.07 0.02 0 0.075 0.02 0 0.08 0.02 0 0.085 0.02 0 0.09 0.02 0 0.095 0.02 0 0.1 0.02 0 0.105 0.02 0 0.11 0.02 0 0.115 0.02 0 0.12 0.02 0 0.125 0.02 0 0.13 0.02 0 0.135 0.02 0 0.14 0.02 0 0.145 0.02 0 0.15 0.02 0 0.155 0.02 0 0.16 0.02 0 0.165 0.02 0 0.17 0.02 0 0.175 0.02 0 0.18 0.02 0 0.185 0.02 0 0.19 0.02 0 0.195 0.02 0 0.2 0.02 0 0.205 0.02 0 0.21 0.02 0 0.215 0.02 0 0.22 0.02 0 0.225 0.02 0 0.23 0.02 0 0.235 0.02 0 0.24 0.02 0 0.245 0.02 0 0.25 0.02 0 0.255 0.02 0 0.26 0.02 0 0.265 0.02 0 0.27 0.02 0 0.275 0.02 0 0.28 0.02 0 0.285 0.02 0 0.29 0.02 0 0.295 0.02 0 0.3 0.02 0 0.305 0.02 0 0.31 0.02 0 0.315 0.02 0 0.32 0.02 0 0.325 0.02 0 0.33 0.02 0 0.335 0.02 0 0.34 0.02 0 0.345 0.02 0 0.35 0.02 0 0.355 0.02 0 0.36 0.02 0 0.365001 0.02 0 0.370002 0.02 0 0.375009 0.02 0 0.380028 0.02 0 0.385078 0.02 0 0.390191 0.02 0 0.395407 0.02 0 0.400769 0.02 0 0.406317 0.02 0 0.412084 0.02 0 0.418102 0.02 0 0.424402 0.02 0 0.43102 0.02 0 0.437994 0.02 0 0.445372 0.02 0 0.45321 0.02 0 0.461574 0.02 0 0.470542 0.02 0 0.480208 0.02 0 0.490671 0.02 0 0.502004 0.02 0 0.514104 0.02 0 0.526374 0.02 0 0.538438 0.02 0 0.550327 0.02 0 0.562115 0.02 0 0.573872 0.02 0 0.585636 0.02 0 0.588247 0.02 0 0.590784 0.02 0 0.593276 0.02 0 0.595737 0.02 0 0.598177 0.02 0 0.6006 0.02 0 0.603013 0.02 0 0.605418 0.02 0 0.607822 0.02 0 0.610227 0.02 0 0.612635 0.02 0 0.615044 0.02 0 0.61745 0.02 0 0.619851 0.02 0 0.622245 0.02 0 0.624634 0.02 0 0.627019 0.02 0 0.629402 0.02 0 0.631782 0.02 0 0.634163 0.02 0 0.636544 0.02 0 0.638928 0.02 0 0.641315 0.02 0 0.643713 0.02 0 0.646122 0.02 0 0.648561 0.02 0 0.651027 0.02 0 0.653559 0.02 0 0.65615 0.02 0 0.658875 0.02 0 0.661739 0.02 0 0.664854 0.02 0 0.66825 0.02 0 0.671998 0.02 0 0.676103 0.02 0 0.680539 0.02 0 0.685233 0.02 0 0.690091 0.02 0 0.695033 0.02 0 0.700012 0.02 0 0.705004 0.02 0 0.710001 0.02 0 0.715 0.02 0 0.72 0.02 0 0.725 0.02 0 0.73 0.02 0 0.735 0.02 0 0.74 0.02 0 0.745 0.02 0 0.75 0.02 0 0.755 0.02 0 0.76 0.02 0 0.765 0.02 0 0.77 0.02 0 0.775 0.02 0 0.78 0.02 0 0.785 0.02 0 0.79 0.02 0 0.795 0.02 0 0.8 0.02 0 0.805 0.02 0 0.81 0.02 0 0.815 0.02 0 0.82 0.02 0 0.825 0.02 0 0.83 0.02 0 0.835 0.02 0 0.84 0.02 0 0.845 0.02 0 0.85 0.02 0 0.855 0.02 0 0.86 0.02 0 0.865 0.02 0 0.87 0.02 0 0.875 0.02 0 0.88 0.02 0 0.885 0.02 0 0.89 0.02 0 0.895 0.02 0 0.9 0.02 0 0.905 0.02 0 0.91 0.02 0 0.915 0.02 0 0.92 0.02 0 0.925 0.02 0 0.93 0.02 0 0.935 0.02 0 0.94 0.02 0 0.945 0.02 0 0.95 0.02 0 0.955 0.02 0 0.96 0.02 0 0.965 0.02 0 0.97 0.02 0 0.975 0.02 0 0.98 0.02 0 0.985 0.02 0 0.99 0.02 0 0.995 0.02 0 1 0.02 0 0 0.04 0 0.005 0.04 0 0.01 0.04 0 0.015 0.04 0 0.02 0.04 0 0.025 0.04 0 0.03 0.04 0 0.035 0.04 0 0.04 0.04 0 0.045 0.04 0 0.05 0.04 0 0.055 0.04 0 0.06 0.04 0 0.065 0.04 0 0.07 0.04 0 0.075 0.04 0 0.08 0.04 0 0.085 0.04 0 0.09 0.04 0 0.095 0.04 0 0.1 0.04 0 0.105 0.04 0 0.11 0.04 0 0.115 0.04 0 0.12 0.04 0 0.125 0.04 0 0.13 0.04 0 0.135 0.04 0 0.14 0.04 0 0.145 0.04 0 0.15 0.04 0 0.155 0.04 0 0.16 0.04 0 0.165 0.04 0 0.17 0.04 0 0.175 0.04 0 0.18 0.04 0 0.185 0.04 0 0.19 0.04 0 0.195 0.04 0 0.2 0.04 0 0.205 0.04 0 0.21 0.04 0 0.215 0.04 0 0.22 0.04 0 0.225 0.04 0 0.23 0.04 0 0.235 0.04 0 0.24 0.04 0 0.245 0.04 0 0.25 0.04 0 0.255 0.04 0 0.26 0.04 0 0.265 0.04 0 0.27 0.04 0 0.275 0.04 0 0.28 0.04 0 0.285 0.04 0 0.29 0.04 0 0.295 0.04 0 0.3 0.04 0 0.305 0.04 0 0.31 0.04 0 0.315 0.04 0 0.32 0.04 0 0.325 0.04 0 0.33 0.04 0 0.335 0.04 0 0.34 0.04 0 0.345 0.04 0 0.35 0.04 0 0.355 0.04 0 0.36 0.04 0 0.365001 0.04 0 0.370002 0.04 0 0.375009 0.04 0 0.380028 0.04 0 0.385078 0.04 0 0.390191 0.04 0 0.395407 0.04 0 0.400769 0.04 0 0.406317 0.04 0 0.412084 0.04 0 0.418102 0.04 0 0.424402 0.04 0 0.43102 0.04 0 0.437994 0.04 0 0.445372 0.04 0 0.45321 0.04 0 0.461574 0.04 0 0.470542 0.04 0 0.480208 0.04 0 0.490671 0.04 0 0.502004 0.04 0 0.514104 0.04 0 0.526374 0.04 0 0.538438 0.04 0 0.550327 0.04 0 0.562115 0.04 0 0.573872 0.04 0 0.585636 0.04 0 0.588247 0.04 0 0.590784 0.04 0 0.593276 0.04 0 0.595737 0.04 0 0.598177 0.04 0 0.6006 0.04 0 0.603013 0.04 0 0.605418 0.04 0 0.607822 0.04 0 0.610227 0.04 0 0.612635 0.04 0 0.615044 0.04 0 0.61745 0.04 0 0.619851 0.04 0 0.622245 0.04 0 0.624634 0.04 0 0.627019 0.04 0 0.629402 0.04 0 0.631782 0.04 0 0.634163 0.04 0 0.636544 0.04 0 0.638928 0.04 0 0.641315 0.04 0 0.643713 0.04 0 0.646122 0.04 0 0.648561 0.04 0 0.651027 0.04 0 0.653559 0.04 0 0.65615 0.04 0 0.658875 0.04 0 0.661739 0.04 0 0.664854 0.04 0 0.66825 0.04 0 0.671998 0.04 0 0.676103 0.04 0 0.680539 0.04 0 0.685233 0.04 0 0.690091 0.04 0 0.695033 0.04 0 0.700012 0.04 0 0.705004 0.04 0 0.710001 0.04 0 0.715 0.04 0 0.72 0.04 0 0.725 0.04 0 0.73 0.04 0 0.735 0.04 0 0.74 0.04 0 0.745 0.04 0 0.75 0.04 0 0.755 0.04 0 0.76 0.04 0 0.765 0.04 0 0.77 0.04 0 0.775 0.04 0 0.78 0.04 0 0.785 0.04 0 0.79 0.04 0 0.795 0.04 0 0.8 0.04 0 0.805 0.04 0 0.81 0.04 0 0.815 0.04 0 0.82 0.04 0 0.825 0.04 0 0.83 0.04 0 0.835 0.04 0 0.84 0.04 0 0.845 0.04 0 0.85 0.04 0 0.855 0.04 0 0.86 0.04 0 0.865 0.04 0 0.87 0.04 0 0.875 0.04 0 0.88 0.04 0 0.885 0.04 0 0.89 0.04 0 0.895 0.04 0 0.9 0.04 0 0.905 0.04 0 0.91 0.04 0 0.915 0.04 0 0.92 0.04 0 0.925 0.04 0 0.93 0.04 0 0.935 0.04 0 0.94 0.04 0 0.945 0.04 0 0.95 0.04 0 0.955 0.04 0 0.96 0.04 0 0.965 0.04 0 0.97 0.04 0 0.975 0.04 0 0.98 0.04 0 0.985 0.04 0 0.99 0.04 0 0.995 0.04 0 1 0.04 0 0 0.06 0 0.005 0.06 0 0.01 0.06 0 0.015 0.06 0 0.02 0.06 0 0.025 0.06 0 0.03 0.06 0 0.035 0.06 0 0.04 0.06 0 0.045 0.06 0 0.05 0.06 0 0.055 0.06 0 0.06 0.06 0 0.065 0.06 0 0.07 0.06 0 0.075 0.06 0 0.08 0.06 0 0.085 0.06 0 0.09 0.06 0 0.095 0.06 0 0.1 0.06 0 0.105 0.06 0 0.11 0.06 0 0.115 0.06 0 0.12 0.06 0 0.125 0.06 0 0.13 0.06 0 0.135 0.06 0 0.14 0.06 0 0.145 0.06 0 0.15 0.06 0 0.155 0.06 0 0.16 0.06 0 0.165 0.06 0 0.17 0.06 0 0.175 0.06 0 0.18 0.06 0 0.185 0.06 0 0.19 0.06 0 0.195 0.06 0 0.2 0.06 0 0.205 0.06 0 0.21 0.06 0 0.215 0.06 0 0.22 0.06 0 0.225 0.06 0 0.23 0.06 0 0.235 0.06 0 0.24 0.06 0 0.245 0.06 0 0.25 0.06 0 0.255 0.06 0 0.26 0.06 0 0.265 0.06 0 0.27 0.06 0 0.275 0.06 0 0.28 0.06 0 0.285 0.06 0 0.29 0.06 0 0.295 0.06 0 0.3 0.06 0 0.305 0.06 0 0.31 0.06 0 0.315 0.06 0 0.32 0.06 0 0.325 0.06 0 0.33 0.06 0 0.335 0.06 0 0.34 0.06 0 0.345 0.06 0 0.35 0.06 0 0.355 0.06 0 0.36 0.06 0 0.365001 0.06 0 0.370002 0.06 0 0.375009 0.06 0 0.380028 0.06 0 0.385078 0.06 0 0.390191 0.06 0 0.395407 0.06 0 0.400769 0.06 0 0.406317 0.06 0 0.412084 0.06 0 0.418102 0.06 0 0.424402 0.06 0 0.43102 0.06 0 0.437994 0.06 0 0.445372 0.06 0 0.45321 0.06 0 0.461574 0.06 0 0.470542 0.06 0 0.480208 0.06 0 0.490671 0.06 0 0.502004 0.06 0 0.514104 0.06 0 0.526374 0.06 0 0.538438 0.06 0 0.550327 0.06 0 0.562115 0.06 0 0.573872 0.06 0 0.585636 0.06 0 0.588247 0.06 0 0.590784 0.06 0 0.593276 0.06 0 0.595737 0.06 0 0.598177 0.06 0 0.6006 0.06 0 0.603013 0.06 0 0.605418 0.06 0 0.607822 0.06 0 0.610227 0.06 0 0.612635 0.06 0 0.615044 0.06 0 0.61745 0.06 0 0.619851 0.06 0 0.622245 0.06 0 0.624634 0.06 0 0.627019 0.06 0 0.629402 0.06 0 0.631782 0.06 0 0.634163 0.06 0 0.636544 0.06 0 0.638928 0.06 0 0.641315 0.06 0 0.643713 0.06 0 0.646122 0.06 0 0.648561 0.06 0 0.651027 0.06 0 0.653559 0.06 0 0.65615 0.06 0 0.658875 0.06 0 0.661739 0.06 0 0.664854 0.06 0 0.66825 0.06 0 0.671998 0.06 0 0.676103 0.06 0 0.680539 0.06 0 0.685233 0.06 0 0.690091 0.06 0 0.695033 0.06 0 0.700012 0.06 0 0.705004 0.06 0 0.710001 0.06 0 0.715 0.06 0 0.72 0.06 0 0.725 0.06 0 0.73 0.06 0 0.735 0.06 0 0.74 0.06 0 0.745 0.06 0 0.75 0.06 0 0.755 0.06 0 0.76 0.06 0 0.765 0.06 0 0.77 0.06 0 0.775 0.06 0 0.78 0.06
[...]
			<PointData Scalars="VitesseX">
				<DataArray Name="VitesseX" type="Float32" format="ascii">
 0 -2.94398e-16 -3.23857e-15 -4.88131e-15 -7.26953e-15 -1.09675e-14 -8.23412e-15 -8.46099e-15 -8.39446e-15 -1.11901e-14 -2.04238e-14 -1.37607e-14 -1.55293e-14 -1.47919e-14 -1.52398e-14 -1.56375e-14 -1.69749e-14 -6.33064e-15 -1.53015e-14 -2.32878e-14 -1.54377e-14 -1.39338e-14 -2.11232e-14 -7.95735e-15 -1.96485e-14 -3.16658e-14 -1.7062e-14 -1.13456e-14 -2.26713e-14 -1.80049e-14 -1.71601e-14 -2.22502e-14 -1.58333e-14 -1.14025e-14 -2.14291e-14 -1.23076e-14 -4.45352e-15 1.87418e-15 -2.01683e-14 -5.86506e-15 -6.60229e-15 -2.89857e-15 -2.24359e-14 -2.73091e-14 -2.00446e-14 -5.99767e-15 -2.14097e-14 1.03121e-14 -3.00607e-14 -1.76169e-14 -5.9125e-14 -3.48513e-14 -2.99077e-14 -2.43629e-14 -5.1796e-14 2.54217e-14 -6.36578e-14 -2.49357e-14 -2.23554e-14 1.3139e-14 -4.35771e-14 -2.56305e-14 1.40385e-13 1.08408e-12 1.06241e-11 9.52178e-11 7.96772e-10 6.1616e-09 4.38895e-08 2.86651e-07 1.70754e-06 9.21958e-06 4.47858e-05 0.000193971 0.000740877 0.00246389 0.00704099 0.01712 0.03539 0.0629818 0.0988868 0.141065 0.187797 0.238143 0.291748 0.348584 0.408792 0.472605 0.54031 0.612195 0.688418 0.768651 0.850941 0.927764 0.97251 0.957343 0.942494 0.932275 0.92845 0.927505 0.926807 0.926659 0.926521 0.92639 0.926266 0.926143 0.926023 0.9259 0.92578 0.925649 0.925529 0.925389 0.925277 0.925118 0.925031 0.924817 0.92477 0.924398 0.924394 0.923591 0.923634 0.921592 0.921755 0.916143 0.91669 0.901661 0.903417 0.867717 0.872689 0.801449 0.797137 0.684512 0.619379 0.488053 0.367598 0.24268 0.139906 0.068532 0.0289783 0.0110677 0.00399791 0.00140233 0.000482852 0.000163753 5.47241e-05 1.80126e-05 5.8353e-06 1.85922e-06 5.82237e-07 1.79116e-07 5.41047e-08 1.60408e-08 4.66611e-09 1.3313e-09 3.72402e-10 1.02074e-10 2.74608e-11 7.1007e-12 1.80579e-12 3.85845e-13 5.46198e-14 -5.04609e-14 3.32421e-14 -8.94437e-15 -1.15184e-13 -5.07838e-14 4.7221e-14 -1.06678e-13 -6.19422e-14 7.73115e-14 -5.94475e-14 2.53424e-14 -3.17759e-14 -9.21154e-15 -8.13757e-15 -5.33424e-14 1.02922e-13 -9.38665e-14 -1.16705e-14 -5.76541e-14 -2.27526e-14 6.19774e-14 -5.4758e-14 7.7507e-14 5.71543e-14 9.33946e-14 -4.34704e-15 1.28394e-13 1.20994e-13 8.31044e-14 2.6623e-14 -3.05579e-14 3.2883e-14 1.30925e-13 -1.93243e-14 -1.41697e-14 -4.72223e-14 2.94394e-14 -1.69928e-14 4.35896e-15 0 0 -1.8676e-15 -1.69901e-15 -3.54176e-15 -6.53639e-15 -7.13231e-15 -9.33761e-15 -6.85215e-15 -6.95578e-15 -1.21183e-14 -1.86917e-14 -1.66775e-14 -1.7083e-14 -1.2786e-14 -1.33716e-14 -2.17374e-14 -1.23842e-14 -9.79803e-15 -1.75406e-14 -2.26385e-14 -1.82915e-14 -1.22939e-14 -1.93923e-14 -1.55119e-14 -1.86509e-14 -2.43621e-14 -2.93604e-14 -2.09898e-14 -1.64217e-14 -1.17445e-14 -3.00148e-15 -1.72624e-14 -1.53739e-14 -1.81173e-14 6.57289e-15 -2.4923e-14 -1.38479e-14 9.06678e-15 -3.17995e-14 -1.31398e-14 -4.76392e-15 -1.61495e-14 -2.76186e-15 -3.00831e-14 -2.19094e-14 -2.8971e-14 6.75092e-15 -2.09622e-14 -1.42823e-14 -2.14514e-14 -3.92211e-14 -3.52523e-14 -4.90722e-14 -4.68426e-14 -3.43027e-15 -1.00136e-14 -5.71875e-14 -6.11848e-15 -3.68656e-14 2.51425e-14 -2.74332e-14 8.6514e-15 1.19262e-13 1.10789e-12 1.06285e-11 9.52506e-11 7.96822e-10 6.16153e-09 4.38895e-08 2.86651e-07 1.70754e-06 9.21958e-06 4.47858e-05 0.000193971 0.000740877 0.00246389 0.00704099 0.01712 0.03539 0.0629818 0.0988868 0.141065 0.187797 0.238143 0.291748 0.348584 0.408792 0.472605 0.54031 0.612195 0.688418 0.768651 0.850941 0.927764 0.97251 0.957343 0.942494 0.932275 0.92845 0.927505 0.926807 0.926659 0.926521 0.92639 0.926266 0.926143 0.926023 0.9259 0.92578 0.925649 0.925529 0.925389 0.925277 0.925118 0.925031 0.924817 0.92477 0.924398 0.924394 0.923591 0.923634 0.921592 0.921755 0.916143 0.91669 0.901661 0.903417 0.867717 0.872689 0.801449 0.797137 0.684512 0.619379 0.488053 0.367598 0.24268 0.139906 0.068532 0.0289783 0.0110677 0.00399791 0.00140233 0.000482852 0.000163753 5.47241e-05 1.80126e-05 5.8353e-06 1.85922e-06 5.82238e-07 1.79116e-07 5.41046e-08 1.60408e-08 4.66605e-09 1.33131e-09 3.72418e-10 1.02072e-10 2.73593e-11 7.16664e-12 1.83572e-12 2.75934e-13 5.1601e-14 -2.44511e-15 3.24388e-14 -6.24591e-14 -2.27872e-14 -3.07265e-14 -9.33289e-14 4.5103e-15 -8.8916e-14 -2.1075e-14 4.16475e-14 -5.63178e-14 3.75093e-14 -9.49316e-14 4.9266e-14 -5.91402e-14 9.29518e-14 -5.28591e-14 -7.60358e-15 -4.05616e-14 1.45119e-15 -2.21782e-14 7.14199e-14 -8.68729e-15 6.14898e-14 6.86171e-14 8.71271e-14 6.26729e-14 1.01174e-13 3.96019e-14 2.59009e-14 -6.33867e-14 3.5895e-14 9.07706e-14 4.11998e-14 -5.10587e-15 -4.20541e-14 1.38486e-14 8.07037e-14 2.62482e-14 0 0 -1.06668e-15 -1.45638e-15 -7.31527e-16 -2.48832e-15 -4.04079e-15 -1.04623e-14 -6.06515e-15 -1.24933e-14 -6.2009e-15 -2.30012e-14 -1.02486e-14 -1.58798e-14 -1.47186e-14 -1.71347e-14 -1.79098e-14 -1.2948e-14 -2.24006e-14 -1.42894e-14 -1.62012e-14 -2.47454e-14 -2.32557e-14 -3.09691e-14 -2.24292e-14 -1.9837e-14 -1.56498e-14 -2.73441e-14 -2.52804e-14 -1.60121e-14 1.12552e-14 -1.62538e-14 1.03286e-14 -1.47232e-14 -2.31226e-14 2.98965e-14 -2.69516e-14 -9.61632e-15 -1.55141e-14 -3.05055e-14 -3.57601e-14 -1.48869e-14 -1.75884e-14 -3.03875e-15 -1.26095e-14 -3.24246e-14 -2.55997e-14 -1.28342e-14 -2.6473e-14 -8.11987e-15 -2.35394e-14 -8.55612e-15 -3.25471e-14 -7.31724e-14 -1.84529e-14 -1.19406e-14 -2.9857e-14 -2.63551e-14 -1.5327e-14 -2.30714e-14 5.53943e-14 -3.42777e-14 7.85555e-15 1.80329e-13 1.13947e-12 1.06299e-11 9.53372e-11 7.9685e-10 6.16153e-09 4.38896e-08 2.86651e-07 1.70754e-06 9.21958e-06 4.47858e-05 0.000193971 0.000740877 0.00246389 0.00704099 0.01712 0.03539 0.0629818 0.0988868 0.141065 0.187797 0.238143 0.291748 0.348584 0.408792 0.472605 0.54031 0.612195 0.688418 0.768651 0.850941 0.927764 0.97251 0.957343 0.942494 0.932275 0.92845 0.927505 0.926807 0.926659 0.926521 0.92639 0.926266 0.926143 0.926023 0.9259 0.92578 0.925649 0.925529 0.925389 0.925277 0.925118 0.925031 0.924817 0.92477 0.924398 0.924394 0.923591 0.923634 0.921592 0.921755 0.916143 0.91669 0.901661 0.903417 0.867717 0.872689 0.801449 0.797137 0.684512 0.619379 0.488053 0.367598 0.24268 0.139906 0.068532 0.0289783 0.0110677 0.00399791 0.00140233 0.000482852 0.000163753 5.47241e-05 1.80126e-05 5.8353e-06 1.85922e-06 5.82238e-07 1.79116e-07 5.41047e-08 1.60408e-08 4.666e-09 1.33126e-09 3.72442e-10 1.02026e-10 2.73864e-11 7.00526e-12 1.82138e-12 3.23467e-13 1.70212e-15 -1.0074e-13 2.6941e-14 -7.72964e-14 3.15631e-14 5.24274e-14 -1.2635e-13 -4.57448e-14 1.17313e-14 -2.32133e-14 5.5174e-14 -1.06738e-13 2.82377e-14 -1.17337e-13 1.11543e-13 3.98639e-14 -9.06476e-14 -2.71765e-14 -7.06673e-14 -8.92319e-14 1.85507e-13 9.77423e-16 1.21903e-13 -1.34426e-13 7.6446e-14 6.74424e-14 1.25102e-13 3.34445e-14 1.04173e-13 2.3832e-14 -5.01659e-14 -1.01391e-13 6.60539e-14 -3.06432e-14 1.49345e-13 6.02355e-15 3.79912e-14 2.54722e-14 1.00999e-13 1.11634e-13 0 0 1.51649e-15 -1.96583e-15 4.56614e-16 -1.31107e-15 -1.44816e-15 -1.16514e-14 -7.49486e-15 -1.69524e-14 -5.14414e-15 -1.83453e-14 -1.20389e-14 -1.28966e-14 -9.04187e-15 -1.61106e-14 -2.57375e-14 -1.83644e-14 -2.5148e-14 -3.00553e-14 -2.39952e-14 -1.98991e-14 -3.53065e-14 -2.72289e-14 -2.73057e-14 -4.41491e-15 -1.6744e-14 -9.60856e-15 -4.01749e-14 -2.39181e-14 2.25788e-14 1.61218e-14 6.12081e-15 1.95552e-16 -1.37792e-14 6.83035e-15 -8.15214e-15 -3.43541e-14 -4.6513e-14 -1.50108e-14 -2.91467e-14 -4.82168e-15 -5.48845e-14 -2.11793e-14 -7.67319e-15 -3.28304e-14 1.54942e-14 -1.08536e-13 -2.27253e-14 -9.47965e-15 -1.88215e-14 -1.94487e-14 -3.40336e-14 -1.51044e-14 -3.55397e-15 -4.54839e-14 -1.93577e-14 -1.50606e-14 -1.03488e-14 -7.57625e-15 4.34632e-14 -2.50579e-14 1.69389e-14 2.45278e-13 1.16141e-12 1.06779e-11 9.53741e-11 7.96855e-10 6.16163e-09 4.38895e-08 2.86651e-07 1.70754e-06 9.21958e-06 4.47858e-05 0.000193971 0.000740877 0.00246389 0.00704099 0.01712 0.03539 0.0629818 0.0988868 0.141065 0.187797 0.238143 0.291748 0.348584 0.408792 0.472605 0.54031 0.612195 0.688418 0.768651 0.850941 0.927764 0.97251 0.957343 0.942494 0.932275 0.92845 0.927505 0.926807 0.926659 0.926521 0.92639 0.926266 0.926143 0.926023 0.9259 0.92578 0.925649 0.925529 0.925389 0.925277 0.925118 0.925031 0.924817 0.92477 0.924398 0.924394 0.923591 0.923634 0.921592 0.921755 0.916143 0.91669 0.901661 0.903417 0.867717 0.872689 0.801449 0.797137 0.684512 0.619379 0.488053 0.367598 0.24268 0.139906 0.068532 0.0289783 0.0110677 0.00399791 0.00140233 0.000482852 0.000163753 5.47241e-05 1.80126e-05 5.8353e-06 1.85922e-06 5.82237e-07 1.79116e-07 5.41047e-08 1.60408e-08 4.66599e-09 1.33123e-09 3.72378e-10 1.02024e-10 2.7374e-11 7.03006e-12 1.72487e-12 4.209e-13 -2.05061e-14 -1.25773e-13 1.87598e-14 -3.73741e-14 -1.80836e-13 3.4073e-14 -9.24662e-15 -7.00071e-14 -2.02109e-14 -7.76729e-14 5.31649e-15 3.00376e-14 -6.5595e-14 -3.9725e-14 1.15671e-14 1.6084e-13 -1.17118e-13 -1.35157e-13 4.06579e-14 -5.89848e-14 1.03713e-13 1.63684e-13 -7.41322e-14 1.00428e-13 -8.71558e-14 5.86864e-14 7.93809e-14 1.72311e-13 1.54678e-14 -1.01777e-13 1.119e-13 -4.04728e-14 2.5146e-14 -6.04734e-14 7.50649e-14 1.54482e-14 5.75883e-14 4.85477e-14 5.00183e-14 1.24484e-13 0 0 1.03413e-15 1.07816e-15 7.42546e-17 -1.2822e-15 -1.10968e-15 -1.43591e-14 -1.0543e-14 -1.15548e-14 -1.07573e-14 -3.84265e-15 -1.68294e-14 -1.50536e-14 -2.41382e-15 -2.35856e-14 -2.79174e-14 -2.66381e-14 -4.43471e-14 -3.62889e-14 -3.05645e-14 -1.40927e-14 -3.13995e-14 -3.58758e-15 -3.38895e-14 6.65887e-16 -1.1758e-14 -1.57408e-14 -9.956e-15 -4.37786e-15 -1.40246e-15 2.46541e-14 -1.63808e-14 4.00177e-14 -7.66481e-15 -1.68855e-14 -1.37292e-14 -3.29148e-14 -5.74527e-14 -6.83336e-15 -1.16804e-14 4.34647e-15 -1.29922e-13 1.30469e-14 -2.67802e-14 -3.57994e-14 8.98203e-15 -1.3172e-13 -4.83832e-14 1.72592e-15 -4.45864e-14 -1.60093e-14 -7.48163e-14 1.0497e-14 -2.09198e-14 -1.9449e-14 -3.7955e-14 -1.52522e-14 -9.59858e-15 -2.73587e-16 1.32366e-14 1.57225e-15 1.00039e-14 2.58346e-13 1.20672e-12 1.07481e-11 9.53673e-11 7.96955e-10 6.16163e-09 4.38895e-08 2.86651e-07 1.70754e-06 9.21958e-06 4.47858e-05 0.000193971 0.000740877 0.00246389 0.00704099 0.01712 0.03539 0.0629818 0.0988868 0.141065 0.187797 0.238143 0.291748 0.348584 0.408792 0.472605 0.54031 0.612195 0.688418 0.768651 0.850941 0.927764 0.97251 0.957343 0.942494 0.932275 0.92845 0.927505 0.926807 0.926659 0.926521 0.92639 0.926266 0.926143 0.926023 0.9259 0.92578 0.925649 0.925529 0.925389 0.925277 0.925118 0.925031 0.924817 0.92477 0.924398 0.924394 0.923591 0.923634 0.921592 0.921755 0.916143 0.91669 0.901661 0.903417 0.867717 0.872689 0.801449 0.797137 0.684512 0.619379 0.488053 0.367598 0.24268 0.139906 0.068532 0.0289783 0.0110677 0.00399791 0.00140233 0.000482852 0.000163753 5.47241e-05 1.80126e-05 5.8353e-06 1.85922e-06 5.82237e-07 1.79117e-07 5.41044e-08 1.60408e-08 4.6659e-09 1.33121e-09 3.72366e-10 1.02051e-10 2.72051e-11 7.23357e-12 1.57315e-12 3.0128e-13 1.11854e-13 -5.57831e-15 -1.37458e-13 -5.80607e-14 -1.04598e-13 -2.74469e-14 -3.71652e-14 3.2892e-14 -1.99503e-13 7.42724e-14 -6.65206e-14 8.30003e-14 -1.7141e-13 -1.11693e-13 -4.29305e-14 1.80608e-13 8.67512e-14 -8.3885e-14 7.28888e-14 1.13105e-13 -3.31885e-14 -1.28365e-14 -1.0409e-13 9.05124e-14 -4.28274e-14 7.69408e-14 6.31081e-14 1.15167e-13 -8.19082e-14 -1.02996e-13 1.75703e-13 1.51922e-13 -5.65443e-14 7.60879e-14 -3.37681e-14 -2.02254e-14 -5.79257e-14 4.63076e-14 -8.42461e-14 2.76609e-14 0 0 3.42736e-16 3.33465e-15 -2.55543e-17 8.84337e-16 -4.10748e-15 -1.5899e-14 -1.29832e-14 -8.67421e-15 -1.05816e-14 -3.77355e-17 -1.04838e-14 -1.74368e-14 -5.4009e-15 -3.7716e-14 -1.23419e-14 -3.46498e-14 -6.99341e-14 -2.12665e-14 -2.35518e-14 -1.67326e-14 -2.80436e-14 3.00584e-15 -3.49596e-14 -1.18591e-14 -4.26918e-15 -2.52937e-14 4.0511e-14 1.72286e-14 -1.99681e-14 -2.66002e-14 -1.20713e-14 6.51125e-14 -9.18422e-15 -2.22137e-14 -2.75189e-14 6.88809e-15 -6.9167e-14 -1.2256e-15 -1.61729e-14 -8.51202e-15 -1.55851e-13 4.54627e-14 -3.05761e-14 -4.70127e-14 -1.22793e-14 -1.06948e-13 -5.2025e-14 4.67532e-15 -7.33227e-14 9.08385e-15 -1.11006e-13 -2.69053e-14 -2.31524e-15 -1.67468e-14 -5.14598e-14 -2.37618e-15 -4.18522e-14 1.98384e-14 1.31893e-14 -4.00588e-15 -4.10921e-14 2.88657e-13 1.23787e-12 1.07673e-11 9.53773e-11 7.97027e-10 6.1616e-09 4.38896e-08 2.86651e-07 1.70754e-06 9.21958e-06 4.47858e-05 0.000193971 0.000740877 0.00246389 0.00704099 0.01712 0.03539 0.0629818 0.0988868 0.141065 0.187797 0.238143 0.291748 0.348584 0.408792 0.472605 0.54031 0.612195 0.688418 0.768651 0.850941 0.927764 0.97251 0.957343 0.942494 0.932275 0.92845 0.927505 0.926807 0.926659 0.926521 0.92639 0.926266 0.926143 0.926023 0.9259 0.92578 0.925649 0.925529 0.925389 0.925277 0.925118 0.925031 0.924817 0.92477 0.924398 0.924394 0.923591 0.923634 0.921592 0.921755 0.916143 0.91669 0.901661 0.903417 0.867717 0.872689 0.801449 0.797137 0.684512 0.619379 0.488053 0.367598 0.24268 0.139906 0.068532 0.0289783 0.0110677 0.00399791 0.00140233 0.000482852 0.000163753 5.47241e-05 1.80126e-05 5.8353e-06 1.85922e-06 5.82237e-07 1.79117e-07 5.41042e-08 1.60407e-08 4.66584e-09 1.33114e-09 3.72426e-10 1.02037e-10 2.71772e-11 7.18505e-12 1.47331e-12 2.41588e-13 2.19662e-13 -6.94502e-15 -2.90102e-13 -8.00917e-14 1.45676e-13 -7.51547e-15 -7.48801e-14 -1.606e-15 -2.19533e-13 3.76618e-13 -1.7645e-13 3.01407e-14 -2.61942e-13 -1.98337e-13 7.37593e-15 1.84774e-13 1.43827e-13 6.00372e-14 -7.27263e-14 1.89909e-13 7.19712e-14 -2.44341e-13 -1.36487e-14 -1.93995e-13 1.75842e-13 1.27883e-13 3.92225e-14 -4.40887e-14 -6.74196e-14 4.91033e-14 1.65668e-15 2.78241e-13 -6.98176e-14 1.61282e-13 -2.06183e-14 -6.33243e-14 -1.18396e-13 4.82465e-14 -2.45092e-13 -1.87271e-14 0
				</DataArray>
				<DataArray Name="VitesseY" type="Float32" format="ascii">