<?xml version="1.0"?>
<VTKFile type="PolyData">
	<PolyData>
		<Piece NumberOfPoints="1206" NumberOfPolys="1000">
			<Points>
				<DataArray type="Float32" NumberOfComponents="3" format="ascii">
 0 0 0 0.005 0 0 0.01 0 0 0.015 0 0 0.02 0 0 0.025 0 0 0.03 0 0 0.035 0 0 0.04 0 0 0.045 0 0 0.05 0 0 0.055 0 0 0.06 0 0 0.065 0 0 0.07 0 0 0.075 0 0 0.08 0 0 0.085 0 0 0.09 0 0 0.095 0 0 0.1 0 0 0.105 0 0 0.11 0 0 0.115 0 0 0.12 0 0 0.125 0 0 0.13 0 0 0.135 0 0 0.14 0 0 0.145 0 0 0.15 0 0 0.155 0 0 0.16 0 0 0.165 0 0 0.17 0 0 0.175 0 0 0.18 0 0 0.185 0 0 0.19 0 0 0.195 0 0 0.2 0 0 0.205 0 0 0.21 0 0 0.215 0 0 0.22 0 0 0.225 0 0 0.23 0 0 0.235 0 0 0.24 0 0 0.245 0 0 0.25 0 0 0.255 0 0 0.26 0 0 0.265 0 0 0.27 0 0 0.275 0 0 0.28 0 0 0.285 0 0 0.29 0 0 0.295 0 0 0.3 0 0 0.305 0 0 0.31 0 0 0.315 0 0 0.32 0 0 0.325 0 0 0.33 0 0 0.335 0 0 0.34 0 0 0.345 0 0 0.35 0 0 0.355 0 0 0.36 0 0 0.365 0 0 0.37 0 0 0.375 0 0 0.38 0 0 0.385 0 0 0.39 0 0 0.395 0 0 0.4 0 0 0.405 0 0 0.41 0 0 0.415 0 0 0.42 0 0 0.425 0 0 0.43 0 0 0.435 0 0 0.44 0 0 0.445 0 0 0.450002 0 0 0.455016 0 0 0.460081 0 0 0.465308 0 0 0.470897 0 0 0.477109 0 0 0.484256 0 0 0.492763 0 0 0.503227 0 0 0.515736 0 0 0.528082 0 0 0.530748 0 0 0.533346 0 0 0.535906 0 0 0.53844 0 0 0.54093 0 0 0.543404 0 0 0.545915 0 0 0.548544 0 0 0.551334 0 0 0.554397 0 0 0.557787 0 0 0.561574 0 0 0.565763 0 0 0.570307 0 0 0.575101 0 0 0.580029 0 0 0.585007 0 0 0.590002 0 0 0.595 0 0 0.6 0 0 0.605 0 0 0.61 0 0 0.615 0 0 0.62 0 0 0.625 0 0 0.63 0 0 0.635 0 0 0.64 0 0 0.645 0 0 0.65 0 0 0.655 0 0 0.66 0 0 0.665 0 0 0.67 0 0 0.675 0 0 0.68 0 0 0.685 0 0 0.69 0 0 0.695 0 0 0.7 0 0 0.705 0 0 0.71 0 0 0.715 0 0 0.72 0 0 0.725 0 0 0.73 0 0 0.735 0 0 0.74 0 0 0.745 0 0 0.75 0 0 0.755 0 0 0.76 0 0 0.765 0 0 0.77 0 0 0.775 0 0 0.78 0 0 0.785 0 0 0.79 0 0 0.795 0 0 0.8 0 0 0.805 0 0 0.81 0 0 0.815 0 0 0.82 0 0 0.825 0 0 0.83 0 0 0.835 0 0 0.84 0 0 0.845 0 0 0.85 0 0 0.855 0 0 0.86 0 0 0.865 0 0 0.87 0 0 0.875 0 0 0.88 0 0 0.885 0 0 0.89 0 0 0.895 0 0 0.9 0 0 0.905 0 0 0.91 0 0 0.915 0 0 0.92 0 0 0.925 0 0 0.93 0 0 0.935 0 0 0.94 0 0 0.945 0 0 0.95 0 0 0.955 0 0 0.96 0 0 0.965 0 0 0.97 0 0 0.975 0 0 0.98 0 0 0.985 0 0 0.99 0 0 0.995 0 0 1 0 0 0 0.02 0 0.005 0.02 0 0.01 0.02 0 0.015 0.02 0 0.02 0.02 0 0.025 0.02 0 0.03 0.02 0 0.035 0.02 0 0.04 0.02 0 0.045 0.02 0 0.05 0.02 0 0.055 0.02 0 0.06 0.02 0 0.065 0.02 0 0.07 0.02 0 0.075 0.02 0 0.08 0.02 0 0.085 0.02 0 0.09 0.02 0 0.095 0.02 0 0.1 0.02 0 0.105 0.02 0 0.11 0.02 0 0.115 0.02 0 0.12 0.02 0 0.125 0.02 0 0.13 0.02 0 0.135 0.02 0 0.14 0.02 0 0.145 0.02 0 0.15 0.02 0 0.155 0.02 0 0.16 0.02 0 0.165 0.02 0 0.17 0.02 0 0.175 0.02 0 0.18 0.02 0 0.185 0.02 0 0.19 0.02 0 0.195 0.02 0 0.2 0.02 0 0.205 0.02 0 0.21 0.02 0 0.215 0.02 0 0.22 0.02 0 0.225 0.02 0 0.23 0.02 0 0.235 0.02 0 0.24 0.02 0 0.245 0.02 0 0.25 0.02 0 0.255 0.02 0 0.26 0.02 0 0.265 0.02 0 0.27 0.02 0 0.275 0.02 0 0.28 0.02 0 0.285 0.02 0 0.29 0.02 0 0.295 0.02 0 0.3 0.02 0 0.305 0.02 0 0.31 0.02 0 0.315 0.02 0 0.32 0.02 0 0.325 0.02 0 0.33 0.02 0 0.335 0.02 0 0.34 0.02 0 0.345 0.02 0 0.35 0.02 0 0.355 0.02 0 0.36 0.02 0 0.365 0.02 0 0.37 0.02 0 0.375 0.02 0 0.38 0.02 0 0.385 0.02 0 0.39 0.02 0 0.395 0.02 0 0.4 0.02 0 0.405 0.02 0 0.41 0.02 0 0.415 0.02 0 0.42 0.02 0 0.425 0.02 0 0.43 0.02 0 0.435 0.02 0 0.44 0.02 0 0.445 0.02 0 0.450002 0.02 0 0.455016 0.02 0 0.460081 0.02 0 0.465308 0.02 0 0.470897 0.02 0 0.477109 0.02 0 0.484256 0.02 0 0.492763 0.02 0 0.503227 0.02 0 0.515736 0.02 0 0.528082 0.02 0 0.530748 0.02 0 0.533346 0.02 0 0.535906 0.02 0 0.53844 0.02 0 0.54093 0.02 0 0.543404 0.02 0 0.545915 0.02 0 0.548544 0.02 0 0.551334 0.02 0 0.554397 0.02 0 0.557787 0.02 0 0.561574 0.02 0 0.565763 0.02 0 0.570307 0.02 0 0.575101 0.02 0 0.580029 0.02 0 0.585007 0.02 0 0.590002 0.02 0 0.595 0.02 0 0.6 0.02 0 0.605 0.02 0 0.61 0.02 0 0.615 0.02 0 0.62 0.02 0 0.625 0.02 0 0.63 0.02 0 0.635 0.02 0 0.64 0.02 0 0.645 0.02 0 0.65 0.02 0 0.655 0.02 0 0.66 0.02 0 0.665 0.02 0 0.67 0.02 0 0.675 0.02 0 0.68 0.02 0 0.685 0.02 0 0.69 0.02 0 0.695 0.02 0 0.7 0.02 0 0.705 0.02 0 0.71 0.02 0 0.715 0.02 0 0.72 0.02 0 0.725 0.02 0 0.73 0.02 0 0.735 0.02 0 0.74 0.02 0 0.745 0.02 0 0.75 0.02 0 0.755 0.02 0 0.76 0.02 0 0.765 0.02 0 0.77 0.02 0 0.775 0.02 0 0.78 0.02 0 0.785 0.02 0 0.79 0.02 0 0.795 0.02 0 0.8 0.02 0 0.805 0.02 0 0.81 0.02 0 0.815 0.02 0 0.82 0.02 0 0.825 0.02 0 0.83 0.02 0 0.835 0.02 0 0.84 0.02 0 0.845 0.02 0 0.85 0.02 0 0.855 0.02 0 0.86 0.02 0 0.865 0.02 0 0.87 0.02 0 0.875 0.02 0 0.88 0.02 0 0.885 0.02 0 0.89 0.02 0 0.895 0.02 0 0.9 0.02 0 0.905 0.02 0 0.91 0.02 0 0.915 0.02 0 0.92 0.02 0 0.925 0.02 0 0.93 0.02 0 0.935 0.02 0 0.94 0.02 0 0.945 0.02 0 0.95 0.02 0 0.955 0.02 0 0.96 0.02 0 0.965 0.02 0 0.97 0.02 0 0.975 0.02 0 0.98 0.02 0 0.985 0.02 0 0.99 0.02 0 0.995 0.02 0 1 0.02 0 0 0.04 0 0.005 0.04 0 0.01 0.04 0 0.015 0.04 0 0.02 0.04 0 0.025 0.04 0 0.03 0.04 0 0.035 0.04 0 0.04 0.04 0 0.045 0.04 0 0.05 0.04 0 0.055 0.04 0 0.06 0.04 0 0.065 0.04 0 0.07 0.04 0 0.075 0.04 0 0.08 0.04 0 0.085 0.04 0 0.09 0.04 0 0.095 0.04 0 0.1 0.04 0 0.105 0.04 0 0.11 0.04 0 0.115 0.04 0 0.12 0.04 0 0.125 0.04 0 0.13 0.04 0 0.135 0.04 0 0.14 0.04 0 0.145 0.04 0 0.15 0.04 0 0.155 0.04 0 0.16 0.04 0 0.165 0.04 0 0.17 0.04 0 0.175 0.04 0 0.18 0.04 0 0.185 0.04 0 0.19 0.04 0 0.195 0.04 0 0.2 0.04 0 0.205 0.04 0 0.21 0.04 0 0.215 0.04 0 0.22 0.04 0 0.225 0.04 0 0.23 0.04 0 0.235 0.04 0 0.24 0.04 0 0.245 0.04 0 0.25 0.04 0 0.255 0.04 0 0.26 0.04 0 0.265 0.04 0 0.27 0.04 0 0.275 0.04 0 0.28 0.04 0 0.285 0.04 0 0.29 0.04 0 0.295 0.04 0 0.3 0.04 0 0.305 0.04 0 0.31 0.04 0 0.315 0.04 0 0.32 0.04 0 0.325 0.04 0 0.33 0.04 0 0.335 0.04 0 0.34 0.04 0 0.345 0.04 0 0.35 0.04 0 0.355 0.04 0 0.36 0.04 0 0.365 0.04 0 0.37 0.04 0 0.375 0.04 0 0.38 0.04 0 0.385 0.04 0 0.39 0.04 0 0.395 0.04 0 0.4 0.04 0 0.405 0.04 0 0.41 0.04 0 0.415 0.04 0 0.42 0.04 0 0.425 0.04 0 0.43 0.04 0 0.435 0.04 0 0.44 0.04 0 0.445 0.04 0 0.450002 0.04 0 0.455016 0.04 0 0.460081 0.04 0 0.465308 0.04 0 0.470897 0.04 0 0.477109 0.04 0 0.484256 0.04 0 0.492763 0.04 0 0.503227 0.04 0 0.515736 0.04 0 0.528082 0.04 0 0.530748 0.04 0 0.533346 0.04 0 0.535906 0.04 0 0.53844 0.04 0 0.54093 0.04 0 0.543404 0.04 0 0.545915 0.04 0 0.548544 0.04 0 0.551334 0.04 0 0.554397 0.04 0 0.557787 0.04 0 0.561574 0.04 0 0.565763 0.04 0 0.570307 0.04 0 0.575101 0.04 0 0.580029 0.04 0 0.585007 0.04 0 0.590002 0.04 0 0.595 0.04 0 0.6 0.04 0 0.605 0.04 0 0.61 0.04 0 0.615 0.04 0 0.62 0.04 0 0.625 0.04 0 0.63 0.04 0 0.635 0.04 0 0.64 0.04 0 0.645 0.04 0 0.65 0.04 0 0.655 0.04 0 0.66 0.04 0 0.665 0.04 0 0.67 0.04 0 0.675 0.04 0 0.68 0.04 0 0.685 0.04 0 0.69 0.04 0 0.695 0.04 0 0.7 0.04 0 0.705 0.04 0 0.71 0.04 0 0.715 0.04 0 0.72 0.04 0 0.725 0.04 0 0.73 0.04 0 0.735 0.04 0 0.74 0.04 0 0.745 0.04 0 0.75 0.04 0 0.755 0.04 0 0.76 0.04 0 0.765 0.04 0 0.77 0.04 0 0.775 0.04 0 0.78 0.04 0 0.785 0.04 0 0.79 0.04 0 0.795 0.04 0 0.8 0.04 0 0.805 0.04 0 0.81 0.04 0 0.815 0.04 0 0.82 0.04 0 0.825 0.04 0 0.83 0.04 0 0.835 0.04 0 0.84 0.04 0 0.845 0.04 0 0.85 0.04 0 0.855 0.04 0 0.86 0.04 0 0.865 0.04 0 0.87 0.04 0 0.875 0.04 0 0.88 0.04 0 0.885 0.04 0 0.89 0.04 0 0.895 0.04 0 0.9 0.04 0 0.905 0.04 0 0.91 0.04 0 0.915 0.04 0 0.92 0.04 0 0.925 0.04 0 0.93 0.04 0 0.935 0.04 0 0.94 0.04 0 0.945 0.04 0 0.95 0.04 0 0.955 0.04 0 0.96 0.04 0 0.965 0.04 0 0.97 0.04 0 0.975 0.04 0 0.98 0.04 0 0.985 0.04 0 0.99 0.04 0 0.995 0.04 0 1 0.04 0 0 0.06 0 0.005 0.06 0 0.01 0.06 0 0.015 0.06 0 0.02 0.06 0 0.025 0.06 0 0.03 0.06 0 0.035 0.06 0 0.04 0.06 0 0.045 0.06 0 0.05 0.06 0 0.055 0.06 0 0.06 0.06 0 0.065 0.06 0 0.07 0.06 0 0.075 0.06 0 0.08 0.06 0 0.085 0.06 0 0.09 0.06 0 0.095 0.06 0 0.1 0.06 0 0.105 0.06 0 0.11 0.06 0 0.115 0.06 0 0.12 0.06 0 0.125 0.06 0 0.13 0.06 0 0.135 0.06 0 0.14 0.06 0 0.145 0.06 0 0.15 0.06 0 0.155 0.06 0 0.16 0.06 0 0.165 0.06 0 0.17 0.06 0 0.175 0.06 0 0.18 0.06 0 0.185 0.06 0 0.19 0.06 0 0.195 0.06 0 0.2 0.06 0 0.205 0.06 0 0.21 0.06 0 0.215 0.06 0 0.22 0.06 0 0.225 0.06 0 0.23 0.06 0 0.235 0.06 0 0.24 0.06 0 0.245 0.06 0 0.25 0.06 0 0.255 0.06 0 0.26 0.06 0 0.265 0.06 0 0.27 0.06 0 0.275 0.06 0 0.28 0.06 0 0.285 0.06 0 0.29 0.06 0 0.295 0.06 0 0.3 0.06 0 0.305 0.06 0 0.31 0.06 0 0.315 0.06 0 0.32 0.06 0 0.325 0.06 0 0.33 0.06 0 0.335 0.06 0 0.34 0.06 0 0.345 0.06 0 0.35 0.06 0 0.355 0.06 0 0.36 0.06 0 0.365 0.06 0 0.37 0.06 0 0.375 0.06 0 0.38 0.06 0 0.385 0.06 0 0.39 0.06 0 0.395 0.06 0 0.4 0.06 0 0.405 0.06 0 0.41 0.06 0 0.415 0.06 0 0.42 0.06 0 0.425 0.06 0 0.43 0.06 0 0.435 0.06 0 0.44 0.06 0 0.445 0.06 0 0.450002 0.06 0 0.455016 0.06 0 0.460081 0.06 0 0.465308 0.06 0 0.470897 0.06 0 0.477109 0.06 0 0.484256 0.06 0 0.492763 0.06 0 0.503227 0.06 0 0.515736 0.06 0 0.528082 0.06 0 0.530748 0.06 0 0.533346 0.06 0 0.535906 0.06 0 0.53844 0.06 0 0.54093 0.06 0 0.543404 0.06 0 0.545915 0.06 0 0.548544 0.06 0 0.551334 0.06 0 0.554397 0.06 0 0.557787 0.06 0 0.561574 0.06 0 0.565763 0.06 0 0.570307 0.06 0 0.575101 0.06 0 0.580029 0.06 0 0.585007 0.06 0 0.590002 0.06 0 0.595 0.06 0 0.6 0.06 0 0.605 0.06 0 0.61 0.06 0 0.615 0.06 0 0.62 0.06 0 0.625 0.06 0 0.63 0.06 0 0.635 0.06 0 0.64 0.06 0 0.645 0.06 0 0.65 0.06 0 0.655 0.06 0 0.66 0.06 0 0.665 0.06 0 0.67 0.06 0 0.675 0.06 0 0.68 0.06 0 0.685 0.06 0 0.69 0.06 0 0.695 0.06 0 0.7 0.06 0 0.705 0.06 0 0.71 0.06 0 0.715 0.06 0 0.72 0.06 0 0.725 0.06 0 0.73 0.06 0 0.735 0.06 0 0.74 0.06 0 0.745 0.06 0 0.75 0.06 0 0.755 0.06 0 0.76 0.06 0 0.765 0.06 0 0.77 0.06 0 0.775 0.06 0 0.78 0.06 0 0.785 0.06 0 0.79 0.06 0 0.795 0.06 0 0.8 0.06 0 0.805 0.06 0 0.81 0.06 0 0.815 0.06 0 0.82 0.06 0 0.825 0.06 0 0.83 0.06 0 0.835 0.06 0 0.84 0.06 0 0.845 0.06 0 0.85 0.06 0 0.855 0.06 0 0.86 0.06 0 0.865 0.06 0 0.87 0.06 0 0.875 0.06 0 0.88 0.06 0 0.885 0.06 0 0.89 0.06 0 0.895 0.06 0 0.9 0.06 0 0.905 0.06 0 0.91 0.06 0 0.915 0.06 0 0.92 0.06 0 0.925 0.06 0 0.93 0.06 0 0.935 0.06 0 0.94 0.06 0 0.945 0.06 0 0.95 0.06 0 0.955 0.06 0 0.96 0.06 0 0.965 0.06 0 0.97 0.06 0 0.975 0.06 0 0.98 0.06 0 0.985 0.06 0 0.99 0.06 0 0.995 0.06 0 1 0.06 0 0 0.08 0 0.005 0
[...]
			<PointData Scalars="VitesseX">
				<DataArray Name="VitesseX" type="Float32" format="ascii">
 0 5.08334e-16 -1.08562e-15 1.02814e-16 1.00399e-15 2.57498e-15 -3.18079e-15 -6.34786e-15 6.28991e-15 2.09488e-16 -6.44226e-15 -4.06623e-15 5.31026e-15 5.32511e-15 -1.08257e-14 6.94533e-15 4.39824e-15 -3.56293e-15 -3.5927e-16 -9.59878e-15 -5.79533e-15 2.96589e-15 3.90517e-15 4.62988e-15 -2.18756e-16 2.17948e-15 -1.6943e-14 -1.87077e-14 1.20461e-14 -3.29772e-15 -3.79729e-15 -4.36705e-15 6.26077e-16 -4.32424e-15 -1.77524e-14 1.71059e-14 -1.69628e-14 3.9068e-15 1.82038e-14 -3.12177e-14 -1.18951e-14 4.57721e-15 3.42732e-15 -9.47546e-15 1.89787e-14 -3.97901e-15 1.85997e-14 1.01959e-14 3.01663e-15 1.22788e-14 1.73486e-14 -3.83077e-14 -2.67652e-14 9.7015e-15 -2.94663e-14 -3.90516e-14 3.22197e-15 1.50527e-14 -3.52005e-14 4.47715e-14 9.2112e-15 -1.17385e-14 -3.68188e-14 3.08902e-14 9.78204e-16 -1.30017e-14 -2.16098e-14 2.04661e-14 -1.14999e-14 -1.85758e-14 1.0132e-14 -5.15955e-14 1.22159e-14 4.40251e-14 -2.50486e-14 2.64861e-14 -4.93647e-14 -2.46567e-14 1.84007e-14 -2.83659e-14 -6.6577e-15 2.20212e-14 6.52066e-13 1.60396e-11 3.49824e-10 6.64441e-09 1.08141e-07 1.48813e-06 1.70302e-05 0.000158653 0.00116967 0.00658016 0.0271729 0.0808691 0.17889 0.317394 0.489738 0.693645 0.911115 0.989404 0.927287 0.921438 0.916924 0.914324 0.90749 0.921082 0.924137 0.881258 0.860485 0.754614 0.666082 0.517986 0.37091 0.225225 0.111739 0.0433203 0.0135207 0.00366771 0.000913564 0.000213576 4.71825e-05 9.8705e-06 1.95728e-06 3.68183e-07 6.57507e-08 1.11555e-08 1.79944e-09 2.7619e-10 4.0315e-11 5.62199e-12 7.06168e-13 1.02289e-13 -6.62665e-14 6.22697e-14 -1.87764e-14 -5.96673e-15 -5.36194e-15 -1.42322e-14 6.60668e-15 -4.5133e-14 -6.6077e-14 -3.62801e-14 6.97594e-14 5.90348e-15 5.81679e-14 -8.80678e-14 7.80758e-14 -3.92727e-14 9.11328e-15 1.65845e-14 -5.13224e-14 8.23953e-14 1.18654e-14 -3.61938e-14 -3.35014e-14 -4.05936e-14 -8.6019e-14 -1.11451e-14 -1.28622e-14 -1.77459e-14 -2.20922e-14 -2.36758e-14 3.83763e-14 -5.65487e-14 1.94169e-14 6.84901e-15 -5.12714e-14 3.23194e-14 6.15539e-14 -9.16714e-15 1.49446e-15 -6.40733e-14 9.08247e-14 -1.41163e-13 1.32591e-13 -4.59594e-14 8.01051e-14 2.65677e-14 -1.05713e-14 3.12972e-14 -2.09188e-14 -9.13e-14 9.70371e-14 2.45061e-14 -3.17261e-14 5.34353e-14 -8.58171e-14 -4.76203e-14 9.14915e-14 -7.87174e-14 5.17734e-14 4.7459e-14 -6.95883e-14 1.98823e-14 1.21189e-13 4.7579e-14 2.01045e-14 6.19422e-14 1.2408e-14 7.91718e-14 0 0 -1.14266e-16 2.02562e-16 -5.46456e-16 -8.34865e-16 -1.22601e-15 -3.40836e-16 4.42149e-15 -5.47577e-15 -2.53628e-15 -1.90902e-15 3.86958e-15 2.38551e-15 -1.21943e-14 8.45927e-15 4.42037e-15 -5.62303e-15 4.59751e-15 -2.73468e-15 -3.10078e-15 -5.82916e-15 -8.15421e-15 1.70061e-15 7.86438e-15 1.5639e-15 -5.21197e-15 -2.80377e-14 3.78582e-15 6.99671e-15 -2.55497e-14 -3.92448e-16 5.34254e-15 -8.34775e-15 -1.42972e-14 1.16682e-14 -5.91049e-15 -1.76289e-14 7.66646e-15 7.26104e-15 -8.82544e-15 -1.46082e-14 3.29301e-15 -4.32601e-15 -3.19283e-15 3.60331e-15 2.05167e-14 2.30209e-14 -5.84388e-15 1.24502e-15 -1.36815e-15 1.41068e-14 -4.08015e-14 -5.61431e-15 -3.45312e-14 1.88539e-15 -2.35168e-14 -4.87777e-15 1.01143e-14 -3.15942e-14 2.19208e-14 -8.14887e-16 3.19046e-15 -1.33048e-14 4.41093e-15 -7.30005e-15 -3.04014e-14 1.6331e-14 -1.73026e-14 -2.90196e-16 1.44966e-14 -1.14291e-14 -4.04236e-14 -1.63169e-16 1.37849e-14 1.86381e-14 -9.1001e-16 -2.89227e-14 -2.30151e-14 -3.05631e-14 2.26629e-14 -4.06063e-14 4.30193e-14 7.32815e-13 1.59873e-11 3.49804e-10 6.64447e-09 1.08141e-07 1.48813e-06 1.70302e-05 0.000158653 0.00116967 0.00658016 0.0271729 0.0808691 0.17889 0.317394 0.489738 0.693645 0.911115 0.989404 0.927287 0.921438 0.916924 0.914324 0.90749 0.921082 0.924137 0.881258 0.860485 0.754614 0.666082 0.517986 0.37091 0.225225 0.111739 0.0433203 0.0135207 0.00366771 0.000913564 0.000213576 4.71825e-05 9.8705e-06 1.95728e-06 3.68183e-07 6.57507e-08 1.11555e-08 1.79943e-09 2.76163e-10 4.03176e-11 5.62864e-12 7.05875e-13 5.99911e-14 3.1336e-15 2.2162e-14 -1.16836e-14 -6.36661e-14 5.21089e-14 -6.71094e-14 -4.52769e-15 -4.61075e-14 1.38347e-14 -6.53744e-14 5.04932e-14 1.33338e-14 1.58683e-14 -2.85858e-14 4.24336e-14 4.95753e-15 3.98171e-14 -8.4283e-14 4.07335e-14 -1.53077e-14 5.92273e-14 -3.27213e-14 -9.95616e-14 -9.96588e-15 -1.09367e-13 -2.84081e-14 -3.25115e-14 2.67355e-14 4.82597e-14 -1.09487e-13 8.7265e-14 -6.45836e-14 6.34133e-14 -3.85272e-14 -3.16159e-14 3.15553e-14 1.00557e-13 -1.01411e-13 4.9894e-14 9.22769e-15 -3.49298e-14 -6.48824e-14 1.59236e-14 2.77958e-14 2.18298e-14 7.83218e-14 3.47296e-14 5.22111e-16 -8.04381e-14 -3.37212e-14 5.31769e-14 1.05512e-14 -6.46284e-14 5.82571e-14 4.05885e-15 -6.54892e-14 4.58012e-14 -4.72965e-14 3.76811e-14 9.86726e-14 -5.46771e-14 3.92443e-14 9.6022e-14 -1.89602e-15 5.51638e-14 3.94879e-14 9.26275e-14 6.57911e-14 0 0 -7.3783e-16 4.48869e-16 1.29665e-15 -2.28435e-15 -2.45868e-15 7.70362e-16 2.29609e-15 -5.94246e-15 -4.43357e-15 5.02873e-16 1.34739e-15 4.62092e-15 -1.2297e-14 1.16882e-14 -8.38629e-15 5.43161e-15 1.15325e-14 -1.18789e-14 -5.22017e-15 5.34753e-15 -1.01945e-14 -1.05619e-14 5.11738e-15 -9.06195e-15 -3.06469e-15 -2.05304e-14 8.80921e-15 -7.67139e-15 -4.03307e-14 -2.21649e-14 1.60421e-14 8.35654e-16 4.96735e-16 1.96091e-14 -1.91082e-14 -1.84505e-14 -1.04169e-14 -6.06868e-15 -9.15365e-15 -6.84338e-15 -5.28665e-15 -7.31307e-15 3.75881e-14 -9.2753e-15 1.66475e-14 2.67543e-14 -5.87687e-15 3.00273e-15 1.6644e-14 -2.27536e-14 -3.29762e-14 -3.80313e-14 -4.04371e-14 -2.67649e-15 -1.21495e-14 8.20928e-15 3.54489e-14 -2.27488e-14 -2.30876e-15 -3.71345e-14 4.01077e-14 -3.2049e-14 -1.52005e-14 -1.7605e-14 -2.74128e-14 2.0679e-14 -4.51751e-14 1.23515e-15 3.42122e-14 -1.65524e-14 -4.33087e-14 -1.53325e-14 -1.58493e-14 2.64985e-14 -8.91583e-15 3.47418e-14 -4.5148e-14 -6.30997e-14 -9.60222e-15 3.36897e-14 7.64474e-14 7.23305e-13 1.60101e-11 3.49809e-10 6.64448e-09 1.08141e-07 1.48813e-06 1.70302e-05 0.000158653 0.00116967 0.00658016 0.0271729 0.0808691 0.17889 0.317394 0.489738 0.693645 0.911115 0.989404 0.927287 0.921438 0.916924 0.914324 0.90749 0.921082 0.924137 0.881258 0.860485 0.754614 0.666082 0.517986 0.37091 0.225225 0.111739 0.0433203 0.0135207 0.00366771 0.000913564 0.000213576 4.71825e-05 9.8705e-06 1.95728e-06 3.68183e-07 6.57507e-08 1.11555e-08 1.7994e-09 2.76125e-10 4.03384e-11 5.61579e-12 6.60278e-13 8.01291e-14 -1.12803e-14 3.76881e-14 -6.95072e-14 -1.5575e-13 1.17098e-13 -1.99601e-14 -9.06381e-14 -5.42686e-14 9.11006e-14 -7.73576e-14 5.57614e-14 -9.19318e-14 2.57273e-14 1.2916e-14 4.67764e-14 5.47222e-14 -3.49415e-14 -1.48664e-14 2.66558e-14 -9.14013e-14 1.47218e-14 -7.01127e-14 -5.62215e-14 -4.73541e-14 9.08031e-14 -7.34598e-14 -1.06203e-13 -2.4781e-14 2.6512e-14 8.71966e-14 -2.37135e-14 -1.22744e-13 9.41102e-14 -1.46284e-13 1.03052e-13 1.56765e-14 1.15797e-14 8.37072e-15 -5.42815e-14 1.43437e-13 -7.26601e-14 -2.27023e-14 -1.03912e-13 1.7016e-14 5.31029e-14 4.33118e-14 5.69125e-14 -1.88359e-14 -4.07605e-14 -2.51437e-14 -1.23459e-14 -6.98859e-14 1.23841e-14 2.55518e-14 7.75406e-14 -2.11969e-14 -1.09602e-14 9.45559e-14 5.61642e-14 -1.38403e-13 1.95466e-13 8.57992e-14 -5.16465e-14 4.0855e-14 9.93442e-14 1.11382e-13 8.42935e-14 -4.62212e-14 0 0 -7.81557e-16 -3.3712e-16 -1.46037e-15 2.82875e-15 7.38569e-16 -1.12968e-15 -4.15235e-15 -5.5174e-16 -3.27659e-15 -6.48332e-15 -3.3002e-16 1.93945e-15 8.16465e-15 -1.59615e-14 6.8352e-15 9.26854e-15 -3.13291e-15 -1.91161e-14 -3.54488e-15 5.16705e-15 -9.1234e-15 1.74614e-15 -7.11935e-15 -4.84602e-15 -4.90273e-15 1.39991e-14 -1.76778e-14 -2.20928e-14 -3.48608e-14 -1.41928e-14 -1.18557e-15 2.3371e-14 2.14268e-14 -1.78924e-14 3.10333e-15 -2.71033e-14 -1.82929e-14 -2.2916e-14 -3.49809e-14 -1.57556e-14 -1.01213e-14 4.87852e-15 2.14137e-14 1.25857e-14 8.41426e-15 1.41307e-14 1.90927e-14 3.7285e-14 -7.79454e-15 -1.15612e-14 -2.85499e-14 -4.35616e-14 -3.48295e-14 -7.56868e-15 -5.24718e-14 3.87556e-14 4.03485e-14 1.05726e-14 -4.47775e-14 -6.797e-15 1.87622e-14 -5.82215e-14 -7.88293e-15 1.05039e-14 -4.48786e-14 9.51942e-15 -3.9461e-14 -3.78912e-14 -1.3197e-14 -1.06448e-14 -1.59744e-14 -1.58619e-16 5.96396e-15 -7.66726e-14 3.77225e-14 8.15351e-15 -3.84567e-14 -3.7194e-15 -3.89283e-14 5.32146e-14 9.75607e-14 6.75048e-13 1.59984e-11 3.4989e-10 6.6445e-09 1.08141e-07 1.48813e-06 1.70302e-05 0.000158653 0.00116967 0.00658016 0.0271729 0.0808691 0.17889 0.317394 0.489738 0.693645 0.911115 0.989404 0.927287 0.921438 0.916924 0.914324 0.90749 0.921082 0.924137 0.881258 0.860485 0.754614 0.666082 0.517986 0.37091 0.225225 0.111739 0.0433203 0.0135207 0.00366771 0.000913564 0.000213576 4.71825e-05 9.8705e-06 1.95728e-06 3.68183e-07 6.57507e-08 1.11554e-08 1.79946e-09 2.76105e-10 4.0283e-11 5.64971e-12 5.86249e-13 1.15137e-13 -1.05937e-13 5.48534e-14 -9.25196e-14 -2.22945e-13 1.05718e-13 4.22409e-14 -7.70111e-14 -7.87389e-15 1.17238e-13 -7.81987e-14 4.08195e-14 -4.45853e-14 3.88089e-15 5.33055e-14 -6.13816e-14 -1.88489e-14 5.10059e-14 4.42282e-14 -8.93886e-14 -5.52147e-14 -4.98378e-14 -7.65816e-14 1.5011e-14 -7.47409e-14 9.74417e-14 -4.11274e-14 -3.93295e-14 -5.21434e-15 -1.19975e-13 1.72246e-13 -1.22659e-13 -7.61025e-14 -6.72142e-14 -9.28481e-14 2.03117e-13 -1.63494e-15 -5.03166e-14 -6.46685e-14 -1.85152e-14 1.59331e-13 -4.50737e-14 -5.84674e-14 -3.94325e-14 1.47239e-14 4.50573e-14 -7.28222e-14 1.0716e-13 -3.67332e-15 -7.68931e-14 6.39863e-15 1.91279e-14 -9.37116e-14 6.37654e-14 3.29041e-14 9.09591e-14 -5.57751e-14 1.94927e-14 1.33326e-13 -4.13313e-14 -1.24279e-13 1.60921e-13 1.84808e-13 8.497e-14 2.65047e-14 4.77664e-14 6.84417e-14 -2.49054e-14 6.859e-14 0 0 -4.71142e-16 -2.32713e-15 -4.25257e-15 3.36379e-15 6.05793e-16 -3.03017e-15 -1.39927e-15 -6.65836e-15 -3.07346e-15 -7.07744e-15 7.40896e-15 -2.19315e-15 1.10112e-15 -8.67803e-15 9.75214e-15 -9.46419e-15 -1.01614e-14 -1.36603e-14 -7.39674e-15 -2.21266e-14 9.14674e-15 1.80247e-14 -8.34169e-15 1.45608e-14 5.90348e-16 2.21824e-14 -1.78055e-14 -1.97578e-14 -2.74335e-14 -5.61408e-15 -4.29879e-15 2.79297e-14 1.68159e-14 -2.76863e-14 -2.16706e-14 -3.77512e-14 -7.663e-15 -2.72186e-14 -3.50736e-14 -6.07057e-14 1.8952e-14 5.94731e-15 -1.14042e-14 2.42696e-14 -2.01944e-14 -2.71773e-15 5.56737e-14 3.0134e-14 9.85063e-15 4.01985e-14 -3.28293e-14 -8.24844e-15 -3.17256e-14 -6.39116e-16 -4.91299e-14 2.20928e-14 6.05547e-16 2.03292e-14 -4.69716e-14 1.8218e-14 -1.24901e-14 -2.40117e-14 2.31447e-15 -4.565e-14 -4.02725e-14 1.8545e-14 -5.32664e-14 -9.96432e-14 -4.99708e-14 1.65734e-14 1.77702e-14 1.42202e-14 4.67127e-14 -8.45709e-14 -1.25728e-14 2.32454e-15 -3.2094e-14 -1.59313e-14 4.90289e-15 -1.31099e-13 1.67136e-13 7.57745e-13 1.59457e-11 3.49922e-10 6.64457e-09 1.08141e-07 1.48813e-06 1.70302e-05 0.000158653 0.00116967 0.00658016 0.0271729 0.0808691 0.17889 0.317394 0.489738 0.693645 0.911115 0.989404 0.927287 0.921438 0.916924 0.914324 0.90749 0.921082 0.924137 0.881258 0.860485 0.754614 0.666082 0.517986 0.37091 0.225225 0.111739 0.0433203 0.0135207 0.00366771 0.000913564 0.000213576 4.71825e-05 9.8705e-06 1.95728e-06 3.68183e-07 6.57507e-08 1.11555e-08 1.79939e-09 2.76209e-10 4.01694e-11 5.67095e-12 6.15628e-13 4.69535e-14 -9.83455e-14 -2.9613e-14 -3.85423e-14 -1.63407e-13 1.62913e-14 3.15682e-14 3.91359e-14 -2.12916e-14 -1.18686e-14 -5.05793e-14 9.57584e-15 1.30971e-13 2.44719e-14 6.22369e-14 -5.82165e-14 -1.86344e-13 1.1132e-13 -1.79056e-14 -4.42889e-14 -3.9164e-14 -9.7661e-15 -9.50995e-14 -4.88802e-15 -9.8315e-14 2.19367e-14 -5.46745e-15 9.39439e-14 -4.56977e-15 -8.61536e-14 -7.62415e-14 2.98858e-15 5.29271e-14 -1.7188e-13 -1.05724e-14 2.9338e-14 5.87401e-16 1.18009e-13 -1.83846e-13 -5.83924e-14 1.7439e-13 -7.17969e-14 -4.22699e-14 4.253e-14 8.45714e-14 -8.45671e-14 -4.19965e-14 2.01431e-13 -1.37997e-13 -3.07908e-14 5.55949e-14 -4.41048e-14 -1.10698e-14 2.39812e-14 7.46472e-14 4.21836e-14 -4.35749e-14 2.35787e-14 6.31335e-14 -7.19571e-14 3.64531e-14 2.77557e-15 2.36844e-13 8.43766e-14 1.56249e-13 -4.86505e-14 -2.12263e-14 -1.40297e-13 9.09422e-14 0 0 -1.17962e-16 -4.57302e-15 -1.79538e-15 -8.24896e-16 -1.55906e-16 -4.75938e-15 -5.09248e-15 -6.85671e-15 -3.17884e-15 -2.80671e-15 6.36736e-15 1.51588e-15 -9.00725e-15 1.0199e-14 -1.28341e-14 -1.09579e-14 -3.74997e-15 -7.73587e-15 -2.15413e-14 -3.80292e-14 3.54255e-14 1.19372e-14 -3.3088e-15 1.73433e-14 1.74602e-14 1.44381e-14 -8.91631e-15 -1.26201e-14 -1.80051e-14 -3.01847e-14 1.08057e-14 2.81103e-14 1.60418e-14 -2.14584e-14 -5.88375e-14 -3.99016e-14 -1.10001e-14 -1.70608e-14 -3.20595e-14 -8.62658e-14 4.55645e-14 -4.09207e-16 6.4507e-15 1.65894e-14 -6.89348e-14 -7.63041e-15 8.3292e-14 -7.76985e-15 8.35934e-14 4.71472e-14 -3.12159e-14 -2.0973e-14 4.09747e-15 -2.47309e-14 -9.63327e-15 -3.92969e-15 -1.37642e-14 2.0034e-15 -8.07603e-15 -1.33981e-14 -4.08606e-16 -5.8875e-15 1.20621e-14 -1.31939e-13 2.18777e-15 5.13757e-15 -6.28895e-14 -1.31953e-13 -5.26919e-14 5.43218e-14 1.01233e-14 1.06348e-14 6.62543e-14 -2.51244e-14 -9.0116e-14 6.63063e-14 -5.61971e-14 -7.10962e-14 -5.23382e-15 -2.26693e-13 2.28028e-13 7.98439e-13 1.59799e-11 3.49898e-10 6.64456e-09 1.08141e-07 1.48813e-06 1.70302e-05 0.000158653 0.00116967 0.00658016 0.0271729 0.0808691 0.17889 0.317394 0.489738 0.693645 0.911115 0.989404 0.927287 0.921438 0.916924 0.914324 0.90749 0.921082 0.924137 0.881258 0.860485 0.754614 0.666082 0.517986 0.37091 0.225225 0.111739 0.0433203 0.0135207 0.00366771 0.000913564 0.000213576 4.71825e-05 9.8705e-06 1.95728e-06 3.68183e-07 6.57507e-08 1.11556e-08 1.79922e-09 2.76323e-10 4.01291e-11 5.63878e-12 6.73855e-13 6.22087e-15 -8.01358e-14 -7.58454e-14 -2.64356e-14 -7.09644e-14 -5.42175e-14 5.88509e-14 6.68416e-14 -8.83905e-14 -1.69838e-13 -5.01453e-15 1.75301e-14 1.46374e-13 1.19229e-13 1.28467e-14 9.30053e-14 -2.74915e-13 -1.98621e-14 3.10509e-14 1.05157e-14 -3.78758e-14 2.80256e-15 -1.48262e-13 1.32171e-14 -1.62533e-13 1.63363e-13 -3.00304e-14 1.06096e-13 -1.19569e-13 1.96766e-15 -1.27359e-13 6.7764e-14 8.51832e-14 -1.28648e-13 -4.41313e-14 -1.29582e-13 4.75247e-15 2.20138e-13 -2.81711e-14 -2.8684e-13 2.34498e-13 -3.78888e-14 -2.43334e-14 5.69137e-14 7.24092e-14 -1.16326e-13 1.82887e-14 2.22551e-13 -2.75719e-13 1.5085e-13 2.42992e-14 -1.60433e-13 2.88732e-14 4.28309e-14 7.17651e-14 -3.6276e-14 6.5646e-14 -1.3555e-14 6.46955e-14 2.7276e-14 -1.05271e-13 1.14712e-13 2.17236e-13 -1.7552e-13 3.92427e-13 -8.43042e-14 2.634e-14 -2.35184e-13 -1.00341e-13 0
				</DataArray>
				<DataArray Name="VitesseY" type="Float32" format="ascii">