<?xml version="1.0"?>
<VTKFile type="PolyData">
	<PolyData>
		<Piece NumberOfPoints="1206" NumberOfPolys="1000">
			<Points>
				<DataArray type="Float32" NumberOfComponents="3" format="ascii">
 0 0 0 0.005 0 0 0.01 0 0 0.015 0 0 0.02 0 0 0.025 0 0 0.03 0 0 0.035 0 0 0.04 0 0 0.045 0 0 0.05 0 0 0.055 0 0 0.06 0 0 0.065 0 0 0.07 0 0 0.075 0 0 0.08 0 0 0.085 0 0 0.09 0 0 0.095 0 0 0.1 0 0 0.105 0 0 0.11 0 0 0.115 0 0 0.12 0 0 0.125 0 0 0.13 0 0 0.135 0 0 0.14 0 0 0.145 0 0 0.15 0 0 0.155 0 0 0.16 0 0 0.165 0 0 0.17 0 0 0.175 0 0 0.18 0 0 0.185 0 0 0.19 0 0 0.195 0 0 0.2 0 0 0.205 0 0 0.21 0 0 0.215 0 0 0.22 0 0 0.225 0 0 0.23 0 0 0.235 0 0 0.24 0 0 0.245 0 0 0.25 0 0 0.255 0 0 0.26 0 0 0.265 0 0 0.27 0 0 0.275 0 0 0.28 0 0 0.285 0 0 0.29 0 0 0.295 0 0 0.3 0 0 0.305 0 0 0.31 0 0 0.315 0 0 0.32 0 0 0.325 0 0 0.33 0 0 0.335 0 0 0.34 0 0 0.345 0 0 0.35 0 0 0.355 0 0 0.36 0 0 0.365 0 0 0.37 0 0 0.375 0 0 0.38 0 0 0.385 0 0 0.39 0 0 0.395 0 0 0.4 0 0 0.405 0 0 0.41 0 0 0.415 0 0 0.420001 0 0 0.425006 0 0 0.430025 0 0 0.43509 0 0 0.440267 0 0 0.44565 0 0 0.451347 0 0 0.457465 0 0 0.464111 0 0 0.471415 0 0 0.479543 0 0 0.488714 0 0 0.499192 0 0 0.5111 0 0 0.523577 0 0 0.535663 0 0 0.547539 0 0 0.550161 0 0 0.552709 0 0 0.555213 0 0 0.557688 0 0 0.560142 0 0 0.562584 0 0 0.56502 0 0 0.567456 0 0 0.569897 0 0 0.572322 0 0 0.574739 0 0 0.577155 0 0 0.579613 0 0 0.582142 0 0 0.584777 0 0 0.587552 0 0 0.590542 0 0 0.593798 0 0 0.597391 0 0 0.60135 0 0 0.605667 0 0 0.610284 0 0 0.615105 0 0 0.620035 0 0 0.625011 0 0 0.630003 0 0 0.635001 0 0 0.64 0 0 0.645 0 0 0.65 0 0 0.655 0 0 0.66 0 0 0.665 0 0 0.67 0 0 0.675 0 0 0.68 0 0 0.685 0 0 0.69 0 0 0.695 0 0 0.7 0 0 0.705 0 0 0.71 0 0 0.715 0 0 0.72 0 0 0.725 0 0 0.73 0 0 0.735 0 0 0.74 0 0 0.745 0 0 0.75 0 0 0.755 0 0 0.76 0 0 0.765 0 0 0.77 0 0 0.775 0 0 0.78 0 0 0.785 0 0 0.79 0 0 0.795 0 0 0.8 0 0 0.805 0 0 0.81 0 0 0.815 0 0 0.82 0 0 0.825 0 0 0.83 0 0 0.835 0 0 0.84 0 0 0.845 0 0 0.85 0 0 0.855 0 0 0.86 0 0 0.865 0 0 0.87 0 0 0.875 0 0 0.88 0 0 0.885 0 0 0.89 0 0 0.895 0 0 0.9 0 0 0.905 0 0 0.91 0 0 0.915 0 0 0.92 0 0 0.925 0 0 0.93 0 0 0.935 0 0 0.94 0 0 0.945 0 0 0.95 0 0 0.955 0 0 0.96 0 0 0.965 0 0 0.97 0 0 0.975 0 0 0.98 0 0 0.985 0 0 0.99 0 0 0.995 0 0 1 0 0 0 0.02 0 0.005 0.02 0 0.01 0.02 0 0.015 0.02 0 0.02 0.02 0 0.025 0.02 0 0.03 0.02 0 0.035 0.02 0 0.04 0.02 0 0.045 0.02 0 0.05 0.02 0 0.055 0.02 0 0.06 0.02 0 0.065 0.02 0 0.07 0.02 0 0.075 0.02 0 0.08 0.02 0 0.085 0.02 0 0.09 0.02 0 0.095 0.02 0 0.1 0.02 0 0.105 0.02 0 0.11 0.02 0 0.115 0.02 0 0.12 0.02 0 0.125 0.02 0 0.13 0.02 0 0.135 0.02 0 0.14 0.02 0 0.145 0.02 0 0.15 0.02 0 0.155 0.02 0 0.16 0.02 0 0.165 0.02 0 0.17 0.02 0 0.175 0.02 0 0.18 0.02 0 0.185 0.02 0 0.19 0.02 0 0.195 0.02 0 0.2 0.02 0 0.205 0.02 0 0.21 0.02 0 0.215 0.02 0 0.22 0.02 0 0.225 0.02 0 0.23 0.02 0 0.235 0.02 0 0.24 0.02 0 0.245 0.02 0 0.25 0.02 0 0.255 0.02 0 0.26 0.02 0 0.265 0.02 0 0.27 0.02 0 0.275 0.02 0 0.28 0.02 0 0.285 0.02 0 0.29 0.02 0 0.295 0.02 0 0.3 0.02 0 0.305 0.02 0 0.31 0.02 0 0.315 0.02 0 0.32 0.02 0 0.325 0.02 0 0.33 0.02 0 0.335 0.02 0 0.34 0.02 0 0.345 0.02 0 0.35 0.02 0 0.355 0.02 0 0.36 0.02 0 0.365 0.02 0 0.37 0.02 0 0.375 0.02 0 0.38 0.02 0 0.385 0.02 0 0.39 0.02 0 0.395 0.02 0 0.4 0.02 0 0.405 0.02 0 0.41 0.02 0 0.415 0.02 0 0.420001 0.02 0 0.425006 0.02 0 0.430025 0.02 0 0.43509 0.02 0 0.440267 0.02 0 0.44565 0.02 0 0.451347 0.02 0 0.457465 0.02 0 0.464111 0.02 0 0.471415 0.02 0 0.479543 0.02 0 0.488714 0.02 0 0.499192 0.02 0 0.5111 0.02 0 0.523577 0.02 0 0.535663 0.02 0 0.547539 0.02 0 0.550161 0.02 0 0.552709 0.02 0 0.555213 0.02 0 0.557688 0.02 0 0.560142 0.02 0 0.562584 0.02 0 0.56502 0.02 0 0.567456 0.02 0 0.569897 0.02 0 0.572322 0.02 0 0.574739 0.02 0 0.577155 0.02 0 0.579613 0.02 0 0.582142 0.02 0 0.584777 0.02 0 0.587552 0.02 0 0.590542 0.02 0 0.593798 0.02 0 0.597391 0.02 0 0.60135 0.02 0 0.605667 0.02 0 0.610284 0.02 0 0.615105 0.02 0 0.620035 0.02 0 0.625011 0.02 0 0.630003 0.02 0 0.635001 0.02 0 0.64 0.02 0 0.645 0.02 0 0.65 0.02 0 0.655 0.02 0 0.66 0.02 0 0.665 0.02 0 0.67 0.02 0 0.675 0.02 0 0.68 0.02 0 0.685 0.02 0 0.69 0.02 0 0.695 0.02 0 0.7 0.02 0 0.705 0.02 0 0.71 0.02 0 0.715 0.02 0 0.72 0.02 0 0.725 0.02 0 0.73 0.02 0 0.735 0.02 0 0.74 0.02 0 0.745 0.02 0 0.75 0.02 0 0.755 0.02 0 0.76 0.02 0 0.765 0.02 0 0.77 0.02 0 0.775 0.02 0 0.78 0.02 0 0.785 0.02 0 0.79 0.02 0 0.795 0.02 0 0.8 0.02 0 0.805 0.02 0 0.81 0.02 0 0.815 0.02 0 0.82 0.02 0 0.825 0.02 0 0.83 0.02 0 0.835 0.02 0 0.84 0.02 0 0.845 0.02 0 0.85 0.02 0 0.855 0.02 0 0.86 0.02 0 0.865 0.02 0 0.87 0.02 0 0.875 0.02 0 0.88 0.02 0 0.885 0.02 0 0.89 0.02 0 0.895 0.02 0 0.9 0.02 0 0.905 0.02 0 0.91 0.02 0 0.915 0.02 0 0.92 0.02 0 0.925 0.02 0 0.93 0.02 0 0.935 0.02 0 0.94 0.02 0 0.945 0.02 0 0.95 0.02 0 0.955 0.02 0 0.96 0.02 0 0.965 0.02 0 0.97 0.02 0 0.975 0.02 0 0.98 0.02 0 0.985 0.02 0 0.99 0.02 0 0.995 0.02 0 1 0.02 0 0 0.04 0 0.005 0.04 0 0.01 0.04 0 0.015 0.04 0 0.02 0.04 0 0.025 0.04 0 0.03 0.04 0 0.035 0.04 0 0.04 0.04 0 0.045 0.04 0 0.05 0.04 0 0.055 0.04 0 0.06 0.04 0 0.065 0.04 0 0.07 0.04 0 0.075 0.04 0 0.08 0.04 0 0.085 0.04 0 0.09 0.04 0 0.095 0.04 0 0.1 0.04 0 0.105 0.04 0 0.11 0.04 0 0.115 0.04 0 0.12 0.04 0 0.125 0.04 0 0.13 0.04 0 0.135 0.04 0 0.14 0.04 0 0.145 0.04 0 0.15 0.04 0 0.155 0.04 0 0.16 0.04 0 0.165 0.04 0 0.17 0.04 0 0.175 0.04 0 0.18 0.04 0 0.185 0.04 0 0.19 0.04 0 0.195 0.04 0 0.2 0.04 0 0.205 0.04 0 0.21 0.04 0 0.215 0.04 0 0.22 0.04 0 0.225 0.04 0 0.23 0.04 0 0.235 0.04 0 0.24 0.04 0 0.245 0.04 0 0.25 0.04 0 0.255 0.04 0 0.26 0.04 0 0.265 0.04 0 0.27 0.04 0 0.275 0.04 0 0.28 0.04 0 0.285 0.04 0 0.29 0.04 0 0.295 0.04 0 0.3 0.04 0 0.305 0.04 0 0.31 0.04 0 0.315 0.04 0 0.32 0.04 0 0.325 0.04 0 0.33 0.04 0 0.335 0.04 0 0.34 0.04 0 0.345 0.04 0 0.35 0.04 0 0.355 0.04 0 0.36 0.04 0 0.365 0.04 0 0.37 0.04 0 0.375 0.04 0 0.38 0.04 0 0.385 0.04 0 0.39 0.04 0 0.395 0.04 0 0.4 0.04 0 0.405 0.04 0 0.41 0.04 0 0.415 0.04 0 0.420001 0.04 0 0.425006 0.04 0 0.430025 0.04 0 0.43509 0.04 0 0.440267 0.04 0 0.44565 0.04 0 0.451347 0.04 0 0.457465 0.04 0 0.464111 0.04 0 0.471415 0.04 0 0.479543 0.04 0 0.488714 0.04 0 0.499192 0.04 0 0.5111 0.04 0 0.523577 0.04 0 0.535663 0.04 0 0.547539 0.04 0 0.550161 0.04 0 0.552709 0.04 0 0.555213 0.04 0 0.557688 0.04 0 0.560142 0.04 0 0.562584 0.04 0 0.56502 0.04 0 0.567456 0.04 0 0.569897 0.04 0 0.572322 0.04 0 0.574739 0.04 0 0.577155 0.04 0 0.579613 0.04 0 0.582142 0.04 0 0.584777 0.04 0 0.587552 0.04 0 0.590542 0.04 0 0.593798 0.04 0 0.597391 0.04 0 0.60135 0.04 0 0.605667 0.04 0 0.610284 0.04 0 0.615105 0.04 0 0.620035 0.04 0 0.625011 0.04 0 0.630003 0.04 0 0.635001 0.04 0 0.64 0.04 0 0.645 0.04 0 0.65 0.04 0 0.655 0.04 0 0.66 0.04 0 0.665 0.04 0 0.67 0.04 0 0.675 0.04 0 0.68 0.04 0 0.685 0.04 0 0.69 0.04 0 0.695 0.04 0 0.7 0.04 0 0.705 0.04 0 0.71 0.04 0 0.715 0.04 0 0.72 0.04 0 0.725 0.04 0 0.73 0.04 0 0.735 0.04 0 0.74 0.04 0 0.745 0.04 0 0.75 0.04 0 0.755 0.04 0 0.76 0.04 0 0.765 0.04 0 0.77 0.04 0 0.775 0.04 0 0.78 0.04 0 0.785 0.04 0 0.79 0.04 0 0.795 0.04 0 0.8 0.04 0 0.805 0.04 0 0.81 0.04 0 0.815 0.04 0 0.82 0.04 0 0.825 0.04 0 0.83 0.04 0 0.835 0.04 0 0.84 0.04 0 0.845 0.04 0 0.85 0.04 0 0.855 0.04 0 0.86 0.04 0 0.865 0.04 0 0.87 0.04 0 0.875 0.04 0 0.88 0.04 0 0.885 0.04 0 0.89 0.04 0 0.895 0.04 0 0.9 0.04 0 0.905 0.04 0 0.91 0.04 0 0.915 0.04 0 0.92 0.04 0 0.925 0.04 0 0.93 0.04 0 0.935 0.04 0 0.94 0.04 0 0.945 0.04 0 0.95 0.04 0 0.955 0.04 0 0.96 0.04 0 0.965 0.04 0 0.97 0.04 0 0.975 0.04 0 0.98 0.04 0 0.985 0.04 0 0.99 0.04 0 0.995 0.04 0 1 0.04 0 0 0.06 0 0.005 0.06 0 0.01 0.06 0 0.015 0.06 0 0.02 0.06 0 0.025 0.06 0 0.03 0.06 0 0.035 0.06 0 0.04 0.06 0 0.045 0.06 0 0.05 0.06 0 0.055 0.06 0 0.06 0.06 0 0.065 0.06 0 0.07 0.06 0 0.075 0.06 0 0.08 0.06 0 0.085 0.06 0 0.09 0.06 0 0.095 0.06 0 0.1 0.06 0 0.105 0.06 0 0.11 0.06 0 0.115 0.06 0 0.12 0.06 0 0.125 0.06 0 0.13 0.06 0 0.135 0.06 0 0.14 0.06 0 0.145 0.06 0 0.15 0.06 0 0.155 0.06 0 0.16 0.06 0 0.165 0.06 0 0.17 0.06 0 0.175 0.06 0 0.18 0.06 0 0.185 0.06 0 0.19 0.06 0 0.195 0.06 0 0.2 0.06 0 0.205 0.06 0 0.21 0.06 0 0.215 0.06 0 0.22 0.06 0 0.225 0.06 0 0.23 0.06 0 0.235 0.06 0 0.24 0.06 0 0.245 0.06 0 0.25 0.06 0 0.255 0.06 0 0.26 0.06 0 0.265 0.06 0 0.27 0.06 0 0.275 0.06 0 0.28 0.06 0 0.285 0.06 0 0.29 0.06 0 0.295 0.06 0 0.3 0.06 0 0.305 0.06 0 0.31 0.06 0 0.315 0.06 0 0.32 0.06 0 0.325 0.06 0 0.33 0.06 0 0.335 0.06 0 0.34 0.06 0 0.345 0.06 0 0.35 0.06 0 0.355 0.06 0 0.36 0.06 0 0.365 0.06 0 0.37 0.06 0 0.375 0.06 0 0.38 0.06 0 0.385 0.06 0 0.39 0.06 0 0.395 0.06 0 0.4 0.06 0 0.405 0.06 0 0.41 0.06 0 0.415 0.06 0 0.420001 0.06 0 0.425006 0.06 0 0.430025 0.06 0 0.43509 0.06 0 0.440267 0.06 0 0.44565 0.06 0 0.451347 0.06 0 0.457465 0.06 0 0.464111 0.06 0 0.471415 0.06 0 0.479543 0.06 0 0.488714 0.06 0 0.499192 0.06 0 0.5111 0.06 0 0.523577 0.06 0 0.535663 0.06 0 0.547539 0.06 0 0.550161 0.06 0 0.552709 0.06 0 0.555213 0.06 0 0.557688 0.06 0 0.560142 0.06 0 0.562584 0.06 0 0.56502 0.06 0 0.567456 0.06 0 0.569897 0.06 0 0.572322 0.06 0 0.574739 0.06 0 0.577155 0.06 0 0.579613 0.06 0 0.582142 0.06 0 0.584777 0.06 0 0.587552 0.06 0 0.590542 0.06 0 0.593798 0.06 0 0.597391 0.06 0 0.60135 0.06 0 0.605667 0.06 0 0.610284 0.06 0 0.615105 0.06 0 0.620035 0.06 0 0.625011 0.06 0 0.630003 0.06 0 0.635001 0.06 0 0.64 0.06 0 0.645 0.06 0 0.65 0.06 0 0.655 0.06 0 0.66 0.06 0 0.665 0.06 0 0.67 0.06 0 0.675 0.06 0 0.68 0.06 0 0.685 0.06 0 0.69 0.06 0 0.695 0.06 0 0.7 0.06 0 0.705 0.06 0 0.71 0.06 0 0.715 0.06 0 0.72 0.06 0 0.725 0.06 0 0.73 0.06 0 0.735 0.06 0 0.74 0.06 0 0.745 0.06 0 0.75 0.06 0 0.755 0.06 0 0.76 0.06 0 0.765 0.06 0 0.77 0.06 0 0.775 0.06 0 0.78 0.06 0 0.785 0.06 0 0.79 0.06 0 0.795 0.06 0 0.8 0.06 0 0.805 0.06 0 0.81 0.06 0 0.815 0.06 0 0.82 0.06 0 0.825 0.06 0 0.83 0.06 0 0.835 0.06 0 0.84 0.06 0 0.845 0.06 0 0.85 0.06 0 0.855 0.06 0 0.86 0.06 0 0.865 0.06 0 0.87 0.06 0 0.875 0.06 0 0.88 0.06 0 0.885 0.06 0 0.89 0.06 0 0.895 0.06 0 0.9 0.06 0 0.905 0.06 0 0.91 0.06 0 0.915 0.06 0 0.92 0.06 0 0.925 0.06 0 0.93
[...]
			<PointData Scalars="VitesseX">
				<DataArray Name="VitesseX" type="Float32" format="ascii">
 0 -6.60815e-16 1.59296e-15 1.70817e-15 1.94803e-15 -3.27931e-15 -1.19373e-15 -1.50223e-15 5.44376e-15 -9.07658e-16 -1.10537e-14 4.6126e-15 5.97498e-15 -2.11825e-15 -4.89892e-17 -6.0628e-15 -2.10609e-15 7.18983e-15 -1.0101e-14 1.24977e-14 -7.13417e-15 -5.17418e-17 5.45068e-15 -1.38197e-14 7.77166e-15 2.57889e-14 -1.81106e-14 2.79864e-14 -1.83814e-14 -6.49478e-15 -1.00616e-15 1.14093e-14 -3.37795e-15 4.83249e-16 1.74857e-14 -1.16047e-14 1.73714e-15 -7.70144e-15 -4.2038e-15 -1.89006e-14 2.49881e-14 -2.05884e-14 3.1384e-15 -1.29126e-14 2.47979e-14 -2.99399e-15 -1.00065e-14 1.95026e-14 -6.73015e-16 7.8081e-16 2.23682e-14 -9.03275e-15 3.20392e-14 -2.81311e-14 -2.88648e-14 4.78396e-14 4.25733e-15 1.93708e-14 1.47581e-14 -5.08202e-16 -5.93295e-15 2.53156e-14 -3.20949e-14 1.02163e-14 3.82801e-14 -8.54631e-15 -2.26054e-14 -4.71999e-15 9.07584e-15 -2.73237e-14 2.78325e-14 8.65174e-15 -1.44372e-15 -3.26873e-14 6.27723e-14 4.53197e-13 7.31971e-12 1.04388e-10 1.3443e-09 1.54918e-08 1.58587e-07 1.42975e-06 1.12347e-05 7.59572e-05 0.00043473 0.00206362 0.0079345 0.0242051 0.0583145 0.113523 0.187029 0.2744 0.373275 0.483411 0.605483 0.739304 0.877925 0.981178 0.959956 0.938071 0.927833 0.927471 0.927279 0.927128 0.926928 0.926468 0.925958 0.925158 0.924086 0.922949 0.915712 0.916634 0.896892 0.885375 0.857759 0.818763 0.741832 0.669194 0.551356 0.429185 0.296596 0.178514 0.0896746 0.0373645 0.0133937 0.00436764 0.00134439 0.000396934 0.000113029 3.10891e-05 8.2618e-06 2.12097e-06 5.2589e-07 1.25911e-07 2.91059e-08 6.49546e-09 1.39946e-09 2.91045e-10 5.84544e-11 1.13738e-11 2.13248e-12 3.72562e-13 2.02924e-14 3.26027e-14 1.11963e-13 -9.82767e-14 -5.1592e-14 4.303e-14 -3.26008e-14 -1.27868e-14 9.20098e-14 8.44468e-15 3.5015e-14 1.23258e-14 -4.73273e-14 8.39431e-14 1.00239e-13 4.41356e-16 -3.62007e-14 1.97186e-14 -7.82366e-14 8.76818e-14 -8.92653e-14 8.24237e-14 7.6416e-15 4.17849e-14 -1.25876e-14 -2.63493e-14 8.82125e-14 -1.06853e-13 -3.40628e-14 -3.3939e-14 4.81372e-14 -1.41344e-13 1.25412e-13 -8.86994e-14 -4.25871e-14 1.59519e-14 -4.99028e-14 9.02847e-14 -5.01228e-14 -2.82106e-14 1.03412e-14 -1.04544e-13 3.1121e-14 -2.30556e-14 5.50151e-14 -1.17518e-14 -1.36718e-14 -1.19256e-13 -5.36551e-14 1.06475e-13 -3.65458e-14 -6.74619e-15 -4.99943e-14 1.97251e-14 -1.05947e-13 7.99047e-14 8.24611e-15 4.40867e-14 0 0 4.55895e-16 -7.15091e-16 -1.74779e-15 6.56856e-16 5.21885e-16 2.65848e-15 -4.55541e-15 4.15521e-15 -2.06303e-15 4.3044e-15 -5.95117e-15 -4.71986e-15 1.22021e-14 -1.21002e-14 5.50124e-15 -1.22049e-15 -2.34889e-15 -1.04494e-15 2.66949e-15 -9.48319e-15 6.12968e-15 6.19118e-15 -7.78917e-15 6.30159e-15 3.87201e-15 9.65762e-15 1.66371e-14 -1.22889e-14 -2.18816e-14 2.17316e-14 -6.74632e-15 1.83421e-14 -9.88576e-15 -2.33169e-15 9.91914e-15 -2.16462e-15 -1.33851e-14 -1.23406e-14 2.20941e-14 -1.43646e-14 1.57848e-14 2.39041e-14 -4.21617e-14 1.34548e-14 -8.96689e-15 1.89027e-14 -9.92339e-16 -2.15748e-14 5.63452e-15 3.45137e-14 -1.27819e-14 4.90658e-14 -6.17366e-14 4.23194e-14 -3.77553e-15 1.67619e-14 4.50322e-14 -2.87289e-14 3.45696e-14 -1.36156e-14 1.70507e-15 -8.33963e-15 -1.52796e-14 2.79352e-14 1.0727e-14 -2.33814e-14 -1.73256e-14 2.14417e-14 -4.51723e-14 2.46657e-14 3.50888e-14 -4.35737e-14 6.25839e-14 4.61095e-14 4.48437e-13 7.30347e-12 1.04338e-10 1.34434e-09 1.54917e-08 1.58587e-07 1.42976e-06 1.12347e-05 7.59572e-05 0.00043473 0.00206362 0.0079345 0.0242051 0.0583145 0.113523 0.187029 0.2744 0.373275 0.483411 0.605483 0.739304 0.877925 0.981178 0.959956 0.938071 0.927833 0.927471 0.927279 0.927128 0.926928 0.926468 0.925958 0.925158 0.924086 0.922949 0.915712 0.916634 0.896892 0.885375 0.857759 0.818763 0.741832 0.669194 0.551356 0.429185 0.296596 0.178514 0.0896746 0.0373645 0.0133937 0.00436764 0.00134439 0.000396934 0.000113029 3.10891e-05 8.2618e-06 2.12097e-06 5.2589e-07 1.25911e-07 2.91059e-08 6.49542e-09 1.39948e-09 2.91102e-10 5.84544e-11 1.13551e-11 2.13472e-12 3.86737e-13 7.89526e-14 -4.19499e-14 9.59482e-14 -1.05385e-13 8.53238e-14 -1.09913e-13 6.14216e-14 1.05333e-14 7.20903e-14 1.49869e-14 -6.86626e-14 9.3988e-14 3.20827e-14 7.80696e-15 4.87947e-15 3.38624e-14 3.87629e-14 -4.78371e-14 -1.18421e-14 8.62637e-14 -1.32916e-13 3.19955e-16 1.05683e-13 -1.03431e-14 -7.20527e-14 1.08085e-14 -5.46544e-15 4.68466e-14 -9.17717e-14 4.09897e-15 3.77621e-14 3.00057e-14 -8.62105e-14 -6.50198e-14 1.19046e-14 -3.1237e-14 -2.39994e-14 -1.5973e-14 6.18329e-14 -8.79568e-14 4.25334e-14 -8.41541e-14 2.77476e-14 -4.48188e-14 1.15639e-13 -3.0124e-14 -5.56768e-14 4.86024e-14 -1.33128e-13 1.52904e-14 4.70771e-14 -1.02324e-13 -1.43866e-14 -6.75171e-14 7.94407e-14 -8.05417e-14 6.14429e-14 3.21655e-14 0 0 7.54621e-16 -1.47191e-15 -5.39307e-16 -1.51608e-15 9.34225e-16 4.21271e-15 2.48086e-15 -5.54577e-15 4.93342e-15 -2.31126e-15 3.03778e-15 -3.68131e-15 -3.5256e-15 1.10947e-14 -6.15173e-15 -9.63268e-15 9.66468e-15 1.00008e-15 -3.34947e-15 4.26676e-15 -4.99223e-15 -9.55442e-15 1.30968e-14 -5.63094e-15 5.79336e-15 2.33791e-14 2.03642e-15 -2.67945e-15 -1.78818e-14 -8.18971e-16 1.21752e-14 -2.56101e-15 8.40789e-16 -2.04541e-14 1.97209e-14 1.52988e-14 -3.97135e-15 -1.72326e-14 3.19449e-14 -2.20388e-14 -2.03346e-15 2.85247e-14 -1.70825e-15 -6.59822e-15 2.80779e-15 1.13628e-15 2.48897e-14 -3.4047e-14 -2.00884e-14 3.44515e-14 2.78308e-14 6.30032e-14 -3.29705e-14 -2.09254e-14 -4.52086e-14 4.23285e-14 3.50424e-14 2.4762e-17 1.70105e-14 2.25157e-14 -3.03639e-14 -9.42026e-15 -3.70072e-14 9.61183e-16 5.85807e-14 -2.2858e-15 -2.11427e-14 -8.25324e-15 3.88024e-14 -5.95763e-14 6.36243e-14 7.88072e-15 2.70273e-14 4.61741e-14 5.07173e-13 7.25909e-12 1.04335e-10 1.34422e-09 1.54919e-08 1.58587e-07 1.42976e-06 1.12347e-05 7.59572e-05 0.00043473 0.00206362 0.0079345 0.0242051 0.0583145 0.113523 0.187029 0.2744 0.373275 0.483411 0.605483 0.739304 0.877925 0.981178 0.959956 0.938071 0.927833 0.927471 0.927279 0.927128 0.926928 0.926468 0.925958 0.925158 0.924086 0.922949 0.915712 0.916634 0.896892 0.885375 0.857759 0.818763 0.741832 0.669194 0.551356 0.429185 0.296596 0.178514 0.0896746 0.0373645 0.0133937 0.00436764 0.00134439 0.000396934 0.000113029 3.10891e-05 8.2618e-06 2.12097e-06 5.2589e-07 1.25911e-07 2.91059e-08 6.49542e-09 1.3995e-09 2.91104e-10 5.84759e-11 1.1409e-11 2.11715e-12 4.10694e-13 -1.37256e-14 4.84303e-14 -6.5669e-15 9.69734e-14 -8.40084e-14 -1.1607e-13 1.51569e-13 1.47423e-13 2.84253e-14 -1.01467e-13 1.80067e-14 -1.01117e-13 1.36774e-13 4.56982e-14 -8.49973e-14 -1.60403e-14 1.12122e-13 3.71685e-14 1.28483e-13 -6.9262e-14 -5.55878e-14 -6.93778e-14 1.00572e-13 -9.90656e-14 -8.99449e-14 -2.56594e-14 -5.41107e-14 9.71411e-14 1.78358e-14 9.50355e-14 -2.31891e-14 1.56948e-13 -1.98889e-13 -9.06443e-14 2.62238e-14 -9.65414e-14 9.00172e-15 -8.23027e-14 -5.05064e-16 -1.55177e-14 4.23007e-14 1.51236e-14 1.57435e-14 3.69734e-15 -2.94861e-16 -1.11673e-13 4.81494e-14 1.32934e-13 -1.17982e-13 -8.05522e-14 2.76149e-15 4.51106e-14 -1.01827e-13 -9.41383e-14 1.77003e-14 3.88223e-14 -2.31214e-14 -5.04379e-14 0 0 5.42825e-16 2.0088e-15 1.60784e-15 -2.61682e-15 -3.99525e-16 -4.68375e-16 1.94101e-15 1.22177e-15 2.7406e-15 -3.94151e-15 1.56513e-15 5.57572e-15 -1.27084e-14 1.56527e-14 -1.06973e-14 8.83675e-16 1.14263e-14 -1.07605e-14 1.31243e-15 1.49174e-14 -1.06207e-14 -1.57114e-14 6.60417e-15 -1.11057e-14 1.72634e-14 1.50923e-14 1.19969e-14 -2.33554e-14 1.40185e-14 -1.57122e-14 5.32657e-16 -7.33052e-15 -1.36538e-14 1.77434e-14 8.97168e-15 4.83491e-15 1.75983e-14 -4.80242e-15 2.80134e-14 5.13303e-15 -2.63829e-14 -2.25144e-15 3.40988e-14 -1.67489e-14 2.01142e-14 -2.14477e-15 -1.99168e-14 -3.40419e-16 -9.07675e-15 3.21042e-14 2.30362e-14 4.51768e-14 1.55793e-14 -4.14117e-14 -4.6817e-14 1.98916e-14 1.82349e-14 5.8701e-14 -4.28859e-14 2.2715e-14 1.30714e-14 -6.07397e-14 -1.98438e-14 1.21035e-15 4.68907e-14 2.70503e-14 3.03189e-14 -1.09249e-14 4.64759e-14 -1.22214e-14 1.05448e-14 -2.33137e-14 -1.93944e-14 9.3184e-14 4.93375e-13 7.24705e-12 1.04393e-10 1.34408e-09 1.54919e-08 1.58587e-07 1.42976e-06 1.12347e-05 7.59572e-05 0.00043473 0.00206362 0.0079345 0.0242051 0.0583145 0.113523 0.187029 0.2744 0.373275 0.483411 0.605483 0.739304 0.877925 0.981178 0.959956 0.938071 0.927833 0.927471 0.927279 0.927128 0.926928 0.926468 0.925958 0.925158 0.924086 0.922949 0.915712 0.916634 0.896892 0.885375 0.857759 0.818763 0.741832 0.669194 0.551356 0.429185 0.296596 0.178514 0.0896746 0.0373645 0.0133937 0.00436764 0.00134439 0.000396934 0.000113029 3.10891e-05 8.2618e-06 2.12097e-06 5.2589e-07 1.25911e-07 2.9106e-08 6.49545e-09 1.39944e-09 2.91082e-10 5.85569e-11 1.1291e-11 2.22893e-12 3.85083e-13 1.02337e-15 -2.76371e-14 -2.86562e-14 8.8671e-14 -8.05299e-14 7.99551e-15 6.8036e-14 1.98464e-13 9.23842e-14 -7.98984e-14 -2.12972e-14 -2.13217e-13 5.53802e-14 1.00316e-13 1.302e-13 -1.24175e-13 1.84848e-13 -4.67788e-14 1.57466e-13 -7.62844e-14 -5.56599e-14 6.39659e-14 -3.89641e-14 -1.53854e-13 8.22071e-14 -1.10332e-13 8.72292e-14 -2.4847e-13 1.28095e-13 8.39439e-14 4.43476e-14 1.05292e-13 5.14497e-14 -1.06278e-13 4.7692e-14 -2.54688e-13 1.33552e-13 -9.44257e-14 -8.54332e-14 -5.18463e-14 7.22283e-14 1.54951e-13 -1.23104e-13 -3.92317e-14 -1.28664e-13 -5.85384e-14 7.57229e-14 -8.26793e-15 -7.40626e-14 -2.06121e-14 -4.63348e-14 1.43266e-13 -1.6519e-13 3.80021e-14 1.86286e-14 -1.55597e-14 -1.15616e-13 -3.38065e-14 0 0 7.73148e-16 5.16296e-15 2.16958e-16 -9.25153e-16 1.1266e-15 4.47649e-16 -6.65427e-15 8.12228e-15 -8.10235e-16 3.32434e-15 8.30921e-16 3.14549e-15 3.66239e-15 -8.47977e-15 7.68883e-15 4.40068e-15 5.10136e-15 -9.31075e-15 6.37032e-15 -3.7546e-15 6.38372e-15 -7.46167e-15 -7.916e-15 -1.56152e-14 3.03119e-15 2.04331e-14 1.02196e-14 -1.92728e-14 1.53592e-14 -1.3101e-14 -1.53547e-14 2.46254e-14 -2.49221e-14 1.60246e-14 -6.05561e-16 1.62676e-14 6.90297e-15 5.59616e-14 1.29416e-14 1.84092e-14 -2.66983e-14 -2.17471e-14 -4.22421e-15 -1.73018e-14 4.87033e-14 -1.58292e-14 -5.31143e-14 6.30166e-14 2.63275e-15 2.30763e-14 -3.89017e-14 3.26521e-14 -1.26725e-14 2.62676e-14 -3.70317e-14 1.21252e-14 3.91591e-14 1.78816e-14 -9.50954e-15 -2.65025e-14 5.12614e-14 -7.27116e-14 1.56653e-14 2.07932e-15 -2.4504e-14 6.76256e-14 6.32594e-14 5.23279e-14 -9.77809e-14 5.59505e-14 1.75884e-15 -5.46505e-14 -3.63916e-15 1.57283e-13 5.23472e-13 7.18709e-12 1.04342e-10 1.34411e-09 1.54917e-08 1.58587e-07 1.42976e-06 1.12347e-05 7.59572e-05 0.00043473 0.00206362 0.0079345 0.0242051 0.0583145 0.113523 0.187029 0.2744 0.373275 0.483411 0.605483 0.739304 0.877925 0.981178 0.959956 0.938071 0.927833 0.927471 0.927279 0.927128 0.926928 0.926468 0.925958 0.925158 0.924086 0.922949 0.915712 0.916634 0.896892 0.885375 0.857759 0.818763 0.741832 0.669194 0.551356 0.429185 0.296596 0.178514 0.0896746 0.0373645 0.0133937 0.00436764 0.00134439 0.000396934 0.000113029 3.10891e-05 8.2618e-06 2.12097e-06 5.2589e-07 1.25911e-07 2.91058e-08 6.49562e-09 1.39931e-09 2.9118e-10 5.85119e-11 1.1284e-11 2.26375e-12 2.28035e-13 1.40302e-13 -1.26926e-13 2.33027e-14 -3.99112e-14 6.69718e-15 1.86681e-14 7.06698e-14 9.07343e-14 1.92097e-13 -2.96558e-14 -1.45633e-13 -1.81939e-14 4.45302e-14 1.13037e-13 1.486e-13 -1.26604e-14 1.65112e-13 -2.07992e-13 -6.43766e-14 -1.16006e-13 5.28546e-14 1.25161e-13 -5.21869e-14 1.37367e-14 4.78204e-14 -1.63679e-13 8.30619e-15 -1.22315e-13 -2.20434e-14 5.72514e-15 1.43115e-13 1.81553e-13 -1.27894e-15 1.2936e-13 -9.63326e-14 1.38269e-14 -1.18775e-14 -2.67098e-13 -1.0678e-14 -6.45716e-14 1.20443e-13 5.10779e-14 -1.16249e-13 -7.9079e-14 -7.95854e-14 -1.67109e-14 1.39523e-14 -4.47017e-14 1.95774e-16 7.36939e-15 -5.21128e-14 -4.54198e-14 -9.66073e-14 -1.09646e-14 1.73774e-13 -1.33759e-13 -4.5453e-14 -5.06769e-14 0 0 3.97283e-16 6.38765e-15 1.34337e-15 9.85482e-16 5.97614e-16 3.74678e-15 -4.62025e-15 -1.57197e-16 5.98358e-15 -9.75336e-15 2.11221e-14 3.19159e-15 -8.31981e-16 -1.92417e-15 7.40353e-15 -1.18965e-14 1.85671e-14 -3.11153e-15 1.05756e-14 -1.69783e-14 1.17133e-14 -9.54103e-15 -1.08803e-15 -2.51124e-14 1.16712e-15 2.00138e-14 -4.76972e-15 9.00272e-15 4.18617e-15 -4.08849e-14 1.74775e-14 1.87276e-14 -6.00205e-16 -2.21966e-14 -1.11556e-14 5.95294e-14 -1.02645e-14 1.0754e-13 -2.93424e-14 3.61921e-14 -5.68556e-14 -2.66116e-14 -8.65166e-15 -1.64138e-14 7.77336e-14 -7.29083e-14 4.87152e-15 1.01097e-13 -2.7246e-14 4.18806e-15 -5.16831e-14 3.48645e-14 -2.71024e-14 -1.99958e-14 -1.54561e-14 3.98578e-14 4.12399e-14 -9.37328e-15 3.11262e-14 -3.21053e-14 3.75575e-14 -5.81998e-14 3.77793e-14 -1.39301e-14 -5.56284e-14 1.00736e-13 5.35267e-14 7.61916e-14 -1.47888e-13 -4.30764e-15 4.81509e-14 3.87915e-14 -7.229e-14 1.91099e-13 6.30863e-13 7.11104e-12 1.04281e-10 1.34411e-09 1.54917e-08 1.58587e-07 1.42976e-06 1.12347e-05 7.59572e-05 0.00043473 0.00206362 0.0079345 0.0242051 0.0583145 0.113523 0.187029 0.2744 0.373275 0.483411 0.605483 0.739304 0.877925 0.981178 0.959956 0.938071 0.927833 0.927471 0.927279 0.927128 0.926928 0.926468 0.925958 0.925158 0.924086 0.922949 0.915712 0.916634 0.896892 0.885375 0.857759 0.818763 0.741832 0.669194 0.551356 0.429185 0.296596 0.178514 0.0896746 0.0373645 0.0133937 0.00436764 0.00134439 0.000396934 0.000113029 3.10891e-05 8.2618e-06 2.12097e-06 5.2589e-07 1.25911e-07 2.91057e-08 6.4958e-09 1.39922e-09 2.91244e-10 5.84072e-11 1.14676e-11 2.16711e-12 1.06418e-13 1.13372e-13 1.46644e-14 1.08469e-14 4.93263e-14 -2.15666e-13 5.18959e-14 1.52414e-13 4.53167e-14 2.03946e-13 -1.23997e-13 -3.98449e-14 1.23316e-14 1.40359e-13 1.85378e-13 -4.20763e-14 1.24019e-13 7.11595e-14 -1.32289e-13 -2.40995e-13 -3.02587e-13 2.82781e-13 6.56849e-14 -2.93503e-14 1.99317e-13 -1.17218e-13 -2.05903e-13 -1.67008e-13 2.45627e-13 -1.15147e-13 -8.16552e-15 1.24065e-13 2.64882e-13 -2.05822e-13 3.30836e-13 -3.01827e-13 4.22852e-13 -2.74706e-13 -3.87626e-13 -2.53165e-14 9.11023e-14 1.06244e-13 -1.13998e-13 2.09781e-14 -5.27625e-15 -7.79918e-14 -9.07402e-14 7.01306e-14 -2.37014e-14 1.2497e-13 -2.92674e-14 -1.36777e-13 -8.92151e-14 -8.73712e-14 -1.31302e-13 8.08254e-14 8.22159e-14 -2.089e-14 -1.55155e-13 0
				</DataArray>
				<DataArray Name="VitesseY" type="Float32" format="ascii">