<?xml version="1.0"?>
<VTKFile type="PolyData">
	<PolyData>
		<Piece NumberOfPoints="1206" NumberOfPolys="1000">
			<Points>
				<DataArray type="Float32" NumberOfComponents="3" format="ascii">
 0 0 0 0.005 0 0 0.01 0 0 0.015 0 0 0.02 0 0 0.025 0 0 0.03 0 0 0.035 0 0 0.04 0 0 0.045 0 0 0.05 0 0 0.055 0 0 0.06 0 0 0.065 0 0 0.07 0 0 0.075 0 0 0.08 0 0 0.085 0 0 0.09 0 0 0.095 0 0 0.1 0 0 0.105 0 0 0.11 0 0 0.115 0 0 0.12 0 0 0.125 0 0 0.13 0 0 0.135 0 0 0.14 0 0 0.145 0 0 0.15 0 0 0.155 0 0 0.16 0 0 0.165 0 0 0.17 0 0 0.175 0 0 0.18 0 0 0.185 0 0 0.19 0 0 0.195 0 0 0.2 0 0 0.205 0 0 0.21 0 0 0.215 0 0 0.22 0 0 0.225 0 0 0.23 0 0 0.235 0 0 0.24 0 0 0.245 0 0 0.25 0 0 0.255 0 0 0.26 0 0 0.265 0 0 0.27 0 0 0.275 0 0 0.28 0 0 0.285 0 0 0.29 0 0 0.295 0 0 0.300001 0 0 0.305002 0 0 0.310006 0 0 0.315018 0 0 0.320045 0 0 0.325102 0 0 0.33021 0 0 0.335391 0 0 0.340667 0 0 0.346058 0 0 0.351577 0 0 0.357239 0 0 0.363055 0 0 0.369038 0 0 0.3752 0 0 0.381555 0 0 0.388117 0 0 0.394903 0 0 0.40193 0 0 0.409218 0 0 0.416791 0 0 0.424673 0 0 0.432893 0 0 0.441484 0 0 0.450482 0 0 0.459929 0 0 0.469871 0 0 0.480354 0 0 0.491418 0 0 0.503065 0 0 0.515168 0 0 0.52734 0 0 0.539392 0 0 0.551324 0 0 0.563162 0 0 0.574941 0 0 0.586693 0 0 0.598432 0 0 0.610167 0 0 0.6219 0 0 0.633648 0 0 0.636259 0 0 0.638796 0 0 0.641288 0 0 0.643749 0 0 0.646188 0 0 0.648612 0 0 0.651026 0 0 0.653439 0 0 0.655852 0 0 0.65825 0 0 0.660637 0 0 0.663018 0 0 0.665396 0 0 0.667771 0 0 0.670144 0 0 0.672514 0 0 0.674883 0 0 0.67725 0 0 0.679615 0 0 0.681977 0 0 0.684339 0 0 0.686702 0 0 0.689065 0 0 0.691427 0 0 0.69379 0 0 0.696154 0 0 0.698516 0 0 0.700878 0 0 0.703242 0 0 0.705606 0 0 0.707969 0 0 0.710332 0 0 0.712695 0 0 0.715058 0 0 0.717425 0 0 0.719792 0 0 0.722159 0 0 0.724523 0 0 0.726885 0 0 0.729247 0 0 0.731608 0 0 0.733973 0 0 0.736349 0 0 0.738748 0 0 0.741172 0 0 0.743665 0 0 0.746246 0 0 0.748953 0 0 0.75183 0 0 0.754943 0 0 0.758335 0 0 0.762073 0 0 0.766163 0 0 0.77058 0 0 0.775258 0 0 0.780104 0 0 0.785039 0 0 0.790014 0 0 0.795005 0 0 0.800002 0 0 0.805001 0 0 0.81 0 0 0.815 0 0 0.82 0 0 0.825 0 0 0.83 0 0 0.835 0 0 0.84 0 0 0.845 0 0 0.85 0 0 0.855 0 0 0.86 0 0 0.865 0 0 0.87 0 0 0.875 0 0 0.88 0 0 0.885 0 0 0.89 0 0 0.895 0 0 0.9 0 0 0.905 0 0 0.91 0 0 0.915 0 0 0.92 0 0 0.925 0 0 0.93 0 0 0.935 0 0 0.94 0 0 0.945 0 0 0.95 0 0 0.955 0 0 0.96 0 0 0.965 0 0 0.97 0 0 0.975 0 0 0.98 0 0 0.985 0 0 0.99 0 0 0.995 0 0 1 0 0 0 0.02 0 0.005 0.02 0 0.01 0.02 0 0.015 0.02 0 0.02 0.02 0 0.025 0.02 0 0.03 0.02 0 0.035 0.02 0 0.04 0.02 0 0.045 0.02 0 0.05 0.02 0 0.055 0.02 0 0.06 0.02 0 0.065 0.02 0 0.07 0.02 0 0.075 0.02 0 0.08 0.02 0 0.085 0.02 0 0.09 0.02 0 0.095 0.02 0 0.1 0.02 0 0.105 0.02 0 0.11 0.02 0 0.115 0.02 0 0.12 0.02 0 0.125 0.02 0 0.13 0.02 0 0.135 0.02 0 0.14 0.02 0 0.145 0.02 0 0.15 0.02 0 0.155 0.02 0 0.16 0.02 0 0.165 0.02 0 0.17 0.02 0 0.175 0.02 0 0.18 0.02 0 0.185 0.02 0 0.19 0.02 0 0.195 0.02 0 0.2 0.02 0 0.205 0.02 0 0.21 0.02 0 0.215 0.02 0 0.22 0.02 0 0.225 0.02 0 0.23 0.02 0 0.235 0.02 0 0.24 0.02 0 0.245 0.02 0 0.25 0.02 0 0.255 0.02 0 0.26 0.02 0 0.265 0.02 0 0.27 0.02 0 0.275 0.02 0 0.28 0.02 0 0.285 0.02 0 0.29 0.02 0 0.295 0.02 0 0.300001 0.02 0 0.305002 0.02 0 0.310006 0.02 0 0.315018 0.02 0 0.320045 0.02 0 0.325102 0.02 0 0.33021 0.02 0 0.335391 0.02 0 0.340667 0.02 0 0.346058 0.02 0 0.351577 0.02 0 0.357239 0.02 0 0.363055 0.02 0 0.369038 0.02 0 0.3752 0.02 0 0.381555 0.02 0 0.388117 0.02 0 0.394903 0.02 0 0.40193 0.02 0 0.409218 0.02 0 0.416791 0.02 0 0.424673 0.02 0 0.432893 0.02 0 0.441484 0.02 0 0.450482 0.02 0 0.459929 0.02 0 0.469871 0.02 0 0.480354 0.02 0 0.491418 0.02 0 0.503065 0.02 0 0.515168 0.02 0 0.52734 0.02 0 0.539392 0.02 0 0.551324 0.02 0 0.563162 0.02 0 0.574941 0.02 0 0.586693 0.02 0 0.598432 0.02 0 0.610167 0.02 0 0.6219 0.02 0 0.633648 0.02 0 0.636259 0.02 0 0.638796 0.02 0 0.641288 0.02 0 0.643749 0.02 0 0.646188 0.02 0 0.648612 0.02 0 0.651026 0.02 0 0.653439 0.02 0 0.655852 0.02 0 0.65825 0.02 0 0.660637 0.02 0 0.663018 0.02 0 0.665396 0.02 0 0.667771 0.02 0 0.670144 0.02 0 0.672514 0.02 0 0.674883 0.02 0 0.67725 0.02 0 0.679615 0.02 0 0.681977 0.02 0 0.684339 0.02 0 0.686702 0.02 0 0.689065 0.02 0 0.691427 0.02 0 0.69379 0.02 0 0.696154 0.02 0 0.698516 0.02 0 0.700878 0.02 0 0.703242 0.02 0 0.705606 0.02 0 0.707969 0.02 0 0.710332 0.02 0 0.712695 0.02 0 0.715058 0.02 0 0.717425 0.02 0 0.719792 0.02 0 0.722159 0.02 0 0.724523 0.02 0 0.726885 0.02 0 0.729247 0.02 0 0.731608 0.02 0 0.733973 0.02 0 0.736349 0.02 0 0.738748 0.02 0 0.741172 0.02 0 0.743665 0.02 0 0.746246 0.02 0 0.748953 0.02 0 0.75183 0.02 0 0.754943 0.02 0 0.758335 0.02 0 0.762073 0.02 0 0.766163 0.02 0 0.77058 0.02 0 0.775258 0.02 0 0.780104 0.02 0 0.785039 0.02 0 0.790014 0.02 0 0.795005 0.02 0 0.800002 0.02 0 0.805001 0.02 0 0.81 0.02 0 0.815 0.02 0 0.82 0.02 0 0.825 0.02 0 0.83 0.02 0 0.835 0.02 0 0.84 0.02 0 0.845 0.02 0 0.85 0.02 0 0.855 0.02 0 0.86 0.02 0 0.865 0.02 0 0.87 0.02 0 0.875 0.02 0 0.88 0.02 0 0.885 0.02 0 0.89 0.02 0 0.895 0.02 0 0.9 0.02 0 0.905 0.02 0 0.91 0.02 0 0.915 0.02 0 0.92 0.02 0 0.925 0.02 0 0.93 0.02 0 0.935 0.02 0 0.94 0.02 0 0.945 0.02 0 0.95 0.02 0 0.955 0.02 0 0.96 0.02 0 0.965 0.02 0 0.97 0.02 0 0.975 0.02 0 0.98 0.02 0 0.985 0.02 0 0.99 0.02 0 0.995 0.02 0 1 0.02 0 0 0.04 0 0.005 0.04 0 0.01 0.04 0 0.015 0.04 0 0.02 0.04 0 0.025 0.04 0 0.03 0.04 0 0.035 0.04 0 0.04 0.04 0 0.045 0.04 0 0.05 0.04 0 0.055 0.04 0 0.06 0.04 0 0.065 0.04 0 0.07 0.04 0 0.075 0.04 0 0.08 0.04 0 0.085 0.04 0 0.09 0.04 0 0.095 0.04 0 0.1 0.04 0 0.105 0.04 0 0.11 0.04 0 0.115 0.04 0 0.12 0.04 0 0.125 0.04 0 0.13 0.04 0 0.135 0.04 0 0.14 0.04 0 0.145 0.04 0 0.15 0.04 0 0.155 0.04 0 0.16 0.04 0 0.165 0.04 0 0.17 0.04 0 0.175 0.04 0 0.18 0.04 0 0.185 0.04 0 0.19 0.04 0 0.195 0.04 0 0.2 0.04 0 0.205 0.04 0 0.21 0.04 0 0.215 0.04 0 0.22 0.04 0 0.225 0.04 0 0.23 0.04 0 0.235 0.04 0 0.24 0.04 0 0.245 0.04 0 0.25 0.04 0 0.255 0.04 0 0.26 0.04 0 0.265 0.04 0 0.27 0.04 0 0.275 0.04 0 0.28 0.04 0 0.285 0.04 0 0.29 0.04 0 0.295 0.04 0 0.300001 0.04 0 0.305002 0.04 0 0.310006 0.04 0 0.315018 0.04 0 0.320045 0.04 0 0.325102 0.04 0 0.33021 0.04 0 0.335391 0.04 0 0.340667 0.04 0 0.346058 0.04 0 0.351577 0.04 0 0.357239 0.04 0 0.363055 0.04 0 0.369038 0.04 0 0.3752 0.04 0 0.381555 0.04 0 0.388117 0.04 0 0.394903 0.04 0 0.40193 0.04 0 0.409218 0.04 0 0.416791 0.04 0 0.424673 0.04 0 0.432893 0.04 0 0.441484 0.04 0 0.450482 0.04 0 0.459929 0.04 0 0.469871 0.04 0 0.480354 0.04 0 0.491418 0.04 0 0.503065 0.04 0 0.515168 0.04 0 0.52734 0.04 0 0.539392 0.04 0 0.551324 0.04 0 0.563162 0.04 0 0.574941 0.04 0 0.586693 0.04 0 0.598432 0.04 0 0.610167 0.04 0 0.6219 0.04 0 0.633648 0.04 0 0.636259 0.04 0 0.638796 0.04 0 0.641288 0.04 0 0.643749 0.04 0 0.646188 0.04 0 0.648612 0.04 0 0.651026 0.04 0 0.653439 0.04 0 0.655852 0.04 0 0.65825 0.04 0 0.660637 0.04 0 0.663018 0.04 0 0.665396 0.04 0 0.667771 0.04 0 0.670144 0.04 0 0.672514 0.04 0 0.674883 0.04 0 0.67725 0.04 0 0.679615 0.04 0 0.681977 0.04 0 0.684339 0.04 0 0.686702 0.04 0 0.689065 0.04 0 0.691427 0.04 0 0.69379 0.04 0 0.696154 0.04 0 0.698516 0.04 0 0.700878 0.04 0 0.703242 0.04 0 0.705606 0.04 0 0.707969 0.04 0 0.710332 0.04 0 0.712695 0.04 0 0.715058 0.04 0 0.717425 0.04 0 0.719792 0.04 0 0.722159 0.04 0 0.724523 0.04 0 0.726885 0.04 0 0.729247 0.04 0 0.731608 0.04 0 0.733973 0.04 0 0.736349 0.04 0 0.738748 0.04 0 0.741172 0.04 0 0.743665 0.04 0 0.746246 0.04 0 0.748953 0.04 0 0.75183 0.04 0 0.754943 0.04 0 0.758335 0.04 0 0.762073 0.04 0 0.766163 0.04 0 0.77058 0.04 0 0.775258 0.04 0 0.780104 0.04 0 0.785039 0.04 0 0.790014 0.04 0 0.795005 0.04 0 0.800002 0.04 0 0.805001 0.04 0 0.81 0.04 0 0.815 0.04 0 0.82 0.04 0 0.825 0.04 0 0.83 0.04 0 0.835 0.04 0 0.84 0.04 0 0.845 0.04 0 0.85 0.04 0 0.855 0.04 0 0.86 0.04 0 0.865 0.04 0 0.87 0.04 0 0.875 0.04 0 0.88 0.04 0 0.885 0.04 0 0.89 0.04 0 0.895 0.04 0 0.9 0.04 0 0.905 0.04 0 0.91 0.04 0 0.915 0.04 0 0.92 0.04 0 0.925 0.04 0 0.93 0.04 0 0.935 0.04 0 0.94 0.04 0 0.945 0.04 0 0.95 0.04 0 0.955 0.04 0 0.96 0.04 0 0.965 0.04 0 0.97 0.04 0 0.975 0.04 0 0.98 0.04 0 0.985 0.04 0 0.99 0.04 0 0.995 0.04 0 1 0.04 0 0 0.06 0 0.005 0.06 0 0.01 0.06 0 0.015 0.06 0 0.02 0.06 0 0.025 0.06 0 0.03 0.06 0 0.035 0.06 0 0.04 0.06 0 0.045 0.06 0 0.05 0.06 0 0.055 0.06 0 0.06 0.06 0 0.065 0.06 0 0.07 0.06 0 0.075 0.06 0 0.08 0.06 0 0.085 0.06 0 0.09 0.06 0 0.095 0.06 0 0.1 0.06 0 0.105 0.06 0 0.11 0.06 0 0.115 0.06 0 0.12 0.06 0 0.125 0.06 0 0.13 0.06 0 0.135 0.06 0 0.14 0.06 0 0.145 0.06 0 0.15 0.06 0 0.155 0.06 0 0.16 0.06 0 0.165 0.06 0 0.17 0.06 0 0.175 0.06 0 0.18 0.06 0 0.185 0.06 0 0.19 0.06 0 0.195 0.06 0 0.2 0.06 0 0.205 0.06 0 0.21 0.06 0 0.215 0.06 0 0.22 0.06 0 0.225 0.06 0 0.23 0.06 0 0.235 0.06 0 0.24 0.06 0 0.245 0.06 0 0.25 0.06 0 0.255 0.06 0 0.26 0.06 0 0.265 0.06 0 0.27 0.06 0 0.275 0.06 0 0.28 0.06 0 0.285 0.06 0 0.29 0.06 0 0.295 0.06 0 0.300001 0.06 0 0.305002 0.06 0 0.310006 0.06 0 0.315018 0.06 0 0.320045 0.06 0 0.325102 0.06 0 0.33021 0.06 0 0.335391 0.06 0 0.340667 0.06 0 0.346058 0.06 0 0.351577 0.06 0 0.357239 0.06 0 0.363055 0.06 0 0.369038 0.06 0 0.3752 0.06 0 0.381555 0.06 0 0.388117 0.06 0 0.394903 0.06 0 0.40193 0.06 0 0.409218 0.06 0 0.416791 0.06 0 0.424673 0.06 0 0.432893 0.06 0 0.441484 0.06 0 0.450482 0.06 0 0.459929 0.06 0 0.469871 0.06 0 0.480354 0.06 0 0.491418 0.06 0 0.503065 0.06 0 0.515168 0.06 0 0.52734 0.06 0 0.539392 0.06 0 0.551324 0.06 0 0.563162 0.06 0 0.574941 0.06 0 0.586693 0.06 0 0.598432 0.06 0 0.610167 0.06 0 0.6219 0.06 0 0.633648 0.06 0 0.636259 0.06 0 0.638796 0.06 0 0.641288 0.06 0 0.643749 0.06 0 0.646188 0.06 0 0.648612 0.06 0 0.651026 0.06 0 0.653439 0.06 0 0.655852 0.06 0 0.65825 0.06 0 0.660637 0.06 0 0.663018 0.06 0 0.665396 0.06 0 0.667771 0.06 0 0.670144 0.06 0 0.672514 0.06 0 0.674883 0.06 0 0.67725 0.06 0 0.679615 0.06 0 0.681977 0.06 0 0.684339 0.06 0 0.686702 0.06 0 0.689065 0.06 0 0.691427 0.06 0 0.69379 0.06 0 0.696154 0.06 0 0.698516 0.06 0 0.700878 0.06 0 0.703242 0.06 0 0.705606 
[...]
			<PointData Scalars="VitesseX">
				<DataArray Name="VitesseX" type="Float32" format="ascii">
 0 2.29623e-15 -4.66863e-17 1.43981e-15 9.40505e-16 -2.70687e-15 2.89538e-15 5.21011e-15 6.86831e-15 1.80039e-15 4.70687e-15 8.13919e-16 -4.14491e-15 4.84978e-15 9.27732e-15 7.05161e-17 1.36685e-15 8.732e-15 6.23092e-15 9.04039e-15 1.07635e-14 6.41899e-15 6.7939e-15 1.01446e-14 6.31061e-15 6.18798e-15 2.16238e-14 1.4487e-14 1.88118e-14 1.66464e-14 -4.09556e-15 8.07418e-15 1.47727e-14 3.98733e-15 8.75524e-15 2.14743e-14 -1.31364e-15 9.66102e-15 2.50687e-14 -1.24705e-14 1.62319e-14 3.10306e-14 -1.76002e-14 -9.19132e-15 4.80873e-14 2.16774e-15 1.50211e-14 1.43201e-13 4.65981e-13 3.14672e-12 2.21389e-11 1.45791e-10 9.05286e-10 5.29164e-09 2.90497e-08 1.49324e-07 7.16338e-07 3.19487e-06 1.31891e-05 5.01356e-05 0.000174409 0.000551228 0.00156982 0.00399411 0.00901464 0.0179948 0.0318933 0.0507738 0.0738733 0.100129 0.128653 0.158886 0.190539 0.223483 0.257678 0.29313 0.329873 0.367964 0.407472 0.448482 0.491087 0.535391 0.5815 0.629515 0.67951 0.731484 0.785249 0.840133 0.894143 0.941452 0.96534 0.955792 0.946096 0.937458 0.93193 0.92909 0.927811 0.927189 0.926806 0.926611 0.926822 0.926689 0.926624 0.926561 0.926537 0.926506 0.926473 0.926441 0.926414 0.926394 0.92638 0.926369 0.926357 0.926338 0.926308 0.926264 0.926203 0.926126 0.926037 0.925943 0.925853 0.925776 0.925722 0.925696 0.925706 0.925884 0.925914 0.925847 0.925757 0.925659 0.925594 0.92557 0.92557 0.925742 0.926597 0.92698 0.926295 0.925085 0.924004 0.923374 0.922539 0.925082 0.924681 0.917195 0.920641 0.888204 0.84308 0.839502 0.771558 0.683083 0.620873 0.488895 0.370415 0.247524 0.14526 0.0728785 0.0316905 0.0124858 0.00467332 0.00170985 0.000619318 0.000223109 8.00528e-05 2.86117e-05 1.01826e-05 3.6063e-06 1.27019e-06 4.44591e-07 1.54535e-07 5.33039e-08 1.82327e-08 6.18062e-09 2.07503e-09 6.89644e-10 2.26668e-10 7.37598e-11 2.36522e-11 7.57652e-12 2.24264e-12 9.38971e-13 1.58927e-13 -5.1742e-14 1.1111e-13 -6.81367e-14 -6.90155e-14 4.33563e-14 1.27814e-13 -1.59993e-13 -1.70605e-13 -1.5416e-14 2.87996e-14 1.60911e-14 -6.74978e-14 6.28125e-14 -8.2147e-14 -1.0666e-13 -8.26875e-14 -1.49302e-14 -8.75157e-15 9.89825e-14 0 0 1.06812e-16 2.07129e-15 3.06631e-15 3.02121e-15 -1.84163e-15 3.2129e-16 -2.2501e-16 5.9548e-15 6.77464e-15 -3.65636e-15 -3.26331e-15 4.59493e-15 1.35368e-14 2.29546e-15 8.88999e-15 1.50996e-15 7.61059e-15 9.99745e-15 8.26502e-15 3.1551e-15 1.12037e-14 6.17729e-16 9.14793e-15 8.95672e-15 -3.54531e-15 2.57052e-14 2.45467e-14 -7.47064e-15 1.7721e-14 1.21919e-14 1.93105e-14 9.12402e-15 -1.51305e-15 1.33186e-14 2.2499e-14 -1.53434e-14 1.67218e-14 7.4234e-16 3.94593e-14 -2.09044e-14 9.75906e-15 1.39534e-14 8.21464e-15 -1.18868e-14 6.28576e-14 2.471e-14 1.12826e-13 4.83607e-13 3.16683e-12 2.21149e-11 1.4573e-10 9.05286e-10 5.2917e-09 2.90496e-08 1.49324e-07 7.16338e-07 3.19488e-06 1.31891e-05 5.01356e-05 0.000174409 0.000551228 0.00156982 0.00399411 0.00901464 0.0179948 0.0318933 0.0507738 0.0738733 0.100129 0.128653 0.158886 0.190539 0.223483 0.257678 0.29313 0.329873 0.367964 0.407472 0.448482 0.491087 0.535391 0.5815 0.629515 0.67951 0.731484 0.785249 0.840133 0.894143 0.941452 0.96534 0.955792 0.946096 0.937458 0.93193 0.92909 0.927811 0.927189 0.926806 0.926611 0.926822 0.926689 0.926624 0.926561 0.926537 0.926506 0.926473 0.926441 0.926414 0.926394 0.92638 0.926369 0.926357 0.926338 0.926308 0.926264 0.926203 0.926126 0.926037 0.925943 0.925853 0.925776 0.925722 0.925696 0.925706 0.925884 0.925914 0.925847 0.925757 0.925659 0.925594 0.92557 0.92557 0.925742 0.926597 0.92698 0.926295 0.925085 0.924004 0.923374 0.922539 0.925082 0.924681 0.917195 0.920641 0.888204 0.84308 0.839502 0.771558 0.683083 0.620873 0.488895 0.370415 0.247524 0.14526 0.0728785 0.0316905 0.0124858 0.00467332 0.00170985 0.000619318 0.000223109 8.00528e-05 2.86117e-05 1.01826e-05 3.6063e-06 1.27019e-06 4.44591e-07 1.54535e-07 5.33038e-08 1.82327e-08 6.1806e-09 2.07495e-09 6.89654e-10 2.26727e-10 7.37771e-11 2.36862e-11 7.44203e-12 2.35027e-12 9.89406e-13 1.42473e-13 -9.41558e-14 -1.1983e-13 2.1464e-14 1.18495e-13 -4.21867e-14 -1.36654e-13 5.06151e-14 -4.04057e-14 -5.46511e-14 9.25766e-14 -7.71046e-14 -4.70253e-14 6.44752e-14 -1.03e-14 -7.23706e-14 -8.21522e-14 -1.3578e-14 6.69264e-14 -1.05668e-13 0 0 1.13895e-15 1.87397e-15 6.80492e-16 1.20078e-15 -1.07884e-15 1.61823e-15 -5.34504e-15 4.75869e-15 6.54101e-15 -4.23178e-15 3.28901e-17 1.07058e-14 1.28429e-14 5.58126e-15 1.45361e-14 4.34427e-15 1.32191e-14 -2.9898e-15 2.98108e-15 2.13571e-15 1.17683e-14 -4.22079e-15 1.08731e-14 8.76578e-15 -7.96774e-15 2.27259e-14 2.01076e-14 -3.27549e-14 2.07349e-14 2.97243e-14 1.11285e-14 1.03033e-14 -1.32987e-16 4.35549e-15 1.74844e-14 -2.25187e-15 2.80753e-15 2.01345e-14 -3.03761e-15 1.27189e-14 2.66216e-14 -6.39295e-15 2.98301e-14 -2.86167e-14 9.13961e-14 5.548e-14 1.10448e-13 4.54646e-13 3.17384e-12 2.20746e-11 1.45741e-10 9.05194e-10 5.29174e-09 2.90496e-08 1.49324e-07 7.16338e-07 3.19488e-06 1.31891e-05 5.01356e-05 0.000174409 0.000551228 0.00156982 0.00399411 0.00901464 0.0179948 0.0318933 0.0507738 0.0738733 0.100129 0.128653 0.158886 0.190539 0.223483 0.257678 0.29313 0.329873 0.367964 0.407472 0.448482 0.491087 0.535391 0.5815 0.629515 0.67951 0.731484 0.785249 0.840133 0.894143 0.941452 0.96534 0.955792 0.946096 0.937458 0.93193 0.92909 0.927811 0.927189 0.926806 0.926611 0.926822 0.926689 0.926624 0.926561 0.926537 0.926506 0.926473 0.926441 0.926414 0.926394 0.92638 0.926369 0.926357 0.926338 0.926308 0.926264 0.926203 0.926126 0.926037 0.925943 0.925853 0.925776 0.925722 0.925696 0.925706 0.925884 0.925914 0.925847 0.925757 0.925659 0.925594 0.92557 0.92557 0.925742 0.926597 0.92698 0.926295 0.925085 0.924004 0.923374 0.922539 0.925082 0.924681 0.917195 0.920641 0.888204 0.84308 0.839502 0.771558 0.683083 0.620873 0.488895 0.370415 0.247524 0.14526 0.0728785 0.0316905 0.0124858 0.00467332 0.00170985 0.000619318 0.000223109 8.00528e-05 2.86117e-05 1.01826e-05 3.6063e-06 1.27019e-06 4.44591e-07 1.54536e-07 5.33038e-08 1.82328e-08 6.18054e-09 2.07503e-09 6.89617e-10 2.26786e-10 7.38e-11 2.36671e-11 7.50643e-12 2.40394e-12 8.38069e-13 1.78255e-13 -1.50004e-13 -1.79751e-13 1.44258e-13 -9.48147e-14 9.07657e-14 -1.40798e-13 9.674e-14 2.5082e-14 2.85811e-14 2.76181e-14 -1.61414e-13 3.16219e-14 3.48034e-14 -3.55406e-14 9.27226e-14 -6.36019e-14 -3.06458e-14 -8.83566e-15 -1.32998e-13 0 0 -1.15191e-15 -1.35767e-15 -9.74415e-16 -2.67379e-15 -3.17461e-15 3.38657e-15 4.18303e-15 8.53507e-16 2.4703e-15 6.39494e-15 1.29782e-14 4.70318e-15 1.6293e-14 1.76474e-14 -8.16425e-15 1.10419e-14 1.57682e-14 -5.55093e-16 2.27968e-15 -9.01905e-15 -3.11888e-15 -1.16086e-14 1.90387e-14 2.0502e-14 -7.51514e-15 4.06464e-15 8.40847e-15 5.50976e-15 -1.06159e-14 1.9727e-14 1.23362e-14 9.71082e-15 2.29952e-14 -3.42959e-14 1.07359e-14 1.7178e-14 8.73873e-15 1.30343e-14 -3.17765e-14 5.355e-14 2.48159e-14 4.51321e-14 -1.61645e-14 -2.50681e-15 5.12805e-14 5.80722e-14 1.6917e-13 4.82556e-13 3.16921e-12 2.20165e-11 1.45761e-10 9.05154e-10 5.29165e-09 2.90496e-08 1.49324e-07 7.16338e-07 3.19488e-06 1.31891e-05 5.01356e-05 0.000174409 0.000551228 0.00156982 0.00399411 0.00901464 0.0179948 0.0318933 0.0507738 0.0738733 0.100129 0.128653 0.158886 0.190539 0.223483 0.257678 0.29313 0.329873 0.367964 0.407472 0.448482 0.491087 0.535391 0.5815 0.629515 0.67951 0.731484 0.785249 0.840133 0.894143 0.941452 0.96534 0.955792 0.946096 0.937458 0.93193 0.92909 0.927811 0.927189 0.926806 0.926611 0.926822 0.926689 0.926624 0.926561 0.926537 0.926506 0.926473 0.926441 0.926414 0.926394 0.92638 0.926369 0.926357 0.926338 0.926308 0.926264 0.926203 0.926126 0.926037 0.925943 0.925853 0.925776 0.925722 0.925696 0.925706 0.925884 0.925914 0.925847 0.925757 0.925659 0.925594 0.92557 0.92557 0.925742 0.926597 0.92698 0.926295 0.925085 0.924004 0.923374 0.922539 0.925082 0.924681 0.917195 0.920641 0.888204 0.84308 0.839502 0.771558 0.683083 0.620873 0.488895 0.370415 0.247524 0.14526 0.0728785 0.0316905 0.0124858 0.00467332 0.00170985 0.000619318 0.000223109 8.00528e-05 2.86117e-05 1.01826e-05 3.6063e-06 1.27019e-06 4.44591e-07 1.54535e-07 5.33039e-08 1.82328e-08 6.18052e-09 2.07511e-09 6.89594e-10 2.26804e-10 7.38648e-11 2.364e-11 7.71584e-12 2.32876e-12 6.02205e-13 -8.07371e-15 2.76259e-14 1.09045e-13 -4.82664e-14 -4.64725e-14 3.94921e-14 4.83284e-14 -3.73982e-14 -2.43297e-14 1.03407e-13 -1.05691e-13 -1.1904e-15 -6.25087e-14 -9.68056e-16 9.30494e-15 1.29851e-13 8.40161e-14 -1.18507e-14 -3.29335e-14 3.48263e-14 0 0 -1.13843e-15 -2.0186e-15 -8.09628e-16 -2.07504e-15 -2.21035e-15 1.68206e-15 6.57479e-15 -7.17858e-16 -4.73414e-16 6.46891e-15 2.31256e-14 1.91563e-14 4.79078e-15 1.00138e-14 -5.82812e-15 5.51827e-17 8.39165e-15 -2.37687e-15 -1.18418e-14 4.03882e-15 -8.13147e-15 -3.44956e-15 -6.31035e-16 1.36221e-14 1.18623e-14 1.33458e-15 -5.92968e-16 2.964e-14 -1.26665e-14 1.60786e-15 1.48973e-14 4.80165e-15 2.19892e-14 4.14398e-15 3.30129e-15 9.38118e-15 1.5119e-14 -6.31722e-14 1.18974e-14 7.13471e-15 4.1045e-15 1.00724e-13 -3.07771e-14 3.58239e-14 5.07057e-14 8.28995e-14 2.29571e-13 4.57382e-13 3.16761e-12 2.19771e-11 1.45712e-10 9.05157e-10 5.29162e-09 2.90495e-08 1.49324e-07 7.16338e-07 3.19487e-06 1.31891e-05 5.01356e-05 0.000174409 0.000551228 0.00156982 0.00399411 0.00901464 0.0179948 0.0318933 0.0507738 0.0738733 0.100129 0.128653 0.158886 0.190539 0.223483 0.257678 0.29313 0.329873 0.367964 0.407472 0.448482 0.491087 0.535391 0.5815 0.629515 0.67951 0.731484 0.785249 0.840133 0.894143 0.941452 0.96534 0.955792 0.946096 0.937458 0.93193 0.92909 0.927811 0.927189 0.926806 0.926611 0.926822 0.926689 0.926624 0.926561 0.926537 0.926506 0.926473 0.926441 0.926414 0.926394 0.92638 0.926369 0.926357 0.926338 0.926308 0.926264 0.926203 0.926126 0.926037 0.925943 0.925853 0.925776 0.925722 0.925696 0.925706 0.925884 0.925914 0.925847 0.925757 0.925659 0.925594 0.92557 0.92557 0.925742 0.926597 0.92698 0.926295 0.925085 0.924004 0.923374 0.922539 0.925082 0.924681 0.917195 0.920641 0.888204 0.84308 0.839502 0.771558 0.683083 0.620873 0.488895 0.370415 0.247524 0.14526 0.0728785 0.0316905 0.0124858 0.00467332 0.00170985 0.000619318 0.000223109 8.00528e-05 2.86117e-05 1.01826e-05 3.6063e-06 1.27019e-06 4.44591e-07 1.54535e-07 5.33039e-08 1.82329e-08 6.1805e-09 2.07507e-09 6.89687e-10 2.26857e-10 7.38567e-11 2.37424e-11 7.53258e-12 2.44147e-12 5.18286e-13 -1.0548e-13 1.54291e-13 3.86024e-14 -1.30027e-13 4.04884e-13 -1.83144e-13 -2.4868e-14 -2.31681e-14 -2.91626e-13 8.90859e-14 -5.24194e-14 7.70565e-14 -6.35131e-14 1.62585e-14 1.01127e-13 5.94192e-14 -9.46223e-14 -2.05156e-15 1.90032e-13 -5.85155e-14 0 0 4.38746e-15 -1.76321e-15 -3.00226e-15 -1.50286e-15 7.47221e-16 2.08025e-15 -2.46415e-16 1.33336e-15 -4.5543e-15 3.70397e-15 2.7701e-14 3.69829e-14 -1.95425e-14 5.81728e-16 1.6035e-14 -1.4938e-14 5.1961e-15 -2.33871e-14 -2.97705e-14 3.48405e-14 -2.47701e-15 1.3435e-14 -2.57445e-14 -7.83101e-15 3.6098e-14 1.0205e-14 -1.23939e-14 1.65039e-14 1.85732e-14 -5.26917e-15 -3.16748e-15 7.31293e-15 4.73556e-15 6.77087e-14 -3.42397e-15 9.27563e-15 -5.40697e-15 -8.85599e-14 -1.01164e-14 -9.35186e-15 2.33328e-14 5.28902e-14 4.81439e-15 9.12891e-14 5.80953e-14 1.26216e-13 2.59246e-13 3.57713e-13 3.15754e-12 2.19793e-11 1.45716e-10 9.05107e-10 5.29166e-09 2.90496e-08 1.49324e-07 7.16338e-07 3.19487e-06 1.31891e-05 5.01356e-05 0.000174409 0.000551228 0.00156982 0.00399411 0.00901464 0.0179948 0.0318933 0.0507738 0.0738733 0.100129 0.128653 0.158886 0.190539 0.223483 0.257678 0.29313 0.329873 0.367964 0.407472 0.448482 0.491087 0.535391 0.5815 0.629515 0.67951 0.731484 0.785249 0.840133 0.894143 0.941452 0.96534 0.955792 0.946096 0.937458 0.93193 0.92909 0.927811 0.927189 0.926806 0.926611 0.926822 0.926689 0.926624 0.926561 0.926537 0.926506 0.926473 0.926441 0.926414 0.926394 0.92638 0.926369 0.926357 0.926338 0.926308 0.926264 0.926203 0.926126 0.926037 0.925943 0.925853 0.925776 0.925722 0.925696 0.925706 0.925884 0.925914 0.925847 0.925757 0.925659 0.925594 0.92557 0.92557 0.925742 0.926597 0.92698 0.926295 0.925085 0.924004 0.923374 0.922539 0.925082 0.924681 0.917195 0.920641 0.888204 0.84308 0.839502 0.771558 0.683083 0.620873 0.488895 0.370415 0.247524 0.14526 0.0728785 0.0316905 0.0124858 0.00467332 0.00170985 0.000619318 0.000223109 8.00528e-05 2.86117e-05 1.01826e-05 3.6063e-06 1.27019e-06 4.44592e-07 1.54535e-07 5.33039e-08 1.82331e-08 6.18047e-09 2.0751e-09 6.89757e-10 2.26891e-10 7.37893e-11 2.3819e-11 7.33887e-12 2.5758e-12 4.68889e-13 3.56305e-14 8.99838e-14 -1.49603e-13 1.39307e-14 4.07817e-13 -1.35418e-13 -2.60515e-14 -3.83574e-14 -5.74098e-13 1.22259e-13 5.12828e-15 3.96579e-15 8.75174e-14 3.75585e-14 5.12223e-14 8.30942e-14 -4.02977e-13 -2.96366e-14 2.85454e-13 -1.42938e-13 0
				</DataArray>
				<DataArray Name="VitesseY" type="Float32" format="ascii">