<?xml version="1.0"?>
<VTKFile type="PolyData">
	<PolyData>
		<Piece NumberOfPoints="1206" NumberOfPolys="1000">
			<Points>
				<DataArray type="Float32" NumberOfComponents="3" format="ascii">
 0 0 0 0.005 0 0 0.01 0 0 0.015 0 0 0.02 0 0 0.025 0 0 0.03 0 0 0.035 0 0 0.04 0 0 0.045 0 0 0.05 0 0 0.055 0 0 0.06 0 0 0.065 0 0 0.07 0 0 0.075 0 0 0.08 0 0 0.085 0 0 0.09 0 0 0.095 0 0 0.1 0 0 0.105 0 0 0.11 0 0 0.115 0 0 0.12 0 0 0.125 0 0 0.13 0 0 0.135 0 0 0.14 0 0 0.145 0 0 0.15 0 0 0.155 0 0 0.16 0 0 0.165 0 0 0.17 0 0 0.175 0 0 0.18 0 0 0.185 0 0 0.19 0 0 0.195 0 0 0.2 0 0 0.205 0 0 0.21 0 0 0.215 0 0 0.22 0 0 0.225 0 0 0.23 0 0 0.235 0 0 0.24 0 0 0.245 0 0 0.25 0 0 0.255 0 0 0.26 0 0 0.265 0 0 0.27 0 0 0.275 0 0 0.28 0 0 0.285 0 0 0.290001 0 0 0.295004 0 0 0.30001 0 0 0.305027 0 0 0.310064 0 0 0.315137 0 0 0.320266 0 0 0.325471 0 0 0.330772 0 0 0.336184 0 0 0.34172 0 0 0.34739 0 0 0.353207 0 0 0.359178 0 0 0.365317 0 0 0.371634 0 0 0.378142 0 0 0.384855 0 0 0.391788 0 0 0.398957 0 0 0.406382 0 0 0.414084 0 0 0.422085 0 0 0.430412 0 0 0.439095 0 0 0.448168 0 0 0.457667 0 0 0.467633 0 0 0.478108 0 0 0.489128 0 0 0.500699 0 0 0.512729 0 0 0.524892 0 0 0.536948 0 0 0.548892 0 0 0.560738 0 0 0.572521 0 0 0.584271 0 0 0.596007 0 0 0.607738 0 0 0.619466 0 0 0.631195 0 0 0.642938 0 0 0.645546 0 0 0.64808 0 0 0.650569 0 0 0.653028 0 0 0.655465 0 0 0.657886 0 0 0.660296 0 0 0.662699 0 0 0.6651 0 0 0.667502 0 0 0.669907 0 0 0.672313 0 0 0.674716 0 0 0.677114 0 0 0.679504 0 0 0.68189 0 0 0.684271 0 0 0.686649 0 0 0.689025 0 0 0.6914 0 0 0.693773 0 0 0.696145 0 0 0.698516 0 0 0.700887 0 0 0.703257 0 0 0.705626 0 0 0.707995 0 0 0.710363 0 0 0.712731 0 0 0.715099 0 0 0.717466 0 0 0.719833 0 0 0.722201 0 0 0.724568 0 0 0.726935 0 0 0.729302 0 0 0.731669 0 0 0.734036 0 0 0.736404 0 0 0.738772 0 0 0.74114 0 0 0.743511 0 0 0.745883 0 0 0.74826 0 0 0.750643 0 0 0.753038 0 0 0.755448 0 0 0.757892 0 0 0.760368 0 0 0.762918 0 0 0.765534 0 0 0.768298 0 0 0.771221 0 0 0.774409 0 0 0.777898 0 0 0.781742 0 0 0.785939 0 0 0.790449 0 0 0.795192 0 0 0.800075 0 0 0.805028 0 0 0.81001 0 0 0.815004 0 0 0.820001 0 0 0.825 0 0 0.83 0 0 0.835 0 0 0.84 0 0 0.845 0 0 0.85 0 0 0.855 0 0 0.86 0 0 0.865 0 0 0.87 0 0 0.875 0 0 0.88 0 0 0.885 0 0 0.89 0 0 0.895 0 0 0.9 0 0 0.905 0 0 0.91 0 0 0.915 0 0 0.92 0 0 0.925 0 0 0.93 0 0 0.935 0 0 0.94 0 0 0.945 0 0 0.95 0 0 0.955 0 0 0.96 0 0 0.965 0 0 0.97 0 0 0.975 0 0 0.98 0 0 0.985 0 0 0.99 0 0 0.995 0 0 1 0 0 0 0.02 0 0.005 0.02 0 0.01 0.02 0 0.015 0.02 0 0.02 0.02 0 0.025 0.02 0 0.03 0.02 0 0.035 0.02 0 0.04 0.02 0 0.045 0.02 0 0.05 0.02 0 0.055 0.02 0 0.06 0.02 0 0.065 0.02 0 0.07 0.02 0 0.075 0.02 0 0.08 0.02 0 0.085 0.02 0 0.09 0.02 0 0.095 0.02 0 0.1 0.02 0 0.105 0.02 0 0.11 0.02 0 0.115 0.02 0 0.12 0.02 0 0.125 0.02 0 0.13 0.02 0 0.135 0.02 0 0.14 0.02 0 0.145 0.02 0 0.15 0.02 0 0.155 0.02 0 0.16 0.02 0 0.165 0.02 0 0.17 0.02 0 0.175 0.02 0 0.18 0.02 0 0.185 0.02 0 0.19 0.02 0 0.195 0.02 0 0.2 0.02 0 0.205 0.02 0 0.21 0.02 0 0.215 0.02 0 0.22 0.02 0 0.225 0.02 0 0.23 0.02 0 0.235 0.02 0 0.24 0.02 0 0.245 0.02 0 0.25 0.02 0 0.255 0.02 0 0.26 0.02 0 0.265 0.02 0 0.27 0.02 0 0.275 0.02 0 0.28 0.02 0 0.285 0.02 0 0.290001 0.02 0 0.295004 0.02 0 0.30001 0.02 0 0.305027 0.02 0 0.310064 0.02 0 0.315137 0.02 0 0.320266 0.02 0 0.325471 0.02 0 0.330772 0.02 0 0.336184 0.02 0 0.34172 0.02 0 0.34739 0.02 0 0.353207 0.02 0 0.359178 0.02 0 0.365317 0.02 0 0.371634 0.02 0 0.378142 0.02 0 0.384855 0.02 0 0.391788 0.02 0 0.398957 0.02 0 0.406382 0.02 0 0.414084 0.02 0 0.422085 0.02 0 0.430412 0.02 0 0.439095 0.02 0 0.448168 0.02 0 0.457667 0.02 0 0.467633 0.02 0 0.478108 0.02 0 0.489128 0.02 0 0.500699 0.02 0 0.512729 0.02 0 0.524892 0.02 0 0.536948 0.02 0 0.548892 0.02 0 0.560738 0.02 0 0.572521 0.02 0 0.584271 0.02 0 0.596007 0.02 0 0.607738 0.02 0 0.619466 0.02 0 0.631195 0.02 0 0.642938 0.02 0 0.645546 0.02 0 0.64808 0.02 0 0.650569 0.02 0 0.653028 0.02 0 0.655465 0.02 0 0.657886 0.02 0 0.660296 0.02 0 0.662699 0.02 0 0.6651 0.02 0 0.667502 0.02 0 0.669907 0.02 0 0.672313 0.02 0 0.674716 0.02 0 0.677114 0.02 0 0.679504 0.02 0 0.68189 0.02 0 0.684271 0.02 0 0.686649 0.02 0 0.689025 0.02 0 0.6914 0.02 0 0.693773 0.02 0 0.696145 0.02 0 0.698516 0.02 0 0.700887 0.02 0 0.703257 0.02 0 0.705626 0.02 0 0.707995 0.02 0 0.710363 0.02 0 0.712731 0.02 0 0.715099 0.02 0 0.717466 0.02 0 0.719833 0.02 0 0.722201 0.02 0 0.724568 0.02 0 0.726935 0.02 0 0.729302 0.02 0 0.731669 0.02 0 0.734036 0.02 0 0.736404 0.02 0 0.738772 0.02 0 0.74114 0.02 0 0.743511 0.02 0 0.745883 0.02 0 0.74826 0.02 0 0.750643 0.02 0 0.753038 0.02 0 0.755448 0.02 0 0.757892 0.02 0 0.760368 0.02 0 0.762918 0.02 0 0.765534 0.02 0 0.768298 0.02 0 0.771221 0.02 0 0.774409 0.02 0 0.777898 0.02 0 0.781742 0.02 0 0.785939 0.02 0 0.790449 0.02 0 0.795192 0.02 0 0.800075 0.02 0 0.805028 0.02 0 0.81001 0.02 0 0.815004 0.02 0 0.820001 0.02 0 0.825 0.02 0 0.83 0.02 0 0.835 0.02 0 0.84 0.02 0 0.845 0.02 0 0.85 0.02 0 0.855 0.02 0 0.86 0.02 0 0.865 0.02 0 0.87 0.02 0 0.875 0.02 0 0.88 0.02 0 0.885 0.02 0 0.89 0.02 0 0.895 0.02 0 0.9 0.02 0 0.905 0.02 0 0.91 0.02 0 0.915 0.02 0 0.92 0.02 0 0.925 0.02 0 0.93 0.02 0 0.935 0.02 0 0.94 0.02 0 0.945 0.02 0 0.95 0.02 0 0.955 0.02 0 0.96 0.02 0 0.965 0.02 0 0.97 0.02 0 0.975 0.02 0 0.98 0.02 0 0.985 0.02 0 0.99 0.02 0 0.995 0.02 0 1 0.02 0 0 0.04 0 0.005 0.04 0 0.01 0.04 0 0.015 0.04 0 0.02 0.04 0 0.025 0.04 0 0.03 0.04 0 0.035 0.04 0 0.04 0.04 0 0.045 0.04 0 0.05 0.04 0 0.055 0.04 0 0.06 0.04 0 0.065 0.04 0 0.07 0.04 0 0.075 0.04 0 0.08 0.04 0 0.085 0.04 0 0.09 0.04 0 0.095 0.04 0 0.1 0.04 0 0.105 0.04 0 0.11 0.04 0 0.115 0.04 0 0.12 0.04 0 0.125 0.04 0 0.13 0.04 0 0.135 0.04 0 0.14 0.04 0 0.145 0.04 0 0.15 0.04 0 0.155 0.04 0 0.16 0.04 0 0.165 0.04 0 0.17 0.04 0 0.175 0.04 0 0.18 0.04 0 0.185 0.04 0 0.19 0.04 0 0.195 0.04 0 0.2 0.04 0 0.205 0.04 0 0.21 0.04 0 0.215 0.04 0 0.22 0.04 0 0.225 0.04 0 0.23 0.04 0 0.235 0.04 0 0.24 0.04 0 0.245 0.04 0 0.25 0.04 0 0.255 0.04 0 0.26 0.04 0 0.265 0.04 0 0.27 0.04 0 0.275 0.04 0 0.28 0.04 0 0.285 0.04 0 0.290001 0.04 0 0.295004 0.04 0 0.30001 0.04 0 0.305027 0.04 0 0.310064 0.04 0 0.315137 0.04 0 0.320266 0.04 0 0.325471 0.04 0 0.330772 0.04 0 0.336184 0.04 0 0.34172 0.04 0 0.34739 0.04 0 0.353207 0.04 0 0.359178 0.04 0 0.365317 0.04 0 0.371634 0.04 0 0.378142 0.04 0 0.384855 0.04 0 0.391788 0.04 0 0.398957 0.04 0 0.406382 0.04 0 0.414084 0.04 0 0.422085 0.04 0 0.430412 0.04 0 0.439095 0.04 0 0.448168 0.04 0 0.457667 0.04 0 0.467633 0.04 0 0.478108 0.04 0 0.489128 0.04 0 0.500699 0.04 0 0.512729 0.04 0 0.524892 0.04 0 0.536948 0.04 0 0.548892 0.04 0 0.560738 0.04 0 0.572521 0.04 0 0.584271 0.04 0 0.596007 0.04 0 0.607738 0.04 0 0.619466 0.04 0 0.631195 0.04 0 0.642938 0.04 0 0.645546 0.04 0 0.64808 0.04 0 0.650569 0.04 0 0.653028 0.04 0 0.655465 0.04 0 0.657886 0.04 0 0.660296 0.04 0 0.662699 0.04 0 0.6651 0.04 0 0.667502 0.04 0 0.669907 0.04 0 0.672313 0.04 0 0.674716 0.04 0 0.677114 0.04 0 0.679504 0.04 0 0.68189 0.04 0 0.684271 0.04 0 0.686649 0.04 0 0.689025 0.04 0 0.6914 0.04 0 0.693773 0.04 0 0.696145 0.04 0 0.698516 0.04 0 0.700887 0.04 0 0.703257 0.04 0 0.705626 0.04 0 0.707995 0.04 0 0.710363 0.04 0 0.712731 0.04 0 0.715099 0.04 0 0.717466 0.04 0 0.719833 0.04 0 0.722201 0.04 0 0.724568 0.04 0 0.726935 0.04 0 0.729302 0.04 0 0.731669 0.04 0 0.734036 0.04 0 0.736404 0.04 0 0.738772 0.04 0 0.74114 0.04 0 0.743511 0.04 0 0.745883 0.04 0 0.74826 0.04 0 0.750643 0.04 0 0.753038 0.04 0 0.755448 0.04 0 0.757892 0.04 0 0.760368 0.04 0 0.762918 0.04 0 0.765534 0.04 0 0.768298 0.04 0 0.771221 0.04 0 0.774409 0.04 0 0.777898 0.04 0 0.781742 0.04 0 0.785939 0.04 0 0.790449 0.04 0 0.795192 0.04 0 0.800075 0.04 0 0.805028 0.04 0 0.81001 0.04 0 0.815004 0.04 0 0.820001 0.04 0 0.825 0.04 0 0.83 0.04 0 0.835 0.04 0 0.84 0.04 0 0.845 0.04 0 0.85 0.04 0 0.855 0.04 0 0.86 0.04 0 0.865 0.04 0 0.87 0.04 0 0.875 0.04 0 0.88 0.04 0 0.885 0.04 0 0.89 0.04 0 0.895 0.04 0 0.9 0.04 0 0.905 0.04 0 0.91 0.04 0 0.915 0.04 0 0.92 0.04 0 0.925 0.04 0 0.93 0.04 0 0.935 0.04 0 0.94 0.04 0 0.945 0.04 0 0.95 0.04 0 0.955 0.04 0 0.96 0.04 0 0.965 0.04 0 0.97 0.04 0 0.975 0.04 0 0.98 0.04 0 0.985 0.04 0 0.99 0.04 0 0.995 0.04 0 1 0.04 0 0 0.06 0 0.005 0.06 0 0.01 0.06 0 0.015 0.06 0 0.02 0.06 0 0.025 0.06 0 0.03 0.06 0 0.035 0.06 0 0.04 0.06 0 0.045 0.06 0 0.05 0.06 0 0.055 0.06 0 0.06 0.06 0 0.065 0.06 0 0.07 0.06 0 0.075 0.06 0 0.08 0.06 0 0.085 0.06 0 0.09 0.06 0 0.095 0.06 0 0.1 0.06 0 0.105 0.06 0 0.11 0.06 0 0.115 0.06 0 0.12 0.06 0 0.125 0.06 0 0.13 0.06 0 0.135 0.06 0 0.14 0.06 0 0.145 0.06 0 0.15 0.06 0 0.155 0.06 0 0.16 0.06 0 0.165 0.06 0 0.17 0.06 0 0.175 0.06 0 0.18 0.06 0 0.185 0.06 0 0.19 0.06 0 0.195 0.06 0 0.2 0.06 0 0.205 0.06 0 0.21 0.06 0 0.215 0.06 0 0.22 0.06 0 0.225 0.06 0 0.23 0.06 0 0.235 0.06 0 0.24 0.06 0 0.245 0.06 0 0.25 0.06 0 0.255 0.06 0 0.26 0.06 0 0.265 0.06 0 0.27 0.06 0 0.275 0.06 0 0.28 0.06 0 0.285 0.06 0 0.290001 0.06 0 0.295004 0.06 0 0.30001 0.06 0 0.305027 0.06 0 0.310064 0.06 0 0.315137 0.06 0 0.320266 0.06 0 0.325471 0.06 0 0.330772 0.06 0 0.336184 0.06 0 0.34172 0.06 0 0.34739 0.06 0 0.353207 0.06 0 0.359178 0.06 0 0.365317 0.06 0 0.371634 0.06 0 0.378142 0.06 0 0.384855 0.06 0 0.391788 0.06 0 0.398957 0.06 0 0.406382 0.06 0 0.414084 0.06 0 0.422085 0.06 0 0.430412 0.06 0 0.439095 0.06 0 0.448168 0.06 0 0.457667 0.06 0 0.467633 0.06 0 0.478108 0.06 0 0.489128 0.06 0 0.500699 0.06 0 0.512729 0.06 0 0.524892 0.06 0 0.536948 0.06 0 0.548892 0.06 0 0.560738 0.06 0 0.572521 0.06 0 0.584271 0.06 0 0.596007 0.06 0 0.607738 0.06 0 0.619466 0.06 0 0.631195 0.06 0 0.642938 0.06 0 0.645546 0.06 0 0.64808 0.06 0 0.650569 0.06 0 0.653028 0.06 0 0.655465 0.06 0 0.657886 0.06 0 0.660296 0.06 0 0.662699 0.06 0 0.6651 0.06 0 0.667502 0.06 0 0.669907 0.06 0 0.672313 0.06 0 0.674716 0.06 0 0.677114 0.06 0 0.679504 0.06 0 0.68189 0.06 0 0.684271 0.06 0 0.686649 0.06 0 0.689025 0.06 0 0.6914 0.06 0 0.693773 0.06 0 0.696145 0.06 0 0.698516 0.06 0 0.700887 0.06 0 0.703257 0.06 0 0.705626 0.
[...]
			<PointData Scalars="VitesseX">
				<DataArray Name="VitesseX" type="Float32" format="ascii">
 0 -1.70695e-15 -3.82209e-15 -4.90045e-15 -1.05065e-14 -7.95416e-15 -1.01363e-14 -7.14427e-15 -1.08257e-14 -2.11885e-14 -1.60169e-14 -5.42426e-15 -9.52777e-15 -1.01428e-14 -1.0459e-14 -1.51486e-14 -9.4261e-15 -1.64649e-14 -9.82756e-15 -1.82027e-14 -1.52167e-14 -1.89055e-14 -2.77291e-14 -2.59228e-14 -4.41523e-14 -3.1073e-14 -4.33411e-14 -2.79552e-14 -3.69012e-14 -3.18385e-14 -3.93911e-14 -2.89143e-14 -3.33804e-14 -4.15833e-14 -2.84461e-14 -2.72007e-14 -3.37699e-14 -4.05504e-14 -1.94197e-14 -3.38475e-14 -1.86061e-14 -2.64965e-14 -3.04187e-14 -1.06624e-14 4.80118e-14 2.71593e-13 1.95536e-12 1.36851e-11 8.74454e-11 5.29883e-10 3.03246e-09 1.63537e-08 8.28843e-08 3.93603e-07 1.74544e-06 7.1998e-06 2.74995e-05 9.67362e-05 0.000311436 0.000910927 0.0024014 0.00566261 0.0118823 0.0221851 0.0371073 0.0563546 0.0790684 0.104314 0.131392 0.159886 0.189585 0.220395 0.252287 0.285267 0.319363 0.354618 0.391088 0.42884 0.467948 0.508496 0.550573 0.594268 0.639665 0.686823 0.735735 0.786237 0.837769 0.888729 0.93455 0.962358 0.956258 0.947096 0.938357 0.932391 0.929125 0.927637 0.926979 0.926633 0.926423 0.926285 0.92618 0.926161 0.926143 0.926126 0.926109 0.926092 0.926076 0.926059 0.926043 0.926026 0.926009 0.925992 0.925975 0.925957 0.92594 0.925922 0.925903 0.925885 0.925867 0.925848 0.925829 0.92581 0.925791 0.92577 0.92575 0.925728 0.925706 0.92568 0.925656 0.925623 0.925597 0.925554 0.925527 0.925466 0.925443 0.925345 0.925331 0.925154 0.925152 0.924782 0.924799 0.923899 0.923965 0.921532 0.921746 0.915024 0.915703 0.898196 0.900312 0.860158 0.866022 0.787597 0.777403 0.661652 0.585475 0.454339 0.332153 0.212658 0.11823 0.0561698 0.0234183 0.0090018 0.00332706 0.00120925 0.000436288 0.00015678 5.6165e-05 2.00581e-05 7.13831e-06 2.53012e-06 8.92608e-07 3.13237e-07 1.09268e-07 3.78649e-08 1.30266e-08 4.44653e-09 1.50494e-09 5.04842e-10 1.677e-10 5.50987e-11 1.79088e-11 5.74819e-12 1.81684e-12 4.5176e-13 1.39593e-13 -1.41793e-15 4.1792e-14 4.54418e-14 -6.52356e-14 5.97019e-14 -9.878e-14 1.02417e-13 4.77989e-14 1.05962e-14 8.20456e-14 -2.81306e-14 3.62609e-14 -6.81639e-14 -9.9293e-14 9.15211e-14 0 0 -2.48818e-15 -4.47581e-15 -5.33024e-15 -8.4095e-15 -8.62946e-15 -8.03889e-15 -7.62596e-15 -1.45928e-14 -1.37021e-14 -1.62906e-14 -3.59772e-15 -1.11839e-14 -1.51869e-14 -2.84257e-15 -8.95277e-15 -1.49764e-14 -9.97219e-15 -1.53016e-14 -1.57583e-14 -1.2956e-14 -3.30023e-14 -1.17425e-14 -3.76193e-14 -4.24428e-14 -4.05817e-14 -2.57709e-14 -2.43764e-14 -2.74748e-14 -3.03723e-14 -6.14934e-14 -2.02005e-14 -4.51256e-14 -2.84835e-14 -3.64331e-14 -2.60336e-14 -4.5456e-14 -3.31177e-14 -2.85956e-14 -2.56271e-14 -1.94608e-14 -1.91486e-14 -1.94165e-14 -7.43685e-15 4.02189e-14 2.62564e-13 2.01118e-12 1.36887e-11 8.75076e-11 5.29862e-10 3.03243e-09 1.63538e-08 8.28843e-08 3.93603e-07 1.74544e-06 7.1998e-06 2.74995e-05 9.67362e-05 0.000311436 0.000910927 0.0024014 0.00566261 0.0118823 0.0221851 0.0371073 0.0563546 0.0790684 0.104314 0.131392 0.159886 0.189585 0.220395 0.252287 0.285267 0.319363 0.354618 0.391088 0.42884 0.467948 0.508496 0.550573 0.594268 0.639665 0.686823 0.735735 0.786237 0.837769 0.888729 0.93455 0.962358 0.956258 0.947096 0.938357 0.932391 0.929125 0.927637 0.926979 0.926633 0.926423 0.926285 0.92618 0.926161 0.926143 0.926126 0.926109 0.926092 0.926076 0.926059 0.926043 0.926026 0.926009 0.925992 0.925975 0.925957 0.92594 0.925922 0.925903 0.925885 0.925867 0.925848 0.925829 0.92581 0.925791 0.92577 0.92575 0.925728 0.925706 0.92568 0.925656 0.925623 0.925597 0.925554 0.925527 0.925466 0.925443 0.925345 0.925331 0.925154 0.925152 0.924782 0.924799 0.923899 0.923965 0.921532 0.921746 0.915024 0.915703 0.898196 0.900312 0.860158 0.866022 0.787597 0.777403 0.661652 0.585475 0.454339 0.332153 0.212658 0.11823 0.0561698 0.0234183 0.0090018 0.00332706 0.00120925 0.000436288 0.00015678 5.6165e-05 2.00581e-05 7.13831e-06 2.53012e-06 8.92608e-07 3.13237e-07 1.09268e-07 3.78649e-08 1.30267e-08 4.44652e-09 1.50496e-09 5.04805e-10 1.67671e-10 5.50779e-11 1.79477e-11 5.71715e-12 1.68951e-12 5.44327e-13 8.34014e-14 -2.20778e-15 8.17298e-14 -6.56647e-14 -6.51516e-14 8.19354e-14 -6.32471e-14 3.18782e-14 2.24275e-14 -2.19182e-14 -4.05035e-14 3.66364e-14 2.31416e-14 -3.73998e-14 3.69663e-14 5.91601e-14 0 0 -2.7608e-15 -7.08479e-15 -6.85166e-15 -6.9143e-15 -9.59628e-15 -6.98981e-15 -4.22448e-15 -7.59128e-15 -1.23341e-14 -4.47619e-15 -4.08121e-15 -6.17882e-15 -1.03429e-14 -1.48386e-14 -3.82107e-15 -2.3218e-14 -1.05003e-14 -1.4914e-14 -1.58081e-14 -1.50002e-14 -3.13266e-14 -2.86548e-14 -3.85755e-14 -3.54198e-14 -3.17237e-14 -4.13974e-14 -2.79597e-14 -2.23364e-14 -2.58225e-14 -7.98741e-14 -3.36145e-14 -3.50579e-14 -3.35773e-14 -2.55254e-14 -2.27795e-14 -4.36387e-14 -2.37949e-14 -1.90979e-14 -2.60139e-14 -2.63431e-14 -2.31267e-14 1.94539e-14 -2.75676e-14 6.57715e-14 3.04103e-13 2.06559e-12 1.37165e-11 8.75515e-11 5.29884e-10 3.03243e-09 1.63538e-08 8.28843e-08 3.93603e-07 1.74544e-06 7.1998e-06 2.74995e-05 9.67362e-05 0.000311436 0.000910927 0.0024014 0.00566261 0.0118823 0.0221851 0.0371073 0.0563546 0.0790684 0.104314 0.131392 0.159886 0.189585 0.220395 0.252287 0.285267 0.319363 0.354618 0.391088 0.42884 0.467948 0.508496 0.550573 0.594268 0.639665 0.686823 0.735735 0.786237 0.837769 0.888729 0.93455 0.962358 0.956258 0.947096 0.938357 0.932391 0.929125 0.927637 0.926979 0.926633 0.926423 0.926285 0.92618 0.926161 0.926143 0.926126 0.926109 0.926092 0.926076 0.926059 0.926043 0.926026 0.926009 0.925992 0.925975 0.925957 0.92594 0.925922 0.925903 0.925885 0.925867 0.925848 0.925829 0.92581 0.925791 0.92577 0.92575 0.925728 0.925706 0.92568 0.925656 0.925623 0.925597 0.925554 0.925527 0.925466 0.925443 0.925345 0.925331 0.925154 0.925152 0.924782 0.924799 0.923899 0.923965 0.921532 0.921746 0.915024 0.915703 0.898196 0.900312 0.860158 0.866022 0.787597 0.777403 0.661652 0.585475 0.454339 0.332153 0.212658 0.11823 0.0561698 0.0234183 0.0090018 0.00332706 0.00120925 0.000436288 0.00015678 5.6165e-05 2.00581e-05 7.13831e-06 2.53012e-06 8.92608e-07 3.13237e-07 1.09268e-07 3.78648e-08 1.30267e-08 4.44635e-09 1.50508e-09 5.04721e-10 1.67613e-10 5.50461e-11 1.79864e-11 5.56489e-12 1.62696e-12 3.87496e-13 1.13729e-13 -5.42031e-14 1.26304e-13 -7.05933e-14 6.76872e-14 -1.70594e-15 -5.95237e-14 -2.70934e-14 -1.62287e-14 -1.17266e-14 -2.78825e-14 -3.63958e-14 5.93597e-14 8.87251e-16 1.00874e-13 6.87783e-14 0 0 -2.16555e-15 -4.79949e-15 -3.57537e-15 -3.86526e-15 -6.49759e-15 4.32725e-16 -4.11711e-16 1.38163e-15 -8.71763e-15 9.39508e-16 -8.43711e-15 -2.87735e-15 -6.07587e-15 -1.58674e-14 -4.40854e-15 -2.62018e-14 -9.76457e-15 -1.2731e-14 -3.19866e-14 -2.51569e-14 -1.99449e-14 -4.8594e-14 -2.84625e-14 -3.38593e-14 -2.38451e-14 -5.50661e-14 -3.88608e-14 -2.56627e-14 -5.90749e-14 -5.20835e-14 -1.31758e-14 -2.67211e-14 -5.69974e-14 -2.59269e-14 -2.82291e-14 -2.93324e-15 -3.54907e-14 2.68814e-15 -2.19765e-14 -1.445e-14 -4.28014e-14 4.2253e-14 2.77494e-15 6.97406e-14 3.58875e-13 2.12824e-12 1.37522e-11 8.75076e-11 5.2991e-10 3.03252e-09 1.63538e-08 8.28843e-08 3.93603e-07 1.74544e-06 7.1998e-06 2.74995e-05 9.67362e-05 0.000311436 0.000910927 0.0024014 0.00566261 0.0118823 0.0221851 0.0371073 0.0563546 0.0790684 0.104314 0.131392 0.159886 0.189585 0.220395 0.252287 0.285267 0.319363 0.354618 0.391088 0.42884 0.467948 0.508496 0.550573 0.594268 0.639665 0.686823 0.735735 0.786237 0.837769 0.888729 0.93455 0.962358 0.956258 0.947096 0.938357 0.932391 0.929125 0.927637 0.926979 0.926633 0.926423 0.926285 0.92618 0.926161 0.926143 0.926126 0.926109 0.926092 0.926076 0.926059 0.926043 0.926026 0.926009 0.925992 0.925975 0.925957 0.92594 0.925922 0.925903 0.925885 0.925867 0.925848 0.925829 0.92581 0.925791 0.92577 0.92575 0.925728 0.925706 0.92568 0.925656 0.925623 0.925597 0.925554 0.925527 0.925466 0.925443 0.925345 0.925331 0.925154 0.925152 0.924782 0.924799 0.923899 0.923965 0.921532 0.921746 0.915024 0.915703 0.898196 0.900312 0.860158 0.866022 0.787597 0.777403 0.661652 0.585475 0.454339 0.332153 0.212658 0.11823 0.0561698 0.0234183 0.0090018 0.00332706 0.00120925 0.000436288 0.00015678 5.6165e-05 2.00581e-05 7.13831e-06 2.53012e-06 8.92608e-07 3.13237e-07 1.09268e-07 3.78648e-08 1.30266e-08 4.44627e-09 1.50504e-09 5.04688e-10 1.67626e-10 5.48989e-11 1.80227e-11 5.45948e-12 1.77869e-12 1.75549e-13 1.79445e-13 -8.89211e-14 2.10577e-14 -7.15502e-14 2.03175e-13 1.21487e-13 -1.84073e-13 -6.16944e-14 -1.10486e-13 -3.95374e-14 2.37276e-14 -9.05716e-14 1.16363e-13 1.38759e-13 -1.43211e-14 6.8222e-14 0 0 -3.37203e-15 -3.80929e-15 -6.81786e-16 1.09476e-15 2.02839e-15 8.30594e-15 1.09984e-14 1.1956e-15 8.3647e-15 -4.349e-15 -5.19595e-15 5.70568e-15 -9.23983e-15 -2.72606e-14 1.62014e-15 -9.94781e-15 -2.19506e-15 -2.87452e-14 -1.58818e-14 -3.00505e-14 -3.56567e-14 -3.23815e-14 -3.51791e-14 -5.84929e-14 -3.53714e-14 -6.64571e-14 -2.2569e-14 -3.20558e-14 -6.29027e-14 -2.22618e-14 -1.55422e-14 -2.33463e-14 -4.03516e-14 -2.34919e-14 -3.67149e-14 -6.52836e-16 -7.79769e-15 -1.91852e-15 1.62555e-14 -3.1094e-14 -5.29202e-15 8.44806e-15 2.21224e-14 8.98713e-14 3.71222e-13 2.17172e-12 1.37517e-11 8.75094e-11 5.29852e-10 3.03255e-09 1.63539e-08 8.28843e-08 3.93603e-07 1.74544e-06 7.1998e-06 2.74995e-05 9.67362e-05 0.000311436 0.000910927 0.0024014 0.00566261 0.0118823 0.0221851 0.0371073 0.0563546 0.0790684 0.104314 0.131392 0.159886 0.189585 0.220395 0.252287 0.285267 0.319363 0.354618 0.391088 0.42884 0.467948 0.508496 0.550573 0.594268 0.639665 0.686823 0.735735 0.786237 0.837769 0.888729 0.93455 0.962358 0.956258 0.947096 0.938357 0.932391 0.929125 0.927637 0.926979 0.926633 0.926423 0.926285 0.92618 0.926161 0.926143 0.926126 0.926109 0.926092 0.926076 0.926059 0.926043 0.926026 0.926009 0.925992 0.925975 0.925957 0.92594 0.925922 0.925903 0.925885 0.925867 0.925848 0.925829 0.92581 0.925791 0.92577 0.92575 0.925728 0.925706 0.92568 0.925656 0.925623 0.925597 0.925554 0.925527 0.925466 0.925443 0.925345 0.925331 0.925154 0.925152 0.924782 0.924799 0.923899 0.923965 0.921532 0.921746 0.915024 0.915703 0.898196 0.900312 0.860158 0.866022 0.787597 0.777403 0.661652 0.585475 0.454339 0.332153 0.212658 0.11823 0.0561698 0.0234183 0.0090018 0.00332706 0.00120925 0.000436288 0.00015678 5.6165e-05 2.00581e-05 7.13831e-06 2.53012e-06 8.92608e-07 3.13237e-07 1.09268e-07 3.78646e-08 1.30267e-08 4.44632e-09 1.50488e-09 5.04589e-10 1.67793e-10 5.47124e-11 1.79307e-11 5.56926e-12 1.73383e-12 3.08128e-13 1.00114e-13 -4.25849e-14 -6.76081e-14 3.63908e-15 9.4149e-14 2.18309e-13 -1.47827e-13 -8.22089e-14 -5.81068e-14 -5.16252e-14 -2.81125e-15 -1.25169e-13 1.66447e-13 1.35309e-13 -1.04441e-13 2.39061e-14 0 0 -4.66515e-15 -7.05967e-15 -2.15613e-15 2.4039e-15 7.16417e-15 7.7083e-15 2.2479e-14 2.80539e-15 1.57122e-14 -2.96518e-15 9.10919e-17 1.76485e-14 -6.78268e-15 -5.72374e-14 7.17211e-15 6.59863e-15 -2.38214e-15 -4.10806e-14 1.39074e-14 -2.90924e-14 -4.69776e-14 -2.91287e-14 -4.12684e-14 -7.93738e-14 -3.64096e-14 -9.73759e-14 -2.53828e-15 -3.94104e-14 -3.03942e-14 -1.6509e-14 -6.04751e-14 -6.49512e-15 -1.84791e-14 -1.76077e-15 -3.76641e-14 -2.55743e-14 3.34812e-14 -9.63762e-15 4.1843e-14 -6.56585e-14 4.05661e-14 -2.02878e-14 -1.2229e-14 1.39378e-13 3.79364e-13 2.15115e-12 1.37398e-11 8.75367e-11 5.2981e-10 3.03251e-09 1.63539e-08 8.28843e-08 3.93603e-07 1.74544e-06 7.1998e-06 2.74995e-05 9.67362e-05 0.000311436 0.000910927 0.0024014 0.00566261 0.0118823 0.0221851 0.0371073 0.0563546 0.0790684 0.104314 0.131392 0.159886 0.189585 0.220395 0.252287 0.285267 0.319363 0.354618 0.391088 0.42884 0.467948 0.508496 0.550573 0.594268 0.639665 0.686823 0.735735 0.786237 0.837769 0.888729 0.93455 0.962358 0.956258 0.947096 0.938357 0.932391 0.929125 0.927637 0.926979 0.926633 0.926423 0.926285 0.92618 0.926161 0.926143 0.926126 0.926109 0.926092 0.926076 0.926059 0.926043 0.926026 0.926009 0.925992 0.925975 0.925957 0.92594 0.925922 0.925903 0.925885 0.925867 0.925848 0.925829 0.92581 0.925791 0.92577 0.92575 0.925728 0.925706 0.92568 0.925656 0.925623 0.925597 0.925554 0.925527 0.925466 0.925443 0.925345 0.925331 0.925154 0.925152 0.924782 0.924799 0.923899 0.923965 0.921532 0.921746 0.915024 0.915703 0.898196 0.900312 0.860158 0.866022 0.787597 0.777403 0.661652 0.585475 0.454339 0.332153 0.212658 0.11823 0.0561698 0.0234183 0.0090018 0.00332706 0.00120925 0.000436288 0.00015678 5.6165e-05 2.00581e-05 7.13831e-06 2.53012e-06 8.92608e-07 3.13237e-07 1.09268e-07 3.78645e-08 1.30268e-08 4.44631e-09 1.50485e-09 5.04475e-10 1.67919e-10 5.46631e-11 1.78029e-11 5.6637e-12 1.60187e-12 4.02837e-13 4.17455e-14 -1.22938e-14 -4.66008e-14 1.86169e-13 -1.73263e-14 8.57388e-14 -1.91294e-14 -5.65937e-14 7.4968e-14 6.28162e-15 5.40461e-14 -2.43682e-13 2.08345e-13 1.28766e-15 -1.51727e-13 2.22903e-14 0
				</DataArray>
				<DataArray Name="VitesseY" type="Float32" format="ascii">