<?xml version="1.0"?>
<VTKFile type="PolyData">
	<PolyData>
		<Piece NumberOfPoints="1206" NumberOfPolys="1000">
			<Points>
				<DataArray type="Float32" NumberOfComponents="3" format="ascii">
 0 0 0 0.02 0 0 0.04 0 0 0.06 0 0 0.08 0 0 0.1 0 0 0 0.005 0 0.02 0.005 0 0.04 0.005 0 0.06 0.005 0 0.08 0.005 0 0.1 0.005 0 0 0.01 0 0.02 0.01 0 0.04 0.01 0 0.06 0.01 0 0.08 0.01 0 0.1 0.01 0 0 0.015 0 0.02 0.015 0 0.04 0.015 0 0.06 0.015 0 0.08 0.015 0 0.1 0.015 0 0 0.02 0 0.02 0.02 0 0.04 0.02 0 0.06 0.02 0 0.08 0.02 0 0.1 0.02 0 0 0.025 0 0.02 0.025 0 0.04 0.025 0 0.06 0.025 0 0.08 0.025 0 0.1 0.025 0 0 0.03 0 0.02 0.03 0 0.04 0.03 0 0.06 0.03 0 0.08 0.03 0 0.1 0.03 0 0 0.035 0 0.02 0.035 0 0.04 0.035 0 0.06 0.035 0 0.08 0.035 0 0.1 0.035 0 0 0.04 0 0.02 0.04 0 0.04 0.04 0 0.06 0.04 0 0.08 0.04 0 0.1 0.04 0 0 0.045 0 0.02 0.045 0 0.04 0.045 0 0.06 0.045 0 0.08 0.045 0 0.1 0.045 0 0 0.05 0 0.02 0.05 0 0.04 0.05 0 0.06 0.05 0 0.08 0.05 0 0.1 0.05 0 0 0.055 0 0.02 0.055 0 0.04 0.055 0 0.06 0.055 0 0.08 0.055 0 0.1 0.055 0 0 0.06 0 0.02 0.06 0 0.04 0.06 0 0.06 0.06 0 0.08 0.06 0 0.1 0.06 0 0 0.065 0 0.02 0.065 0 0.04 0.065 0 0.06 0.065 0 0.08 0.065 0 0.1 0.065 0 0 0.07 0 0.02 0.07 0 0.04 0.07 0 0.06 0.07 0 0.08 0.07 0 0.1 0.07 0 0 0.075 0 0.02 0.075 0 0.04 0.075 0 0.06 0.075 0 0.08 0.075 0 0.1 0.075 0 0 0.08 0 0.02 0.08 0 0.04 0.08 0 0.06 0.08 0 0.08 0.08 0 0.1 0.08 0 0 0.085 0 0.02 0.085 0 0.04 0.085 0 0.06 0.085 0 0.08 0.085 0 0.1 0.085 0 0 0.09 0 0.02 0.09 0 0.04 0.09 0 0.06 0.09 0 0.08 0.09 0 0.1 0.09 0 0 0.095 0 0.02 0.095 0 0.04 0.095 0 0.06 0.095 0 0.08 0.095 0 0.1 0.095 0 0 0.1 0 0.02 0.1 0 0.04 0.1 0 0.06 0.1 0 0.08 0.1 0 0.1 0.1 0 0 0.105 0 0.02 0.105 0 0.04 0.105 0 0.06 0.105 0 0.08 0.105 0 0.1 0.105 0 0 0.11 0 0.02 0.11 0 0.04 0.11 0 0.06 0.11 0 0.08 0.11 0 0.1 0.11 0 0 0.115 0 0.02 0.115 0 0.04 0.115 0 0.06 0.115 0 0.08 0.115 0 0.1 0.115 0 0 0.12 0 0.02 0.12 0 0.04 0.12 0 0.06 0.12 0 0.08 0.12 0 0.1 0.12 0 0 0.125 0 0.02 0.125 0 0.04 0.125 0 0.06 0.125 0 0.08 0.125 0 0.1 0.125 0 0 0.13 0 0.02 0.13 0 0.04 0.13 0 0.06 0.13 0 0.08 0.13 0 0.1 0.13 0 0 0.135 0 0.02 0.135 0 0.04 0.135 0 0.06 0.135 0 0.08 0.135 0 0.1 0.135 0 0 0.14 0 0.02 0.14 0 0.04 0.14 0 0.06 0.14 0 0.08 0.14 0 0.1 0.14 0 0 0.145 0 0.02 0.145 0 0.04 0.145 0 0.06 0.145 0 0.08 0.145 0 0.1 0.145 0 0 0.15 0 0.02 0.15 0 0.04 0.15 0 0.06 0.15 0 0.08 0.15 0 0.1 0.15 0 0 0.155 0 0.02 0.155 0 0.04 0.155 0 0.06 0.155 0 0.08 0.155 0 0.1 0.155 0 0 0.16 0 0.02 0.16 0 0.04 0.16 0 0.06 0.16 0 0.08 0.16 0 0.1 0.16 0 0 0.165 0 0.02 0.165 0 0.04 0.165 0 0.06 0.165 0 0.08 0.165 0 0.1 0.165 0 0 0.17 0 0.02 0.17 0 0.04 0.17 0 0.06 0.17 0 0.08 0.17 0 0.1 0.17 0 0 0.175 0 0.02 0.175 0 0.04 0.175 0 0.06 0.175 0 0.08 0.175 0 0.1 0.175 0 0 0.18 0 0.02 0.18 0 0.04 0.18 0 0.06 0.18 0 0.08 0.18 0 0.1 0.18 0 0 0.185 0 0.02 0.185 0 0.04 0.185 0 0.06 0.185 0 0.08 0.185 0 0.1 0.185 0 0 0.19 0 0.02 0.19 0 0.04 0.19 0 0.06 0.19 0 0.08 0.19 0 0.1 0.19 0 0 0.195 0 0.02 0.195 0 0.04 0.195 0 0.06 0.195 0 0.08 0.195 0 0.1 0.195 0 0 0.2 0 0.02 0.2 0 0.04 0.2 0 0.06 0.2 0 0.08 0.2 0 0.1 0.2 0 0 0.205 0 0.02 0.205 0 0.04 0.205 0 0.06 0.205 0 0.08 0.205 0 0.1 0.205 0 0 0.21 0 0.02 0.21 0 0.04 0.21 0 0.06 0.21 0 0.08 0.21 0 0.1 0.21 0 0 0.215 0 0.02 0.215 0 0.04 0.215 0 0.06 0.215 0 0.08 0.215 0 0.1 0.215 0 0 0.22 0 0.02 0.22 0 0.04 0.22 0 0.06 0.22 0 0.08 0.22 0 0.1 0.22 0 0 0.225 0 0.02 0.225 0 0.04 0.225 0 0.06 0.225 0 0.08 0.225 0 0.1 0.225 0 0 0.23 0 0.02 0.23 0 0.04 0.23 0 0.06 0.23 0 0.08 0.23 0 0.1 0.23 0 0 0.235 0 0.02 0.235 0 0.04 0.235 0 0.06 0.235 0 0.08 0.235 0 0.1 0.235 0 0 0.24 0 0.02 0.24 0 0.04 0.24 0 0.06 0.24 0 0.08 0.24 0 0.1 0.24 0 0 0.245 0 0.02 0.245 0 0.04 0.245 0 0.06 0.245 0 0.08 0.245 0 0.1 0.245 0 0 0.25 0 0.02 0.25 0 0.04 0.25 0 0.06 0.25 0 0.08 0.25 0 0.1 0.25 0 0 0.255 0 0.02 0.255 0 0.04 0.255 0 0.06 0.255 0 0.08 0.255 0 0.1 0.255 0 0 0.26 0 0.02 0.26 0 0.04 0.26 0 0.06 0.26 0 0.08 0.26 0 0.1 0.26 0 0 0.265 0 0.02 0.265 0 0.04 0.265 0 0.06 0.265 0 0.08 0.265 0 0.1 0.265 0 0 0.27 0 0.02 0.27 0 0.04 0.27 0 0.06 0.27 0 0.08 0.27 0 0.1 0.27 0 0 0.275 0 0.02 0.275 0 0.04 0.275 0 0.06 0.275 0 0.08 0.275 0 0.1 0.275 0 0 0.28 0 0.02 0.28 0 0.04 0.28 0 0.06 0.28 0 0.08 0.28 0 0.1 0.28 0 0 0.285 0 0.02 0.285 0 0.04 0.285 0 0.06 0.285 0 0.08 0.285 0 0.1 0.285 0 0 0.29 0 0.02 0.29 0 0.04 0.29 0 0.06 0.29 0 0.08 0.29 0 0.1 0.29 0 0 0.295 0 0.02 0.295 0 0.04 0.295 0 0.06 0.295 0 0.08 0.295 0 0.1 0.295 0 0 0.3 0 0.02 0.3 0 0.04 0.3 0 0.06 0.3 0 0.08 0.3 0 0.1 0.3 0 0 0.305 0 0.02 0.305 0 0.04 0.305 0 0.06 0.305 0 0.08 0.305 0 0.1 0.305 0 0 0.31 0 0.02 0.31 0 0.04 0.31 0 0.06 0.31 0 0.08 0.31 0 0.1 0.31 0 0 0.315 0 0.02 0.315 0 0.04 0.315 0 0.06 0.315 0 0.08 0.315 0 0.1 0.315 0 0 0.32 0 0.02 0.32 0 0.04 0.32 0 0.06 0.32 0 0.08 0.32 0 0.1 0.32 0 0 0.325 0 0.02 0.325 0 0.04 0.325 0 0.06 0.325 0 0.08 0.325 0 0.1 0.325 0 0 0.33 0 0.02 0.33 0 0.04 0.33 0 0.06 0.33 0 0.08 0.33 0 0.1 0.33 0 0 0.335 0 0.02 0.335 0 0.04 0.335 0 0.06 0.335 0 0.08 0.335 0 0.1 0.335 0 0 0.34 0 0.02 0.34 0 0.04 0.34 0 0.06 0.34 0 0.08 0.34 0 0.1 0.34 0 0 0.345 0 0.02 0.345 0 0.04 0.345 0 0.06 0.345 0 0.08 0.345 0 0.1 0.345 0 0 0.35 0 0.02 0.35 0 0.04 0.35 0 0.06 0.35 0 0.08 0.35 0 0.1 0.35 0 0 0.355 0 0.02 0.355 0 0.04 0.355 0 0.06 0.355 0 0.08 0.355 0 0.1 0.355 0 0 0.36 0 0.02 0.36 0 0.04 0.36 0 0.06 0.36 0 0.08 0.36 0 0.1 0.36 0 0 0.365 0 0.02 0.365 0 0.04 0.365 0 0.06 0.365 0 0.08 0.365 0 0.1 0.365 0 0 0.37 0 0.02 0.37 0 0.04 0.37 0 0.06 0.37 0 0.08 0.37 0 0.1 0.37 0 0 0.375 0 0.02 0.375 0 0.04 0.375 0 0.06 0.375 0 0.08 0.375 0 0.1 0.375 0 0 0.380001 0 0.02 0.380001 0 0.04 0.380001 0 0.06 0.380001 0 0.08 0.380001 0 0.1 0.380001 0 0 0.385004 0 0.02 0.385004 0 0.04 0.385004 0 0.06 0.385004 0 0.08 0.385004 0 0.1 0.385004 0 0 0.390015 0 0.02 0.390015 0 0.04 0.390015 0 0.06 0.390015 0 0.08 0.390015 0 0.1 0.390015 0 0 0.395049 0 0.02 0.395049 0 0.04 0.395049 0 0.06 0.395049 0 0.08 0.395049 0 0.1 0.395049 0 0 0.400132 0 0.02 0.400132 0 0.04 0.400132 0 0.06 0.400132 0 0.08 0.400132 0 0.1 0.400132 0 0 0.405309 0 0.02 0.405309 0 0.04 0.405309 0 0.06 0.405309 0 0.08 0.405309 0 0.1 0.405309 0 0 0.410631 0 0.02 0.410631 0 0.04 0.410631 0 0.06 0.410631 0 0.08 0.410631 0 0.1 0.410631 0 0 0.416147 0 0.02 0.416147 0 0.04 0.416147 0 0.06 0.416147 0 0.08 0.416147 0 0.1 0.416147 0 0 0.421902 0 0.02 0.421902 0 0.04 0.421902 0 0.06 0.421902 0 0.08 0.421902 0 0.1 0.421902 0 0 0.427936 0 0.02 0.427936 0 0.04 0.427936 0 0.06 0.427936 0 0.08 0.427936 0 0.1 0.427936 0 0 0.43429 0 0.02 0.43429 0 0.04 0.43429 0 0.06 0.43429 0 0.08 0.43429 0 0.1 0.43429 0 0 0.441008 0 0.02 0.441008 0 0.04 0.441008 0 0.06 0.441008 0 0.08 0.441008 0 0.1 0.441008 0 0 0.448143 0 0.02 0.448143 0 0.04 0.448143 0 0.06 0.448143 0 0.08 0.448143 0 0.1 0.448143 0 0 0.455759 0 0.02 0.455759 0 0.04 0.455759 0 0.06 0.455759 0 0.08 0.455759 0 0.1 0.455759 0 0 0.463931 0 0.02 0.463931 0 0.04 0.463931 0 0.06 0.463931 0 0.08 0.463931 0 0.1 0.463931 0 0 0.472752 0 0.02 0.472752 0 0.04 0.472752 0 0.06 0.472752 0 0.08 0.472752 0 0.1 0.472752 0 0 0.482335 0 0.02 0.482335 0 0.04 0.482335 0 0.06 0.482335 0 0.08 0.482335 0 0.1 0.482335 0 0 0.492799 0 0.02 0.492799 0 0.04 0.492799 0 0.06 0.492799 0 0.08 0.492799 0 0.1 0.492799 0 0 0.504229 0 0.02 0.504229 0 0.04 0.504229 0 0.06 0.504229 0 0.08 0.504229 0 0.1 0.504229 0 0 0.516447 0 0.02 0.516447 0 0.04 0.516447 0 0.06 0.516447 0 0.08 0.516447 0 0.1 0.516447 0 0 0.528706 0 0.02 0.528706 0 0.04 0.528706 0 0.06 0.528706 0 0.08 0.528706 0 0.1 0.528706 0 0 0.540734 0 0.02 0.540734 0 0.04 0.540734 0 0.06 0.540734 0 0.08 0.540734 0 0.1 0.540734 0 0 0.552593 0 0.02 0.552593 0 0.04 0.552593 0 0.06 0.552593 0 0.08 0.552593 0 0.1 0.552593 0 0 0.564382 0 0.02 0.564382 0 0.04 0.564382 0 0.06 0.564382 0 0.08 0.564382 0 0.1 0.564382 0 0 0.576174 0 0.02 0.576174 0 0.04 0.576174 0 0.06 0.576174 0 0.08 0.576174 0 0.1 0.576174 0 0 0.578793 0 0.02 0.578793 0 0.04 0.578793 0 0.06 0.578793 0 0.08 0.578793 0 0.1 0.578793 0 0 0.581338 0 0.02 0.581338 0 0.04 0.581338 0 0.06 0.581338 0 0.08 0.581338 0 0.1 0.581338 0 0 0.583835 0 0.02 0.583835 0 0.04 0.583835 0 0.06 0.583835 0 0.08 0.583835 0 0.1 0.583835 0 0 0.586301 0 0.02 0.586301 0 0.04 0.586301 0 0.06 0.586301 0 0.08 0.586301 0 0.1 0.586301 0 0 0.588744 0 0.02 0.588744 0 0.04 0.588744 0 0.06 0.588744 0 0.08 0.588744 0 0.1 0.588744 0 0 0.591171 0 0.02 0.591171 0 0.04 0.591171 0 0.06 0.591171 0 0.08 0.591171 0 0.1 0.591171 0 0 0.593586 0 0.02 0.593586 0 0.04 0.593586 0 0.06 0.593586 0 0.08 0.593586 0 0.1 0.593586 0 0 0.595992 0 0.02 0.595992 0 0.04 0.595992 0 0.06 0.595992 0 0.08 0.595992 0 0.1 0.595992 0 0 0.598391 0 0.02 0.598391 0 0.04 0.598391 0 0.06 0.598391 0 0.08 0.598391 0 0.1 0.598391 0 0 0.600784 0 0.02 0.600784 0 0.04 0.600784 0 0.06 0.600784 0 0.08 0.600784 0 0.1 0.600784 0 0 0.603173 0 0.02 0.603173 0 0.04 0.603173 0 0.06 0.603173 0 0.08 0.603173 0 0.1 0.603173 0 0 0.605559 0 0.02 0.605559 0 0.04 0.605559 0 0.06 0.605559 0 0.08 0.605559 0 0.1 0.605559 0 0 0.607942 0 0.02 0.607942 0 0.04 0.607942 0 0.06 0.607942 0 0.08 0.607942 0 0.1 0.607942 0 0 0.610322 0 0.02 0.610322 0 0.04 0.610322 0 0.06 0.610322 0 0.08 0.610322 0 0.1 0.610322 0 0 0.612699 0 0.02 0.612699 0 0.04 0.612699 0 0.06 0.612699 0 0.08 0.612699 0 0.1 0.612699 0 0 0.615074 0 0.02 0.615074 0 0.04 0.615074 0 0.06 0.615074 0 0.08 0.615074 0 0.1 0.615074 0 0 0.617449 0 0.02 0.617449 0 0.04 0.617449 0 0.06 0.617449 0 0.08 0.617449 0 0.1 0.617449 0 0 0.619825 0 0.02 0.619825 0 0.04 0.619825 0 0.06 0.619825 0 0.08 0.619825 0 0.1 0.619825 0 0 0.622204 0 0.02 0.622204 0 0.04 0.622204 0 0.06 0.622204 0 0.08 0.622204 0 0.1 0.622204 0 0 0.624588 0 0.02 0.624588 0 0.04 0.624588 0 0.06 0.624588 0 0.08 0.624588 0 0.1 0.624588 0 0 0.626988 0 0.02 0.626988 0 0.04 0.626988 0 0.06 0.626988 0 0.08 0.626988 0 0.1 0.626988 0 0 0.629403 0 0.02 0.629403 0 0.04 0.629403 0 0.06 0.629403 0 0.08 0.629403 0 0.1 0.629403 0 0 0.631859 0 0.02 0.631859 0 0.04 0.631859 0 0.06 0.631859 0 0.08 0.631859 0 0.1 0.631859 0 0 0.634352 0 0.02 0.634352 0 0.04 0
[...]
			<PointData Scalars="VitesseX">
				<DataArray Name="VitesseX" type="Float32" format="ascii">
 0 9.17245e-17 -2.24206e-15 -4.17749e-15 -2.07157e-15 0 0 2.27218e-16 -2.08211e-15 -4.44458e-15 -1.96576e-15 0 0 6.60224e-16 -2.14075e-15 -4.47606e-15 -1.54984e-15 0 0 6.06318e-16 -2.09129e-15 -3.95338e-15 -1.7476e-15 0 0 -2.42582e-16 -1.95617e-15 -4.0062e-15 -1.68831e-15 0 0 -1.11021e-15 -2.80644e-15 -4.1207e-15 -5.45014e-16 0 0 -1.61158e-15 -4.20195e-15 -5.11067e-15 9.0115e-16 0 0 -2.42088e-15 -5.13216e-15 -5.78317e-15 -8.51981e-16 0 0 -3.17409e-15 -5.61761e-15 -4.9882e-15 -4.3432e-15 0 0 -3.67826e-15 -6.61877e-15 -5.78104e-15 -3.5135e-15 0 0 -4.02546e-15 -8.0005e-15 -6.82197e-15 -1.64742e-15 0 0 -4.90782e-15 -9.22739e-15 -4.93349e-15 -2.01798e-15 0 0 -6.58019e-15 -8.00643e-15 -3.26373e-15 -3.07916e-15 0 0 -7.88726e-15 -5.89033e-15 -3.86037e-15 -5.28952e-15 0 0 -7.78317e-15 -7.27782e-15 -1.7158e-15 -7.94173e-15 0 0 -6.26295e-15 -1.01027e-14 1.31445e-15 -1.06612e-14 0 0 -8.68942e-15 -6.17281e-15 -4.47784e-15 -9.30385e-15 0 0 -9.31735e-15 -4.43816e-15 -6.4029e-15 -9.12842e-15 0 0 -7.78932e-15 -6.37886e-15 -4.58986e-15 -1.16743e-14 0 0 -7.80393e-15 -5.95409e-15 -7.66374e-15 -1.11556e-14 0 0 -6.07385e-15 -8.28339e-15 -8.91674e-15 -9.95339e-15 0 0 -9.53815e-15 -7.56311e-15 -7.84033e-15 -1.14342e-14 0 0 -1.07262e-14 -1.08887e-14 -7.86044e-15 -1.01463e-14 0 0 -8.76595e-15 -1.30081e-14 -1.34133e-14 -8.82436e-15 0 0 -8.99523e-15 -1.16677e-14 -1.98692e-14 -8.66289e-15 0 0 -8.52439e-15 -1.19773e-14 -2.58752e-14 -9.94008e-15 0 0 -9.58329e-15 -1.01178e-14 -2.74209e-14 -1.65713e-14 0 0 -1.03908e-14 -9.17147e-15 -3.02878e-14 -1.55656e-14 0 0 -1.02806e-14 -1.16374e-14 -2.69589e-14 -1.29943e-14 0 0 -1.41535e-14 -7.79392e-15 -2.73886e-14 -1.26723e-14 0 0 -1.20732e-14 -7.46833e-15 -2.8544e-14 -1.76929e-14 0 0 -6.53248e-15 -1.34582e-14 -2.40115e-14 -1.8422e-14 0 0 -9.83205e-15 -1.18143e-14 -1.79729e-14 -2.08374e-14 0 0 -1.15936e-14 -7.53491e-15 -1.63282e-14 -2.20015e-14 0 0 -1.01205e-14 -4.89597e-15 -2.31682e-14 -4.55999e-15 0 0 -6.24853e-15 -1.6713e-14 -1.41959e-14 7.96513e-15 0 0 -7.99095e-15 -1.46148e-14 -1.33264e-14 1.19105e-14 0 0 -6.64051e-15 -6.76291e-15 -1.30311e-14 3.32664e-15 0 0 2.8853e-16 -1.59405e-14 -1.78619e-15 -5.76339e-15 0 0 -1.08436e-16 -1.82339e-14 -4.42003e-15 1.03535e-14 0 0 -8.12024e-15 -1.12234e-14 -9.82754e-15 1.61523e-14 0 0 -1.00924e-14 -9.97842e-15 -3.04665e-15 5.55144e-15 0 0 -8.42622e-15 -9.12391e-15 7.2795e-15 -1.04609e-15 0 0 -7.62528e-15 -9.43274e-15 8.45894e-15 -1.60091e-15 0 0 -2.10149e-15 -1.40027e-14 -1.03677e-15 6.021e-15 0 0 -5.26207e-15 -1.14903e-14 -9.32309e-15 1.11157e-14 0 0 -6.01139e-15 -1.34605e-14 -1.20992e-14 6.90388e-15 0 0 -9.14722e-15 -1.52305e-14 -1.21106e-14 -5.92828e-15 0 0 -1.34607e-14 -1.74197e-14 -1.51513e-14 -2.23481e-14 0 0 -7.54464e-15 -2.95692e-14 -2.27598e-14 -3.34979e-14 0 0 -1.41961e-14 -2.06496e-14 -4.53294e-14 -2.72869e-14 0 0 -1.71606e-14 -1.62114e-14 -5.82775e-14 -2.04409e-14 0 0 -9.19777e-15 -2.84727e-14 -4.94298e-14 -2.2913e-14 0 0 -1.21438e-14 -2.67118e-14 -4.85194e-14 -1.51651e-14 0 0 -1.8907e-14 -2.73133e-14 -4.52876e-14 -3.24932e-15 0 0 -1.89812e-14 -2.97561e-14 -3.19906e-14 -9.46818e-15 0 0 -8.66307e-15 -3.89228e-14 -2.0333e-14 -1.66732e-14 0 0 -7.39266e-15 -4.21813e-14 -2.24146e-14 -4.1292e-15 0 0 -5.06337e-15 -4.73348e-14 -1.20194e-14 -2.53461e-15 0 0 -8.33355e-15 -3.79924e-14 -3.97091e-15 -7.76555e-15 0 0 -3.62291e-15 -2.75969e-14 -1.48956e-14 -6.26711e-16 0 0 7.57101e-15 -2.05219e-14 -3.2719e-14 9.31598e-15 0 0 2.53045e-15 -1.27798e-14 -3.52719e-14 2.29261e-15 0 0 5.11961e-15 -2.06046e-14 -2.1412e-14 -2.1338e-14 0 0 5.25819e-15 -1.88548e-14 -1.04812e-15 -3.99596e-14 0 0 -3.62786e-15 -2.76694e-17 1.20112e-14 -4.46101e-14 0 0 -6.78414e-15 2.60269e-14 5.25643e-15 -4.13155e-14 0 0 7.60075e-15 2.5378e-14 1.87935e-14 -4.48572e-14 0 0 4.64411e-14 1.13758e-14 2.53904e-14 -3.85671e-14 0 0 5.12244e-14 3.24418e-14 7.59374e-15 -1.85157e-14 0 0 2.58569e-14 4.39203e-14 1.88982e-14 -1.59343e-14 0 0 2.67632e-14 4.12052e-14 1.59296e-14 -2.45032e-14 0 0 2.67246e-14 5.31429e-14 -3.93284e-16 -2.63701e-14 0 0 2.03341e-14 5.03658e-14 7.63097e-15 -2.98077e-14 0 0 3.10985e-14 2.84054e-14 1.642e-14 -2.73411e-14 0 0 3.71794e-14 1.27679e-14 2.48848e-14 -2.61997e-14 0 0 1.75099e-14 2.19551e-14 3.29499e-14 -3.35695e-14 0 0 6.22288e-16 2.99934e-14 3.75024e-14 -2.72409e-14 0 0 -1.26437e-14 2.55088e-14 3.87638e-14 -2.14091e-14 0 0 -1.49837e-14 1.87213e-14 3.25787e-14 -1.42832e-14 0 0 4.21684e-15 1.70264e-14 7.90682e-15 1.65533e-15 0 0 6.36741e-15 1.81821e-14 3.25998e-16 3.80052e-15 0 0 -1.33003e-14 1.78275e-14 1.57323e-14 -1.05086e-15 0 0 -1.43223e-14 2.16374e-14 6.63033e-15 2.88306e-15 0 0 -1.15676e-14 2.31361e-14 -7.69199e-15 5.61588e-15 0 0 -1.52337e-15 1.30478e-14 -8.46996e-15 1.05368e-14 0 0 1.02402e-15 -4.36378e-15 -7.7096e-15 1.18828e-14 0 0 -1.29877e-14 -9.5364e-15 6.02839e-15 1.09537e-15 0 0 -1.59333e-14 3.87152e-15 1.11224e-14 -2.34528e-15 0 0 -8.09971e-15 8.96258e-15 -6.12578e-15 -3.15126e-15 0 0 1.21209e-14 -2.52379e-15 -2.4109e-15 5.97875e-15 0 0 2.21816e-14 -7.81768e-15 1.90153e-14 -1.77573e-14 0 0 5.34154e-15 -5.1915e-15 5.04395e-15 -2.09439e-14 0 0 -9.58013e-15 -1.6074e-15 -3.97165e-15 -1.03159e-14 0 0 1.99929e-14 7.9814e-15 -1.27041e-15 -9.36746e-15 0 0 4.56335e-14 3.42737e-14 1.99301e-14 4.12366e-14 0 0 4.72167e-14 5.74641e-14 6.04522e-14 5.56733e-14 0 0 1.0635e-14 2.59687e-14 2.06655e-14 1.36829e-14 0 0 -7.42619e-14 -1.19655e-13 -1.22601e-13 -7.94258e-14 0 0 -1.74158e-13 -2.88367e-13 -2.70543e-13 -1.66933e-13 0 0 -2.40355e-13 -3.64445e-13 -3.55281e-13 -2.04872e-13 0 0 -3.60009e-13 -5.20271e-13 -5.70631e-13 -3.07699e-13 0 0 -3.71027e-13 -4.67463e-13 -5.56744e-13 -2.60633e-13 0 0 -3.51144e-13 -4.90665e-13 -5.34403e-13 -2.52214e-13 0 0 -3.54889e-13 -5.13963e-13 -5.10326e-13 -2.80894e-13 0 0 -3.53412e-13 -5.32752e-13 -5.2214e-13 -2.65139e-13 0 0 -3.47136e-13 -5.43445e-13 -5.44468e-13 -2.64972e-13 0 0 -3.50415e-13 -5.18883e-13 -5.63847e-13 -2.27205e-13 0 0 -3.12586e-13 -4.82395e-13 -4.71583e-13 -1.98803e-13 0 0 -2.18719e-13 -3.26148e-13 -3.27588e-13 -1.4019e-13 0 0 -8.94872e-14 -1.08421e-13 -1.33212e-13 -5.62054e-14 0 0 1.83771e-14 3.82789e-14 5.56159e-14 1.29686e-14 0 0 6.13537e-14 1.59279e-13 9.17766e-14 5.7847e-14 0 0 5.30475e-14 1.68677e-13 4.54277e-14 7.82997e-14 0 0 7.88297e-14 6.26757e-14 4.80566e-14 3.43017e-14 0 0 1.0367e-13 -6.81796e-14 5.11353e-14 -3.97237e-14 0 0 6.01956e-14 -1.25664e-13 -4.5515e-14 -5.85427e-14 0 0 -1.55525e-15 -1.50178e-13 -9.82183e-14 -7.43567e-14 0 0 -1.26001e-14 -2.09344e-13 -1.14086e-13 -1.01234e-13 0 0 -5.36184e-14 -1.76732e-13 -2.14829e-13 -8.5661e-14 0 0 -1.10079e-13 -1.48405e-13 -2.36781e-13 -7.80745e-14 0 0 -1.40989e-13 -1.79699e-13 -1.93528e-13 -2.93354e-14 0 0 -1.3628e-13 -1.73132e-13 -2.70312e-13 9.11908e-14 0 0 -7.52223e-14 -2.08899e-13 -3.62418e-13 1.08425e-13 0 0 -5.11263e-14 -2.62084e-13 -3.21528e-13 6.89256e-14 0 0 -7.95914e-14 -2.37113e-13 -2.24569e-13 -2.00199e-14 0 0 -1.2921e-13 -2.17952e-13 -1.00034e-13 -4.72554e-14 0 0 -1.10825e-13 -1.47725e-13 -9.36726e-14 7.0563e-15 0 0 -6.49401e-14 -5.26388e-14 -6.62722e-14 -2.87437e-14 0 0 -2.96364e-14 -5.54275e-14 1.63701e-14 -3.76307e-14 0 0 -4.11803e-15 -3.21962e-14 5.16107e-14 -1.34797e-14 0 0 9.38775e-15 4.02531e-15 6.15309e-14 -1.89092e-14 0 0 2.02369e-14 3.18173e-14 2.62041e-14 1.0755e-14 0 0 1.54183e-14 1.9666e-14 1.42354e-14 1.00219e-14 0 0 1.49933e-14 2.68732e-14 7.29582e-15 -1.71036e-14 0 0 2.03572e-14 3.38519e-14 -8.24326e-15 1.67391e-14 0 0 1.7714e-14 2.69148e-14 8.93547e-15 -1.62537e-14 0 0 1.79229e-14 3.27266e-14 1.45196e-14 -7.83023e-15 0 0 3.67586e-14 1.41851e-14 2.81557e-14 1.56259e-14 0 0 4.1688e-14 1.39574e-14 1.9224e-14 1.34682e-14 0 0 3.62758e-14 4.75391e-14 3.70095e-15 1.00203e-14 0 0 2.90697e-14 6.58077e-14 7.92515e-15 -8.29573e-15 0 0 1.8455e-14 4.9507e-14 2.45948e-14 -3.62686e-15 0 0 1.91215e-14 3.0681e-14 4.96233e-14 -2.21247e-14 0 0 1.62843e-14 2.4157e-14 5.70835e-14 -1.6954e-14 0 0 1.26919e-14 1.00999e-14 4.1965e-14 4.48742e-16 0 0 1.99797e-14 -1.95713e-15 7.48108e-15 3.66304e-14 0 0 3.11495e-15 1.08094e-14 -2.51213e-16 3.77708e-14 0 0 -7.00471e-15 8.62518e-15 4.64484e-15 -3.73847e-15 0 0 4.11197e-15 -2.45786e-14 -8.03105e-15 1.0026e-14 0 0 -1.10928e-15 -2.44525e-14 -6.44459e-14 1.99833e-14 0 0 -8.3426e-15 -2.83757e-14 -7.47024e-14 -2.28756e-14 0 0 -2.07067e-14 -3.27627e-14 -6.69682e-14 -5.39672e-14 0 0 -6.0824e-15 -5.71197e-14 -9.05015e-14 -5.61479e-14 0 0 1.16891e-14 -8.23772e-14 -1.16436e-13 -4.57866e-14 0 0 -9.13882e-16 -8.93459e-14 -1.29833e-13 -3.07398e-14 0 0 -1.9661e-14 -8.31741e-14 -1.20962e-13 -2.75035e-14 0 0 -5.23215e-14 -5.28223e-14 -1.26388e-13 -2.19823e-14 0 0 -5.25492e-14 -6.47001e-14 -9.12317e-14 -5.20002e-14 0 0 -5.12947e-14 -7.21445e-14 -3.36619e-14 -9.42181e-14 0 0 -5.98722e-14 -6.03083e-14 -7.36151e-14 -4.13962e-14 0 0 -7.33617e-14 -5.20133e-14 -1.12182e-13 9.36818e-15 0 0 -8.8908e-14 -7.95086e-14 -5.37512e-14 3.09946e-14 0 0 -8.44221e-14 -1.03491e-13 7.98432e-15 8.87846e-15 0 0 -8.34219e-14 -7.52446e-14 1.32514e-15 -4.5661e-14 0 0 -8.65878e-14 -4.95643e-14 -3.63214e-14 -1.80704e-14 0 0 -8.60635e-14 -6.08483e-14 -3.09052e-14 1.23712e-14 0 0 -6.78421e-14 -7.63257e-14 -1.32637e-14 -3.03748e-15 0 0 -8.61285e-14 -3.0915e-14 -4.10606e-14 -1.1441e-14 0 0 -8.645e-14 -4.49941e-14 -4.5038e-14 5.04911e-14 0 0 -4.21208e-14 -1.2633e-13 2.26311e-14 4.88533e-14 0 0 -4.19482e-14 -9.6491e-14 -6.42613e-15 2.06648e-14 0 0 -5.02473e-14 -5.43655e-14 -5.55664e-14 2.68389e-14 0 0 -3.70899e-14 -9.21375e-14 -1.15787e-14 -3.80481e-14 0 0 -4.13113e-14 -9.7361e-14 2.72315e-14 -1.15006e-13 0 0 -5.85151e-14 -7.42559e-14 1.75435e-14 -1.35452e-13 0 0 -6.27712e-14 -5.58635e-14 -1.32574e-14 -1.14288e-13 0 0 -6.92463e-14 -3.47574e-14 -6.23081e-14 -7.41156e-14 0 0 -5.69957e-14 -8.67095e-14 -5.99905e-14 -6.07687e-14 0 0 -2.10234e-14 -1.30596e-13 -4.99751e-14 -4.52216e-14 0 0 5.60918e-15 -1.21699e-13 -6.49467e-14 -3.1128e-14 0 0 -2.193e-14 -8.85349e-14 -5.66052e-14 -4.50895e-14 0 0 -5.81478e-14 -7.58816e-14 -3.88044e-14 -4.67681e-14 0 0 -1.69571e-14 -1.38462e-13 -2.06337e-14 -1.46305e-14 0 0 -1.61259e-14 -1.15738e-13 -5.8868e-14 -8.43653e-15 0 0 -4.79311e-14 -5.50219e-14 -9.70961e-14 -4.92062e-14 0 0 -5.07106e-14 -2.46741e-14 -1.19065e-13 -1.17626e-13 0 0 -5.25258e-14 -2.60974e-14 -1.2375e-13 -1.68473e-13 0 0 -3.86324e-14 -6.27965e-14 -1.02425e-13 -1.83731e-13 0 0 -4.08616e-14 -5.85199e-14 -1.38213e-13 -1.24994e-13 0 0 -2.8993e-14 -8.21334e-14 -1.52723e-13 -7.15486e-14 0 0 -3.98904e-14 -9.71615e-14 -1.13728e-13 -6.3129e-14 0 0 -8.72949e-14 -4.43348e-14 -1.39238e-13 2.18502e-16 0 0 -1.01462e-13 -4.99782e-14 -1.07349e-13 -1.54602e-14 0 0 -1.00571e-13 -9.98214e-14 -3.93204e-14 -4.94249e-14 0 0 -7.53136e-14 -1.41807e-13 -3.52745e-14 -1.21904e-14 0 0 -6.28566e-14 -1.70732e-13 -4.75938e-14 8.08032e-15 0 0 -8.29613e-14 -1.44158e-13 -1.06479e-13 -1.57865e-14 0 0 -8.86289e-14 -1.27087e-13 -1.59286e-13 -2.78441e-14 0 0 -8.19615e-14 -1.67198e-13 -1.41096e-13 -4.06207e-14 0 0 -7.532e-14 -2.01796e-13 -1.17227e-13 -6.22568e-14 0
				</DataArray>
				<DataArray Name="VitesseY" type="Float32" format="ascii">