<?xml version="1.0"?>
<VTKFile type="PolyData">
	<PolyData>
		<Piece NumberOfPoints="1206" NumberOfPolys="1000">
			<Points>
				<DataArray type="Float32" NumberOfComponents="3" format="ascii">
 0 0 0 0.02 0 0 0.04 0 0 0.06 0 0 0.08 0 0 0.1 0 0 0 0.005 0 0.02 0.005 0 0.04 0.005 0 0.06 0.005 0 0.08 0.005 0 0.1 0.005 0 0 0.01 0 0.02 0.01 0 0.04 0.01 0 0.06 0.01 0 0.08 0.01 0 0.1 0.01 0 0 0.015 0 0.02 0.015 0 0.04 0.015 0 0.06 0.015 0 0.08 0.015 0 0.1 0.015 0 0 0.02 0 0.02 0.02 0 0.04 0.02 0 0.06 0.02 0 0.08 0.02 0 0.1 0.02 0 0 0.025 0 0.02 0.025 0 0.04 0.025 0 0.06 0.025 0 0.08 0.025 0 0.1 0.025 0 0 0.03 0 0.02 0.03 0 0.04 0.03 0 0.06 0.03 0 0.08 0.03 0 0.1 0.03 0 0 0.035 0 0.02 0.035 0 0.04 0.035 0 0.06 0.035 0 0.08 0.035 0 0.1 0.035 0 0 0.04 0 0.02 0.04 0 0.04 0.04 0 0.06 0.04 0 0.08 0.04 0 0.1 0.04 0 0 0.045 0 0.02 0.045 0 0.04 0.045 0 0.06 0.045 0 0.08 0.045 0 0.1 0.045 0 0 0.05 0 0.02 0.05 0 0.04 0.05 0 0.06 0.05 0 0.08 0.05 0 0.1 0.05 0 0 0.055 0 0.02 0.055 0 0.04 0.055 0 0.06 0.055 0 0.08 0.055 0 0.1 0.055 0 0 0.06 0 0.02 0.06 0 0.04 0.06 0 0.06 0.06 0 0.08 0.06 0 0.1 0.06 0 0 0.065 0 0.02 0.065 0 0.04 0.065 0 0.06 0.065 0 0.08 0.065 0 0.1 0.065 0 0 0.07 0 0.02 0.07 0 0.04 0.07 0 0.06 0.07 0 0.08 0.07 0 0.1 0.07 0 0 0.075 0 0.02 0.075 0 0.04 0.075 0 0.06 0.075 0 0.08 0.075 0 0.1 0.075 0 0 0.08 0 0.02 0.08 0 0.04 0.08 0 0.06 0.08 0 0.08 0.08 0 0.1 0.08 0 0 0.085 0 0.02 0.085 0 0.04 0.085 0 0.06 0.085 0 0.08 0.085 0 0.1 0.085 0 0 0.09 0 0.02 0.09 0 0.04 0.09 0 0.06 0.09 0 0.08 0.09 0 0.1 0.09 0 0 0.095 0 0.02 0.095 0 0.04 0.095 0 0.06 0.095 0 0.08 0.095 0 0.1 0.095 0 0 0.1 0 0.02 0.1 0 0.04 0.1 0 0.06 0.1 0 0.08 0.1 0 0.1 0.1 0 0 0.105 0 0.02 0.105 0 0.04 0.105 0 0.06 0.105 0 0.08 0.105 0 0.1 0.105 0 0 0.11 0 0.02 0.11 0 0.04 0.11 0 0.06 0.11 0 0.08 0.11 0 0.1 0.11 0 0 0.115 0 0.02 0.115 0 0.04 0.115 0 0.06 0.115 0 0.08 0.115 0 0.1 0.115 0 0 0.12 0 0.02 0.12 0 0.04 0.12 0 0.06 0.12 0 0.08 0.12 0 0.1 0.12 0 0 0.125 0 0.02 0.125 0 0.04 0.125 0 0.06 0.125 0 0.08 0.125 0 0.1 0.125 0 0 0.13 0 0.02 0.13 0 0.04 0.13 0 0.06 0.13 0 0.08 0.13 0 0.1 0.13 0 0 0.135 0 0.02 0.135 0 0.04 0.135 0 0.06 0.135 0 0.08 0.135 0 0.1 0.135 0 0 0.14 0 0.02 0.14 0 0.04 0.14 0 0.06 0.14 0 0.08 0.14 0 0.1 0.14 0 0 0.145 0 0.02 0.145 0 0.04 0.145 0 0.06 0.145 0 0.08 0.145 0 0.1 0.145 0 0 0.15 0 0.02 0.15 0 0.04 0.15 0 0.06 0.15 0 0.08 0.15 0 0.1 0.15 0 0 0.155 0 0.02 0.155 0 0.04 0.155 0 0.06 0.155 0 0.08 0.155 0 0.1 0.155 0 0 0.16 0 0.02 0.16 0 0.04 0.16 0 0.06 0.16 0 0.08 0.16 0 0.1 0.16 0 0 0.165 0 0.02 0.165 0 0.04 0.165 0 0.06 0.165 0 0.08 0.165 0 0.1 0.165 0 0 0.17 0 0.02 0.17 0 0.04 0.17 0 0.06 0.17 0 0.08 0.17 0 0.1 0.17 0 0 0.175 0 0.02 0.175 0 0.04 0.175 0 0.06 0.175 0 0.08 0.175 0 0.1 0.175 0 0 0.18 0 0.02 0.18 0 0.04 0.18 0 0.06 0.18 0 0.08 0.18 0 0.1 0.18 0 0 0.185 0 0.02 0.185 0 0.04 0.185 0 0.06 0.185 0 0.08 0.185 0 0.1 0.185 0 0 0.19 0 0.02 0.19 0 0.04 0.19 0 0.06 0.19 0 0.08 0.19 0 0.1 0.19 0 0 0.195 0 0.02 0.195 0 0.04 0.195 0 0.06 0.195 0 0.08 0.195 0 0.1 0.195 0 0 0.2 0 0.02 0.2 0 0.04 0.2 0 0.06 0.2 0 0.08 0.2 0 0.1 0.2 0 0 0.205 0 0.02 0.205 0 0.04 0.205 0 0.06 0.205 0 0.08 0.205 0 0.1 0.205 0 0 0.21 0 0.02 0.21 0 0.04 0.21 0 0.06 0.21 0 0.08 0.21 0 0.1 0.21 0 0 0.215 0 0.02 0.215 0 0.04 0.215 0 0.06 0.215 0 0.08 0.215 0 0.1 0.215 0 0 0.22 0 0.02 0.22 0 0.04 0.22 0 0.06 0.22 0 0.08 0.22 0 0.1 0.22 0 0 0.225 0 0.02 0.225 0 0.04 0.225 0 0.06 0.225 0 0.08 0.225 0 0.1 0.225 0 0 0.23 0 0.02 0.23 0 0.04 0.23 0 0.06 0.23 0 0.08 0.23 0 0.1 0.23 0 0 0.235 0 0.02 0.235 0 0.04 0.235 0 0.06 0.235 0 0.08 0.235 0 0.1 0.235 0 0 0.240001 0 0.02 0.240001 0 0.04 0.240001 0 0.06 0.240001 0 0.08 0.240001 0 0.1 0.240001 0 0 0.245004 0 0.02 0.245004 0 0.04 0.245004 0 0.06 0.245004 0 0.08 0.245004 0 0.1 0.245004 0 0 0.250011 0 0.02 0.250011 0 0.04 0.250011 0 0.06 0.250011 0 0.08 0.250011 0 0.1 0.250011 0 0 0.255026 0 0.02 0.255026 0 0.04 0.255026 0 0.06 0.255026 0 0.08 0.255026 0 0.1 0.255026 0 0 0.260057 0 0.02 0.260057 0 0.04 0.260057 0 0.06 0.260057 0 0.08 0.260057 0 0.1 0.260057 0 0 0.265116 0 0.02 0.265116 0 0.04 0.265116 0 0.06 0.265116 0 0.08 0.265116 0 0.1 0.265116 0 0 0.270217 0 0.02 0.270217 0 0.04 0.270217 0 0.06 0.270217 0 0.08 0.270217 0 0.1 0.270217 0 0 0.275374 0 0.02 0.275374 0 0.04 0.275374 0 0.06 0.275374 0 0.08 0.275374 0 0.1 0.275374 0 0 0.280602 0 0.02 0.280602 0 0.04 0.280602 0 0.06 0.280602 0 0.08 0.280602 0 0.1 0.280602 0 0 0.285912 0 0.02 0.285912 0 0.04 0.285912 0 0.06 0.285912 0 0.08 0.285912 0 0.1 0.285912 0 0 0.291313 0 0.02 0.291313 0 0.04 0.291313 0 0.06 0.291313 0 0.08 0.291313 0 0.1 0.291313 0 0 0.296813 0 0.02 0.296813 0 0.04 0.296813 0 0.06 0.296813 0 0.08 0.296813 0 0.1 0.296813 0 0 0.302418 0 0.02 0.302418 0 0.04 0.302418 0 0.06 0.302418 0 0.08 0.302418 0 0.1 0.302418 0 0 0.308135 0 0.02 0.308135 0 0.04 0.308135 0 0.06 0.308135 0 0.08 0.308135 0 0.1 0.308135 0 0 0.31397 0 0.02 0.31397 0 0.04 0.31397 0 0.06 0.31397 0 0.08 0.31397 0 0.1 0.31397 0 0 0.31993 0 0.02 0.31993 0 0.04 0.31993 0 0.06 0.31993 0 0.08 0.31993 0 0.1 0.31993 0 0 0.32602 0 0.02 0.32602 0 0.04 0.32602 0 0.06 0.32602 0 0.08 0.32602 0 0.1 0.32602 0 0 0.332249 0 0.02 0.332249 0 0.04 0.332249 0 0.06 0.332249 0 0.08 0.332249 0 0.1 0.332249 0 0 0.338623 0 0.02 0.338623 0 0.04 0.338623 0 0.06 0.338623 0 0.08 0.338623 0 0.1 0.338623 0 0 0.345152 0 0.02 0.345152 0 0.04 0.345152 0 0.06 0.345152 0 0.08 0.345152 0 0.1 0.345152 0 0 0.351842 0 0.02 0.351842 0 0.04 0.351842 0 0.06 0.351842 0 0.08 0.351842 0 0.1 0.351842 0 0 0.358705 0 0.02 0.358705 0 0.04 0.358705 0 0.06 0.358705 0 0.08 0.358705 0 0.1 0.358705 0 0 0.365749 0 0.02 0.365749 0 0.04 0.365749 0 0.06 0.365749 0 0.08 0.365749 0 0.1 0.365749 0 0 0.372987 0 0.02 0.372987 0 0.04 0.372987 0 0.06 0.372987 0 0.08 0.372987 0 0.1 0.372987 0 0 0.38043 0 0.02 0.38043 0 0.04 0.38043 0 0.06 0.38043 0 0.08 0.38043 0 0.1 0.38043 0 0 0.388092 0 0.02 0.388092 0 0.04 0.388092 0 0.06 0.388092 0 0.08 0.388092 0 0.1 0.388092 0 0 0.395986 0 0.02 0.395986 0 0.04 0.395986 0 0.06 0.395986 0 0.08 0.395986 0 0.1 0.395986 0 0 0.40413 0 0.02 0.40413 0 0.04 0.40413 0 0.06 0.40413 0 0.08 0.40413 0 0.1 0.40413 0 0 0.41254 0 0.02 0.41254 0 0.04 0.41254 0 0.06 0.41254 0 0.08 0.41254 0 0.1 0.41254 0 0 0.421236 0 0.02 0.421236 0 0.04 0.421236 0 0.06 0.421236 0 0.08 0.421236 0 0.1 0.421236 0 0 0.430239 0 0.02 0.430239 0 0.04 0.430239 0 0.06 0.430239 0 0.08 0.430239 0 0.1 0.430239 0 0 0.439573 0 0.02 0.439573 0 0.04 0.439573 0 0.06 0.439573 0 0.08 0.439573 0 0.1 0.439573 0 0 0.449263 0 0.02 0.449263 0 0.04 0.449263 0 0.06 0.449263 0 0.08 0.449263 0 0.1 0.449263 0 0 0.459336 0 0.02 0.459336 0 0.04 0.459336 0 0.06 0.459336 0 0.08 0.459336 0 0.1 0.459336 0 0 0.469821 0 0.02 0.469821 0 0.04 0.469821 0 0.06 0.469821 0 0.08 0.469821 0 0.1 0.469821 0 0 0.480742 0 0.02 0.480742 0 0.04 0.480742 0 0.06 0.480742 0 0.08 0.480742 0 0.1 0.480742 0 0 0.492113 0 0.02 0.492113 0 0.04 0.492113 0 0.06 0.492113 0 0.08 0.492113 0 0.1 0.492113 0 0 0.50391 0 0.02 0.50391 0 0.04 0.50391 0 0.06 0.50391 0 0.08 0.50391 0 0.1 0.50391 0 0 0.516005 0 0.02 0.516005 0 0.04 0.516005 0 0.06 0.516005 0 0.08 0.516005 0 0.1 0.516005 0 0 0.528117 0 0.02 0.528117 0 0.04 0.528117 0 0.06 0.528117 0 0.08 0.528117 0 0.1 0.528117 0 0 0.540145 0 0.02 0.540145 0 0.04 0.540145 0 0.06 0.540145 0 0.08 0.540145 0 0.1 0.540145 0 0 0.552084 0 0.02 0.552084 0 0.04 0.552084 0 0.06 0.552084 0 0.08 0.552084 0 0.1 0.552084 0 0 0.563943 0 0.02 0.563943 0 0.04 0.563943 0 0.06 0.563943 0 0.08 0.563943 0 0.1 0.563943 0 0 0.575746 0 0.02 0.575746 0 0.04 0.575746 0 0.06 0.575746 0 0.08 0.575746 0 0.1 0.575746 0 0 0.587512 0 0.02 0.587512 0 0.04 0.587512 0 0.06 0.587512 0 0.08 0.587512 0 0.1 0.587512 0 0 0.59926 0 0.02 0.59926 0 0.04 0.59926 0 0.06 0.59926 0 0.08 0.59926 0 0.1 0.59926 0 0 0.611 0 0.02 0.611 0 0.04 0.611 0 0.06 0.611 0 0.08 0.611 0 0.1 0.611 0 0 0.622736 0 0.02 0.622736 0 0.04 0.622736 0 0.06 0.622736 0 0.08 0.622736 0 0.1 0.622736 0 0 0.634471 0 0.02 0.634471 0 0.04 0.634471 0 0.06 0.634471 0 0.08 0.634471 0 0.1 0.634471 0 0 0.646205 0 0.02 0.646205 0 0.04 0.646205 0 0.06 0.646205 0 0.08 0.646205 0 0.1 0.646205 0 0 0.65794 0 0.02 0.65794 0 0.04 0.65794 0 0.06 0.65794 0 0.08 0.65794 0 0.1 0.65794 0 0 0.669678 0 0.02 0.669678 0 0.04 0.669678 0 0.06 0.669678 0 0.08 0.669678 0 0.1 0.669678 0 0 0.681427 0 0.02 0.681427 0 0.04 0.681427 0 0.06 0.681427 0 0.08 0.681427 0 0.1 0.681427 0 0 0.68404 0 0.02 0.68404 0 0.04 0.68404 0 0.06 0.68404 0 0.08 0.68404 0 0.1 0.68404 0 0 0.686579 0 0.02 0.686579 0 0.04 0.686579 0 0.06 0.686579 0 0.08 0.686579 0 0.1 0.686579 0 0 0.689071 0 0.02 0.689071 0 0.04 0.689071 0 0.06 0.689071 0 0.08 0.689071 0 0.1 0.689071 0 0 0.691532 0 0.02 0.691532 0 0.04 0.691532 0 0.06 0.691532 0 0.08 0.691532 0 0.1 0.691532 0 0 0.69397 0 0.02 0.69397 0 0.04 0.69397 0 0.06 0.69397 0 0.08 0.69397 0 0.1 0.69397 0 0 0.696392 0 0.02 0.696392 0 0.04 0.696392 0 0.06 0.696392 0 0.08 0.696392 0 0.1 0.696392 0 0 0.698802 0 0.02 0.698802 0 0.04 0.698802 0 0.06 0.698802 0 0.08 0.698802 0 0.1 0.698802 0 0 0.701201 0 0.02 0.701201 0 0.04 0.701201 0 0.06 0.701201 0 0.08 0.701201 0 0.1 0.701201 0 0 0.703595 0 0.02 0.703595 0 0.04 0.703595 0 0.06 0.703595 0 0.08 0.703595 0 0.1 0.703595 0 0 0.705981 0 0.02 0.705981 0 0.04 0.705981 0 0.06 0.705981 0 0.08 0.705981 0 0.1 0.705981 0 0 0.708362 0 0.02 0.708362 0 0.04 0.708362 0 0.06 0.708362 0 0.08 0.708362 0 0.1 0.708362 0 0 0.710739 0 0.02 0.710739 0 0.04 0.710739 0 0.06 0.710739 0 0.08 0.710739 0 0.1 0.710739 0 0 0.713112 0 0.02 0.713112 0 0.04 0.713112 0 0.06 0.713112 0 0.08 0.713112 0 0.1 0.713112 0 0 0.715481 0 0.02 0.715481 0 0.04 0.715481 0 0.06 0.715481 0 0.08 0.715481 0 0.1 0.715481 0 0 0.717849 0 0.02 0.717849 0 0.04 0.717849 0 0.06 0.717849 0 0.08 0.717849 0 0.1 0.717849 0 0 0.720213 0 0.02 0.720213 0 0.04 0.720213 0 0.06 0.720213 0 0.08 0.720213 0 0.1 0.720213 0 0 0.722576 0 0.02 0.722576 0 0.04 0.722576 0 0.06 0.722576 0 0.08 0.722576 0 0.1 0.722576 0 0 0.724937 0 0.02 0.724937 0 0.04 0.724937 0 0.06 0.724937 0 0.08 0.724
[...]
			<PointData Scalars="VitesseX">
				<DataArray Name="VitesseX" type="Float32" format="ascii">
 0 2.89375e-15 3.20465e-15 1.21447e-15 -1.03391e-15 0 0 2.64404e-15 3.2038e-15 1.12398e-15 -6.72587e-16 0 0 1.036e-15 4.25187e-15 5.38338e-16 1.98168e-16 0 0 -6.22948e-16 4.18527e-15 8.28078e-16 8.66062e-16 0 0 -1.67078e-15 2.46928e-15 2.61714e-15 4.98068e-16 0 0 -2.08661e-15 1.43075e-15 2.5783e-15 1.74915e-15 0 0 -1.16423e-15 1.48276e-15 6.73451e-16 2.89521e-15 0 0 -4.25838e-16 1.34453e-15 2.12625e-17 3.643e-15 0 0 7.564e-16 -6.3239e-16 1.76503e-15 3.05192e-15 0 0 2.24463e-15 -1.00436e-15 1.52092e-15 7.4649e-16 0 0 1.77595e-15 -9.40421e-16 1.89741e-15 -1.37723e-15 0 0 -1.73925e-15 1.27048e-15 1.24696e-15 -1.27626e-15 0 0 -4.77563e-15 4.63789e-15 -3.29658e-15 2.16314e-15 0 0 -2.98245e-15 1.8278e-15 -3.15165e-15 4.11255e-16 0 0 9.98706e-17 -9.58046e-16 -6.67131e-15 1.74364e-15 0 0 1.19091e-15 -3.38494e-15 -7.77772e-15 3.95218e-15 0 0 2.82645e-16 -3.84667e-15 -4.75264e-15 3.51745e-15 0 0 -6.1304e-16 -2.91654e-15 -1.5772e-15 1.60058e-15 0 0 -2.86342e-16 -3.69442e-15 2.25577e-15 -3.35125e-15 0 0 1.64437e-15 -6.25175e-15 1.78482e-15 -3.24145e-15 0 0 3.48214e-15 -5.79566e-15 -2.81801e-15 1.43403e-15 0 0 -1.13014e-16 6.18598e-16 -6.46402e-15 -2.25489e-15 0 0 -1.10983e-15 1.39684e-15 -2.57443e-15 -8.85438e-15 0 0 -1.36054e-15 2.96371e-15 -1.92985e-15 -5.20437e-15 0 0 -2.18978e-15 1.37234e-15 2.00796e-15 -7.84961e-15 0 0 -3.01322e-15 3.5997e-15 2.34925e-15 -1.16725e-14 0 0 -8.20413e-15 1.01188e-14 -3.85725e-15 -1.6725e-15 0 0 -1.29722e-14 1.45277e-14 -5.95351e-15 3.60509e-15 0 0 -9.17182e-15 1.31064e-14 -4.7268e-15 5.82977e-16 0 0 1.9306e-15 9.50033e-16 2.45603e-15 -3.76207e-15 0 0 1.75058e-15 -1.74445e-15 2.48812e-15 1.26391e-16 0 0 -5.9358e-15 5.56277e-15 -6.39664e-16 5.06645e-15 0 0 -2.10701e-16 9.335e-15 1.15606e-14 -1.0085e-14 0 0 1.54954e-14 1.30372e-14 8.57576e-15 7.95613e-15 0 0 1.67119e-14 1.84048e-14 9.33812e-15 1.88638e-14 0 0 -2.96531e-15 2.00972e-14 1.52263e-14 -1.83801e-15 0 0 -5.96257e-15 3.82887e-15 1.07458e-14 -5.16043e-15 0 0 4.37087e-15 -7.61113e-15 2.90296e-15 -8.40645e-15 0 0 -1.67438e-14 4.85662e-15 -9.44452e-15 -8.75318e-15 0 0 -2.01817e-14 -1.49612e-14 1.43833e-14 -2.63724e-14 0 0 -1.67228e-14 -1.64182e-14 1.6419e-14 -4.88785e-14 0 0 -2.22025e-14 1.35828e-14 -1.67614e-14 -5.62782e-14 0 0 -1.46052e-14 1.00241e-14 -2.6039e-14 -4.16846e-14 0 0 -1.14173e-14 -8.29502e-15 -9.90301e-15 -3.12908e-14 0 0 -1.70171e-14 -2.41009e-14 1.1537e-15 -3.12348e-14 0 0 -2.05158e-14 -3.02635e-14 -7.4049e-15 -2.8294e-14 0 0 -9.048e-15 -1.55134e-14 -2.12091e-14 -3.55426e-14 0 0 -7.74734e-15 -1.03609e-14 -1.94266e-14 -1.59331e-14 0 0 5.48511e-15 -1.91705e-14 -2.10186e-14 1.04706e-14 0 0 1.38527e-14 -1.64562e-14 -2.55942e-14 -8.41425e-15 0 0 -7.59326e-15 -3.33117e-14 -4.05989e-15 -1.03398e-14 0 0 -2.14159e-14 -2.89528e-14 -2.60153e-15 7.90896e-15 0 0 -1.48013e-14 -3.21746e-14 9.29033e-16 1.25198e-14 0 0 -2.39972e-14 -9.84206e-15 -2.43622e-15 2.575e-14 0 0 -3.81955e-14 1.32135e-14 -3.97261e-16 1.19954e-14 0 0 -1.22784e-14 -1.49394e-14 1.54368e-15 6.32201e-15 0 0 1.92603e-15 -2.95803e-16 -1.71862e-14 1.39297e-14 0 0 -8.02141e-15 6.01827e-15 -1.65179e-15 -1.25484e-14 0 0 -1.86093e-14 -4.07696e-15 2.0826e-14 -2.94779e-14 0 0 -2.56003e-14 -2.30646e-15 2.63269e-15 -1.8166e-15 0 0 -2.29426e-14 -7.64337e-15 4.56459e-15 1.18558e-14 0 0 3.60792e-16 -1.82878e-15 5.41942e-15 2.17513e-14 0 0 3.98247e-15 1.27734e-14 -7.46372e-15 1.40668e-14 0 0 -2.65401e-15 1.70864e-14 -1.25358e-15 -1.59049e-14 0 0 3.43787e-16 1.58623e-14 1.31815e-15 -7.00219e-15 0 0 -2.81897e-15 5.26835e-15 2.22563e-14 -7.00539e-15 0 0 1.4835e-15 -9.56825e-15 1.08497e-14 -2.65204e-15 0 0 6.54685e-15 -6.21146e-15 -1.28549e-14 -4.30234e-16 0 0 4.77978e-15 -1.62893e-14 1.0379e-14 6.65711e-15 0 0 -4.54999e-15 -1.35228e-14 3.22952e-14 1.86306e-14 0 0 2.70716e-15 -1.82349e-14 3.62054e-14 3.58659e-15 0 0 1.01838e-14 1.71278e-15 1.01792e-14 -2.55994e-14 0 0 2.45942e-14 1.25396e-14 -8.50521e-15 -1.35188e-14 0 0 2.01754e-14 8.33752e-15 -5.09478e-15 8.74282e-15 0 0 3.42818e-15 3.16179e-15 -1.28487e-15 -6.59005e-15 0 0 2.46922e-17 1.24512e-15 2.39741e-14 -3.26311e-14 0 0 2.6638e-15 1.81984e-14 1.97543e-15 1.2736e-14 0 0 1.03524e-14 5.78979e-15 -8.04722e-15 1.77796e-14 0 0 5.82251e-15 1.16918e-14 1.79574e-14 -2.64278e-14 0 0 -7.7407e-16 1.83038e-14 2.41482e-14 -2.84912e-14 0 0 -7.88795e-16 2.93287e-14 7.50813e-15 4.92674e-15 0 0 1.20502e-14 1.8601e-14 -1.68632e-14 1.76197e-14 0 0 2.40439e-14 -4.03842e-15 -6.19494e-15 1.64475e-14 0 0 -2.42299e-15 5.03383e-15 1.16632e-14 1.35634e-14 0 0 1.11162e-14 -1.2894e-14 1.31974e-14 -5.40829e-15 0 0 1.10996e-14 -1.31651e-15 -1.42399e-14 1.70665e-14 0 0 -6.72284e-17 -7.29934e-15 1.2121e-14 6.82874e-16 0 0 2.0164e-14 -1.6182e-15 2.77352e-14 -2.26535e-14 0 0 8.25965e-15 2.85102e-14 3.11771e-14 1.04818e-14 0 0 7.65755e-15 2.29468e-14 3.44227e-14 1.2714e-14 0 0 1.28642e-14 2.38346e-14 3.56114e-14 1.80889e-14 0 0 -4.36275e-15 1.78856e-14 1.57879e-14 1.95629e-14 0 0 -1.26524e-14 4.48138e-15 -2.36637e-14 3.66708e-15 0 0 -9.22043e-15 -2.64149e-14 -3.17402e-14 -2.46949e-14 0 0 -2.54751e-14 -4.62606e-14 -4.68044e-14 -2.81995e-14 0 0 -4.00243e-14 -5.87906e-14 -5.08096e-14 -5.25447e-14 0 0 -3.90797e-14 -6.74979e-14 -4.83281e-14 -3.69693e-14 0 0 -3.70538e-14 -5.6354e-14 -5.35376e-14 -2.78148e-14 0 0 -1.74973e-14 -3.626e-14 -4.1325e-14 -2.66853e-14 0 0 -7.63571e-16 8.22377e-15 -6.14104e-15 -1.69978e-14 0 0 1.18894e-14 4.65223e-14 2.15734e-14 -1.26001e-14 0 0 5.21048e-14 6.85965e-14 1.58537e-13 4.53826e-14 0 0 4.51899e-14 8.22541e-14 1.43941e-13 7.37086e-14 0 0 6.01922e-14 9.44422e-14 1.61131e-13 7.15812e-14 0 0 6.84169e-14 1.27363e-13 1.6435e-13 8.42455e-14 0 0 7.35457e-14 1.57124e-13 1.48705e-13 9.06609e-14 0 0 8.67598e-14 1.60671e-13 9.5504e-14 1.11345e-13 0 0 5.73983e-14 1.10287e-13 5.93912e-15 1.26455e-13 0 0 -9.26526e-15 -4.77829e-14 -1.07311e-13 2.32747e-14 0 0 -1.50301e-13 -2.88746e-13 -3.09258e-13 -1.72583e-13 0 0 -3.01168e-13 -5.09289e-13 -5.13174e-13 -3.16161e-13 0 0 -3.73299e-13 -6.25886e-13 -6.44828e-13 -4.09322e-13 0 0 -3.91156e-13 -6.4179e-13 -6.94097e-13 -4.83862e-13 0 0 -3.71798e-13 -5.79135e-13 -6.50892e-13 -4.04021e-13 0 0 -3.18495e-13 -5.01944e-13 -5.68045e-13 -3.28688e-13 0 0 -2.46914e-13 -4.13765e-13 -4.92843e-13 -2.98756e-13 0 0 -1.9888e-13 -3.50406e-13 -3.74918e-13 -2.67776e-13 0 0 -1.54274e-13 -2.925e-13 -2.8444e-13 -2.16743e-13 0 0 -1.25595e-13 -2.1225e-13 -2.30125e-13 -1.57171e-13 0 0 -1.03329e-13 -1.58821e-13 -1.63793e-13 -1.33783e-13 0 0 -5.54258e-14 -1.24823e-13 -1.06543e-13 -1.16973e-13 0 0 -3.55157e-14 -7.49766e-14 -1.02109e-13 -1.18105e-13 0 0 -4.03755e-14 -1.02701e-14 -9.44022e-14 -6.5936e-14 0 0 -4.45333e-14 1.88982e-14 -5.64322e-14 -4.39642e-14 0 0 -3.17509e-15 -3.26473e-14 -5.15738e-14 9.59203e-16 0 0 1.35742e-14 -2.96783e-14 -5.50581e-14 1.17432e-14 0 0 -6.64782e-15 1.64373e-14 -2.17369e-14 -4.58153e-14 0 0 4.6834e-15 3.68094e-14 -6.75472e-14 -6.66531e-15 0 0 -1.31704e-14 4.18062e-14 -6.40308e-14 -1.90382e-14 0 0 -3.04808e-14 2.96519e-14 1.05468e-14 -2.71166e-14 0 0 -2.72196e-14 2.10258e-14 6.17998e-14 -3.14938e-14 0 0 1.22593e-14 2.1047e-14 1.4025e-14 -7.3436e-14 0 0 1.25806e-14 2.07886e-14 5.73035e-16 -1.22183e-14 0 0 8.05689e-15 2.67468e-14 -9.54464e-15 -4.77667e-14 0 0 1.47349e-14 2.97631e-14 -3.78579e-14 -5.17505e-14 0 0 7.13929e-15 2.53504e-14 -4.29881e-14 -1.50294e-14 0 0 -1.43481e-14 3.32862e-14 -6.61397e-14 -5.08363e-14 0 0 -3.05645e-14 6.92005e-15 -1.9583e-14 -6.01724e-14 0 0 -1.50255e-14 -9.4218e-15 -2.33579e-14 -3.47957e-14 0 0 1.5745e-16 -1.48846e-14 -7.48268e-14 1.23899e-14 0 0 -5.29487e-15 -2.46032e-14 -4.87538e-14 -9.70278e-15 0 0 -1.17094e-14 -2.36245e-14 -4.98361e-14 -7.30267e-14 0 0 -4.74314e-14 5.64004e-15 -8.34481e-14 -9.39272e-14 0 0 -7.53201e-14 1.99476e-14 -9.11538e-14 -9.86542e-14 0 0 -4.02183e-14 -4.37728e-14 -4.18131e-14 -1.42486e-13 0 0 -1.45851e-14 -6.3242e-14 -5.34763e-14 -9.91663e-14 0 0 -6.006e-14 -4.63725e-14 -6.08468e-14 -8.78744e-14 0 0 -5.79227e-14 -3.3713e-14 -5.17821e-14 -1.15892e-13 0 0 3.33048e-15 -1.26646e-13 -8.6264e-14 -8.81853e-14 0 0 8.37072e-15 -1.70772e-13 -5.61691e-14 -8.1828e-14 0 0 -8.6024e-15 -1.60613e-13 -1.21502e-13 -2.32932e-14 0 0 -4.29162e-15 -1.19712e-13 -2.16415e-13 3.64512e-14 0 0 -4.41586e-14 -5.47434e-14 -2.62495e-13 6.45717e-14 0 0 -1.23335e-13 8.66423e-15 -2.52303e-13 6.70997e-14 0 0 -9.88678e-14 -4.61719e-14 -2.62825e-13 9.05199e-14 0 0 -6.01344e-14 -5.64274e-14 -2.37867e-13 8.18833e-14 0 0 -5.72476e-14 -3.29152e-15 -1.83805e-13 8.47459e-14 0 0 -1.86161e-14 -6.9144e-14 -1.48172e-13 8.66186e-14 0 0 -1.44226e-14 -1.16186e-13 -4.82538e-14 -3.47128e-14 0 0 -6.14452e-14 -6.52241e-14 -3.59405e-14 -1.20769e-13 0 0 -2.62305e-14 -9.28807e-14 1.81017e-14 -2.13765e-13 0 0 -4.72008e-15 -7.6209e-14 6.98344e-14 -2.09189e-13 0 0 -7.27203e-15 -4.97091e-14 2.66854e-15 -5.37544e-14 0 0 1.46177e-14 -4.73411e-14 -3.27855e-14 5.82005e-15 0 0 3.26722e-14 -5.59035e-14 -8.70836e-15 1.38227e-13 0 0 1.65361e-14 -4.4301e-14 1.54976e-15 1.2596e-13 0 0 -1.04142e-14 5.10861e-14 -3.60476e-14 4.28801e-14 0 0 -1.50897e-14 -2.86056e-14 7.43847e-14 8.44788e-14 0 0 -5.96978e-15 -4.42375e-14 5.83e-14 1.16753e-13 0 0 -3.624e-14 1.88133e-14 -1.54045e-14 1.08356e-13 0 0 -2.50936e-14 8.3502e-15 -4.76975e-14 9.10658e-14 0 0 -9.43917e-15 -1.642e-14 -5.84337e-14 6.89699e-14 0 0 -7.72472e-15 -4.81073e-14 -6.59472e-14 4.89994e-14 0 0 -1.68158e-14 -3.99269e-14 -7.44972e-14 -1.80706e-15 0 0 -2.07153e-14 -4.35526e-14 -5.41073e-14 -5.68824e-14 0 0 -2.58532e-14 -2.93234e-14 -9.06367e-14 -2.44635e-14 0 0 -2.94286e-14 -2.97567e-14 -8.84684e-14 -2.40439e-14 0 0 -2.50954e-14 -4.90068e-14 -7.88742e-14 -1.69476e-14 0 0 -2.27347e-14 -5.97506e-14 -6.30775e-14 -3.34055e-14 0 0 -2.29564e-14 -4.23113e-14 -6.58813e-14 -5.87578e-14 0 0 -3.99115e-14 -2.35739e-14 -8.49524e-14 -3.87656e-14 0 0 -5.7335e-14 -7.94629e-15 -6.63303e-14 -7.67278e-14 0 0 -3.01588e-14 -3.9201e-14 -2.73616e-14 -1.27003e-13 0 0 -4.20503e-16 -5.80444e-14 -4.85117e-14 -6.38079e-14 0 0 -2.51022e-15 -4.1285e-14 -3.75723e-14 -8.32192e-14 0 0 1.3668e-15 -5.40172e-14 -7.59564e-15 -1.23378e-13 0 0 -5.39988e-15 -4.77777e-14 -3.58056e-14 -5.30607e-14 0 0 -2.05602e-14 -3.3586e-14 -4.56179e-14 -3.53205e-14 0 0 -3.70876e-14 -6.87351e-15 -9.53451e-14 -1.28986e-14 0 0 -3.48132e-14 -9.02287e-15 -1.4893e-13 8.5957e-14 0 0 -2.11925e-14 -6.17423e-14 -7.08147e-14 5.81205e-14 0 0 -3.13386e-14 -3.25041e-14 -4.05261e-14 -1.07808e-14 0 0 -4.97971e-14 1.58541e-14 -8.96259e-14 5.47376e-16 0 0 -3.2513e-14 2.05275e-15 -7.42196e-14 -1.28806e-14 0 0 1.67128e-15 -2.23816e-14 -4.61715e-14 4.03746e-15 0 0 -2.07909e-14 1.4412e-14 -7.19186e-14 6.7794e-14 0 0 -3.22025e-14 3.30577e-14 -3.12569e-14 4.11161e-14 0 0 -1.03445e-14 1.71892e-14 4.1354e-14 -3.67195e-15 0 0 8.50449e-15 3.2167e-14 6.19474e-16 7.7534e-15 0 0 5.61736e-14 -1.41473e-14 -2.54574e-14 1.4638e-14 0 0 8.3826e-14 -4.9447e-14 -1.2794e-14 1.97293e-14 0
				</DataArray>
				<DataArray Name="VitesseY" type="Float32" format="ascii">