<?xml version="1.0"?>
<VTKFile type="PolyData">
	<PolyData>
		<Piece NumberOfPoints="1206" NumberOfPolys="1000">
			<Points>
				<DataArray type="Float32" NumberOfComponents="3" format="ascii">
 0 0 0 0.02 0 0 0.04 0 0 0.06 0 0 0.08 0 0 0.1 0 0 0 0.005 0 0.02 0.005 0 0.04 0.005 0 0.06 0.005 0 0.08 0.005 0 0.1 0.005 0 0 0.01 0 0.02 0.01 0 0.04 0.01 0 0.06 0.01 0 0.08 0.01 0 0.1 0.01 0 0 0.015 0 0.02 0.015 0 0.04 0.015 0 0.06 0.015 0 0.08 0.015 0 0.1 0.015 0 0 0.02 0 0.02 0.02 0 0.04 0.02 0 0.06 0.02 0 0.08 0.02 0 0.1 0.02 0 0 0.025 0 0.02 0.025 0 0.04 0.025 0 0.06 0.025 0 0.08 0.025 0 0.1 0.025 0 0 0.03 0 0.02 0.03 0 0.04 0.03 0 0.06 0.03 0 0.08 0.03 0 0.1 0.03 0 0 0.035 0 0.02 0.035 0 0.04 0.035 0 0.06 0.035 0 0.08 0.035 0 0.1 0.035 0 0 0.04 0 0.02 0.04 0 0.04 0.04 0 0.06 0.04 0 0.08 0.04 0 0.1 0.04 0 0 0.045 0 0.02 0.045 0 0.04 0.045 0 0.06 0.045 0 0.08 0.045 0 0.1 0.045 0 0 0.05 0 0.02 0.05 0 0.04 0.05 0 0.06 0.05 0 0.08 0.05 0 0.1 0.05 0 0 0.055 0 0.02 0.055 0 0.04 0.055 0 0.06 0.055 0 0.08 0.055 0 0.1 0.055 0 0 0.06 0 0.02 0.06 0 0.04 0.06 0 0.06 0.06 0 0.08 0.06 0 0.1 0.06 0 0 0.065 0 0.02 0.065 0 0.04 0.065 0 0.06 0.065 0 0.08 0.065 0 0.1 0.065 0 0 0.07 0 0.02 0.07 0 0.04 0.07 0 0.06 0.07 0 0.08 0.07 0 0.1 0.07 0 0 0.075 0 0.02 0.075 0 0.04 0.075 0 0.06 0.075 0 0.08 0.075 0 0.1 0.075 0 0 0.08 0 0.02 0.08 0 0.04 0.08 0 0.06 0.08 0 0.08 0.08 0 0.1 0.08 0 0 0.085 0 0.02 0.085 0 0.04 0.085 0 0.06 0.085 0 0.08 0.085 0 0.1 0.085 0 0 0.09 0 0.02 0.09 0 0.04 0.09 0 0.06 0.09 0 0.08 0.09 0 0.1 0.09 0 0 0.095 0 0.02 0.095 0 0.04 0.095 0 0.06 0.095 0 0.08 0.095 0 0.1 0.095 0 0 0.1 0 0.02 0.1 0 0.04 0.1 0 0.06 0.1 0 0.08 0.1 0 0.1 0.1 0 0 0.105 0 0.02 0.105 0 0.04 0.105 0 0.06 0.105 0 0.08 0.105 0 0.1 0.105 0 0 0.11 0 0.02 0.11 0 0.04 0.11 0 0.06 0.11 0 0.08 0.11 0 0.1 0.11 0 0 0.115 0 0.02 0.115 0 0.04 0.115 0 0.06 0.115 0 0.08 0.115 0 0.1 0.115 0 0 0.12 0 0.02 0.12 0 0.04 0.12 0 0.06 0.12 0 0.08 0.12 0 0.1 0.12 0 0 0.125 0 0.02 0.125 0 0.04 0.125 0 0.06 0.125 0 0.08 0.125 0 0.1 0.125 0 0 0.13 0 0.02 0.13 0 0.04 0.13 0 0.06 0.13 0 0.08 0.13 0 0.1 0.13 0 0 0.135 0 0.02 0.135 0 0.04 0.135 0 0.06 0.135 0 0.08 0.135 0 0.1 0.135 0 0 0.14 0 0.02 0.14 0 0.04 0.14 0 0.06 0.14 0 0.08 0.14 0 0.1 0.14 0 0 0.145 0 0.02 0.145 0 0.04 0.145 0 0.06 0.145 0 0.08 0.145 0 0.1 0.145 0 0 0.15 0 0.02 0.15 0 0.04 0.15 0 0.06 0.15 0 0.08 0.15 0 0.1 0.15 0 0 0.155 0 0.02 0.155 0 0.04 0.155 0 0.06 0.155 0 0.08 0.155 0 0.1 0.155 0 0 0.16 0 0.02 0.16 0 0.04 0.16 0 0.06 0.16 0 0.08 0.16 0 0.1 0.16 0 0 0.165 0 0.02 0.165 0 0.04 0.165 0 0.06 0.165 0 0.08 0.165 0 0.1 0.165 0 0 0.17 0 0.02 0.17 0 0.04 0.17 0 0.06 0.17 0 0.08 0.17 0 0.1 0.17 0 0 0.175 0 0.02 0.175 0 0.04 0.175 0 0.06 0.175 0 0.08 0.175 0 0.1 0.175 0 0 0.18 0 0.02 0.18 0 0.04 0.18 0 0.06 0.18 0 0.08 0.18 0 0.1 0.18 0 0 0.185 0 0.02 0.185 0 0.04 0.185 0 0.06 0.185 0 0.08 0.185 0 0.1 0.185 0 0 0.19 0 0.02 0.19 0 0.04 0.19 0 0.06 0.19 0 0.08 0.19 0 0.1 0.19 0 0 0.195 0 0.02 0.195 0 0.04 0.195 0 0.06 0.195 0 0.08 0.195 0 0.1 0.195 0 0 0.2 0 0.02 0.2 0 0.04 0.2 0 0.06 0.2 0 0.08 0.2 0 0.1 0.2 0 0 0.205 0 0.02 0.205 0 0.04 0.205 0 0.06 0.205 0 0.08 0.205 0 0.1 0.205 0 0 0.21 0 0.02 0.21 0 0.04 0.21 0 0.06 0.21 0 0.08 0.21 0 0.1 0.21 0 0 0.215 0 0.02 0.215 0 0.04 0.215 0 0.06 0.215 0 0.08 0.215 0 0.1 0.215 0 0 0.22 0 0.02 0.22 0 0.04 0.22 0 0.06 0.22 0 0.08 0.22 0 0.1 0.22 0 0 0.225 0 0.02 0.225 0 0.04 0.225 0 0.06 0.225 0 0.08 0.225 0 0.1 0.225 0 0 0.23 0 0.02 0.23 0 0.04 0.23 0 0.06 0.23 0 0.08 0.23 0 0.1 0.23 0 0 0.235 0 0.02 0.235 0 0.04 0.235 0 0.06 0.235 0 0.08 0.235 0 0.1 0.235 0 0 0.24 0 0.02 0.24 0 0.04 0.24 0 0.06 0.24 0 0.08 0.24 0 0.1 0.24 0 0 0.245 0 0.02 0.245 0 0.04 0.245 0 0.06 0.245 0 0.08 0.245 0 0.1 0.245 0 0 0.25 0 0.02 0.25 0 0.04 0.25 0 0.06 0.25 0 0.08 0.25 0 0.1 0.25 0 0 0.255 0 0.02 0.255 0 0.04 0.255 0 0.06 0.255 0 0.08 0.255 0 0.1 0.255 0 0 0.26 0 0.02 0.26 0 0.04 0.26 0 0.06 0.26 0 0.08 0.26 0 0.1 0.26 0 0 0.265 0 0.02 0.265 0 0.04 0.265 0 0.06 0.265 0 0.08 0.265 0 0.1 0.265 0 0 0.27 0 0.02 0.27 0 0.04 0.27 0 0.06 0.27 0 0.08 0.27 0 0.1 0.27 0 0 0.275 0 0.02 0.275 0 0.04 0.275 0 0.06 0.275 0 0.08 0.275 0 0.1 0.275 0 0 0.28 0 0.02 0.28 0 0.04 0.28 0 0.06 0.28 0 0.08 0.28 0 0.1 0.28 0 0 0.285 0 0.02 0.285 0 0.04 0.285 0 0.06 0.285 0 0.08 0.285 0 0.1 0.285 0 0 0.29 0 0.02 0.29 0 0.04 0.29 0 0.06 0.29 0 0.08 0.29 0 0.1 0.29 0 0 0.295 0 0.02 0.295 0 0.04 0.295 0 0.06 0.295 0 0.08 0.295 0 0.1 0.295 0 0 0.3 0 0.02 0.3 0 0.04 0.3 0 0.06 0.3 0 0.08 0.3 0 0.1 0.3 0 0 0.305 0 0.02 0.305 0 0.04 0.305 0 0.06 0.305 0 0.08 0.305 0 0.1 0.305 0 0 0.31 0 0.02 0.31 0 0.04 0.31 0 0.06 0.31 0 0.08 0.31 0 0.1 0.31 0 0 0.315 0 0.02 0.315 0 0.04 0.315 0 0.06 0.315 0 0.08 0.315 0 0.1 0.315 0 0 0.32 0 0.02 0.32 0 0.04 0.32 0 0.06 0.32 0 0.08 0.32 0 0.1 0.32 0 0 0.325 0 0.02 0.325 0 0.04 0.325 0 0.06 0.325 0 0.08 0.325 0 0.1 0.325 0 0 0.33 0 0.02 0.33 0 0.04 0.33 0 0.06 0.33 0 0.08 0.33 0 0.1 0.33 0 0 0.335 0 0.02 0.335 0 0.04 0.335 0 0.06 0.335 0 0.08 0.335 0 0.1 0.335 0 0 0.340001 0 0.02 0.340001 0 0.04 0.340001 0 0.06 0.340001 0 0.08 0.340001 0 0.1 0.340001 0 0 0.345003 0 0.02 0.345003 0 0.04 0.345003 0 0.06 0.345003 0 0.08 0.345003 0 0.1 0.345003 0 0 0.35001 0 0.02 0.35001 0 0.04 0.35001 0 0.06 0.35001 0 0.08 0.35001 0 0.1 0.35001 0 0 0.355029 0 0.02 0.355029 0 0.04 0.355029 0 0.06 0.355029 0 0.08 0.355029 0 0.1 0.355029 0 0 0.360074 0 0.02 0.360074 0 0.04 0.360074 0 0.06 0.360074 0 0.08 0.360074 0 0.1 0.360074 0 0 0.365171 0 0.02 0.365171 0 0.04 0.365171 0 0.06 0.365171 0 0.08 0.365171 0 0.1 0.365171 0 0 0.37035 0 0.02 0.37035 0 0.04 0.37035 0 0.06 0.37035 0 0.08 0.37035 0 0.1 0.37035 0 0 0.375643 0 0.02 0.375643 0 0.04 0.375643 0 0.06 0.375643 0 0.08 0.375643 0 0.1 0.375643 0 0 0.381079 0 0.02 0.381079 0 0.04 0.381079 0 0.06 0.381079 0 0.08 0.381079 0 0.1 0.381079 0 0 0.386682 0 0.02 0.386682 0 0.04 0.386682 0 0.06 0.386682 0 0.08 0.386682 0 0.1 0.386682 0 0 0.392473 0 0.02 0.392473 0 0.04 0.392473 0 0.06 0.392473 0 0.08 0.392473 0 0.1 0.392473 0 0 0.398473 0 0.02 0.398473 0 0.04 0.398473 0 0.06 0.398473 0 0.08 0.398473 0 0.1 0.398473 0 0 0.404703 0 0.02 0.404703 0 0.04 0.404703 0 0.06 0.404703 0 0.08 0.404703 0 0.1 0.404703 0 0 0.411185 0 0.02 0.411185 0 0.04 0.411185 0 0.06 0.411185 0 0.08 0.411185 0 0.1 0.411185 0 0 0.417943 0 0.02 0.417943 0 0.04 0.417943 0 0.06 0.417943 0 0.08 0.417943 0 0.1 0.417943 0 0 0.425008 0 0.02 0.425008 0 0.04 0.425008 0 0.06 0.425008 0 0.08 0.425008 0 0.1 0.425008 0 0 0.432411 0 0.02 0.432411 0 0.04 0.432411 0 0.06 0.432411 0 0.08 0.432411 0 0.1 0.432411 0 0 0.440191 0 0.02 0.440191 0 0.04 0.440191 0 0.06 0.440191 0 0.08 0.440191 0 0.1 0.440191 0 0 0.448391 0 0.02 0.448391 0 0.04 0.448391 0 0.06 0.448391 0 0.08 0.448391 0 0.1 0.448391 0 0 0.457063 0 0.02 0.457063 0 0.04 0.457063 0 0.06 0.457063 0 0.08 0.457063 0 0.1 0.457063 0 0 0.466266 0 0.02 0.466266 0 0.04 0.466266 0 0.06 0.466266 0 0.08 0.466266 0 0.1 0.466266 0 0 0.476069 0 0.02 0.476069 0 0.04 0.476069 0 0.06 0.476069 0 0.08 0.476069 0 0.1 0.476069 0 0 0.486541 0 0.02 0.486541 0 0.04 0.486541 0 0.06 0.486541 0 0.08 0.486541 0 0.1 0.486541 0 0 0.497739 0 0.02 0.497739 0 0.04 0.497739 0 0.06 0.497739 0 0.08 0.497739 0 0.1 0.497739 0 0 0.509631 0 0.02 0.509631 0 0.04 0.509631 0 0.06 0.509631 0 0.08 0.509631 0 0.1 0.509631 0 0 0.521888 0 0.02 0.521888 0 0.04 0.521888 0 0.06 0.521888 0 0.08 0.521888 0 0.1 0.521888 0 0 0.534026 0 0.02 0.534026 0 0.04 0.534026 0 0.06 0.534026 0 0.08 0.534026 0 0.1 0.534026 0 0 0.546013 0 0.02 0.546013 0 0.04 0.546013 0 0.06 0.546013 0 0.08 0.546013 0 0.1 0.546013 0 0 0.557874 0 0.02 0.557874 0 0.04 0.557874 0 0.06 0.557874 0 0.08 0.557874 0 0.1 0.557874 0 0 0.569665 0 0.02 0.569665 0 0.04 0.569665 0 0.06 0.569665 0 0.08 0.569665 0 0.1 0.569665 0 0 0.581426 0 0.02 0.581426 0 0.04 0.581426 0 0.06 0.581426 0 0.08 0.581426 0 0.1 0.581426 0 0 0.593177 0 0.02 0.593177 0 0.04 0.593177 0 0.06 0.593177 0 0.08 0.593177 0 0.1 0.593177 0 0 0.604936 0 0.02 0.604936 0 0.04 0.604936 0 0.06 0.604936 0 0.08 0.604936 0 0.1 0.604936 0 0 0.607551 0 0.02 0.607551 0 0.04 0.607551 0 0.06 0.607551 0 0.08 0.607551 0 0.1 0.607551 0 0 0.610091 0 0.02 0.610091 0 0.04 0.610091 0 0.06 0.610091 0 0.08 0.610091 0 0.1 0.610091 0 0 0.612584 0 0.02 0.612584 0 0.04 0.612584 0 0.06 0.612584 0 0.08 0.612584 0 0.1 0.612584 0 0 0.615046 0 0.02 0.615046 0 0.04 0.615046 0 0.06 0.615046 0 0.08 0.615046 0 0.1 0.615046 0 0 0.617486 0 0.02 0.617486 0 0.04 0.617486 0 0.06 0.617486 0 0.08 0.617486 0 0.1 0.617486 0 0 0.619909 0 0.02 0.619909 0 0.04 0.619909 0 0.06 0.619909 0 0.08 0.619909 0 0.1 0.619909 0 0 0.622319 0 0.02 0.622319 0 0.04 0.622319 0 0.06 0.622319 0 0.08 0.622319 0 0.1 0.622319 0 0 0.62472 0 0.02 0.62472 0 0.04 0.62472 0 0.06 0.62472 0 0.08 0.62472 0 0.1 0.62472 0 0 0.627115 0 0.02 0.627115 0 0.04 0.627115 0 0.06 0.627115 0 0.08 0.627115 0 0.1 0.627115 0 0 0.629503 0 0.02 0.629503 0 0.04 0.629503 0 0.06 0.629503 0 0.08 0.629503 0 0.1 0.629503 0 0 0.631886 0 0.02 0.631886 0 0.04 0.631886 0 0.06 0.631886 0 0.08 0.631886 0 0.1 0.631886 0 0 0.634265 0 0.02 0.634265 0 0.04 0.634265 0 0.06 0.634265 0 0.08 0.634265 0 0.1 0.634265 0 0 0.636639 0 0.02 0.636639 0 0.04 0.636639 0 0.06 0.636639 0 0.08 0.636639 0 0.1 0.636639 0 0 0.639011 0 0.02 0.639011 0 0.04 0.639011 0 0.06 0.639011 0 0.08 0.639011 0 0.1 0.639011 0 0 0.641381 0 0.02 0.641381 0 0.04 0.641381 0 0.06 0.641381 0 0.08 0.641381 0 0.1 0.641381 0 0 0.643748 0 0.02 0.643748 0 0.04 0.643748 0 0.06 0.643748 0 0.08 0.643748 0 0.1 0.643748 0 0 0.646113 0 0.02 0.646113 0 0.04 0.646113 0 0.06 0.646113 0 0.08 0.646113 0 0.1 0.646113 0 0 0.648476 0 0.02 0.648476 0 0.04 0.648476 0 0.06 0.648476 0 0.08 0.648476 0 0.1 0.648476 0 0 0.650838 0 0.02 0.650838 0 0.04 0.650838 0 0.06 0.650838 0 0.08 0.650838 0 0.1 0.650838 0 0 0.653199 0 0.02 0.653199 0 0.04 0.653199 0 0.06 0.653199 0 0.08 0.653199 0 0.1 0.653199 0 0 0.655558 0 0.02 0.655558 0 0.04 0.655558 0 0.06 0.655558 0 0.08 0.655558 0 0.1 0.655558 0 0 0.657917 0 0.02 0.657917 0 0.04 0.657917 0 0.06 0.657917 0 0.
[...]
			<PointData Scalars="VitesseX">
				<DataArray Name="VitesseX" type="Float32" format="ascii">
 0 1.34514e-15 1.43933e-16 2.36801e-15 5.65503e-16 0 0 1.37767e-15 4.91668e-16 2.07713e-15 4.1158e-16 0 0 4.89396e-16 2.2134e-15 7.1862e-16 8.40603e-16 0 0 5.53305e-16 2.61959e-15 7.14234e-16 8.90001e-16 0 0 1.2262e-15 2.37658e-15 1.23325e-15 1.25418e-15 0 0 1.28069e-15 2.88249e-15 7.43061e-16 1.61749e-15 0 0 1.84082e-15 1.7785e-15 2.08692e-15 2.13944e-16 0 0 1.45045e-15 1.01424e-15 3.49801e-15 -6.08265e-16 0 0 1.40038e-16 2.507e-15 3.52281e-15 -1.05143e-17 0 0 1.35634e-15 2.25255e-15 3.12185e-15 1.33709e-15 0 0 2.45857e-15 1.47719e-15 3.00233e-15 2.53137e-15 0 0 4.92096e-16 2.85835e-15 1.44181e-15 4.22296e-15 0 0 7.02628e-16 4.59518e-16 9.04241e-16 5.64062e-15 0 0 -1.08758e-16 8.59769e-16 1.67784e-15 5.7419e-15 0 0 -7.33042e-16 3.20141e-15 -8.67376e-16 5.9636e-15 0 0 2.39144e-15 1.26443e-15 1.5081e-15 5.45615e-15 0 0 2.81178e-15 2.48334e-15 6.32905e-15 2.51104e-15 0 0 -7.89057e-16 9.53453e-15 2.31798e-15 -1.88156e-16 0 0 1.3062e-15 6.83607e-15 4.29772e-15 -3.35393e-15 0 0 2.44477e-15 4.49774e-15 6.13646e-15 -3.96645e-15 0 0 -1.03871e-15 5.50527e-15 4.782e-15 -1.1096e-15 0 0 9.4723e-17 4.28544e-15 2.52882e-15 2.9375e-15 0 0 5.62141e-15 2.16406e-15 1.38942e-15 -4.83189e-17 0 0 2.95709e-15 5.53048e-15 1.06942e-15 -5.13356e-15 0 0 1.0059e-16 1.00264e-14 1.38609e-15 -8.32753e-15 0 0 4.71136e-15 5.17728e-15 5.73759e-15 -1.14096e-14 0 0 8.64664e-15 -1.58127e-15 7.74283e-15 -1.20159e-14 0 0 1.00402e-14 -2.09643e-15 3.40577e-15 -8.1122e-15 0 0 1.04249e-14 -5.37026e-15 5.4426e-15 -2.82403e-15 0 0 4.72765e-15 -6.66056e-16 8.60658e-15 -4.15834e-15 0 0 -2.69206e-17 1.2073e-14 -7.39696e-17 -4.67198e-15 0 0 5.37098e-15 5.99902e-15 -1.9122e-15 -3.08311e-15 0 0 1.43869e-16 5.19681e-15 -1.86282e-15 -1.84074e-15 0 0 -8.87711e-15 6.10349e-15 2.36586e-15 -1.41107e-15 0 0 -2.81808e-15 -5.49163e-16 5.86433e-15 1.13168e-15 0 0 5.07631e-15 -3.22833e-15 1.08089e-14 -4.4734e-15 0 0 8.15399e-16 4.56677e-15 6.19846e-15 4.42695e-15 0 0 -1.29967e-15 6.38816e-15 -3.90225e-16 6.43612e-15 0 0 5.5773e-15 -8.76865e-16 -9.60282e-16 -2.65775e-15 0 0 2.96731e-15 1.80405e-15 -2.96627e-15 1.95921e-15 0 0 3.99878e-15 2.61382e-16 9.52597e-16 -1.2934e-15 0 0 7.39153e-15 -2.71208e-15 1.08828e-14 -5.40531e-15 0 0 1.10318e-15 9.39993e-15 1.17292e-14 2.43553e-17 0 0 2.02461e-15 1.01628e-14 6.84691e-15 2.72268e-15 0 0 -4.26049e-15 4.91847e-15 1.75089e-14 -3.51176e-15 0 0 -5.31638e-15 8.89467e-15 4.37276e-15 1.32552e-14 0 0 2.86622e-15 -5.72859e-16 -3.33224e-15 1.86261e-14 0 0 2.21967e-15 -2.0204e-15 6.52915e-15 1.28829e-14 0 0 3.83926e-15 2.27406e-15 7.86153e-15 7.32994e-15 0 0 2.70774e-15 5.61961e-15 1.68761e-15 -3.33068e-15 0 0 3.21517e-15 1.61665e-15 5.49246e-15 -1.16755e-14 0 0 -4.91658e-15 9.03525e-15 5.0572e-15 -2.12654e-14 0 0 -1.36146e-17 5.09958e-16 1.23273e-14 -2.44821e-14 0 0 -2.69394e-15 -4.53686e-15 3.17664e-14 -2.99736e-14 0 0 -3.23569e-15 -9.94686e-17 1.80708e-14 1.27048e-14 0 0 1.55617e-14 -1.29731e-14 1.32688e-14 3.92622e-14 0 0 2.52581e-14 -6.44452e-15 2.72984e-14 6.10972e-15 0 0 1.57662e-15 2.10252e-14 1.75286e-14 -4.0603e-15 0 0 -1.02747e-14 1.11084e-14 7.24647e-15 6.50652e-15 0 0 -8.36043e-16 7.16601e-15 -1.0809e-15 1.66687e-14 0 0 -1.07869e-14 2.13989e-14 2.90359e-15 2.49787e-14 0 0 -6.34768e-15 -1.38119e-14 2.53576e-14 2.68217e-14 0 0 -1.10734e-15 -2.91081e-14 2.49838e-14 1.90046e-14 0 0 -5.76581e-15 -1.52797e-14 1.54672e-14 3.94487e-15 0 0 -1.35041e-14 -3.08969e-15 1.13282e-15 -4.06012e-15 0 0 -1.06677e-14 3.5817e-15 -6.79412e-15 -6.22314e-15 0 0 -6.04987e-15 9.22608e-15 -1.14603e-15 -1.39803e-14 0 0 -7.99537e-15 3.40827e-15 -1.35814e-14 -2.12397e-15 0 0 -1.35052e-14 -4.98812e-15 -2.84063e-14 1.18997e-14 0 0 -1.45143e-14 2.60529e-15 -2.50746e-14 3.80982e-15 0 0 -1.48335e-14 1.4126e-14 -4.37337e-14 5.20825e-15 0 0 2.16411e-16 -1.45746e-15 -3.738e-14 -9.34822e-15 0 0 8.39496e-15 -5.86165e-15 -2.08765e-14 -1.56292e-14 0 0 2.43622e-15 -1.05734e-14 -1.74178e-15 -2.65052e-15 0 0 -2.80278e-15 4.6713e-15 -1.60395e-14 -7.95438e-16 0 0 -7.9496e-15 2.83414e-14 -3.87457e-14 -1.46283e-14 0 0 -3.25144e-15 -9.36061e-15 -5.08951e-15 -1.49781e-14 0 0 1.61802e-14 -1.68658e-14 -3.54684e-15 -4.51176e-15 0 0 3.72517e-15 1.33822e-14 -2.5711e-14 -1.64079e-14 0 0 -1.54583e-14 -1.06291e-14 -6.83478e-15 -9.43045e-15 0 0 1.54385e-14 -4.56314e-14 2.39432e-14 -1.04181e-15 0 0 4.0152e-14 -4.44078e-14 1.87876e-14 -9.52336e-15 0 0 1.02788e-14 -1.18953e-14 1.37822e-15 -8.29629e-15 0 0 -8.91979e-15 -8.36894e-15 -1.5501e-14 1.04185e-14 0 0 1.05257e-14 -1.14495e-14 -5.96334e-15 -1.87241e-14 0 0 2.88641e-16 1.56784e-14 -2.36944e-14 -2.46969e-14 0 0 -2.00714e-16 4.54578e-15 -1.72943e-14 -1.12916e-14 0 0 1.0059e-14 -1.91335e-14 3.13949e-15 -2.2521e-15 0 0 -1.71993e-15 7.81132e-15 -1.09877e-14 1.49868e-15 0 0 3.65976e-15 6.3598e-15 -2.25048e-17 -3.43513e-15 0 0 5.81183e-15 -1.68276e-14 4.38544e-15 1.49568e-14 0 0 -1.43375e-14 -1.05547e-14 -8.58608e-15 9.67809e-15 0 0 -1.21322e-14 -1.96328e-14 -1.87991e-14 2.1809e-14 0 0 -9.00869e-15 -2.74769e-14 -2.55851e-15 6.52852e-15 0 0 1.41108e-15 -9.81491e-15 2.22712e-14 1.71267e-15 0 0 2.97322e-14 4.90416e-14 6.82407e-14 2.01587e-14 0 0 7.29638e-14 1.35236e-13 1.33864e-13 7.51858e-14 0 0 1.05136e-13 1.875e-13 1.80169e-13 1.1297e-13 0 0 1.13941e-13 1.83599e-13 1.82355e-13 1.14272e-13 0 0 1.0081e-13 1.63527e-13 1.58531e-13 1.05368e-13 0 0 1.09086e-13 1.66104e-13 1.64091e-13 1.07913e-13 0 0 1.8019e-13 2.54004e-13 2.96453e-13 1.78326e-13 0 0 1.66934e-13 2.64406e-13 3.19877e-13 1.14172e-13 0 0 1.8022e-13 2.8392e-13 3.18144e-13 1.3407e-13 0 0 1.89896e-13 2.90767e-13 2.85526e-13 1.77616e-13 0 0 2.11551e-13 3.07224e-13 2.92058e-13 1.58473e-13 0 0 2.09961e-13 3.26622e-13 3.03894e-13 1.60639e-13 0 0 1.63284e-13 2.74822e-13 2.62585e-13 1.20677e-13 0 0 6.27499e-14 1.30887e-13 1.29166e-13 1.22058e-14 0 0 -8.87748e-14 -7.44482e-14 -7.67693e-14 -1.45753e-13 0 0 -1.97291e-13 -3.38648e-13 -2.76539e-13 -3.0499e-13 0 0 -2.59105e-13 -4.99059e-13 -4.29947e-13 -3.1574e-13 0 0 -2.83982e-13 -5.05297e-13 -4.8444e-13 -2.90884e-13 0 0 -2.65805e-13 -4.32357e-13 -4.40282e-13 -3.02649e-13 0 0 -2.10507e-13 -3.59899e-13 -3.40772e-13 -2.56271e-13 0 0 -1.33087e-13 -2.79949e-13 -2.5797e-13 -2.08014e-13 0 0 -8.78174e-14 -1.66299e-13 -1.89743e-13 -1.33693e-13 0 0 -3.38987e-14 -1.12685e-13 -8.7037e-14 -1.07188e-13 0 0 -9.63316e-15 -2.7575e-14 -1.26125e-14 -9.2866e-14 0 0 9.50943e-15 4.54225e-14 6.62369e-14 -6.0242e-14 0 0 5.83706e-14 8.0238e-14 1.41158e-13 -7.25084e-15 0 0 8.31064e-14 1.27614e-13 1.76286e-13 4.94048e-14 0 0 1.04237e-13 1.70446e-13 1.86876e-13 1.00652e-13 0 0 1.16987e-13 2.3113e-13 2.06775e-13 1.35487e-13 0 0 1.21997e-13 2.86975e-13 2.30472e-13 1.48595e-13 0 0 1.32967e-13 3.23222e-13 2.3846e-13 1.71227e-13 0 0 1.30249e-13 3.3697e-13 2.88623e-13 1.62465e-13 0 0 1.84746e-13 3.13756e-13 2.85128e-13 1.89211e-13 0 0 2.24592e-13 3.00453e-13 2.99416e-13 2.16629e-13 0 0 2.11902e-13 3.45568e-13 3.08409e-13 2.0282e-13 0 0 2.32443e-13 3.43767e-13 3.05743e-13 1.92639e-13 0 0 2.54552e-13 3.51219e-13 3.321e-13 1.68414e-13 0 0 2.42266e-13 3.62248e-13 3.54382e-13 1.56953e-13 0 0 2.27368e-13 4.1811e-13 3.47844e-13 1.79401e-13 0 0 2.09006e-13 4.42126e-13 3.03551e-13 2.02385e-13 0 0 1.86256e-13 3.9411e-13 3.56872e-13 1.7807e-13 0 0 2.00912e-13 3.41548e-13 3.92901e-13 1.23543e-13 0 0 2.123e-13 2.87779e-13 2.99643e-13 1.11506e-13 0 0 1.54121e-13 2.68487e-13 2.29735e-13 8.46797e-14 0 0 1.22823e-13 1.88719e-13 1.74992e-13 5.024e-14 0 0 1.04059e-13 1.1647e-13 9.85462e-14 7.63493e-14 0 0 6.66358e-14 9.53232e-14 5.90571e-14 3.25783e-14 0 0 2.47295e-14 4.60763e-14 6.42219e-14 -4.49428e-14 0 0 1.81647e-14 8.35181e-15 3.87447e-14 -4.74916e-14 0 0 1.65722e-14 -1.33917e-14 1.16784e-14 -1.10321e-14 0 0 -8.75722e-15 -2.15271e-14 6.63563e-15 -1.74175e-14 0 0 -1.16146e-14 -1.86997e-14 -6.83052e-15 -2.47903e-14 0 0 -2.46413e-15 -3.37703e-14 -6.78781e-15 -6.75851e-15 0 0 -5.4202e-15 -3.01516e-14 -1.81862e-14 2.05291e-14 0 0 -1.87509e-14 -9.53658e-15 -3.90383e-14 2.19413e-14 0 0 -1.99142e-14 -5.15567e-15 -3.53381e-14 8.35934e-15 0 0 -1.24993e-14 -6.98244e-15 -3.44181e-14 6.18094e-15 0 0 9.8978e-16 -2.46469e-14 -1.61091e-14 -9.96201e-15 0 0 2.47182e-15 -2.83147e-14 -3.54553e-15 -2.98591e-14 0 0 -8.20261e-15 -1.39988e-14 -1.08896e-14 -7.62207e-15 0 0 -1.01003e-14 4.00561e-15 -2.3235e-14 -1.55775e-14 0 0 1.55051e-14 -1.67141e-14 -3.50935e-15 -2.30479e-14 0 0 3.08382e-14 -3.68515e-14 9.50515e-15 5.28522e-15 0 0 2.44926e-14 -2.22631e-14 1.04119e-14 5.5437e-15 0 0 8.31638e-15 -1.44648e-14 1.29851e-14 3.02512e-14 0 0 2.05012e-14 -3.86163e-14 1.92551e-14 5.66992e-14 0 0 4.06863e-14 -5.59926e-14 2.31766e-14 8.21615e-14 0 0 4.06399e-14 -3.32574e-14 8.43135e-15 8.17711e-14 0 0 2.81699e-14 -3.45203e-17 2.20202e-14 3.93413e-14 0 0 4.15477e-14 -1.07087e-14 4.676e-14 3.1828e-14 0 0 4.6544e-14 -1.13314e-14 4.66919e-14 8.93715e-14 0 0 5.13686e-15 7.11356e-14 9.98086e-15 1.43527e-13 0 0 6.38721e-15 7.66151e-14 1.77235e-15 1.23425e-13 0 0 1.79038e-14 3.32337e-14 1.88691e-15 5.80977e-14 0 0 -5.49737e-15 4.69941e-14 -3.19018e-14 7.70359e-15 0 0 -1.59373e-14 2.99728e-14 -2.94449e-14 2.41626e-14 0 0 1.4694e-15 -3.02636e-14 1.4365e-14 1.08222e-13 0 0 -3.88277e-14 3.02682e-14 -4.46578e-15 1.00847e-13 0 0 -4.91943e-14 5.4048e-14 3.15543e-15 -4.63256e-15 0 0 -7.79792e-15 -1.82703e-14 3.42496e-14 -5.85355e-15 0 0 9.55389e-15 -2.83304e-14 -4.40221e-14 3.00951e-14 0 0 1.75324e-14 -2.73183e-14 -7.16658e-14 2.2658e-14 0 0 -1.14735e-15 -1.34949e-14 -2.63402e-14 -5.25928e-15 0 0 -2.82631e-14 4.98529e-14 -6.78904e-14 -1.83006e-14 0 0 -1.81335e-14 4.52483e-14 -8.47586e-14 3.77136e-14 0 0 -1.00384e-16 -2.08962e-14 -1.36189e-14 4.29756e-14 0 0 2.74724e-14 -7.49231e-14 6.23589e-14 3.5841e-15 0 0 5.632e-14 -1.06987e-13 1.09276e-13 1.02294e-14 0 0 -2.74821e-15 -3.15613e-14 5.51953e-14 5.60658e-14 0 0 -2.15081e-14 -1.49511e-14 1.25136e-14 7.33409e-14 0 0 5.54765e-15 -1.12819e-14 -7.82697e-15 3.02991e-14 0 0 -4.40867e-15 3.93106e-14 -5.37655e-14 4.28569e-14 0 0 3.84142e-15 1.94359e-14 -2.29127e-14 3.04664e-14 0 0 -6.88739e-15 1.07839e-14 2.90377e-14 -1.53347e-14 0 0 -8.382e-15 -8.05552e-15 5.15178e-14 -4.14922e-15 0 0 -1.23516e-14 2.8648e-14 1.90595e-14 -1.24075e-14 0 0 -1.53429e-14 8.74348e-14 -2.01673e-14 -2.97956e-14 0 0 1.6459e-14 5.64907e-14 -1.25105e-14 -8.94506e-15 0 0 3.06777e-14 6.65888e-14 -5.43155e-14 4.0791e-14 0 0 3.26452e-14 7.96867e-14 -4.40531e-14 2.82883e-14 0 0 6.51498e-14 4.40622e-14 1.50801e-14 -1.85323e-14 0 0 8.49786e-14 2.6546e-14 5.15892e-14 -2.99705e-14 0 0 6.70447e-14 3.68317e-14 4.90604e-14 -1.07491e-14 0 0 5.95164e-14 4.37573e-14 6.23003e-15 3.39784e-14 0 0 3.4645e-14 6.08556e-14 -2.92837e-15 6.00673e-14 0 0 1.01551e-14 7.88456e-14 5.54318e-15 6.2432e-14 0
				</DataArray>
				<DataArray Name="VitesseY" type="Float32" format="ascii">