<?xml version="1.0"?>
<VTKFile type="PolyData">
	<PolyData>
		<Piece NumberOfPoints="1206" NumberOfPolys="1000">
			<Points>
				<DataArray type="Float32" NumberOfComponents="3" format="ascii">
 0 0 0 0.02 0 0 0.04 0 0 0.06 0 0 0.08 0 0 0.1 0 0 0 0.005 0 0.02 0.005 0 0.04 0.005 0 0.06 0.005 0 0.08 0.005 0 0.1 0.005 0 0 0.01 0 0.02 0.01 0 0.04 0.01 0 0.06 0.01 0 0.08 0.01 0 0.1 0.01 0 0 0.015 0 0.02 0.015 0 0.04 0.015 0 0.06 0.015 0 0.08 0.015 0 0.1 0.015 0 0 0.02 0 0.02 0.02 0 0.04 0.02 0 0.06 0.02 0 0.08 0.02 0 0.1 0.02 0 0 0.025 0 0.02 0.025 0 0.04 0.025 0 0.06 0.025 0 0.08 0.025 0 0.1 0.025 0 0 0.03 0 0.02 0.03 0 0.04 0.03 0 0.06 0.03 0 0.08 0.03 0 0.1 0.03 0 0 0.035 0 0.02 0.035 0 0.04 0.035 0 0.06 0.035 0 0.08 0.035 0 0.1 0.035 0 0 0.04 0 0.02 0.04 0 0.04 0.04 0 0.06 0.04 0 0.08 0.04 0 0.1 0.04 0 0 0.045 0 0.02 0.045 0 0.04 0.045 0 0.06 0.045 0 0.08 0.045 0 0.1 0.045 0 0 0.05 0 0.02 0.05 0 0.04 0.05 0 0.06 0.05 0 0.08 0.05 0 0.1 0.05 0 0 0.055 0 0.02 0.055 0 0.04 0.055 0 0.06 0.055 0 0.08 0.055 0 0.1 0.055 0 0 0.06 0 0.02 0.06 0 0.04 0.06 0 0.06 0.06 0 0.08 0.06 0 0.1 0.06 0 0 0.065 0 0.02 0.065 0 0.04 0.065 0 0.06 0.065 0 0.08 0.065 0 0.1 0.065 0 0 0.07 0 0.02 0.07 0 0.04 0.07 0 0.06 0.07 0 0.08 0.07 0 0.1 0.07 0 0 0.075 0 0.02 0.075 0 0.04 0.075 0 0.06 0.075 0 0.08 0.075 0 0.1 0.075 0 0 0.08 0 0.02 0.08 0 0.04 0.08 0 0.06 0.08 0 0.08 0.08 0 0.1 0.08 0 0 0.085 0 0.02 0.085 0 0.04 0.085 0 0.06 0.085 0 0.08 0.085 0 0.1 0.085 0 0 0.09 0 0.02 0.09 0 0.04 0.09 0 0.06 0.09 0 0.08 0.09 0 0.1 0.09 0 0 0.095 0 0.02 0.095 0 0.04 0.095 0 0.06 0.095 0 0.08 0.095 0 0.1 0.095 0 0 0.1 0 0.02 0.1 0 0.04 0.1 0 0.06 0.1 0 0.08 0.1 0 0.1 0.1 0 0 0.105 0 0.02 0.105 0 0.04 0.105 0 0.06 0.105 0 0.08 0.105 0 0.1 0.105 0 0 0.11 0 0.02 0.11 0 0.04 0.11 0 0.06 0.11 0 0.08 0.11 0 0.1 0.11 0 0 0.115 0 0.02 0.115 0 0.04 0.115 0 0.06 0.115 0 0.08 0.115 0 0.1 0.115 0 0 0.12 0 0.02 0.12 0 0.04 0.12 0 0.06 0.12 0 0.08 0.12 0 0.1 0.12 0 0 0.125 0 0.02 0.125 0 0.04 0.125 0 0.06 0.125 0 0.08 0.125 0 0.1 0.125 0 0 0.13 0 0.02 0.13 0 0.04 0.13 0 0.06 0.13 0 0.08 0.13 0 0.1 0.13 0 0 0.135 0 0.02 0.135 0 0.04 0.135 0 0.06 0.135 0 0.08 0.135 0 0.1 0.135 0 0 0.14 0 0.02 0.14 0 0.04 0.14 0 0.06 0.14 0 0.08 0.14 0 0.1 0.14 0 0 0.145 0 0.02 0.145 0 0.04 0.145 0 0.06 0.145 0 0.08 0.145 0 0.1 0.145 0 0 0.15 0 0.02 0.15 0 0.04 0.15 0 0.06 0.15 0 0.08 0.15 0 0.1 0.15 0 0 0.155 0 0.02 0.155 0 0.04 0.155 0 0.06 0.155 0 0.08 0.155 0 0.1 0.155 0 0 0.16 0 0.02 0.16 0 0.04 0.16 0 0.06 0.16 0 0.08 0.16 0 0.1 0.16 0 0 0.165 0 0.02 0.165 0 0.04 0.165 0 0.06 0.165 0 0.08 0.165 0 0.1 0.165 0 0 0.17 0 0.02 0.17 0 0.04 0.17 0 0.06 0.17 0 0.08 0.17 0 0.1 0.17 0 0 0.175 0 0.02 0.175 0 0.04 0.175 0 0.06 0.175 0 0.08 0.175 0 0.1 0.175 0 0 0.18 0 0.02 0.18 0 0.04 0.18 0 0.06 0.18 0 0.08 0.18 0 0.1 0.18 0 0 0.185 0 0.02 0.185 0 0.04 0.185 0 0.06 0.185 0 0.08 0.185 0 0.1 0.185 0 0 0.19 0 0.02 0.19 0 0.04 0.19 0 0.06 0.19 0 0.08 0.19 0 0.1 0.19 0 0 0.195 0 0.02 0.195 0 0.04 0.195 0 0.06 0.195 0 0.08 0.195 0 0.1 0.195 0 0 0.2 0 0.02 0.2 0 0.04 0.2 0 0.06 0.2 0 0.08 0.2 0 0.1 0.2 0 0 0.205 0 0.02 0.205 0 0.04 0.205 0 0.06 0.205 0 0.08 0.205 0 0.1 0.205 0 0 0.21 0 0.02 0.21 0 0.04 0.21 0 0.06 0.21 0 0.08 0.21 0 0.1 0.21 0 0 0.215 0 0.02 0.215 0 0.04 0.215 0 0.06 0.215 0 0.08 0.215 0 0.1 0.215 0 0 0.22 0 0.02 0.22 0 0.04 0.22 0 0.06 0.22 0 0.08 0.22 0 0.1 0.22 0 0 0.225 0 0.02 0.225 0 0.04 0.225 0 0.06 0.225 0 0.08 0.225 0 0.1 0.225 0 0 0.23 0 0.02 0.23 0 0.04 0.23 0 0.06 0.23 0 0.08 0.23 0 0.1 0.23 0 0 0.235 0 0.02 0.235 0 0.04 0.235 0 0.06 0.235 0 0.08 0.235 0 0.1 0.235 0 0 0.24 0 0.02 0.24 0 0.04 0.24 0 0.06 0.24 0 0.08 0.24 0 0.1 0.24 0 0 0.245 0 0.02 0.245 0 0.04 0.245 0 0.06 0.245 0 0.08 0.245 0 0.1 0.245 0 0 0.25 0 0.02 0.25 0 0.04 0.25 0 0.06 0.25 0 0.08 0.25 0 0.1 0.25 0 0 0.255 0 0.02 0.255 0 0.04 0.255 0 0.06 0.255 0 0.08 0.255 0 0.1 0.255 0 0 0.26 0 0.02 0.26 0 0.04 0.26 0 0.06 0.26 0 0.08 0.26 0 0.1 0.26 0 0 0.265 0 0.02 0.265 0 0.04 0.265 0 0.06 0.265 0 0.08 0.265 0 0.1 0.265 0 0 0.27 0 0.02 0.27 0 0.04 0.27 0 0.06 0.27 0 0.08 0.27 0 0.1 0.27 0 0 0.275 0 0.02 0.275 0 0.04 0.275 0 0.06 0.275 0 0.08 0.275 0 0.1 0.275 0 0 0.28 0 0.02 0.28 0 0.04 0.28 0 0.06 0.28 0 0.08 0.28 0 0.1 0.28 0 0 0.285 0 0.02 0.285 0 0.04 0.285 0 0.06 0.285 0 0.08 0.285 0 0.1 0.285 0 0 0.29 0 0.02 0.29 0 0.04 0.29 0 0.06 0.29 0 0.08 0.29 0 0.1 0.29 0 0 0.295 0 0.02 0.295 0 0.04 0.295 0 0.06 0.295 0 0.08 0.295 0 0.1 0.295 0 0 0.3 0 0.02 0.3 0 0.04 0.3 0 0.06 0.3 0 0.08 0.3 0 0.1 0.3 0 0 0.305 0 0.02 0.305 0 0.04 0.305 0 0.06 0.305 0 0.08 0.305 0 0.1 0.305 0 0 0.31 0 0.02 0.31 0 0.04 0.31 0 0.06 0.31 0 0.08 0.31 0 0.1 0.31 0 0 0.315 0 0.02 0.315 0 0.04 0.315 0 0.06 0.315 0 0.08 0.315 0 0.1 0.315 0 0 0.32 0 0.02 0.32 0 0.04 0.32 0 0.06 0.32 0 0.08 0.32 0 0.1 0.32 0 0 0.325 0 0.02 0.325 0 0.04 0.325 0 0.06 0.325 0 0.08 0.325 0 0.1 0.325 0 0 0.33 0 0.02 0.33 0 0.04 0.33 0 0.06 0.33 0 0.08 0.33 0 0.1 0.33 0 0 0.335 0 0.02 0.335 0 0.04 0.335 0 0.06 0.335 0 0.08 0.335 0 0.1 0.335 0 0 0.34 0 0.02 0.34 0 0.04 0.34 0 0.06 0.34 0 0.08 0.34 0 0.1 0.34 0 0 0.345 0 0.02 0.345 0 0.04 0.345 0 0.06 0.345 0 0.08 0.345 0 0.1 0.345 0 0 0.35 0 0.02 0.35 0 0.04 0.35 0 0.06 0.35 0 0.08 0.35 0 0.1 0.35 0 0 0.355 0 0.02 0.355 0 0.04 0.355 0 0.06 0.355 0 0.08 0.355 0 0.1 0.355 0 0 0.36 0 0.02 0.36 0 0.04 0.36 0 0.06 0.36 0 0.08 0.36 0 0.1 0.36 0 0 0.365 0 0.02 0.365 0 0.04 0.365 0 0.06 0.365 0 0.08 0.365 0 0.1 0.365 0 0 0.37 0 0.02 0.37 0 0.04 0.37 0 0.06 0.37 0 0.08 0.37 0 0.1 0.37 0 0 0.375 0 0.02 0.375 0 0.04 0.375 0 0.06 0.375 0 0.08 0.375 0 0.1 0.375 0 0 0.38 0 0.02 0.38 0 0.04 0.38 0 0.06 0.38 0 0.08 0.38 0 0.1 0.38 0 0 0.385 0 0.02 0.385 0 0.04 0.385 0 0.06 0.385 0 0.08 0.385 0 0.1 0.385 0 0 0.39 0 0.02 0.39 0 0.04 0.39 0 0.06 0.39 0 0.08 0.39 0 0.1 0.39 0 0 0.395 0 0.02 0.395 0 0.04 0.395 0 0.06 0.395 0 0.08 0.395 0 0.1 0.395 0 0 0.4 0 0.02 0.4 0 0.04 0.4 0 0.06 0.4 0 0.08 0.4 0 0.1 0.4 0 0 0.405 0 0.02 0.405 0 0.04 0.405 0 0.06 0.405 0 0.08 0.405 0 0.1 0.405 0 0 0.41 0 0.02 0.41 0 0.04 0.41 0 0.06 0.41 0 0.08 0.41 0 0.1 0.41 0 0 0.415 0 0.02 0.415 0 0.04 0.415 0 0.06 0.415 0 0.08 0.415 0 0.1 0.415 0 0 0.42 0 0.02 0.42 0 0.04 0.42 0 0.06 0.42 0 0.08 0.42 0 0.1 0.42 0 0 0.425 0 0.02 0.425 0 0.04 0.425 0 0.06 0.425 0 0.08 0.425 0 0.1 0.425 0 0 0.43 0 0.02 0.43 0 0.04 0.43 0 0.06 0.43 0 0.08 0.43 0 0.1 0.43 0 0 0.435 0 0.02 0.435 0 0.04 0.435 0 0.06 0.435 0 0.08 0.435 0 0.1 0.435 0 0 0.44 0 0.02 0.44 0 0.04 0.44 0 0.06 0.44 0 0.08 0.44 0 0.1 0.44 0 0 0.445 0 0.02 0.445 0 0.04 0.445 0 0.06 0.445 0 0.08 0.445 0 0.1 0.445 0 0 0.45 0 0.02 0.45 0 0.04 0.45 0 0.06 0.45 0 0.08 0.45 0 0.1 0.45 0 0 0.455 0 0.02 0.455 0 0.04 0.455 0 0.06 0.455 0 0.08 0.455 0 0.1 0.455 0 0 0.46 0 0.02 0.46 0 0.04 0.46 0 0.06 0.46 0 0.08 0.46 0 0.1 0.46 0 0 0.465 0 0.02 0.465 0 0.04 0.465 0 0.06 0.465 0 0.08 0.465 0 0.1 0.465 0 0 0.47 0 0.02 0.47 0 0.04 0.47 0 0.06 0.47 0 0.08 0.47 0 0.1 0.47 0 0 0.475 0 0.02 0.475 0 0.04 0.475 0 0.06 0.475 0 0.08 0.475 0 0.1 0.475 0 0 0.480005 0 0.02 0.480005 0 0.04 0.480005 0 0.06 0.480005 0 0.08 0.480005 0 0.1 0.480005 0 0 0.485059 0 0.02 0.485059 0 0.04 0.485059 0 0.06 0.485059 0 0.08 0.485059 0 0.1 0.485059 0 0 0.490463 0 0.02 0.490463 0 0.04 0.490463 0 0.06 0.490463 0 0.08 0.490463 0 0.1 0.490463 0 0 0.497282 0 0.02 0.497282 0 0.04 0.497282 0 0.06 0.497282 0 0.08 0.497282 0 0.1 0.497282 0 0 0.508358 0 0.02 0.508358 0 0.04 0.508358 0 0.06 0.508358 0 0.08 0.508358 0 0.1 0.508358 0 0 0.511049 0 0.02 0.511049 0 0.04 0.511049 0 0.06 0.511049 0 0.08 0.511049 0 0.1 0.511049 0 0 0.513999 0 0.02 0.513999 0 0.04 0.513999 0 0.06 0.513999 0 0.08 0.513999 0 0.1 0.513999 0 0 0.517338 0 0.02 0.517338 0 0.04 0.517338 0 0.06 0.517338 0 0.08 0.517338 0 0.1 0.517338 0 0 0.52115 0 0.02 0.52115 0 0.04 0.52115 0 0.06 0.52115 0 0.08 0.52115 0 0.1 0.52115 0 0 0.525441 0 0.02 0.525441 0 0.04 0.525441 0 0.06 0.525441 0 0.08 0.525441 0 0.1 0.525441 0 0 0.530121 0 0.02 0.530121 0 0.04 0.530121 0 0.06 0.530121 0 0.08 0.530121 0 0.1 0.530121 0 0 0.535023 0 0.02 0.535023 0 0.04 0.535023 0 0.06 0.535023 0 0.08 0.535023 0 0.1 0.535023 0 0 0.540004 0 0.02 0.540004 0 0.04 0.540004 0 0.06 0.540004 0 0.08 0.540004 0 0.1 0.540004 0 0 0.545 0 0.02 0.545 0 0.04 0.545 0 0.06 0.545 0 0.08 0.545 0 0.1 0.545 0 0 0.55 0 0.02 0.55 0 0.04 0.55 0 0.06 0.55 0 0.08 0.55 0 0.1 0.55 0 0 0.555 0 0.02 0.555 0 0.04 0.555 0 0.06 0.555 0 0.08 0.555 0 0.1 0.555 0 0 0.56 0 0.02 0.56 0 0.04 0.56 0 0.06 0.56 0 0.08 0.56 0 0.1 0.56 0 0 0.565 0 0.02 0.565 0 0.04 0.565 0 0.06 0.565 0 0.08 0.565 0 0.1 0.565 0 0 0.57 0 0.02 0.57 0 0.04 0.57 0 0.06 0.57 0 0.08 0.57 0 0.1 0.57 0 0 0.575 0 0.02 0.575 0 0.04 0.575 0 0.06 0.575 0 0.08 0.575 0 0.1 0.575 0 0 0.58 0 0.02 0.58 0 0.04 0.58 0 0.06 0.58 0 0.08 0.58 0 0.1 0.58 0 0 0.585 0 0.02 0.585 0 0.04 0.585 0 0.06 0.585 0 0.08 0.585 0 0.1 0.585 0 0 0.59 0 0.02 0.59 0 0.04 0.59 0 0.06 0.59 0 0.08 0.59 0 0.1 0.59 0 0 0.595 0 0.02 0.595 0 0.04 0.595 0 0.06 0.595 0 0.08 0.595 0 0.1 0.595 0 0 0.6 0 0.02 0.6 0 0.04 0.6 0 0.06 0.6 0 0.08 0.6 0 0.1 0.6 0 0 0.605 0 0.02 0.605 0 0.04 0.605 0 0.06 0.605 0 0.08 0.605 0 0.1 0.605 0 0 0.61 0 0.02 0.61 0 0.04 0.61 0 0.06 0.61 0 0.08 0.61 0 0.1 0.61 0 0 0.615 0 0.02 0.615 0 0.04 0.615 0 0.06 0.615 0 0.08 0.615 0 0.1 0.615 0 0 0.62 0 0.02 0.62 0 0.04 0.62 0 0.06 0.62 0 0.08 0.62 0 0.1 0.62 0 0 0.625 0 0.02 0.625 0 0.04 0.625 0 0.06 0.625 0 0.08 0.625 0 0.1 0.625 0 0 0.63 0 0.02 0.63 0 0.04 0.63 0 0.06 0.63 0 0.08 0.63 0 0.1 0.63 0 0 0.635 0 0.02 0.635 0 0.04 0.635 0 0.06 0.635 0 0.08 0.635 0 0.1 0.635 0 0 0.64 0 0.02 0.64 0 0.04 0.64 0 0.06 0.64 0 0.08 0.64 0 0.1 0.64 0 0 0.645 0 0.02 0.645 0 0.04 0.645 0 0.06 0.645 0 0.08 0.645 0 0.1 0.645 0 0 0.65 0 0.02 0.65 0 0.04 0.65 0 0.06 0.65 0 0.08 0.65 0 0.1 0.65 0 0 0.655 0 0.02 0.655 0 0.04 0.655 0 0.06 0.655 0 0.08 0.655 0 0.1 0.655 0 0 0.66 0 0.02 0.66 0 0.04 0.66 0 0.06 0.66 0 0.08 0.66 0 0.1 0.66 0 0 0.665 0 0.02 0.665 0 0.04 0.665 0 0.06 0.665 0 0.08 0.665 0 0.1 0.665 0 0 0.67 0 0.02 0.67 0 0.04 0.67 0 0.06 0.67 0 0.08 0.67 0 0.1 0.67 0 0
[...]
			<PointData Scalars="VitesseX">
				<DataArray Name="VitesseX" type="Float32" format="ascii">
 0 -8.59612e-17 -4.62119e-16 6.46321e-16 -4.91049e-16 0 0 3.36619e-17 -4.23231e-16 3.12659e-16 -5.60955e-16 0 0 2.86605e-18 4.51151e-17 -4.79103e-16 -2.74216e-16 0 0 5.81098e-17 -4.97597e-16 3.38948e-16 -7.22891e-16 0 0 1.31886e-16 -3.26292e-16 -2.23501e-16 -3.52754e-16 0 0 -6.65693e-17 7.52958e-16 -1.66108e-15 6.5013e-16 0 0 -1.43464e-16 9.00881e-17 -3.07704e-17 -8.46904e-16 0 0 2.09174e-16 -1.4414e-15 2.41793e-15 -2.42949e-15 0 0 2.53532e-16 -7.85268e-16 9.90623e-16 -9.722e-16 0 0 -1.71281e-16 9.37372e-16 -2.14656e-15 -1.00967e-15 0 0 -1.41611e-17 -2.86478e-16 -4.43715e-16 -3.35121e-15 0 0 -4.1746e-16 5.00526e-16 -1.01662e-15 -2.68852e-15 0 0 -1.4418e-16 -1.59777e-15 1.05257e-16 -2.27837e-15 0 0 -2.2443e-16 -1.25948e-15 -1.48757e-15 -1.41261e-16 0 0 -3.1077e-16 -1.66521e-17 -1.08751e-15 -6.39235e-16 0 0 4.56781e-16 -2.50551e-15 3.18514e-15 -2.32629e-15 0 0 -3.84474e-16 9.09572e-16 -2.72221e-15 2.54996e-15 0 0 -6.45071e-17 -7.11677e-17 -1.21641e-15 2.41269e-15 0 0 6.60471e-17 -5.98169e-17 -1.27956e-15 2.29363e-15 0 0 -1.93593e-16 9.20923e-16 -2.7048e-15 1.25842e-15 0 0 4.44711e-16 -2.29845e-15 3.40301e-15 -3.88954e-15 0 0 2.13684e-16 -1.60639e-15 3.00291e-15 -3.81046e-15 0 0 -1.23091e-16 1.19178e-15 -2.62362e-15 6.66782e-17 0 0 -3.70726e-16 2.67156e-15 -5.44851e-15 1.93276e-15 0 0 1.36909e-17 -1.67402e-15 2.35397e-15 -4.23587e-15 0 0 5.71491e-16 -6.07163e-15 9.70374e-15 -9.19705e-15 0 0 5.51621e-18 -1.83704e-15 1.83497e-15 -1.0236e-15 0 0 -4.00739e-16 3.37368e-15 -7.15956e-15 4.38378e-15 0 0 -2.39436e-16 1.93858e-15 -4.47076e-15 3.19266e-16 0 0 4.83995e-16 -3.02644e-15 4.22481e-15 -4.76538e-15 0 0 3.35879e-17 -1.4602e-15 1.82307e-15 -5.0727e-16 0 0 -1.07733e-16 -1.55127e-15 1.57061e-15 -8.24488e-16 0 0 4.61627e-17 -7.5719e-16 4.25018e-16 -3.65877e-15 0 0 -6.67542e-16 3.35503e-15 -7.18754e-15 4.21525e-15 0 0 3.00535e-16 -1.54682e-15 1.52455e-15 -7.07663e-16 0 0 8.10506e-19 -2.86355e-15 4.81835e-15 -4.65245e-15 0 0 3.4709e-16 -3.08157e-15 -1.98619e-15 2.21002e-15 0 0 5.5781e-18 -1.59954e-15 -8.15091e-15 6.25494e-15 0 0 -1.46395e-16 -1.5187e-15 -6.70325e-15 5.17483e-15 0 0 1.95973e-16 -1.55734e-15 -3.50445e-15 5.34749e-15 0 0 4.99015e-17 -1.46839e-15 1.85244e-15 -4.38967e-16 0 0 4.74796e-16 -3.02849e-15 4.2139e-15 -4.80158e-15 0 0 -6.95571e-16 1.99427e-15 -4.4254e-15 -4.25567e-16 0 0 -4.759e-16 -5.96712e-16 4.93888e-16 -4.69514e-15 0 0 8.37027e-16 -5.89258e-15 6.78841e-15 -7.73288e-15 0 0 -5.14756e-16 8.88748e-16 -8.84544e-15 2.42285e-15 0 0 4.85148e-17 -1.60864e-15 -1.33195e-14 8.01787e-15 0 0 5.25108e-17 -1.99708e-15 -1.26258e-14 1.07098e-14 0 0 -5.31627e-16 5.43325e-16 -6.77212e-15 3.58437e-15 0 0 7.36882e-16 -6.08811e-15 8.75992e-15 -9.35885e-15 0 0 1.32915e-17 -6.08652e-15 1.00397e-14 -1.00418e-14 0 0 7.69947e-16 -6.57807e-15 8.88038e-15 -7.96139e-15 0 0 -1.38056e-15 1.22764e-16 -1.08229e-14 1.39693e-14 0 0 -2.69836e-17 -5.22074e-15 -5.85607e-15 1.26858e-14 0 0 1.20793e-15 -7.12674e-15 5.08424e-15 -3.84314e-15 0 0 -1.84961e-15 3.58243e-15 -7.57694e-15 7.62144e-16 0 0 1.30522e-15 -6.73222e-15 4.95948e-15 -5.11571e-15 0 0 -1.00496e-15 -5.09326e-16 -5.20698e-15 5.92051e-15 0 0 -1.00496e-15 -5.09326e-16 -5.20698e-15 5.92051e-15 0 0 1.34485e-15 -9.55472e-15 8.05828e-15 -5.35258e-15 0 0 -1.08742e-15 1.10298e-15 -4.7965e-15 1.49385e-15 0 0 -2.6254e-17 1.84268e-15 -5.97272e-15 7.56193e-15 0 0 -2.05421e-15 -1.65685e-15 -2.46783e-15 1.01131e-14 0 0 -2.02474e-15 -8.53329e-15 5.77691e-15 7.73589e-16 0 0 -6.64193e-16 -8.10972e-15 5.62306e-15 -3.02974e-15 0 0 -1.05142e-15 1.12453e-15 -4.7909e-15 1.46778e-15 0 0 -8.31636e-18 1.85662e-15 -5.98851e-15 7.54204e-15 0 0 -8.84877e-16 1.32016e-16 -3.31219e-15 7.93789e-15 0 0 -1.97032e-15 -9.17234e-15 4.9699e-15 2.28651e-15 0 0 -4.10356e-15 -1.56726e-14 8.41964e-15 8.01817e-15 0 0 -6.47856e-15 -8.89397e-16 -6.69923e-15 1.64435e-14 0 0 -1.08196e-15 -6.44626e-15 7.14201e-16 6.01943e-15 0 0 -1.62362e-15 -9.28183e-15 4.84774e-15 2.60141e-15 0 0 -6.20043e-15 -6.38687e-15 3.64482e-15 9.27476e-15 0 0 -6.91821e-15 -7.68526e-15 -2.08812e-15 1.72471e-14 0 0 -8.25004e-15 -2.11814e-15 -1.32262e-14 2.12687e-14 0 0 -4.99439e-15 -8.73637e-15 2.93688e-15 5.14175e-15 0 0 -3.96078e-15 -6.867e-15 5.96312e-15 -5.62968e-17 0 0 -3.66137e-15 -9.73159e-15 5.86858e-15 -1.95147e-15 0 0 -4.94151e-15 -3.50707e-15 -5.73475e-15 -3.33927e-15 0 0 -6.42846e-15 1.64686e-15 -1.4593e-14 5.51701e-15 0 0 -2.1286e-15 -1.35032e-14 -1.57433e-15 3.27088e-16 0 0 -7.86142e-15 -3.95656e-15 -1.03374e-14 6.40903e-15 0 0 -1.58165e-14 4.73082e-15 -4.59242e-15 1.36516e-14 0 0 -1.42049e-14 -2.56107e-15 1.83403e-14 -1.88211e-15 0 0 -7.42428e-15 -6.18483e-15 5.29414e-15 -3.77418e-15 0 0 -6.40659e-16 -1.32606e-14 -9.66739e-15 7.23797e-15 0 0 9.18826e-16 -1.33133e-14 3.72398e-16 1.13739e-15 0 0 -3.64548e-17 -5.13008e-15 1.77214e-15 -9.78821e-15 0 0 5.25156e-16 -4.89625e-15 3.05284e-15 -2.08642e-14 0 0 -3.93363e-17 5.56102e-16 -6.53331e-15 -1.50966e-14 0 0 -1.40321e-15 4.76046e-15 -2.19112e-14 3.95445e-15 0 0 9.12776e-16 -4.21837e-15 -5.85863e-15 1.78282e-15 0 0 1.98591e-15 -2.77554e-15 -5.04461e-15 -1.03977e-14 0 0 7.14876e-16 -3.42563e-15 -8.26132e-15 -5.65391e-15 0 0 -6.08024e-15 6.26315e-16 -1.02234e-14 -6.83981e-15 0 0 3.01743e-15 -3.62236e-15 -1.84604e-14 -4.60228e-15 0 0 5.15764e-15 -7.15926e-15 -7.66927e-15 2.90546e-15 0 0 -4.3752e-15 2.56574e-15 -2.61052e-15 5.7171e-16 0 0 7.71635e-16 -4.73012e-15 -1.03195e-14 -4.91741e-17 0 0 -2.95053e-15 -2.99319e-15 -9.77894e-15 -9.84273e-15 0 0 -2.12852e-14 9.46608e-15 -1.23099e-14 -2.29707e-14 0 0 1.75143e-14 1.2604e-15 -5.11557e-14 -5.06262e-14 0 0 -5.37127e-15 -7.47815e-15 4.01235e-15 -4.83953e-14 0 0 -1.87549e-14 -4.94014e-14 8.38673e-14 -4.23085e-14 0 0 -7.47118e-17 -3.87677e-14 5.11821e-14 -6.51252e-14 0 0 -3.41095e-15 -1.23706e-15 -1.32614e-14 7.76537e-15 0 0 4.24014e-15 3.61651e-15 -2.47692e-14 1.8403e-14 0 0 -6.85442e-16 1.17729e-15 8.81312e-15 -2.38591e-14 0 0 6.92468e-16 -4.49953e-15 4.62443e-15 -4.58844e-15 0 0 5.79173e-16 -9.14025e-15 3.58085e-15 3.36383e-15 0 0 3.51193e-15 -9.02278e-15 1.42487e-15 -1.30083e-14 0 0 5.37104e-15 -3.66017e-15 -1.45386e-14 -5.0605e-15 0 0 4.91517e-15 -1.02633e-15 -1.89732e-14 -3.55073e-15 0 0 3.76162e-16 -1.34356e-14 1.44277e-14 -3.04698e-14 0 0 -3.29472e-15 -9.06174e-15 1.18166e-14 -1.51588e-14 0 0 -7.78827e-15 -1.27922e-15 -3.31826e-15 1.3073e-14 0 0 -3.7104e-15 -1.35425e-14 1.07724e-14 8.59221e-15 0 0 -5.62862e-15 -9.50884e-16 -1.0269e-14 1.50202e-14 0 0 -6.54285e-15 -6.6523e-15 4.50282e-15 -6.30107e-15 0 0 -1.92568e-15 -2.07551e-15 -3.29178e-15 -1.93999e-15 0 0 -4.73579e-15 -2.39131e-15 -1.21097e-14 1.36723e-14 0 0 -6.58444e-15 -2.69284e-14 1.60354e-14 6.62716e-15 0 0 -1.60516e-14 -9.60196e-15 -1.33755e-14 2.09292e-14 0 0 -1.05011e-14 -3.36895e-15 -2.32765e-14 1.62171e-14 0 0 -2.15721e-15 1.05155e-15 -1.80409e-14 1.42515e-14 0 0 -2.71558e-15 -5.26759e-15 3.76889e-15 4.88125e-15 0 0 -4.53023e-15 -2.65707e-14 2.18943e-14 6.41545e-15 0 0 -8.80078e-15 -4.19085e-15 -2.22064e-14 2.99173e-14 0 0 -3.11704e-15 -3.56953e-15 -1.38517e-14 5.99123e-15 0 0 -2.08428e-15 -6.16527e-15 -1.78272e-15 1.60553e-15 0 0 -9.82335e-15 7.74465e-16 -6.18527e-17 4.41076e-15 0 0 -1.22955e-14 -1.92051e-14 8.37356e-15 2.52826e-15 0 0 -9.31945e-15 -7.88345e-15 -2.92368e-14 2.54943e-14 0 0 -6.69449e-15 -8.78001e-15 -1.18481e-14 1.1054e-14 0 0 -5.30858e-15 -1.30968e-14 6.98678e-15 6.78606e-15 0 0 -6.49906e-15 -5.57224e-15 8.81254e-15 3.53686e-15 0 0 -1.10727e-14 -1.96099e-14 1.83493e-14 1.12359e-14 0 0 -1.7146e-14 -9.70175e-15 -5.21626e-15 3.08983e-14 0 0 -1.50225e-14 7.31662e-15 -1.86346e-15 -3.45765e-15 0 0 -5.87523e-15 2.97222e-15 -5.74163e-15 -5.04427e-15 0 0 -1.2252e-14 6.03526e-16 -2.08209e-14 1.40133e-14 0 0 -2.38715e-14 -2.79339e-15 -7.03401e-15 2.80797e-15 0 0 -2.08725e-14 -2.84268e-14 -6.02845e-15 8.87879e-15 0 0 -1.75617e-14 -1.93904e-14 -3.31194e-14 2.29844e-14 0 0 -1.69031e-14 -2.08988e-15 -2.85206e-14 7.04923e-15 0 0 -2.78569e-14 -7.28406e-15 -8.8077e-15 7.98443e-15 0 0 -3.40062e-14 -2.73318e-14 1.77796e-14 1.4753e-14 0 0 -3.48314e-14 -3.14281e-14 9.05065e-15 2.17397e-14 0 0 -3.55428e-14 -1.13045e-14 -5.09061e-14 3.22556e-14 0 0 -2.72723e-14 -1.54113e-14 -4.68357e-14 9.54068e-15 0 0 -2.85962e-14 -1.5307e-14 -1.24948e-14 -1.42461e-14 0 0 -2.26849e-14 -1.46683e-14 1.41567e-14 -1.44147e-14 0 0 -1.81593e-14 -1.24852e-15 1.05554e-14 1.18255e-14 0 0 -8.64617e-15 3.3362e-15 3.25316e-15 5.57014e-15 0 0 -1.58138e-15 7.44666e-16 -3.11727e-15 -1.85889e-14 0 0 -1.04389e-14 -5.48958e-15 -9.62802e-15 -3.27078e-14 0 0 -7.502e-15 -2.66753e-14 -7.63853e-15 -2.83595e-14 0 0 -1.12822e-14 -2.52339e-14 -1.42876e-14 -8.11316e-15 0 0 -1.55933e-14 -2.95607e-14 2.84161e-15 8.53192e-15 0 0 -2.63344e-14 -3.0102e-14 3.20439e-15 2.35587e-14 0 0 -4.84985e-14 -2.62783e-14 2.53639e-14 1.4483e-14 0 0 -5.50723e-14 -6.03275e-15 2.94285e-14 1.38027e-14 0 0 -3.696e-14 1.86093e-15 7.61385e-15 1.20388e-14 0 0 -1.60745e-14 3.17636e-15 3.87991e-15 1.46352e-15 0 0 -1.58151e-14 5.84158e-15 6.67661e-15 -9.05537e-15 0 0 -2.86866e-14 1.36228e-15 4.75527e-15 -7.71035e-15 0 0 -3.2915e-14 6.49366e-15 -9.385e-16 -9.63196e-15 0 0 -2.36136e-14 4.72663e-15 -1.70917e-14 -2.46186e-14 0 0 -1.53612e-14 1.43829e-15 -3.24421e-14 -1.77916e-15 0 0 -1.48923e-14 -5.80176e-15 -3.4673e-14 2.13262e-14 0 0 -2.47406e-14 3.66252e-16 -6.19676e-14 4.55984e-14 0 0 -1.84403e-14 -1.12917e-14 -4.41579e-14 4.36652e-14 0 0 -8.95533e-15 -1.93359e-14 -7.95396e-15 -2.33195e-15 0 0 -9.23782e-15 -6.30337e-15 -1.38302e-14 -1.9697e-14 0 0 -1.03131e-14 -1.33069e-14 -2.16264e-14 -3.47785e-15 0 0 -1.88531e-14 -1.21162e-14 -2.07875e-14 1.23488e-14 0 0 -1.14842e-14 -1.54097e-14 -1.18176e-14 -1.32909e-14 0 0 -2.37414e-15 -1.67166e-14 -7.25609e-15 -4.56211e-14 0 0 -1.18564e-14 -7.93091e-15 -3.47963e-14 -4.19962e-15 0 0 -9.59486e-15 -1.92076e-14 -4.31039e-14 2.51165e-14 0 0 -6.00485e-15 -3.33982e-14 -5.36473e-15 1.45532e-14 0 0 -1.30623e-14 -3.40033e-14 1.9031e-14 1.20217e-14 0 0 -1.1852e-14 -2.31817e-14 1.05109e-14 -5.2179e-15 0 0 -1.13703e-14 -1.73178e-14 2.89412e-15 -5.52013e-15 0 0 -9.04129e-15 -1.50086e-14 -9.57632e-15 -4.56104e-15 0 0 -2.42555e-15 -1.0837e-14 -3.14609e-14 4.42104e-15 0 0 2.08965e-15 -2.00258e-14 -1.85694e-14 2.01517e-15 0 0 -1.27043e-15 -2.05513e-14 -1.14067e-14 -1.40631e-14 0 0 -1.10382e-14 -9.11472e-15 -1.04808e-14 -1.12888e-14 0 0 -7.32329e-15 -1.54793e-14 -9.3854e-16 -8.75388e-15 0 0 -1.27183e-14 -7.74335e-15 -1.87485e-14 4.88488e-15 0 0 -1.68995e-14 -3.6562e-15 -1.17334e-14 -2.85934e-15 0 0 -8.5394e-15 -4.21524e-15 -5.22006e-15 -1.17253e-14 0 0 -3.09657e-15 -4.37898e-15 -2.2594e-14 1.23686e-14 0 0 -5.96419e-16 -1.63306e-14 -1.21338e-14 1.04086e-14 0 0 -9.44706e-15 -1.1714e-14 -2.40678e-14 4.19705e-15 0 0 -9.24615e-15 -1.48456e-14 -1.63562e-14 -9.50727e-15 0 0 -4.33172e-15 -1.29182e-14 3.45114e-16 -2.64737e-14 0 0 -3.63718e-15 7.90187e-15 -2.78989e-14 -5.18478e-15 0 0 -1.49576e-16 1.45581e-14 -4.05112e-14 9.7918e-15 0
				</DataArray>
				<DataArray Name="VitesseY" type="Float32" format="ascii">