<?xml version="1.0"?>
<VTKFile type="PolyData">
	<PolyData>
		<Piece NumberOfPoints="1206" NumberOfPolys="1000">
			<Points>
				<DataArray type="Float32" NumberOfComponents="3" format="ascii">
 0 0 0 0.02 0 0 0.04 0 0 0.06 0 0 0.08 0 0 0.1 0 0 0 0.005 0 0.02 0.005 0 0.04 0.005 0 0.06 0.005 0 0.08 0.005 0 0.1 0.005 0 0 0.01 0 0.02 0.01 0 0.04 0.01 0 0.06 0.01 0 0.08 0.01 0 0.1 0.01 0 0 0.015 0 0.02 0.015 0 0.04 0.015 0 0.06 0.015 0 0.08 0.015 0 0.1 0.015 0 0 0.02 0 0.02 0.02 0 0.04 0.02 0 0.06 0.02 0 0.08 0.02 0 0.1 0.02 0 0 0.025 0 0.02 0.025 0 0.04 0.025 0 0.06 0.025 0 0.08 0.025 0 0.1 0.025 0 0 0.03 0 0.02 0.03 0 0.04 0.03 0 0.06 0.03 0 0.08 0.03 0 0.1 0.03 0 0 0.035 0 0.02 0.035 0 0.04 0.035 0 0.06 0.035 0 0.08 0.035 0 0.1 0.035 0 0 0.04 0 0.02 0.04 0 0.04 0.04 0 0.06 0.04 0 0.08 0.04 0 0.1 0.04 0 0 0.045 0 0.02 0.045 0 0.04 0.045 0 0.06 0.045 0 0.08 0.045 0 0.1 0.045 0 0 0.05 0 0.02 0.05 0 0.04 0.05 0 0.06 0.05 0 0.08 0.05 0 0.1 0.05 0 0 0.055 0 0.02 0.055 0 0.04 0.055 0 0.06 0.055 0 0.08 0.055 0 0.1 0.055 0 0 0.06 0 0.02 0.06 0 0.04 0.06 0 0.06 0.06 0 0.08 0.06 0 0.1 0.06 0 0 0.065 0 0.02 0.065 0 0.04 0.065 0 0.06 0.065 0 0.08 0.065 0 0.1 0.065 0 0 0.07 0 0.02 0.07 0 0.04 0.07 0 0.06 0.07 0 0.08 0.07 0 0.1 0.07 0 0 0.075 0 0.02 0.075 0 0.04 0.075 0 0.06 0.075 0 0.08 0.075 0 0.1 0.075 0 0 0.08 0 0.02 0.08 0 0.04 0.08 0 0.06 0.08 0 0.08 0.08 0 0.1 0.08 0 0 0.085 0 0.02 0.085 0 0.04 0.085 0 0.06 0.085 0 0.08 0.085 0 0.1 0.085 0 0 0.09 0 0.02 0.09 0 0.04 0.09 0 0.06 0.09 0 0.08 0.09 0 0.1 0.09 0 0 0.095 0 0.02 0.095 0 0.04 0.095 0 0.06 0.095 0 0.08 0.095 0 0.1 0.095 0 0 0.1 0 0.02 0.1 0 0.04 0.1 0 0.06 0.1 0 0.08 0.1 0 0.1 0.1 0 0 0.105 0 0.02 0.105 0 0.04 0.105 0 0.06 0.105 0 0.08 0.105 0 0.1 0.105 0 0 0.11 0 0.02 0.11 0 0.04 0.11 0 0.06 0.11 0 0.08 0.11 0 0.1 0.11 0 0 0.115 0 0.02 0.115 0 0.04 0.115 0 0.06 0.115 0 0.08 0.115 0 0.1 0.115 0 0 0.12 0 0.02 0.12 0 0.04 0.12 0 0.06 0.12 0 0.08 0.12 0 0.1 0.12 0 0 0.125 0 0.02 0.125 0 0.04 0.125 0 0.06 0.125 0 0.08 0.125 0 0.1 0.125 0 0 0.13 0 0.02 0.13 0 0.04 0.13 0 0.06 0.13 0 0.08 0.13 0 0.1 0.13 0 0 0.135 0 0.02 0.135 0 0.04 0.135 0 0.06 0.135 0 0.08 0.135 0 0.1 0.135 0 0 0.14 0 0.02 0.14 0 0.04 0.14 0 0.06 0.14 0 0.08 0.14 0 0.1 0.14 0 0 0.145 0 0.02 0.145 0 0.04 0.145 0 0.06 0.145 0 0.08 0.145 0 0.1 0.145 0 0 0.15 0 0.02 0.15 0 0.04 0.15 0 0.06 0.15 0 0.08 0.15 0 0.1 0.15 0 0 0.155 0 0.02 0.155 0 0.04 0.155 0 0.06 0.155 0 0.08 0.155 0 0.1 0.155 0 0 0.16 0 0.02 0.16 0 0.04 0.16 0 0.06 0.16 0 0.08 0.16 0 0.1 0.16 0 0 0.165 0 0.02 0.165 0 0.04 0.165 0 0.06 0.165 0 0.08 0.165 0 0.1 0.165 0 0 0.17 0 0.02 0.17 0 0.04 0.17 0 0.06 0.17 0 0.08 0.17 0 0.1 0.17 0 0 0.175 0 0.02 0.175 0 0.04 0.175 0 0.06 0.175 0 0.08 0.175 0 0.1 0.175 0 0 0.18 0 0.02 0.18 0 0.04 0.18 0 0.06 0.18 0 0.08 0.18 0 0.1 0.18 0 0 0.185 0 0.02 0.185 0 0.04 0.185 0 0.06 0.185 0 0.08 0.185 0 0.1 0.185 0 0 0.19 0 0.02 0.19 0 0.04 0.19 0 0.06 0.19 0 0.08 0.19 0 0.1 0.19 0 0 0.195 0 0.02 0.195 0 0.04 0.195 0 0.06 0.195 0 0.08 0.195 0 0.1 0.195 0 0 0.2 0 0.02 0.2 0 0.04 0.2 0 0.06 0.2 0 0.08 0.2 0 0.1 0.2 0 0 0.205 0 0.02 0.205 0 0.04 0.205 0 0.06 0.205 0 0.08 0.205 0 0.1 0.205 0 0 0.21 0 0.02 0.21 0 0.04 0.21 0 0.06 0.21 0 0.08 0.21 0 0.1 0.21 0 0 0.215 0 0.02 0.215 0 0.04 0.215 0 0.06 0.215 0 0.08 0.215 0 0.1 0.215 0 0 0.22 0 0.02 0.22 0 0.04 0.22 0 0.06 0.22 0 0.08 0.22 0 0.1 0.22 0 0 0.225 0 0.02 0.225 0 0.04 0.225 0 0.06 0.225 0 0.08 0.225 0 0.1 0.225 0 0 0.23 0 0.02 0.23 0 0.04 0.23 0 0.06 0.23 0 0.08 0.23 0 0.1 0.23 0 0 0.235 0 0.02 0.235 0 0.04 0.235 0 0.06 0.235 0 0.08 0.235 0 0.1 0.235 0 0 0.24 0 0.02 0.24 0 0.04 0.24 0 0.06 0.24 0 0.08 0.24 0 0.1 0.24 0 0 0.245 0 0.02 0.245 0 0.04 0.245 0 0.06 0.245 0 0.08 0.245 0 0.1 0.245 0 0 0.25 0 0.02 0.25 0 0.04 0.25 0 0.06 0.25 0 0.08 0.25 0 0.1 0.25 0 0 0.255 0 0.02 0.255 0 0.04 0.255 0 0.06 0.255 0 0.08 0.255 0 0.1 0.255 0 0 0.26 0 0.02 0.26 0 0.04 0.26 0 0.06 0.26 0 0.08 0.26 0 0.1 0.26 0 0 0.265 0 0.02 0.265 0 0.04 0.265 0 0.06 0.265 0 0.08 0.265 0 0.1 0.265 0 0 0.27 0 0.02 0.27 0 0.04 0.27 0 0.06 0.27 0 0.08 0.27 0 0.1 0.27 0 0 0.275001 0 0.02 0.275001 0 0.04 0.275001 0 0.06 0.275001 0 0.08 0.275001 0 0.1 0.275001 0 0 0.280002 0 0.02 0.280002 0 0.04 0.280002 0 0.06 0.280002 0 0.08 0.280002 0 0.1 0.280002 0 0 0.285006 0 0.02 0.285006 0 0.04 0.285006 0 0.06 0.285006 0 0.08 0.285006 0 0.1 0.285006 0 0 0.290017 0 0.02 0.290017 0 0.04 0.290017 0 0.06 0.290017 0 0.08 0.290017 0 0.1 0.290017 0 0 0.295042 0 0.02 0.295042 0 0.04 0.295042 0 0.06 0.295042 0 0.08 0.295042 0 0.1 0.295042 0 0 0.300093 0 0.02 0.300093 0 0.04 0.300093 0 0.06 0.300093 0 0.08 0.300093 0 0.1 0.300093 0 0 0.305186 0 0.02 0.305186 0 0.04 0.305186 0 0.06 0.305186 0 0.08 0.305186 0 0.1 0.305186 0 0 0.310341 0 0.02 0.310341 0 0.04 0.310341 0 0.06 0.310341 0 0.08 0.310341 0 0.1 0.310341 0 0 0.315576 0 0.02 0.315576 0 0.04 0.315576 0 0.06 0.315576 0 0.08 0.315576 0 0.1 0.315576 0 0 0.320906 0 0.02 0.320906 0 0.04 0.320906 0 0.06 0.320906 0 0.08 0.320906 0 0.1 0.320906 0 0 0.326345 0 0.02 0.326345 0 0.04 0.326345 0 0.06 0.326345 0 0.08 0.326345 0 0.1 0.326345 0 0 0.331902 0 0.02 0.331902 0 0.04 0.331902 0 0.06 0.331902 0 0.08 0.331902 0 0.1 0.331902 0 0 0.337589 0 0.02 0.337589 0 0.04 0.337589 0 0.06 0.337589 0 0.08 0.337589 0 0.1 0.337589 0 0 0.343413 0 0.02 0.343413 0 0.04 0.343413 0 0.06 0.343413 0 0.08 0.343413 0 0.1 0.343413 0 0 0.349383 0 0.02 0.349383 0 0.04 0.349383 0 0.06 0.349383 0 0.08 0.349383 0 0.1 0.349383 0 0 0.35551 0 0.02 0.35551 0 0.04 0.35551 0 0.06 0.35551 0 0.08 0.35551 0 0.1 0.35551 0 0 0.361803 0 0.02 0.361803 0 0.04 0.361803 0 0.06 0.361803 0 0.08 0.361803 0 0.1 0.361803 0 0 0.368273 0 0.02 0.368273 0 0.04 0.368273 0 0.06 0.368273 0 0.08 0.368273 0 0.1 0.368273 0 0 0.374933 0 0.02 0.374933 0 0.04 0.374933 0 0.06 0.374933 0 0.08 0.374933 0 0.1 0.374933 0 0 0.381795 0 0.02 0.381795 0 0.04 0.381795 0 0.06 0.381795 0 0.08 0.381795 0 0.1 0.381795 0 0 0.388873 0 0.02 0.388873 0 0.04 0.388873 0 0.06 0.388873 0 0.08 0.388873 0 0.1 0.388873 0 0 0.396184 0 0.02 0.396184 0 0.04 0.396184 0 0.06 0.396184 0 0.08 0.396184 0 0.1 0.396184 0 0 0.403744 0 0.02 0.403744 0 0.04 0.403744 0 0.06 0.403744 0 0.08 0.403744 0 0.1 0.403744 0 0 0.411574 0 0.02 0.411574 0 0.04 0.411574 0 0.06 0.411574 0 0.08 0.411574 0 0.1 0.411574 0 0 0.419695 0 0.02 0.419695 0 0.04 0.419695 0 0.06 0.419695 0 0.08 0.419695 0 0.1 0.419695 0 0 0.428131 0 0.02 0.428131 0 0.04 0.428131 0 0.06 0.428131 0 0.08 0.428131 0 0.1 0.428131 0 0 0.43691 0 0.02 0.43691 0 0.04 0.43691 0 0.06 0.43691 0 0.08 0.43691 0 0.1 0.43691 0 0 0.446062 0 0.02 0.446062 0 0.04 0.446062 0 0.06 0.446062 0 0.08 0.446062 0 0.1 0.446062 0 0 0.45562 0 0.02 0.45562 0 0.04 0.45562 0 0.06 0.45562 0 0.08 0.45562 0 0.1 0.45562 0 0 0.465621 0 0.02 0.465621 0 0.04 0.465621 0 0.06 0.465621 0 0.08 0.465621 0 0.1 0.465621 0 0 0.476103 0 0.02 0.476103 0 0.04 0.476103 0 0.06 0.476103 0 0.08 0.476103 0 0.1 0.476103 0 0 0.487097 0 0.02 0.487097 0 0.04 0.487097 0 0.06 0.487097 0 0.08 0.487097 0 0.1 0.487097 0 0 0.498614 0 0.02 0.498614 0 0.04 0.498614 0 0.06 0.498614 0 0.08 0.498614 0 0.1 0.498614 0 0 0.510587 0 0.02 0.510587 0 0.04 0.510587 0 0.06 0.510587 0 0.08 0.510587 0 0.1 0.510587 0 0 0.522749 0 0.02 0.522749 0 0.04 0.522749 0 0.06 0.522749 0 0.08 0.522749 0 0.1 0.522749 0 0 0.534827 0 0.02 0.534827 0 0.04 0.534827 0 0.06 0.534827 0 0.08 0.534827 0 0.1 0.534827 0 0 0.546802 0 0.02 0.546802 0 0.04 0.546802 0 0.06 0.546802 0 0.08 0.546802 0 0.1 0.546802 0 0 0.558682 0 0.02 0.558682 0 0.04 0.558682 0 0.06 0.558682 0 0.08 0.558682 0 0.1 0.558682 0 0 0.570495 0 0.02 0.570495 0 0.04 0.570495 0 0.06 0.570495 0 0.08 0.570495 0 0.1 0.570495 0 0 0.582268 0 0.02 0.582268 0 0.04 0.582268 0 0.06 0.582268 0 0.08 0.582268 0 0.1 0.582268 0 0 0.594023 0 0.02 0.594023 0 0.04 0.594023 0 0.06 0.594023 0 0.08 0.594023 0 0.1 0.594023 0 0 0.605768 0 0.02 0.605768 0 0.04 0.605768 0 0.06 0.605768 0 0.08 0.605768 0 0.1 0.605768 0 0 0.617509 0 0.02 0.617509 0 0.04 0.617509 0 0.06 0.617509 0 0.08 0.617509 0 0.1 0.617509 0 0 0.629249 0 0.02 0.629249 0 0.04 0.629249 0 0.06 0.629249 0 0.08 0.629249 0 0.1 0.629249 0 0 0.64099 0 0.02 0.64099 0 0.04 0.64099 0 0.06 0.64099 0 0.08 0.64099 0 0.1 0.64099 0 0 0.652744 0 0.02 0.652744 0 0.04 0.652744 0 0.06 0.652744 0 0.08 0.652744 0 0.1 0.652744 0 0 0.655357 0 0.02 0.655357 0 0.04 0.655357 0 0.06 0.655357 0 0.08 0.655357 0 0.1 0.655357 0 0 0.657895 0 0.02 0.657895 0 0.04 0.657895 0 0.06 0.657895 0 0.08 0.657895 0 0.1 0.657895 0 0 0.660386 0 0.02 0.660386 0 0.04 0.660386 0 0.06 0.660386 0 0.08 0.660386 0 0.1 0.660386 0 0 0.662847 0 0.02 0.662847 0 0.04 0.662847 0 0.06 0.662847 0 0.08 0.662847 0 0.1 0.662847 0 0 0.665285 0 0.02 0.665285 0 0.04 0.665285 0 0.06 0.665285 0 0.08 0.665285 0 0.1 0.665285 0 0 0.667706 0 0.02 0.667706 0 0.04 0.667706 0 0.06 0.667706 0 0.08 0.667706 0 0.1 0.667706 0 0 0.670116 0 0.02 0.670116 0 0.04 0.670116 0 0.06 0.670116 0 0.08 0.670116 0 0.1 0.670116 0 0 0.672516 0 0.02 0.672516 0 0.04 0.672516 0 0.06 0.672516 0 0.08 0.672516 0 0.1 0.672516 0 0 0.67491 0 0.02 0.67491 0 0.04 0.67491 0 0.06 0.67491 0 0.08 0.67491 0 0.1 0.67491 0 0 0.677298 0 0.02 0.677298 0 0.04 0.677298 0 0.06 0.677298 0 0.08 0.677298 0 0.1 0.677298 0 0 0.679682 0 0.02 0.679682 0 0.04 0.679682 0 0.06 0.679682 0 0.08 0.679682 0 0.1 0.679682 0 0 0.682063 0 0.02 0.682063 0 0.04 0.682063 0 0.06 0.682063 0 0.08 0.682063 0 0.1 0.682063 0 0 0.68444 0 0.02 0.68444 0 0.04 0.68444 0 0.06 0.68444 0 0.08 0.68444 0 0.1 0.68444 0 0 0.686814 0 0.02 0.686814 0 0.04 0.686814 0 0.06 0.686814 0 0.08 0.686814 0 0.1 0.686814 0 0 0.689185 0 0.02 0.689185 0 0.04 0.689185 0 0.06 0.689185 0 0.08 0.689185 0 0.1 0.689185 0 0 0.691553 0 0.02 0.691553 0 0.04 0.691553 0 0.06 0.691553 0 0.08 0.691553 0 0.1 0.691553 0 0 0.693919 0 0.02 0.693919 0 0.04 0.693919 0 0.06 0.693919 0 0.08 0.693919 0 0.1 0.693919 0 0 0.696283 0 0.02 0.696283 0 0.04 0.696283 0 0.06 0.696283 0 0.08 0.696283 0 0.1 0.696283 0 0 0.698646 0 0.02 0.698646 0 0.04 0.698646 0 0.06 0.698646 0 0.08 0.698646 0 0.1 
[...]
			<PointData Scalars="VitesseX">
				<DataArray Name="VitesseX" type="Float32" format="ascii">
 0 3.01384e-15 -1.94328e-15 -6.17084e-15 -5.23667e-15 0 0 2.95598e-15 -1.9272e-15 -5.65592e-15 -5.51485e-15 0 0 2.7856e-15 -1.61177e-15 -5.08442e-15 -5.45081e-15 0 0 2.82085e-15 -8.91627e-16 -4.58852e-15 -4.94701e-15 0 0 2.52384e-15 2.73538e-16 -3.13431e-15 -4.80353e-15 0 0 1.53005e-15 2.16865e-15 -9.50662e-16 -4.03711e-15 0 0 1.17676e-15 3.19807e-15 2.68639e-15 -1.82172e-15 0 0 6.59953e-16 4.46096e-15 5.4191e-15 1.58995e-15 0 0 2.74401e-16 6.24114e-15 7.20167e-15 4.78006e-15 0 0 2.07298e-15 7.60061e-15 7.92634e-15 7.42734e-15 0 0 5.74953e-15 7.22366e-15 7.58214e-15 1.04976e-14 0 0 9.61682e-15 7.48824e-15 7.35989e-15 1.1502e-14 0 0 1.00726e-14 1.10405e-14 6.58895e-15 1.06328e-14 0 0 1.01157e-14 1.26111e-14 6.08568e-15 1.22289e-14 0 0 1.05515e-14 1.25655e-14 5.56781e-15 1.36026e-14 0 0 1.07989e-14 1.37296e-14 3.2517e-15 1.15705e-14 0 0 1.14832e-14 1.49917e-14 2.5086e-15 4.56588e-15 0 0 1.04322e-14 1.68679e-14 3.15527e-15 -2.25179e-15 0 0 9.17354e-15 1.84338e-14 2.5303e-15 -7.11916e-15 0 0 1.00274e-14 1.49068e-14 4.42665e-15 -1.05769e-14 0 0 1.11021e-14 9.24966e-15 5.13009e-15 -8.73322e-15 0 0 8.57379e-15 1.02777e-14 5.80632e-16 -5.13969e-15 0 0 3.84032e-15 1.71999e-14 -4.78006e-15 -5.52695e-15 0 0 6.68746e-15 1.08159e-14 1.47654e-15 -1.13276e-14 0 0 1.02068e-14 3.21444e-15 6.23169e-15 -1.07739e-14 0 0 7.12659e-15 3.04405e-15 5.79838e-15 -3.33937e-17 0 0 5.34895e-15 2.36568e-15 2.60212e-15 1.08158e-14 0 0 5.32761e-15 2.07009e-15 -1.86069e-15 1.28801e-14 0 0 7.90561e-15 -5.02461e-15 3.95646e-15 9.08286e-15 0 0 5.31789e-15 -2.66051e-15 7.92429e-15 8.79157e-15 0 0 1.24403e-15 3.96356e-15 7.87076e-15 8.90085e-15 0 0 -1.45893e-15 7.10864e-15 6.73743e-15 8.42159e-15 0 0 -1.06377e-15 4.50732e-15 1.22579e-14 2.71316e-15 0 0 -2.47685e-16 2.87868e-15 2.04213e-14 -2.67737e-15 0 0 1.17801e-15 5.20168e-15 1.875e-14 4.91893e-15 0 0 5.53501e-15 3.30228e-15 1.16711e-14 1.89371e-14 0 0 7.10954e-15 3.89587e-15 7.52272e-15 2.56764e-14 0 0 3.00281e-15 6.37861e-15 8.8984e-15 2.2903e-14 0 0 -7.18123e-16 6.54312e-15 1.39278e-14 2.15038e-14 0 0 -3.62269e-15 8.23148e-15 1.31842e-14 2.72799e-14 0 0 -3.32808e-16 5.56921e-16 2.19906e-14 2.79003e-14 0 0 1.02143e-14 -9.26992e-15 4.0955e-14 2.23692e-14 0 0 8.47539e-15 8.84271e-15 4.56227e-14 2.2275e-14 0 0 1.49287e-14 2.26846e-14 5.27566e-14 2.10734e-14 0 0 2.9439e-14 2.68031e-14 6.23493e-14 1.62648e-14 0 0 3.96257e-14 4.44068e-14 4.7135e-14 2.337e-14 0 0 4.58822e-14 6.25371e-14 4.05219e-14 3.27721e-14 0 0 4.53001e-14 7.06922e-14 5.19947e-14 3.43233e-14 0 0 4.0088e-14 7.18553e-14 6.20172e-14 3.74711e-14 0 0 2.28799e-14 7.88491e-14 7.40743e-14 3.494e-14 0 0 1.37445e-14 7.9554e-14 6.2837e-14 4.08103e-14 0 0 2.89967e-14 4.19324e-14 6.90313e-14 4.38801e-14 0 0 3.1665e-14 1.78125e-14 8.51754e-14 3.44911e-14 0 0 1.54115e-14 1.95614e-14 7.42654e-14 3.41041e-14 0 0 5.29309e-15 2.07965e-14 5.18393e-14 3.60167e-14 0 0 -9.08909e-15 3.72928e-14 3.94452e-14 3.20236e-14 0 0 -1.5517e-14 3.20104e-14 3.08998e-14 4.24717e-14 0 0 -1.09397e-14 1.83361e-14 2.76948e-14 3.76805e-14 0 0 -7.73996e-15 1.86599e-14 3.70768e-14 6.85373e-15 0 0 -1.62675e-14 3.24162e-14 2.37313e-14 -3.4982e-15 0 0 -3.15166e-14 2.93018e-14 3.72745e-14 -1.61061e-14 0 0 -1.80966e-14 1.89867e-14 3.4119e-14 -2.02222e-14 0 0 6.56065e-15 2.23988e-14 -4.07483e-15 -8.37909e-15 0 0 5.72129e-15 1.22972e-14 -7.11984e-16 -1.52727e-14 0 0 6.04886e-15 1.85539e-15 7.48343e-15 -1.8444e-14 0 0 -1.51576e-14 1.69844e-14 -1.0425e-14 -4.85067e-15 0 0 -2.47261e-14 3.42133e-14 -1.53584e-14 -1.19061e-14 0 0 1.90121e-14 2.61677e-14 -2.72537e-14 -2.12709e-14 0 0 3.25211e-14 -6.89055e-16 -2.80645e-14 -2.80761e-15 0 0 1.868e-14 -3.2947e-15 -2.38512e-14 9.94988e-16 0 0 4.30187e-15 1.51208e-14 -2.72503e-14 -1.73118e-14 0 0 -1.05412e-14 1.46651e-14 -1.41526e-14 -3.02322e-14 0 0 5.3356e-15 -1.83653e-15 -8.10103e-15 -4.13727e-14 0 0 8.75787e-15 -7.04656e-15 -1.10431e-14 -3.00552e-14 0 0 9.924e-15 -2.09835e-16 -3.08836e-14 -3.89485e-15 0 0 3.1437e-15 8.3033e-15 -4.15526e-14 5.5977e-15 0 0 -6.19779e-15 1.53569e-14 -2.49004e-14 5.8246e-15 0 0 1.21982e-14 1.29255e-14 -2.2641e-14 -3.55697e-15 0 0 8.89279e-15 6.26361e-15 -1.27405e-14 -1.39695e-15 0 0 7.06617e-15 9.65379e-15 -1.38472e-15 -6.51318e-15 0 0 1.01087e-14 5.77937e-15 2.84306e-15 -2.17314e-14 0 0 1.71056e-14 -1.31837e-14 8.48754e-15 -1.81109e-14 0 0 -7.67939e-15 -1.11662e-14 2.2467e-14 -3.87942e-15 0 0 -3.49378e-15 -1.45858e-14 2.40482e-14 1.37155e-14 0 0 3.40642e-15 -7.79547e-15 -5.81887e-15 9.52921e-15 0 0 -1.2617e-14 -6.22862e-15 -1.00855e-14 -1.22874e-14 0 0 -7.79702e-15 -1.81003e-14 1.28141e-14 -2.28796e-14 0 0 2.34978e-17 -2.54387e-14 2.18528e-14 -1.95305e-14 0 0 2.99328e-15 -1.56295e-15 2.14196e-14 9.86268e-15 0 0 -7.96811e-15 1.37584e-14 -5.92253e-15 6.54293e-15 0 0 -1.11682e-14 -5.03589e-15 -2.5678e-14 1.25902e-14 0 0 -1.40464e-14 -3.46248e-14 -3.15061e-14 -4.26066e-15 0 0 -2.36993e-14 -5.02376e-14 -5.62684e-14 -2.24129e-14 0 0 -3.67133e-14 -4.17972e-14 -5.87702e-14 -3.0623e-14 0 0 -3.41673e-14 -3.86739e-14 -4.06702e-14 -2.85177e-14 0 0 -1.09556e-14 -1.61413e-14 -1.41148e-14 -3.46123e-16 0 0 1.76761e-14 1.09205e-14 1.19952e-14 1.61776e-14 0 0 2.0592e-14 3.63833e-14 4.11017e-14 1.60553e-14 0 0 2.17949e-14 4.61668e-14 6.00102e-14 3.0669e-14 0 0 2.78645e-14 4.18802e-14 4.81182e-14 3.92771e-14 0 0 2.58559e-14 4.89383e-14 4.85325e-14 2.309e-14 0 0 2.57159e-14 4.88269e-14 2.42191e-14 3.69382e-14 0 0 3.70651e-14 4.49364e-14 2.33018e-14 2.60704e-14 0 0 4.03593e-14 -1.34936e-15 5.96979e-14 1.71903e-14 0 0 1.24784e-14 -9.4888e-15 7.08397e-15 3.73113e-14 0 0 1.05637e-14 -9.69988e-16 -3.21863e-14 2.27094e-14 0 0 -3.5927e-15 9.53939e-15 -4.16972e-14 -9.58216e-15 0 0 -9.0267e-15 1.88222e-14 -2.89922e-14 5.74488e-15 0 0 3.82031e-14 9.2757e-14 3.09911e-14 3.74875e-14 0 0 1.34567e-13 2.45007e-13 2.03215e-13 1.18852e-13 0 0 2.55589e-13 4.45951e-13 4.27184e-13 2.48326e-13 0 0 3.60695e-13 5.94909e-13 5.95827e-13 3.24899e-13 0 0 4.30655e-13 6.92004e-13 6.87801e-13 3.64302e-13 0 0 4.24109e-13 6.93465e-13 6.86484e-13 3.88526e-13 0 0 3.77807e-13 6.31775e-13 6.26431e-13 3.72193e-13 0 0 3.55014e-13 5.53023e-13 6.05681e-13 3.10999e-13 0 0 3.01868e-13 4.73058e-13 5.34506e-13 2.59447e-13 0 0 2.60409e-13 4.22446e-13 4.40499e-13 2.69419e-13 0 0 2.2625e-13 3.73123e-13 4.09202e-13 2.08711e-13 0 0 1.71566e-13 3.1781e-13 3.84451e-13 1.72805e-13 0 0 1.59748e-13 2.76312e-13 3.51321e-13 1.52727e-13 0 0 1.24979e-13 2.76152e-13 3.06761e-13 1.43608e-13 0 0 9.38208e-14 2.56677e-13 2.69131e-13 1.60035e-13 0 0 7.18704e-14 2.44735e-13 2.40942e-13 1.05355e-13 0 0 5.84127e-14 1.9552e-13 2.38261e-13 1.21797e-13 0 0 5.88726e-14 1.76696e-13 1.9597e-13 1.91157e-13 0 0 5.48458e-14 1.3637e-13 2.46125e-13 1.23351e-13 0 0 4.83988e-14 9.8383e-14 2.75306e-13 9.93228e-14 0 0 1.68907e-14 1.34543e-13 2.40708e-13 1.04976e-13 0 0 1.63668e-14 1.05174e-13 2.67231e-13 5.57907e-14 0 0 1.79744e-14 1.01625e-13 2.78659e-13 8.59035e-14 0 0 5.05904e-14 8.58201e-14 2.285e-13 9.0953e-14 0 0 8.35493e-14 4.42862e-14 2.57467e-13 9.212e-14 0 0 7.72764e-14 2.09226e-14 2.61805e-13 5.89602e-14 0 0 7.35436e-14 2.67343e-14 2.16779e-13 1.00011e-13 0 0 6.14034e-14 4.84802e-14 2.18107e-13 7.11488e-14 0 0 5.24755e-14 6.44456e-14 1.79889e-13 3.61196e-14 0 0 4.25555e-14 6.81034e-14 1.53952e-13 1.24308e-13 0 0 1.89756e-14 1.24835e-13 8.16389e-14 2.92454e-14 0 0 -1.13446e-15 1.82529e-13 2.61075e-14 -2.07573e-14 0 0 -7.36162e-15 1.64172e-13 -2.12249e-14 3.43197e-14 0 0 3.45284e-14 1.0049e-13 -5.29383e-14 4.99365e-14 0 0 5.51411e-14 5.8597e-14 -7.28026e-14 6.57214e-14 0 0 3.49223e-15 1.30988e-13 -1.2849e-13 1.4335e-14 0 0 -2.20375e-14 1.05208e-13 -8.92718e-14 -3.91152e-14 0 0 1.40795e-14 1.28942e-14 -8.04681e-14 3.48747e-14 0 0 2.00685e-14 -4.71364e-14 -7.72509e-14 9.34333e-14 0 0 -1.9664e-14 -2.44319e-14 -1.19395e-13 1.03022e-13 0 0 -6.7064e-14 2.02649e-14 -1.50481e-13 9.50804e-14 0 0 7.51682e-15 -8.21336e-14 -8.16913e-14 6.658e-14 0 0 4.22387e-14 -1.20704e-13 -5.13172e-14 6.31283e-14 0 0 2.43903e-14 -6.43022e-14 -7.46325e-14 -3.4442e-14 0 0 -1.38537e-14 -2.07734e-14 -1.95453e-14 -1.7658e-13 0 0 -1.35288e-14 -7.35228e-14 4.1852e-14 -2.16183e-13 0 0 -5.93519e-14 -3.02184e-14 -3.85526e-14 -1.72538e-13 0 0 -8.83165e-14 -6.94245e-14 -7.87489e-14 -9.41326e-14 0 0 -6.26777e-14 -6.33148e-14 -8.97921e-14 -1.06305e-14 0 0 -5.46843e-14 -2.50181e-14 -8.77494e-14 8.26325e-15 0 0 -3.35082e-14 -3.95376e-14 -1.89495e-14 -5.0618e-14 0 0 1.07284e-14 2.6258e-14 -2.5869e-14 -2.54939e-14 0 0 3.49787e-14 2.36689e-14 6.17873e-14 -1.9974e-14 0 0 2.45362e-14 5.57205e-14 1.09433e-13 6.55242e-14 0 0 4.26063e-14 1.21635e-13 1.0775e-13 1.21491e-13 0 0 5.23217e-14 1.40771e-13 1.36759e-13 1.06105e-13 0 0 6.62584e-14 1.55616e-13 1.44628e-13 1.38513e-13 0 0 9.77452e-14 1.55612e-13 1.67224e-13 1.21239e-13 0 0 8.56204e-14 1.66258e-13 1.79104e-13 1.23153e-13 0 0 6.19596e-14 1.81792e-13 1.95203e-13 1.04385e-13 0 0 6.87425e-14 1.86952e-13 1.97034e-13 1.19099e-13 0 0 7.82738e-14 1.95761e-13 1.95303e-13 1.22855e-13 0 0 8.46862e-14 1.90321e-13 2.1955e-13 7.62867e-14 0 0 9.89768e-14 1.75101e-13 2.10804e-13 9.86112e-14 0 0 1.03719e-13 1.90495e-13 1.96978e-13 1.12444e-13 0 0 1.0907e-13 1.94694e-13 1.83636e-13 1.48801e-13 0 0 1.02736e-13 1.91304e-13 1.77529e-13 1.65775e-13 0 0 7.58064e-14 2.05167e-13 1.82879e-13 1.49807e-13 0 0 7.36929e-14 2.08415e-13 1.66997e-13 1.70746e-13 0 0 9.18252e-14 1.77164e-13 1.93201e-13 1.56764e-13 0 0 9.35266e-14 1.6199e-13 1.81362e-13 1.57646e-13 0 0 7.8125e-14 1.76721e-13 1.76026e-13 1.44312e-13 0 0 7.74338e-14 1.72043e-13 2.07388e-13 9.99716e-14 0 0 1.06361e-13 1.35916e-13 1.95733e-13 9.80901e-14 0 0 1.09757e-13 1.26663e-13 1.96005e-13 7.65412e-14 0 0 7.44843e-14 1.77913e-13 1.70447e-13 4.98295e-14 0 0 6.4682e-14 1.74413e-13 1.85323e-13 3.9523e-15 0 0 9.98764e-14 1.10578e-13 1.85435e-13 2.6921e-14 0 0 8.53616e-14 1.02935e-13 1.45987e-13 7.3958e-14 0 0 6.08282e-14 1.30442e-13 1.22547e-13 8.48002e-14 0 0 7.97295e-14 1.14137e-13 1.42177e-13 8.83832e-14 0 0 9.58699e-14 9.30225e-14 1.81419e-13 6.11877e-14 0 0 7.84079e-14 1.14005e-13 1.51296e-13 7.46543e-14 0 0 5.56316e-14 1.16895e-13 1.67949e-13 7.7571e-14 0 0 3.88155e-14 1.44047e-13 1.3668e-13 8.33998e-14 0 0 5.59172e-15 1.6568e-13 8.04449e-14 9.5745e-14 0 0 -1.36131e-15 1.37425e-13 1.24981e-13 5.88957e-14 0 0 -1.84287e-14 1.54605e-13 1.3005e-13 8.67276e-14 0 0 1.31421e-14 1.2707e-13 1.35132e-13 1.37253e-13 0 0 4.01173e-14 1.16713e-13 1.21748e-13 1.64303e-13 0 0 3.67439e-14 1.10901e-13 1.3265e-13 1.82739e-13 0 0 2.88245e-14 1.01084e-13 1.71405e-13 1.53811e-13 0 0 2.00467e-15 1.32097e-13 1.64131e-13 1.41558e-13 0
				</DataArray>
				<DataArray Name="VitesseY" type="Float32" format="ascii">