<?xml version="1.0"?>
<VTKFile type="PolyData">
	<PolyData>
		<Piece NumberOfPoints="1206" NumberOfPolys="1000">
			<Points>
				<DataArray type="Float32" NumberOfComponents="3" format="ascii">
 0 0 0 0.02 0 0 0.04 0 0 0.06 0 0 0.08 0 0 0.1 0 0 0 0.005 0 0.02 0.005 0 0.04 0.005 0 0.06 0.005 0 0.08 0.005 0 0.1 0.005 0 0 0.01 0 0.02 0.01 0 0.04 0.01 0 0.06 0.01 0 0.08 0.01 0 0.1 0.01 0 0 0.015 0 0.02 0.015 0 0.04 0.015 0 0.06 0.015 0 0.08 0.015 0 0.1 0.015 0 0 0.02 0 0.02 0.02 0 0.04 0.02 0 0.06 0.02 0 0.08 0.02 0 0.1 0.02 0 0 0.025 0 0.02 0.025 0 0.04 0.025 0 0.06 0.025 0 0.08 0.025 0 0.1 0.025 0 0 0.03 0 0.02 0.03 0 0.04 0.03 0 0.06 0.03 0 0.08 0.03 0 0.1 0.03 0 0 0.035 0 0.02 0.035 0 0.04 0.035 0 0.06 0.035 0 0.08 0.035 0 0.1 0.035 0 0 0.04 0 0.02 0.04 0 0.04 0.04 0 0.06 0.04 0 0.08 0.04 0 0.1 0.04 0 0 0.045 0 0.02 0.045 0 0.04 0.045 0 0.06 0.045 0 0.08 0.045 0 0.1 0.045 0 0 0.05 0 0.02 0.05 0 0.04 0.05 0 0.06 0.05 0 0.08 0.05 0 0.1 0.05 0 0 0.055 0 0.02 0.055 0 0.04 0.055 0 0.06 0.055 0 0.08 0.055 0 0.1 0.055 0 0 0.06 0 0.02 0.06 0 0.04 0.06 0 0.06 0.06 0 0.08 0.06 0 0.1 0.06 0 0 0.065 0 0.02 0.065 0 0.04 0.065 0 0.06 0.065 0 0.08 0.065 0 0.1 0.065 0 0 0.07 0 0.02 0.07 0 0.04 0.07 0 0.06 0.07 0 0.08 0.07 0 0.1 0.07 0 0 0.075 0 0.02 0.075 0 0.04 0.075 0 0.06 0.075 0 0.08 0.075 0 0.1 0.075 0 0 0.08 0 0.02 0.08 0 0.04 0.08 0 0.06 0.08 0 0.08 0.08 0 0.1 0.08 0 0 0.085 0 0.02 0.085 0 0.04 0.085 0 0.06 0.085 0 0.08 0.085 0 0.1 0.085 0 0 0.09 0 0.02 0.09 0 0.04 0.09 0 0.06 0.09 0 0.08 0.09 0 0.1 0.09 0 0 0.095 0 0.02 0.095 0 0.04 0.095 0 0.06 0.095 0 0.08 0.095 0 0.1 0.095 0 0 0.1 0 0.02 0.1 0 0.04 0.1 0 0.06 0.1 0 0.08 0.1 0 0.1 0.1 0 0 0.105 0 0.02 0.105 0 0.04 0.105 0 0.06 0.105 0 0.08 0.105 0 0.1 0.105 0 0 0.11 0 0.02 0.11 0 0.04 0.11 0 0.06 0.11 0 0.08 0.11 0 0.1 0.11 0 0 0.115 0 0.02 0.115 0 0.04 0.115 0 0.06 0.115 0 0.08 0.115 0 0.1 0.115 0 0 0.12 0 0.02 0.12 0 0.04 0.12 0 0.06 0.12 0 0.08 0.12 0 0.1 0.12 0 0 0.125 0 0.02 0.125 0 0.04 0.125 0 0.06 0.125 0 0.08 0.125 0 0.1 0.125 0 0 0.13 0 0.02 0.13 0 0.04 0.13 0 0.06 0.13 0 0.08 0.13 0 0.1 0.13 0 0 0.135 0 0.02 0.135 0 0.04 0.135 0 0.06 0.135 0 0.08 0.135 0 0.1 0.135 0 0 0.14 0 0.02 0.14 0 0.04 0.14 0 0.06 0.14 0 0.08 0.14 0 0.1 0.14 0 0 0.145 0 0.02 0.145 0 0.04 0.145 0 0.06 0.145 0 0.08 0.145 0 0.1 0.145 0 0 0.15 0 0.02 0.15 0 0.04 0.15 0 0.06 0.15 0 0.08 0.15 0 0.1 0.15 0 0 0.155 0 0.02 0.155 0 0.04 0.155 0 0.06 0.155 0 0.08 0.155 0 0.1 0.155 0 0 0.16 0 0.02 0.16 0 0.04 0.16 0 0.06 0.16 0 0.08 0.16 0 0.1 0.16 0 0 0.165 0 0.02 0.165 0 0.04 0.165 0 0.06 0.165 0 0.08 0.165 0 0.1 0.165 0 0 0.17 0 0.02 0.17 0 0.04 0.17 0 0.06 0.17 0 0.08 0.17 0 0.1 0.17 0 0 0.175 0 0.02 0.175 0 0.04 0.175 0 0.06 0.175 0 0.08 0.175 0 0.1 0.175 0 0 0.18 0 0.02 0.18 0 0.04 0.18 0 0.06 0.18 0 0.08 0.18 0 0.1 0.18 0 0 0.185 0 0.02 0.185 0 0.04 0.185 0 0.06 0.185 0 0.08 0.185 0 0.1 0.185 0 0 0.19 0 0.02 0.19 0 0.04 0.19 0 0.06 0.19 0 0.08 0.19 0 0.1 0.19 0 0 0.195 0 0.02 0.195 0 0.04 0.195 0 0.06 0.195 0 0.08 0.195 0 0.1 0.195 0 0 0.2 0 0.02 0.2 0 0.04 0.2 0 0.06 0.2 0 0.08 0.2 0 0.1 0.2 0 0 0.205 0 0.02 0.205 0 0.04 0.205 0 0.06 0.205 0 0.08 0.205 0 0.1 0.205 0 0 0.21 0 0.02 0.21 0 0.04 0.21 0 0.06 0.21 0 0.08 0.21 0 0.1 0.21 0 0 0.215 0 0.02 0.215 0 0.04 0.215 0 0.06 0.215 0 0.08 0.215 0 0.1 0.215 0 0 0.22 0 0.02 0.22 0 0.04 0.22 0 0.06 0.22 0 0.08 0.22 0 0.1 0.22 0 0 0.225 0 0.02 0.225 0 0.04 0.225 0 0.06 0.225 0 0.08 0.225 0 0.1 0.225 0 0 0.23 0 0.02 0.23 0 0.04 0.23 0 0.06 0.23 0 0.08 0.23 0 0.1 0.23 0 0 0.235 0 0.02 0.235 0 0.04 0.235 0 0.06 0.235 0 0.08 0.235 0 0.1 0.235 0 0 0.240001 0 0.02 0.240001 0 0.04 0.240001 0 0.06 0.240001 0 0.08 0.240001 0 0.1 0.240001 0 0 0.245004 0 0.02 0.245004 0 0.04 0.245004 0 0.06 0.245004 0 0.08 0.245004 0 0.1 0.245004 0 0 0.250011 0 0.02 0.250011 0 0.04 0.250011 0 0.06 0.250011 0 0.08 0.250011 0 0.1 0.250011 0 0 0.255026 0 0.02 0.255026 0 0.04 0.255026 0 0.06 0.255026 0 0.08 0.255026 0 0.1 0.255026 0 0 0.260057 0 0.02 0.260057 0 0.04 0.260057 0 0.06 0.260057 0 0.08 0.260057 0 0.1 0.260057 0 0 0.265117 0 0.02 0.265117 0 0.04 0.265117 0 0.06 0.265117 0 0.08 0.265117 0 0.1 0.265117 0 0 0.270218 0 0.02 0.270218 0 0.04 0.270218 0 0.06 0.270218 0 0.08 0.270218 0 0.1 0.270218 0 0 0.275375 0 0.02 0.275375 0 0.04 0.275375 0 0.06 0.275375 0 0.08 0.275375 0 0.1 0.275375 0 0 0.280604 0 0.02 0.280604 0 0.04 0.280604 0 0.06 0.280604 0 0.08 0.280604 0 0.1 0.280604 0 0 0.285914 0 0.02 0.285914 0 0.04 0.285914 0 0.06 0.285914 0 0.08 0.285914 0 0.1 0.285914 0 0 0.291315 0 0.02 0.291315 0 0.04 0.291315 0 0.06 0.291315 0 0.08 0.291315 0 0.1 0.291315 0 0 0.296815 0 0.02 0.296815 0 0.04 0.296815 0 0.06 0.296815 0 0.08 0.296815 0 0.1 0.296815 0 0 0.302421 0 0.02 0.302421 0 0.04 0.302421 0 0.06 0.302421 0 0.08 0.302421 0 0.1 0.302421 0 0 0.308139 0 0.02 0.308139 0 0.04 0.308139 0 0.06 0.308139 0 0.08 0.308139 0 0.1 0.308139 0 0 0.313974 0 0.02 0.313974 0 0.04 0.313974 0 0.06 0.313974 0 0.08 0.313974 0 0.1 0.313974 0 0 0.319934 0 0.02 0.319934 0 0.04 0.319934 0 0.06 0.319934 0 0.08 0.319934 0 0.1 0.319934 0 0 0.326025 0 0.02 0.326025 0 0.04 0.326025 0 0.06 0.326025 0 0.08 0.326025 0 0.1 0.326025 0 0 0.332254 0 0.02 0.332254 0 0.04 0.332254 0 0.06 0.332254 0 0.08 0.332254 0 0.1 0.332254 0 0 0.338629 0 0.02 0.338629 0 0.04 0.338629 0 0.06 0.338629 0 0.08 0.338629 0 0.1 0.338629 0 0 0.345158 0 0.02 0.345158 0 0.04 0.345158 0 0.06 0.345158 0 0.08 0.345158 0 0.1 0.345158 0 0 0.35185 0 0.02 0.35185 0 0.04 0.35185 0 0.06 0.35185 0 0.08 0.35185 0 0.1 0.35185 0 0 0.358713 0 0.02 0.358713 0 0.04 0.358713 0 0.06 0.358713 0 0.08 0.358713 0 0.1 0.358713 0 0 0.365758 0 0.02 0.365758 0 0.04 0.365758 0 0.06 0.365758 0 0.08 0.365758 0 0.1 0.365758 0 0 0.372996 0 0.02 0.372996 0 0.04 0.372996 0 0.06 0.372996 0 0.08 0.372996 0 0.1 0.372996 0 0 0.38044 0 0.02 0.38044 0 0.04 0.38044 0 0.06 0.38044 0 0.08 0.38044 0 0.1 0.38044 0 0 0.388102 0 0.02 0.388102 0 0.04 0.388102 0 0.06 0.388102 0 0.08 0.388102 0 0.1 0.388102 0 0 0.395998 0 0.02 0.395998 0 0.04 0.395998 0 0.06 0.395998 0 0.08 0.395998 0 0.1 0.395998 0 0 0.404142 0 0.02 0.404142 0 0.04 0.404142 0 0.06 0.404142 0 0.08 0.404142 0 0.1 0.404142 0 0 0.412553 0 0.02 0.412553 0 0.04 0.412553 0 0.06 0.412553 0 0.08 0.412553 0 0.1 0.412553 0 0 0.42125 0 0.02 0.42125 0 0.04 0.42125 0 0.06 0.42125 0 0.08 0.42125 0 0.1 0.42125 0 0 0.430254 0 0.02 0.430254 0 0.04 0.430254 0 0.06 0.430254 0 0.08 0.430254 0 0.1 0.430254 0 0 0.439589 0 0.02 0.439589 0 0.04 0.439589 0 0.06 0.439589 0 0.08 0.439589 0 0.1 0.439589 0 0 0.44928 0 0.02 0.44928 0 0.04 0.44928 0 0.06 0.44928 0 0.08 0.44928 0 0.1 0.44928 0 0 0.459354 0 0.02 0.459354 0 0.04 0.459354 0 0.06 0.459354 0 0.08 0.459354 0 0.1 0.459354 0 0 0.46984 0 0.02 0.46984 0 0.04 0.46984 0 0.06 0.46984 0 0.08 0.46984 0 0.1 0.46984 0 0 0.480762 0 0.02 0.480762 0 0.04 0.480762 0 0.06 0.480762 0 0.08 0.480762 0 0.1 0.480762 0 0 0.492133 0 0.02 0.492133 0 0.04 0.492133 0 0.06 0.492133 0 0.08 0.492133 0 0.1 0.492133 0 0 0.503928 0 0.02 0.503928 0 0.04 0.503928 0 0.06 0.503928 0 0.08 0.503928 0 0.1 0.503928 0 0 0.516017 0 0.02 0.516017 0 0.04 0.516017 0 0.06 0.516017 0 0.08 0.516017 0 0.1 0.516017 0 0 0.52812 0 0.02 0.52812 0 0.04 0.52812 0 0.06 0.52812 0 0.08 0.52812 0 0.1 0.52812 0 0 0.54014 0 0.02 0.54014 0 0.04 0.54014 0 0.06 0.54014 0 0.08 0.54014 0 0.1 0.54014 0 0 0.552073 0 0.02 0.552073 0 0.04 0.552073 0 0.06 0.552073 0 0.08 0.552073 0 0.1 0.552073 0 0 0.563931 0 0.02 0.563931 0 0.04 0.563931 0 0.06 0.563931 0 0.08 0.563931 0 0.1 0.563931 0 0 0.575733 0 0.02 0.575733 0 0.04 0.575733 0 0.06 0.575733 0 0.08 0.575733 0 0.1 0.575733 0 0 0.587502 0 0.02 0.587502 0 0.04 0.587502 0 0.06 0.587502 0 0.08 0.587502 0 0.1 0.587502 0 0 0.599254 0 0.02 0.599254 0 0.04 0.599254 0 0.06 0.599254 0 0.08 0.599254 0 0.1 0.599254 0 0 0.610996 0 0.02 0.610996 0 0.04 0.610996 0 0.06 0.610996 0 0.08 0.610996 0 0.1 0.610996 0 0 0.622735 0 0.02 0.622735 0 0.04 0.622735 0 0.06 0.622735 0 0.08 0.622735 0 0.1 0.622735 0 0 0.634471 0 0.02 0.634471 0 0.04 0.634471 0 0.06 0.634471 0 0.08 0.634471 0 0.1 0.634471 0 0 0.646206 0 0.02 0.646206 0 0.04 0.646206 0 0.06 0.646206 0 0.08 0.646206 0 0.1 0.646206 0 0 0.657942 0 0.02 0.657942 0 0.04 0.657942 0 0.06 0.657942 0 0.08 0.657942 0 0.1 0.657942 0 0 0.66968 0 0.02 0.66968 0 0.04 0.66968 0 0.06 0.66968 0 0.08 0.66968 0 0.1 0.66968 0 0 0.681432 0 0.02 0.681432 0 0.04 0.681432 0 0.06 0.681432 0 0.08 0.681432 0 0.1 0.681432 0 0 0.684045 0 0.02 0.684045 0 0.04 0.684045 0 0.06 0.684045 0 0.08 0.684045 0 0.1 0.684045 0 0 0.686583 0 0.02 0.686583 0 0.04 0.686583 0 0.06 0.686583 0 0.08 0.686583 0 0.1 0.686583 0 0 0.689074 0 0.02 0.689074 0 0.04 0.689074 0 0.06 0.689074 0 0.08 0.689074 0 0.1 0.689074 0 0 0.691534 0 0.02 0.691534 0 0.04 0.691534 0 0.06 0.691534 0 0.08 0.691534 0 0.1 0.691534 0 0 0.693971 0 0.02 0.693971 0 0.04 0.693971 0 0.06 0.693971 0 0.08 0.693971 0 0.1 0.693971 0 0 0.696393 0 0.02 0.696393 0 0.04 0.696393 0 0.06 0.696393 0 0.08 0.696393 0 0.1 0.696393 0 0 0.698802 0 0.02 0.698802 0 0.04 0.698802 0 0.06 0.698802 0 0.08 0.698802 0 0.1 0.698802 0 0 0.701202 0 0.02 0.701202 0 0.04 0.701202 0 0.06 0.701202 0 0.08 0.701202 0 0.1 0.701202 0 0 0.703595 0 0.02 0.703595 0 0.04 0.703595 0 0.06 0.703595 0 0.08 0.703595 0 0.1 0.703595 0 0 0.705983 0 0.02 0.705983 0 0.04 0.705983 0 0.06 0.705983 0 0.08 0.705983 0 0.1 0.705983 0 0 0.708367 0 0.02 0.708367 0 0.04 0.708367 0 0.06 0.708367 0 0.08 0.708367 0 0.1 0.708367 0 0 0.710747 0 0.02 0.710747 0 0.04 0.710747 0 0.06 0.710747 0 0.08 0.710747 0 0.1 0.710747 0 0 0.713124 0 0.02 0.713124 0 0.04 0.713124 0 0.06 0.713124 0 0.08 0.713124 0 0.1 0.713124 0 0 0.715498 0 0.02 0.715498 0 0.04 0.715498 0 0.06 0.715498 0 0.08 0.715498 0 0.1 0.715498 0 0 0.717869 0 0.02 0.717869 0 0.04 0.717869 0 0.06 0.717869 0 0.08 0.717869 0 0.1 0.717869 0 0 0.720237 0 0.02 0.720237 0 0.04 0.720237 0 0.06 0.720237 0 0.08 0.720237 0 0.1 0.720237 0 0 0.722602 0 0.02 0.722602 0 0.04 0.722602 0 0.06 0.722602 0 0.08 0.722602 0 0.1 0.722602 0 0 0.724966 0 0.02 0.724966 0 0.04 0
[...]
			<PointData Scalars="VitesseX">
				<DataArray Name="VitesseX" type="Float32" format="ascii">
 0 3.36223e-15 1.01428e-14 1.44134e-14 1.38977e-14 0 0 3.33733e-15 9.4597e-15 1.45375e-14 1.40974e-14 0 0 3.32939e-15 8.86883e-15 1.31623e-14 1.50301e-14 0 0 4.24736e-15 8.2072e-15 1.09465e-14 1.54091e-14 0 0 5.43578e-15 7.27019e-15 9.3522e-15 1.48112e-14 0 0 6.68082e-15 6.55454e-15 8.6827e-15 1.28659e-14 0 0 7.9448e-15 5.48184e-15 9.06616e-15 9.48808e-15 0 0 7.03269e-15 6.41975e-15 6.61273e-15 8.93536e-15 0 0 7.01456e-15 6.20348e-15 4.97715e-15 6.55553e-15 0 0 7.25707e-15 4.99224e-15 4.98606e-15 2.87843e-16 0 0 5.64855e-15 3.73731e-15 4.83474e-15 -4.01971e-15 0 0 2.04853e-15 3.91479e-15 2.92693e-16 -2.63179e-15 0 0 -3.6762e-16 2.56559e-15 -2.50031e-15 -3.03509e-15 0 0 7.04161e-16 -2.68825e-15 2.3732e-15 -9.70931e-15 0 0 9.70462e-16 -3.98614e-15 2.15444e-15 -9.48718e-15 0 0 1.7256e-16 -3.97325e-15 1.16857e-15 -7.08196e-15 0 0 -6.80448e-16 -8.65282e-15 4.10718e-15 -2.97513e-15 0 0 -3.42156e-15 -1.28857e-14 4.74665e-15 7.58049e-15 0 0 -6.76812e-15 -1.12872e-14 4.25825e-15 1.70755e-14 0 0 -6.95029e-15 -8.83001e-15 2.8681e-15 2.1137e-14 0 0 -1.09158e-14 -4.96466e-15 1.62861e-16 1.8541e-14 0 0 -9.3669e-15 -8.06824e-15 -2.97017e-16 1.32101e-14 0 0 -2.58408e-15 -1.08525e-14 -6.68821e-16 7.34274e-15 0 0 -1.34743e-15 -6.49468e-15 5.25536e-15 6.36644e-16 0 0 -4.53418e-16 -4.92176e-15 1.16601e-14 -1.85291e-15 0 0 -2.32329e-15 2.42895e-15 4.44721e-15 -5.68457e-15 0 0 -7.97062e-15 1.25861e-14 -2.95067e-15 -1.1418e-14 0 0 -1.24929e-14 1.51742e-14 3.17622e-16 -8.35566e-15 0 0 -1.1144e-14 6.19942e-15 9.87245e-15 -3.25899e-15 0 0 -6.16096e-15 -2.15208e-15 1.2006e-14 3.90594e-16 0 0 -3.83621e-15 9.3569e-16 6.31001e-15 5.23373e-15 0 0 -2.0544e-15 7.5692e-15 -3.0777e-16 4.1445e-15 0 0 1.22912e-15 1.43798e-14 -6.09642e-15 4.71466e-15 0 0 7.75348e-15 1.8797e-14 -5.46668e-15 1.18833e-14 0 0 1.4918e-14 2.26907e-14 7.44292e-15 1.35349e-14 0 0 2.29494e-14 3.04201e-14 2.45476e-14 1.2015e-14 0 0 2.53081e-14 4.50674e-14 2.65608e-14 1.03332e-14 0 0 3.09455e-14 5.16768e-14 2.68398e-14 1.0039e-14 0 0 4.0848e-14 4.44361e-14 4.39779e-14 4.51401e-15 0 0 3.9479e-14 5.39445e-14 5.00289e-14 3.35467e-15 0 0 3.86662e-14 7.28243e-14 3.06269e-14 1.97094e-14 0 0 4.37676e-14 6.39927e-14 3.14821e-14 2.61872e-14 0 0 2.98778e-14 5.80126e-14 3.26987e-14 3.56269e-14 0 0 1.0062e-14 5.49136e-14 3.21134e-14 3.60739e-14 0 0 -2.55e-15 4.2116e-14 3.39227e-14 2.3969e-14 0 0 -1.00411e-14 1.98007e-14 2.9548e-14 1.03841e-14 0 0 -3.2843e-15 -6.69169e-15 2.68484e-14 2.91487e-16 0 0 -5.85823e-15 -1.21283e-14 5.14883e-16 1.27721e-14 0 0 -1.5976e-14 -1.6769e-14 -1.99387e-14 1.65477e-14 0 0 -9.28764e-15 -2.69937e-14 -1.36554e-14 3.26099e-15 0 0 4.01843e-15 -2.91544e-14 -1.96029e-14 -5.37994e-15 0 0 -6.43211e-15 -1.84564e-14 -4.78261e-14 3.26093e-15 0 0 -2.33076e-14 -3.67166e-15 -5.39375e-14 -7.17018e-15 0 0 -1.96917e-14 1.81054e-15 -4.73975e-14 -3.7225e-14 0 0 -1.09976e-14 -1.45936e-14 -3.94928e-14 -4.48918e-14 0 0 4.13662e-15 -3.50786e-14 -2.75265e-14 -4.34972e-14 0 0 1.69862e-14 -4.1688e-14 -4.27544e-14 -4.1003e-14 0 0 2.86816e-14 -4.71991e-14 -5.8688e-14 -3.05918e-14 0 0 3.12292e-14 -4.12627e-14 -5.02968e-14 -3.34119e-14 0 0 2.03775e-14 -2.77859e-14 -4.47596e-14 -4.13613e-14 0 0 1.39389e-14 -2.38967e-14 -4.97023e-14 -2.77669e-14 0 0 2.37697e-14 -3.75669e-14 -4.09915e-14 -1.56516e-14 0 0 3.99105e-14 -4.51982e-14 -3.5688e-14 -1.11881e-14 0 0 1.54562e-14 -1.13822e-14 -4.56648e-14 -3.04241e-14 0 0 -1.00329e-14 -1.31862e-14 -3.51844e-14 -1.19146e-14 0 0 3.40884e-15 -4.6029e-14 -1.25174e-14 1.34437e-14 0 0 2.36872e-14 -4.68517e-14 -1.02099e-14 -1.6162e-14 0 0 9.88647e-15 -2.49923e-14 -2.26165e-14 -2.27508e-14 0 0 -2.33613e-14 -3.23984e-15 -1.22391e-14 -2.44542e-14 0 0 -2.65028e-14 -1.93216e-14 -6.74441e-15 -1.8556e-14 0 0 -1.07647e-14 -4.27976e-14 -1.00641e-14 -5.41058e-15 0 0 -7.38605e-15 -4.29099e-14 -1.60588e-14 -8.63221e-16 0 0 -1.22659e-14 -3.17389e-14 -3.71377e-14 1.41287e-14 0 0 -1.81568e-14 -3.37568e-14 -3.28714e-14 1.78977e-14 0 0 -8.8852e-15 -3.65583e-14 -6.70547e-15 -9.21752e-15 0 0 -1.04599e-14 -2.88808e-14 -3.62452e-15 -3.94683e-14 0 0 -7.331e-15 -4.11572e-14 -8.29834e-15 -2.32457e-14 0 0 -9.82392e-15 -4.39088e-14 -9.55667e-15 -2.44002e-14 0 0 -1.22639e-14 -3.77694e-14 -2.38851e-14 -1.19507e-14 0 0 -4.55641e-15 -2.66327e-14 -2.5884e-14 -5.81365e-15 0 0 -1.78643e-14 -1.97957e-14 -2.13327e-14 -2.0443e-16 0 0 -1.34639e-14 -8.19693e-15 -4.37464e-14 2.8026e-15 0 0 1.66236e-15 -6.93139e-15 -6.27282e-14 -1.15776e-15 0 0 -5.75709e-15 -1.51867e-14 -3.1745e-14 -1.4289e-14 0 0 -1.84936e-14 -8.56368e-15 -1.38294e-14 -2.12959e-14 0 0 -1.34567e-14 -2.29491e-14 -1.41719e-14 1.65655e-14 0 0 -8.45586e-15 -4.82183e-15 -2.5585e-14 2.17945e-14 0 0 -6.9064e-15 -4.94836e-15 -4.16749e-14 -2.92995e-15 0 0 -1.44304e-14 -1.81e-14 -3.14547e-14 -6.77969e-15 0 0 -1.41892e-14 -2.35739e-14 -4.23154e-14 -3.15855e-14 0 0 -8.62522e-15 -3.28138e-14 -2.76782e-14 -1.82618e-14 0 0 -9.03265e-15 -1.11355e-14 -7.1102e-15 -1.10759e-14 0 0 1.06763e-14 1.53025e-14 6.59165e-15 1.30485e-16 0 0 2.79736e-14 4.10233e-14 3.01684e-14 2.8576e-14 0 0 3.1712e-14 6.62254e-14 5.12985e-14 2.89307e-14 0 0 3.72642e-14 7.25058e-14 7.62937e-14 2.1572e-14 0 0 4.71046e-14 6.19665e-14 8.71255e-14 2.63617e-14 0 0 3.89275e-14 6.93397e-14 5.5463e-14 5.02314e-14 0 0 3.44171e-14 4.81819e-14 4.29695e-14 3.40981e-14 0 0 2.76235e-14 6.67894e-15 2.40364e-14 1.02093e-14 0 0 2.38152e-15 1.52813e-15 -4.87532e-15 5.76412e-16 0 0 -3.20985e-14 -3.86245e-14 -3.49745e-14 -4.45723e-14 0 0 -2.01083e-14 -4.89952e-14 -5.29711e-14 -1.79257e-14 0 0 -3.95574e-14 -6.39572e-14 -2.9129e-14 -4.01597e-14 0 0 -6.2314e-14 -6.19465e-14 -5.16332e-14 -4.53966e-14 0 0 -6.6953e-14 -5.96372e-14 -8.85752e-14 -2.82964e-14 0 0 -4.49671e-14 -7.5417e-14 -7.7375e-14 -1.18941e-13 0 0 -4.37849e-14 -7.79931e-14 -5.44181e-14 -4.69717e-14 0 0 6.65785e-15 1.19954e-15 -1.22977e-14 5.42059e-14 0 0 9.78105e-14 1.6192e-13 1.72215e-13 9.75542e-14 0 0 2.2307e-13 3.6069e-13 3.91795e-13 2.21853e-13 0 0 3.46806e-13 5.15606e-13 5.39804e-13 3.33954e-13 0 0 3.95821e-13 6.23235e-13 6.04113e-13 4.23452e-13 0 0 3.90276e-13 6.06237e-13 6.21029e-13 3.87941e-13 0 0 3.64032e-13 5.52004e-13 5.70883e-13 3.58786e-13 0 0 3.34822e-13 4.87034e-13 4.74641e-13 3.20372e-13 0 0 2.81227e-13 4.25297e-13 4.15467e-13 2.80787e-13 0 0 2.43697e-13 3.44172e-13 3.37506e-13 2.88787e-13 0 0 2.17539e-13 2.85705e-13 2.56831e-13 1.98452e-13 0 0 1.86656e-13 2.447e-13 2.03988e-13 1.43327e-13 0 0 1.69479e-13 1.78266e-13 1.79576e-13 1.44959e-13 0 0 1.34009e-13 1.47397e-13 1.64094e-13 7.7458e-14 0 0 1.11948e-13 1.06379e-13 1.43812e-13 7.94482e-14 0 0 1.12724e-13 9.77297e-14 5.7656e-14 5.89574e-14 0 0 1.0729e-13 7.09509e-14 2.87786e-14 1.45941e-14 0 0 9.1283e-14 7.18466e-14 -2.00362e-14 8.35377e-14 0 0 7.49443e-14 5.07271e-14 -1.76967e-14 3.42073e-14 0 0 5.53171e-14 5.00689e-15 2.95778e-14 1.02404e-14 0 0 3.47952e-14 2.37372e-14 -1.34504e-14 4.4458e-14 0 0 2.82002e-14 4.01549e-14 -3.27592e-14 2.47595e-14 0 0 4.9861e-15 1.73194e-14 -1.71858e-14 -4.38308e-14 0 0 1.15693e-14 5.75386e-15 -3.80027e-14 -2.08663e-14 0 0 1.63425e-14 -7.24771e-15 -7.03447e-14 1.5949e-14 0 0 2.10127e-14 -3.36173e-14 -7.13778e-14 -7.74587e-15 0 0 4.62454e-15 -3.3503e-14 -5.56128e-14 -3.55329e-14 0 0 -5.72373e-15 -3.94919e-14 -5.90482e-14 -5.668e-14 0 0 7.10558e-15 -5.36305e-14 -5.01487e-14 -2.27733e-14 0 0 -2.21505e-15 -5.30329e-14 -2.88794e-14 -3.06396e-14 0 0 -7.53245e-15 -5.80814e-14 -4.31564e-14 -3.2229e-14 0 0 -1.53107e-14 -3.7773e-14 -3.15795e-14 -4.46914e-14 0 0 3.7421e-16 -8.09143e-14 -3.39318e-14 -7.45971e-14 0 0 -1.26764e-14 -9.88179e-14 7.3162e-15 -9.01399e-14 0 0 -4.61681e-14 -6.93829e-14 2.10828e-14 -5.80508e-14 0 0 -3.988e-14 -9.89509e-14 4.56161e-14 -3.85067e-14 0 0 4.87023e-15 -1.67783e-13 1.00661e-13 -8.30679e-14 0 0 6.24366e-14 -1.97407e-13 8.58517e-14 -4.04946e-14 0 0 4.2515e-14 -1.85393e-13 1.10086e-13 4.96786e-14 0 0 2.86245e-14 -1.45409e-13 3.31922e-14 9.96901e-15 0 0 -1.36102e-14 -9.44098e-14 -5.06208e-14 7.01982e-14 0 0 1.12518e-14 -1.23776e-13 2.79847e-15 1.88538e-13 0 0 2.18169e-14 -9.32628e-14 5.97319e-16 2.38519e-13 0 0 1.01148e-14 -4.5999e-14 -1.04413e-13 2.96367e-13 0 0 1.98629e-14 -5.92707e-14 -4.9329e-14 2.32321e-13 0 0 2.98834e-14 -8.98723e-14 5.16519e-14 1.82106e-13 0 0 -4.09094e-15 -3.16e-14 1.36826e-14 1.93617e-13 0 0 1.86074e-14 -4.9233e-14 -3.0864e-14 2.29994e-13 0 0 7.96429e-14 -1.05801e-13 -9.13639e-15 1.69732e-13 0 0 1.55144e-13 -1.91638e-13 -2.51137e-15 2.21539e-13 0 0 9.23302e-14 -1.57683e-13 2.31521e-14 2.15917e-13 0 0 -4.08992e-14 -6.54408e-14 6.47711e-14 6.26119e-14 0 0 -9.8483e-15 -1.30299e-13 1.15149e-13 1.96809e-14 0 0 5.87201e-14 -1.49328e-13 2.46222e-14 8.82441e-14 0 0 5.97566e-15 -1.04486e-13 -8.36613e-14 1.48297e-13 0 0 -6.57005e-14 -1.12893e-13 -8.41335e-14 1.41868e-13 0 0 -9.02768e-14 -1.81125e-13 -5.89077e-14 7.29238e-14 0 0 -9.25931e-14 -1.60461e-13 -8.68058e-14 -4.87119e-14 0 0 -5.61188e-14 -1.45172e-13 -1.09111e-13 -8.26135e-14 0 0 -4.69986e-14 -1.36949e-13 -1.12613e-13 -1.15938e-13 0 0 -7.36833e-14 -6.36919e-14 -1.97335e-13 -5.27333e-14 0 0 -7.44768e-14 -4.08102e-14 -1.52881e-13 -2.84241e-14 0 0 -4.30381e-14 -6.58235e-14 -4.83012e-14 -4.48098e-14 0 0 -1.69732e-14 -2.29005e-14 -1.69077e-14 -2.28764e-14 0 0 2.54517e-15 9.74556e-16 -2.62786e-15 3.37438e-14 0 0 1.89412e-14 2.57211e-14 1.3057e-14 6.38365e-14 0 0 3.59041e-14 3.89501e-14 6.56542e-14 -1.09915e-14 0 0 4.56281e-14 5.6102e-14 1.05314e-13 -1.77268e-14 0 0 4.88375e-14 1.02048e-13 9.70623e-14 -1.41065e-14 0 0 7.73799e-14 8.64294e-14 9.28649e-14 3.05326e-14 0 0 9.58064e-14 8.18925e-14 1.01026e-13 5.88645e-14 0 0 7.8813e-14 1.25311e-13 1.01936e-13 6.08957e-14 0 0 8.11125e-14 1.23652e-13 1.17392e-13 6.17169e-14 0 0 1.00348e-13 1.28964e-13 1.52388e-13 2.74606e-14 0 0 1.09156e-13 1.49204e-13 1.46533e-13 5.46116e-14 0 0 1.25719e-13 1.38363e-13 1.44647e-13 6.47381e-14 0 0 1.18261e-13 1.59276e-13 1.34256e-13 1.02167e-13 0 0 1.23183e-13 1.73522e-13 1.22916e-13 1.00712e-13 0 0 1.27734e-13 1.66292e-13 1.27882e-13 8.5072e-14 0 0 1.30624e-13 1.5928e-13 1.43711e-13 1.01925e-13 0 0 1.41121e-13 1.62574e-13 1.63687e-13 4.05395e-14 0 0 1.22982e-13 1.85823e-13 1.23986e-13 4.721e-14 0 0 1.1962e-13 1.9376e-13 5.85423e-14 1.31395e-13 0 0 1.39835e-13 1.61108e-13 7.97129e-14 1.08882e-13 0 0 1.59867e-13 1.02973e-13 1.58473e-13 7.44866e-15 0 0 1.76487e-13 4.69227e-14 1.70256e-13 8.73447e-15 0 0 1.59395e-13 4.42967e-14 1.35757e-13 2.08572e-14 0 0 1.02504e-13 8.45296e-14 1.04858e-13 -2.88442e-14 0 0 8.13023e-14 8.94118e-14 8.46162e-14 -5.28672e-14 0 0 7.70469e-14 6.42556e-14 7.95879e-14 -5.07003e-14 0 0 5.95043e-14 5.67786e-14 5.03928e-14 -3.99292e-14 0 0 6.34188e-14 4.45065e-14 5.69545e-14 -4.68926e-14 0 0 7.12189e-14 2.17353e-14 9.51028e-14 -6.27324e-14 0
				</DataArray>
				<DataArray Name="VitesseY" type="Float32" format="ascii">