<?xml version="1.0"?>
<VTKFile type="PolyData">
	<PolyData>
		<Piece NumberOfPoints="1206" NumberOfPolys="1000">
			<Points>
				<DataArray type="Float32" NumberOfComponents="3" format="ascii">
 0 0 0 0.02 0 0 0.04 0 0 0.06 0 0 0.08 0 0 0.1 0 0 0 0.005 0 0.02 0.005 0 0.04 0.005 0 0.06 0.005 0 0.08 0.005 0 0.1 0.005 0 0 0.01 0 0.02 0.01 0 0.04 0.01 0 0.06 0.01 0 0.08 0.01 0 0.1 0.01 0 0 0.015 0 0.02 0.015 0 0.04 0.015 0 0.06 0.015 0 0.08 0.015 0 0.1 0.015 0 0 0.02 0 0.02 0.02 0 0.04 0.02 0 0.06 0.02 0 0.08 0.02 0 0.1 0.02 0 0 0.025 0 0.02 0.025 0 0.04 0.025 0 0.06 0.025 0 0.08 0.025 0 0.1 0.025 0 0 0.03 0 0.02 0.03 0 0.04 0.03 0 0.06 0.03 0 0.08 0.03 0 0.1 0.03 0 0 0.035 0 0.02 0.035 0 0.04 0.035 0 0.06 0.035 0 0.08 0.035 0 0.1 0.035 0 0 0.04 0 0.02 0.04 0 0.04 0.04 0 0.06 0.04 0 0.08 0.04 0 0.1 0.04 0 0 0.045 0 0.02 0.045 0 0.04 0.045 0 0.06 0.045 0 0.08 0.045 0 0.1 0.045 0 0 0.05 0 0.02 0.05 0 0.04 0.05 0 0.06 0.05 0 0.08 0.05 0 0.1 0.05 0 0 0.055 0 0.02 0.055 0 0.04 0.055 0 0.06 0.055 0 0.08 0.055 0 0.1 0.055 0 0 0.06 0 0.02 0.06 0 0.04 0.06 0 0.06 0.06 0 0.08 0.06 0 0.1 0.06 0 0 0.065 0 0.02 0.065 0 0.04 0.065 0 0.06 0.065 0 0.08 0.065 0 0.1 0.065 0 0 0.07 0 0.02 0.07 0 0.04 0.07 0 0.06 0.07 0 0.08 0.07 0 0.1 0.07 0 0 0.075 0 0.02 0.075 0 0.04 0.075 0 0.06 0.075 0 0.08 0.075 0 0.1 0.075 0 0 0.08 0 0.02 0.08 0 0.04 0.08 0 0.06 0.08 0 0.08 0.08 0 0.1 0.08 0 0 0.085 0 0.02 0.085 0 0.04 0.085 0 0.06 0.085 0 0.08 0.085 0 0.1 0.085 0 0 0.09 0 0.02 0.09 0 0.04 0.09 0 0.06 0.09 0 0.08 0.09 0 0.1 0.09 0 0 0.095 0 0.02 0.095 0 0.04 0.095 0 0.06 0.095 0 0.08 0.095 0 0.1 0.095 0 0 0.1 0 0.02 0.1 0 0.04 0.1 0 0.06 0.1 0 0.08 0.1 0 0.1 0.1 0 0 0.105 0 0.02 0.105 0 0.04 0.105 0 0.06 0.105 0 0.08 0.105 0 0.1 0.105 0 0 0.11 0 0.02 0.11 0 0.04 0.11 0 0.06 0.11 0 0.08 0.11 0 0.1 0.11 0 0 0.115 0 0.02 0.115 0 0.04 0.115 0 0.06 0.115 0 0.08 0.115 0 0.1 0.115 0 0 0.12 0 0.02 0.12 0 0.04 0.12 0 0.06 0.12 0 0.08 0.12 0 0.1 0.12 0 0 0.125 0 0.02 0.125 0 0.04 0.125 0 0.06 0.125 0 0.08 0.125 0 0.1 0.125 0 0 0.13 0 0.02 0.13 0 0.04 0.13 0 0.06 0.13 0 0.08 0.13 0 0.1 0.13 0 0 0.135 0 0.02 0.135 0 0.04 0.135 0 0.06 0.135 0 0.08 0.135 0 0.1 0.135 0 0 0.14 0 0.02 0.14 0 0.04 0.14 0 0.06 0.14 0 0.08 0.14 0 0.1 0.14 0 0 0.145 0 0.02 0.145 0 0.04 0.145 0 0.06 0.145 0 0.08 0.145 0 0.1 0.145 0 0 0.15 0 0.02 0.15 0 0.04 0.15 0 0.06 0.15 0 0.08 0.15 0 0.1 0.15 0 0 0.155 0 0.02 0.155 0 0.04 0.155 0 0.06 0.155 0 0.08 0.155 0 0.1 0.155 0 0 0.16 0 0.02 0.16 0 0.04 0.16 0 0.06 0.16 0 0.08 0.16 0 0.1 0.16 0 0 0.165 0 0.02 0.165 0 0.04 0.165 0 0.06 0.165 0 0.08 0.165 0 0.1 0.165 0 0 0.17 0 0.02 0.17 0 0.04 0.17 0 0.06 0.17 0 0.08 0.17 0 0.1 0.17 0 0 0.175 0 0.02 0.175 0 0.04 0.175 0 0.06 0.175 0 0.08 0.175 0 0.1 0.175 0 0 0.18 0 0.02 0.18 0 0.04 0.18 0 0.06 0.18 0 0.08 0.18 0 0.1 0.18 0 0 0.185 0 0.02 0.185 0 0.04 0.185 0 0.06 0.185 0 0.08 0.185 0 0.1 0.185 0 0 0.19 0 0.02 0.19 0 0.04 0.19 0 0.06 0.19 0 0.08 0.19 0 0.1 0.19 0 0 0.195 0 0.02 0.195 0 0.04 0.195 0 0.06 0.195 0 0.08 0.195 0 0.1 0.195 0 0 0.2 0 0.02 0.2 0 0.04 0.2 0 0.06 0.2 0 0.08 0.2 0 0.1 0.2 0 0 0.205 0 0.02 0.205 0 0.04 0.205 0 0.06 0.205 0 0.08 0.205 0 0.1 0.205 0 0 0.21 0 0.02 0.21 0 0.04 0.21 0 0.06 0.21 0 0.08 0.21 0 0.1 0.21 0 0 0.215 0 0.02 0.215 0 0.04 0.215 0 0.06 0.215 0 0.08 0.215 0 0.1 0.215 0 0 0.22 0 0.02 0.22 0 0.04 0.22 0 0.06 0.22 0 0.08 0.22 0 0.1 0.22 0 0 0.225 0 0.02 0.225 0 0.04 0.225 0 0.06 0.225 0 0.08 0.225 0 0.1 0.225 0 0 0.23 0 0.02 0.23 0 0.04 0.23 0 0.06 0.23 0 0.08 0.23 0 0.1 0.23 0 0 0.235 0 0.02 0.235 0 0.04 0.235 0 0.06 0.235 0 0.08 0.235 0 0.1 0.235 0 0 0.24 0 0.02 0.24 0 0.04 0.24 0 0.06 0.24 0 0.08 0.24 0 0.1 0.24 0 0 0.245 0 0.02 0.245 0 0.04 0.245 0 0.06 0.245 0 0.08 0.245 0 0.1 0.245 0 0 0.25 0 0.02 0.25 0 0.04 0.25 0 0.06 0.25 0 0.08 0.25 0 0.1 0.25 0 0 0.255 0 0.02 0.255 0 0.04 0.255 0 0.06 0.255 0 0.08 0.255 0 0.1 0.255 0 0 0.26 0 0.02 0.26 0 0.04 0.26 0 0.06 0.26 0 0.08 0.26 0 0.1 0.26 0 0 0.265 0 0.02 0.265 0 0.04 0.265 0 0.06 0.265 0 0.08 0.265 0 0.1 0.265 0 0 0.27 0 0.02 0.27 0 0.04 0.27 0 0.06 0.27 0 0.08 0.27 0 0.1 0.27 0 0 0.275 0 0.02 0.275 0 0.04 0.275 0 0.06 0.275 0 0.08 0.275 0 0.1 0.275 0 0 0.28 0 0.02 0.28 0 0.04 0.28 0 0.06 0.28 0 0.08 0.28 0 0.1 0.28 0 0 0.285 0 0.02 0.285 0 0.04 0.285 0 0.06 0.285 0 0.08 0.285 0 0.1 0.285 0 0 0.29 0 0.02 0.29 0 0.04 0.29 0 0.06 0.29 0 0.08 0.29 0 0.1 0.29 0 0 0.295 0 0.02 0.295 0 0.04 0.295 0 0.06 0.295 0 0.08 0.295 0 0.1 0.295 0 0 0.300001 0 0.02 0.300001 0 0.04 0.300001 0 0.06 0.300001 0 0.08 0.300001 0 0.1 0.300001 0 0 0.305002 0 0.02 0.305002 0 0.04 0.305002 0 0.06 0.305002 0 0.08 0.305002 0 0.1 0.305002 0 0 0.310006 0 0.02 0.310006 0 0.04 0.310006 0 0.06 0.310006 0 0.08 0.310006 0 0.1 0.310006 0 0 0.315017 0 0.02 0.315017 0 0.04 0.315017 0 0.06 0.315017 0 0.08 0.315017 0 0.1 0.315017 0 0 0.320044 0 0.02 0.320044 0 0.04 0.320044 0 0.06 0.320044 0 0.08 0.320044 0 0.1 0.320044 0 0 0.325101 0 0.02 0.325101 0 0.04 0.325101 0 0.06 0.325101 0 0.08 0.325101 0 0.1 0.325101 0 0 0.330207 0 0.02 0.330207 0 0.04 0.330207 0 0.06 0.330207 0 0.08 0.330207 0 0.1 0.330207 0 0 0.335386 0 0.02 0.335386 0 0.04 0.335386 0 0.06 0.335386 0 0.08 0.335386 0 0.1 0.335386 0 0 0.34066 0 0.02 0.34066 0 0.04 0.34066 0 0.06 0.34066 0 0.08 0.34066 0 0.1 0.34066 0 0 0.346048 0 0.02 0.346048 0 0.04 0.346048 0 0.06 0.346048 0 0.08 0.346048 0 0.1 0.346048 0 0 0.351564 0 0.02 0.351564 0 0.04 0.351564 0 0.06 0.351564 0 0.08 0.351564 0 0.1 0.351564 0 0 0.357223 0 0.02 0.357223 0 0.04 0.357223 0 0.06 0.357223 0 0.08 0.357223 0 0.1 0.357223 0 0 0.363036 0 0.02 0.363036 0 0.04 0.363036 0 0.06 0.363036 0 0.08 0.363036 0 0.1 0.363036 0 0 0.369016 0 0.02 0.369016 0 0.04 0.369016 0 0.06 0.369016 0 0.08 0.369016 0 0.1 0.369016 0 0 0.375175 0 0.02 0.375175 0 0.04 0.375175 0 0.06 0.375175 0 0.08 0.375175 0 0.1 0.375175 0 0 0.381526 0 0.02 0.381526 0 0.04 0.381526 0 0.06 0.381526 0 0.08 0.381526 0 0.1 0.381526 0 0 0.388085 0 0.02 0.388085 0 0.04 0.388085 0 0.06 0.388085 0 0.08 0.388085 0 0.1 0.388085 0 0 0.394866 0 0.02 0.394866 0 0.04 0.394866 0 0.06 0.394866 0 0.08 0.394866 0 0.1 0.394866 0 0 0.40189 0 0.02 0.40189 0 0.04 0.40189 0 0.06 0.40189 0 0.08 0.40189 0 0.1 0.40189 0 0 0.409174 0 0.02 0.409174 0 0.04 0.409174 0 0.06 0.409174 0 0.08 0.409174 0 0.1 0.409174 0 0 0.416743 0 0.02 0.416743 0 0.04 0.416743 0 0.06 0.416743 0 0.08 0.416743 0 0.1 0.416743 0 0 0.42462 0 0.02 0.42462 0 0.04 0.42462 0 0.06 0.42462 0 0.08 0.42462 0 0.1 0.42462 0 0 0.432836 0 0.02 0.432836 0 0.04 0.432836 0 0.06 0.432836 0 0.08 0.432836 0 0.1 0.432836 0 0 0.441422 0 0.02 0.441422 0 0.04 0.441422 0 0.06 0.441422 0 0.08 0.441422 0 0.1 0.441422 0 0 0.450415 0 0.02 0.450415 0 0.04 0.450415 0 0.06 0.450415 0 0.08 0.450415 0 0.1 0.450415 0 0 0.459857 0 0.02 0.459857 0 0.04 0.459857 0 0.06 0.459857 0 0.08 0.459857 0 0.1 0.459857 0 0 0.469794 0 0.02 0.469794 0 0.04 0.469794 0 0.06 0.469794 0 0.08 0.469794 0 0.1 0.469794 0 0 0.480272 0 0.02 0.480272 0 0.04 0.480272 0 0.06 0.480272 0 0.08 0.480272 0 0.1 0.480272 0 0 0.491331 0 0.02 0.491331 0 0.04 0.491331 0 0.06 0.491331 0 0.08 0.491331 0 0.1 0.491331 0 0 0.502974 0 0.02 0.502974 0 0.04 0.502974 0 0.06 0.502974 0 0.08 0.502974 0 0.1 0.502974 0 0 0.515077 0 0.02 0.515077 0 0.04 0.515077 0 0.06 0.515077 0 0.08 0.515077 0 0.1 0.515077 0 0 0.527257 0 0.02 0.527257 0 0.04 0.527257 0 0.06 0.527257 0 0.08 0.527257 0 0.1 0.527257 0 0 0.539317 0 0.02 0.539317 0 0.04 0.539317 0 0.06 0.539317 0 0.08 0.539317 0 0.1 0.539317 0 0 0.551257 0 0.02 0.551257 0 0.04 0.551257 0 0.06 0.551257 0 0.08 0.551257 0 0.1 0.551257 0 0 0.563102 0 0.02 0.563102 0 0.04 0.563102 0 0.06 0.563102 0 0.08 0.563102 0 0.1 0.563102 0 0 0.574888 0 0.02 0.574888 0 0.04 0.574888 0 0.06 0.574888 0 0.08 0.574888 0 0.1 0.574888 0 0 0.586645 0 0.02 0.586645 0 0.04 0.586645 0 0.06 0.586645 0 0.08 0.586645 0 0.1 0.586645 0 0 0.598389 0 0.02 0.598389 0 0.04 0.598389 0 0.06 0.598389 0 0.08 0.598389 0 0.1 0.598389 0 0 0.61013 0 0.02 0.61013 0 0.04 0.61013 0 0.06 0.61013 0 0.08 0.61013 0 0.1 0.61013 0 0 0.621872 0 0.02 0.621872 0 0.04 0.621872 0 0.06 0.621872 0 0.08 0.621872 0 0.1 0.621872 0 0 0.633629 0 0.02 0.633629 0 0.04 0.633629 0 0.06 0.633629 0 0.08 0.633629 0 0.1 0.633629 0 0 0.636243 0 0.02 0.636243 0 0.04 0.636243 0 0.06 0.636243 0 0.08 0.636243 0 0.1 0.636243 0 0 0.638783 0 0.02 0.638783 0 0.04 0.638783 0 0.06 0.638783 0 0.08 0.638783 0 0.1 0.638783 0 0 0.641275 0 0.02 0.641275 0 0.04 0.641275 0 0.06 0.641275 0 0.08 0.641275 0 0.1 0.641275 0 0 0.643736 0 0.02 0.643736 0 0.04 0.643736 0 0.06 0.643736 0 0.08 0.643736 0 0.1 0.643736 0 0 0.646175 0 0.02 0.646175 0 0.04 0.646175 0 0.06 0.646175 0 0.08 0.646175 0 0.1 0.646175 0 0 0.648597 0 0.02 0.648597 0 0.04 0.648597 0 0.06 0.648597 0 0.08 0.648597 0 0.1 0.648597 0 0 0.651006 0 0.02 0.651006 0 0.04 0.651006 0 0.06 0.651006 0 0.08 0.651006 0 0.1 0.651006 0 0 0.653406 0 0.02 0.653406 0 0.04 0.653406 0 0.06 0.653406 0 0.08 0.653406 0 0.1 0.653406 0 0 0.6558 0 0.02 0.6558 0 0.04 0.6558 0 0.06 0.6558 0 0.08 0.6558 0 0.1 0.6558 0 0 0.658186 0 0.02 0.658186 0 0.04 0.658186 0 0.06 0.658186 0 0.08 0.658186 0 0.1 0.658186 0 0 0.660569 0 0.02 0.660569 0 0.04 0.660569 0 0.06 0.660569 0 0.08 0.660569 0 0.1 0.660569 0 0 0.662946 0 0.02 0.662946 0 0.04 0.662946 0 0.06 0.662946 0 0.08 0.662946 0 0.1 0.662946 0 0 0.665319 0 0.02 0.665319 0 0.04 0.665319 0 0.06 0.665319 0 0.08 0.665319 0 0.1 0.665319 0 0 0.66769 0 0.02 0.66769 0 0.04 0.66769 0 0.06 0.66769 0 0.08 0.66769 0 0.1 0.66769 0 0 0.670058 0 0.02 0.670058 0 0.04 0.670058 0 0.06 0.670058 0 0.08 0.670058 0 0.1 0.670058 0 0 0.672423 0 0.02 0.672423 0 0.04 0.672423 0 0.06 0.672423 0 0.08 0.672423 0 0.1 0.672423 0 0 0.674787 0 0.02 0.674787 0 0.04 0.674787 0 0.06 0.674787 0 0.08 0.674787 0 0.1 0.674787 0 0 0.677148 0 0.02 0.677148 0 0.04 0.677148 0 0.06 0.677148 0 0.08 0.677148 0 0.1 0.677148 0 0 0.679508 0 0.02 0.679508 0 0.04 0.679508 0 0.06 0.679508 0 0.08 0.679508 0 0.1 0.679508 0 0 0.681868 0 0.02 0.681868 0 0.04 0.681868 0 0.06 0.681868 0 0.08 0.681868 0 0.1 0.681868 0 0 0.6
[...]
			<PointData Scalars="VitesseX">
				<DataArray Name="VitesseX" type="Float32" format="ascii">
 0 2.72473e-15 3.60945e-15 7.62381e-16 2.92273e-16 0 0 2.9597e-15 2.85531e-15 1.72398e-15 1.57285e-16 0 0 2.53988e-15 2.66775e-15 2.7974e-15 1.5305e-16 0 0 1.49738e-15 3.23877e-15 2.59282e-15 4.78003e-16 0 0 1.22862e-15 3.36296e-15 1.56042e-15 1.23546e-15 0 0 1.92107e-15 2.35277e-15 1.81885e-15 1.36557e-15 0 0 1.19811e-15 2.30822e-15 1.84181e-15 2.81785e-15 0 0 -2.82329e-16 3.30725e-15 1.2285e-15 4.57592e-15 0 0 2.83626e-16 4.00666e-15 1.17115e-15 3.5939e-15 0 0 1.62022e-15 4.6044e-15 1.61269e-15 2.27199e-15 0 0 1.60883e-15 5.68422e-15 9.91537e-16 1.79234e-15 0 0 1.07822e-15 5.81299e-15 1.9291e-15 -8.5056e-16 0 0 -1.51975e-16 7.1973e-15 2.29322e-15 -3.90834e-15 0 0 2.34931e-16 5.18001e-15 2.81434e-15 -3.52e-15 0 0 2.89008e-15 -1.55377e-15 5.42292e-15 -2.80195e-15 0 0 1.26862e-15 -1.38213e-15 4.94333e-15 -5.06705e-15 0 0 -2.22364e-15 4.41075e-15 -7.63611e-16 -5.26684e-15 0 0 -5.93377e-16 4.68159e-15 -2.46935e-15 -6.32154e-15 0 0 5.01255e-16 4.21505e-15 -9.30559e-16 -7.8026e-15 0 0 2.65902e-15 2.00457e-15 2.31315e-15 -6.1712e-15 0 0 -3.7485e-16 5.00604e-15 -1.40009e-15 4.62003e-15 0 0 -4.1382e-15 4.97544e-15 -3.33883e-15 1.47418e-14 0 0 -1.17304e-15 -4.12373e-15 3.84386e-15 1.45424e-14 0 0 -1.87167e-15 -6.1836e-16 -1.9038e-15 1.24946e-14 0 0 -2.15733e-15 2.38048e-16 2.13344e-15 -2.02787e-15 0 0 -4.61869e-15 1.51042e-16 3.18314e-15 -5.92571e-15 0 0 -6.2715e-15 -2.1295e-15 -2.16542e-15 2.47589e-15 0 0 -6.10456e-15 -4.26663e-15 2.7657e-15 4.45937e-15 0 0 -6.5372e-15 2.82461e-15 -2.84147e-16 9.54034e-15 0 0 -4.63009e-15 2.00351e-15 1.05902e-15 5.59897e-15 0 0 -4.06221e-15 1.05743e-15 1.892e-15 -4.89634e-15 0 0 -5.79771e-15 -9.90802e-17 -1.19566e-15 7.78094e-17 0 0 -2.83435e-15 -4.75525e-15 -5.06624e-15 8.94458e-15 0 0 -3.21584e-16 -2.06233e-15 -1.39749e-14 8.44568e-15 0 0 1.25951e-15 4.69436e-17 -1.67305e-14 2.12838e-15 0 0 2.93822e-15 -5.02949e-15 -6.79259e-15 -1.56416e-15 0 0 4.33914e-15 -9.92291e-15 2.60984e-15 -3.29195e-15 0 0 1.60347e-15 -5.82128e-15 1.35632e-15 -5.41607e-15 0 0 -5.2583e-15 1.62877e-15 -2.54746e-15 -3.21429e-15 0 0 -1.50575e-15 1.5687e-16 4.26608e-16 -7.11968e-15 0 0 2.01421e-16 2.52806e-15 2.02151e-16 -7.64671e-15 0 0 -4.21414e-15 1.29558e-14 -1.40611e-14 3.34545e-15 0 0 -3.5156e-15 9.95804e-15 -1.66994e-14 5.18179e-15 0 0 -2.09091e-15 5.80625e-15 -4.48222e-15 -8.1453e-15 0 0 1.60164e-15 1.12393e-17 8.92406e-15 -1.43421e-14 0 0 7.29945e-15 -5.38185e-15 1.40051e-14 -1.43219e-14 0 0 7.42183e-15 4.10592e-15 4.98718e-15 -1.0112e-14 0 0 3.92721e-15 4.01266e-15 -6.75269e-16 1.45095e-14 0 0 2.44801e-15 3.27506e-15 9.8689e-16 3.01334e-14 0 0 1.06886e-14 -1.50666e-15 1.37922e-14 2.30974e-14 0 0 1.12056e-14 -2.71305e-15 1.5976e-14 2.88057e-14 0 0 1.81274e-14 1.69464e-15 -5.23604e-15 8.92104e-15 0 0 -9.41909e-16 2.16254e-15 7.34835e-15 -7.2631e-15 0 0 -2.38387e-14 1.34734e-14 3.98493e-15 1.72041e-15 0 0 -5.1119e-15 1.37422e-14 -1.44974e-14 4.62042e-16 0 0 -4.40463e-16 -6.06887e-15 -8.33327e-15 2.98231e-15 0 0 -2.11451e-14 -1.62466e-15 -2.23942e-14 7.70423e-16 0 0 -1.15593e-14 -4.1522e-15 -1.6198e-14 -1.37648e-14 0 0 1.32342e-14 -2.14372e-14 -1.61304e-14 -5.70951e-15 0 0 5.80864e-15 -2.29015e-15 -2.76822e-14 -6.207e-15 0 0 -4.64366e-15 5.84293e-15 -9.43093e-15 -3.08567e-14 0 0 -6.15607e-16 8.8396e-16 -2.85651e-14 -1.14975e-14 0 0 -3.59798e-15 -2.69079e-15 -3.59535e-14 -3.59473e-15 0 0 -4.04223e-15 -3.88019e-15 -1.5824e-14 -1.36044e-14 0 0 1.49218e-14 -2.17962e-17 -3.06442e-14 -1.07822e-14 0 0 1.36651e-14 -3.81839e-15 -1.93899e-14 -3.31808e-14 0 0 2.6217e-15 -1.65506e-15 1.0904e-15 -3.93454e-14 0 0 -3.91828e-15 -5.41759e-15 6.62121e-15 -8.10204e-15 0 0 -1.60918e-15 -2.74587e-14 2.97534e-14 -6.90436e-15 0 0 3.76135e-15 -3.15883e-14 3.26931e-14 -6.841e-15 0 0 8.89022e-15 -2.76544e-14 2.06364e-14 -5.19198e-15 0 0 -2.70516e-15 -8.02346e-15 9.32141e-15 -5.2432e-15 0 0 -1.20584e-14 1.7184e-15 5.447e-15 1.06652e-14 0 0 6.21142e-15 8.83825e-15 -4.43468e-15 2.95677e-15 0 0 1.17446e-14 -1.29156e-14 -1.77493e-15 -1.53136e-14 0 0 -2.2982e-14 -3.2735e-14 3.19833e-14 -1.43599e-14 0 0 -3.5121e-14 -8.30137e-16 1.4578e-14 1.01234e-14 0 0 -4.30438e-15 -6.79444e-15 -1.78906e-14 2.66881e-14 0 0 9.43671e-15 -1.51046e-14 5.35289e-15 7.25345e-15 0 0 -7.1744e-15 1.10687e-14 2.67403e-15 -1.99084e-14 0 0 -2.33997e-14 2.54575e-14 -2.70276e-14 9.84762e-15 0 0 -2.79488e-14 3.46902e-14 -3.27239e-14 1.83487e-14 0 0 -2.11223e-14 1.7738e-14 -5.62637e-15 -9.95579e-15 0 0 -1.83113e-14 -9.72174e-15 1.16576e-14 -1.34731e-14 0 0 5.64978e-15 4.73575e-15 -2.33369e-14 2.25247e-14 0 0 2.10628e-14 -1.57895e-14 1.13616e-14 1.42286e-14 0 0 -2.50038e-15 -2.4071e-15 2.7803e-14 -9.30529e-15 0 0 -1.15892e-14 2.59272e-14 -7.99462e-15 -1.49049e-14 0 0 5.29793e-15 8.20723e-15 -5.66089e-15 -1.36811e-14 0 0 2.44271e-14 -1.57468e-14 4.25962e-15 -2.80372e-14 0 0 5.41702e-15 3.79422e-15 7.16847e-15 -1.63386e-14 0 0 -6.32386e-16 2.92276e-14 2.7247e-15 1.31362e-15 0 0 3.04451e-14 3.1001e-14 4.12093e-14 2.07973e-15 0 0 3.19202e-14 6.60528e-14 7.70673e-14 2.3087e-14 0 0 4.69051e-14 8.9579e-14 9.58441e-14 6.14891e-14 0 0 5.27476e-14 9.26506e-14 9.6929e-14 6.12672e-14 0 0 4.34985e-14 7.08234e-14 7.19123e-14 5.23603e-14 0 0 2.34309e-14 2.57634e-14 2.66058e-14 3.05992e-14 0 0 -1.27996e-15 2.38985e-15 -2.69552e-15 -4.69812e-15 0 0 -5.26182e-17 -4.73593e-15 -5.60842e-15 -5.62763e-15 0 0 1.12367e-14 -8.66313e-15 -7.76782e-15 2.33008e-14 0 0 8.76674e-15 2.33652e-14 3.472e-14 4.38375e-14 0 0 1.4178e-14 1.53827e-14 4.89797e-14 2.48586e-14 0 0 1.57608e-14 3.07808e-14 7.82046e-14 8.60251e-14 0 0 2.94426e-14 6.52631e-14 7.16733e-14 7.97029e-14 0 0 4.49242e-14 9.36238e-14 5.80497e-14 7.12948e-14 0 0 3.94543e-14 7.24622e-14 1.07276e-13 8.23241e-14 0 0 1.18619e-14 -1.84057e-14 1.12335e-13 3.61063e-14 0 0 -8.0043e-14 -1.50148e-13 -6.90418e-14 -3.22433e-14 0 0 -2.11065e-13 -3.51516e-13 -3.3793e-13 -1.68693e-13 0 0 -3.34648e-13 -5.81684e-13 -5.49901e-13 -3.24993e-13 0 0 -4.42329e-13 -7.22051e-13 -6.64971e-13 -4.35804e-13 0 0 -4.50655e-13 -7.67634e-13 -6.53382e-13 -4.47505e-13 0 0 -4.22163e-13 -7.136e-13 -6.26088e-13 -3.81693e-13 0 0 -3.71856e-13 -6.19846e-13 -6.00397e-13 -2.69161e-13 0 0 -3.12725e-13 -4.75921e-13 -5.29336e-13 -2.41635e-13 0 0 -2.66555e-13 -3.81427e-13 -4.1783e-13 -2.27789e-13 0 0 -2.12206e-13 -3.594e-13 -3.05905e-13 -1.67188e-13 0 0 -1.7612e-13 -2.5321e-13 -2.71696e-13 -1.00212e-13 0 0 -1.30067e-13 -2.24992e-13 -1.79459e-13 -8.29606e-14 0 0 -8.7466e-14 -2.17782e-13 -1.1005e-13 -9.8646e-14 0 0 -8.73465e-14 -1.54753e-13 -1.19359e-13 -3.04772e-14 0 0 -9.55859e-14 -9.68192e-14 -1.2463e-13 4.53979e-14 0 0 -7.4422e-14 -6.0936e-14 -9.50008e-14 5.18073e-14 0 0 -5.17771e-14 -5.33375e-14 -3.78759e-14 1.21612e-14 0 0 -3.03243e-14 -5.78791e-14 -1.29543e-14 2.87708e-14 0 0 -1.48268e-14 -4.3346e-14 -9.09554e-15 4.28416e-14 0 0 -5.78511e-15 -7.37416e-15 -6.86176e-15 1.77838e-14 0 0 -2.08601e-15 -1.66812e-14 3.1659e-14 4.26517e-14 0 0 -3.30135e-15 3.06801e-14 2.78929e-14 9.13383e-14 0 0 -3.48383e-14 7.58945e-14 2.14565e-14 1.02725e-13 0 0 -9.32696e-15 5.74771e-14 4.47676e-14 5.47545e-14 0 0 -4.24706e-15 8.08414e-14 7.56689e-14 2.66743e-14 0 0 -7.87066e-15 8.98618e-14 1.42287e-13 5.40525e-15 0 0 1.04225e-14 7.88752e-14 1.35919e-13 2.53012e-14 0 0 -1.04554e-14 1.50987e-13 6.28563e-14 4.10401e-14 0 0 2.17152e-14 1.22885e-13 1.22905e-13 1.20361e-14 0 0 7.1225e-14 4.28576e-14 2.06297e-13 4.01978e-14 0 0 6.96003e-14 8.87344e-14 1.83965e-13 9.79214e-14 0 0 5.65762e-14 1.10748e-13 1.7317e-13 1.35415e-13 0 0 7.3551e-14 9.77354e-14 2.00347e-13 1.80694e-13 0 0 1.01975e-13 1.19225e-13 1.8469e-13 1.94144e-13 0 0 1.29253e-13 8.71934e-14 2.23097e-13 1.95877e-13 0 0 1.38977e-13 1.06089e-13 1.835e-13 2.55175e-13 0 0 1.24661e-13 1.42083e-13 1.48364e-13 2.78096e-13 0 0 1.27104e-13 1.27234e-13 2.5143e-13 2.06061e-13 0 0 1.08384e-13 1.86447e-13 1.73179e-13 1.31572e-13 0 0 8.74214e-14 1.69973e-13 8.95222e-14 1.57562e-13 0 0 9.19221e-14 9.96395e-14 1.37166e-13 1.11578e-13 0 0 7.94511e-14 8.45674e-14 1.48639e-13 1.96757e-14 0 0 7.02876e-14 5.4686e-14 9.05804e-14 -6.70593e-15 0 0 4.46567e-14 4.74431e-14 6.89725e-14 -4.74785e-14 0 0 3.01182e-14 7.86812e-15 3.60358e-14 7.44734e-15 0 0 1.04022e-14 6.30711e-15 -7.88589e-15 2.84292e-14 0 0 -2.72689e-14 3.15726e-15 -2.52612e-14 -1.20186e-14 0 0 -2.35077e-14 -2.56755e-14 -3.78504e-14 -2.99876e-14 0 0 -3.34642e-14 -3.18411e-14 -5.33683e-14 -1.43113e-14 0 0 -5.17331e-14 -2.82284e-14 -8.23039e-14 7.74341e-15 0 0 -5.0764e-14 -4.10413e-14 -7.5534e-14 -2.66513e-14 0 0 -5.74428e-14 -5.40682e-14 -5.30672e-14 -3.33877e-14 0 0 -6.9057e-14 -5.07411e-14 -5.17727e-14 -3.63269e-14 0 0 -6.58366e-14 -5.48793e-14 -7.35851e-14 -4.84046e-14 0 0 -7.17913e-14 -6.07529e-14 -8.18401e-14 -2.67577e-14 0 0 -6.114e-14 -8.30359e-14 -4.16185e-14 -7.44594e-14 0 0 -5.33116e-14 -9.02084e-14 -2.43049e-14 -9.68699e-14 0 0 -7.40926e-14 -5.81503e-14 -6.25035e-14 -2.99559e-14 0 0 -6.50105e-14 -8.01822e-14 -3.28346e-14 -4.75244e-14 0 0 -4.23368e-14 -9.28008e-14 -3.37735e-15 -6.64635e-14 0 0 -5.36825e-14 -7.59573e-14 1.15648e-15 -3.33309e-14 0 0 -5.42327e-14 -8.04594e-14 1.49997e-14 -5.75609e-14 0 0 -3.22269e-14 -9.23497e-14 2.20907e-14 -5.03366e-14 0 0 -5.05063e-14 -4.28647e-14 -1.2584e-14 1.17891e-14 0 0 -4.80776e-14 -4.29605e-14 -7.00092e-15 -2.85938e-16 0 0 -2.8443e-14 -6.33782e-14 -9.14253e-15 3.521e-14 0 0 -4.51825e-14 -2.3771e-14 -5.60624e-14 9.58151e-14 0 0 -4.23713e-14 -4.12892e-14 -1.38566e-14 3.40771e-14 0 0 -5.64197e-14 -3.78831e-14 2.06497e-14 -9.79378e-15 0 0 -6.21642e-14 -1.37712e-14 -9.31623e-16 1.99525e-14 0 0 -1.94189e-14 -6.2196e-14 6.85097e-14 -1.63157e-14 0 0 -3.23056e-14 -8.45933e-14 8.12742e-14 -3.68829e-14 0 0 -9.07202e-14 -1.87223e-14 -3.32404e-14 7.27641e-15 0 0 -9.88382e-14 1.15145e-14 -9.15463e-14 2.4546e-14 0 0 -7.99127e-14 2.06578e-15 -7.48565e-14 -1.9277e-14 0 0 -7.85711e-14 1.27567e-14 -5.31946e-14 -7.69784e-14 0 0 -7.07897e-14 -3.73705e-16 -5.78625e-14 -5.47305e-14 0 0 -2.71786e-14 -3.70482e-14 -5.5037e-14 -2.86692e-14 0 0 2.74495e-14 -1.13275e-13 -8.56311e-15 2.34047e-14 0 0 1.00303e-14 -1.20005e-13 1.5125e-14 5.51925e-14 0 0 -3.42189e-14 -5.35693e-14 1.95668e-14 5.61705e-14 0 0 -3.3044e-14 -1.57196e-14 -8.01619e-15 1.49675e-13 0 0 -2.27891e-14 -1.09972e-14 1.68846e-14 1.15983e-13 0 0 -7.46477e-15 -2.86731e-14 7.63602e-14 -2.94546e-14 0 0 1.13382e-14 -3.60149e-14 3.40134e-14 -2.16477e-14 0 0 1.18749e-14 -7.24439e-14 6.58335e-14 -2.65787e-14 0 0 -2.34458e-14 -4.54239e-14 6.79203e-14 -3.42095e-14 0 0 -4.44628e-14 -2.28918e-15 2.92275e-14 8.46491e-15 0 0 -3.79677e-14 -1.29667e-14 3.81021e-14 1.00664e-14 0 0 -2.09496e-14 -1.43841e-14 4.50164e-14 -1.2144e-14 0 0 -5.53309e-15 -1.9207e-15 3.53589e-14 -5.01457e-14 0 0 2.03415e-15 -5.83443e-15 1.58118e-14 -5.41185e-14 0 0 7.84271e-15 -1.59716e-14 9.54869e-15 -4.78378e-14 0
				</DataArray>
				<DataArray Name="VitesseY" type="Float32" format="ascii">