<?xml version="1.0"?>
<VTKFile type="PolyData">
	<PolyData>
		<Piece NumberOfPoints="1206" NumberOfPolys="1000">
			<Points>
				<DataArray type="Float32" NumberOfComponents="3" format="ascii">
 0 0 0 0.02 0 0 0.04 0 0 0.06 0 0 0.08 0 0 0.1 0 0 0 0.005 0 0.02 0.005 0 0.04 0.005 0 0.06 0.005 0 0.08 0.005 0 0.1 0.005 0 0 0.01 0 0.02 0.01 0 0.04 0.01 0 0.06 0.01 0 0.08 0.01 0 0.1 0.01 0 0 0.015 0 0.02 0.015 0 0.04 0.015 0 0.06 0.015 0 0.08 0.015 0 0.1 0.015 0 0 0.02 0 0.02 0.02 0 0.04 0.02 0 0.06 0.02 0 0.08 0.02 0 0.1 0.02 0 0 0.025 0 0.02 0.025 0 0.04 0.025 0 0.06 0.025 0 0.08 0.025 0 0.1 0.025 0 0 0.03 0 0.02 0.03 0 0.04 0.03 0 0.06 0.03 0 0.08 0.03 0 0.1 0.03 0 0 0.035 0 0.02 0.035 0 0.04 0.035 0 0.06 0.035 0 0.08 0.035 0 0.1 0.035 0 0 0.04 0 0.02 0.04 0 0.04 0.04 0 0.06 0.04 0 0.08 0.04 0 0.1 0.04 0 0 0.045 0 0.02 0.045 0 0.04 0.045 0 0.06 0.045 0 0.08 0.045 0 0.1 0.045 0 0 0.05 0 0.02 0.05 0 0.04 0.05 0 0.06 0.05 0 0.08 0.05 0 0.1 0.05 0 0 0.055 0 0.02 0.055 0 0.04 0.055 0 0.06 0.055 0 0.08 0.055 0 0.1 0.055 0 0 0.06 0 0.02 0.06 0 0.04 0.06 0 0.06 0.06 0 0.08 0.06 0 0.1 0.06 0 0 0.065 0 0.02 0.065 0 0.04 0.065 0 0.06 0.065 0 0.08 0.065 0 0.1 0.065 0 0 0.07 0 0.02 0.07 0 0.04 0.07 0 0.06 0.07 0 0.08 0.07 0 0.1 0.07 0 0 0.075 0 0.02 0.075 0 0.04 0.075 0 0.06 0.075 0 0.08 0.075 0 0.1 0.075 0 0 0.08 0 0.02 0.08 0 0.04 0.08 0 0.06 0.08 0 0.08 0.08 0 0.1 0.08 0 0 0.085 0 0.02 0.085 0 0.04 0.085 0 0.06 0.085 0 0.08 0.085 0 0.1 0.085 0 0 0.09 0 0.02 0.09 0 0.04 0.09 0 0.06 0.09 0 0.08 0.09 0 0.1 0.09 0 0 0.095 0 0.02 0.095 0 0.04 0.095 0 0.06 0.095 0 0.08 0.095 0 0.1 0.095 0 0 0.1 0 0.02 0.1 0 0.04 0.1 0 0.06 0.1 0 0.08 0.1 0 0.1 0.1 0 0 0.105 0 0.02 0.105 0 0.04 0.105 0 0.06 0.105 0 0.08 0.105 0 0.1 0.105 0 0 0.11 0 0.02 0.11 0 0.04 0.11 0 0.06 0.11 0 0.08 0.11 0 0.1 0.11 0 0 0.115 0 0.02 0.115 0 0.04 0.115 0 0.06 0.115 0 0.08 0.115 0 0.1 0.115 0 0 0.12 0 0.02 0.12 0 0.04 0.12 0 0.06 0.12 0 0.08 0.12 0 0.1 0.12 0 0 0.125 0 0.02 0.125 0 0.04 0.125 0 0.06 0.125 0 0.08 0.125 0 0.1 0.125 0 0 0.13 0 0.02 0.13 0 0.04 0.13 0 0.06 0.13 0 0.08 0.13 0 0.1 0.13 0 0 0.135 0 0.02 0.135 0 0.04 0.135 0 0.06 0.135 0 0.08 0.135 0 0.1 0.135 0 0 0.14 0 0.02 0.14 0 0.04 0.14 0 0.06 0.14 0 0.08 0.14 0 0.1 0.14 0 0 0.145 0 0.02 0.145 0 0.04 0.145 0 0.06 0.145 0 0.08 0.145 0 0.1 0.145 0 0 0.15 0 0.02 0.15 0 0.04 0.15 0 0.06 0.15 0 0.08 0.15 0 0.1 0.15 0 0 0.155 0 0.02 0.155 0 0.04 0.155 0 0.06 0.155 0 0.08 0.155 0 0.1 0.155 0 0 0.16 0 0.02 0.16 0 0.04 0.16 0 0.06 0.16 0 0.08 0.16 0 0.1 0.16 0 0 0.165 0 0.02 0.165 0 0.04 0.165 0 0.06 0.165 0 0.08 0.165 0 0.1 0.165 0 0 0.17 0 0.02 0.17 0 0.04 0.17 0 0.06 0.17 0 0.08 0.17 0 0.1 0.17 0 0 0.175 0 0.02 0.175 0 0.04 0.175 0 0.06 0.175 0 0.08 0.175 0 0.1 0.175 0 0 0.18 0 0.02 0.18 0 0.04 0.18 0 0.06 0.18 0 0.08 0.18 0 0.1 0.18 0 0 0.185 0 0.02 0.185 0 0.04 0.185 0 0.06 0.185 0 0.08 0.185 0 0.1 0.185 0 0 0.19 0 0.02 0.19 0 0.04 0.19 0 0.06 0.19 0 0.08 0.19 0 0.1 0.19 0 0 0.195 0 0.02 0.195 0 0.04 0.195 0 0.06 0.195 0 0.08 0.195 0 0.1 0.195 0 0 0.2 0 0.02 0.2 0 0.04 0.2 0 0.06 0.2 0 0.08 0.2 0 0.1 0.2 0 0 0.205 0 0.02 0.205 0 0.04 0.205 0 0.06 0.205 0 0.08 0.205 0 0.1 0.205 0 0 0.21 0 0.02 0.21 0 0.04 0.21 0 0.06 0.21 0 0.08 0.21 0 0.1 0.21 0 0 0.215 0 0.02 0.215 0 0.04 0.215 0 0.06 0.215 0 0.08 0.215 0 0.1 0.215 0 0 0.22 0 0.02 0.22 0 0.04 0.22 0 0.06 0.22 0 0.08 0.22 0 0.1 0.22 0 0 0.225 0 0.02 0.225 0 0.04 0.225 0 0.06 0.225 0 0.08 0.225 0 0.1 0.225 0 0 0.23 0 0.02 0.23 0 0.04 0.23 0 0.06 0.23 0 0.08 0.23 0 0.1 0.23 0 0 0.235 0 0.02 0.235 0 0.04 0.235 0 0.06 0.235 0 0.08 0.235 0 0.1 0.235 0 0 0.24 0 0.02 0.24 0 0.04 0.24 0 0.06 0.24 0 0.08 0.24 0 0.1 0.24 0 0 0.245 0 0.02 0.245 0 0.04 0.245 0 0.06 0.245 0 0.08 0.245 0 0.1 0.245 0 0 0.25 0 0.02 0.25 0 0.04 0.25 0 0.06 0.25 0 0.08 0.25 0 0.1 0.25 0 0 0.255 0 0.02 0.255 0 0.04 0.255 0 0.06 0.255 0 0.08 0.255 0 0.1 0.255 0 0 0.26 0 0.02 0.26 0 0.04 0.26 0 0.06 0.26 0 0.08 0.26 0 0.1 0.26 0 0 0.265 0 0.02 0.265 0 0.04 0.265 0 0.06 0.265 0 0.08 0.265 0 0.1 0.265 0 0 0.27 0 0.02 0.27 0 0.04 0.27 0 0.06 0.27 0 0.08 0.27 0 0.1 0.27 0 0 0.275 0 0.02 0.275 0 0.04 0.275 0 0.06 0.275 0 0.08 0.275 0 0.1 0.275 0 0 0.28 0 0.02 0.28 0 0.04 0.28 0 0.06 0.28 0 0.08 0.28 0 0.1 0.28 0 0 0.285 0 0.02 0.285 0 0.04 0.285 0 0.06 0.285 0 0.08 0.285 0 0.1 0.285 0 0 0.29 0 0.02 0.29 0 0.04 0.29 0 0.06 0.29 0 0.08 0.29 0 0.1 0.29 0 0 0.295 0 0.02 0.295 0 0.04 0.295 0 0.06 0.295 0 0.08 0.295 0 0.1 0.295 0 0 0.3 0 0.02 0.3 0 0.04 0.3 0 0.06 0.3 0 0.08 0.3 0 0.1 0.3 0 0 0.305 0 0.02 0.305 0 0.04 0.305 0 0.06 0.305 0 0.08 0.305 0 0.1 0.305 0 0 0.31 0 0.02 0.31 0 0.04 0.31 0 0.06 0.31 0 0.08 0.31 0 0.1 0.31 0 0 0.315 0 0.02 0.315 0 0.04 0.315 0 0.06 0.315 0 0.08 0.315 0 0.1 0.315 0 0 0.32 0 0.02 0.32 0 0.04 0.32 0 0.06 0.32 0 0.08 0.32 0 0.1 0.32 0 0 0.325 0 0.02 0.325 0 0.04 0.325 0 0.06 0.325 0 0.08 0.325 0 0.1 0.325 0 0 0.33 0 0.02 0.33 0 0.04 0.33 0 0.06 0.33 0 0.08 0.33 0 0.1 0.33 0 0 0.335 0 0.02 0.335 0 0.04 0.335 0 0.06 0.335 0 0.08 0.335 0 0.1 0.335 0 0 0.34 0 0.02 0.34 0 0.04 0.34 0 0.06 0.34 0 0.08 0.34 0 0.1 0.34 0 0 0.345 0 0.02 0.345 0 0.04 0.345 0 0.06 0.345 0 0.08 0.345 0 0.1 0.345 0 0 0.35 0 0.02 0.35 0 0.04 0.35 0 0.06 0.35 0 0.08 0.35 0 0.1 0.35 0 0 0.355 0 0.02 0.355 0 0.04 0.355 0 0.06 0.355 0 0.08 0.355 0 0.1 0.355 0 0 0.36 0 0.02 0.36 0 0.04 0.36 0 0.06 0.36 0 0.08 0.36 0 0.1 0.36 0 0 0.365 0 0.02 0.365 0 0.04 0.365 0 0.06 0.365 0 0.08 0.365 0 0.1 0.365 0 0 0.37 0 0.02 0.37 0 0.04 0.37 0 0.06 0.37 0 0.08 0.37 0 0.1 0.37 0 0 0.375 0 0.02 0.375 0 0.04 0.375 0 0.06 0.375 0 0.08 0.375 0 0.1 0.375 0 0 0.38 0 0.02 0.38 0 0.04 0.38 0 0.06 0.38 0 0.08 0.38 0 0.1 0.38 0 0 0.385 0 0.02 0.385 0 0.04 0.385 0 0.06 0.385 0 0.08 0.385 0 0.1 0.385 0 0 0.39 0 0.02 0.39 0 0.04 0.39 0 0.06 0.39 0 0.08 0.39 0 0.1 0.39 0 0 0.395002 0 0.02 0.395002 0 0.04 0.395002 0 0.06 0.395002 0 0.08 0.395002 0 0.1 0.395002 0 0 0.400007 0 0.02 0.400007 0 0.04 0.400007 0 0.06 0.400007 0 0.08 0.400007 0 0.1 0.400007 0 0 0.405027 0 0.02 0.405027 0 0.04 0.405027 0 0.06 0.405027 0 0.08 0.405027 0 0.1 0.405027 0 0 0.410084 0 0.02 0.410084 0 0.04 0.410084 0 0.06 0.410084 0 0.08 0.410084 0 0.1 0.410084 0 0 0.41522 0 0.02 0.41522 0 0.04 0.41522 0 0.06 0.41522 0 0.08 0.41522 0 0.1 0.41522 0 0 0.420495 0 0.02 0.420495 0 0.04 0.420495 0 0.06 0.420495 0 0.08 0.420495 0 0.1 0.420495 0 0 0.425972 0 0.02 0.425972 0 0.04 0.425972 0 0.06 0.425972 0 0.08 0.425972 0 0.1 0.425972 0 0 0.431709 0 0.02 0.431709 0 0.04 0.431709 0 0.06 0.431709 0 0.08 0.431709 0 0.1 0.431709 0 0 0.43776 0 0.02 0.43776 0 0.04 0.43776 0 0.06 0.43776 0 0.08 0.43776 0 0.1 0.43776 0 0 0.444179 0 0.02 0.444179 0 0.04 0.444179 0 0.06 0.444179 0 0.08 0.444179 0 0.1 0.444179 0 0 0.451025 0 0.02 0.451025 0 0.04 0.451025 0 0.06 0.451025 0 0.08 0.451025 0 0.1 0.451025 0 0 0.458373 0 0.02 0.458373 0 0.04 0.458373 0 0.06 0.458373 0 0.08 0.458373 0 0.1 0.458373 0 0 0.46631 0 0.02 0.46631 0 0.04 0.46631 0 0.06 0.46631 0 0.08 0.46631 0 0.1 0.46631 0 0 0.474947 0 0.02 0.474947 0 0.04 0.474947 0 0.06 0.474947 0 0.08 0.474947 0 0.1 0.474947 0 0 0.484421 0 0.02 0.484421 0 0.04 0.484421 0 0.06 0.484421 0 0.08 0.484421 0 0.1 0.484421 0 0 0.494882 0 0.02 0.494882 0 0.04 0.494882 0 0.06 0.494882 0 0.08 0.494882 0 0.1 0.494882 0 0 0.506428 0 0.02 0.506428 0 0.04 0.506428 0 0.06 0.506428 0 0.08 0.506428 0 0.1 0.506428 0 0 0.518757 0 0.02 0.518757 0 0.04 0.518757 0 0.06 0.518757 0 0.08 0.518757 0 0.1 0.518757 0 0 0.530981 0 0.02 0.530981 0 0.04 0.530981 0 0.06 0.530981 0 0.08 0.530981 0 0.1 0.530981 0 0 0.542955 0 0.02 0.542955 0 0.04 0.542955 0 0.06 0.542955 0 0.08 0.542955 0 0.1 0.542955 0 0 0.554776 0 0.02 0.554776 0 0.04 0.554776 0 0.06 0.554776 0 0.08 0.554776 0 0.1 0.554776 0 0 0.566571 0 0.02 0.566571 0 0.04 0.566571 0 0.06 0.566571 0 0.08 0.566571 0 0.1 0.566571 0 0 0.569193 0 0.02 0.569193 0 0.04 0.569193 0 0.06 0.569193 0 0.08 0.569193 0 0.1 0.569193 0 0 0.571741 0 0.02 0.571741 0 0.04 0.571741 0 0.06 0.571741 0 0.08 0.571741 0 0.1 0.571741 0 0 0.574242 0 0.02 0.574242 0 0.04 0.574242 0 0.06 0.574242 0 0.08 0.574242 0 0.1 0.574242 0 0 0.576712 0 0.02 0.576712 0 0.04 0.576712 0 0.06 0.576712 0 0.08 0.576712 0 0.1 0.576712 0 0 0.579159 0 0.02 0.579159 0 0.04 0.579159 0 0.06 0.579159 0 0.08 0.579159 0 0.1 0.579159 0 0 0.581589 0 0.02 0.581589 0 0.04 0.581589 0 0.06 0.581589 0 0.08 0.581589 0 0.1 0.581589 0 0 0.584007 0 0.02 0.584007 0 0.04 0.584007 0 0.06 0.584007 0 0.08 0.584007 0 0.1 0.584007 0 0 0.586415 0 0.02 0.586415 0 0.04 0.586415 0 0.06 0.586415 0 0.08 0.586415 0 0.1 0.586415 0 0 0.588817 0 0.02 0.588817 0 0.04 0.588817 0 0.06 0.588817 0 0.08 0.588817 0 0.1 0.588817 0 0 0.591212 0 0.02 0.591212 0 0.04 0.591212 0 0.06 0.591212 0 0.08 0.591212 0 0.1 0.591212 0 0 0.593604 0 0.02 0.593604 0 0.04 0.593604 0 0.06 0.593604 0 0.08 0.593604 0 0.1 0.593604 0 0 0.595993 0 0.02 0.595993 0 0.04 0.595993 0 0.06 0.595993 0 0.08 0.595993 0 0.1 0.595993 0 0 0.59838 0 0.02 0.59838 0 0.04 0.59838 0 0.06 0.59838 0 0.08 0.59838 0 0.1 0.59838 0 0 0.600766 0 0.02 0.600766 0 0.04 0.600766 0 0.06 0.600766 0 0.08 0.600766 0 0.1 0.600766 0 0 0.603152 0 0.02 0.603152 0 0.04 0.603152 0 0.06 0.603152 0 0.08 0.603152 0 0.1 0.603152 0 0 0.605542 0 0.02 0.605542 0 0.04 0.605542 0 0.06 0.605542 0 0.08 0.605542 0 0.1 0.605542 0 0 0.607939 0 0.02 0.607939 0 0.04 0.607939 0 0.06 0.607939 0 0.08 0.607939 0 0.1 0.607939 0 0 0.610355 0 0.02 0.610355 0 0.04 0.610355 0 0.06 0.610355 0 0.08 0.610355 0 0.1 0.610355 0 0 0.612791 0 0.02 0.612791 0 0.04 0.612791 0 0.06 0.612791 0 0.08 0.612791 0 0.1 0.612791 0 0 0.615278 0 0.02 0.615278 0 0.04 0.615278 0 0.06 0.615278 0 0.08 0.615278 0 0.1 0.615278 0 0 0.617811 0 0.02 0.617811 0 0.04 0.617811 0 0.06 0.617811 0 0.08 0.617811 0 0.1 0.617811 0 0 0.620449 0 0.02 0.620449 0 0.04 0.620449 0 0.06 0.620449 0 0.08 0.620449 0 0.1 0.620449 0 0 0.623189 0 0.02 0.623189 0 0.04 0.623189 0 0.06 0.623189 0 0.08 0.623189 0 0.1 0.623189 0 0 0.626135 0 0.02 0.626135 0 0.04 0.626135 0 0.06 0.626135 0 0.08 0.626135 0 0.1 0.626135 0 0 0.629312 0 0.02 0.629312 
[...]
			<PointData Scalars="VitesseX">
				<DataArray Name="VitesseX" type="Float32" format="ascii">
 0 -1.48752e-16 -8.8819e-16 -4.11145e-15 -3.59058e-15 0 0 8.09762e-17 -1.38862e-15 -3.92563e-15 -3.46364e-15 0 0 3.95923e-16 -1.77985e-15 -4.38167e-15 -2.88261e-15 0 0 1.05438e-15 -2.39322e-15 -4.49117e-15 -2.27129e-15 0 0 1.7728e-16 -1.63076e-15 -4.22096e-15 -2.03276e-15 0 0 -1.56548e-15 -3.53679e-16 -4.4061e-15 -1.5711e-15 0 0 -9.32586e-16 -1.7705e-15 -3.91724e-15 -1.09896e-15 0 0 -1.17337e-15 -1.6533e-15 -4.09688e-15 -3.83114e-16 0 0 -1.8839e-15 -1.65012e-15 -3.84655e-15 5.95101e-16 0 0 -9.70385e-16 -3.55934e-15 -3.46478e-15 4.8404e-16 0 0 -9.4225e-16 -4.19154e-15 -4.63028e-15 8.31053e-16 0 0 -1.91888e-15 -3.32872e-15 -6.16818e-15 4.93248e-16 0 0 -3.4616e-15 -2.77234e-15 -8.9421e-15 1.95142e-15 0 0 -4.62804e-15 -5.27569e-15 -8.06104e-15 -7.23966e-16 0 0 -3.93232e-15 -8.84021e-15 -3.39516e-15 -7.58742e-15 0 0 -5.74623e-15 -6.25084e-15 -6.08481e-15 -5.35705e-15 0 0 -6.33768e-15 -7.51305e-15 -4.16179e-15 -5.30796e-15 0 0 -5.58186e-15 -1.09054e-14 1.4257e-15 -1.0177e-14 0 0 -8.48267e-15 -6.05597e-15 -1.64738e-15 -1.22386e-14 0 0 -9.07719e-15 -5.86059e-15 -3.68613e-15 -7.91172e-15 0 0 -7.6065e-15 -8.18006e-15 -3.54254e-15 -6.03864e-15 0 0 -7.5185e-15 -4.89813e-15 -1.07083e-14 -3.27391e-15 0 0 -6.58904e-15 -5.91877e-15 -1.27778e-14 -1.04619e-15 0 0 -6.69746e-15 -9.99543e-15 -8.55072e-15 -8.23887e-15 0 0 -6.72854e-15 -1.17519e-14 -7.7584e-15 -1.21503e-14 0 0 -7.21503e-15 -1.14889e-14 -8.74337e-15 -1.18539e-14 0 0 -7.78075e-15 -8.83962e-15 -1.58346e-14 -1.06769e-14 0 0 -9.10196e-15 -7.50206e-15 -2.45124e-14 -7.81206e-15 0 0 -1.04998e-14 -1.1777e-14 -2.34077e-14 -7.87668e-15 0 0 -1.20512e-14 -1.24651e-14 -2.55917e-14 -5.34353e-15 0 0 -1.46203e-14 -1.43362e-14 -2.16695e-14 -1.25598e-14 0 0 -1.3595e-14 -1.96314e-14 -1.34736e-14 -2.41293e-14 0 0 -1.16616e-14 -1.73317e-14 -1.82521e-14 -1.74009e-14 0 0 -1.01124e-14 -1.91839e-14 -1.80061e-14 -1.01759e-14 0 0 -1.00691e-14 -1.82058e-14 -2.32152e-14 -6.48627e-15 0 0 -6.54995e-15 -2.08284e-14 -1.89137e-14 -8.58179e-15 0 0 -7.15525e-15 -2.48021e-14 -1.11529e-14 -5.0032e-15 0 0 -1.3983e-14 -2.4026e-14 -1.15862e-14 5.96537e-15 0 0 -1.08039e-14 -2.63243e-14 -1.26915e-14 5.00647e-15 0 0 -3.00882e-15 -2.12474e-14 -1.78879e-14 5.49394e-16 0 0 -5.3979e-15 -1.62967e-14 -1.31772e-14 -2.81808e-16 0 0 -1.29752e-14 -1.64477e-14 -9.50148e-15 2.72847e-15 0 0 -8.49725e-15 -2.42247e-14 -1.11957e-14 6.3314e-15 0 0 -6.78524e-15 -2.58347e-14 -1.29009e-14 1.71897e-15 0 0 -6.41845e-15 -2.45998e-14 -1.104e-14 -2.99469e-17 0 0 -6.87061e-15 -1.52279e-14 -2.05083e-14 1.18399e-14 0 0 -1.07953e-14 -1.01143e-14 -1.79368e-14 4.27135e-16 0 0 -1.15355e-14 -1.09719e-14 -9.61039e-15 -1.85279e-14 0 0 -8.90413e-15 -1.19878e-14 -1.30247e-14 -2.2624e-14 0 0 -7.87245e-15 -1.61117e-14 -1.08386e-14 -2.79032e-14 0 0 -6.75934e-15 -2.19004e-14 -1.15751e-14 -2.77087e-14 0 0 -1.2014e-14 -2.5578e-14 -2.14996e-14 -1.81866e-14 0 0 -1.82921e-14 -2.52482e-14 -2.64301e-14 -1.42273e-14 0 0 -1.32475e-14 -2.72333e-14 -2.98725e-14 -2.55266e-14 0 0 -1.70915e-14 -1.35848e-14 -4.9469e-14 -2.00558e-14 0 0 -1.5529e-14 -1.65366e-14 -5.85834e-14 -3.91884e-15 0 0 -1.91304e-14 -2.3278e-14 -5.64547e-14 -3.21996e-15 0 0 -2.61836e-14 -1.96653e-14 -5.92287e-14 -1.85614e-15 0 0 -2.2875e-14 -2.14359e-14 -5.80904e-14 6.15861e-15 0 0 -1.61313e-14 -2.14707e-14 -5.38293e-14 5.04483e-15 0 0 -1.44182e-14 -2.92825e-14 -4.07891e-14 1.5649e-15 0 0 -2.37923e-14 -2.51946e-14 -3.82645e-14 7.97338e-15 0 0 -2.2026e-14 -2.04747e-14 -4.53055e-14 2.17749e-14 0 0 -1.72906e-14 -1.68809e-14 -4.8239e-14 2.27615e-14 0 0 -1.342e-14 -1.354e-14 -4.54317e-14 -9.19379e-16 0 0 -1.72957e-14 -6.71044e-15 -3.94313e-14 -1.78142e-14 0 0 -2.17504e-14 3.06138e-15 -4.87929e-14 -1.01437e-14 0 0 -6.67231e-15 -1.66025e-14 -2.71137e-14 -2.02114e-14 0 0 -5.69136e-15 -2.593e-14 9.30007e-15 -4.231e-14 0 0 -8.18773e-15 -3.89674e-15 1.13898e-15 -3.63734e-14 0 0 1.34518e-14 2.18011e-14 -2.22136e-14 -3.78426e-14 0 0 1.92913e-14 3.49421e-14 -2.05035e-14 -3.59216e-14 0 0 1.4942e-14 3.30731e-14 -9.65405e-15 -2.53942e-14 0 0 2.14581e-14 2.79456e-14 -5.07374e-15 -2.67184e-14 0 0 1.60343e-14 3.05176e-14 2.01974e-15 -2.71855e-14 0 0 9.34172e-15 3.30431e-14 4.2644e-15 -1.68723e-14 0 0 1.57136e-14 1.93293e-14 1.46717e-14 -1.76155e-14 0 0 9.77886e-15 1.25738e-14 2.46295e-14 -3.09036e-14 0 0 2.93009e-15 2.69897e-14 7.83924e-15 -2.23711e-14 0 0 6.96296e-15 2.21154e-14 5.37577e-15 -1.61014e-14 0 0 -1.2721e-14 1.28571e-14 1.77354e-14 -1.15988e-14 0 0 -2.74491e-14 2.29742e-14 -1.52081e-15 1.20201e-15 0 0 -5.96641e-15 1.28742e-14 -1.8822e-14 7.59798e-16 0 0 -7.70154e-15 7.81239e-15 -1.44519e-14 -2.39251e-15 0 0 -1.48859e-14 7.31405e-15 -1.01275e-14 4.87636e-15 0 0 -1.19588e-14 -7.75004e-15 -5.10852e-15 1.12916e-14 0 0 -2.01173e-14 5.90557e-15 -5.82136e-15 1.43395e-14 0 0 -1.96747e-14 1.33202e-14 -1.57147e-14 1.00357e-14 0 0 -1.07031e-14 1.88093e-15 -8.92002e-15 -1.80387e-15 0 0 6.04263e-15 -4.59537e-15 -2.14846e-15 -7.52316e-15 0 0 1.4835e-14 -5.86748e-15 1.84903e-15 5.67499e-15 0 0 6.91962e-15 6.40273e-15 1.87622e-14 -3.39965e-15 0 0 6.83197e-15 1.87059e-14 1.11574e-14 -1.96104e-14 0 0 4.52557e-16 -3.28981e-15 -4.38976e-16 -1.63341e-16 0 0 -2.94077e-15 -1.27616e-14 -1.26705e-15 -1.97976e-15 0 0 5.52395e-15 2.19903e-14 -8.49623e-15 1.15514e-14 0 0 4.9921e-14 5.03008e-14 5.36823e-14 2.97677e-14 0 0 6.73252e-14 9.99793e-14 1.13506e-13 4.64505e-14 0 0 1.95962e-14 5.08163e-14 4.20283e-14 2.69518e-14 0 0 -1.03246e-13 -1.87776e-13 -1.63824e-13 -1.08702e-13 0 0 -2.31101e-13 -3.6398e-13 -3.38212e-13 -2.21226e-13 0 0 -4.33383e-13 -6.60754e-13 -5.79354e-13 -3.47521e-13 0 0 -4.08957e-13 -6.66149e-13 -5.56364e-13 -4.23378e-13 0 0 -4.46545e-13 -6.20855e-13 -6.61787e-13 -3.68692e-13 0 0 -4.60209e-13 -6.26572e-13 -7.18099e-13 -3.5102e-13 0 0 -4.33832e-13 -6.87885e-13 -6.96374e-13 -3.76347e-13 0 0 -4.28012e-13 -6.88674e-13 -7.03829e-13 -3.37553e-13 0 0 -4.3736e-13 -6.35445e-13 -6.93718e-13 -3.17235e-13 0 0 -3.9285e-13 -5.28326e-13 -5.95054e-13 -2.61529e-13 0 0 -2.73831e-13 -3.39542e-13 -4.20858e-13 -1.03698e-13 0 0 -1.55102e-13 -9.06004e-14 -1.75211e-13 5.77597e-14 0 0 -1.52408e-14 7.9585e-14 5.27701e-14 1.66778e-13 0 0 1.35928e-13 9.75858e-14 2.09757e-13 2.59511e-13 0 0 1.89039e-13 6.10291e-14 2.9424e-13 2.48314e-13 0 0 1.39837e-13 7.65453e-14 2.81096e-13 1.735e-13 0 0 8.46838e-14 8.30119e-14 2.33412e-13 1.19832e-13 0 0 5.20713e-14 9.10672e-15 2.67444e-13 2.20356e-15 0 0 -6.81037e-15 -2.04472e-14 1.8203e-13 1.80278e-14 0 0 -6.45412e-14 2.24468e-14 -2.81649e-14 1.24182e-13 0 0 -6.10218e-14 -1.68719e-14 -6.53965e-14 1.13762e-13 0 0 -6.06022e-14 -6.3184e-14 -4.47676e-14 1.38786e-13 0 0 -6.3102e-14 -5.66246e-14 -9.33645e-14 2.15253e-13 0 0 -2.48032e-14 -6.63251e-14 -1.69542e-14 1.3808e-13 0 0 -7.12747e-16 -9.83169e-16 3.3862e-14 -2.79365e-14 0 0 1.80291e-14 6.67906e-14 2.86138e-14 -1.76909e-14 0 0 4.08488e-14 7.08666e-14 7.1532e-14 1.81592e-14 0 0 5.20763e-14 8.52616e-14 9.05095e-14 -3.54341e-14 0 0 4.66142e-14 8.12967e-14 6.72737e-14 2.5661e-14 0 0 3.03493e-14 5.57919e-14 4.25658e-14 7.16936e-14 0 0 2.95796e-14 3.39237e-14 4.89331e-14 6.99767e-16 0 0 2.69825e-14 1.27648e-14 1.74209e-14 -4.17242e-15 0 0 1.5953e-14 1.79682e-14 -2.86421e-14 -1.74405e-14 0 0 1.30272e-14 6.58822e-15 -2.20082e-14 -4.14691e-14 0 0 1.20708e-14 -1.54516e-14 -1.34849e-16 -3.33782e-14 0 0 1.14324e-14 -1.204e-14 -7.97176e-15 -3.77607e-14 0 0 2.24058e-14 -6.13438e-15 -2.48859e-14 -3.15446e-14 0 0 2.07168e-14 -1.098e-14 -1.17727e-14 -4.12804e-14 0 0 1.25237e-14 7.70643e-15 -1.06199e-14 -6.46416e-14 0 0 -5.52998e-15 3.16003e-14 -1.48647e-14 -4.37159e-14 0 0 -2.15184e-15 2.19665e-14 -9.42373e-15 -1.31191e-14 0 0 1.70853e-14 8.9453e-15 -3.95524e-15 -2.83886e-14 0 0 3.33603e-15 1.37254e-14 -1.9642e-14 3.75013e-15 0 0 -2.00235e-15 1.09511e-14 -3.47941e-14 3.26264e-14 0 0 7.53268e-15 2.06312e-15 -2.90979e-14 -1.27583e-14 0 0 1.0937e-15 -1.0138e-14 -3.52202e-14 -3.02382e-14 0 0 -1.44558e-14 -2.1261e-14 -5.28295e-14 -5.12331e-15 0 0 -1.96645e-14 -3.99975e-14 -4.29813e-14 -3.16498e-14 0 0 -1.39478e-14 -6.26492e-14 -6.17408e-14 -4.08084e-14 0 0 -2.45606e-14 -4.8878e-14 -1.01809e-13 -1.90003e-14 0 0 -3.25285e-14 -5.18726e-14 -1.14145e-13 -4.43927e-14 0 0 -3.64062e-14 -8.45921e-14 -1.00748e-13 -6.62027e-14 0 0 -5.41661e-14 -7.42188e-14 -1.02821e-13 -8.73134e-14 0 0 -5.61183e-14 -3.44868e-14 -1.627e-13 -1.06128e-13 0 0 -3.66672e-14 -5.29898e-14 -1.60819e-13 -1.16976e-13 0 0 -3.69325e-14 -7.63046e-14 -1.35598e-13 -9.73747e-14 0 0 -4.64319e-14 -7.14997e-14 -1.33154e-13 -1.0939e-13 0 0 -5.65447e-14 -5.97883e-14 -1.46945e-13 -1.29297e-13 0 0 -7.30327e-14 -6.20481e-14 -1.36332e-13 -1.32767e-13 0 0 -8.21487e-14 -6.69002e-14 -1.02397e-13 -1.83793e-13 0 0 -6.17354e-14 -9.30992e-14 -9.15243e-14 -1.65303e-13 0 0 -5.20567e-14 -1.34427e-13 -7.91543e-14 -7.27087e-14 0 0 -7.53962e-14 -1.0875e-13 -9.67675e-14 -3.78887e-14 0 0 -6.97953e-14 -1.06736e-13 -1.02976e-13 -5.95784e-14 0 0 -4.7923e-14 -1.20664e-13 -1.00285e-13 -5.6779e-14 0 0 -3.46461e-14 -1.29132e-13 -1.07081e-13 -1.84066e-14 0 0 -4.22716e-14 -1.16468e-13 -1.36828e-13 -7.36328e-15 0 0 -5.39985e-14 -1.05461e-13 -1.30452e-13 -2.1089e-14 0 0 -5.04306e-14 -1.38619e-13 -6.79023e-14 -2.79093e-14 0 0 -9.05822e-14 -7.61652e-14 -1.11248e-13 5.76748e-15 0 0 -1.056e-13 -5.21757e-14 -1.43823e-13 4.15705e-15 0 0 -8.4548e-14 -1.11283e-13 -8.4603e-14 -5.13479e-14 0 0 -9.40126e-14 -1.16466e-13 -8.31779e-14 -1.76953e-14 0 0 -9.28403e-14 -1.22e-13 -8.00031e-14 1.02898e-14 0 0 -9.38347e-14 -1.2359e-13 -4.04193e-14 -8.89844e-15 0 0 -8.52803e-14 -8.94446e-14 -6.59133e-14 1.81965e-15 0 0 -8.97897e-14 -5.19617e-14 -1.02116e-13 -9.31608e-15 0 0 -6.78727e-14 -7.90302e-14 -9.8393e-14 -3.77776e-14 0 0 -3.86859e-14 -1.0115e-13 -1.08647e-13 -5.64809e-14 0 0 -6.40989e-14 -7.8019e-14 -8.04903e-14 -1.06555e-13 0 0 -7.40589e-14 -7.24092e-14 -6.34266e-14 -1.33787e-13 0 0 -5.52898e-14 -8.98899e-14 -1.02762e-13 -8.01451e-14 0 0 -1.97106e-14 -1.1198e-13 -1.49354e-13 5.56437e-15 0 0 8.2002e-15 -1.32328e-13 -1.62546e-13 1.80867e-14 0 0 -2.24443e-14 -1.2468e-13 -1.33466e-13 -2.05705e-14 0 0 -6.31983e-14 -8.91602e-14 -1.2276e-13 -4.53767e-14 0 0 -5.15118e-14 -1.2331e-13 -1.17009e-13 -8.3961e-14 0 0 -5.85194e-14 -1.21189e-13 -1.46587e-13 -8.61191e-14 0 0 -6.66465e-14 -9.1039e-14 -1.9056e-13 -6.31974e-14 0 0 -5.54388e-14 -9.84659e-14 -1.86462e-13 -9.14717e-14 0 0 -8.47392e-14 -9.29072e-14 -1.4252e-13 -1.23479e-13 0 0 -9.17882e-14 -1.15665e-13 -7.4294e-14 -1.46802e-13 0 0 -5.50293e-14 -1.49693e-13 -3.32776e-14 -1.18249e-13 0 0 -4.70552e-14 -1.61444e-13 -6.19225e-14 6.69994e-15 0 0 -5.20089e-14 -1.6244e-13 -9.19856e-14 5.78519e-14 0 0 -5.06617e-14 -1.78595e-13 -8.89001e-14 3.86237e-14 0 0 -7.23223e-14 -1.65099e-13 -1.01716e-13 -1.42505e-14 0 0 -6.93926e-14 -1.38935e-13 -1.18421e-13 -1.0154e-13 0 0 -5.96884e-14 -1.01167e-13 -1.59211e-13 -1.20031e-13 0 0 -6.50903e-14 -9.74679e-14 -1.90442e-13 -9.58901e-14 0 0 -6.48672e-14 -1.23195e-13 -1.82014e-13 -9.43797e-14 0 0 -6.92977e-14 -1.17124e-13 -1.77102e-13 -1.01105e-13 0
				</DataArray>
				<DataArray Name="VitesseY" type="Float32" format="ascii">