<?xml version="1.0"?>
<VTKFile type="PolyData">
	<PolyData>
		<Piece NumberOfPoints="1206" NumberOfPolys="1000">
			<Points>
				<DataArray type="Float32" NumberOfComponents="3" format="ascii">
 0 0 0 0.02 0 0 0.04 0 0 0.06 0 0 0.08 0 0 0.1 0 0 0 0.005 0 0.02 0.005 0 0.04 0.005 0 0.06 0.005 0 0.08 0.005 0 0.1 0.005 0 0 0.01 0 0.02 0.01 0 0.04 0.01 0 0.06 0.01 0 0.08 0.01 0 0.1 0.01 0 0 0.015 0 0.02 0.015 0 0.04 0.015 0 0.06 0.015 0 0.08 0.015 0 0.1 0.015 0 0 0.02 0 0.02 0.02 0 0.04 0.02 0 0.06 0.02 0 0.08 0.02 0 0.1 0.02 0 0 0.025 0 0.02 0.025 0 0.04 0.025 0 0.06 0.025 0 0.08 0.025 0 0.1 0.025 0 0 0.03 0 0.02 0.03 0 0.04 0.03 0 0.06 0.03 0 0.08 0.03 0 0.1 0.03 0 0 0.035 0 0.02 0.035 0 0.04 0.035 0 0.06 0.035 0 0.08 0.035 0 0.1 0.035 0 0 0.04 0 0.02 0.04 0 0.04 0.04 0 0.06 0.04 0 0.08 0.04 0 0.1 0.04 0 0 0.045 0 0.02 0.045 0 0.04 0.045 0 0.06 0.045 0 0.08 0.045 0 0.1 0.045 0 0 0.05 0 0.02 0.05 0 0.04 0.05 0 0.06 0.05 0 0.08 0.05 0 0.1 0.05 0 0 0.055 0 0.02 0.055 0 0.04 0.055 0 0.06 0.055 0 0.08 0.055 0 0.1 0.055 0 0 0.06 0 0.02 0.06 0 0.04 0.06 0 0.06 0.06 0 0.08 0.06 0 0.1 0.06 0 0 0.065 0 0.02 0.065 0 0.04 0.065 0 0.06 0.065 0 0.08 0.065 0 0.1 0.065 0 0 0.07 0 0.02 0.07 0 0.04 0.07 0 0.06 0.07 0 0.08 0.07 0 0.1 0.07 0 0 0.075 0 0.02 0.075 0 0.04 0.075 0 0.06 0.075 0 0.08 0.075 0 0.1 0.075 0 0 0.08 0 0.02 0.08 0 0.04 0.08 0 0.06 0.08 0 0.08 0.08 0 0.1 0.08 0 0 0.085 0 0.02 0.085 0 0.04 0.085 0 0.06 0.085 0 0.08 0.085 0 0.1 0.085 0 0 0.09 0 0.02 0.09 0 0.04 0.09 0 0.06 0.09 0 0.08 0.09 0 0.1 0.09 0 0 0.095 0 0.02 0.095 0 0.04 0.095 0 0.06 0.095 0 0.08 0.095 0 0.1 0.095 0 0 0.1 0 0.02 0.1 0 0.04 0.1 0 0.06 0.1 0 0.08 0.1 0 0.1 0.1 0 0 0.105 0 0.02 0.105 0 0.04 0.105 0 0.06 0.105 0 0.08 0.105 0 0.1 0.105 0 0 0.11 0 0.02 0.11 0 0.04 0.11 0 0.06 0.11 0 0.08 0.11 0 0.1 0.11 0 0 0.115 0 0.02 0.115 0 0.04 0.115 0 0.06 0.115 0 0.08 0.115 0 0.1 0.115 0 0 0.12 0 0.02 0.12 0 0.04 0.12 0 0.06 0.12 0 0.08 0.12 0 0.1 0.12 0 0 0.125 0 0.02 0.125 0 0.04 0.125 0 0.06 0.125 0 0.08 0.125 0 0.1 0.125 0 0 0.13 0 0.02 0.13 0 0.04 0.13 0 0.06 0.13 0 0.08 0.13 0 0.1 0.13 0 0 0.135 0 0.02 0.135 0 0.04 0.135 0 0.06 0.135 0 0.08 0.135 0 0.1 0.135 0 0 0.14 0 0.02 0.14 0 0.04 0.14 0 0.06 0.14 0 0.08 0.14 0 0.1 0.14 0 0 0.145 0 0.02 0.145 0 0.04 0.145 0 0.06 0.145 0 0.08 0.145 0 0.1 0.145 0 0 0.15 0 0.02 0.15 0 0.04 0.15 0 0.06 0.15 0 0.08 0.15 0 0.1 0.15 0 0 0.155 0 0.02 0.155 0 0.04 0.155 0 0.06 0.155 0 0.08 0.155 0 0.1 0.155 0 0 0.16 0 0.02 0.16 0 0.04 0.16 0 0.06 0.16 0 0.08 0.16 0 0.1 0.16 0 0 0.165 0 0.02 0.165 0 0.04 0.165 0 0.06 0.165 0 0.08 0.165 0 0.1 0.165 0 0 0.17 0 0.02 0.17 0 0.04 0.17 0 0.06 0.17 0 0.08 0.17 0 0.1 0.17 0 0 0.175 0 0.02 0.175 0 0.04 0.175 0 0.06 0.175 0 0.08 0.175 0 0.1 0.175 0 0 0.18 0 0.02 0.18 0 0.04 0.18 0 0.06 0.18 0 0.08 0.18 0 0.1 0.18 0 0 0.185 0 0.02 0.185 0 0.04 0.185 0 0.06 0.185 0 0.08 0.185 0 0.1 0.185 0 0 0.19 0 0.02 0.19 0 0.04 0.19 0 0.06 0.19 0 0.08 0.19 0 0.1 0.19 0 0 0.195 0 0.02 0.195 0 0.04 0.195 0 0.06 0.195 0 0.08 0.195 0 0.1 0.195 0 0 0.2 0 0.02 0.2 0 0.04 0.2 0 0.06 0.2 0 0.08 0.2 0 0.1 0.2 0 0 0.205 0 0.02 0.205 0 0.04 0.205 0 0.06 0.205 0 0.08 0.205 0 0.1 0.205 0 0 0.21 0 0.02 0.21 0 0.04 0.21 0 0.06 0.21 0 0.08 0.21 0 0.1 0.21 0 0 0.215 0 0.02 0.215 0 0.04 0.215 0 0.06 0.215 0 0.08 0.215 0 0.1 0.215 0 0 0.22 0 0.02 0.22 0 0.04 0.22 0 0.06 0.22 0 0.08 0.22 0 0.1 0.22 0 0 0.225 0 0.02 0.225 0 0.04 0.225 0 0.06 0.225 0 0.08 0.225 0 0.1 0.225 0 0 0.23 0 0.02 0.23 0 0.04 0.23 0 0.06 0.23 0 0.08 0.23 0 0.1 0.23 0 0 0.235 0 0.02 0.235 0 0.04 0.235 0 0.06 0.235 0 0.08 0.235 0 0.1 0.235 0 0 0.24 0 0.02 0.24 0 0.04 0.24 0 0.06 0.24 0 0.08 0.24 0 0.1 0.24 0 0 0.245 0 0.02 0.245 0 0.04 0.245 0 0.06 0.245 0 0.08 0.245 0 0.1 0.245 0 0 0.25 0 0.02 0.25 0 0.04 0.25 0 0.06 0.25 0 0.08 0.25 0 0.1 0.25 0 0 0.255 0 0.02 0.255 0 0.04 0.255 0 0.06 0.255 0 0.08 0.255 0 0.1 0.255 0 0 0.26 0 0.02 0.26 0 0.04 0.26 0 0.06 0.26 0 0.08 0.26 0 0.1 0.26 0 0 0.265 0 0.02 0.265 0 0.04 0.265 0 0.06 0.265 0 0.08 0.265 0 0.1 0.265 0 0 0.27 0 0.02 0.27 0 0.04 0.27 0 0.06 0.27 0 0.08 0.27 0 0.1 0.27 0 0 0.275 0 0.02 0.275 0 0.04 0.275 0 0.06 0.275 0 0.08 0.275 0 0.1 0.275 0 0 0.28 0 0.02 0.28 0 0.04 0.28 0 0.06 0.28 0 0.08 0.28 0 0.1 0.28 0 0 0.285 0 0.02 0.285 0 0.04 0.285 0 0.06 0.285 0 0.08 0.285 0 0.1 0.285 0 0 0.290001 0 0.02 0.290001 0 0.04 0.290001 0 0.06 0.290001 0 0.08 0.290001 0 0.1 0.290001 0 0 0.295004 0 0.02 0.295004 0 0.04 0.295004 0 0.06 0.295004 0 0.08 0.295004 0 0.1 0.295004 0 0 0.300011 0 0.02 0.300011 0 0.04 0.300011 0 0.06 0.300011 0 0.08 0.300011 0 0.1 0.300011 0 0 0.305028 0 0.02 0.305028 0 0.04 0.305028 0 0.06 0.305028 0 0.08 0.305028 0 0.1 0.305028 0 0 0.310065 0 0.02 0.310065 0 0.04 0.310065 0 0.06 0.310065 0 0.08 0.310065 0 0.1 0.310065 0 0 0.315139 0 0.02 0.315139 0 0.04 0.315139 0 0.06 0.315139 0 0.08 0.315139 0 0.1 0.315139 0 0 0.32027 0 0.02 0.32027 0 0.04 0.32027 0 0.06 0.32027 0 0.08 0.32027 0 0.1 0.32027 0 0 0.325477 0 0.02 0.325477 0 0.04 0.325477 0 0.06 0.325477 0 0.08 0.325477 0 0.1 0.325477 0 0 0.33078 0 0.02 0.33078 0 0.04 0.33078 0 0.06 0.33078 0 0.08 0.33078 0 0.1 0.33078 0 0 0.336194 0 0.02 0.336194 0 0.04 0.336194 0 0.06 0.336194 0 0.08 0.336194 0 0.1 0.336194 0 0 0.341733 0 0.02 0.341733 0 0.04 0.341733 0 0.06 0.341733 0 0.08 0.341733 0 0.1 0.341733 0 0 0.347406 0 0.02 0.347406 0 0.04 0.347406 0 0.06 0.347406 0 0.08 0.347406 0 0.1 0.347406 0 0 0.353225 0 0.02 0.353225 0 0.04 0.353225 0 0.06 0.353225 0 0.08 0.353225 0 0.1 0.353225 0 0 0.3592 0 0.02 0.3592 0 0.04 0.3592 0 0.06 0.3592 0 0.08 0.3592 0 0.1 0.3592 0 0 0.365342 0 0.02 0.365342 0 0.04 0.365342 0 0.06 0.365342 0 0.08 0.365342 0 0.1 0.365342 0 0 0.371662 0 0.02 0.371662 0 0.04 0.371662 0 0.06 0.371662 0 0.08 0.371662 0 0.1 0.371662 0 0 0.378173 0 0.02 0.378173 0 0.04 0.378173 0 0.06 0.378173 0 0.08 0.378173 0 0.1 0.378173 0 0 0.38489 0 0.02 0.38489 0 0.04 0.38489 0 0.06 0.38489 0 0.08 0.38489 0 0.1 0.38489 0 0 0.391826 0 0.02 0.391826 0 0.04 0.391826 0 0.06 0.391826 0 0.08 0.391826 0 0.1 0.391826 0 0 0.398999 0 0.02 0.398999 0 0.04 0.398999 0 0.06 0.398999 0 0.08 0.398999 0 0.1 0.398999 0 0 0.406428 0 0.02 0.406428 0 0.04 0.406428 0 0.06 0.406428 0 0.08 0.406428 0 0.1 0.406428 0 0 0.414133 0 0.02 0.414133 0 0.04 0.414133 0 0.06 0.414133 0 0.08 0.414133 0 0.1 0.414133 0 0 0.422139 0 0.02 0.422139 0 0.04 0.422139 0 0.06 0.422139 0 0.08 0.422139 0 0.1 0.422139 0 0 0.43047 0 0.02 0.43047 0 0.04 0.43047 0 0.06 0.43047 0 0.08 0.43047 0 0.1 0.43047 0 0 0.439158 0 0.02 0.439158 0 0.04 0.439158 0 0.06 0.439158 0 0.08 0.439158 0 0.1 0.439158 0 0 0.448235 0 0.02 0.448235 0 0.04 0.448235 0 0.06 0.448235 0 0.08 0.448235 0 0.1 0.448235 0 0 0.457739 0 0.02 0.457739 0 0.04 0.457739 0 0.06 0.457739 0 0.08 0.457739 0 0.1 0.457739 0 0 0.46771 0 0.02 0.46771 0 0.04 0.46771 0 0.06 0.46771 0 0.08 0.46771 0 0.1 0.46771 0 0 0.478191 0 0.02 0.478191 0 0.04 0.478191 0 0.06 0.478191 0 0.08 0.478191 0 0.1 0.478191 0 0 0.489215 0 0.02 0.489215 0 0.04 0.489215 0 0.06 0.489215 0 0.08 0.489215 0 0.1 0.489215 0 0 0.500792 0 0.02 0.500792 0 0.04 0.500792 0 0.06 0.500792 0 0.08 0.500792 0 0.1 0.500792 0 0 0.512827 0 0.02 0.512827 0 0.04 0.512827 0 0.06 0.512827 0 0.08 0.512827 0 0.1 0.512827 0 0 0.524997 0 0.02 0.524997 0 0.04 0.524997 0 0.06 0.524997 0 0.08 0.524997 0 0.1 0.524997 0 0 0.537062 0 0.02 0.537062 0 0.04 0.537062 0 0.06 0.537062 0 0.08 0.537062 0 0.1 0.537062 0 0 0.549017 0 0.02 0.549017 0 0.04 0.549017 0 0.06 0.549017 0 0.08 0.549017 0 0.1 0.549017 0 0 0.560878 0 0.02 0.560878 0 0.04 0.560878 0 0.06 0.560878 0 0.08 0.560878 0 0.1 0.560878 0 0 0.572677 0 0.02 0.572677 0 0.04 0.572677 0 0.06 0.572677 0 0.08 0.572677 0 0.1 0.572677 0 0 0.584444 0 0.02 0.584444 0 0.04 0.584444 0 0.06 0.584444 0 0.08 0.584444 0 0.1 0.584444 0 0 0.596195 0 0.02 0.596195 0 0.04 0.596195 0 0.06 0.596195 0 0.08 0.596195 0 0.1 0.596195 0 0 0.60794 0 0.02 0.60794 0 0.04 0.60794 0 0.06 0.60794 0 0.08 0.60794 0 0.1 0.60794 0 0 0.619682 0 0.02 0.619682 0 0.04 0.619682 0 0.06 0.619682 0 0.08 0.619682 0 0.1 0.619682 0 0 0.631425 0 0.02 0.631425 0 0.04 0.631425 0 0.06 0.631425 0 0.08 0.631425 0 0.1 0.631425 0 0 0.64318 0 0.02 0.64318 0 0.04 0.64318 0 0.06 0.64318 0 0.08 0.64318 0 0.1 0.64318 0 0 0.645793 0 0.02 0.645793 0 0.04 0.645793 0 0.06 0.645793 0 0.08 0.645793 0 0.1 0.645793 0 0 0.648331 0 0.02 0.648331 0 0.04 0.648331 0 0.06 0.648331 0 0.08 0.648331 0 0.1 0.648331 0 0 0.650823 0 0.02 0.650823 0 0.04 0.650823 0 0.06 0.650823 0 0.08 0.650823 0 0.1 0.650823 0 0 0.653283 0 0.02 0.653283 0 0.04 0.653283 0 0.06 0.653283 0 0.08 0.653283 0 0.1 0.653283 0 0 0.655722 0 0.02 0.655722 0 0.04 0.655722 0 0.06 0.655722 0 0.08 0.655722 0 0.1 0.655722 0 0 0.658144 0 0.02 0.658144 0 0.04 0.658144 0 0.06 0.658144 0 0.08 0.658144 0 0.1 0.658144 0 0 0.660553 0 0.02 0.660553 0 0.04 0.660553 0 0.06 0.660553 0 0.08 0.660553 0 0.1 0.660553 0 0 0.662954 0 0.02 0.662954 0 0.04 0.662954 0 0.06 0.662954 0 0.08 0.662954 0 0.1 0.662954 0 0 0.665348 0 0.02 0.665348 0 0.04 0.665348 0 0.06 0.665348 0 0.08 0.665348 0 0.1 0.665348 0 0 0.667736 0 0.02 0.667736 0 0.04 0.667736 0 0.06 0.667736 0 0.08 0.667736 0 0.1 0.667736 0 0 0.67012 0 0.02 0.67012 0 0.04 0.67012 0 0.06 0.67012 0 0.08 0.67012 0 0.1 0.67012 0 0 0.672501 0 0.02 0.672501 0 0.04 0.672501 0 0.06 0.672501 0 0.08 0.672501 0 0.1 0.672501 0 0 0.674879 0 0.02 0.674879 0 0.04 0.674879 0 0.06 0.674879 0 0.08 0.674879 0 0.1 0.674879 0 0 0.677253 0 0.02 0.677253 0 0.04 0.677253 0 0.06 0.677253 0 0.08 0.677253 0 0.1 0.677253 0 0 0.679624 0 0.02 0.679624 0 0.04 0.679624 0 0.06 0.679624 0 0.08 0.679624 0 0.1 0.679624 0 0 0.681992 0 0.02 0.681992 0 0.04 0.681992 0 0.06 0.681992 0 0.08 0.681992 0 0.1 0.681992 0 0 0.684358 0 0.02 0.684358 0 0.04 0.684358 0 0.06 0.684358 0 0.08 0.684358 0 0.1 0.684358 0 0 0.686723 0 0.02 0.686723 0 0.04 0.686723 0 0.06 0.686723 0 0.08 0.686723 0 0.1 0.686723 0 0 0.689085 0 0.02 0.689085 0 0.04 0.689085 0 0.06 0.689085 0 0.08 0.689085 0 0.1 0.689085 0 0 0.691446 0 0.02 0.691446 0 0.04 0.691446 0 0.06 0.691446 0 0.08 0.69144
[...]
			<PointData Scalars="VitesseX">
				<DataArray Name="VitesseX" type="Float32" format="ascii">
 0 2.98088e-15 -2.64016e-15 -5.95424e-15 -9.09307e-15 0 0 2.84297e-15 -2.65233e-15 -6.01378e-15 -9.02514e-15 0 0 2.46777e-15 -2.55351e-15 -6.39812e-15 -8.80099e-15 0 0 2.01804e-15 -2.92577e-15 -6.07408e-15 -9.19187e-15 0 0 1.03826e-15 -2.66936e-15 -6.61164e-15 -8.481e-15 0 0 5.01197e-16 -2.50703e-15 -5.40267e-15 -8.52684e-15 0 0 1.41217e-15 -3.63651e-15 -8.4744e-16 -9.60041e-15 0 0 -4.397e-17 1.26631e-16 -6.57441e-16 -6.29931e-15 0 0 -1.96924e-15 4.5036e-15 -5.62898e-16 -1.91322e-15 0 0 -1.60682e-15 5.73596e-15 2.32543e-15 2.6057e-15 0 0 -9.22611e-16 6.59972e-15 6.88998e-15 5.31576e-15 0 0 2.60717e-16 6.03795e-15 1.25535e-14 6.04706e-15 0 0 2.37392e-15 6.94628e-15 1.34518e-14 8.92127e-15 0 0 3.13037e-15 1.01767e-14 1.0121e-14 1.08234e-14 0 0 4.00648e-15 1.39263e-14 5.13927e-15 1.20983e-14 0 0 5.50162e-15 1.48221e-14 4.2075e-15 1.17895e-14 0 0 6.44724e-15 1.30919e-14 6.08943e-15 1.11744e-14 0 0 4.80764e-15 1.56602e-14 5.30235e-15 1.19354e-14 0 0 4.14467e-15 1.60653e-14 7.14243e-15 8.31109e-15 0 0 9.95207e-15 1.22228e-14 1.00228e-14 2.01408e-15 0 0 1.21239e-14 1.30143e-14 7.53849e-15 2.83145e-15 0 0 1.06597e-14 1.78092e-14 -3.49005e-15 4.90172e-15 0 0 9.00336e-15 2.33258e-14 -1.12449e-14 1.61137e-15 0 0 8.5827e-15 2.35434e-14 -8.91298e-15 -1.97619e-15 0 0 1.23563e-14 1.90402e-14 -3.72014e-15 -1.03783e-14 0 0 9.50675e-15 1.91641e-14 -1.1399e-15 -1.10986e-14 0 0 8.74627e-15 1.76122e-14 -1.85229e-15 -3.79036e-15 0 0 1.06649e-14 1.46917e-14 6.08976e-16 -3.62391e-15 0 0 6.5095e-15 1.77701e-14 1.06999e-15 -1.81085e-15 0 0 6.32555e-15 1.39964e-14 6.9873e-15 -3.35921e-15 0 0 7.77724e-15 7.69052e-15 9.31404e-15 1.33881e-15 0 0 9.51228e-15 6.05857e-15 4.6726e-15 1.18521e-14 0 0 6.38071e-15 8.59912e-15 2.63316e-15 1.72937e-14 0 0 4.00888e-15 2.09705e-15 7.04394e-15 2.29024e-14 0 0 5.3945e-15 -5.1314e-15 1.35729e-14 2.66941e-14 0 0 6.38965e-15 -7.36982e-15 1.71943e-14 3.02802e-14 0 0 2.67872e-15 -2.51012e-15 1.44797e-14 3.78105e-14 0 0 1.72199e-15 -3.38159e-16 1.68585e-14 4.18174e-14 0 0 7.19707e-15 -6.60582e-15 2.17043e-14 3.45986e-14 0 0 3.25436e-15 3.14143e-15 1.52323e-14 2.39439e-14 0 0 -2.04659e-15 1.17258e-14 1.81529e-14 1.77651e-14 0 0 3.02898e-15 7.58946e-15 3.08643e-14 1.21679e-14 0 0 7.98346e-15 1.00482e-14 2.93331e-14 1.32247e-14 0 0 9.96347e-15 1.34368e-14 2.97947e-14 1.31465e-14 0 0 1.41383e-14 1.47537e-14 3.42338e-14 1.13705e-14 0 0 1.88864e-14 2.04516e-14 4.05593e-14 1.47602e-14 0 0 2.78998e-14 2.84889e-14 4.30952e-14 2.03695e-14 0 0 3.17674e-14 5.45837e-14 2.77946e-14 2.61703e-14 0 0 4.31485e-14 7.64178e-14 2.09365e-14 3.00007e-14 0 0 6.60321e-14 7.13269e-14 2.86759e-14 3.74263e-14 0 0 5.81094e-14 7.55561e-14 4.56716e-14 4.26185e-14 0 0 4.0241e-14 8.32837e-14 6.48216e-14 4.49558e-14 0 0 4.17297e-14 6.42965e-14 8.13942e-14 4.5554e-14 0 0 3.88039e-14 5.11636e-14 8.88337e-14 4.2149e-14 0 0 1.95509e-14 5.973e-14 8.62193e-14 4.02522e-14 0 0 1.49418e-14 5.055e-14 7.2933e-14 5.3521e-14 0 0 1.65982e-14 4.07425e-14 5.52035e-14 6.14804e-14 0 0 1.51273e-14 2.96134e-14 6.50368e-14 5.27314e-14 0 0 6.9808e-16 9.87607e-15 8.26963e-14 3.86371e-14 0 0 -2.26335e-14 1.79629e-14 8.19113e-14 1.73141e-14 0 0 -3.01714e-15 1.88485e-14 6.95309e-14 -2.74014e-15 0 0 8.92388e-15 -2.8474e-15 6.33666e-14 -4.88359e-15 0 0 -1.27379e-14 -5.47646e-15 6.22606e-14 9.53259e-15 0 0 -1.8926e-14 -1.35817e-16 4.64334e-14 2.22011e-14 0 0 -2.61534e-14 3.39994e-15 3.796e-14 2.96141e-15 0 0 -8.1817e-15 2.73817e-15 2.36515e-14 -1.1026e-14 0 0 2.86488e-14 -2.19138e-14 1.23521e-14 -9.06708e-16 0 0 6.53117e-16 -3.85234e-15 7.2065e-15 -6.37575e-16 0 0 -6.97282e-15 3.65538e-14 -4.99668e-15 -2.20494e-14 0 0 1.81266e-14 2.27936e-14 -8.06923e-16 -3.5563e-14 0 0 1.37261e-14 2.744e-15 4.24818e-15 -2.45537e-14 0 0 8.23242e-15 5.22422e-15 5.74148e-15 -3.03357e-14 0 0 5.40627e-15 7.70556e-15 7.96491e-15 -2.24202e-14 0 0 1.17453e-14 3.52903e-15 -4.60756e-17 -1.01046e-14 0 0 -3.21306e-15 1.3862e-14 6.18762e-15 -1.07766e-14 0 0 -6.82919e-15 2.81972e-14 1.51632e-14 -3.18925e-14 0 0 9.19333e-16 2.1923e-14 -2.65903e-15 -2.26886e-14 0 0 -1.46057e-14 1.92469e-14 -6.05005e-15 4.05688e-15 0 0 1.71659e-14 6.29422e-15 6.14125e-15 -6.95313e-15 0 0 1.70249e-14 9.20878e-15 1.13239e-14 -1.30746e-14 0 0 -1.52262e-14 1.84338e-14 2.67912e-14 -1.18479e-14 0 0 -6.71785e-15 9.58037e-15 2.99707e-14 -9.9107e-15 0 0 -8.90122e-15 5.53311e-15 2.52309e-14 -4.00414e-15 0 0 -2.25954e-16 2.72084e-15 1.83706e-14 1.54505e-14 0 0 6.98141e-15 1.18419e-14 -4.43684e-15 8.79458e-15 0 0 -4.66764e-15 2.92969e-15 -1.00784e-14 -7.87763e-15 0 0 -8.73401e-15 -8.29561e-15 9.03883e-15 -1.15128e-14 0 0 -6.86289e-15 -9.59991e-15 1.82623e-14 -2.08936e-14 0 0 -7.87429e-15 3.60479e-15 2.65084e-14 1.17803e-14 0 0 -5.19595e-15 1.47272e-14 1.11566e-15 2.33918e-14 0 0 4.98128e-15 -7.09948e-16 -6.7411e-15 2.02681e-14 0 0 -3.65314e-15 -2.44401e-14 3.01433e-15 -1.82356e-14 0 0 -2.88281e-14 -4.39928e-14 -4.15821e-14 -3.87858e-14 0 0 -4.49324e-14 -6.64609e-14 -6.96307e-14 -3.46311e-14 0 0 -4.68161e-14 -8.79262e-14 -7.40157e-14 -3.57831e-14 0 0 -3.97561e-14 -6.51007e-14 -6.86834e-14 -2.37514e-14 0 0 -1.06666e-14 -2.27936e-14 -2.62376e-14 -2.33693e-14 0 0 2.88627e-15 6.03816e-15 1.20096e-14 -1.17556e-14 0 0 6.18343e-15 2.94946e-14 2.12816e-14 1.25593e-14 0 0 1.38057e-14 1.86876e-14 2.76848e-14 3.89581e-14 0 0 9.74398e-15 1.16497e-14 3.23452e-14 4.56705e-14 0 0 1.2915e-14 2.16491e-14 -3.46638e-15 4.40014e-14 0 0 6.03015e-15 1.5767e-14 -3.03461e-14 5.99622e-14 0 0 -1.74938e-14 1.80478e-14 -5.35685e-15 3.00784e-14 0 0 -1.47639e-14 -6.07793e-15 3.81854e-14 -3.26033e-14 0 0 5.70246e-15 -5.03622e-14 6.31359e-15 -1.21933e-14 0 0 5.18919e-15 -4.41958e-14 -3.34608e-14 4.08769e-14 0 0 7.72645e-15 -5.71423e-15 2.06582e-14 -1.1972e-14 0 0 4.87601e-14 4.04743e-14 1.22354e-13 2.19454e-14 0 0 1.4374e-13 2.19282e-13 2.10312e-13 1.59412e-13 0 0 2.52978e-13 4.46337e-13 3.99358e-13 3.21607e-13 0 0 3.58147e-13 5.93317e-13 5.86002e-13 3.95241e-13 0 0 4.26528e-13 6.66671e-13 6.76729e-13 4.03129e-13 0 0 4.20142e-13 6.79939e-13 6.69137e-13 4.31896e-13 0 0 3.90127e-13 6.29873e-13 6.10009e-13 3.82716e-13 0 0 3.59476e-13 5.39028e-13 5.36149e-13 3.49547e-13 0 0 2.95273e-13 4.84709e-13 4.42021e-13 2.85466e-13 0 0 2.39769e-13 4.13083e-13 4.07851e-13 2.27413e-13 0 0 2.09014e-13 3.3292e-13 3.92703e-13 1.76057e-13 0 0 1.79345e-13 2.89546e-13 3.26688e-13 1.42312e-13 0 0 1.40059e-13 2.70406e-13 2.78583e-13 9.13903e-14 0 0 1.24794e-13 2.34982e-13 2.59521e-13 9.07156e-14 0 0 1.2196e-13 1.62063e-13 2.2275e-13 1.27473e-13 0 0 9.64139e-14 1.6828e-13 1.92894e-13 1.19078e-13 0 0 7.69149e-14 1.31745e-13 2.24029e-13 8.78037e-14 0 0 8.53472e-14 1.02856e-13 2.08774e-13 4.60298e-14 0 0 5.3836e-14 1.29255e-13 1.98896e-13 6.23789e-14 0 0 2.34735e-14 1.22479e-13 2.0427e-13 5.99326e-14 0 0 3.08308e-14 1.27401e-13 2.14966e-13 3.34328e-14 0 0 3.15145e-14 1.00215e-13 2.48007e-13 3.39378e-14 0 0 8.55728e-15 8.3827e-14 2.43051e-13 6.08598e-14 0 0 -2.05025e-14 9.21961e-14 2.20124e-13 5.35627e-14 0 0 -3.05832e-14 5.4784e-14 2.45474e-13 -1.66291e-14 0 0 -1.34766e-14 -1.12274e-14 2.89492e-13 -6.17443e-14 0 0 3.81989e-14 -9.49617e-14 3.29255e-13 -2.6485e-14 0 0 6.81997e-14 -1.25229e-13 2.68797e-13 4.57369e-15 0 0 7.37084e-15 -1.36028e-14 9.38693e-14 5.36869e-14 0 0 -3.37135e-14 4.38627e-14 4.3936e-14 7.16031e-14 0 0 -2.02519e-15 2.24473e-14 7.1888e-14 3.8652e-15 0 0 -4.82614e-15 2.66178e-15 5.24166e-14 -3.48578e-14 0 0 -1.39637e-14 -1.97351e-14 2.16992e-14 -4.52434e-14 0 0 -7.03424e-15 -3.12205e-14 1.19976e-14 -3.92374e-14 0 0 -2.48756e-15 -6.27836e-14 4.63422e-14 -9.90381e-14 0 0 1.47534e-14 -1.0885e-13 1.59588e-13 -2.68318e-13 0 0 4.38406e-15 -1.30556e-13 1.77899e-13 -2.86319e-13 0 0 -4.4472e-14 -5.01374e-14 1.32593e-14 -1.3371e-13 0 0 -8.26156e-14 -1.86985e-14 -5.71067e-14 -1.03591e-13 0 0 -4.29185e-14 -1.18402e-13 8.09243e-15 -2.12217e-13 0 0 -3.47887e-14 -1.61871e-13 1.39214e-14 -2.18762e-13 0 0 -4.39097e-14 -1.54341e-13 -1.66705e-14 -1.88251e-13 0 0 -8.17225e-14 -1.24658e-13 -5.22849e-14 -1.47958e-13 0 0 -5.06871e-14 -8.92073e-14 -1.25925e-13 -6.71687e-14 0 0 -5.30585e-14 -5.7977e-14 -1.31092e-13 -1.65156e-13 0 0 -3.36573e-16 -4.31106e-14 -1.21005e-13 -1.80392e-13 0 0 3.27096e-14 -4.35844e-14 -9.73151e-14 -3.16246e-14 0 0 1.53386e-14 -1.89398e-14 -1.04031e-14 4.05829e-14 0 0 4.09588e-14 6.1843e-14 6.11185e-15 -1.94194e-14 0 0 6.93665e-14 1.3094e-13 5.18147e-15 3.58372e-14 0 0 9.47479e-14 1.39603e-13 8.42762e-14 5.65105e-14 0 0 1.13568e-13 1.67654e-13 1.36986e-13 4.91815e-14 0 0 1.18929e-13 1.72374e-13 1.62148e-13 8.781e-14 0 0 1.19309e-13 1.79813e-13 1.67761e-13 1.07422e-13 0 0 1.1146e-13 2.12665e-13 1.88744e-13 7.66659e-14 0 0 1.07243e-13 2.08011e-13 2.05044e-13 9.96098e-14 0 0 1.10892e-13 1.97172e-13 1.87822e-13 1.50158e-13 0 0 1.23055e-13 1.82234e-13 2.20823e-13 1.22385e-13 0 0 1.21055e-13 1.92918e-13 2.12978e-13 1.52954e-13 0 0 1.19913e-13 2.08952e-13 1.95184e-13 1.73142e-13 0 0 1.21135e-13 2.1266e-13 2.01497e-13 1.45913e-13 0 0 1.18777e-13 2.19119e-13 1.99347e-13 1.52558e-13 0 0 1.22275e-13 2.11799e-13 1.99169e-13 1.51401e-13 0 0 1.20893e-13 1.92473e-13 2.1678e-13 1.15623e-13 0 0 1.23759e-13 1.80644e-13 2.45274e-13 9.3409e-14 0 0 1.30551e-13 1.77112e-13 2.61805e-13 6.70771e-14 0 0 1.21131e-13 1.90018e-13 2.42043e-13 6.85362e-14 0 0 9.74492e-14 2.23267e-13 1.9411e-13 8.81246e-14 0 0 8.35122e-14 2.22885e-13 1.60037e-13 1.45701e-13 0 0 1.04322e-13 1.85967e-13 1.37266e-13 1.90128e-13 0 0 1.08628e-13 1.35217e-13 1.83306e-13 1.67833e-13 0 0 8.64215e-14 1.0465e-13 2.07165e-13 1.64073e-13 0 0 6.56291e-14 1.15949e-13 1.54612e-13 1.74985e-13 0 0 8.43909e-14 8.58787e-14 1.62497e-13 1.03922e-13 0 0 9.58904e-14 6.1471e-14 1.48403e-13 5.69511e-14 0 0 9.30527e-14 6.88259e-14 1.22082e-13 7.13244e-14 0 0 8.82372e-14 5.77914e-14 1.19202e-13 8.85614e-14 0 0 5.70945e-14 6.11652e-14 1.29529e-13 9.14963e-14 0 0 1.01535e-14 1.22243e-13 1.16007e-13 8.00914e-14 0 0 -9.23173e-15 1.59629e-13 1.06267e-13 5.95466e-14 0 0 4.95706e-14 9.2275e-14 1.54783e-13 3.92891e-14 0 0 6.13953e-14 5.94188e-14 2.0218e-13 2.94672e-14 0 0 1.24469e-14 1.30525e-13 1.87249e-13 3.53121e-14 0 0 2.73504e-15 1.50257e-13 1.57946e-13 7.20578e-14 0 0 5.88093e-15 1.44605e-13 1.42527e-13 1.06636e-13 0 0 -9.10394e-15 1.78614e-13 1.08394e-13 1.25384e-13 0 0 -2.15214e-14 1.64707e-13 1.58182e-13 8.13927e-14 0 0 7.27843e-15 1.36084e-13 1.6886e-13 9.07614e-14 0 0 5.59208e-14 8.84703e-14 1.42818e-13 1.49671e-13 0 0 6.81083e-14 9.79699e-14 1.31085e-13 1.66506e-13 0 0 6.83107e-14 1.22192e-13 1.46913e-13 1.17705e-13 0 0 7.55463e-14 1.07407e-13 1.72418e-13 9.85945e-14 0 0 7.57425e-14 1.16285e-13 1.62868e-13 1.24556e-13 0
				</DataArray>
				<DataArray Name="VitesseY" type="Float32" format="ascii">