<?xml version="1.0"?>
<VTKFile type="PolyData">
	<PolyData>
		<Piece NumberOfPoints="1206" NumberOfPolys="1000">
			<Points>
				<DataArray type="Float32" NumberOfComponents="3" format="ascii">
 0 0 0 0.02 0 0 0.04 0 0 0.06 0 0 0.08 0 0 0.1 0 0 0 0.005 0 0.02 0.005 0 0.04 0.005 0 0.06 0.005 0 0.08 0.005 0 0.1 0.005 0 0 0.01 0 0.02 0.01 0 0.04 0.01 0 0.06 0.01 0 0.08 0.01 0 0.1 0.01 0 0 0.015 0 0.02 0.015 0 0.04 0.015 0 0.06 0.015 0 0.08 0.015 0 0.1 0.015 0 0 0.02 0 0.02 0.02 0 0.04 0.02 0 0.06 0.02 0 0.08 0.02 0 0.1 0.02 0 0 0.025 0 0.02 0.025 0 0.04 0.025 0 0.06 0.025 0 0.08 0.025 0 0.1 0.025 0 0 0.03 0 0.02 0.03 0 0.04 0.03 0 0.06 0.03 0 0.08 0.03 0 0.1 0.03 0 0 0.035 0 0.02 0.035 0 0.04 0.035 0 0.06 0.035 0 0.08 0.035 0 0.1 0.035 0 0 0.04 0 0.02 0.04 0 0.04 0.04 0 0.06 0.04 0 0.08 0.04 0 0.1 0.04 0 0 0.045 0 0.02 0.045 0 0.04 0.045 0 0.06 0.045 0 0.08 0.045 0 0.1 0.045 0 0 0.05 0 0.02 0.05 0 0.04 0.05 0 0.06 0.05 0 0.08 0.05 0 0.1 0.05 0 0 0.055 0 0.02 0.055 0 0.04 0.055 0 0.06 0.055 0 0.08 0.055 0 0.1 0.055 0 0 0.06 0 0.02 0.06 0 0.04 0.06 0 0.06 0.06 0 0.08 0.06 0 0.1 0.06 0 0 0.065 0 0.02 0.065 0 0.04 0.065 0 0.06 0.065 0 0.08 0.065 0 0.1 0.065 0 0 0.07 0 0.02 0.07 0 0.04 0.07 0 0.06 0.07 0 0.08 0.07 0 0.1 0.07 0 0 0.075 0 0.02 0.075 0 0.04 0.075 0 0.06 0.075 0 0.08 0.075 0 0.1 0.075 0 0 0.08 0 0.02 0.08 0 0.04 0.08 0 0.06 0.08 0 0.08 0.08 0 0.1 0.08 0 0 0.085 0 0.02 0.085 0 0.04 0.085 0 0.06 0.085 0 0.08 0.085 0 0.1 0.085 0 0 0.09 0 0.02 0.09 0 0.04 0.09 0 0.06 0.09 0 0.08 0.09 0 0.1 0.09 0 0 0.095 0 0.02 0.095 0 0.04 0.095 0 0.06 0.095 0 0.08 0.095 0 0.1 0.095 0 0 0.1 0 0.02 0.1 0 0.04 0.1 0 0.06 0.1 0 0.08 0.1 0 0.1 0.1 0 0 0.105 0 0.02 0.105 0 0.04 0.105 0 0.06 0.105 0 0.08 0.105 0 0.1 0.105 0 0 0.11 0 0.02 0.11 0 0.04 0.11 0 0.06 0.11 0 0.08 0.11 0 0.1 0.11 0 0 0.115 0 0.02 0.115 0 0.04 0.115 0 0.06 0.115 0 0.08 0.115 0 0.1 0.115 0 0 0.12 0 0.02 0.12 0 0.04 0.12 0 0.06 0.12 0 0.08 0.12 0 0.1 0.12 0 0 0.125 0 0.02 0.125 0 0.04 0.125 0 0.06 0.125 0 0.08 0.125 0 0.1 0.125 0 0 0.13 0 0.02 0.13 0 0.04 0.13 0 0.06 0.13 0 0.08 0.13 0 0.1 0.13 0 0 0.135 0 0.02 0.135 0 0.04 0.135 0 0.06 0.135 0 0.08 0.135 0 0.1 0.135 0 0 0.14 0 0.02 0.14 0 0.04 0.14 0 0.06 0.14 0 0.08 0.14 0 0.1 0.14 0 0 0.145 0 0.02 0.145 0 0.04 0.145 0 0.06 0.145 0 0.08 0.145 0 0.1 0.145 0 0 0.15 0 0.02 0.15 0 0.04 0.15 0 0.06 0.15 0 0.08 0.15 0 0.1 0.15 0 0 0.155 0 0.02 0.155 0 0.04 0.155 0 0.06 0.155 0 0.08 0.155 0 0.1 0.155 0 0 0.16 0 0.02 0.16 0 0.04 0.16 0 0.06 0.16 0 0.08 0.16 0 0.1 0.16 0 0 0.165 0 0.02 0.165 0 0.04 0.165 0 0.06 0.165 0 0.08 0.165 0 0.1 0.165 0 0 0.17 0 0.02 0.17 0 0.04 0.17 0 0.06 0.17 0 0.08 0.17 0 0.1 0.17 0 0 0.175 0 0.02 0.175 0 0.04 0.175 0 0.06 0.175 0 0.08 0.175 0 0.1 0.175 0 0 0.18 0 0.02 0.18 0 0.04 0.18 0 0.06 0.18 0 0.08 0.18 0 0.1 0.18 0 0 0.185 0 0.02 0.185 0 0.04 0.185 0 0.06 0.185 0 0.08 0.185 0 0.1 0.185 0 0 0.19 0 0.02 0.19 0 0.04 0.19 0 0.06 0.19 0 0.08 0.19 0 0.1 0.19 0 0 0.195 0 0.02 0.195 0 0.04 0.195 0 0.06 0.195 0 0.08 0.195 0 0.1 0.195 0 0 0.2 0 0.02 0.2 0 0.04 0.2 0 0.06 0.2 0 0.08 0.2 0 0.1 0.2 0 0 0.205 0 0.02 0.205 0 0.04 0.205 0 0.06 0.205 0 0.08 0.205 0 0.1 0.205 0 0 0.21 0 0.02 0.21 0 0.04 0.21 0 0.06 0.21 0 0.08 0.21 0 0.1 0.21 0 0 0.215 0 0.02 0.215 0 0.04 0.215 0 0.06 0.215 0 0.08 0.215 0 0.1 0.215 0 0 0.22 0 0.02 0.22 0 0.04 0.22 0 0.06 0.22 0 0.08 0.22 0 0.1 0.22 0 0 0.225 0 0.02 0.225 0 0.04 0.225 0 0.06 0.225 0 0.08 0.225 0 0.1 0.225 0 0 0.23 0 0.02 0.23 0 0.04 0.23 0 0.06 0.23 0 0.08 0.23 0 0.1 0.23 0 0 0.235 0 0.02 0.235 0 0.04 0.235 0 0.06 0.235 0 0.08 0.235 0 0.1 0.235 0 0 0.24 0 0.02 0.24 0 0.04 0.24 0 0.06 0.24 0 0.08 0.24 0 0.1 0.24 0 0 0.245 0 0.02 0.245 0 0.04 0.245 0 0.06 0.245 0 0.08 0.245 0 0.1 0.245 0 0 0.25 0 0.02 0.25 0 0.04 0.25 0 0.06 0.25 0 0.08 0.25 0 0.1 0.25 0 0 0.255 0 0.02 0.255 0 0.04 0.255 0 0.06 0.255 0 0.08 0.255 0 0.1 0.255 0 0 0.26 0 0.02 0.26 0 0.04 0.26 0 0.06 0.26 0 0.08 0.26 0 0.1 0.26 0 0 0.265001 0 0.02 0.265001 0 0.04 0.265001 0 0.06 0.265001 0 0.08 0.265001 0 0.1 0.265001 0 0 0.270004 0 0.02 0.270004 0 0.04 0.270004 0 0.06 0.270004 0 0.08 0.270004 0 0.1 0.270004 0 0 0.275011 0 0.02 0.275011 0 0.04 0.275011 0 0.06 0.275011 0 0.08 0.275011 0 0.1 0.275011 0 0 0.280027 0 0.02 0.280027 0 0.04 0.280027 0 0.06 0.280027 0 0.08 0.280027 0 0.1 0.280027 0 0 0.285061 0 0.02 0.285061 0 0.04 0.285061 0 0.06 0.285061 0 0.08 0.285061 0 0.1 0.285061 0 0 0.290127 0 0.02 0.290127 0 0.04 0.290127 0 0.06 0.290127 0 0.08 0.290127 0 0.1 0.290127 0 0 0.295241 0 0.02 0.295241 0 0.04 0.295241 0 0.06 0.295241 0 0.08 0.295241 0 0.1 0.295241 0 0 0.30042 0 0.02 0.30042 0 0.04 0.30042 0 0.06 0.30042 0 0.08 0.30042 0 0.1 0.30042 0 0 0.305681 0 0.02 0.305681 0 0.04 0.305681 0 0.06 0.305681 0 0.08 0.305681 0 0.1 0.305681 0 0 0.311036 0 0.02 0.311036 0 0.04 0.311036 0 0.06 0.311036 0 0.08 0.311036 0 0.1 0.311036 0 0 0.316497 0 0.02 0.316497 0 0.04 0.316497 0 0.06 0.316497 0 0.08 0.316497 0 0.1 0.316497 0 0 0.322072 0 0.02 0.322072 0 0.04 0.322072 0 0.06 0.322072 0 0.08 0.322072 0 0.1 0.322072 0 0 0.327769 0 0.02 0.327769 0 0.04 0.327769 0 0.06 0.327769 0 0.08 0.327769 0 0.1 0.327769 0 0 0.333597 0 0.02 0.333597 0 0.04 0.333597 0 0.06 0.333597 0 0.08 0.333597 0 0.1 0.333597 0 0 0.339563 0 0.02 0.339563 0 0.04 0.339563 0 0.06 0.339563 0 0.08 0.339563 0 0.1 0.339563 0 0 0.345676 0 0.02 0.345676 0 0.04 0.345676 0 0.06 0.345676 0 0.08 0.345676 0 0.1 0.345676 0 0 0.351945 0 0.02 0.351945 0 0.04 0.351945 0 0.06 0.351945 0 0.08 0.351945 0 0.1 0.351945 0 0 0.358379 0 0.02 0.358379 0 0.04 0.358379 0 0.06 0.358379 0 0.08 0.358379 0 0.1 0.358379 0 0 0.364989 0 0.02 0.364989 0 0.04 0.364989 0 0.06 0.364989 0 0.08 0.364989 0 0.1 0.364989 0 0 0.371786 0 0.02 0.371786 0 0.04 0.371786 0 0.06 0.371786 0 0.08 0.371786 0 0.1 0.371786 0 0 0.378782 0 0.02 0.378782 0 0.04 0.378782 0 0.06 0.378782 0 0.08 0.378782 0 0.1 0.378782 0 0 0.385991 0 0.02 0.385991 0 0.04 0.385991 0 0.06 0.385991 0 0.08 0.385991 0 0.1 0.385991 0 0 0.393428 0 0.02 0.393428 0 0.04 0.393428 0 0.06 0.393428 0 0.08 0.393428 0 0.1 0.393428 0 0 0.401108 0 0.02 0.401108 0 0.04 0.401108 0 0.06 0.401108 0 0.08 0.401108 0 0.1 0.401108 0 0 0.409051 0 0.02 0.409051 0 0.04 0.409051 0 0.06 0.409051 0 0.08 0.409051 0 0.1 0.409051 0 0 0.417277 0 0.02 0.417277 0 0.04 0.417277 0 0.06 0.417277 0 0.08 0.417277 0 0.1 0.417277 0 0 0.425807 0 0.02 0.425807 0 0.04 0.425807 0 0.06 0.425807 0 0.08 0.425807 0 0.1 0.425807 0 0 0.434668 0 0.02 0.434668 0 0.04 0.434668 0 0.06 0.434668 0 0.08 0.434668 0 0.1 0.434668 0 0 0.443886 0 0.02 0.443886 0 0.04 0.443886 0 0.06 0.443886 0 0.08 0.443886 0 0.1 0.443886 0 0 0.453492 0 0.02 0.453492 0 0.04 0.453492 0 0.06 0.453492 0 0.08 0.453492 0 0.1 0.453492 0 0 0.463519 0 0.02 0.463519 0 0.04 0.463519 0 0.06 0.463519 0 0.08 0.463519 0 0.1 0.463519 0 0 0.474002 0 0.02 0.474002 0 0.04 0.474002 0 0.06 0.474002 0 0.08 0.474002 0 0.1 0.474002 0 0 0.484969 0 0.02 0.484969 0 0.04 0.484969 0 0.06 0.484969 0 0.08 0.484969 0 0.1 0.484969 0 0 0.496432 0 0.02 0.496432 0 0.04 0.496432 0 0.06 0.496432 0 0.08 0.496432 0 0.1 0.496432 0 0 0.508345 0 0.02 0.508345 0 0.04 0.508345 0 0.06 0.508345 0 0.08 0.508345 0 0.1 0.508345 0 0 0.5205 0 0.02 0.5205 0 0.04 0.5205 0 0.06 0.5205 0 0.08 0.5205 0 0.1 0.5205 0 0 0.532597 0 0.02 0.532597 0 0.04 0.532597 0 0.06 0.532597 0 0.08 0.532597 0 0.1 0.532597 0 0 0.544598 0 0.02 0.544598 0 0.04 0.544598 0 0.06 0.544598 0 0.08 0.544598 0 0.1 0.544598 0 0 0.556502 0 0.02 0.556502 0 0.04 0.556502 0 0.06 0.556502 0 0.08 0.556502 0 0.1 0.556502 0 0 0.568331 0 0.02 0.568331 0 0.04 0.568331 0 0.06 0.568331 0 0.08 0.568331 0 0.1 0.568331 0 0 0.580111 0 0.02 0.580111 0 0.04 0.580111 0 0.06 0.580111 0 0.08 0.580111 0 0.1 0.580111 0 0 0.591865 0 0.02 0.591865 0 0.04 0.591865 0 0.06 0.591865 0 0.08 0.591865 0 0.1 0.591865 0 0 0.603608 0 0.02 0.603608 0 0.04 0.603608 0 0.06 0.603608 0 0.08 0.603608 0 0.1 0.603608 0 0 0.615346 0 0.02 0.615346 0 0.04 0.615346 0 0.06 0.615346 0 0.08 0.615346 0 0.1 0.615346 0 0 0.627082 0 0.02 0.627082 0 0.04 0.627082 0 0.06 0.627082 0 0.08 0.627082 0 0.1 0.627082 0 0 0.63882 0 0.02 0.63882 0 0.04 0.63882 0 0.06 0.63882 0 0.08 0.63882 0 0.1 0.63882 0 0 0.650558 0 0.02 0.650558 0 0.04 0.650558 0 0.06 0.650558 0 0.08 0.650558 0 0.1 0.650558 0 0 0.662311 0 0.02 0.662311 0 0.04 0.662311 0 0.06 0.662311 0 0.08 0.662311 0 0.1 0.662311 0 0 0.664924 0 0.02 0.664924 0 0.04 0.664924 0 0.06 0.664924 0 0.08 0.664924 0 0.1 0.664924 0 0 0.667463 0 0.02 0.667463 0 0.04 0.667463 0 0.06 0.667463 0 0.08 0.667463 0 0.1 0.667463 0 0 0.669955 0 0.02 0.669955 0 0.04 0.669955 0 0.06 0.669955 0 0.08 0.669955 0 0.1 0.669955 0 0 0.672416 0 0.02 0.672416 0 0.04 0.672416 0 0.06 0.672416 0 0.08 0.672416 0 0.1 0.672416 0 0 0.674854 0 0.02 0.674854 0 0.04 0.674854 0 0.06 0.674854 0 0.08 0.674854 0 0.1 0.674854 0 0 0.677276 0 0.02 0.677276 0 0.04 0.677276 0 0.06 0.677276 0 0.08 0.677276 0 0.1 0.677276 0 0 0.679684 0 0.02 0.679684 0 0.04 0.679684 0 0.06 0.679684 0 0.08 0.679684 0 0.1 0.679684 0 0 0.682083 0 0.02 0.682083 0 0.04 0.682083 0 0.06 0.682083 0 0.08 0.682083 0 0.1 0.682083 0 0 0.684476 0 0.02 0.684476 0 0.04 0.684476 0 0.06 0.684476 0 0.08 0.684476 0 0.1 0.684476 0 0 0.686862 0 0.02 0.686862 0 0.04 0.686862 0 0.06 0.686862 0 0.08 0.686862 0 0.1 0.686862 0 0 0.689243 0 0.02 0.689243 0 0.04 0.689243 0 0.06 0.689243 0 0.08 0.689243 0 0.1 0.689243 0 0 0.691619 0 0.02 0.691619 0 0.04 0.691619 0 0.06 0.691619 0 0.08 0.691619 0 0.1 0.691619 0 0 0.693991 0 0.02 0.693991 0 0.04 0.693991 0 0.06 0.693991 0 0.08 0.693991 0 0.1 0.693991 0 0 0.69636 0 0.02 0.69636 0 0.04 0.69636 0 0.06 0.69636 0 0.08 0.69636 0 0.1 0.69636 0 0 0.698728 0 0.02 0.698728 0 0.04 0.698728 0 0.06 0.698728 0 0.08 0.698728 0 0.1 0.698728 0 0 0.701093 0 0.02 0.701093 0 0.04 0.701093 0 0.06 0.701093 0 0.08 0.701093 0 0.1 0.701093 0 0 0.703457 0 0.02 0.703457 0 0.04 0.703457 0 0.06 0.703457 0 0.08 0.703457 0 0.1 0.703457 0 0 0.70582 0 0.02 0.70582 0 0.04 0.70582 0 0.06 0.70582 0 0.08 0.70582 0 0.1 0.70582 0 0 0.708181 0 0.02 0.708181 0 0.04 0.708
[...]
			<PointData Scalars="VitesseX">
				<DataArray Name="VitesseX" type="Float32" format="ascii">
 0 8.93471e-16 3.52952e-15 1.98635e-15 3.87476e-15 0 0 7.19007e-16 4.07694e-15 1.49342e-15 4.03869e-15 0 0 1.33247e-15 3.86351e-15 1.80666e-15 3.12106e-15 0 0 2.01284e-15 4.29809e-15 1.89167e-15 1.37211e-15 0 0 1.60041e-15 6.35691e-15 2.8512e-16 5.1948e-16 0 0 1.92801e-15 5.54666e-15 1.47518e-15 -1.44023e-15 0 0 1.68774e-15 5.45973e-15 2.50977e-15 -4.21507e-15 0 0 1.68069e-15 4.89567e-15 1.27089e-15 -2.8333e-15 0 0 1.37324e-15 2.23424e-15 1.52461e-15 3.13265e-16 0 0 1.08353e-15 3.20938e-16 1.15629e-15 2.25542e-15 0 0 1.76911e-15 -9.45751e-16 1.39655e-15 2.57882e-15 0 0 2.63164e-15 -1.69271e-15 3.03546e-15 1.22772e-15 0 0 3.50769e-15 -1.54654e-15 1.92647e-15 3.84568e-15 0 0 1.84211e-15 1.45801e-15 7.42448e-18 5.37704e-15 0 0 -6.17328e-16 2.79477e-16 3.17506e-15 3.36268e-15 0 0 -3.58918e-15 -1.63612e-15 3.63866e-15 4.07128e-15 0 0 -3.8293e-15 -2.35112e-15 -1.33813e-17 5.16879e-15 0 0 -2.23215e-15 -4.41459e-15 -1.95687e-15 5.32098e-15 0 0 -2.24694e-15 -5.3198e-15 -3.14761e-15 5.93722e-15 0 0 -2.90043e-15 -3.54043e-15 -4.76652e-15 5.32241e-15 0 0 -3.11137e-15 -1.18524e-15 -5.51131e-15 4.82413e-15 0 0 -2.28507e-15 -6.0823e-15 2.07008e-15 4.03707e-16 0 0 -5.05896e-15 -5.00608e-15 1.49328e-15 3.26409e-15 0 0 2.87142e-16 -7.4887e-15 -1.90742e-16 3.21839e-15 0 0 3.1074e-15 -5.6601e-15 -7.50015e-15 3.00927e-15 0 0 1.40841e-15 -1.49039e-15 -1.31031e-14 5.14033e-15 0 0 4.04246e-15 -4.55874e-15 -5.32669e-15 -2.3286e-15 0 0 3.93363e-15 -6.78619e-15 1.16911e-15 -7.21657e-15 0 0 5.8586e-15 -6.35387e-15 2.35848e-15 -8.28927e-15 0 0 9.14981e-17 1.81766e-15 -7.73607e-16 -2.18154e-15 0 0 -5.71298e-15 -6.48074e-16 5.37853e-15 -2.48793e-16 0 0 2.22022e-16 -6.21023e-15 6.40157e-15 5.34953e-15 0 0 3.64991e-15 -5.81966e-15 7.50164e-15 5.70701e-15 0 0 8.86992e-16 -3.6488e-15 9.74598e-15 1.09935e-15 0 0 -5.77139e-15 1.72555e-15 2.99227e-15 5.88121e-15 0 0 -6.34266e-15 -2.3616e-15 2.21593e-15 6.29627e-15 0 0 -4.38083e-16 -2.28933e-15 -1.52857e-16 6.61493e-16 0 0 4.03468e-15 1.10538e-14 -2.90497e-15 4.76958e-15 0 0 7.88221e-15 1.62329e-14 7.70404e-15 1.01637e-14 0 0 2.15002e-15 1.95302e-14 -3.56216e-15 3.42634e-14 0 0 1.15052e-14 1.04781e-14 -1.31463e-14 4.00073e-14 0 0 1.33752e-14 -8.71517e-15 3.34035e-15 9.69158e-15 0 0 2.96668e-15 -2.00132e-14 1.02774e-14 -3.81342e-15 0 0 -5.37485e-15 -1.05618e-14 -2.22519e-15 -6.24362e-16 0 0 -8.41443e-15 3.72778e-15 -2.05881e-14 -3.56575e-15 0 0 -4.96801e-15 4.27407e-15 -3.38615e-14 -1.78681e-14 0 0 -4.01944e-15 -1.0716e-15 -3.51203e-14 -2.24554e-14 0 0 -5.71703e-15 -9.69843e-15 -2.24116e-14 -1.46836e-14 0 0 -1.79598e-14 -2.0155e-14 -2.81332e-15 -1.05116e-14 0 0 -2.47756e-14 -1.15177e-14 1.01807e-15 -3.93394e-14 0 0 -1.32174e-14 -1.05659e-14 -2.7568e-14 -2.86272e-14 0 0 9.97831e-16 -2.61395e-14 -2.75994e-14 -1.09692e-14 0 0 -2.31394e-15 -1.10132e-15 -3.51793e-14 -2.3286e-14 0 0 9.3756e-15 -1.17125e-14 -3.55111e-14 -3.84767e-14 0 0 1.07343e-14 -3.82667e-14 -1.9479e-14 -3.2218e-14 0 0 -1.21898e-15 -2.04922e-14 -2.82222e-14 -1.19728e-14 0 0 -1.95845e-14 -1.60697e-14 -4.3268e-15 -1.37591e-14 0 0 -8.85365e-15 -2.28827e-14 1.95333e-15 1.24193e-14 0 0 9.61329e-15 -1.26689e-14 -1.44711e-14 2.47616e-14 0 0 7.11654e-15 -1.54271e-14 3.65179e-15 -1.11224e-14 0 0 -2.81622e-15 -8.82188e-15 1.81655e-14 -2.51667e-14 0 0 -7.25264e-15 7.80179e-15 1.7231e-14 -9.87379e-15 0 0 -1.78799e-14 1.47066e-16 2.74041e-14 -2.42411e-15 0 0 -2.64594e-14 -1.11171e-14 1.46004e-14 1.0529e-14 0 0 -5.81478e-15 -2.17333e-14 -3.75233e-15 2.48335e-14 0 0 1.08885e-15 -5.91296e-15 -8.8745e-15 2.68455e-14 0 0 -2.85702e-15 1.04611e-14 -1.45296e-14 1.89908e-14 0 0 2.87448e-15 2.79372e-15 -7.11739e-15 1.36342e-14 0 0 -1.26153e-14 1.71688e-14 -2.09379e-14 2.59134e-14 0 0 -8.8618e-15 3.63876e-14 -4.31229e-14 1.21743e-14 0 0 8.36737e-15 1.81258e-14 -3.86342e-14 -4.03534e-15 0 0 -1.45185e-14 -3.09229e-15 -2.80741e-15 2.48161e-15 0 0 -1.37339e-14 -2.8821e-15 2.37646e-14 4.39362e-15 0 0 4.10847e-15 1.04176e-14 1.46006e-14 -1.06852e-14 0 0 2.03936e-14 1.18872e-14 -2.93229e-14 1.84267e-14 0 0 1.14925e-14 1.47196e-14 -2.8898e-14 3.78223e-14 0 0 8.34193e-15 8.1888e-15 9.0061e-15 2.28642e-15 0 0 2.59826e-15 4.26175e-15 1.18272e-14 -1.12464e-14 0 0 3.71139e-15 1.40401e-14 5.7965e-15 1.43737e-14 0 0 1.16219e-14 5.51691e-15 -1.01492e-14 1.36088e-14 0 0 1.31956e-14 -3.51417e-14 2.69631e-14 -4.95306e-15 0 0 2.22413e-14 -4.13613e-14 4.71825e-14 -5.18733e-15 0 0 1.86987e-14 4.90858e-16 9.57343e-15 1.22851e-14 0 0 2.1767e-14 6.74361e-15 -1.78451e-15 6.44214e-16 0 0 -1.61545e-14 7.77931e-15 3.12412e-14 -2.86586e-14 0 0 -1.73749e-14 2.00226e-14 5.87167e-16 -4.07786e-15 0 0 -8.17268e-15 7.48048e-15 -1.60569e-14 1.62726e-14 0 0 7.98354e-15 -1.82461e-14 8.5651e-15 1.42163e-14 0 0 1.25599e-14 -1.56253e-14 2.77674e-14 2.55685e-14 0 0 -1.23572e-14 2.21038e-14 1.42283e-14 3.11609e-14 0 0 1.74693e-14 3.46684e-14 2.52187e-14 2.92619e-14 0 0 3.65013e-14 3.02137e-14 5.91557e-14 7.15985e-15 0 0 3.37158e-14 4.24962e-14 4.46135e-14 2.28134e-14 0 0 2.17652e-14 4.0623e-14 2.24067e-14 1.55428e-14 0 0 1.53971e-14 1.26526e-14 -1.03873e-14 2.56973e-15 0 0 -1.45272e-14 -1.39559e-14 -3.93336e-14 -1.83661e-14 0 0 -3.1041e-14 -4.89483e-14 -4.38183e-14 -3.17604e-14 0 0 -3.61059e-14 -7.22505e-14 -4.58085e-14 -4.05358e-14 0 0 -4.38036e-14 -6.85314e-14 -5.43077e-14 -3.95987e-14 0 0 -3.28945e-14 -5.52256e-14 -3.37386e-14 -3.70036e-14 0 0 -1.53409e-14 -3.60469e-14 -1.93978e-14 -4.04759e-14 0 0 1.68992e-14 -4.59864e-15 1.61905e-14 -4.65425e-14 0 0 1.44807e-14 -2.1912e-15 3.30892e-14 -2.35476e-14 0 0 2.46832e-14 2.99049e-14 6.85816e-14 -3.91829e-14 0 0 3.20636e-14 6.1762e-14 4.75069e-14 -6.97982e-15 0 0 3.13239e-14 8.54787e-14 7.72017e-14 2.84492e-14 0 0 5.0086e-14 6.56333e-14 1.09223e-13 3.05419e-14 0 0 2.16417e-14 3.05579e-14 3.46069e-14 4.7651e-15 0 0 -6.04954e-14 -9.12393e-14 -1.16759e-13 -7.05281e-14 0 0 -1.94015e-13 -3.10294e-13 -3.72111e-13 -1.90814e-13 0 0 -3.43522e-13 -5.09982e-13 -6.00318e-13 -3.26083e-13 0 0 -4.2428e-13 -6.77143e-13 -6.5914e-13 -4.58471e-13 0 0 -4.50244e-13 -6.98538e-13 -6.76802e-13 -4.6923e-13 0 0 -4.29566e-13 -6.50873e-13 -6.31054e-13 -4.02976e-13 0 0 -3.76177e-13 -5.92371e-13 -5.4492e-13 -3.63203e-13 0 0 -3.33868e-13 -4.88673e-13 -5.03831e-13 -3.20876e-13 0 0 -2.79479e-13 -4.33518e-13 -4.2584e-13 -2.66235e-13 0 0 -2.24126e-13 -3.69908e-13 -3.65943e-13 -2.1141e-13 0 0 -1.59924e-13 -3.16232e-13 -2.86981e-13 -2.14653e-13 0 0 -1.36926e-13 -2.49846e-13 -2.25693e-13 -1.82583e-13 0 0 -1.35645e-13 -1.87777e-13 -1.84387e-13 -1.7785e-13 0 0 -1.27292e-13 -1.38789e-13 -1.57153e-13 -2.01426e-13 0 0 -1.07476e-13 -9.61283e-14 -1.57616e-13 -1.52085e-13 0 0 -9.04299e-14 -9.78358e-14 -1.1575e-13 -1.37086e-13 0 0 -7.80748e-14 -8.64292e-14 -8.48548e-14 -1.73581e-13 0 0 -3.54249e-14 -1.06813e-13 -8.54757e-14 -1.3316e-13 0 0 -2.55048e-14 -9.42267e-14 -9.28792e-14 -4.60768e-14 0 0 -1.79921e-14 -7.37648e-14 -1.19167e-13 -7.39033e-14 0 0 -2.82899e-14 -8.8368e-14 -6.56279e-14 -6.20159e-14 0 0 -2.75872e-14 -5.63966e-14 -5.80509e-14 -4.38703e-14 0 0 -2.60289e-14 -5.0686e-14 -7.58335e-14 -8.05441e-14 0 0 -2.89734e-14 -3.80318e-14 -5.10591e-14 -9.84476e-14 0 0 -2.79221e-14 -4.04032e-14 -8.17708e-14 -7.1496e-14 0 0 -1.61833e-14 -5.53777e-14 -7.89343e-14 -1.05166e-13 0 0 2.3386e-15 -5.68017e-14 -5.93047e-14 -1.35003e-13 0 0 -1.12129e-14 -4.31674e-14 -8.51042e-14 -8.11344e-14 0 0 -2.43488e-14 -4.54783e-14 -5.08128e-14 -1.35231e-13 0 0 -6.6581e-15 -7.8306e-14 -3.93993e-14 -1.58002e-13 0 0 7.23372e-16 -7.95864e-14 -7.29544e-14 -8.72367e-14 0 0 -8.51901e-15 -5.40696e-14 -1.00055e-13 -8.28898e-14 0 0 -2.77265e-14 -2.91939e-14 -8.76052e-14 -1.05314e-13 0 0 -1.97282e-14 -2.69734e-14 -6.85272e-14 -1.25109e-13 0 0 -3.59071e-15 -5.6119e-14 -2.72883e-14 -1.19617e-13 0 0 1.39024e-15 -6.16338e-14 -2.33586e-14 -8.80766e-14 0 0 5.04435e-15 -7.0101e-14 -5.03191e-14 -4.24629e-14 0 0 1.84053e-16 -6.31349e-14 -5.91991e-14 -4.17226e-14 0 0 -5.37445e-14 -3.30081e-14 -6.99787e-14 -7.29354e-14 0 0 -7.72638e-14 -2.27084e-15 -6.78993e-14 -8.34991e-14 0 0 -8.66104e-14 4.02621e-14 -1.20474e-13 -6.53967e-14 0 0 -6.21597e-14 2.18028e-14 -7.03403e-14 -1.09519e-14 0 0 -2.15158e-14 -5.45195e-14 5.52373e-15 -3.23748e-14 0 0 -3.37495e-14 -3.49816e-14 -4.18173e-15 -4.51089e-14 0 0 2.38593e-15 -5.37968e-14 2.91042e-14 -5.23558e-14 0 0 3.54442e-14 -7.40595e-14 7.6761e-14 -4.2345e-14 0 0 1.68753e-14 -7.82339e-14 1.15305e-13 -5.27903e-14 0 0 -4.62328e-15 -1.75645e-14 7.94418e-14 -3.77879e-14 0 0 1.43281e-14 5.03235e-14 2.14198e-14 -2.01426e-15 0 0 4.16504e-14 2.50908e-14 2.06641e-15 3.33756e-14 0 0 -1.4243e-14 5.48666e-15 6.59458e-14 1.81431e-13 0 0 -1.74996e-14 4.23194e-14 1.83986e-14 1.78075e-13 0 0 3.16828e-14 4.11789e-14 -4.10078e-14 9.8161e-15 0 0 2.59217e-15 2.46068e-14 5.66677e-14 -4.40845e-14 0 0 1.04185e-14 -8.92835e-15 1.14708e-14 7.82237e-15 0 0 1.31918e-14 3.031e-15 -7.36577e-14 -8.74454e-15 0 0 8.49192e-15 -2.33674e-14 -8.30391e-14 -3.13497e-15 0 0 -3.24587e-15 -6.25536e-14 -5.02279e-14 -6.99247e-14 0 0 -2.38845e-14 -5.63713e-14 -2.82285e-14 -1.22522e-13 0 0 -2.99771e-14 -5.58188e-14 -8.55511e-14 -5.30102e-14 0 0 -1.76238e-14 -7.74535e-14 -1.0054e-13 -5.1149e-14 0 0 -2.31709e-14 -7.88677e-14 -9.53155e-14 -7.92787e-14 0 0 -4.52149e-14 -6.89109e-14 -9.25815e-14 -7.05773e-14 0 0 -4.20409e-14 -8.45748e-14 -7.18719e-14 -1.0744e-13 0 0 -2.40672e-14 -9.11867e-14 -7.87e-14 -1.26819e-13 0 0 -3.25602e-14 -8.10222e-14 -8.82669e-14 -7.66289e-14 0 0 -3.17863e-14 -7.39404e-14 -5.94275e-14 -1.09634e-13 0 0 -1.73277e-14 -6.71068e-14 -6.67794e-14 -1.1592e-13 0 0 -1.98051e-14 -5.71951e-14 -7.91112e-14 -9.63081e-14 0 0 -2.34628e-14 -5.73507e-14 -6.18882e-14 -1.06565e-13 0 0 -3.25699e-14 -3.73984e-14 -5.92043e-14 -6.89597e-14 0 0 -1.50324e-14 -5.23992e-14 -6.93327e-14 -8.61688e-15 0 0 -8.46318e-15 -5.34483e-14 -6.36705e-14 1.25096e-14 0 0 -2.11945e-15 -5.90891e-14 -2.89016e-14 -3.4511e-15 0 0 -5.44214e-15 -6.00938e-14 -3.44521e-14 2.30938e-15 0 0 -1.60447e-14 -5.22399e-14 -1.21566e-14 -1.89864e-14 0 0 6.11547e-15 -7.32539e-14 1.42482e-14 -4.97385e-14 0 0 -1.43173e-15 -5.25187e-14 8.98322e-15 -7.0631e-14 0 0 -4.10746e-14 2.56592e-14 -6.30684e-14 -2.79245e-14 0 0 -6.32397e-14 7.02088e-14 -8.22016e-14 -2.57636e-14 0 0 -4.78894e-14 3.06205e-14 1.47282e-14 -6.85133e-14 0 0 -3.81862e-14 2.87246e-14 8.58147e-14 -1.16499e-13 0 0 -6.96169e-14 9.91355e-14 4.56321e-15 -1.0883e-13 0 0 -4.16267e-14 5.54759e-14 -7.98106e-14 -6.41797e-14 0 0 -5.64936e-15 -3.45784e-14 -4.30069e-14 -6.53203e-14 0 0 -1.98797e-14 -3.83903e-14 -5.56251e-14 -3.0122e-14 0 0 -1.42403e-14 -4.03938e-14 -5.03571e-14 -2.49726e-14 0 0 -4.55566e-15 -6.94744e-14 -2.32926e-14 3.25146e-14 0 0 5.78707e-15 -4.91133e-14 -7.37315e-14 7.99544e-14 0 0 -2.6732e-15 -2.02139e-14 -9.62073e-14 3.84852e-14 0 0 -2.1535e-14 -6.54361e-14 -2.64908e-14 4.13762e-15 0 0 -5.25157e-14 -5.84737e-14 -4.28067e-15 1.70021e-14 0 0 -7.30475e-14 -3.23102e-14 -7.81638e-15 2.95668e-14 0
				</DataArray>
				<DataArray Name="VitesseY" type="Float32" format="ascii">