<?xml version="1.0"?>
<VTKFile type="PolyData">
	<PolyData>
		<Piece NumberOfPoints="1206" NumberOfPolys="1000">
			<Points>
				<DataArray type="Float32" NumberOfComponents="3" format="ascii">
 0 0 0 0.02 0 0 0.04 0 0 0.06 0 0 0.08 0 0 0.1 0 0 0 0.005 0 0.02 0.005 0 0.04 0.005 0 0.06 0.005 0 0.08 0.005 0 0.1 0.005 0 0 0.01 0 0.02 0.01 0 0.04 0.01 0 0.06 0.01 0 0.08 0.01 0 0.1 0.01 0 0 0.015 0 0.02 0.015 0 0.04 0.015 0 0.06 0.015 0 0.08 0.015 0 0.1 0.015 0 0 0.02 0 0.02 0.02 0 0.04 0.02 0 0.06 0.02 0 0.08 0.02 0 0.1 0.02 0 0 0.025 0 0.02 0.025 0 0.04 0.025 0 0.06 0.025 0 0.08 0.025 0 0.1 0.025 0 0 0.03 0 0.02 0.03 0 0.04 0.03 0 0.06 0.03 0 0.08 0.03 0 0.1 0.03 0 0 0.035 0 0.02 0.035 0 0.04 0.035 0 0.06 0.035 0 0.08 0.035 0 0.1 0.035 0 0 0.04 0 0.02 0.04 0 0.04 0.04 0 0.06 0.04 0 0.08 0.04 0 0.1 0.04 0 0 0.045 0 0.02 0.045 0 0.04 0.045 0 0.06 0.045 0 0.08 0.045 0 0.1 0.045 0 0 0.05 0 0.02 0.05 0 0.04 0.05 0 0.06 0.05 0 0.08 0.05 0 0.1 0.05 0 0 0.055 0 0.02 0.055 0 0.04 0.055 0 0.06 0.055 0 0.08 0.055 0 0.1 0.055 0 0 0.06 0 0.02 0.06 0 0.04 0.06 0 0.06 0.06 0 0.08 0.06 0 0.1 0.06 0 0 0.065 0 0.02 0.065 0 0.04 0.065 0 0.06 0.065 0 0.08 0.065 0 0.1 0.065 0 0 0.07 0 0.02 0.07 0 0.04 0.07 0 0.06 0.07 0 0.08 0.07 0 0.1 0.07 0 0 0.075 0 0.02 0.075 0 0.04 0.075 0 0.06 0.075 0 0.08 0.075 0 0.1 0.075 0 0 0.08 0 0.02 0.08 0 0.04 0.08 0 0.06 0.08 0 0.08 0.08 0 0.1 0.08 0 0 0.085 0 0.02 0.085 0 0.04 0.085 0 0.06 0.085 0 0.08 0.085 0 0.1 0.085 0 0 0.09 0 0.02 0.09 0 0.04 0.09 0 0.06 0.09 0 0.08 0.09 0 0.1 0.09 0 0 0.095 0 0.02 0.095 0 0.04 0.095 0 0.06 0.095 0 0.08 0.095 0 0.1 0.095 0 0 0.1 0 0.02 0.1 0 0.04 0.1 0 0.06 0.1 0 0.08 0.1 0 0.1 0.1 0 0 0.105 0 0.02 0.105 0 0.04 0.105 0 0.06 0.105 0 0.08 0.105 0 0.1 0.105 0 0 0.11 0 0.02 0.11 0 0.04 0.11 0 0.06 0.11 0 0.08 0.11 0 0.1 0.11 0 0 0.115 0 0.02 0.115 0 0.04 0.115 0 0.06 0.115 0 0.08 0.115 0 0.1 0.115 0 0 0.12 0 0.02 0.12 0 0.04 0.12 0 0.06 0.12 0 0.08 0.12 0 0.1 0.12 0 0 0.125 0 0.02 0.125 0 0.04 0.125 0 0.06 0.125 0 0.08 0.125 0 0.1 0.125 0 0 0.13 0 0.02 0.13 0 0.04 0.13 0 0.06 0.13 0 0.08 0.13 0 0.1 0.13 0 0 0.135 0 0.02 0.135 0 0.04 0.135 0 0.06 0.135 0 0.08 0.135 0 0.1 0.135 0 0 0.14 0 0.02 0.14 0 0.04 0.14 0 0.06 0.14 0 0.08 0.14 0 0.1 0.14 0 0 0.145 0 0.02 0.145 0 0.04 0.145 0 0.06 0.145 0 0.08 0.145 0 0.1 0.145 0 0 0.15 0 0.02 0.15 0 0.04 0.15 0 0.06 0.15 0 0.08 0.15 0 0.1 0.15 0 0 0.155 0 0.02 0.155 0 0.04 0.155 0 0.06 0.155 0 0.08 0.155 0 0.1 0.155 0 0 0.16 0 0.02 0.16 0 0.04 0.16 0 0.06 0.16 0 0.08 0.16 0 0.1 0.16 0 0 0.165 0 0.02 0.165 0 0.04 0.165 0 0.06 0.165 0 0.08 0.165 0 0.1 0.165 0 0 0.17 0 0.02 0.17 0 0.04 0.17 0 0.06 0.17 0 0.08 0.17 0 0.1 0.17 0 0 0.175 0 0.02 0.175 0 0.04 0.175 0 0.06 0.175 0 0.08 0.175 0 0.1 0.175 0 0 0.18 0 0.02 0.18 0 0.04 0.18 0 0.06 0.18 0 0.08 0.18 0 0.1 0.18 0 0 0.185 0 0.02 0.185 0 0.04 0.185 0 0.06 0.185 0 0.08 0.185 0 0.1 0.185 0 0 0.19 0 0.02 0.19 0 0.04 0.19 0 0.06 0.19 0 0.08 0.19 0 0.1 0.19 0 0 0.195 0 0.02 0.195 0 0.04 0.195 0 0.06 0.195 0 0.08 0.195 0 0.1 0.195 0 0 0.2 0 0.02 0.2 0 0.04 0.2 0 0.06 0.2 0 0.08 0.2 0 0.1 0.2 0 0 0.205 0 0.02 0.205 0 0.04 0.205 0 0.06 0.205 0 0.08 0.205 0 0.1 0.205 0 0 0.21 0 0.02 0.21 0 0.04 0.21 0 0.06 0.21 0 0.08 0.21 0 0.1 0.21 0 0 0.215 0 0.02 0.215 0 0.04 0.215 0 0.06 0.215 0 0.08 0.215 0 0.1 0.215 0 0 0.22 0 0.02 0.22 0 0.04 0.22 0 0.06 0.22 0 0.08 0.22 0 0.1 0.22 0 0 0.225 0 0.02 0.225 0 0.04 0.225 0 0.06 0.225 0 0.08 0.225 0 0.1 0.225 0 0 0.23 0 0.02 0.23 0 0.04 0.23 0 0.06 0.23 0 0.08 0.23 0 0.1 0.23 0 0 0.235 0 0.02 0.235 0 0.04 0.235 0 0.06 0.235 0 0.08 0.235 0 0.1 0.235 0 0 0.24 0 0.02 0.24 0 0.04 0.24 0 0.06 0.24 0 0.08 0.24 0 0.1 0.24 0 0 0.245 0 0.02 0.245 0 0.04 0.245 0 0.06 0.245 0 0.08 0.245 0 0.1 0.245 0 0 0.25 0 0.02 0.25 0 0.04 0.25 0 0.06 0.25 0 0.08 0.25 0 0.1 0.25 0 0 0.255 0 0.02 0.255 0 0.04 0.255 0 0.06 0.255 0 0.08 0.255 0 0.1 0.255 0 0 0.26 0 0.02 0.26 0 0.04 0.26 0 0.06 0.26 0 0.08 0.26 0 0.1 0.26 0 0 0.265 0 0.02 0.265 0 0.04 0.265 0 0.06 0.265 0 0.08 0.265 0 0.1 0.265 0 0 0.27 0 0.02 0.27 0 0.04 0.27 0 0.06 0.27 0 0.08 0.27 0 0.1 0.27 0 0 0.275 0 0.02 0.275 0 0.04 0.275 0 0.06 0.275 0 0.08 0.275 0 0.1 0.275 0 0 0.28 0 0.02 0.28 0 0.04 0.28 0 0.06 0.28 0 0.08 0.28 0 0.1 0.28 0 0 0.285 0 0.02 0.285 0 0.04 0.285 0 0.06 0.285 0 0.08 0.285 0 0.1 0.285 0 0 0.29 0 0.02 0.29 0 0.04 0.29 0 0.06 0.29 0 0.08 0.29 0 0.1 0.29 0 0 0.295 0 0.02 0.295 0 0.04 0.295 0 0.06 0.295 0 0.08 0.295 0 0.1 0.295 0 0 0.3 0 0.02 0.3 0 0.04 0.3 0 0.06 0.3 0 0.08 0.3 0 0.1 0.3 0 0 0.305 0 0.02 0.305 0 0.04 0.305 0 0.06 0.305 0 0.08 0.305 0 0.1 0.305 0 0 0.31 0 0.02 0.31 0 0.04 0.31 0 0.06 0.31 0 0.08 0.31 0 0.1 0.31 0 0 0.315 0 0.02 0.315 0 0.04 0.315 0 0.06 0.315 0 0.08 0.315 0 0.1 0.315 0 0 0.32 0 0.02 0.32 0 0.04 0.32 0 0.06 0.32 0 0.08 0.32 0 0.1 0.32 0 0 0.325 0 0.02 0.325 0 0.04 0.325 0 0.06 0.325 0 0.08 0.325 0 0.1 0.325 0 0 0.33 0 0.02 0.33 0 0.04 0.33 0 0.06 0.33 0 0.08 0.33 0 0.1 0.33 0 0 0.335 0 0.02 0.335 0 0.04 0.335 0 0.06 0.335 0 0.08 0.335 0 0.1 0.335 0 0 0.34 0 0.02 0.34 0 0.04 0.34 0 0.06 0.34 0 0.08 0.34 0 0.1 0.34 0 0 0.345 0 0.02 0.345 0 0.04 0.345 0 0.06 0.345 0 0.08 0.345 0 0.1 0.345 0 0 0.35 0 0.02 0.35 0 0.04 0.35 0 0.06 0.35 0 0.08 0.35 0 0.1 0.35 0 0 0.355 0 0.02 0.355 0 0.04 0.355 0 0.06 0.355 0 0.08 0.355 0 0.1 0.355 0 0 0.36 0 0.02 0.36 0 0.04 0.36 0 0.06 0.36 0 0.08 0.36 0 0.1 0.36 0 0 0.365 0 0.02 0.365 0 0.04 0.365 0 0.06 0.365 0 0.08 0.365 0 0.1 0.365 0 0 0.37 0 0.02 0.37 0 0.04 0.37 0 0.06 0.37 0 0.08 0.37 0 0.1 0.37 0 0 0.375 0 0.02 0.375 0 0.04 0.375 0 0.06 0.375 0 0.08 0.375 0 0.1 0.375 0 0 0.38 0 0.02 0.38 0 0.04 0.38 0 0.06 0.38 0 0.08 0.38 0 0.1 0.38 0 0 0.385 0 0.02 0.385 0 0.04 0.385 0 0.06 0.385 0 0.08 0.385 0 0.1 0.385 0 0 0.39 0 0.02 0.39 0 0.04 0.39 0 0.06 0.39 0 0.08 0.39 0 0.1 0.39 0 0 0.395 0 0.02 0.395 0 0.04 0.395 0 0.06 0.395 0 0.08 0.395 0 0.1 0.395 0 0 0.4 0 0.02 0.4 0 0.04 0.4 0 0.06 0.4 0 0.08 0.4 0 0.1 0.4 0 0 0.405 0 0.02 0.405 0 0.04 0.405 0 0.06 0.405 0 0.08 0.405 0 0.1 0.405 0 0 0.41 0 0.02 0.41 0 0.04 0.41 0 0.06 0.41 0 0.08 0.41 0 0.1 0.41 0 0 0.415 0 0.02 0.415 0 0.04 0.415 0 0.06 0.415 0 0.08 0.415 0 0.1 0.415 0 0 0.42 0 0.02 0.42 0 0.04 0.42 0 0.06 0.42 0 0.08 0.42 0 0.1 0.42 0 0 0.425 0 0.02 0.425 0 0.04 0.425 0 0.06 0.425 0 0.08 0.425 0 0.1 0.425 0 0 0.43 0 0.02 0.43 0 0.04 0.43 0 0.06 0.43 0 0.08 0.43 0 0.1 0.43 0 0 0.435 0 0.02 0.435 0 0.04 0.435 0 0.06 0.435 0 0.08 0.435 0 0.1 0.435 0 0 0.44 0 0.02 0.44 0 0.04 0.44 0 0.06 0.44 0 0.08 0.44 0 0.1 0.44 0 0 0.445 0 0.02 0.445 0 0.04 0.445 0 0.06 0.445 0 0.08 0.445 0 0.1 0.445 0 0 0.45 0 0.02 0.45 0 0.04 0.45 0 0.06 0.45 0 0.08 0.45 0 0.1 0.45 0 0 0.455 0 0.02 0.455 0 0.04 0.455 0 0.06 0.455 0 0.08 0.455 0 0.1 0.455 0 0 0.46 0 0.02 0.46 0 0.04 0.46 0 0.06 0.46 0 0.08 0.46 0 0.1 0.46 0 0 0.465004 0 0.02 0.465004 0 0.04 0.465004 0 0.06 0.465004 0 0.08 0.465004 0 0.1 0.465004 0 0 0.470029 0 0.02 0.470029 0 0.04 0.470029 0 0.06 0.470029 0 0.08 0.470029 0 0.1 0.470029 0 0 0.475169 0 0.02 0.475169 0 0.04 0.475169 0 0.06 0.475169 0 0.08 0.475169 0 0.1 0.475169 0 0 0.480681 0 0.02 0.480681 0 0.04 0.480681 0 0.06 0.480681 0 0.08 0.480681 0 0.1 0.480681 0 0 0.487032 0 0.02 0.487032 0 0.04 0.487032 0 0.06 0.487032 0 0.08 0.487032 0 0.1 0.487032 0 0 0.494924 0 0.02 0.494924 0 0.04 0.494924 0 0.06 0.494924 0 0.08 0.494924 0 0.1 0.494924 0 0 0.505464 0 0.02 0.505464 0 0.04 0.505464 0 0.06 0.505464 0 0.08 0.505464 0 0.1 0.505464 0 0 0.518572 0 0.02 0.518572 0 0.04 0.518572 0 0.06 0.518572 0 0.08 0.518572 0 0.1 0.518572 0 0 0.521236 0 0.02 0.521236 0 0.04 0.521236 0 0.06 0.521236 0 0.08 0.521236 0 0.1 0.521236 0 0 0.523742 0 0.02 0.523742 0 0.04 0.523742 0 0.06 0.523742 0 0.08 0.523742 0 0.1 0.523742 0 0 0.526228 0 0.02 0.526228 0 0.04 0.526228 0 0.06 0.526228 0 0.08 0.526228 0 0.1 0.526228 0 0 0.528786 0 0.02 0.528786 0 0.04 0.528786 0 0.06 0.528786 0 0.08 0.528786 0 0.1 0.528786 0 0 0.531505 0 0.02 0.531505 0 0.04 0.531505 0 0.06 0.531505 0 0.08 0.531505 0 0.1 0.531505 0 0 0.534481 0 0.02 0.534481 0 0.04 0.534481 0 0.06 0.534481 0 0.08 0.534481 0 0.1 0.534481 0 0 0.537805 0 0.02 0.537805 0 0.04 0.537805 0 0.06 0.537805 0 0.08 0.537805 0 0.1 0.537805 0 0 0.541542 0 0.02 0.541542 0 0.04 0.541542 0 0.06 0.541542 0 0.08 0.541542 0 0.1 0.541542 0 0 0.545711 0 0.02 0.545711 0 0.04 0.545711 0 0.06 0.545711 0 0.08 0.545711 0 0.1 0.545711 0 0 0.550261 0 0.02 0.550261 0 0.04 0.550261 0 0.06 0.550261 0 0.08 0.550261 0 0.1 0.550261 0 0 0.555074 0 0.02 0.555074 0 0.04 0.555074 0 0.06 0.555074 0 0.08 0.555074 0 0.1 0.555074 0 0 0.560017 0 0.02 0.560017 0 0.04 0.560017 0 0.06 0.560017 0 0.08 0.560017 0 0.1 0.560017 0 0 0.565003 0 0.02 0.565003 0 0.04 0.565003 0 0.06 0.565003 0 0.08 0.565003 0 0.1 0.565003 0 0 0.570001 0 0.02 0.570001 0 0.04 0.570001 0 0.06 0.570001 0 0.08 0.570001 0 0.1 0.570001 0 0 0.575 0 0.02 0.575 0 0.04 0.575 0 0.06 0.575 0 0.08 0.575 0 0.1 0.575 0 0 0.58 0 0.02 0.58 0 0.04 0.58 0 0.06 0.58 0 0.08 0.58 0 0.1 0.58 0 0 0.585 0 0.02 0.585 0 0.04 0.585 0 0.06 0.585 0 0.08 0.585 0 0.1 0.585 0 0 0.59 0 0.02 0.59 0 0.04 0.59 0 0.06 0.59 0 0.08 0.59 0 0.1 0.59 0 0 0.595 0 0.02 0.595 0 0.04 0.595 0 0.06 0.595 0 0.08 0.595 0 0.1 0.595 0 0 0.6 0 0.02 0.6 0 0.04 0.6 0 0.06 0.6 0 0.08 0.6 0 0.1 0.6 0 0 0.605 0 0.02 0.605 0 0.04 0.605 0 0.06 0.605 0 0.08 0.605 0 0.1 0.605 0 0 0.61 0 0.02 0.61 0 0.04 0.61 0 0.06 0.61 0 0.08 0.61 0 0.1 0.61 0 0 0.615 0 0.02 0.615 0 0.04 0.615 0 0.06 0.615 0 0.08 0.615 0 0.1 0.615 0 0 0.62 0 0.02 0.62 0 0.04 0.62 0 0.06 0.62 0 0.08 0.62 0 0.1 0.62 0 0 0.625 0 0.02 0.625 0 0.04 0.625 0 0.06 0.625 0 0.08 0.625 0 0.1 0.625 0 0 0.63 0 0.02 0.63 0 0.04 0.63 0 0.06 0.63 0 0.08 0.63 0 0.1 0.63 0 0 0.635 0 0.02 0.635 0 0.04 0.635 0 0.06 0.635 0 0.08 0.635 0 0.1 0.635 0 0 0.64 0 0.02 0.64 0 0.04 0.64 0 0.06 0.64 0 0.08 0.64 0 0.1 0.64 0 0 0.645 0 0.02 0.645 0 0.04 0.645 0 0.06 0.645 0 0.08 0.645 0 0.1 0.645 0 0 0.65 0 0.02 0.65 0 0.04 0.65 0 0.06 0.65 0 0.08 0.65 0 0.1 0.65 0 0 0.655 0 0.02 0.655 0 0.04 0.655 0 0.06 0.655 0 0.08 0.655 0 0.1 0.655 0 0 0.66 0 0.02 0.66 
[...]
			<PointData Scalars="VitesseX">
				<DataArray Name="VitesseX" type="Float32" format="ascii">
 0 -3.46497e-17 -5.20959e-16 1.04192e-15 -5.76929e-16 0 0 0 -5.20959e-16 9.74845e-16 -5.14856e-16 0 0 -2.76591e-16 1.06973e-17 5.93603e-16 -4.4475e-16 0 0 1.65835e-16 -3.32208e-17 8.75767e-17 -2.92446e-16 0 0 4.59751e-16 9.02731e-17 -6.58146e-16 6.11928e-17 0 0 -4.21636e-16 9.41532e-16 -1.38612e-15 5.41636e-16 0 0 -2.33716e-16 1.36956e-16 -5.45326e-16 2.93838e-16 0 0 9.44063e-16 -1.90612e-15 2.23445e-15 -1.53452e-15 0 0 3.4221e-16 -8.88429e-16 1.42534e-15 -1.09373e-15 0 0 -9.07884e-16 1.57564e-15 -1.37755e-15 6.59665e-16 0 0 -4.42031e-16 8.46902e-16 -1.33174e-16 -2.46066e-16 0 0 -6.01613e-16 -1.2142e-15 4.25284e-15 -3.59723e-15 0 0 4.01887e-16 -2.60945e-15 6.07567e-15 -4.63579e-15 0 0 -7.67063e-16 1.32942e-15 -4.76335e-16 9.35997e-17 0 0 -8.49309e-16 8.95351e-16 -5.40205e-16 5.93483e-16 0 0 1.46271e-15 -2.80549e-15 3.429e-15 -3.26277e-16 0 0 -1.16579e-15 1.69848e-15 -5.94765e-16 2.4347e-15 0 0 -1.69983e-16 8.0437e-16 -1.81699e-15 3.32383e-15 0 0 4.22016e-18 1.03938e-15 -2.82248e-15 2.03237e-15 0 0 -1.13381e-15 1.87359e-15 -3.07385e-15 2.01086e-15 0 0 9.68584e-16 -2.58996e-15 2.20914e-15 6.10354e-16 0 0 7.6214e-16 -1.92909e-15 3.87083e-15 -2.0829e-15 0 0 -3.20635e-16 1.85042e-15 -2.33202e-16 -1.99794e-15 0 0 -1.39421e-15 3.60518e-15 -1.9551e-15 -2.86589e-15 0 0 2.49311e-16 -8.83638e-16 6.413e-17 -2.21922e-15 0 0 2.47775e-15 -5.42026e-15 4.61838e-15 -3.70092e-15 0 0 5.4402e-16 1.34045e-16 -1.37977e-15 -1.07984e-15 0 0 -1.55863e-15 4.45171e-15 -6.14969e-15 3.32035e-15 0 0 -8.46494e-16 1.51991e-15 -6.6613e-16 -1.45551e-16 0 0 1.46263e-15 -3.71281e-15 5.10674e-15 -2.11119e-15 0 0 -5.77453e-16 -1.63698e-15 3.03628e-15 -2.42603e-15 0 0 1.7525e-16 -1.32893e-15 2.64801e-15 -6.0776e-15 0 0 1.68672e-15 1.96929e-16 3.91976e-15 -6.90796e-15 0 0 -9.21773e-16 9.24705e-15 -7.88858e-15 -6.07604e-16 0 0 1.72431e-15 1.66535e-15 -2.35058e-15 -1.92848e-15 0 0 1.38207e-15 -3.4221e-15 5.50372e-15 -4.58929e-15 0 0 -7.20545e-16 2.68279e-15 -1.12906e-15 6.10406e-16 0 0 -8.34875e-16 -1.8099e-15 3.55991e-15 3.88e-15 0 0 -5.1788e-16 -1.82055e-15 2.21123e-15 5.07004e-15 0 0 -1.18643e-15 4.07002e-15 -5.2927e-15 4.76617e-15 0 0 4.20248e-17 -2.22217e-15 2.85939e-15 1.19206e-15 0 0 1.41166e-15 -3.61777e-15 4.71397e-15 -2.25347e-15 0 0 -2.33752e-15 4.13436e-15 -3.78826e-15 -9.20024e-16 0 0 -8.13345e-16 4.0164e-17 1.87208e-16 -3.71447e-15 0 0 2.8412e-15 -1.76361e-15 4.26011e-15 -1.01036e-14 0 0 -1.53617e-15 3.05992e-15 3.49524e-15 -7.34789e-15 0 0 7.32644e-16 -1.18374e-15 2.44742e-15 -1.10087e-15 0 0 3.69933e-16 3.61694e-15 -5.12872e-15 -1.54351e-15 0 0 -1.60864e-15 4.37529e-15 -8.46245e-15 1.14466e-15 0 0 2.0132e-15 -5.03807e-15 2.33167e-15 -3.38992e-15 0 0 7.69773e-16 -6.19424e-15 1.10021e-14 -1.19846e-14 0 0 2.16725e-15 -3.82039e-15 6.75365e-15 -7.31097e-15 0 0 -2.72884e-15 4.44737e-15 -3.7251e-15 2.01347e-16 0 0 2.11251e-15 2.21701e-15 -6.49956e-15 4.93114e-15 0 0 5.98485e-15 9.16838e-16 -3.324e-15 9.37894e-17 0 0 2.85141e-16 9.411e-15 -7.98459e-15 -5.02499e-15 0 0 5.55381e-15 6.50553e-15 -4.26359e-15 -1.25098e-14 0 0 -1.25341e-15 1.32566e-14 -9.33705e-15 -6.84456e-15 0 0 7.80329e-16 1.08321e-14 -9.84438e-15 -5.04688e-15 0 0 5.50951e-15 -3.65688e-15 7.28346e-15 -1.35129e-14 0 0 -2.8133e-15 4.73946e-15 6.29025e-15 -8.56298e-15 0 0 1.54245e-15 1.08116e-14 -1.05815e-14 2.01509e-15 0 0 -1.27762e-15 1.31478e-14 -1.52594e-14 5.75194e-15 0 0 3.36679e-16 7.28075e-15 -4.0652e-15 -5.81946e-15 0 0 2.6371e-15 8.92381e-16 -1.67243e-15 -6.09562e-15 0 0 -2.58068e-15 2.53053e-15 1.45216e-16 4.91917e-16 0 0 4.05751e-17 3.77258e-16 -1.97885e-15 4.54457e-15 0 0 -1.05399e-15 3.16747e-15 6.59211e-16 8.85906e-16 0 0 1.35572e-15 -1.70903e-15 1.1316e-14 -6.53399e-15 0 0 4.57453e-15 -1.50485e-15 6.17716e-15 -3.89015e-15 0 0 4.14661e-15 1.08204e-15 2.08421e-15 -2.40011e-16 0 0 6.3183e-15 -8.16296e-16 2.65463e-15 1.90053e-15 0 0 5.47701e-15 -3.61596e-16 4.89789e-16 -1.70453e-15 0 0 1.18466e-14 1.07804e-15 -8.10242e-17 -1.35046e-14 0 0 4.45997e-15 1.43324e-14 -7.69676e-15 -6.27966e-15 0 0 -2.82465e-15 1.88685e-14 -1.1176e-14 1.76951e-15 0 0 1.33504e-14 1.13035e-14 -6.97188e-15 -3.68178e-15 0 0 6.46592e-15 1.14696e-14 -6.03303e-15 -1.46639e-15 0 0 6.23744e-15 9.86601e-15 -6.32396e-15 -6.69662e-16 0 0 7.95194e-15 6.88175e-16 4.2416e-15 -4.2424e-15 0 0 4.77138e-15 -1.32365e-16 1.14606e-14 -3.79467e-15 0 0 1.48286e-14 8.11459e-16 3.26024e-16 8.61184e-15 0 0 3.44703e-15 8.88398e-15 -1.47636e-15 1.27748e-15 0 0 -5.25395e-15 2.36115e-14 -1.24921e-14 2.59526e-15 0 0 9.01854e-15 3.52331e-15 -4.97073e-15 1.8257e-14 0 0 6.17925e-15 -4.32829e-15 4.07695e-14 -2.1095e-15 0 0 2.8545e-15 2.16847e-15 4.26856e-14 -7.52612e-15 0 0 5.84128e-15 3.71967e-15 1.38829e-14 1.87675e-14 0 0 -5.06854e-15 1.7671e-14 8.59735e-15 4.23864e-15 0 0 4.47552e-15 -2.92066e-15 6.08401e-15 -1.03695e-15 0 0 2.40418e-15 -9.16659e-15 1.72865e-14 3.53092e-15 0 0 -9.66499e-15 1.03499e-14 2.27629e-14 -6.36082e-15 0 0 2.69813e-15 5.93194e-15 -4.08867e-15 9.9141e-15 0 0 3.7403e-15 1.14883e-15 -4.03366e-15 1.07226e-14 0 0 -1.03568e-15 5.85005e-15 5.82747e-15 -4.86897e-16 0 0 3.09296e-15 7.68357e-15 2.72152e-15 -6.27156e-15 0 0 -5.33227e-15 2.39738e-15 5.43783e-15 -1.56513e-15 0 0 -2.58869e-15 -8.70126e-16 2.91922e-15 8.75832e-16 0 0 8.69297e-15 2.61618e-15 -2.01399e-15 1.36129e-14 0 0 2.65197e-15 4.25648e-15 1.94856e-16 8.87169e-15 0 0 1.4534e-15 2.30062e-15 -2.89982e-15 -5.43216e-15 0 0 2.42961e-14 5.47375e-14 4.79679e-14 2.4398e-14 0 0 9.94931e-14 1.62075e-13 1.67196e-13 1.03399e-13 0 0 -5.54674e-14 -1.31454e-13 -5.63472e-14 -1.38338e-13 0 0 4.6863e-14 1.36898e-13 7.7923e-14 3.64114e-14 0 0 9.84131e-16 5.92046e-14 7.22358e-14 3.05818e-14 0 0 -6.87182e-14 -1.18646e-13 -7.05097e-14 -8.90624e-14 0 0 6.26244e-14 1.5308e-13 8.90402e-14 7.44945e-14 0 0 -2.30329e-14 -3.46464e-14 -1.1197e-14 -7.66676e-14 0 0 1.33453e-14 1.90093e-14 2.79072e-14 -1.20384e-14 0 0 2.2261e-15 1.46683e-14 1.48539e-14 1.80989e-14 0 0 1.62539e-14 1.11846e-16 1.86764e-14 7.15094e-15 0 0 1.38098e-14 -4.81175e-15 6.45944e-15 2.89759e-14 0 0 1.01828e-15 1.17588e-14 6.8804e-16 1.4111e-14 0 0 -4.21153e-15 2.75555e-14 -1.37048e-14 1.21156e-14 0 0 1.46252e-14 1.44202e-14 -1.56115e-14 2.31066e-14 0 0 1.49e-14 -5.95167e-15 1.1944e-14 2.34014e-14 0 0 1.12172e-15 -1.08355e-14 2.38727e-14 2.20031e-14 0 0 5.89035e-15 -7.45332e-15 1.57153e-14 1.20887e-14 0 0 1.20784e-14 3.29493e-15 2.15264e-15 2.87244e-14 0 0 1.30793e-14 8.85377e-15 7.62418e-15 2.89655e-14 0 0 1.44094e-14 -2.6929e-15 3.71782e-14 3.14736e-15 0 0 2.58194e-14 -9.11956e-15 2.0153e-14 3.75455e-14 0 0 1.99289e-14 3.3086e-14 -2.88859e-14 4.46363e-14 0 0 2.03094e-14 3.10659e-14 -1.19948e-14 -1.30576e-14 0 0 1.49765e-14 6.94746e-15 -9.90135e-15 -1.0291e-14 0 0 1.52508e-15 6.70548e-16 6.90955e-15 -2.03911e-14 0 0 6.31166e-15 -4.92517e-15 2.19969e-14 -2.94764e-14 0 0 -5.58001e-15 1.05883e-14 -5.70471e-15 2.39872e-15 0 0 -1.80506e-16 5.03097e-15 4.01667e-15 -8.84507e-15 0 0 5.86217e-17 4.31707e-15 1.88034e-15 -1.18821e-14 0 0 -5.84341e-15 6.95454e-16 3.51147e-15 -4.87462e-15 0 0 5.12543e-15 1.54041e-15 1.86067e-14 -2.31072e-14 0 0 5.9989e-16 1.31666e-14 8.48897e-15 -2.49669e-14 0 0 5.86367e-16 6.58601e-15 6.45072e-15 -1.09503e-14 0 0 2.18845e-15 4.85863e-17 5.07489e-15 7.49828e-16 0 0 4.71106e-15 -4.77141e-15 4.20001e-15 -8.69662e-16 0 0 1.27745e-14 2.5322e-15 3.04928e-15 -1.82045e-14 0 0 1.40745e-15 3.92532e-14 -3.64554e-14 -6.83635e-15 0 0 7.5765e-15 3.27259e-14 -3.2978e-14 -1.68447e-16 0 0 2.34043e-14 -1.61741e-16 -8.29938e-15 -3.32686e-15 0 0 2.08076e-14 7.94686e-15 -1.47285e-14 -1.08914e-15 0 0 1.998e-14 7.67301e-15 2.05989e-15 -1.26276e-14 0 0 1.52721e-14 -3.66257e-15 2.42661e-14 -3.77933e-14 0 0 6.74827e-15 5.39344e-15 -5.49444e-15 -2.72523e-14 0 0 1.32292e-14 -2.20389e-15 -9.02544e-15 -4.82213e-15 0 0 8.60531e-15 9.95816e-15 -1.32782e-14 3.32598e-15 0 0 2.35907e-14 1.37697e-14 -1.35625e-14 -1.59519e-15 0 0 1.73435e-14 1.21421e-14 2.34811e-14 -2.65818e-14 0 0 -2.55176e-15 1.65163e-14 1.71737e-14 -1.36583e-14 0 0 1.29714e-14 -2.90245e-16 9.97691e-15 -9.62627e-16 0 0 2.67859e-15 1.79368e-14 5.90692e-15 -2.01693e-14 0 0 7.01133e-15 1.82037e-14 -9.08152e-15 -4.23631e-15 0 0 5.97435e-15 2.84884e-14 -3.24999e-14 1.89995e-14 0 0 1.27549e-14 2.25371e-14 -2.52601e-14 -3.83565e-15 0 0 1.68544e-14 4.86765e-15 -1.89948e-14 -6.72336e-15 0 0 7.96743e-15 -1.57877e-15 -7.0534e-15 -3.64841e-15 0 0 7.73481e-15 2.12432e-15 -1.89095e-14 1.11652e-14 0 0 1.49905e-14 8.03358e-15 -3.5807e-14 3.6149e-15 0 0 2.67161e-14 2.75765e-15 -9.70639e-15 -3.86116e-14 0 0 3.10131e-14 1.98792e-14 -1.71092e-14 -2.38157e-14 0 0 3.3571e-14 3.64816e-14 -4.63163e-14 1.07499e-14 0 0 3.52506e-14 2.08477e-14 -4.44026e-14 2.08255e-14 0 0 2.96405e-14 1.07328e-14 -3.03196e-14 -2.99382e-15 0 0 9.14312e-15 3.15947e-14 -3.18597e-14 -1.63047e-14 0 0 2.38959e-15 1.52634e-14 -4.97021e-15 -6.60426e-15 0 0 2.28663e-14 -1.37386e-14 -2.41303e-15 -5.4642e-15 0 0 3.52661e-14 -1.11641e-14 -1.20022e-15 -7.77373e-15 0 0 1.5557e-14 -1.11603e-14 4.52217e-14 1.79325e-15 0 0 2.65195e-15 -1.05152e-16 3.69708e-14 8.91546e-15 0 0 6.27591e-15 1.84341e-14 1.72943e-14 -5.43649e-15 0 0 9.87412e-15 2.45959e-15 3.87905e-14 -3.82252e-15 0 0 1.84005e-14 -1.26688e-14 2.64e-14 2.35197e-15 0 0 9.54066e-15 -2.89708e-15 8.50373e-15 -4.90939e-15 0 0 1.44731e-14 1.69529e-14 -2.10299e-14 -1.1936e-14 0 0 2.31287e-14 1.97587e-15 -2.02242e-14 -9.51768e-15 0 0 4.59436e-15 -5.29861e-15 3.90622e-15 -6.31066e-15 0 0 2.40923e-15 -5.22432e-15 2.33112e-15 -3.13472e-15 0 0 -9.52252e-15 -1.70451e-15 -3.71059e-16 1.20147e-14 0 0 -6.64708e-15 7.30384e-15 -6.52061e-15 1.37265e-14 0 0 4.75937e-15 -4.96375e-16 1.1671e-14 -2.0278e-14 0 0 1.49292e-16 1.63289e-15 1.34307e-14 -2.45266e-14 0 0 9.89226e-15 3.69157e-15 1.27257e-15 -1.3953e-14 0 0 9.53775e-16 8.91528e-15 2.58834e-15 -2.17785e-14 0 0 4.8789e-16 2.57046e-15 9.06881e-15 -9.94163e-15 0 0 3.00303e-15 2.78591e-15 -1.34224e-15 1.04305e-14 0 0 -3.92202e-15 1.76182e-15 -1.04931e-15 -5.31545e-15 0 0 1.12117e-14 -8.80374e-15 3.33214e-15 -1.67775e-14 0 0 6.55172e-15 -4.08966e-15 3.59054e-15 -7.91518e-15 0 0 9.3156e-15 -9.71787e-15 6.65452e-15 3.41196e-15 0 0 5.88757e-15 1.23868e-15 -1.04856e-14 9.38385e-15 0 0 1.9939e-16 -1.2228e-14 1.14248e-14 -1.29251e-14 0 0 1.43255e-14 -1.66205e-14 6.93096e-15 -3.6405e-15 0 0 5.28812e-15 5.83962e-15 1.66013e-15 -3.6163e-15 0 0 3.47634e-15 3.38286e-15 1.50809e-14 -2.76654e-14 0 0 8.1506e-15 5.5101e-16 6.10226e-15 -1.70989e-14 0 0 -9.13638e-15 1.45228e-14 -8.26322e-15 5.38017e-15 0 0 5.90327e-16 1.3878e-14 -3.35166e-14 3.01478e-14 0 0 5.89604e-15 3.89108e-15 -1.96064e-14 2.23088e-14 0 0 -6.2183e-15 1.9357e-14 -2.34104e-14 1.95215e-14 0 0 -1.20909e-15 2.39151e-14 -4.60163e-14 4.00191e-14 0
				</DataArray>
				<DataArray Name="VitesseY" type="Float32" format="ascii">