<?xml version="1.0"?>
<VTKFile type="PolyData">
	<PolyData>
		<Piece NumberOfPoints="1206" NumberOfPolys="1000">
			<Points>
				<DataArray type="Float32" NumberOfComponents="3" format="ascii">
 0 0 0 0.02 0 0 0.04 0 0 0.06 0 0 0.08 0 0 0.1 0 0 0 0.005 0 0.02 0.005 0 0.04 0.005 0 0.06 0.005 0 0.08 0.005 0 0.1 0.005 0 0 0.01 0 0.02 0.01 0 0.04 0.01 0 0.06 0.01 0 0.08 0.01 0 0.1 0.01 0 0 0.015 0 0.02 0.015 0 0.04 0.015 0 0.06 0.015 0 0.08 0.015 0 0.1 0.015 0 0 0.02 0 0.02 0.02 0 0.04 0.02 0 0.06 0.02 0 0.08 0.02 0 0.1 0.02 0 0 0.025 0 0.02 0.025 0 0.04 0.025 0 0.06 0.025 0 0.08 0.025 0 0.1 0.025 0 0 0.03 0 0.02 0.03 0 0.04 0.03 0 0.06 0.03 0 0.08 0.03 0 0.1 0.03 0 0 0.035 0 0.02 0.035 0 0.04 0.035 0 0.06 0.035 0 0.08 0.035 0 0.1 0.035 0 0 0.04 0 0.02 0.04 0 0.04 0.04 0 0.06 0.04 0 0.08 0.04 0 0.1 0.04 0 0 0.045 0 0.02 0.045 0 0.04 0.045 0 0.06 0.045 0 0.08 0.045 0 0.1 0.045 0 0 0.05 0 0.02 0.05 0 0.04 0.05 0 0.06 0.05 0 0.08 0.05 0 0.1 0.05 0 0 0.055 0 0.02 0.055 0 0.04 0.055 0 0.06 0.055 0 0.08 0.055 0 0.1 0.055 0 0 0.06 0 0.02 0.06 0 0.04 0.06 0 0.06 0.06 0 0.08 0.06 0 0.1 0.06 0 0 0.065 0 0.02 0.065 0 0.04 0.065 0 0.06 0.065 0 0.08 0.065 0 0.1 0.065 0 0 0.07 0 0.02 0.07 0 0.04 0.07 0 0.06 0.07 0 0.08 0.07 0 0.1 0.07 0 0 0.075 0 0.02 0.075 0 0.04 0.075 0 0.06 0.075 0 0.08 0.075 0 0.1 0.075 0 0 0.08 0 0.02 0.08 0 0.04 0.08 0 0.06 0.08 0 0.08 0.08 0 0.1 0.08 0 0 0.085 0 0.02 0.085 0 0.04 0.085 0 0.06 0.085 0 0.08 0.085 0 0.1 0.085 0 0 0.09 0 0.02 0.09 0 0.04 0.09 0 0.06 0.09 0 0.08 0.09 0 0.1 0.09 0 0 0.095 0 0.02 0.095 0 0.04 0.095 0 0.06 0.095 0 0.08 0.095 0 0.1 0.095 0 0 0.1 0 0.02 0.1 0 0.04 0.1 0 0.06 0.1 0 0.08 0.1 0 0.1 0.1 0 0 0.105 0 0.02 0.105 0 0.04 0.105 0 0.06 0.105 0 0.08 0.105 0 0.1 0.105 0 0 0.11 0 0.02 0.11 0 0.04 0.11 0 0.06 0.11 0 0.08 0.11 0 0.1 0.11 0 0 0.115 0 0.02 0.115 0 0.04 0.115 0 0.06 0.115 0 0.08 0.115 0 0.1 0.115 0 0 0.12 0 0.02 0.12 0 0.04 0.12 0 0.06 0.12 0 0.08 0.12 0 0.1 0.12 0 0 0.125 0 0.02 0.125 0 0.04 0.125 0 0.06 0.125 0 0.08 0.125 0 0.1 0.125 0 0 0.13 0 0.02 0.13 0 0.04 0.13 0 0.06 0.13 0 0.08 0.13 0 0.1 0.13 0 0 0.135 0 0.02 0.135 0 0.04 0.135 0 0.06 0.135 0 0.08 0.135 0 0.1 0.135 0 0 0.14 0 0.02 0.14 0 0.04 0.14 0 0.06 0.14 0 0.08 0.14 0 0.1 0.14 0 0 0.145 0 0.02 0.145 0 0.04 0.145 0 0.06 0.145 0 0.08 0.145 0 0.1 0.145 0 0 0.15 0 0.02 0.15 0 0.04 0.15 0 0.06 0.15 0 0.08 0.15 0 0.1 0.15 0 0 0.155 0 0.02 0.155 0 0.04 0.155 0 0.06 0.155 0 0.08 0.155 0 0.1 0.155 0 0 0.16 0 0.02 0.16 0 0.04 0.16 0 0.06 0.16 0 0.08 0.16 0 0.1 0.16 0 0 0.165 0 0.02 0.165 0 0.04 0.165 0 0.06 0.165 0 0.08 0.165 0 0.1 0.165 0 0 0.17 0 0.02 0.17 0 0.04 0.17 0 0.06 0.17 0 0.08 0.17 0 0.1 0.17 0 0 0.175 0 0.02 0.175 0 0.04 0.175 0 0.06 0.175 0 0.08 0.175 0 0.1 0.175 0 0 0.18 0 0.02 0.18 0 0.04 0.18 0 0.06 0.18 0 0.08 0.18 0 0.1 0.18 0 0 0.185 0 0.02 0.185 0 0.04 0.185 0 0.06 0.185 0 0.08 0.185 0 0.1 0.185 0 0 0.19 0 0.02 0.19 0 0.04 0.19 0 0.06 0.19 0 0.08 0.19 0 0.1 0.19 0 0 0.195 0 0.02 0.195 0 0.04 0.195 0 0.06 0.195 0 0.08 0.195 0 0.1 0.195 0 0 0.2 0 0.02 0.2 0 0.04 0.2 0 0.06 0.2 0 0.08 0.2 0 0.1 0.2 0 0 0.205 0 0.02 0.205 0 0.04 0.205 0 0.06 0.205 0 0.08 0.205 0 0.1 0.205 0 0 0.21 0 0.02 0.21 0 0.04 0.21 0 0.06 0.21 0 0.08 0.21 0 0.1 0.21 0 0 0.215 0 0.02 0.215 0 0.04 0.215 0 0.06 0.215 0 0.08 0.215 0 0.1 0.215 0 0 0.22 0 0.02 0.22 0 0.04 0.22 0 0.06 0.22 0 0.08 0.22 0 0.1 0.22 0 0 0.225 0 0.02 0.225 0 0.04 0.225 0 0.06 0.225 0 0.08 0.225 0 0.1 0.225 0 0 0.23 0 0.02 0.23 0 0.04 0.23 0 0.06 0.23 0 0.08 0.23 0 0.1 0.23 0 0 0.235 0 0.02 0.235 0 0.04 0.235 0 0.06 0.235 0 0.08 0.235 0 0.1 0.235 0 0 0.24 0 0.02 0.24 0 0.04 0.24 0 0.06 0.24 0 0.08 0.24 0 0.1 0.24 0 0 0.245 0 0.02 0.245 0 0.04 0.245 0 0.06 0.245 0 0.08 0.245 0 0.1 0.245 0 0 0.25 0 0.02 0.25 0 0.04 0.25 0 0.06 0.25 0 0.08 0.25 0 0.1 0.25 0 0 0.255 0 0.02 0.255 0 0.04 0.255 0 0.06 0.255 0 0.08 0.255 0 0.1 0.255 0 0 0.26 0 0.02 0.26 0 0.04 0.26 0 0.06 0.26 0 0.08 0.26 0 0.1 0.26 0 0 0.265 0 0.02 0.265 0 0.04 0.265 0 0.06 0.265 0 0.08 0.265 0 0.1 0.265 0 0 0.27 0 0.02 0.27 0 0.04 0.27 0 0.06 0.27 0 0.08 0.27 0 0.1 0.27 0 0 0.275 0 0.02 0.275 0 0.04 0.275 0 0.06 0.275 0 0.08 0.275 0 0.1 0.275 0 0 0.28 0 0.02 0.28 0 0.04 0.28 0 0.06 0.28 0 0.08 0.28 0 0.1 0.28 0 0 0.285 0 0.02 0.285 0 0.04 0.285 0 0.06 0.285 0 0.08 0.285 0 0.1 0.285 0 0 0.29 0 0.02 0.29 0 0.04 0.29 0 0.06 0.29 0 0.08 0.29 0 0.1 0.29 0 0 0.295 0 0.02 0.295 0 0.04 0.295 0 0.06 0.295 0 0.08 0.295 0 0.1 0.295 0 0 0.300001 0 0.02 0.300001 0 0.04 0.300001 0 0.06 0.300001 0 0.08 0.300001 0 0.1 0.300001 0 0 0.305002 0 0.02 0.305002 0 0.04 0.305002 0 0.06 0.305002 0 0.08 0.305002 0 0.1 0.305002 0 0 0.310006 0 0.02 0.310006 0 0.04 0.310006 0 0.06 0.310006 0 0.08 0.310006 0 0.1 0.310006 0 0 0.315017 0 0.02 0.315017 0 0.04 0.315017 0 0.06 0.315017 0 0.08 0.315017 0 0.1 0.315017 0 0 0.320044 0 0.02 0.320044 0 0.04 0.320044 0 0.06 0.320044 0 0.08 0.320044 0 0.1 0.320044 0 0 0.325101 0 0.02 0.325101 0 0.04 0.325101 0 0.06 0.325101 0 0.08 0.325101 0 0.1 0.325101 0 0 0.330207 0 0.02 0.330207 0 0.04 0.330207 0 0.06 0.330207 0 0.08 0.330207 0 0.1 0.330207 0 0 0.335386 0 0.02 0.335386 0 0.04 0.335386 0 0.06 0.335386 0 0.08 0.335386 0 0.1 0.335386 0 0 0.34066 0 0.02 0.34066 0 0.04 0.34066 0 0.06 0.34066 0 0.08 0.34066 0 0.1 0.34066 0 0 0.346048 0 0.02 0.346048 0 0.04 0.346048 0 0.06 0.346048 0 0.08 0.346048 0 0.1 0.346048 0 0 0.351565 0 0.02 0.351565 0 0.04 0.351565 0 0.06 0.351565 0 0.08 0.351565 0 0.1 0.351565 0 0 0.357224 0 0.02 0.357224 0 0.04 0.357224 0 0.06 0.357224 0 0.08 0.357224 0 0.1 0.357224 0 0 0.363037 0 0.02 0.363037 0 0.04 0.363037 0 0.06 0.363037 0 0.08 0.363037 0 0.1 0.363037 0 0 0.369017 0 0.02 0.369017 0 0.04 0.369017 0 0.06 0.369017 0 0.08 0.369017 0 0.1 0.369017 0 0 0.375176 0 0.02 0.375176 0 0.04 0.375176 0 0.06 0.375176 0 0.08 0.375176 0 0.1 0.375176 0 0 0.381528 0 0.02 0.381528 0 0.04 0.381528 0 0.06 0.381528 0 0.08 0.381528 0 0.1 0.381528 0 0 0.388087 0 0.02 0.388087 0 0.04 0.388087 0 0.06 0.388087 0 0.08 0.388087 0 0.1 0.388087 0 0 0.394869 0 0.02 0.394869 0 0.04 0.394869 0 0.06 0.394869 0 0.08 0.394869 0 0.1 0.394869 0 0 0.401892 0 0.02 0.401892 0 0.04 0.401892 0 0.06 0.401892 0 0.08 0.401892 0 0.1 0.401892 0 0 0.409177 0 0.02 0.409177 0 0.04 0.409177 0 0.06 0.409177 0 0.08 0.409177 0 0.1 0.409177 0 0 0.416746 0 0.02 0.416746 0 0.04 0.416746 0 0.06 0.416746 0 0.08 0.416746 0 0.1 0.416746 0 0 0.424624 0 0.02 0.424624 0 0.04 0.424624 0 0.06 0.424624 0 0.08 0.424624 0 0.1 0.424624 0 0 0.43284 0 0.02 0.43284 0 0.04 0.43284 0 0.06 0.43284 0 0.08 0.43284 0 0.1 0.43284 0 0 0.441426 0 0.02 0.441426 0 0.04 0.441426 0 0.06 0.441426 0 0.08 0.441426 0 0.1 0.441426 0 0 0.45042 0 0.02 0.45042 0 0.04 0.45042 0 0.06 0.45042 0 0.08 0.45042 0 0.1 0.45042 0 0 0.459863 0 0.02 0.459863 0 0.04 0.459863 0 0.06 0.459863 0 0.08 0.459863 0 0.1 0.459863 0 0 0.4698 0 0.02 0.4698 0 0.04 0.4698 0 0.06 0.4698 0 0.08 0.4698 0 0.1 0.4698 0 0 0.480278 0 0.02 0.480278 0 0.04 0.480278 0 0.06 0.480278 0 0.08 0.480278 0 0.1 0.480278 0 0 0.491337 0 0.02 0.491337 0 0.04 0.491337 0 0.06 0.491337 0 0.08 0.491337 0 0.1 0.491337 0 0 0.50298 0 0.02 0.50298 0 0.04 0.50298 0 0.06 0.50298 0 0.08 0.50298 0 0.1 0.50298 0 0 0.515078 0 0.02 0.515078 0 0.04 0.515078 0 0.06 0.515078 0 0.08 0.515078 0 0.1 0.515078 0 0 0.527247 0 0.02 0.527247 0 0.04 0.527247 0 0.06 0.527247 0 0.08 0.527247 0 0.1 0.527247 0 0 0.539296 0 0.02 0.539296 0 0.04 0.539296 0 0.06 0.539296 0 0.08 0.539296 0 0.1 0.539296 0 0 0.551229 0 0.02 0.551229 0 0.04 0.551229 0 0.06 0.551229 0 0.08 0.551229 0 0.1 0.551229 0 0 0.56307 0 0.02 0.56307 0 0.04 0.56307 0 0.06 0.56307 0 0.08 0.56307 0 0.1 0.56307 0 0 0.574857 0 0.02 0.574857 0 0.04 0.574857 0 0.06 0.574857 0 0.08 0.574857 0 0.1 0.574857 0 0 0.586618 0 0.02 0.586618 0 0.04 0.586618 0 0.06 0.586618 0 0.08 0.586618 0 0.1 0.586618 0 0 0.598368 0 0.02 0.598368 0 0.04 0.598368 0 0.06 0.598368 0 0.08 0.598368 0 0.1 0.598368 0 0 0.610114 0 0.02 0.610114 0 0.04 0.610114 0 0.06 0.610114 0 0.08 0.610114 0 0.1 0.610114 0 0 0.621859 0 0.02 0.621859 0 0.04 0.621859 0 0.06 0.621859 0 0.08 0.621859 0 0.1 0.621859 0 0 0.633615 0 0.02 0.633615 0 0.04 0.633615 0 0.06 0.633615 0 0.08 0.633615 0 0.1 0.633615 0 0 0.636229 0 0.02 0.636229 0 0.04 0.636229 0 0.06 0.636229 0 0.08 0.636229 0 0.1 0.636229 0 0 0.638767 0 0.02 0.638767 0 0.04 0.638767 0 0.06 0.638767 0 0.08 0.638767 0 0.1 0.638767 0 0 0.641259 0 0.02 0.641259 0 0.04 0.641259 0 0.06 0.641259 0 0.08 0.641259 0 0.1 0.641259 0 0 0.64372 0 0.02 0.64372 0 0.04 0.64372 0 0.06 0.64372 0 0.08 0.64372 0 0.1 0.64372 0 0 0.646158 0 0.02 0.646158 0 0.04 0.646158 0 0.06 0.646158 0 0.08 0.646158 0 0.1 0.646158 0 0 0.64858 0 0.02 0.64858 0 0.04 0.64858 0 0.06 0.64858 0 0.08 0.64858 0 0.1 0.64858 0 0 0.65099 0 0.02 0.65099 0 0.04 0.65099 0 0.06 0.65099 0 0.08 0.65099 0 0.1 0.65099 0 0 0.653391 0 0.02 0.653391 0 0.04 0.653391 0 0.06 0.653391 0 0.08 0.653391 0 0.1 0.653391 0 0 0.655785 0 0.02 0.655785 0 0.04 0.655785 0 0.06 0.655785 0 0.08 0.655785 0 0.1 0.655785 0 0 0.658174 0 0.02 0.658174 0 0.04 0.658174 0 0.06 0.658174 0 0.08 0.658174 0 0.1 0.658174 0 0 0.660558 0 0.02 0.660558 0 0.04 0.660558 0 0.06 0.660558 0 0.08 0.660558 0 0.1 0.660558 0 0 0.662939 0 0.02 0.662939 0 0.04 0.662939 0 0.06 0.662939 0 0.08 0.662939 0 0.1 0.662939 0 0 0.665317 0 0.02 0.665317 0 0.04 0.665317 0 0.06 0.665317 0 0.08 0.665317 0 0.1 0.665317 0 0 0.667691 0 0.02 0.667691 0 0.04 0.667691 0 0.06 0.667691 0 0.08 0.667691 0 0.1 0.667691 0 0 0.670063 0 0.02 0.670063 0 0.04 0.670063 0 0.06 0.670063 0 0.08 0.670063 0 0.1 0.670063 0 0 0.672431 0 0.02 0.672431 0 0.04 0.672431 0 0.06 0.672431 0 0.08 0.672431 0 0.1 0.672431 0 0 0.674798 0 0.02 0.674798 0 0.04 0.674798 0 0.06 0.674798 0 0.08 0.674798 0 0.1 0.674798 0 0 0.677162 0 0.02 0.677162 0 0.04 0.677162 0 0.06 0.677162 0 0.08 0.677162 0 0.1 0.677162 0 0 0.679525 0 0.02 0.679525 0 0.04 0.679525 0 0.06 0.679525 0 0.08 0.679525 0 0.1 0.679525 0 0 0.681886 0 0.02 0.681886 0 0.04 0.681886 0 0.06 0.681886 0 0.08 0.681886 0 0.1 0.681886 0 0 0.684247 0 0.02 0.684
[...]
			<PointData Scalars="VitesseX">
				<DataArray Name="VitesseX" type="Float32" format="ascii">
 0 6.26407e-16 -3.31354e-15 -6.39689e-15 -1.23752e-14 0 0 7.21586e-16 -3.51877e-15 -6.15269e-15 -1.21095e-14 0 0 1.01035e-15 -4.02505e-15 -5.5764e-15 -1.16522e-14 0 0 1.45531e-15 -4.43499e-15 -5.29239e-15 -1.11696e-14 0 0 1.2125e-15 -4.39518e-15 -5.3167e-15 -1.10403e-14 0 0 6.28329e-16 -5.21463e-15 -4.19482e-15 -1.06435e-14 0 0 -4.17254e-16 -4.83488e-15 -4.32025e-15 -1.0156e-14 0 0 -8.2566e-16 -3.67813e-15 -5.57823e-15 -9.72745e-15 0 0 -2.41088e-16 -3.98894e-15 -5.08813e-15 -7.42275e-15 0 0 -1.32664e-15 -1.64528e-15 -2.76262e-15 -7.51146e-15 0 0 -2.19869e-15 1.24335e-15 3.82108e-16 -8.86515e-15 0 0 -2.95776e-15 3.03837e-15 3.75002e-15 -7.59467e-15 0 0 -3.86299e-15 4.38938e-15 8.40605e-15 -5.44336e-15 0 0 -2.71101e-15 4.77793e-15 9.00726e-15 2.56857e-15 0 0 -1.79488e-15 6.44385e-15 8.06346e-15 8.90556e-15 0 0 -1.19919e-15 8.8629e-15 9.02003e-15 8.77571e-15 0 0 -1.63091e-15 1.34331e-14 5.05819e-15 1.18832e-14 0 0 6.30873e-16 1.28182e-14 4.92327e-15 1.30891e-14 0 0 5.86112e-15 6.63795e-15 8.39973e-15 1.25255e-14 0 0 4.78167e-15 7.37961e-15 6.99508e-15 1.42406e-14 0 0 4.76144e-15 1.26092e-14 8.63771e-16 1.32026e-14 0 0 8.34052e-15 1.41832e-14 -2.5341e-15 1.31375e-14 0 0 1.23514e-14 1.17041e-14 5.08566e-16 1.37038e-14 0 0 1.33245e-14 1.52791e-14 -1.86367e-15 9.67378e-15 0 0 1.08894e-14 2.0766e-14 -2.38514e-15 1.29531e-15 0 0 9.91411e-15 2.46523e-14 -5.2763e-16 -1.15648e-14 0 0 7.35943e-15 2.79553e-14 -1.61219e-15 -2.07588e-14 0 0 6.77762e-15 2.76742e-14 -3.08304e-15 -2.1786e-14 0 0 8.93928e-15 2.78636e-14 -3.46947e-15 -1.7223e-14 0 0 1.02268e-14 1.99909e-14 3.70755e-15 -1.36576e-14 0 0 7.45458e-15 1.49729e-14 3.19476e-15 -7.45054e-15 0 0 5.08576e-15 1.10926e-14 -2.41291e-16 6.91467e-15 0 0 9.33308e-15 -1.8758e-16 6.77476e-15 1.80022e-14 0 0 1.05543e-14 -2.84029e-15 6.11413e-15 2.65891e-14 0 0 8.98047e-15 -7.04561e-15 9.26893e-15 3.49652e-14 0 0 5.1277e-15 -8.49519e-15 1.528e-14 3.06405e-14 0 0 2.1796e-15 -6.04654e-15 1.74134e-14 2.22239e-14 0 0 4.29064e-15 -8.3762e-15 2.53818e-14 1.15884e-14 0 0 3.07197e-15 -2.2923e-15 1.89614e-14 6.08561e-15 0 0 4.70467e-15 2.61412e-15 9.42155e-15 1.40665e-14 0 0 7.38299e-15 2.51037e-15 1.0315e-14 1.97971e-14 0 0 7.25052e-15 4.94296e-15 1.03782e-14 1.72046e-14 0 0 8.94398e-15 8.78133e-15 6.27833e-15 8.55362e-15 0 0 1.03825e-14 1.40017e-14 7.33106e-15 7.13301e-15 0 0 9.54473e-15 1.91824e-14 1.47318e-14 1.37156e-14 0 0 1.19856e-14 1.75392e-14 2.50598e-14 1.19213e-14 0 0 1.62642e-14 1.61328e-14 3.21635e-14 -1.03482e-15 0 0 2.30112e-14 2.21085e-14 2.11787e-14 1.13888e-14 0 0 3.0651e-14 3.00583e-14 1.01769e-14 3.62685e-14 0 0 4.1722e-14 3.86515e-14 1.8898e-14 3.45868e-14 0 0 6.22976e-14 4.62265e-14 3.21782e-14 2.63843e-14 0 0 5.61666e-14 7.59516e-14 3.05124e-14 3.27692e-14 0 0 3.98461e-14 9.98908e-14 4.15424e-14 3.53498e-14 0 0 4.36494e-14 9.29294e-14 6.37749e-14 3.96507e-14 0 0 5.48704e-14 7.51046e-14 7.13506e-14 5.80684e-14 0 0 5.10496e-14 6.33324e-14 7.86566e-14 5.85852e-14 0 0 3.52291e-14 5.71696e-14 9.30938e-14 4.72544e-14 0 0 2.52634e-14 4.31164e-14 9.21978e-14 4.37657e-14 0 0 2.89422e-14 3.94223e-14 7.03987e-14 4.84716e-14 0 0 4.13634e-14 1.56838e-14 6.89849e-14 5.45688e-14 0 0 1.73628e-14 -5.39282e-15 7.02489e-14 7.45263e-14 0 0 -5.64794e-15 -1.63452e-15 7.44394e-14 6.81237e-14 0 0 -6.10751e-15 -2.82278e-15 7.50097e-14 3.21144e-14 0 0 -1.7174e-14 1.13894e-14 5.37578e-14 1.95638e-14 0 0 -7.03735e-15 1.10589e-14 3.27825e-14 3.48456e-14 0 0 1.3145e-14 -2.09381e-14 4.76387e-14 3.04316e-14 0 0 9.02634e-15 -3.04012e-14 6.48047e-14 7.97951e-16 0 0 9.3363e-15 -2.81151e-15 3.42428e-14 -4.42587e-15 0 0 -1.91144e-14 2.03714e-14 1.79499e-14 -4.15296e-15 0 0 -2.42467e-14 1.35709e-14 3.36387e-14 -2.41788e-14 0 0 1.65915e-14 8.86111e-15 3.14541e-14 -2.18741e-14 0 0 2.78002e-14 3.36891e-15 2.00071e-14 -3.2801e-16 0 0 1.34161e-14 1.62334e-14 3.7527e-15 1.32146e-14 0 0 -3.83643e-15 2.37046e-14 1.86791e-14 7.53502e-15 0 0 -7.97382e-16 2.45794e-14 3.62186e-14 -1.92078e-14 0 0 -1.7505e-15 1.37595e-14 5.02633e-14 -3.6547e-14 0 0 -5.18111e-15 9.07236e-15 4.33472e-14 -2.06753e-14 0 0 -1.54531e-15 3.03881e-14 9.36462e-15 -9.20341e-15 0 0 8.37657e-15 7.66448e-15 2.49464e-14 -7.85481e-15 0 0 1.02855e-15 4.98485e-15 2.80383e-14 -4.42824e-16 0 0 -1.65845e-14 2.17017e-14 2.99579e-14 1.52805e-16 0 0 -1.93282e-14 3.12626e-14 3.01518e-14 5.99605e-15 0 0 1.87037e-16 2.799e-14 1.18057e-14 1.19969e-14 0 0 4.07094e-15 2.48858e-14 1.05119e-15 2.94367e-15 0 0 5.19564e-16 2.50905e-14 -6.15578e-16 1.96906e-15 0 0 4.5336e-15 6.35541e-15 4.6041e-15 1.50325e-14 0 0 7.05651e-17 9.54418e-15 7.64083e-16 6.88022e-15 0 0 -7.99064e-15 1.43991e-14 1.50325e-15 -7.02576e-15 0 0 -1.58158e-14 7.44844e-15 2.01749e-14 1.55015e-14 0 0 2.98194e-16 -3.88368e-15 1.98392e-14 1.20386e-14 0 0 1.75352e-14 -2.7207e-15 1.03719e-14 2.0357e-14 0 0 8.68411e-15 5.97958e-15 -1.37914e-15 -5.37424e-15 0 0 -2.03663e-14 -2.0941e-14 -2.88269e-14 -3.00464e-14 0 0 -4.84381e-14 -6.42129e-14 -6.43938e-14 -3.21963e-14 0 0 -6.5108e-14 -9.41181e-14 -1.0153e-13 -5.48137e-14 0 0 -6.94213e-14 -9.92687e-14 -1.03296e-13 -5.37246e-14 0 0 -4.49194e-14 -8.66504e-14 -7.03373e-14 -3.69544e-14 0 0 -2.5777e-14 -4.36859e-14 -3.57424e-14 -3.71392e-14 0 0 -1.01459e-14 -7.83181e-15 -8.3696e-15 -2.80827e-14 0 0 -2.20123e-15 -7.73424e-15 -8.27752e-15 9.25188e-15 0 0 -1.6398e-14 -4.00708e-15 -1.53473e-14 1.07724e-14 0 0 -4.75754e-14 -4.8234e-14 -1.31711e-15 -2.13343e-14 0 0 -4.39196e-14 -3.70414e-14 -1.01365e-14 -1.38375e-14 0 0 -3.48726e-14 -4.42365e-14 -3.96037e-14 -7.79981e-15 0 0 -3.55684e-14 -7.73195e-14 -3.9815e-14 -6.60915e-15 0 0 -5.0852e-14 -8.99746e-14 -1.89584e-14 -4.02744e-14 0 0 -4.51348e-14 -9.06545e-14 -3.07894e-14 -9.15429e-15 0 0 -2.42748e-14 -7.5362e-14 -1.41849e-14 -2.86041e-14 0 0 1.52279e-14 6.11292e-15 4.38283e-14 5.78873e-14 0 0 1.20058e-13 1.38017e-13 2.47903e-13 1.70378e-13 0 0 2.61364e-13 3.3962e-13 4.74245e-13 2.56593e-13 0 0 3.7185e-13 5.26614e-13 5.8379e-13 3.64055e-13 0 0 4.21254e-13 6.51878e-13 6.21083e-13 4.58709e-13 0 0 4.28637e-13 6.48531e-13 6.25605e-13 4.75664e-13 0 0 3.90551e-13 5.9514e-13 5.88397e-13 4.35707e-13 0 0 3.42322e-13 5.42338e-13 4.66008e-13 4.27179e-13 0 0 3.10581e-13 4.65522e-13 3.61549e-13 3.87123e-13 0 0 2.4997e-13 3.98186e-13 3.43702e-13 2.71733e-13 0 0 2.03987e-13 3.35951e-13 3.03617e-13 1.44292e-13 0 0 1.89719e-13 2.77887e-13 2.24518e-13 1.99604e-13 0 0 1.64809e-13 1.9314e-13 1.95239e-13 1.82751e-13 0 0 1.35429e-13 1.4857e-13 1.77508e-13 6.70386e-14 0 0 1.15583e-13 1.18293e-13 1.63575e-13 6.40966e-14 0 0 8.53498e-14 9.67755e-14 1.14325e-13 6.601e-14 0 0 7.47741e-14 6.90065e-14 8.16637e-14 1.5823e-14 0 0 6.68504e-14 5.21151e-14 4.81896e-14 5.1981e-14 0 0 7.15791e-14 2.60201e-14 4.97114e-14 6.54146e-14 0 0 5.94966e-14 -1.77279e-14 9.06e-14 4.6952e-14 0 0 -2.2708e-15 4.76997e-14 1.17623e-14 5.57265e-14 0 0 -2.76437e-14 1.0956e-13 -7.19501e-14 7.77549e-14 0 0 -2.93594e-14 6.67797e-14 -1.66681e-14 7.09532e-14 0 0 1.46717e-14 -1.5996e-14 7.89254e-14 -2.69475e-14 0 0 5.717e-14 -7.12454e-14 7.89703e-14 -3.95367e-14 0 0 1.4228e-14 2.7367e-14 -9.07704e-14 2.8992e-14 0 0 -8.75397e-14 1.77954e-13 -2.06366e-13 4.56043e-14 0 0 -1.41069e-13 1.99047e-13 -1.68262e-13 3.79532e-15 0 0 -8.80234e-14 6.0129e-14 -2.7834e-14 -1.05501e-13 0 0 -1.38236e-14 -1.47441e-13 8.51255e-14 -1.31435e-13 0 0 -2.78998e-14 -1.85422e-13 6.66609e-14 -1.69192e-13 0 0 -7.01512e-14 -1.59579e-13 -2.25102e-14 -1.87954e-13 0 0 -4.78751e-14 -2.22215e-13 -1.1991e-13 -1.37194e-13 0 0 -3.9433e-14 -2.41634e-13 -1.88893e-13 -1.28459e-13 0 0 -9.76707e-14 -2.12086e-13 -1.94893e-13 -7.38395e-14 0 0 -1.56193e-13 -1.60143e-13 -2.04653e-13 -5.18984e-14 0 0 -1.67423e-13 -1.89231e-13 -1.64197e-13 -9.58999e-14 0 0 -8.62148e-14 -3.18086e-13 -3.7607e-14 -2.07867e-13 0 0 -4.80682e-14 -3.10836e-13 -3.97877e-14 -1.53167e-13 0 0 -1.04472e-13 -2.36395e-13 -1.54781e-13 -8.74176e-14 0 0 -1.09875e-13 -1.88076e-13 -1.48263e-13 -3.09895e-14 0 0 -8.87737e-14 -1.68324e-13 -1.52283e-13 9.92872e-15 0 0 -7.83179e-14 -6.40571e-14 -1.79087e-13 -3.13489e-14 0 0 -1.29872e-14 -5.67249e-14 -9.68243e-14 1.09134e-14 0 0 1.8074e-14 -7.3198e-15 -1.36835e-14 1.58477e-15 0 0 5.95686e-14 1.07164e-13 -2.18825e-14 5.98092e-14 0 0 8.53186e-14 1.41677e-13 8.62567e-14 6.26029e-14 0 0 1.0982e-13 1.70273e-13 1.57208e-13 5.89939e-14 0 0 1.36684e-13 1.90822e-13 1.50143e-13 1.34954e-13 0 0 1.48726e-13 2.09376e-13 1.57181e-13 8.33968e-14 0 0 1.51982e-13 2.23238e-13 1.71405e-13 8.90102e-14 0 0 1.47775e-13 2.26641e-13 1.84732e-13 1.21418e-13 0 0 1.51745e-13 2.35203e-13 1.88052e-13 8.44709e-14 0 0 1.47951e-13 2.52149e-13 1.57752e-13 1.13079e-13 0 0 1.49565e-13 2.41267e-13 1.70742e-13 1.11382e-13 0 0 1.56618e-13 2.27409e-13 2.10797e-13 9.53496e-14 0 0 1.57058e-13 2.22824e-13 2.03594e-13 1.20759e-13 0 0 1.59997e-13 2.13074e-13 2.00752e-13 1.3144e-13 0 0 1.48881e-13 2.27145e-13 1.89233e-13 1.27714e-13 0 0 1.59365e-13 2.14935e-13 1.94802e-13 1.35222e-13 0 0 1.66678e-13 2.09324e-13 1.86809e-13 1.42048e-13 0 0 1.61101e-13 2.18333e-13 1.60501e-13 1.61337e-13 0 0 1.52144e-13 2.07156e-13 1.53447e-13 1.93484e-13 0 0 1.29367e-13 2.011e-13 1.65778e-13 1.60385e-13 0 0 1.21865e-13 1.85568e-13 2.38531e-13 7.56189e-14 0 0 1.22621e-13 1.58076e-13 2.57012e-13 5.6268e-14 0 0 1.01699e-13 1.84454e-13 2.00842e-13 6.76984e-14 0 0 9.58575e-14 2.04944e-13 1.61127e-13 5.60057e-14 0 0 1.17541e-13 1.68393e-13 1.40533e-13 7.23137e-14 0 0 9.52426e-14 1.53195e-13 1.42935e-13 9.37862e-14 0 0 9.3359e-14 1.03766e-13 1.58723e-13 8.91399e-14 0 0 1.05477e-13 7.32925e-14 1.52754e-13 7.97869e-14 0 0 9.44618e-14 5.85041e-14 1.45564e-13 1.12198e-13 0 0 7.08913e-14 6.70732e-14 8.84442e-14 1.72973e-13 0 0 5.51733e-14 8.86493e-14 6.27437e-14 1.64554e-13 0 0 7.43457e-14 7.90766e-15 1.43206e-13 7.34577e-14 0 0 8.5479e-14 -1.81966e-14 1.47272e-13 3.8578e-14 0 0 5.86534e-14 5.13243e-14 8.86305e-14 7.43368e-14 0 0 2.57053e-14 9.1167e-14 6.1663e-14 1.04664e-13 0 0 2.512e-14 7.43339e-14 7.82943e-14 1.02204e-13 0 0 -1.76241e-14 9.83463e-14 1.07921e-13 8.54126e-14 0 0 -2.76437e-14 1.19326e-13 1.13881e-13 1.03855e-13 0 0 1.44419e-14 8.77528e-14 1.3868e-13 1.07452e-13 0 0 1.91557e-14 9.70832e-14 1.33133e-13 8.97717e-14 0 0 2.31866e-14 9.08989e-14 1.55668e-13 5.13125e-14 0 0 2.35409e-14 9.56662e-14 1.8944e-13 2.76768e-14 0 0 4.51174e-14 1.03133e-13 1.65501e-13 7.11277e-14 0 0 7.51456e-14 9.19083e-14 1.29504e-13 1.05701e-13 0 0 7.09824e-14 1.04844e-13 1.27644e-13 6.37998e-14 0 0 7.28551e-14 8.98565e-14 1.4979e-13 1.85849e-14 0 0 8.41467e-14 1.11668e-13 1.09295e-13 2.73213e-14 0 0 1.17623e-13 1.31487e-13 9.81434e-14 8.039e-15 0 0 1.48816e-13 1.13786e-13 1.23359e-13 -1.93953e-14 0
				</DataArray>
				<DataArray Name="VitesseY" type="Float32" format="ascii">