<?xml version="1.0"?>
<VTKFile type="PolyData">
	<PolyData>
		<Piece NumberOfPoints="1206" NumberOfPolys="1000">
			<Points>
				<DataArray type="Float32" NumberOfComponents="3" format="ascii">
 0 0 0 0.02 0 0 0.04 0 0 0.06 0 0 0.08 0 0 0.1 0 0 0 0.005 0 0.02 0.005 0 0.04 0.005 0 0.06 0.005 0 0.08 0.005 0 0.1 0.005 0 0 0.01 0 0.02 0.01 0 0.04 0.01 0 0.06 0.01 0 0.08 0.01 0 0.1 0.01 0 0 0.015 0 0.02 0.015 0 0.04 0.015 0 0.06 0.015 0 0.08 0.015 0 0.1 0.015 0 0 0.02 0 0.02 0.02 0 0.04 0.02 0 0.06 0.02 0 0.08 0.02 0 0.1 0.02 0 0 0.025 0 0.02 0.025 0 0.04 0.025 0 0.06 0.025 0 0.08 0.025 0 0.1 0.025 0 0 0.03 0 0.02 0.03 0 0.04 0.03 0 0.06 0.03 0 0.08 0.03 0 0.1 0.03 0 0 0.035 0 0.02 0.035 0 0.04 0.035 0 0.06 0.035 0 0.08 0.035 0 0.1 0.035 0 0 0.04 0 0.02 0.04 0 0.04 0.04 0 0.06 0.04 0 0.08 0.04 0 0.1 0.04 0 0 0.045 0 0.02 0.045 0 0.04 0.045 0 0.06 0.045 0 0.08 0.045 0 0.1 0.045 0 0 0.05 0 0.02 0.05 0 0.04 0.05 0 0.06 0.05 0 0.08 0.05 0 0.1 0.05 0 0 0.055 0 0.02 0.055 0 0.04 0.055 0 0.06 0.055 0 0.08 0.055 0 0.1 0.055 0 0 0.06 0 0.02 0.06 0 0.04 0.06 0 0.06 0.06 0 0.08 0.06 0 0.1 0.06 0 0 0.065 0 0.02 0.065 0 0.04 0.065 0 0.06 0.065 0 0.08 0.065 0 0.1 0.065 0 0 0.07 0 0.02 0.07 0 0.04 0.07 0 0.06 0.07 0 0.08 0.07 0 0.1 0.07 0 0 0.075 0 0.02 0.075 0 0.04 0.075 0 0.06 0.075 0 0.08 0.075 0 0.1 0.075 0 0 0.08 0 0.02 0.08 0 0.04 0.08 0 0.06 0.08 0 0.08 0.08 0 0.1 0.08 0 0 0.085 0 0.02 0.085 0 0.04 0.085 0 0.06 0.085 0 0.08 0.085 0 0.1 0.085 0 0 0.09 0 0.02 0.09 0 0.04 0.09 0 0.06 0.09 0 0.08 0.09 0 0.1 0.09 0 0 0.095 0 0.02 0.095 0 0.04 0.095 0 0.06 0.095 0 0.08 0.095 0 0.1 0.095 0 0 0.1 0 0.02 0.1 0 0.04 0.1 0 0.06 0.1 0 0.08 0.1 0 0.1 0.1 0 0 0.105 0 0.02 0.105 0 0.04 0.105 0 0.06 0.105 0 0.08 0.105 0 0.1 0.105 0 0 0.11 0 0.02 0.11 0 0.04 0.11 0 0.06 0.11 0 0.08 0.11 0 0.1 0.11 0 0 0.115 0 0.02 0.115 0 0.04 0.115 0 0.06 0.115 0 0.08 0.115 0 0.1 0.115 0 0 0.12 0 0.02 0.12 0 0.04 0.12 0 0.06 0.12 0 0.08 0.12 0 0.1 0.12 0 0 0.125 0 0.02 0.125 0 0.04 0.125 0 0.06 0.125 0 0.08 0.125 0 0.1 0.125 0 0 0.13 0 0.02 0.13 0 0.04 0.13 0 0.06 0.13 0 0.08 0.13 0 0.1 0.13 0 0 0.135 0 0.02 0.135 0 0.04 0.135 0 0.06 0.135 0 0.08 0.135 0 0.1 0.135 0 0 0.14 0 0.02 0.14 0 0.04 0.14 0 0.06 0.14 0 0.08 0.14 0 0.1 0.14 0 0 0.145 0 0.02 0.145 0 0.04 0.145 0 0.06 0.145 0 0.08 0.145 0 0.1 0.145 0 0 0.15 0 0.02 0.15 0 0.04 0.15 0 0.06 0.15 0 0.08 0.15 0 0.1 0.15 0 0 0.155 0 0.02 0.155 0 0.04 0.155 0 0.06 0.155 0 0.08 0.155 0 0.1 0.155 0 0 0.16 0 0.02 0.16 0 0.04 0.16 0 0.06 0.16 0 0.08 0.16 0 0.1 0.16 0 0 0.165 0 0.02 0.165 0 0.04 0.165 0 0.06 0.165 0 0.08 0.165 0 0.1 0.165 0 0 0.17 0 0.02 0.17 0 0.04 0.17 0 0.06 0.17 0 0.08 0.17 0 0.1 0.17 0 0 0.175 0 0.02 0.175 0 0.04 0.175 0 0.06 0.175 0 0.08 0.175 0 0.1 0.175 0 0 0.18 0 0.02 0.18 0 0.04 0.18 0 0.06 0.18 0 0.08 0.18 0 0.1 0.18 0 0 0.185 0 0.02 0.185 0 0.04 0.185 0 0.06 0.185 0 0.08 0.185 0 0.1 0.185 0 0 0.19 0 0.02 0.19 0 0.04 0.19 0 0.06 0.19 0 0.08 0.19 0 0.1 0.19 0 0 0.195 0 0.02 0.195 0 0.04 0.195 0 0.06 0.195 0 0.08 0.195 0 0.1 0.195 0 0 0.2 0 0.02 0.2 0 0.04 0.2 0 0.06 0.2 0 0.08 0.2 0 0.1 0.2 0 0 0.205 0 0.02 0.205 0 0.04 0.205 0 0.06 0.205 0 0.08 0.205 0 0.1 0.205 0 0 0.21 0 0.02 0.21 0 0.04 0.21 0 0.06 0.21 0 0.08 0.21 0 0.1 0.21 0 0 0.215 0 0.02 0.215 0 0.04 0.215 0 0.06 0.215 0 0.08 0.215 0 0.1 0.215 0 0 0.22 0 0.02 0.22 0 0.04 0.22 0 0.06 0.22 0 0.08 0.22 0 0.1 0.22 0 0 0.225 0 0.02 0.225 0 0.04 0.225 0 0.06 0.225 0 0.08 0.225 0 0.1 0.225 0 0 0.23 0 0.02 0.23 0 0.04 0.23 0 0.06 0.23 0 0.08 0.23 0 0.1 0.23 0 0 0.235 0 0.02 0.235 0 0.04 0.235 0 0.06 0.235 0 0.08 0.235 0 0.1 0.235 0 0 0.24 0 0.02 0.24 0 0.04 0.24 0 0.06 0.24 0 0.08 0.24 0 0.1 0.24 0 0 0.245 0 0.02 0.245 0 0.04 0.245 0 0.06 0.245 0 0.08 0.245 0 0.1 0.245 0 0 0.25 0 0.02 0.25 0 0.04 0.25 0 0.06 0.25 0 0.08 0.25 0 0.1 0.25 0 0 0.255 0 0.02 0.255 0 0.04 0.255 0 0.06 0.255 0 0.08 0.255 0 0.1 0.255 0 0 0.26 0 0.02 0.26 0 0.04 0.26 0 0.06 0.26 0 0.08 0.26 0 0.1 0.26 0 0 0.265 0 0.02 0.265 0 0.04 0.265 0 0.06 0.265 0 0.08 0.265 0 0.1 0.265 0 0 0.27 0 0.02 0.27 0 0.04 0.27 0 0.06 0.27 0 0.08 0.27 0 0.1 0.27 0 0 0.275 0 0.02 0.275 0 0.04 0.275 0 0.06 0.275 0 0.08 0.275 0 0.1 0.275 0 0 0.28 0 0.02 0.28 0 0.04 0.28 0 0.06 0.28 0 0.08 0.28 0 0.1 0.28 0 0 0.285 0 0.02 0.285 0 0.04 0.285 0 0.06 0.285 0 0.08 0.285 0 0.1 0.285 0 0 0.29 0 0.02 0.29 0 0.04 0.29 0 0.06 0.29 0 0.08 0.29 0 0.1 0.29 0 0 0.295 0 0.02 0.295 0 0.04 0.295 0 0.06 0.295 0 0.08 0.295 0 0.1 0.295 0 0 0.3 0 0.02 0.3 0 0.04 0.3 0 0.06 0.3 0 0.08 0.3 0 0.1 0.3 0 0 0.305 0 0.02 0.305 0 0.04 0.305 0 0.06 0.305 0 0.08 0.305 0 0.1 0.305 0 0 0.31 0 0.02 0.31 0 0.04 0.31 0 0.06 0.31 0 0.08 0.31 0 0.1 0.31 0 0 0.315 0 0.02 0.315 0 0.04 0.315 0 0.06 0.315 0 0.08 0.315 0 0.1 0.315 0 0 0.32 0 0.02 0.32 0 0.04 0.32 0 0.06 0.32 0 0.08 0.32 0 0.1 0.32 0 0 0.325 0 0.02 0.325 0 0.04 0.325 0 0.06 0.325 0 0.08 0.325 0 0.1 0.325 0 0 0.33 0 0.02 0.33 0 0.04 0.33 0 0.06 0.33 0 0.08 0.33 0 0.1 0.33 0 0 0.335 0 0.02 0.335 0 0.04 0.335 0 0.06 0.335 0 0.08 0.335 0 0.1 0.335 0 0 0.34 0 0.02 0.34 0 0.04 0.34 0 0.06 0.34 0 0.08 0.34 0 0.1 0.34 0 0 0.345 0 0.02 0.345 0 0.04 0.345 0 0.06 0.345 0 0.08 0.345 0 0.1 0.345 0 0 0.35 0 0.02 0.35 0 0.04 0.35 0 0.06 0.35 0 0.08 0.35 0 0.1 0.35 0 0 0.355 0 0.02 0.355 0 0.04 0.355 0 0.06 0.355 0 0.08 0.355 0 0.1 0.355 0 0 0.36 0 0.02 0.36 0 0.04 0.36 0 0.06 0.36 0 0.08 0.36 0 0.1 0.36 0 0 0.365 0 0.02 0.365 0 0.04 0.365 0 0.06 0.365 0 0.08 0.365 0 0.1 0.365 0 0 0.37 0 0.02 0.37 0 0.04 0.37 0 0.06 0.37 0 0.08 0.37 0 0.1 0.37 0 0 0.375 0 0.02 0.375 0 0.04 0.375 0 0.06 0.375 0 0.08 0.375 0 0.1 0.375 0 0 0.38 0 0.02 0.38 0 0.04 0.38 0 0.06 0.38 0 0.08 0.38 0 0.1 0.38 0 0 0.385 0 0.02 0.385 0 0.04 0.385 0 0.06 0.385 0 0.08 0.385 0 0.1 0.385 0 0 0.39 0 0.02 0.39 0 0.04 0.39 0 0.06 0.39 0 0.08 0.39 0 0.1 0.39 0 0 0.395 0 0.02 0.395 0 0.04 0.395 0 0.06 0.395 0 0.08 0.395 0 0.1 0.395 0 0 0.4 0 0.02 0.4 0 0.04 0.4 0 0.06 0.4 0 0.08 0.4 0 0.1 0.4 0 0 0.405 0 0.02 0.405 0 0.04 0.405 0 0.06 0.405 0 0.08 0.405 0 0.1 0.405 0 0 0.41 0 0.02 0.41 0 0.04 0.41 0 0.06 0.41 0 0.08 0.41 0 0.1 0.41 0 0 0.415 0 0.02 0.415 0 0.04 0.415 0 0.06 0.415 0 0.08 0.415 0 0.1 0.415 0 0 0.42 0 0.02 0.42 0 0.04 0.42 0 0.06 0.42 0 0.08 0.42 0 0.1 0.42 0 0 0.425 0 0.02 0.425 0 0.04 0.425 0 0.06 0.425 0 0.08 0.425 0 0.1 0.425 0 0 0.43 0 0.02 0.43 0 0.04 0.43 0 0.06 0.43 0 0.08 0.43 0 0.1 0.43 0 0 0.435002 0 0.02 0.435002 0 0.04 0.435002 0 0.06 0.435002 0 0.08 0.435002 0 0.1 0.435002 0 0 0.440009 0 0.02 0.440009 0 0.04 0.440009 0 0.06 0.440009 0 0.08 0.440009 0 0.1 0.440009 0 0 0.445043 0 0.02 0.445043 0 0.04 0.445043 0 0.06 0.445043 0 0.08 0.445043 0 0.1 0.445043 0 0 0.45016 0 0.02 0.45016 0 0.04 0.45016 0 0.06 0.45016 0 0.08 0.45016 0 0.1 0.45016 0 0 0.455468 0 0.02 0.455468 0 0.04 0.455468 0 0.06 0.455468 0 0.08 0.455468 0 0.1 0.455468 0 0 0.461116 0 0.02 0.461116 0 0.04 0.461116 0 0.06 0.461116 0 0.08 0.461116 0 0.1 0.461116 0 0 0.467263 0 0.02 0.467263 0 0.04 0.467263 0 0.06 0.467263 0 0.08 0.467263 0 0.1 0.467263 0 0 0.474085 0 0.02 0.474085 0 0.04 0.474085 0 0.06 0.474085 0 0.08 0.474085 0 0.1 0.474085 0 0 0.481797 0 0.02 0.481797 0 0.04 0.481797 0 0.06 0.481797 0 0.08 0.481797 0 0.1 0.481797 0 0 0.490693 0 0.02 0.490693 0 0.04 0.490693 0 0.06 0.490693 0 0.08 0.490693 0 0.1 0.490693 0 0 0.501153 0 0.02 0.501153 0 0.04 0.501153 0 0.06 0.501153 0 0.08 0.501153 0 0.1 0.501153 0 0 0.513312 0 0.02 0.513312 0 0.04 0.513312 0 0.06 0.513312 0 0.08 0.513312 0 0.1 0.513312 0 0 0.525768 0 0.02 0.525768 0 0.04 0.525768 0 0.06 0.525768 0 0.08 0.525768 0 0.1 0.525768 0 0 0.537777 0 0.02 0.537777 0 0.04 0.537777 0 0.06 0.537777 0 0.08 0.537777 0 0.1 0.537777 0 0 0.540412 0 0.02 0.540412 0 0.04 0.540412 0 0.06 0.540412 0 0.08 0.540412 0 0.1 0.540412 0 0 0.54297 0 0.02 0.54297 0 0.04 0.54297 0 0.06 0.54297 0 0.08 0.54297 0 0.1 0.54297 0 0 0.545482 0 0.02 0.545482 0 0.04 0.545482 0 0.06 0.545482 0 0.08 0.545482 0 0.1 0.545482 0 0 0.547964 0 0.02 0.547964 0 0.04 0.547964 0 0.06 0.547964 0 0.08 0.547964 0 0.1 0.547964 0 0 0.550426 0 0.02 0.550426 0 0.04 0.550426 0 0.06 0.550426 0 0.08 0.550426 0 0.1 0.550426 0 0 0.552875 0 0.02 0.552875 0 0.04 0.552875 0 0.06 0.552875 0 0.08 0.552875 0 0.1 0.552875 0 0 0.555322 0 0.02 0.555322 0 0.04 0.555322 0 0.06 0.555322 0 0.08 0.555322 0 0.1 0.555322 0 0 0.557771 0 0.02 0.557771 0 0.04 0.557771 0 0.06 0.557771 0 0.08 0.557771 0 0.1 0.557771 0 0 0.56025 0 0.02 0.56025 0 0.04 0.56025 0 0.06 0.56025 0 0.08 0.56025 0 0.1 0.56025 0 0 0.56277 0 0.02 0.56277 0 0.04 0.56277 0 0.06 0.56277 0 0.08 0.56277 0 0.1 0.56277 0 0 0.565395 0 0.02 0.565395 0 0.04 0.565395 0 0.06 0.565395 0 0.08 0.565395 0 0.1 0.565395 0 0 0.568115 0 0.02 0.568115 0 0.04 0.568115 0 0.06 0.568115 0 0.08 0.568115 0 0.1 0.568115 0 0 0.571036 0 0.02 0.571036 0 0.04 0.571036 0 0.06 0.571036 0 0.08 0.571036 0 0.1 0.571036 0 0 0.574165 0 0.02 0.574165 0 0.04 0.574165 0 0.06 0.574165 0 0.08 0.574165 0 0.1 0.574165 0 0 0.577644 0 0.02 0.577644 0 0.04 0.577644 0 0.06 0.577644 0 0.08 0.577644 0 0.1 0.577644 0 0 0.581491 0 0.02 0.581491 0 0.04 0.581491 0 0.06 0.581491 0 0.08 0.581491 0 0.1 0.581491 0 0 0.585731 0 0.02 0.585731 0 0.04 0.585731 0 0.06 0.585731 0 0.08 0.585731 0 0.1 0.585731 0 0 0.590304 0 0.02 0.590304 0 0.04 0.590304 0 0.06 0.590304 0 0.08 0.590304 0 0.1 0.590304 0 0 0.595107 0 0.02 0.595107 0 0.04 0.595107 0 0.06 0.595107 0 0.08 0.595107 0 0.1 0.595107 0 0 0.600033 0 0.02 0.600033 0 0.04 0.600033 0 0.06 0.600033 0 0.08 0.600033 0 0.1 0.600033 0 0 0.605009 0 0.02 0.605009 0 0.04 0.605009 0 0.06 0.605009 0 0.08 0.605009 0 0.1 0.605009 0 0 0.610003 0 0.02 0.610003 0 0.04 0.610003 0 0.06 0.610003 0 0.08 0.610003 0 0.1 0.610003 0 0 0.615001 0 0.02 0.615001 0 0.04 0.615001 0 0.06 0.615001 0 0.08 0.615001 0 0.1 0.615001 0 0 0.62 0 0.02 0.62 0 0.04 0.62 0 0.06 0.62 0 0.08 0.62 0 0.1 0.62 0 0 0.625 0 0.02 0.625 0 0.04 0.625 0 0.06 0.625 0 0.08 0.625 0 0.1 0.625 0 0 0.63 0 0.02 0.63 0 0.04 0.63 0 0.06 0.63 0 0.08 0.63 0 0.1 0.63 0 0 0.635 0 0.02 0.635 0 0.04 0.635 0 0.06 0.635 0 0.08 0.635 0 0.1 0.635 0 0 0.64 0 
[...]
			<PointData Scalars="VitesseX">
				<DataArray Name="VitesseX" type="Float32" format="ascii">
 0 5.4507e-16 -1.10071e-15 -1.28692e-15 -3.5656e-15 0 0 4.62918e-16 -9.01891e-16 -1.62551e-15 -3.51485e-15 0 0 4.05534e-16 -6.30105e-16 -1.77332e-15 -3.94268e-15 0 0 -4.32016e-16 4.08068e-16 -1.94275e-15 -4.52375e-15 0 0 -8.65905e-16 1.06507e-16 -9.25958e-16 -4.646e-15 0 0 9.39726e-17 -1.40135e-15 9.37203e-17 -5.01497e-15 0 0 4.19961e-16 -8.68722e-16 -1.66261e-15 -4.41651e-15 0 0 -8.44195e-17 -2.49647e-16 -2.41748e-15 -2.9157e-15 0 0 -3.4878e-16 -4.9147e-16 -1.8192e-15 -3.28621e-15 0 0 -7.15877e-16 -4.44999e-16 -1.42439e-15 -5.37464e-15 0 0 -1.29179e-15 -4.39914e-17 -1.77402e-15 -7.33431e-15 0 0 4.51422e-16 -1.52763e-15 -1.88121e-15 -8.02091e-15 0 0 -1.94078e-16 -7.8306e-16 -2.47833e-15 -6.18547e-15 0 0 -1.13441e-15 -7.93249e-16 -1.90103e-15 -6.42413e-15 0 0 -7.50166e-16 -2.91336e-17 -4.45398e-15 -5.86046e-15 0 0 -1.23612e-15 -5.78781e-16 -4.59597e-15 -5.13847e-15 0 0 -2.69742e-16 -3.91421e-15 -1.59482e-15 -6.77355e-15 0 0 -3.63619e-15 2.25203e-16 -4.70986e-15 -5.89724e-15 0 0 -8.67758e-16 -2.46932e-15 -4.7501e-15 -5.12614e-15 0 0 2.21976e-15 -4.56999e-15 -4.55433e-15 -3.57928e-15 0 0 -1.08005e-16 -1.02497e-15 -2.3832e-15 -4.46882e-15 0 0 -6.68554e-16 -1.92658e-16 -6.57146e-16 -4.52495e-15 0 0 1.01621e-15 -5.68737e-15 3.14984e-15 -3.43844e-15 0 0 1.19815e-15 -7.57199e-15 6.00977e-15 -4.0312e-15 0 0 -1.37376e-15 -4.06487e-16 -1.24205e-15 -1.41934e-15 0 0 -1.28717e-15 2.92185e-15 -6.95398e-15 1.42839e-15 0 0 -3.27413e-15 2.17533e-16 -2.63332e-15 -4.2231e-15 0 0 -4.84737e-15 -3.7921e-15 3.3698e-15 -8.5875e-15 0 0 -5.73579e-15 -7.91714e-15 7.07176e-15 -4.81378e-15 0 0 -9.24839e-15 -6.92735e-15 3.98927e-15 2.79206e-15 0 0 -9.38938e-15 -4.65703e-15 5.90506e-16 5.74937e-15 0 0 -9.65105e-15 -5.7821e-15 -8.59759e-16 2.92147e-15 0 0 -1.03887e-14 -4.18258e-15 -3.48971e-15 -5.89626e-15 0 0 -4.81599e-15 -1.00033e-14 6.46264e-16 -1.62331e-14 0 0 -3.2049e-15 -7.9415e-15 -2.79913e-15 -1.83199e-14 0 0 -5.44437e-15 -4.62448e-15 -9.53897e-15 -1.10152e-14 0 0 -6.74811e-15 -1.09837e-14 -8.97755e-15 -2.28795e-15 0 0 -3.28695e-15 -2.21775e-14 4.30366e-15 -7.43943e-15 0 0 -7.66794e-15 -1.92552e-14 1.306e-15 -6.33883e-15 0 0 -1.65939e-14 -8.82943e-15 -9.50153e-15 -6.78347e-15 0 0 -1.88333e-14 -8.14912e-15 -8.68451e-15 -1.54183e-14 0 0 -2.10013e-14 -7.34244e-15 -7.90891e-15 -2.09544e-14 0 0 -1.93462e-14 -1.2982e-14 -1.00377e-14 -1.8435e-14 0 0 -2.09513e-14 -9.85192e-15 -1.42733e-14 -1.75807e-14 0 0 -2.3289e-14 -5.56729e-15 -4.53365e-15 -3.046e-14 0 0 -1.59182e-14 -9.18622e-15 -6.23088e-15 -2.27836e-14 0 0 -1.15541e-14 -1.03137e-14 -1.30595e-14 -4.04128e-15 0 0 -1.5525e-14 -7.02573e-15 -9.02478e-15 -1.00896e-15 0 0 -8.85427e-15 -1.29611e-14 -5.93409e-15 -5.31948e-17 0 0 -7.93099e-15 -1.64658e-14 -5.46414e-15 1.55654e-15 0 0 -1.5943e-14 -5.94392e-15 -1.19273e-14 2.0612e-15 0 0 -9.14589e-15 -6.50286e-15 -1.41135e-14 -5.33573e-15 0 0 8.46171e-16 -1.69361e-14 -7.9906e-15 -1.65171e-14 0 0 -5.48255e-15 -1.35139e-14 -1.40617e-14 -1.08249e-14 0 0 -9.34979e-15 -1.58521e-14 -5.78961e-15 -7.04738e-15 0 0 -9.73311e-15 -2.20706e-14 6.01735e-15 1.42383e-15 0 0 -1.11452e-14 -2.01746e-14 1.35872e-15 1.03048e-14 0 0 -1.00068e-14 -2.37053e-14 8.46314e-15 -1.2845e-15 0 0 -1.40802e-14 -2.40001e-14 9.14516e-15 -6.30913e-15 0 0 -1.60783e-14 -1.80141e-14 7.81706e-16 -8.85608e-16 0 0 -1.46445e-14 -1.53791e-14 -3.89027e-15 3.33791e-15 0 0 -1.20609e-14 -2.38415e-14 5.44198e-15 -1.21379e-14 0 0 -1.38588e-14 -2.8537e-14 3.84241e-15 -1.15397e-14 0 0 -1.7562e-14 -3.55523e-14 -4.27062e-15 1.00169e-14 0 0 -1.74949e-14 -3.57132e-14 -1.41589e-14 -4.31776e-15 0 0 -1.84052e-14 -3.32336e-14 -1.59702e-14 -3.53674e-14 0 0 -2.10222e-14 -3.95306e-14 -1.1713e-14 -3.09457e-14 0 0 -1.79878e-14 -4.69153e-14 -1.61079e-14 -4.33829e-15 0 0 -2.24657e-14 -4.94463e-14 -2.35204e-14 1.4935e-14 0 0 -2.5846e-14 -4.24771e-14 -3.6689e-14 2.17762e-14 0 0 -1.83136e-14 -5.51468e-14 -2.50985e-14 2.08197e-14 0 0 -2.16929e-14 -5.11086e-14 -2.05299e-14 2.67519e-14 0 0 -2.45748e-14 -2.67711e-14 -3.47513e-14 2.24174e-14 0 0 -2.05345e-14 -3.0398e-14 -3.77819e-14 6.43676e-15 0 0 -1.49073e-14 -4.77948e-14 -2.49886e-14 -3.20221e-15 0 0 -1.09937e-14 -6.3331e-14 -1.47785e-14 8.92381e-15 0 0 -1.76864e-14 -5.21994e-14 -2.89331e-14 2.46379e-14 0 0 -2.36296e-14 -3.08164e-14 -3.39833e-14 6.55164e-15 0 0 -1.39445e-14 -3.33413e-14 -2.48297e-14 -2.7994e-15 0 0 -6.42319e-15 -3.64583e-14 -2.30746e-14 2.78585e-15 0 0 -5.52897e-15 -3.29663e-14 -2.02036e-14 -3.69731e-15 0 0 8.65324e-15 -3.18881e-14 -1.26191e-14 -5.59508e-15 0 0 1.3877e-14 -2.38715e-14 -4.0442e-15 -1.68517e-14 0 0 1.01196e-14 -1.12149e-14 -5.44142e-15 -2.34062e-14 0 0 8.96672e-15 -4.01303e-15 -6.46985e-15 -1.65539e-14 0 0 6.53552e-15 -8.30663e-15 -3.22167e-17 -8.92968e-15 0 0 1.53117e-14 -1.99175e-14 9.23653e-15 -1.0182e-14 0 0 1.62322e-14 -2.00746e-14 1.10448e-14 -1.51704e-14 0 0 -2.5569e-15 -2.49448e-15 6.72112e-15 -1.39974e-14 0 0 -1.23625e-14 4.5164e-15 -4.91029e-15 -3.59042e-15 0 0 -4.96381e-15 -2.38379e-15 -1.27831e-14 1.28643e-14 0 0 -2.48529e-15 -6.10527e-15 -3.23329e-15 1.69816e-14 0 0 2.37845e-15 -8.09228e-15 -1.77071e-15 1.03217e-14 0 0 -1.46168e-14 -5.33459e-15 4.98855e-15 3.35634e-15 0 0 -3.39658e-15 3.3667e-15 1.03148e-14 3.74934e-16 0 0 -3.72335e-15 5.35742e-15 1.18697e-14 -1.89171e-15 0 0 -8.32912e-15 -6.4149e-15 6.09047e-15 -9.50931e-15 0 0 -1.61819e-15 -5.43265e-15 -8.05278e-16 -9.64614e-15 0 0 5.91696e-15 1.32182e-14 2.63076e-14 9.35788e-15 0 0 7.35306e-14 1.08979e-13 1.18754e-13 7.70858e-14 0 0 1.6473e-13 2.8461e-13 2.72093e-13 1.65443e-13 0 0 5.8134e-13 9.44438e-13 9.78826e-13 5.5781e-13 0 0 6.47112e-13 1.01079e-12 1.03453e-12 6.06872e-13 0 0 6.48486e-13 1.04623e-12 1.02529e-12 5.94392e-13 0 0 5.76722e-13 9.78639e-13 9.41659e-13 5.015e-13 0 0 4.60689e-13 8.01948e-13 7.5495e-13 3.83497e-13 0 0 3.14864e-13 5.28652e-13 4.79798e-13 3.25906e-13 0 0 1.93278e-13 2.14853e-13 2.53759e-13 1.52399e-13 0 0 1.56052e-13 1.39856e-13 1.3699e-13 3.90053e-14 0 0 2.1691e-13 3.30473e-13 1.43503e-13 1.55835e-13 0 0 3.82577e-13 6.83509e-13 3.13314e-13 4.09725e-13 0 0 6.69566e-13 1.05762e-12 8.04266e-13 5.96155e-13 0 0 7.97398e-13 1.15139e-12 1.13781e-12 6.09725e-13 0 0 8.94031e-13 1.36689e-12 1.34039e-12 8.25463e-13 0 0 8.31716e-13 1.3068e-12 1.2847e-12 8.19846e-13 0 0 6.96584e-13 1.11268e-12 1.08075e-12 7.06523e-13 0 0 4.76706e-13 7.93405e-13 7.90598e-13 5.00205e-13 0 0 2.49968e-13 4.0548e-13 4.84289e-13 2.41804e-13 0 0 1.04457e-13 1.4919e-13 1.83586e-13 9.19703e-14 0 0 2.15737e-14 4.42383e-14 3.69685e-14 1.22079e-14 0 0 3.8915e-15 1.01317e-14 4.37044e-15 -1.07199e-14 0 0 -8.14719e-17 1.97749e-14 -3.01533e-14 -7.74627e-15 0 0 -8.99016e-15 1.6515e-14 -2.27997e-14 -8.82572e-15 0 0 8.73509e-16 -4.10041e-15 3.89152e-15 -2.16395e-14 0 0 1.25666e-15 -1.09814e-14 9.30755e-15 -2.2132e-14 0 0 -4.29803e-15 6.28651e-15 -2.09124e-14 -1.04392e-15 0 0 -1.17628e-14 1.81488e-14 -2.42757e-14 -2.79029e-17 0 0 -1.67068e-14 2.58275e-14 -3.25488e-14 1.52992e-14 0 0 3.90175e-15 -2.14355e-15 -2.50095e-14 -3.40327e-15 0 0 3.20869e-15 -4.82748e-15 -4.26549e-14 -3.58015e-14 0 0 -7.11115e-15 -3.61052e-15 -4.17057e-14 -2.42775e-14 0 0 -3.51595e-15 -4.02683e-14 -2.11284e-14 -1.25885e-14 0 0 -1.88372e-14 -2.92107e-14 -6.12424e-14 -3.54382e-15 0 0 -1.81887e-14 -4.3843e-14 -5.05019e-14 -1.64105e-14 0 0 -2.9929e-14 -5.51949e-14 -4.47166e-14 -2.76931e-14 0 0 -3.65072e-14 -5.35225e-14 -8.0487e-14 -1.03755e-14 0 0 -3.47612e-14 -9.446e-14 -6.90825e-14 -4.0378e-15 0 0 -5.98318e-14 -1.17636e-13 -4.9438e-14 1.02132e-14 0 0 -5.28022e-14 -1.27894e-13 -4.62615e-14 -1.31338e-14 0 0 -4.68391e-14 -1.18226e-13 -6.86022e-14 -4.70903e-14 0 0 -4.61106e-14 -9.90788e-14 -1.26625e-13 -2.33638e-14 0 0 -5.01274e-14 -7.26956e-14 -1.36905e-13 -5.15063e-14 0 0 -6.04141e-14 -6.80982e-14 -8.62032e-14 -1.53007e-13 0 0 -5.64725e-14 -1.01402e-13 -7.52272e-14 -1.31867e-13 0 0 -4.94138e-14 -1.12891e-13 -8.51767e-14 -9.0233e-14 0 0 -5.03849e-14 -1.02135e-13 -6.88189e-14 -9.52879e-14 0 0 -4.58452e-14 -9.94691e-14 -4.58391e-14 -9.0913e-14 0 0 -3.54508e-14 -9.60271e-14 -4.66381e-14 -8.88327e-14 0 0 -4.32095e-14 -7.03564e-14 -7.92044e-14 -9.0516e-14 0 0 -4.32522e-14 -7.47601e-14 -9.22363e-14 -1.00097e-13 0 0 -4.90073e-14 -8.76205e-14 -9.31325e-14 -1.08579e-13 0 0 -6.48665e-14 -9.29548e-14 -8.15353e-14 -1.35932e-13 0 0 -5.31067e-14 -1.16357e-13 -8.90341e-14 -9.56156e-14 0 0 -4.69926e-14 -1.33766e-13 -1.00401e-13 -5.1761e-14 0 0 -6.76957e-14 -1.31677e-13 -7.50141e-14 -6.22883e-14 0 0 -7.94032e-14 -1.15907e-13 -6.62468e-14 -5.77567e-14 0 0 -5.47543e-14 -1.31577e-13 -7.27856e-14 -2.2288e-14 0 0 -4.22786e-14 -1.2595e-13 -1.17772e-13 2.60316e-14 0 0 -4.0063e-14 -9.63437e-14 -1.34456e-13 -2.49707e-14 0 0 -2.27262e-14 -1.02169e-13 -1.5015e-13 -6.18596e-14 0 0 -2.17159e-14 -1.36536e-13 -1.55556e-13 -5.08528e-14 0 0 -4.40526e-14 -1.43717e-13 -1.29021e-13 -9.38014e-14 0 0 -5.77065e-14 -1.19254e-13 -1.36222e-13 -1.5932e-13 0 0 -5.7802e-14 -1.03953e-13 -1.41996e-13 -1.83139e-13 0 0 -7.16565e-14 -1.05358e-13 -1.2937e-13 -1.70671e-13 0 0 -7.81122e-14 -1.3478e-13 -1.09475e-13 -1.42425e-13 0 0 -7.42069e-14 -1.54886e-13 -8.97235e-14 -8.5837e-14 0 0 -6.65415e-14 -1.55892e-13 -8.2652e-14 -5.69817e-14 0 0 -5.57769e-14 -1.54016e-13 -9.19848e-14 -7.55516e-14 0 0 -5.35001e-14 -1.38107e-13 -1.08264e-13 -9.56239e-14 0 0 -6.77723e-14 -1.03761e-13 -1.3023e-13 -1.1146e-13 0 0 -6.58456e-14 -9.83119e-14 -1.2805e-13 -1.24286e-13 0 0 -5.48373e-14 -1.09687e-13 -1.33593e-13 -1.13661e-13 0 0 -5.3162e-14 -1.17416e-13 -1.58147e-13 -9.97439e-14 0 0 -5.96395e-14 -1.25348e-13 -1.47431e-13 -1.05817e-13 0 0 -7.557e-14 -1.40774e-13 -1.16353e-13 -1.15071e-13 0 0 -7.26243e-14 -1.44808e-13 -1.28558e-13 -8.18498e-14 0 0 -7.68707e-14 -1.2731e-13 -1.36995e-13 -5.94573e-14 0 0 -8.97776e-14 -1.10628e-13 -1.1954e-13 -1.01184e-13 0 0 -7.99002e-14 -1.31411e-13 -8.85442e-14 -1.11538e-13 0 0 -6.70303e-14 -1.48849e-13 -9.0991e-14 -6.89042e-14 0 0 -7.30117e-14 -1.11467e-13 -1.25483e-13 -5.20895e-14 0 0 -1.03458e-13 -8.11846e-14 -1.16259e-13 -6.17877e-14 0 0 -9.56169e-14 -1.0769e-13 -7.60637e-14 -5.37411e-14 0 0 -7.73089e-14 -1.44092e-13 -5.64911e-14 -1.74087e-14 0 0 -7.11646e-14 -1.19565e-13 -8.14024e-14 -2.71472e-14 0 0 -6.11052e-14 -8.90466e-14 -1.02658e-13 -2.16237e-14 0 0 -5.00931e-14 -9.40676e-14 -1.16517e-13 -6.49162e-15 0 0 -5.7009e-14 -1.02106e-13 -1.40962e-13 -1.52232e-14 0 0 -7.47236e-14 -1.06845e-13 -1.24094e-13 -4.89755e-14 0 0 -6.9504e-14 -9.81936e-14 -1.05287e-13 -5.92519e-14 0 0 -5.62912e-14 -9.99852e-14 -7.80941e-14 -5.43548e-14 0 0 -5.30914e-14 -8.40321e-14 -5.14548e-14 -9.01345e-14 0 0 -6.1519e-14 -3.60711e-14 -5.59864e-14 -1.09576e-13 0 0 -5.57119e-14 -1.29917e-14 -7.75533e-14 -7.6039e-14 0 0 -3.84478e-14 -2.14527e-14 -8.99377e-14 -3.78984e-14 0 0 -2.08808e-14 -5.2611e-14 -5.12595e-14 -5.80321e-14 0 0 -3.8372e-14 -3.49172e-14 -4.77854e-14 -6.15778e-14 0 0 -5.33193e-14 -2.12544e-14 -4.91297e-14 -5.39832e-14 0 0 -5.10047e-14 -6.22794e-14 -1.2343e-14 -5.39339e-14 0 0 -5.67063e-14 -8.24556e-14 4.69304e-15 -4.76944e-14 0
				</DataArray>
				<DataArray Name="VitesseY" type="Float32" format="ascii">