<?xml version="1.0"?>
<VTKFile type="PolyData">
	<PolyData>
		<Piece NumberOfPoints="1206" NumberOfPolys="1000">
			<Points>
				<DataArray type="Float32" NumberOfComponents="3" format="ascii">
 0 0 0 0.02 0 0 0.04 0 0 0.06 0 0 0.08 0 0 0.1 0 0 0 0.005 0 0.02 0.005 0 0.04 0.005 0 0.06 0.005 0 0.08 0.005 0 0.1 0.005 0 0 0.01 0 0.02 0.01 0 0.04 0.01 0 0.06 0.01 0 0.08 0.01 0 0.1 0.01 0 0 0.015 0 0.02 0.015 0 0.04 0.015 0 0.06 0.015 0 0.08 0.015 0 0.1 0.015 0 0 0.02 0 0.02 0.02 0 0.04 0.02 0 0.06 0.02 0 0.08 0.02 0 0.1 0.02 0 0 0.025 0 0.02 0.025 0 0.04 0.025 0 0.06 0.025 0 0.08 0.025 0 0.1 0.025 0 0 0.03 0 0.02 0.03 0 0.04 0.03 0 0.06 0.03 0 0.08 0.03 0 0.1 0.03 0 0 0.035 0 0.02 0.035 0 0.04 0.035 0 0.06 0.035 0 0.08 0.035 0 0.1 0.035 0 0 0.04 0 0.02 0.04 0 0.04 0.04 0 0.06 0.04 0 0.08 0.04 0 0.1 0.04 0 0 0.045 0 0.02 0.045 0 0.04 0.045 0 0.06 0.045 0 0.08 0.045 0 0.1 0.045 0 0 0.05 0 0.02 0.05 0 0.04 0.05 0 0.06 0.05 0 0.08 0.05 0 0.1 0.05 0 0 0.055 0 0.02 0.055 0 0.04 0.055 0 0.06 0.055 0 0.08 0.055 0 0.1 0.055 0 0 0.06 0 0.02 0.06 0 0.04 0.06 0 0.06 0.06 0 0.08 0.06 0 0.1 0.06 0 0 0.065 0 0.02 0.065 0 0.04 0.065 0 0.06 0.065 0 0.08 0.065 0 0.1 0.065 0 0 0.07 0 0.02 0.07 0 0.04 0.07 0 0.06 0.07 0 0.08 0.07 0 0.1 0.07 0 0 0.075 0 0.02 0.075 0 0.04 0.075 0 0.06 0.075 0 0.08 0.075 0 0.1 0.075 0 0 0.08 0 0.02 0.08 0 0.04 0.08 0 0.06 0.08 0 0.08 0.08 0 0.1 0.08 0 0 0.085 0 0.02 0.085 0 0.04 0.085 0 0.06 0.085 0 0.08 0.085 0 0.1 0.085 0 0 0.09 0 0.02 0.09 0 0.04 0.09 0 0.06 0.09 0 0.08 0.09 0 0.1 0.09 0 0 0.095 0 0.02 0.095 0 0.04 0.095 0 0.06 0.095 0 0.08 0.095 0 0.1 0.095 0 0 0.1 0 0.02 0.1 0 0.04 0.1 0 0.06 0.1 0 0.08 0.1 0 0.1 0.1 0 0 0.105 0 0.02 0.105 0 0.04 0.105 0 0.06 0.105 0 0.08 0.105 0 0.1 0.105 0 0 0.11 0 0.02 0.11 0 0.04 0.11 0 0.06 0.11 0 0.08 0.11 0 0.1 0.11 0 0 0.115 0 0.02 0.115 0 0.04 0.115 0 0.06 0.115 0 0.08 0.115 0 0.1 0.115 0 0 0.12 0 0.02 0.12 0 0.04 0.12 0 0.06 0.12 0 0.08 0.12 0 0.1 0.12 0 0 0.125 0 0.02 0.125 0 0.04 0.125 0 0.06 0.125 0 0.08 0.125 0 0.1 0.125 0 0 0.13 0 0.02 0.13 0 0.04 0.13 0 0.06 0.13 0 0.08 0.13 0 0.1 0.13 0 0 0.135 0 0.02 0.135 0 0.04 0.135 0 0.06 0.135 0 0.08 0.135 0 0.1 0.135 0 0 0.14 0 0.02 0.14 0 0.04 0.14 0 0.06 0.14 0 0.08 0.14 0 0.1 0.14 0 0 0.145 0 0.02 0.145 0 0.04 0.145 0 0.06 0.145 0 0.08 0.145 0 0.1 0.145 0 0 0.15 0 0.02 0.15 0 0.04 0.15 0 0.06 0.15 0 0.08 0.15 0 0.1 0.15 0 0 0.155 0 0.02 0.155 0 0.04 0.155 0 0.06 0.155 0 0.08 0.155 0 0.1 0.155 0 0 0.16 0 0.02 0.16 0 0.04 0.16 0 0.06 0.16 0 0.08 0.16 0 0.1 0.16 0 0 0.165 0 0.02 0.165 0 0.04 0.165 0 0.06 0.165 0 0.08 0.165 0 0.1 0.165 0 0 0.17 0 0.02 0.17 0 0.04 0.17 0 0.06 0.17 0 0.08 0.17 0 0.1 0.17 0 0 0.175 0 0.02 0.175 0 0.04 0.175 0 0.06 0.175 0 0.08 0.175 0 0.1 0.175 0 0 0.18 0 0.02 0.18 0 0.04 0.18 0 0.06 0.18 0 0.08 0.18 0 0.1 0.18 0 0 0.185 0 0.02 0.185 0 0.04 0.185 0 0.06 0.185 0 0.08 0.185 0 0.1 0.185 0 0 0.19 0 0.02 0.19 0 0.04 0.19 0 0.06 0.19 0 0.08 0.19 0 0.1 0.19 0 0 0.195 0 0.02 0.195 0 0.04 0.195 0 0.06 0.195 0 0.08 0.195 0 0.1 0.195 0 0 0.2 0 0.02 0.2 0 0.04 0.2 0 0.06 0.2 0 0.08 0.2 0 0.1 0.2 0 0 0.205 0 0.02 0.205 0 0.04 0.205 0 0.06 0.205 0 0.08 0.205 0 0.1 0.205 0 0 0.21 0 0.02 0.21 0 0.04 0.21 0 0.06 0.21 0 0.08 0.21 0 0.1 0.21 0 0 0.215 0 0.02 0.215 0 0.04 0.215 0 0.06 0.215 0 0.08 0.215 0 0.1 0.215 0 0 0.22 0 0.02 0.22 0 0.04 0.22 0 0.06 0.22 0 0.08 0.22 0 0.1 0.22 0 0 0.225 0 0.02 0.225 0 0.04 0.225 0 0.06 0.225 0 0.08 0.225 0 0.1 0.225 0 0 0.23 0 0.02 0.23 0 0.04 0.23 0 0.06 0.23 0 0.08 0.23 0 0.1 0.23 0 0 0.235 0 0.02 0.235 0 0.04 0.235 0 0.06 0.235 0 0.08 0.235 0 0.1 0.235 0 0 0.24 0 0.02 0.24 0 0.04 0.24 0 0.06 0.24 0 0.08 0.24 0 0.1 0.24 0 0 0.245 0 0.02 0.245 0 0.04 0.245 0 0.06 0.245 0 0.08 0.245 0 0.1 0.245 0 0 0.25 0 0.02 0.25 0 0.04 0.25 0 0.06 0.25 0 0.08 0.25 0 0.1 0.25 0 0 0.255 0 0.02 0.255 0 0.04 0.255 0 0.06 0.255 0 0.08 0.255 0 0.1 0.255 0 0 0.26 0 0.02 0.26 0 0.04 0.26 0 0.06 0.26 0 0.08 0.26 0 0.1 0.26 0 0 0.265 0 0.02 0.265 0 0.04 0.265 0 0.06 0.265 0 0.08 0.265 0 0.1 0.265 0 0 0.27 0 0.02 0.27 0 0.04 0.27 0 0.06 0.27 0 0.08 0.27 0 0.1 0.27 0 0 0.275 0 0.02 0.275 0 0.04 0.275 0 0.06 0.275 0 0.08 0.275 0 0.1 0.275 0 0 0.28 0 0.02 0.28 0 0.04 0.28 0 0.06 0.28 0 0.08 0.28 0 0.1 0.28 0 0 0.285 0 0.02 0.285 0 0.04 0.285 0 0.06 0.285 0 0.08 0.285 0 0.1 0.285 0 0 0.29 0 0.02 0.29 0 0.04 0.29 0 0.06 0.29 0 0.08 0.29 0 0.1 0.29 0 0 0.295 0 0.02 0.295 0 0.04 0.295 0 0.06 0.295 0 0.08 0.295 0 0.1 0.295 0 0 0.3 0 0.02 0.3 0 0.04 0.3 0 0.06 0.3 0 0.08 0.3 0 0.1 0.3 0 0 0.305 0 0.02 0.305 0 0.04 0.305 0 0.06 0.305 0 0.08 0.305 0 0.1 0.305 0 0 0.31 0 0.02 0.31 0 0.04 0.31 0 0.06 0.31 0 0.08 0.31 0 0.1 0.31 0 0 0.315 0 0.02 0.315 0 0.04 0.315 0 0.06 0.315 0 0.08 0.315 0 0.1 0.315 0 0 0.32 0 0.02 0.32 0 0.04 0.32 0 0.06 0.32 0 0.08 0.32 0 0.1 0.32 0 0 0.325 0 0.02 0.325 0 0.04 0.325 0 0.06 0.325 0 0.08 0.325 0 0.1 0.325 0 0 0.33 0 0.02 0.33 0 0.04 0.33 0 0.06 0.33 0 0.08 0.33 0 0.1 0.33 0 0 0.335 0 0.02 0.335 0 0.04 0.335 0 0.06 0.335 0 0.08 0.335 0 0.1 0.335 0 0 0.340001 0 0.02 0.340001 0 0.04 0.340001 0 0.06 0.340001 0 0.08 0.340001 0 0.1 0.340001 0 0 0.345003 0 0.02 0.345003 0 0.04 0.345003 0 0.06 0.345003 0 0.08 0.345003 0 0.1 0.345003 0 0 0.35001 0 0.02 0.35001 0 0.04 0.35001 0 0.06 0.35001 0 0.08 0.35001 0 0.1 0.35001 0 0 0.355029 0 0.02 0.355029 0 0.04 0.355029 0 0.06 0.355029 0 0.08 0.355029 0 0.1 0.355029 0 0 0.360074 0 0.02 0.360074 0 0.04 0.360074 0 0.06 0.360074 0 0.08 0.360074 0 0.1 0.360074 0 0 0.365171 0 0.02 0.365171 0 0.04 0.365171 0 0.06 0.365171 0 0.08 0.365171 0 0.1 0.365171 0 0 0.37035 0 0.02 0.37035 0 0.04 0.37035 0 0.06 0.37035 0 0.08 0.37035 0 0.1 0.37035 0 0 0.375642 0 0.02 0.375642 0 0.04 0.375642 0 0.06 0.375642 0 0.08 0.375642 0 0.1 0.375642 0 0 0.381078 0 0.02 0.381078 0 0.04 0.381078 0 0.06 0.381078 0 0.08 0.381078 0 0.1 0.381078 0 0 0.386681 0 0.02 0.386681 0 0.04 0.386681 0 0.06 0.386681 0 0.08 0.386681 0 0.1 0.386681 0 0 0.392473 0 0.02 0.392473 0 0.04 0.392473 0 0.06 0.392473 0 0.08 0.392473 0 0.1 0.392473 0 0 0.398473 0 0.02 0.398473 0 0.04 0.398473 0 0.06 0.398473 0 0.08 0.398473 0 0.1 0.398473 0 0 0.404702 0 0.02 0.404702 0 0.04 0.404702 0 0.06 0.404702 0 0.08 0.404702 0 0.1 0.404702 0 0 0.411184 0 0.02 0.411184 0 0.04 0.411184 0 0.06 0.411184 0 0.08 0.411184 0 0.1 0.411184 0 0 0.417942 0 0.02 0.417942 0 0.04 0.417942 0 0.06 0.417942 0 0.08 0.417942 0 0.1 0.417942 0 0 0.425007 0 0.02 0.425007 0 0.04 0.425007 0 0.06 0.425007 0 0.08 0.425007 0 0.1 0.425007 0 0 0.43241 0 0.02 0.43241 0 0.04 0.43241 0 0.06 0.43241 0 0.08 0.43241 0 0.1 0.43241 0 0 0.44019 0 0.02 0.44019 0 0.04 0.44019 0 0.06 0.44019 0 0.08 0.44019 0 0.1 0.44019 0 0 0.44839 0 0.02 0.44839 0 0.04 0.44839 0 0.06 0.44839 0 0.08 0.44839 0 0.1 0.44839 0 0 0.457062 0 0.02 0.457062 0 0.04 0.457062 0 0.06 0.457062 0 0.08 0.457062 0 0.1 0.457062 0 0 0.466266 0 0.02 0.466266 0 0.04 0.466266 0 0.06 0.466266 0 0.08 0.466266 0 0.1 0.466266 0 0 0.476068 0 0.02 0.476068 0 0.04 0.476068 0 0.06 0.476068 0 0.08 0.476068 0 0.1 0.476068 0 0 0.48654 0 0.02 0.48654 0 0.04 0.48654 0 0.06 0.48654 0 0.08 0.48654 0 0.1 0.48654 0 0 0.497738 0 0.02 0.497738 0 0.04 0.497738 0 0.06 0.497738 0 0.08 0.497738 0 0.1 0.497738 0 0 0.509628 0 0.02 0.509628 0 0.04 0.509628 0 0.06 0.509628 0 0.08 0.509628 0 0.1 0.509628 0 0 0.521875 0 0.02 0.521875 0 0.04 0.521875 0 0.06 0.521875 0 0.08 0.521875 0 0.1 0.521875 0 0 0.534002 0 0.02 0.534002 0 0.04 0.534002 0 0.06 0.534002 0 0.08 0.534002 0 0.1 0.534002 0 0 0.545977 0 0.02 0.545977 0 0.04 0.545977 0 0.06 0.545977 0 0.08 0.545977 0 0.1 0.545977 0 0 0.557831 0 0.02 0.557831 0 0.04 0.557831 0 0.06 0.557831 0 0.08 0.557831 0 0.1 0.557831 0 0 0.569621 0 0.02 0.569621 0 0.04 0.569621 0 0.06 0.569621 0 0.08 0.569621 0 0.1 0.569621 0 0 0.581388 0 0.02 0.581388 0 0.04 0.581388 0 0.06 0.581388 0 0.08 0.581388 0 0.1 0.581388 0 0 0.593147 0 0.02 0.593147 0 0.04 0.593147 0 0.06 0.593147 0 0.08 0.593147 0 0.1 0.593147 0 0 0.604913 0 0.02 0.604913 0 0.04 0.604913 0 0.06 0.604913 0 0.08 0.604913 0 0.1 0.604913 0 0 0.607528 0 0.02 0.607528 0 0.04 0.607528 0 0.06 0.607528 0 0.08 0.607528 0 0.1 0.607528 0 0 0.610068 0 0.02 0.610068 0 0.04 0.610068 0 0.06 0.610068 0 0.08 0.610068 0 0.1 0.610068 0 0 0.612561 0 0.02 0.612561 0 0.04 0.612561 0 0.06 0.612561 0 0.08 0.612561 0 0.1 0.612561 0 0 0.615023 0 0.02 0.615023 0 0.04 0.615023 0 0.06 0.615023 0 0.08 0.615023 0 0.1 0.615023 0 0 0.617462 0 0.02 0.617462 0 0.04 0.617462 0 0.06 0.617462 0 0.08 0.617462 0 0.1 0.617462 0 0 0.619885 0 0.02 0.619885 0 0.04 0.619885 0 0.06 0.619885 0 0.08 0.619885 0 0.1 0.619885 0 0 0.622297 0 0.02 0.622297 0 0.04 0.622297 0 0.06 0.622297 0 0.08 0.622297 0 0.1 0.622297 0 0 0.624699 0 0.02 0.624699 0 0.04 0.624699 0 0.06 0.624699 0 0.08 0.624699 0 0.1 0.624699 0 0 0.627094 0 0.02 0.627094 0 0.04 0.627094 0 0.06 0.627094 0 0.08 0.627094 0 0.1 0.627094 0 0 0.629483 0 0.02 0.629483 0 0.04 0.629483 0 0.06 0.629483 0 0.08 0.629483 0 0.1 0.629483 0 0 0.631869 0 0.02 0.631869 0 0.04 0.631869 0 0.06 0.631869 0 0.08 0.631869 0 0.1 0.631869 0 0 0.634251 0 0.02 0.634251 0 0.04 0.634251 0 0.06 0.634251 0 0.08 0.634251 0 0.1 0.634251 0 0 0.63663 0 0.02 0.63663 0 0.04 0.63663 0 0.06 0.63663 0 0.08 0.63663 0 0.1 0.63663 0 0 0.639005 0 0.02 0.639005 0 0.04 0.639005 0 0.06 0.639005 0 0.08 0.639005 0 0.1 0.639005 0 0 0.641378 0 0.02 0.641378 0 0.04 0.641378 0 0.06 0.641378 0 0.08 0.641378 0 0.1 0.641378 0 0 0.643748 0 0.02 0.643748 0 0.04 0.643748 0 0.06 0.643748 0 0.08 0.643748 0 0.1 0.643748 0 0 0.646116 0 0.02 0.646116 0 0.04 0.646116 0 0.06 0.646116 0 0.08 0.646116 0 0.1 0.646116 0 0 0.648481 0 0.02 0.648481 0 0.04 0.648481 0 0.06 0.648481 0 0.08 0.648481 0 0.1 0.648481 0 0 0.650846 0 0.02 0.650846 0 0.04 0.650846 0 0.06 0.650846 0 0.08 0.650846 0 0.1 0.650846 0 0 0.653209 0 0.02 0.653209 0 0.04 0.653209 0 0.06 0.653209 0 0.08 0.653209 0 0.1 0.653209 0 0 0.655571 0 0.02 0.655571 0 0.04 0.655571 0 0.06 0.655571 0 0.08 0.655571 0 0.1 0.655571 0 0 0.657933 0 0.02 0.657933 0 0.04 0.657933 0 0.06 0.657933 0 0.08 0.657933 0 0.1 0.6579
[...]
			<PointData Scalars="VitesseX">
				<DataArray Name="VitesseX" type="Float32" format="ascii">
 0 -4.86949e-15 -6.88814e-15 -6.95753e-15 -5.29368e-16 0 0 -4.56706e-15 -7.16408e-15 -6.42595e-15 -1.42707e-15 0 0 -4.28776e-15 -6.94506e-15 -6.25e-15 -2.81143e-15 0 0 -4.32093e-15 -6.29527e-15 -6.49824e-15 -3.89016e-15 0 0 -4.41564e-15 -6.02697e-15 -6.41898e-15 -4.76175e-15 0 0 -4.48201e-15 -6.23439e-15 -5.5369e-15 -6.50814e-15 0 0 -3.56612e-15 -6.82031e-15 -4.32917e-15 -9.79594e-15 0 0 -2.31667e-15 -6.76304e-15 -5.67013e-15 -1.09661e-14 0 0 -2.3514e-15 -6.36023e-15 -5.85356e-15 -1.18167e-14 0 0 -1.95346e-15 -6.45819e-15 -6.02146e-15 -1.01886e-14 0 0 -1.79864e-15 -6.25624e-15 -7.19964e-15 -8.05752e-15 0 0 -2.37164e-15 -6.36388e-15 -6.30811e-15 -1.07489e-14 0 0 -1.52005e-15 -8.8398e-15 -3.73977e-15 -1.57314e-14 0 0 -1.17645e-17 -1.19654e-14 -4.74041e-15 -1.51406e-14 0 0 -5.57824e-16 -9.19661e-15 -1.24427e-14 -1.15054e-14 0 0 -2.3902e-15 -7.69307e-15 -1.54336e-14 -9.96148e-15 0 0 -1.50347e-15 -1.38966e-14 -9.24127e-15 -1.40844e-14 0 0 -4.22323e-15 -1.32179e-14 -6.5113e-15 -2.04762e-14 0 0 -7.7972e-15 -8.64495e-15 -1.38488e-14 -1.20697e-14 0 0 -4.87489e-15 -1.22851e-14 -1.48582e-14 -1.88507e-15 0 0 -3.27527e-15 -1.86601e-14 -2.11288e-15 -5.33972e-15 0 0 -4.05492e-15 -1.48411e-14 -5.47502e-16 -1.24579e-15 0 0 -7.56793e-15 -4.97032e-15 -6.0424e-15 8.01175e-15 0 0 -9.82619e-15 -2.86415e-15 5.98107e-16 1.58493e-15 0 0 -3.89423e-15 -7.07961e-15 6.05711e-15 -5.9232e-15 0 0 -1.00732e-15 -7.79483e-15 4.75716e-15 -7.86081e-16 0 0 -4.25525e-15 -3.71885e-15 2.38185e-15 9.30215e-15 0 0 -2.10759e-15 -1.11278e-14 1.30542e-14 1.20977e-14 0 0 -3.0519e-15 -1.13507e-14 2.33436e-14 6.3423e-15 0 0 -7.40485e-15 1.99417e-15 1.55682e-14 8.24539e-15 0 0 -4.03145e-15 7.55459e-15 9.58706e-15 1.22876e-14 0 0 3.12524e-15 6.63716e-15 1.31632e-14 3.91145e-15 0 0 6.22468e-15 1.11364e-14 1.22162e-14 -4.11193e-15 0 0 7.84234e-15 1.64744e-14 4.0071e-15 -8.57398e-15 0 0 1.18763e-14 1.66768e-14 -3.66328e-15 -1.58789e-14 0 0 1.22076e-14 1.14705e-14 -1.82813e-15 -2.77108e-14 0 0 6.55191e-15 9.34205e-15 1.4808e-16 -3.02602e-14 0 0 5.75306e-15 6.97092e-15 -1.02462e-14 -1.74087e-14 0 0 4.17348e-15 2.62305e-15 -1.90878e-14 -3.66677e-15 0 0 -3.26871e-15 4.34285e-15 -1.27905e-14 4.20114e-15 0 0 -7.65948e-15 8.68761e-15 -9.12518e-15 3.14056e-15 0 0 -2.86187e-15 5.06939e-15 -7.93624e-15 -6.95978e-15 0 0 3.2976e-15 -4.95811e-16 -6.17338e-15 -1.66357e-14 0 0 3.25229e-15 -1.3598e-15 -1.65336e-15 -1.15331e-14 0 0 7.84059e-15 -7.8529e-15 5.82787e-15 -1.12973e-14 0 0 9.67222e-15 -1.11718e-14 4.12794e-15 -1.74102e-14 0 0 -3.91514e-15 -8.49324e-16 1.24919e-16 -5.96979e-15 0 0 -1.1503e-14 3.30658e-15 -1.00522e-15 6.88554e-15 0 0 -8.67728e-15 -2.33368e-15 4.99741e-15 2.55581e-15 0 0 -3.40604e-15 -1.2332e-14 1.4246e-14 -7.39648e-15 0 0 -4.64631e-15 -1.02113e-14 5.58568e-15 -1.93373e-15 0 0 -7.4679e-15 -4.61683e-15 1.52465e-14 -1.61357e-14 0 0 -9.49913e-15 -5.56979e-15 3.47231e-14 -3.68033e-14 0 0 -5.63713e-15 -2.53001e-15 1.27907e-14 -1.59515e-14 0 0 1.33948e-14 -1.01003e-14 -9.81587e-15 8.68838e-15 0 0 1.30358e-14 -4.90504e-15 -1.65721e-14 1.46655e-14 0 0 7.59117e-15 1.67948e-14 -2.4225e-14 1.20272e-14 0 0 2.20256e-14 3.35544e-14 -1.64844e-14 -1.35231e-14 0 0 3.4428e-14 4.96263e-14 1.66022e-15 -2.67487e-14 0 0 3.91898e-14 7.04893e-14 6.90007e-15 -1.2408e-14 0 0 4.02107e-14 7.68664e-14 1.81109e-14 -5.54724e-15 0 0 4.80218e-14 7.22853e-14 2.84626e-14 4.64865e-15 0 0 4.29485e-14 7.53146e-14 3.22238e-14 5.48929e-15 0 0 3.5257e-14 7.83721e-14 3.23735e-14 8.29168e-15 0 0 4.26695e-14 6.33381e-14 3.25469e-14 3.31875e-14 0 0 3.3082e-14 5.86138e-14 2.57943e-14 5.92845e-14 0 0 2.59361e-14 5.62471e-14 2.00462e-14 6.50175e-14 0 0 2.97064e-14 4.9329e-14 2.51411e-14 6.2577e-14 0 0 2.79089e-14 4.48681e-14 3.11334e-14 5.68186e-14 0 0 1.9145e-14 3.63889e-14 3.57314e-14 4.16462e-14 0 0 2.60548e-15 3.12124e-14 3.93225e-14 4.70022e-14 0 0 6.10282e-15 2.64455e-14 3.77358e-14 5.8557e-14 0 0 1.99102e-14 8.30776e-15 4.30257e-14 5.35402e-14 0 0 8.39209e-15 7.49876e-15 4.04432e-14 4.45335e-14 0 0 5.25148e-15 1.78007e-14 2.16022e-14 5.48007e-14 0 0 7.8776e-15 2.81403e-14 3.20176e-15 6.79092e-14 0 0 1.57193e-14 2.19452e-14 1.0329e-14 6.23631e-14 0 0 2.75069e-14 1.18314e-14 2.2136e-14 4.80711e-14 0 0 1.65331e-14 2.16774e-14 6.00277e-15 4.56377e-14 0 0 1.85023e-14 1.84595e-14 8.09328e-15 3.22161e-14 0 0 3.26631e-14 8.73337e-15 1.72151e-14 1.28025e-14 0 0 3.12826e-14 5.49709e-15 1.24671e-14 1.89149e-14 0 0 1.59311e-14 1.05314e-14 2.02438e-14 1.70816e-14 0 0 2.11031e-14 1.7735e-15 2.66529e-14 1.98979e-14 0 0 2.92732e-14 1.28797e-14 2.4279e-14 1.28698e-14 0 0 2.20763e-14 2.02122e-14 2.36826e-14 3.60742e-15 0 0 1.4302e-14 1.87304e-14 2.16355e-14 8.58349e-15 0 0 2.16738e-14 1.29752e-14 1.25533e-14 1.15367e-14 0 0 2.34557e-14 9.4624e-15 1.31141e-15 1.08581e-14 0 0 7.15856e-15 -3.27482e-15 -6.13882e-15 -1.25585e-14 0 0 -1.8968e-14 -1.10233e-14 -4.35798e-15 5.39553e-15 0 0 -2.93434e-14 -5.08032e-15 -3.3722e-15 2.06792e-14 0 0 1.68386e-15 7.17578e-15 -9.85228e-15 6.34113e-15 0 0 1.62513e-14 1.28869e-14 1.42542e-15 1.62732e-14 0 0 -8.84337e-15 4.12777e-15 -1.91654e-14 6.1968e-15 0 0 -4.14717e-14 -5.28704e-14 -6.52642e-14 -3.68218e-14 0 0 -7.64827e-14 -1.34447e-13 -1.23274e-13 -8.9455e-14 0 0 -1.1751e-13 -1.72332e-13 -1.90836e-13 -1.0286e-13 0 0 -1.16635e-13 -1.82706e-13 -1.90867e-13 -1.05436e-13 0 0 -9.301e-14 -1.52827e-13 -1.64505e-13 -1.07408e-13 0 0 -9.05027e-14 -1.4135e-13 -1.79083e-13 -1.08219e-13 0 0 -1.24096e-13 -2.61795e-13 -2.70337e-13 -2.27381e-13 0 0 -1.24898e-13 -2.70724e-13 -2.40944e-13 -2.4462e-13 0 0 -1.37485e-13 -2.6468e-13 -2.61605e-13 -2.32091e-13 0 0 -1.38552e-13 -2.42048e-13 -2.7703e-13 -2.40606e-13 0 0 -1.37117e-13 -2.74897e-13 -2.8043e-13 -2.55472e-13 0 0 -1.4789e-13 -2.90443e-13 -2.64216e-13 -2.25383e-13 0 0 -1.39537e-13 -2.5499e-13 -2.53114e-13 -2.12798e-13 0 0 -1.1986e-13 -1.71049e-13 -2.06365e-13 -1.50302e-13 0 0 -3.91062e-14 -4.47983e-15 -1.04156e-14 -7.00791e-14 0 0 1.09577e-13 1.90191e-13 1.85308e-13 6.45284e-14 0 0 2.05876e-13 3.52388e-13 3.25222e-13 1.99461e-13 0 0 2.45619e-13 4.49161e-13 4.06594e-13 2.53464e-13 0 0 2.5864e-13 4.12336e-13 3.87245e-13 2.3954e-13 0 0 2.32994e-13 3.36776e-13 4.11393e-13 1.27315e-13 0 0 1.81658e-13 2.7309e-13 3.56604e-13 5.57792e-14 0 0 1.19138e-13 2.04468e-13 2.35861e-13 -7.18102e-15 0 0 5.49604e-14 1.30278e-13 1.67997e-13 -5.06866e-14 0 0 7.17305e-15 5.68407e-14 1.26783e-13 -9.84287e-14 0 0 -3.69924e-14 1.78274e-14 7.0018e-14 -1.62125e-13 0 0 -6.90151e-14 -4.02606e-14 1.89137e-14 -1.83316e-13 0 0 -6.79449e-14 -1.04129e-13 -5.40655e-14 -1.7166e-13 0 0 -8.06888e-14 -1.24555e-13 -1.5509e-13 -1.18176e-13 0 0 -1.39872e-13 -7.59203e-14 -2.60603e-13 -6.49899e-14 0 0 -1.79046e-13 -1.16505e-13 -2.37307e-13 -8.83608e-14 0 0 -1.63213e-13 -2.61222e-13 -1.50356e-13 -1.76064e-13 0 0 -1.45226e-13 -4.13443e-13 -6.09537e-14 -2.92724e-13 0 0 -1.76803e-13 -4.47991e-13 -7.80829e-14 -2.87134e-13 0 0 -2.54638e-13 -3.54975e-13 -2.01871e-13 -2.40242e-13 0 0 -2.66531e-13 -3.36456e-13 -2.24e-13 -2.442e-13 0 0 -2.73698e-13 -3.44599e-13 -2.1749e-13 -2.72024e-13 0 0 -2.17197e-13 -3.95349e-13 -2.48099e-13 -2.5899e-13 0 0 -1.75894e-13 -4.23489e-13 -2.97103e-13 -1.90196e-13 0 0 -2.33221e-13 -4.12174e-13 -2.00962e-13 -3.04671e-13 0 0 -2.67093e-13 -3.4796e-13 -2.00176e-13 -3.86817e-13 0 0 -2.1934e-13 -2.65537e-13 -3.42728e-13 -3.05692e-13 0 0 -1.52262e-13 -2.6435e-13 -3.44684e-13 -2.71921e-13 0 0 -1.4363e-13 -2.54029e-13 -2.93844e-13 -2.58044e-13 0 0 -1.534e-13 -2.25232e-13 -2.1554e-13 -2.46894e-13 0 0 -1.16207e-13 -1.47399e-13 -1.54515e-13 -9.78978e-14 0 0 -9.16578e-14 -1.09197e-13 -1.03288e-13 -5.12501e-14 0 0 -5.40561e-14 -3.76e-14 -6.77856e-14 -7.55797e-14 0 0 -1.16672e-14 2.02883e-14 -2.19505e-14 9.51981e-15 0 0 1.78897e-14 6.73286e-14 4.54871e-14 7.79935e-14 0 0 3.8091e-14 8.89627e-14 4.9073e-14 7.00506e-14 0 0 4.71973e-14 1.05571e-13 8.10164e-14 5.35173e-14 0 0 5.73485e-14 1.10117e-13 9.42784e-14 9.20214e-14 0 0 6.34104e-14 9.98985e-14 1.26915e-13 9.61472e-14 0 0 5.97919e-14 1.29261e-13 1.21725e-13 7.36485e-14 0 0 5.82212e-14 1.29365e-13 1.18706e-13 8.22338e-14 0 0 6.67478e-14 9.9064e-14 1.58675e-13 1.01432e-13 0 0 6.22314e-14 1.14439e-13 1.59047e-13 1.18996e-13 0 0 5.38044e-14 1.3334e-13 1.61034e-13 1.07949e-13 0 0 4.77574e-14 1.26964e-13 1.7385e-13 1.201e-13 0 0 4.83673e-14 1.20104e-13 1.81667e-13 1.35102e-13 0 0 4.63213e-14 1.37109e-13 1.89029e-13 1.08503e-13 0 0 3.9063e-14 1.57239e-13 1.82792e-13 1.14692e-13 0 0 7.84971e-14 1.14525e-13 1.97222e-13 1.20539e-13 0 0 1.10211e-13 1.01582e-13 1.84124e-13 9.39064e-14 0 0 9.10064e-14 1.48587e-13 1.3573e-13 1.28822e-13 0 0 8.39928e-14 1.38294e-13 1.42731e-13 1.17451e-13 0 0 9.44504e-14 1.0168e-13 1.93909e-13 4.1868e-14 0 0 8.70965e-14 1.07038e-13 1.74448e-13 4.10946e-14 0 0 6.738e-14 1.26915e-13 1.13882e-13 6.58613e-14 0 0 7.54005e-14 1.15714e-13 1.03322e-13 2.93387e-14 0 0 8.65213e-14 9.24069e-14 1.10062e-13 -3.35002e-14 0 0 8.68312e-14 8.75782e-14 7.99993e-14 -1.03633e-14 0 0 6.20569e-14 1.22068e-13 4.60293e-14 -6.10779e-15 0 0 2.44455e-14 1.32277e-13 7.73129e-14 -7.34234e-14 0 0 3.29831e-14 9.45452e-14 9.9362e-14 -7.33383e-14 0 0 5.98687e-14 7.7655e-14 5.97177e-14 -2.6882e-14 0 0 6.46132e-14 7.38937e-14 3.76115e-14 3.82002e-15 0 0 6.29284e-14 8.54374e-14 3.55153e-15 7.43371e-14 0 0 6.33119e-14 9.7585e-14 -2.74574e-14 1.28786e-13 0 0 5.37151e-14 9.01479e-14 -4.23495e-15 1.22095e-13 0 0 6.3918e-14 6.63685e-14 2.26631e-14 8.85854e-14 0 0 8.92576e-14 3.51204e-14 1.9562e-14 6.89461e-14 0 0 7.53816e-14 1.99423e-14 6.20191e-14 -1.54549e-17 0 0 2.81725e-14 6.45771e-14 6.56737e-14 -4.97861e-14 0 0 1.0334e-14 9.67665e-14 2.17509e-14 -3.95709e-14 0 0 -9.08931e-16 8.29027e-14 2.89031e-14 -4.36922e-14 0 0 5.98936e-15 7.64104e-14 2.58573e-14 -3.0433e-14 0 0 2.1196e-14 7.29925e-14 2.39594e-14 -2.31222e-14 0 0 -1.13569e-14 1.18665e-13 8.04554e-15 -5.16884e-14 0 0 -1.29343e-14 1.04747e-13 6.58272e-15 -5.94291e-14 0 0 1.43659e-14 3.90672e-14 3.91345e-14 -1.23431e-14 0 0 2.71927e-14 1.18935e-14 5.76026e-14 1.75573e-14 0 0 1.86923e-14 1.5774e-14 -1.72911e-14 6.26198e-14 0 0 2.0394e-14 -2.0996e-14 -1.94879e-14 7.62769e-14 0 0 3.31165e-14 -7.39556e-14 5.11905e-14 3.52976e-14 0 0 3.14341e-16 -2.28378e-14 -1.01047e-14 1.71934e-14 0 0 -1.15548e-14 -6.61062e-15 -5.00956e-14 -2.05128e-14 0 0 4.8466e-15 -4.35855e-14 -2.79184e-14 -4.49471e-14 0 0 6.46971e-15 -4.79514e-14 -1.25109e-14 -5.5065e-14 0 0 -6.63179e-15 -1.99637e-14 -2.4144e-14 -6.96527e-14 0 0 -1.36246e-14 2.48664e-14 -8.1165e-14 -6.68534e-14 0 0 8.85464e-15 1.10528e-14 -9.38862e-14 -4.56824e-14 0 0 -1.75365e-15 1.48145e-15 -6.71598e-14 -1.31893e-14 0 0 2.57652e-15 8.76528e-15 -3.06752e-14 -1.58123e-14 0 0 -1.38249e-14 3.1663e-14 -1.56602e-14 -1.56217e-14 0 0 -5.84068e-14 7.31812e-14 -3.60708e-14 -1.05981e-15 0
				</DataArray>
				<DataArray Name="VitesseY" type="Float32" format="ascii">