<?xml version="1.0"?>
<VTKFile type="PolyData">
	<PolyData>
		<Piece NumberOfPoints="1206" NumberOfPolys="1000">
			<Points>
				<DataArray type="Float32" NumberOfComponents="3" format="ascii">
 0 0 0 0.02 0 0 0.04 0 0 0.06 0 0 0.08 0 0 0.1 0 0 0 0.005 0 0.02 0.005 0 0.04 0.005 0 0.06 0.005 0 0.08 0.005 0 0.1 0.005 0 0 0.01 0 0.02 0.01 0 0.04 0.01 0 0.06 0.01 0 0.08 0.01 0 0.1 0.01 0 0 0.015 0 0.02 0.015 0 0.04 0.015 0 0.06 0.015 0 0.08 0.015 0 0.1 0.015 0 0 0.02 0 0.02 0.02 0 0.04 0.02 0 0.06 0.02 0 0.08 0.02 0 0.1 0.02 0 0 0.025 0 0.02 0.025 0 0.04 0.025 0 0.06 0.025 0 0.08 0.025 0 0.1 0.025 0 0 0.03 0 0.02 0.03 0 0.04 0.03 0 0.06 0.03 0 0.08 0.03 0 0.1 0.03 0 0 0.035 0 0.02 0.035 0 0.04 0.035 0 0.06 0.035 0 0.08 0.035 0 0.1 0.035 0 0 0.04 0 0.02 0.04 0 0.04 0.04 0 0.06 0.04 0 0.08 0.04 0 0.1 0.04 0 0 0.045 0 0.02 0.045 0 0.04 0.045 0 0.06 0.045 0 0.08 0.045 0 0.1 0.045 0 0 0.05 0 0.02 0.05 0 0.04 0.05 0 0.06 0.05 0 0.08 0.05 0 0.1 0.05 0 0 0.055 0 0.02 0.055 0 0.04 0.055 0 0.06 0.055 0 0.08 0.055 0 0.1 0.055 0 0 0.06 0 0.02 0.06 0 0.04 0.06 0 0.06 0.06 0 0.08 0.06 0 0.1 0.06 0 0 0.065 0 0.02 0.065 0 0.04 0.065 0 0.06 0.065 0 0.08 0.065 0 0.1 0.065 0 0 0.07 0 0.02 0.07 0 0.04 0.07 0 0.06 0.07 0 0.08 0.07 0 0.1 0.07 0 0 0.075 0 0.02 0.075 0 0.04 0.075 0 0.06 0.075 0 0.08 0.075 0 0.1 0.075 0 0 0.08 0 0.02 0.08 0 0.04 0.08 0 0.06 0.08 0 0.08 0.08 0 0.1 0.08 0 0 0.085 0 0.02 0.085 0 0.04 0.085 0 0.06 0.085 0 0.08 0.085 0 0.1 0.085 0 0 0.09 0 0.02 0.09 0 0.04 0.09 0 0.06 0.09 0 0.08 0.09 0 0.1 0.09 0 0 0.095 0 0.02 0.095 0 0.04 0.095 0 0.06 0.095 0 0.08 0.095 0 0.1 0.095 0 0 0.1 0 0.02 0.1 0 0.04 0.1 0 0.06 0.1 0 0.08 0.1 0 0.1 0.1 0 0 0.105 0 0.02 0.105 0 0.04 0.105 0 0.06 0.105 0 0.08 0.105 0 0.1 0.105 0 0 0.11 0 0.02 0.11 0 0.04 0.11 0 0.06 0.11 0 0.08 0.11 0 0.1 0.11 0 0 0.115 0 0.02 0.115 0 0.04 0.115 0 0.06 0.115 0 0.08 0.115 0 0.1 0.115 0 0 0.12 0 0.02 0.12 0 0.04 0.12 0 0.06 0.12 0 0.08 0.12 0 0.1 0.12 0 0 0.125 0 0.02 0.125 0 0.04 0.125 0 0.06 0.125 0 0.08 0.125 0 0.1 0.125 0 0 0.13 0 0.02 0.13 0 0.04 0.13 0 0.06 0.13 0 0.08 0.13 0 0.1 0.13 0 0 0.135 0 0.02 0.135 0 0.04 0.135 0 0.06 0.135 0 0.08 0.135 0 0.1 0.135 0 0 0.14 0 0.02 0.14 0 0.04 0.14 0 0.06 0.14 0 0.08 0.14 0 0.1 0.14 0 0 0.145 0 0.02 0.145 0 0.04 0.145 0 0.06 0.145 0 0.08 0.145 0 0.1 0.145 0 0 0.15 0 0.02 0.15 0 0.04 0.15 0 0.06 0.15 0 0.08 0.15 0 0.1 0.15 0 0 0.155 0 0.02 0.155 0 0.04 0.155 0 0.06 0.155 0 0.08 0.155 0 0.1 0.155 0 0 0.16 0 0.02 0.16 0 0.04 0.16 0 0.06 0.16 0 0.08 0.16 0 0.1 0.16 0 0 0.165 0 0.02 0.165 0 0.04 0.165 0 0.06 0.165 0 0.08 0.165 0 0.1 0.165 0 0 0.17 0 0.02 0.17 0 0.04 0.17 0 0.06 0.17 0 0.08 0.17 0 0.1 0.17 0 0 0.175 0 0.02 0.175 0 0.04 0.175 0 0.06 0.175 0 0.08 0.175 0 0.1 0.175 0 0 0.18 0 0.02 0.18 0 0.04 0.18 0 0.06 0.18 0 0.08 0.18 0 0.1 0.18 0 0 0.185 0 0.02 0.185 0 0.04 0.185 0 0.06 0.185 0 0.08 0.185 0 0.1 0.185 0 0 0.19 0 0.02 0.19 0 0.04 0.19 0 0.06 0.19 0 0.08 0.19 0 0.1 0.19 0 0 0.195 0 0.02 0.195 0 0.04 0.195 0 0.06 0.195 0 0.08 0.195 0 0.1 0.195 0 0 0.2 0 0.02 0.2 0 0.04 0.2 0 0.06 0.2 0 0.08 0.2 0 0.1 0.2 0 0 0.205 0 0.02 0.205 0 0.04 0.205 0 0.06 0.205 0 0.08 0.205 0 0.1 0.205 0 0 0.21 0 0.02 0.21 0 0.04 0.21 0 0.06 0.21 0 0.08 0.21 0 0.1 0.21 0 0 0.215 0 0.02 0.215 0 0.04 0.215 0 0.06 0.215 0 0.08 0.215 0 0.1 0.215 0 0 0.22 0 0.02 0.22 0 0.04 0.22 0 0.06 0.22 0 0.08 0.22 0 0.1 0.22 0 0 0.225 0 0.02 0.225 0 0.04 0.225 0 0.06 0.225 0 0.08 0.225 0 0.1 0.225 0 0 0.23 0 0.02 0.23 0 0.04 0.23 0 0.06 0.23 0 0.08 0.23 0 0.1 0.23 0 0 0.235 0 0.02 0.235 0 0.04 0.235 0 0.06 0.235 0 0.08 0.235 0 0.1 0.235 0 0 0.24 0 0.02 0.24 0 0.04 0.24 0 0.06 0.24 0 0.08 0.24 0 0.1 0.24 0 0 0.245 0 0.02 0.245 0 0.04 0.245 0 0.06 0.245 0 0.08 0.245 0 0.1 0.245 0 0 0.25 0 0.02 0.25 0 0.04 0.25 0 0.06 0.25 0 0.08 0.25 0 0.1 0.25 0 0 0.255 0 0.02 0.255 0 0.04 0.255 0 0.06 0.255 0 0.08 0.255 0 0.1 0.255 0 0 0.26 0 0.02 0.26 0 0.04 0.26 0 0.06 0.26 0 0.08 0.26 0 0.1 0.26 0 0 0.265 0 0.02 0.265 0 0.04 0.265 0 0.06 0.265 0 0.08 0.265 0 0.1 0.265 0 0 0.27 0 0.02 0.27 0 0.04 0.27 0 0.06 0.27 0 0.08 0.27 0 0.1 0.27 0 0 0.275 0 0.02 0.275 0 0.04 0.275 0 0.06 0.275 0 0.08 0.275 0 0.1 0.275 0 0 0.28 0 0.02 0.28 0 0.04 0.28 0 0.06 0.28 0 0.08 0.28 0 0.1 0.28 0 0 0.285 0 0.02 0.285 0 0.04 0.285 0 0.06 0.285 0 0.08 0.285 0 0.1 0.285 0 0 0.29 0 0.02 0.29 0 0.04 0.29 0 0.06 0.29 0 0.08 0.29 0 0.1 0.29 0 0 0.295 0 0.02 0.295 0 0.04 0.295 0 0.06 0.295 0 0.08 0.295 0 0.1 0.295 0 0 0.3 0 0.02 0.3 0 0.04 0.3 0 0.06 0.3 0 0.08 0.3 0 0.1 0.3 0 0 0.305 0 0.02 0.305 0 0.04 0.305 0 0.06 0.305 0 0.08 0.305 0 0.1 0.305 0 0 0.31 0 0.02 0.31 0 0.04 0.31 0 0.06 0.31 0 0.08 0.31 0 0.1 0.31 0 0 0.315 0 0.02 0.315 0 0.04 0.315 0 0.06 0.315 0 0.08 0.315 0 0.1 0.315 0 0 0.32 0 0.02 0.32 0 0.04 0.32 0 0.06 0.32 0 0.08 0.32 0 0.1 0.32 0 0 0.325 0 0.02 0.325 0 0.04 0.325 0 0.06 0.325 0 0.08 0.325 0 0.1 0.325 0 0 0.33 0 0.02 0.33 0 0.04 0.33 0 0.06 0.33 0 0.08 0.33 0 0.1 0.33 0 0 0.335 0 0.02 0.335 0 0.04 0.335 0 0.06 0.335 0 0.08 0.335 0 0.1 0.335 0 0 0.34 0 0.02 0.34 0 0.04 0.34 0 0.06 0.34 0 0.08 0.34 0 0.1 0.34 0 0 0.345 0 0.02 0.345 0 0.04 0.345 0 0.06 0.345 0 0.08 0.345 0 0.1 0.345 0 0 0.35 0 0.02 0.35 0 0.04 0.35 0 0.06 0.35 0 0.08 0.35 0 0.1 0.35 0 0 0.355 0 0.02 0.355 0 0.04 0.355 0 0.06 0.355 0 0.08 0.355 0 0.1 0.355 0 0 0.36 0 0.02 0.36 0 0.04 0.36 0 0.06 0.36 0 0.08 0.36 0 0.1 0.36 0 0 0.365 0 0.02 0.365 0 0.04 0.365 0 0.06 0.365 0 0.08 0.365 0 0.1 0.365 0 0 0.37 0 0.02 0.37 0 0.04 0.37 0 0.06 0.37 0 0.08 0.37 0 0.1 0.37 0 0 0.375 0 0.02 0.375 0 0.04 0.375 0 0.06 0.375 0 0.08 0.375 0 0.1 0.375 0 0 0.38 0 0.02 0.38 0 0.04 0.38 0 0.06 0.38 0 0.08 0.38 0 0.1 0.38 0 0 0.385 0 0.02 0.385 0 0.04 0.385 0 0.06 0.385 0 0.08 0.385 0 0.1 0.385 0 0 0.39 0 0.02 0.39 0 0.04 0.39 0 0.06 0.39 0 0.08 0.39 0 0.1 0.39 0 0 0.395 0 0.02 0.395 0 0.04 0.395 0 0.06 0.395 0 0.08 0.395 0 0.1 0.395 0 0 0.4 0 0.02 0.4 0 0.04 0.4 0 0.06 0.4 0 0.08 0.4 0 0.1 0.4 0 0 0.405 0 0.02 0.405 0 0.04 0.405 0 0.06 0.405 0 0.08 0.405 0 0.1 0.405 0 0 0.41 0 0.02 0.41 0 0.04 0.41 0 0.06 0.41 0 0.08 0.41 0 0.1 0.41 0 0 0.415 0 0.02 0.415 0 0.04 0.415 0 0.06 0.415 0 0.08 0.415 0 0.1 0.415 0 0 0.42 0 0.02 0.42 0 0.04 0.42 0 0.06 0.42 0 0.08 0.42 0 0.1 0.42 0 0 0.425 0 0.02 0.425 0 0.04 0.425 0 0.06 0.425 0 0.08 0.425 0 0.1 0.425 0 0 0.43 0 0.02 0.43 0 0.04 0.43 0 0.06 0.43 0 0.08 0.43 0 0.1 0.43 0 0 0.435 0 0.02 0.435 0 0.04 0.435 0 0.06 0.435 0 0.08 0.435 0 0.1 0.435 0 0 0.44 0 0.02 0.44 0 0.04 0.44 0 0.06 0.44 0 0.08 0.44 0 0.1 0.44 0 0 0.445 0 0.02 0.445 0 0.04 0.445 0 0.06 0.445 0 0.08 0.445 0 0.1 0.445 0 0 0.450002 0 0.02 0.450002 0 0.04 0.450002 0 0.06 0.450002 0 0.08 0.450002 0 0.1 0.450002 0 0 0.455016 0 0.02 0.455016 0 0.04 0.455016 0 0.06 0.455016 0 0.08 0.455016 0 0.1 0.455016 0 0 0.460081 0 0.02 0.460081 0 0.04 0.460081 0 0.06 0.460081 0 0.08 0.460081 0 0.1 0.460081 0 0 0.465308 0 0.02 0.465308 0 0.04 0.465308 0 0.06 0.465308 0 0.08 0.465308 0 0.1 0.465308 0 0 0.470897 0 0.02 0.470897 0 0.04 0.470897 0 0.06 0.470897 0 0.08 0.470897 0 0.1 0.470897 0 0 0.477109 0 0.02 0.477109 0 0.04 0.477109 0 0.06 0.477109 0 0.08 0.477109 0 0.1 0.477109 0 0 0.484255 0 0.02 0.484255 0 0.04 0.484255 0 0.06 0.484255 0 0.08 0.484255 0 0.1 0.484255 0 0 0.492762 0 0.02 0.492762 0 0.04 0.492762 0 0.06 0.492762 0 0.08 0.492762 0 0.1 0.492762 0 0 0.503225 0 0.02 0.503225 0 0.04 0.503225 0 0.06 0.503225 0 0.08 0.503225 0 0.1 0.503225 0 0 0.515733 0 0.02 0.515733 0 0.04 0.515733 0 0.06 0.515733 0 0.08 0.515733 0 0.1 0.515733 0 0 0.528076 0 0.02 0.528076 0 0.04 0.528076 0 0.06 0.528076 0 0.08 0.528076 0 0.1 0.528076 0 0 0.530745 0 0.02 0.530745 0 0.04 0.530745 0 0.06 0.530745 0 0.08 0.530745 0 0.1 0.530745 0 0 0.533347 0 0.02 0.533347 0 0.04 0.533347 0 0.06 0.533347 0 0.08 0.533347 0 0.1 0.533347 0 0 0.535909 0 0.02 0.535909 0 0.04 0.535909 0 0.06 0.535909 0 0.08 0.535909 0 0.1 0.535909 0 0 0.538457 0 0.02 0.538457 0 0.04 0.538457 0 0.06 0.538457 0 0.08 0.538457 0 0.1 0.538457 0 0 0.540939 0 0.02 0.540939 0 0.04 0.540939 0 0.06 0.540939 0 0.08 0.540939 0 0.1 0.540939 0 0 0.543401 0 0.02 0.543401 0 0.04 0.543401 0 0.06 0.543401 0 0.08 0.543401 0 0.1 0.543401 0 0 0.545908 0 0.02 0.545908 0 0.04 0.545908 0 0.06 0.545908 0 0.08 0.545908 0 0.1 0.545908 0 0 0.548537 0 0.02 0.548537 0 0.04 0.548537 0 0.06 0.548537 0 0.08 0.548537 0 0.1 0.548537 0 0 0.551353 0 0.02 0.551353 0 0.04 0.551353 0 0.06 0.551353 0 0.08 0.551353 0 0.1 0.551353 0 0 0.554419 0 0.02 0.554419 0 0.04 0.554419 0 0.06 0.554419 0 0.08 0.554419 0 0.1 0.554419 0 0 0.557823 0 0.02 0.557823 0 0.04 0.557823 0 0.06 0.557823 0 0.08 0.557823 0 0.1 0.557823 0 0 0.561593 0 0.02 0.561593 0 0.04 0.561593 0 0.06 0.561593 0 0.08 0.561593 0 0.1 0.561593 0 0 0.565778 0 0.02 0.565778 0 0.04 0.565778 0 0.06 0.565778 0 0.08 0.565778 0 0.1 0.565778 0 0 0.570315 0 0.02 0.570315 0 0.04 0.570315 0 0.06 0.570315 0 0.08 0.570315 0 0.1 0.570315 0 0 0.575105 0 0.02 0.575105 0 0.04 0.575105 0 0.06 0.575105 0 0.08 0.575105 0 0.1 0.575105 0 0 0.58003 0 0.02 0.58003 0 0.04 0.58003 0 0.06 0.58003 0 0.08 0.58003 0 0.1 0.58003 0 0 0.585007 0 0.02 0.585007 0 0.04 0.585007 0 0.06 0.585007 0 0.08 0.585007 0 0.1 0.585007 0 0 0.590002 0 0.02 0.590002 0 0.04 0.590002 0 0.06 0.590002 0 0.08 0.590002 0 0.1 0.590002 0 0 0.595 0 0.02 0.595 0 0.04 0.595 0 0.06 0.595 0 0.08 0.595 0 0.1 0.595 0 0 0.6 0 0.02 0.6 0 0.04 0.6 0 0.06 0.6 0 0.08 0.6 0 0.1 0.6 0 0 0.605 0 0.02 0.605 0 0.04 0.605 0 0.06 0.605 0 0.08 0.605 0 0.1 0.605 0 0 0.61 0 0.02 0.61 0 0.04 0.61 0 0.06 0.61 0 0.08 0.61 0 0.1 0.61 0 0 0.615 0 0.02 0.615 0 0.04 0.615 0 0.06 0.615 0 0.08 0.615 0 0.1 0.615 0 0 0.62 0 0.02 0.62 0 0.04 0.62 0 0.06 0.62 0 0.08 0.62 0 0.1 0.62 0 0 0.625 0 0.02 0.625 0 0.04 0.625 0 0.06 0.625 0 0.08 0.625 0 0.1 0.625 0 0 0.63 0 0.02 0.63 0 0.04 0.63 0 0.06 0.63 0 0.08 0.63 0 0.1 0.63 0 0 0.635 0 0.02 0.635 0 0.04 0.635 0 0.06 0.635 0 0.08 0.635 0 0.1 0.635 0 0 0.64 0 0.02 0.64 0 0.04 0.64 0 0.06 0.64 0 0.08 0.64 0 0.1 0.64 0 0 0.645 0 0.02 0.645 0 0.04 0.645 0 0.06 0.645 0 0.08 0.645 0 0.1 0.645 0 0 0.65 0 0.02 0.6
[...]
			<PointData Scalars="VitesseX">
				<DataArray Name="VitesseX" type="Float32" format="ascii">
 0 5.49154e-17 -7.89654e-16 1.36128e-15 -5.14261e-16 0 0 1.66246e-17 -7.73033e-16 1.24013e-15 -4.56557e-16 0 0 1.15473e-16 -3.12109e-16 5.737e-16 -4.71916e-16 0 0 -1.40696e-16 8.01165e-16 -5.50968e-16 -2.22933e-16 0 0 -2.67002e-16 9.50609e-16 -9.92058e-16 4.0875e-16 0 0 -1.55666e-16 6.69625e-16 -8.06303e-16 7.65247e-16 0 0 1.78431e-16 -2.4631e-18 -6.1848e-16 1.00333e-15 0 0 1.24909e-15 -2.02857e-15 1.02126e-15 1.30662e-16 0 0 2.0056e-16 -7.05361e-16 1.11856e-15 -7.43163e-18 0 0 -1.6491e-15 1.78567e-15 5.83801e-16 -5.08076e-16 0 0 -1.89499e-15 1.45779e-15 1.22257e-15 -9.05602e-16 0 0 1.4923e-15 -2.72047e-15 2.33776e-15 -3.47585e-16 0 0 1.48163e-15 -2.21339e-15 8.39093e-16 1.70674e-15 0 0 -3.62259e-15 3.78645e-15 -1.038e-15 2.87924e-15 0 0 -1.28882e-15 7.71802e-16 1.38676e-15 2.84698e-15 0 0 1.69271e-15 -2.44637e-15 2.54318e-15 1.19982e-15 0 0 -1.46198e-15 7.50451e-16 9.24408e-16 -1.77413e-15 0 0 -5.21839e-16 1.29527e-15 -1.69059e-15 -1.68468e-17 0 0 -4.37788e-16 1.22708e-15 -1.48615e-15 1.44626e-15 0 0 -1.44669e-15 1.44648e-15 -6.86392e-16 1.54358e-15 0 0 1.57541e-15 -1.68096e-15 -1.00101e-16 2.07117e-15 0 0 1.75633e-15 -2.44134e-15 1.78118e-15 8.21314e-16 0 0 -1.00698e-15 3.05185e-16 1.59237e-15 -3.9758e-16 0 0 -2.08913e-15 1.73459e-15 -1.99003e-15 1.52758e-16 0 0 1.00104e-15 1.02706e-15 -3.49011e-15 -3.4229e-16 0 0 4.74865e-15 -2.16722e-15 -2.72359e-15 -7.5176e-16 0 0 6.15675e-16 2.16767e-15 -6.12612e-15 1.28482e-15 0 0 -2.95195e-15 3.86887e-15 -3.39461e-15 7.11716e-16 0 0 -1.03281e-15 -6.46259e-16 2.86598e-15 -3.23371e-16 0 0 1.8626e-15 -3.54348e-15 3.39061e-15 9.94526e-17 0 0 1.84837e-16 -9.57639e-16 2.43833e-15 -1.38404e-15 0 0 1.64724e-16 1.95451e-15 1.46075e-15 -3.55766e-15 0 0 2.70917e-15 -4.35296e-15 5.26807e-15 -5.03308e-15 0 0 -2.92215e-15 5.7237e-16 3.17039e-15 -3.83965e-15 0 0 2.48079e-15 1.96358e-16 -7.4807e-16 -3.44794e-15 0 0 5.22439e-15 -4.36898e-15 1.525e-15 -1.21116e-15 0 0 -4.86426e-15 3.22747e-15 -3.50577e-16 4.6243e-15 0 0 2.43809e-15 -4.87069e-15 2.71277e-15 7.78172e-15 0 0 2.96079e-15 -5.12996e-15 5.51037e-15 6.45164e-15 0 0 -4.87976e-15 4.79297e-15 1.79687e-15 9.17492e-15 0 0 1.6489e-15 -2.20053e-15 1.14699e-15 1.55895e-14 0 0 2.06279e-15 -3.91564e-15 2.18184e-15 9.18927e-15 0 0 -1.64795e-15 2.55233e-15 -1.29111e-16 1.46004e-16 0 0 2.41755e-15 2.1367e-15 -1.40989e-15 -2.46706e-15 0 0 -1.0424e-15 4.06125e-15 -4.71857e-15 2.29098e-15 0 0 -1.983e-15 1.36637e-15 8.40783e-16 -1.52609e-15 0 0 2.9186e-15 -3.64229e-15 4.67619e-15 -5.14958e-15 0 0 5.81018e-16 -2.54355e-15 3.27897e-16 4.93981e-16 0 0 -2.17362e-15 4.98158e-15 -4.72305e-15 -7.21536e-17 0 0 1.80318e-16 4.28382e-15 -5.80776e-15 -2.64411e-15 0 0 3.82409e-15 -1.80981e-15 -2.64513e-15 -3.59166e-15 0 0 7.84871e-16 1.86571e-15 -3.83952e-15 -2.78677e-15 0 0 -2.87255e-15 1.19518e-15 -4.68515e-17 -5.18702e-15 0 0 2.51223e-15 -3.40703e-15 2.38718e-16 -2.47159e-15 0 0 7.05078e-15 -5.89968e-15 -1.31191e-15 4.54052e-15 0 0 3.00866e-15 3.70832e-15 -7.71122e-17 1.4547e-15 0 0 4.28653e-15 3.52654e-15 1.76096e-15 -2.67338e-15 0 0 5.59397e-15 1.53603e-16 3.17038e-15 -8.73925e-15 0 0 4.15524e-15 6.49798e-15 2.99862e-15 -1.12588e-14 0 0 6.52148e-15 1.20806e-14 -2.3173e-15 -5.3564e-15 0 0 5.99436e-15 1.25485e-14 -4.47054e-15 -7.76203e-15 0 0 -2.65076e-15 5.44305e-15 4.55152e-15 -8.80888e-15 0 0 -2.51913e-16 -1.6425e-15 5.82576e-15 -7.61054e-15 0 0 5.06568e-15 2.17499e-15 -2.25221e-15 -3.95411e-15 0 0 -2.36949e-16 9.54463e-15 -4.73909e-15 -2.3928e-16 0 0 -9.10883e-17 8.24323e-16 2.7507e-15 -2.91546e-15 0 0 2.30281e-16 3.84421e-15 5.49681e-16 -3.09231e-15 0 0 2.1635e-15 2.27875e-15 2.57706e-16 -1.58102e-15 0 0 4.73647e-15 -1.76228e-15 -2.33983e-15 1.00347e-14 0 0 -1.01415e-15 5.62547e-15 -7.30222e-15 2.26769e-14 0 0 -2.45485e-15 5.59202e-15 2.23201e-15 8.48633e-15 0 0 3.58102e-15 9.14398e-15 -2.67138e-15 3.06328e-15 0 0 6.65595e-15 1.49469e-14 -7.90484e-15 1.35347e-15 0 0 2.93753e-15 1.63747e-14 -3.80808e-15 -1.05385e-14 0 0 6.02206e-15 -1.66585e-15 5.33968e-15 -1.00267e-14 0 0 1.27715e-14 -2.28102e-14 1.81535e-14 -1.06789e-14 0 0 1.0098e-14 -9.9839e-15 5.12556e-15 -1.74739e-15 0 0 1.12023e-14 -8.5811e-16 -1.07744e-14 1.484e-14 0 0 6.91516e-15 -4.24591e-15 -7.97259e-15 1.67002e-14 0 0 1.1476e-14 -3.09731e-16 -2.56696e-15 3.97751e-15 0 0 1.05265e-14 1.94013e-14 -1.45133e-14 1.71231e-15 0 0 -1.19582e-15 3.64999e-14 -4.81974e-15 -1.64912e-14 0 0 1.13306e-14 1.7242e-14 1.89785e-14 -1.97593e-14 0 0 9.57784e-15 -2.11719e-15 1.37821e-14 1.1327e-14 0 0 -5.53361e-15 2.24214e-14 -5.14579e-16 4.78467e-15 0 0 1.27755e-14 1.06312e-14 8.55995e-15 -2.52004e-15 0 0 9.0828e-15 -4.44805e-15 1.67526e-14 4.20896e-15 0 0 -1.08521e-14 2.16299e-14 1.57296e-15 -3.10898e-15 0 0 3.32767e-15 1.10854e-15 6.96257e-15 1.25111e-14 0 0 -5.63737e-15 1.51901e-14 -1.94395e-14 4.22365e-14 0 0 3.53676e-15 8.32603e-15 -1.98229e-14 3.26574e-14 0 0 1.53482e-14 -1.41088e-14 8.03401e-15 9.65203e-15 0 0 -1.15962e-14 1.8371e-14 1.28959e-15 6.3987e-15 0 0 -1.02985e-15 1.91677e-14 -1.27625e-15 7.07104e-15 0 0 6.77463e-15 1.99828e-15 3.56911e-15 2.0851e-15 0 0 -6.88844e-15 -7.12249e-16 3.3266e-15 -1.22894e-15 0 0 -2.44916e-16 5.45513e-15 -7.84097e-15 -5.01671e-15 0 0 8.75624e-15 8.70503e-15 -6.09817e-15 4.51842e-15 0 0 5.43808e-15 7.28891e-15 -9.2601e-15 2.2306e-14 0 0 -6.55353e-15 -1.18104e-14 -2.12407e-14 -6.74273e-15 0 0 -1.71058e-14 -4.78585e-14 -5.57321e-14 -3.80753e-14 0 0 -1.24572e-13 -2.03008e-13 -2.04598e-13 -8.57877e-14 0 0 -2.03598e-13 -3.31528e-13 -2.59036e-13 -2.02318e-13 0 0 -3.0568e-13 -4.9054e-13 -4.04019e-13 -3.10241e-13 0 0 -4.12204e-13 -6.66173e-13 -6.13854e-13 -4.01372e-13 0 0 -5.01643e-13 -8.26696e-13 -7.61542e-13 -4.84575e-13 0 0 -6.58464e-13 -1.09593e-12 -1.04661e-12 -6.20623e-13 0 0 -9.2398e-13 -1.58637e-12 -1.52131e-12 -8.81212e-13 0 0 -1.48239e-12 -2.43255e-12 -2.39384e-12 -1.42126e-12 0 0 -1.82583e-12 -2.94346e-12 -2.88662e-12 -1.76816e-12 0 0 -1.88015e-12 -3.07416e-12 -2.93079e-12 -1.88697e-12 0 0 -1.21133e-12 -1.97988e-12 -1.9129e-12 -1.19284e-12 0 0 -3.01943e-13 -4.87965e-13 -5.16656e-13 -2.36866e-13 0 0 -1.33891e-13 -1.89528e-13 -2.43988e-13 -1.05179e-13 0 0 -2.08276e-14 -1.85101e-15 -4.1661e-14 -4.6152e-15 0 0 5.25585e-15 1.10531e-14 1.75384e-15 -1.79919e-14 0 0 7.80538e-15 1.38348e-14 -6.64615e-16 -5.30383e-15 0 0 5.90449e-15 1.20191e-14 -1.23885e-14 3.03004e-14 0 0 1.17363e-14 5.96694e-15 -2.0146e-15 1.41615e-14 0 0 -2.51602e-15 2.14114e-14 -1.04405e-14 2.14198e-14 0 0 6.60476e-15 4.45337e-15 7.10455e-15 2.09708e-14 0 0 1.64877e-14 4.59401e-15 3.47181e-15 1.10824e-14 0 0 9.07283e-15 2.01479e-14 -1.51676e-14 1.00423e-14 0 0 1.64305e-14 -5.65987e-15 1.78206e-14 -8.25308e-15 0 0 3.61703e-15 -2.32087e-15 1.73506e-14 6.75983e-15 0 0 2.00542e-15 9.36333e-15 2.13971e-14 8.39104e-15 0 0 1.66638e-14 5.34536e-15 2.14726e-14 1.23439e-14 0 0 7.23226e-15 1.27916e-14 -7.42851e-15 3.47962e-14 0 0 2.22267e-15 3.27542e-15 1.46465e-14 1.91298e-14 0 0 9.25424e-15 -1.4849e-16 1.15507e-14 4.07218e-14 0 0 3.27908e-15 1.02545e-14 4.88901e-15 2.06573e-14 0 0 7.38939e-15 9.58406e-15 2.09732e-14 -3.01268e-14 0 0 1.11798e-14 3.22376e-14 -1.39831e-14 -6.93198e-15 0 0 8.80019e-16 4.44461e-14 -1.11001e-14 -1.32959e-14 0 0 1.33292e-14 2.19955e-14 1.85218e-14 -2.83523e-14 0 0 2.77727e-14 1.59562e-14 2.23804e-14 -3.32835e-14 0 0 2.86827e-14 3.41801e-14 -1.58938e-16 -4.74027e-14 0 0 1.63244e-14 3.46814e-14 -1.64675e-14 -6.14971e-15 0 0 -2.80872e-15 3.19874e-14 -9.05667e-15 1.39975e-14 0 0 2.03117e-15 4.22847e-14 -2.65067e-14 -1.1728e-15 0 0 2.0052e-14 2.38457e-14 -2.08456e-14 1.27537e-15 0 0 1.87163e-14 -3.03322e-15 5.43934e-15 -5.02527e-15 0 0 1.7104e-14 -6.97152e-15 -1.02577e-14 6.04165e-15 0 0 1.24411e-14 2.054e-15 -1.96489e-14 3.53515e-14 0 0 5.12182e-15 1.43652e-14 -1.04856e-14 1.626e-14 0 0 1.3484e-14 1.48594e-14 -1.08632e-15 -8.54503e-15 0 0 4.82091e-15 9.5274e-15 1.52615e-14 -4.39949e-15 0 0 1.30834e-14 1.98543e-15 -8.92577e-15 1.01678e-14 0 0 3.6254e-14 -1.25696e-14 -1.7858e-14 1.3308e-14 0 0 2.30872e-14 -5.02502e-15 2.11327e-14 -3.81011e-14 0 0 1.44184e-14 2.03869e-14 1.29991e-14 -4.01141e-14 0 0 1.33212e-14 2.193e-14 1.62941e-15 2.68867e-16 0 0 1.81183e-14 2.62259e-14 -2.14028e-14 2.02292e-14 0 0 1.64411e-14 2.66381e-14 -1.13336e-14 1.24242e-16 0 0 2.27185e-14 3.70703e-15 2.80135e-15 1.88912e-15 0 0 2.34157e-14 1.33153e-14 -2.32963e-14 1.49504e-14 0 0 1.85025e-14 2.02801e-14 -2.42312e-14 -1.14312e-14 0 0 3.08231e-14 2.80272e-14 -4.40865e-14 -2.74112e-14 0 0 3.67545e-14 1.63941e-14 -3.42039e-14 -3.4645e-14 0 0 4.76887e-14 -4.33668e-14 2.54076e-15 -3.0473e-14 0 0 3.19144e-14 -2.1455e-14 -6.47818e-15 -1.46973e-14 0 0 3.62557e-14 3.4047e-14 -1.71153e-14 -2.2422e-14 0 0 5.51007e-14 2.69031e-14 1.96199e-15 -4.8924e-14 0 0 3.03074e-14 1.84959e-14 3.39906e-15 -1.8106e-14 0 0 2.15427e-14 -5.96206e-15 3.12399e-15 -7.60822e-16 0 0 4.65194e-14 -3.78365e-14 -5.56782e-15 1.03328e-14 0 0 3.2556e-14 6.52838e-15 -2.49706e-14 3.55267e-14 0 0 2.06911e-14 2.3577e-14 1.25264e-14 -2.85676e-15 0 0 4.74008e-14 4.44322e-15 1.64706e-18 2.90274e-14 0 0 5.22201e-14 5.88803e-15 -3.19584e-14 4.27239e-14 0 0 2.7418e-14 1.83307e-14 -2.53936e-14 1.48765e-14 0 0 6.48402e-15 1.63285e-14 5.65104e-15 3.77281e-15 0 0 1.02501e-14 2.45052e-15 1.57134e-14 -8.15757e-15 0 0 3.05023e-14 -1.0245e-14 5.95886e-15 -2.40788e-15 0 0 1.03597e-14 -1.77399e-14 2.083e-14 1.92666e-15 0 0 -1.65063e-14 1.29686e-14 -4.32164e-15 1.41771e-14 0 0 -7.84291e-15 2.72919e-15 3.68753e-15 -5.64431e-16 0 0 -2.43072e-15 -4.45365e-15 3.42569e-15 2.20711e-14 0 0 3.29494e-15 9.70735e-15 5.91492e-15 6.16777e-15 0 0 -1.32528e-15 2.74023e-14 -1.3387e-14 -1.66819e-14 0 0 6.02644e-15 4.25241e-14 -4.46213e-14 1.97826e-15 0 0 2.07825e-14 1.7926e-14 1.59856e-14 -3.85874e-14 0 0 1.12972e-14 1.27986e-14 5.23558e-14 -5.42379e-14 0 0 1.55114e-15 2.09918e-14 3.51746e-14 1.4331e-15 0 0 6.32934e-15 1.08893e-14 1.14734e-14 4.87081e-14 0 0 6.08744e-16 7.97838e-16 4.28699e-14 -1.53176e-14 0 0 -4.95904e-15 8.99934e-16 3.90491e-14 -3.82992e-14 0 0 2.07441e-15 7.85371e-15 -1.41554e-14 1.04795e-14 0 0 1.6762e-15 5.62373e-15 -9.05769e-15 -5.47945e-15 0 0 8.02123e-15 -5.07763e-16 -2.98317e-15 -8.30691e-15 0 0 7.90827e-16 -2.5453e-15 1.31864e-14 -1.32443e-15 0 0 -2.48486e-15 -5.07386e-15 2.33609e-14 -5.13839e-15 0 0 -1.81112e-16 8.97844e-15 -1.08834e-14 4.27556e-15 0 0 2.74954e-16 9.38656e-15 -1.17472e-14 -5.96117e-15 0 0 1.03436e-15 -3.1913e-16 1.73854e-14 -3.72541e-14 0 0 8.34054e-15 -1.39714e-14 1.97358e-14 -3.98144e-14 0 0 7.5128e-15 -6.73837e-15 1.73266e-15 -1.10136e-14 0 0 2.64086e-15 1.05343e-14 -8.40157e-15 3.57414e-15 0 0 1.09178e-14 -1.76167e-14 2.53455e-14 -2.8588e-15 0 0 -3.3585e-15 -8.82092e-15 1.80607e-14 9.94697e-15 0 0 -1.12804e-14 1.73806e-14 -1.55917e-14 2.39914e-14 0
				</DataArray>
				<DataArray Name="VitesseY" type="Float32" format="ascii">