<?xml version="1.0"?>
<VTKFile type="PolyData">
	<PolyData>
		<Piece NumberOfPoints="1206" NumberOfPolys="1000">
			<Points>
				<DataArray type="Float32" NumberOfComponents="3" format="ascii">
 0 0 0 0.02 0 0 0.04 0 0 0.06 0 0 0.08 0 0 0.1 0 0 0 0.005 0 0.02 0.005 0 0.04 0.005 0 0.06 0.005 0 0.08 0.005 0 0.1 0.005 0 0 0.01 0 0.02 0.01 0 0.04 0.01 0 0.06 0.01 0 0.08 0.01 0 0.1 0.01 0 0 0.015 0 0.02 0.015 0 0.04 0.015 0 0.06 0.015 0 0.08 0.015 0 0.1 0.015 0 0 0.02 0 0.02 0.02 0 0.04 0.02 0 0.06 0.02 0 0.08 0.02 0 0.1 0.02 0 0 0.025 0 0.02 0.025 0 0.04 0.025 0 0.06 0.025 0 0.08 0.025 0 0.1 0.025 0 0 0.03 0 0.02 0.03 0 0.04 0.03 0 0.06 0.03 0 0.08 0.03 0 0.1 0.03 0 0 0.035 0 0.02 0.035 0 0.04 0.035 0 0.06 0.035 0 0.08 0.035 0 0.1 0.035 0 0 0.04 0 0.02 0.04 0 0.04 0.04 0 0.06 0.04 0 0.08 0.04 0 0.1 0.04 0 0 0.045 0 0.02 0.045 0 0.04 0.045 0 0.06 0.045 0 0.08 0.045 0 0.1 0.045 0 0 0.05 0 0.02 0.05 0 0.04 0.05 0 0.06 0.05 0 0.08 0.05 0 0.1 0.05 0 0 0.055 0 0.02 0.055 0 0.04 0.055 0 0.06 0.055 0 0.08 0.055 0 0.1 0.055 0 0 0.06 0 0.02 0.06 0 0.04 0.06 0 0.06 0.06 0 0.08 0.06 0 0.1 0.06 0 0 0.065 0 0.02 0.065 0 0.04 0.065 0 0.06 0.065 0 0.08 0.065 0 0.1 0.065 0 0 0.07 0 0.02 0.07 0 0.04 0.07 0 0.06 0.07 0 0.08 0.07 0 0.1 0.07 0 0 0.075 0 0.02 0.075 0 0.04 0.075 0 0.06 0.075 0 0.08 0.075 0 0.1 0.075 0 0 0.08 0 0.02 0.08 0 0.04 0.08 0 0.06 0.08 0 0.08 0.08 0 0.1 0.08 0 0 0.085 0 0.02 0.085 0 0.04 0.085 0 0.06 0.085 0 0.08 0.085 0 0.1 0.085 0 0 0.09 0 0.02 0.09 0 0.04 0.09 0 0.06 0.09 0 0.08 0.09 0 0.1 0.09 0 0 0.095 0 0.02 0.095 0 0.04 0.095 0 0.06 0.095 0 0.08 0.095 0 0.1 0.095 0 0 0.1 0 0.02 0.1 0 0.04 0.1 0 0.06 0.1 0 0.08 0.1 0 0.1 0.1 0 0 0.105 0 0.02 0.105 0 0.04 0.105 0 0.06 0.105 0 0.08 0.105 0 0.1 0.105 0 0 0.11 0 0.02 0.11 0 0.04 0.11 0 0.06 0.11 0 0.08 0.11 0 0.1 0.11 0 0 0.115 0 0.02 0.115 0 0.04 0.115 0 0.06 0.115 0 0.08 0.115 0 0.1 0.115 0 0 0.12 0 0.02 0.12 0 0.04 0.12 0 0.06 0.12 0 0.08 0.12 0 0.1 0.12 0 0 0.125 0 0.02 0.125 0 0.04 0.125 0 0.06 0.125 0 0.08 0.125 0 0.1 0.125 0 0 0.13 0 0.02 0.13 0 0.04 0.13 0 0.06 0.13 0 0.08 0.13 0 0.1 0.13 0 0 0.135 0 0.02 0.135 0 0.04 0.135 0 0.06 0.135 0 0.08 0.135 0 0.1 0.135 0 0 0.14 0 0.02 0.14 0 0.04 0.14 0 0.06 0.14 0 0.08 0.14 0 0.1 0.14 0 0 0.145 0 0.02 0.145 0 0.04 0.145 0 0.06 0.145 0 0.08 0.145 0 0.1 0.145 0 0 0.15 0 0.02 0.15 0 0.04 0.15 0 0.06 0.15 0 0.08 0.15 0 0.1 0.15 0 0 0.155 0 0.02 0.155 0 0.04 0.155 0 0.06 0.155 0 0.08 0.155 0 0.1 0.155 0 0 0.16 0 0.02 0.16 0 0.04 0.16 0 0.06 0.16 0 0.08 0.16 0 0.1 0.16 0 0 0.165 0 0.02 0.165 0 0.04 0.165 0 0.06 0.165 0 0.08 0.165 0 0.1 0.165 0 0 0.17 0 0.02 0.17 0 0.04 0.17 0 0.06 0.17 0 0.08 0.17 0 0.1 0.17 0 0 0.175 0 0.02 0.175 0 0.04 0.175 0 0.06 0.175 0 0.08 0.175 0 0.1 0.175 0 0 0.18 0 0.02 0.18 0 0.04 0.18 0 0.06 0.18 0 0.08 0.18 0 0.1 0.18 0 0 0.185 0 0.02 0.185 0 0.04 0.185 0 0.06 0.185 0 0.08 0.185 0 0.1 0.185 0 0 0.19 0 0.02 0.19 0 0.04 0.19 0 0.06 0.19 0 0.08 0.19 0 0.1 0.19 0 0 0.195 0 0.02 0.195 0 0.04 0.195 0 0.06 0.195 0 0.08 0.195 0 0.1 0.195 0 0 0.2 0 0.02 0.2 0 0.04 0.2 0 0.06 0.2 0 0.08 0.2 0 0.1 0.2 0 0 0.205 0 0.02 0.205 0 0.04 0.205 0 0.06 0.205 0 0.08 0.205 0 0.1 0.205 0 0 0.21 0 0.02 0.21 0 0.04 0.21 0 0.06 0.21 0 0.08 0.21 0 0.1 0.21 0 0 0.215 0 0.02 0.215 0 0.04 0.215 0 0.06 0.215 0 0.08 0.215 0 0.1 0.215 0 0 0.22 0 0.02 0.22 0 0.04 0.22 0 0.06 0.22 0 0.08 0.22 0 0.1 0.22 0 0 0.225 0 0.02 0.225 0 0.04 0.225 0 0.06 0.225 0 0.08 0.225 0 0.1 0.225 0 0 0.23 0 0.02 0.23 0 0.04 0.23 0 0.06 0.23 0 0.08 0.23 0 0.1 0.23 0 0 0.235 0 0.02 0.235 0 0.04 0.235 0 0.06 0.235 0 0.08 0.235 0 0.1 0.235 0 0 0.24 0 0.02 0.24 0 0.04 0.24 0 0.06 0.24 0 0.08 0.24 0 0.1 0.24 0 0 0.245 0 0.02 0.245 0 0.04 0.245 0 0.06 0.245 0 0.08 0.245 0 0.1 0.245 0 0 0.25 0 0.02 0.25 0 0.04 0.25 0 0.06 0.25 0 0.08 0.25 0 0.1 0.25 0 0 0.255 0 0.02 0.255 0 0.04 0.255 0 0.06 0.255 0 0.08 0.255 0 0.1 0.255 0 0 0.26 0 0.02 0.26 0 0.04 0.26 0 0.06 0.26 0 0.08 0.26 0 0.1 0.26 0 0 0.265 0 0.02 0.265 0 0.04 0.265 0 0.06 0.265 0 0.08 0.265 0 0.1 0.265 0 0 0.27 0 0.02 0.27 0 0.04 0.27 0 0.06 0.27 0 0.08 0.27 0 0.1 0.27 0 0 0.275 0 0.02 0.275 0 0.04 0.275 0 0.06 0.275 0 0.08 0.275 0 0.1 0.275 0 0 0.28 0 0.02 0.28 0 0.04 0.28 0 0.06 0.28 0 0.08 0.28 0 0.1 0.28 0 0 0.285 0 0.02 0.285 0 0.04 0.285 0 0.06 0.285 0 0.08 0.285 0 0.1 0.285 0 0 0.290001 0 0.02 0.290001 0 0.04 0.290001 0 0.06 0.290001 0 0.08 0.290001 0 0.1 0.290001 0 0 0.295004 0 0.02 0.295004 0 0.04 0.295004 0 0.06 0.295004 0 0.08 0.295004 0 0.1 0.295004 0 0 0.300011 0 0.02 0.300011 0 0.04 0.300011 0 0.06 0.300011 0 0.08 0.300011 0 0.1 0.300011 0 0 0.305028 0 0.02 0.305028 0 0.04 0.305028 0 0.06 0.305028 0 0.08 0.305028 0 0.1 0.305028 0 0 0.310065 0 0.02 0.310065 0 0.04 0.310065 0 0.06 0.310065 0 0.08 0.310065 0 0.1 0.310065 0 0 0.315139 0 0.02 0.315139 0 0.04 0.315139 0 0.06 0.315139 0 0.08 0.315139 0 0.1 0.315139 0 0 0.320269 0 0.02 0.320269 0 0.04 0.320269 0 0.06 0.320269 0 0.08 0.320269 0 0.1 0.320269 0 0 0.325476 0 0.02 0.325476 0 0.04 0.325476 0 0.06 0.325476 0 0.08 0.325476 0 0.1 0.325476 0 0 0.330779 0 0.02 0.330779 0 0.04 0.330779 0 0.06 0.330779 0 0.08 0.330779 0 0.1 0.330779 0 0 0.336193 0 0.02 0.336193 0 0.04 0.336193 0 0.06 0.336193 0 0.08 0.336193 0 0.1 0.336193 0 0 0.341732 0 0.02 0.341732 0 0.04 0.341732 0 0.06 0.341732 0 0.08 0.341732 0 0.1 0.341732 0 0 0.347405 0 0.02 0.347405 0 0.04 0.347405 0 0.06 0.347405 0 0.08 0.347405 0 0.1 0.347405 0 0 0.353224 0 0.02 0.353224 0 0.04 0.353224 0 0.06 0.353224 0 0.08 0.353224 0 0.1 0.353224 0 0 0.359198 0 0.02 0.359198 0 0.04 0.359198 0 0.06 0.359198 0 0.08 0.359198 0 0.1 0.359198 0 0 0.36534 0 0.02 0.36534 0 0.04 0.36534 0 0.06 0.36534 0 0.08 0.36534 0 0.1 0.36534 0 0 0.37166 0 0.02 0.37166 0 0.04 0.37166 0 0.06 0.37166 0 0.08 0.37166 0 0.1 0.37166 0 0 0.378171 0 0.02 0.378171 0 0.04 0.378171 0 0.06 0.378171 0 0.08 0.378171 0 0.1 0.378171 0 0 0.384887 0 0.02 0.384887 0 0.04 0.384887 0 0.06 0.384887 0 0.08 0.384887 0 0.1 0.384887 0 0 0.391822 0 0.02 0.391822 0 0.04 0.391822 0 0.06 0.391822 0 0.08 0.391822 0 0.1 0.391822 0 0 0.398995 0 0.02 0.398995 0 0.04 0.398995 0 0.06 0.398995 0 0.08 0.398995 0 0.1 0.398995 0 0 0.406424 0 0.02 0.406424 0 0.04 0.406424 0 0.06 0.406424 0 0.08 0.406424 0 0.1 0.406424 0 0 0.414129 0 0.02 0.414129 0 0.04 0.414129 0 0.06 0.414129 0 0.08 0.414129 0 0.1 0.414129 0 0 0.422134 0 0.02 0.422134 0 0.04 0.422134 0 0.06 0.422134 0 0.08 0.422134 0 0.1 0.422134 0 0 0.430465 0 0.02 0.430465 0 0.04 0.430465 0 0.06 0.430465 0 0.08 0.430465 0 0.1 0.430465 0 0 0.439152 0 0.02 0.439152 0 0.04 0.439152 0 0.06 0.439152 0 0.08 0.439152 0 0.1 0.439152 0 0 0.448229 0 0.02 0.448229 0 0.04 0.448229 0 0.06 0.448229 0 0.08 0.448229 0 0.1 0.448229 0 0 0.457732 0 0.02 0.457732 0 0.04 0.457732 0 0.06 0.457732 0 0.08 0.457732 0 0.1 0.457732 0 0 0.467702 0 0.02 0.467702 0 0.04 0.467702 0 0.06 0.467702 0 0.08 0.467702 0 0.1 0.467702 0 0 0.478182 0 0.02 0.478182 0 0.04 0.478182 0 0.06 0.478182 0 0.08 0.478182 0 0.1 0.478182 0 0 0.489206 0 0.02 0.489206 0 0.04 0.489206 0 0.06 0.489206 0 0.08 0.489206 0 0.1 0.489206 0 0 0.500783 0 0.02 0.500783 0 0.04 0.500783 0 0.06 0.500783 0 0.08 0.500783 0 0.1 0.500783 0 0 0.512823 0 0.02 0.512823 0 0.04 0.512823 0 0.06 0.512823 0 0.08 0.512823 0 0.1 0.512823 0 0 0.525003 0 0.02 0.525003 0 0.04 0.525003 0 0.06 0.525003 0 0.08 0.525003 0 0.1 0.525003 0 0 0.537078 0 0.02 0.537078 0 0.04 0.537078 0 0.06 0.537078 0 0.08 0.537078 0 0.1 0.537078 0 0 0.549041 0 0.02 0.549041 0 0.04 0.549041 0 0.06 0.549041 0 0.08 0.549041 0 0.1 0.549041 0 0 0.560906 0 0.02 0.560906 0 0.04 0.560906 0 0.06 0.560906 0 0.08 0.560906 0 0.1 0.560906 0 0 0.572705 0 0.02 0.572705 0 0.04 0.572705 0 0.06 0.572705 0 0.08 0.572705 0 0.1 0.572705 0 0 0.584468 0 0.02 0.584468 0 0.04 0.584468 0 0.06 0.584468 0 0.08 0.584468 0 0.1 0.584468 0 0 0.596215 0 0.02 0.596215 0 0.04 0.596215 0 0.06 0.596215 0 0.08 0.596215 0 0.1 0.596215 0 0 0.607955 0 0.02 0.607955 0 0.04 0.607955 0 0.06 0.607955 0 0.08 0.607955 0 0.1 0.607955 0 0 0.619694 0 0.02 0.619694 0 0.04 0.619694 0 0.06 0.619694 0 0.08 0.619694 0 0.1 0.619694 0 0 0.631436 0 0.02 0.631436 0 0.04 0.631436 0 0.06 0.631436 0 0.08 0.631436 0 0.1 0.631436 0 0 0.64319 0 0.02 0.64319 0 0.04 0.64319 0 0.06 0.64319 0 0.08 0.64319 0 0.1 0.64319 0 0 0.645804 0 0.02 0.645804 0 0.04 0.645804 0 0.06 0.645804 0 0.08 0.645804 0 0.1 0.645804 0 0 0.648343 0 0.02 0.648343 0 0.04 0.648343 0 0.06 0.648343 0 0.08 0.648343 0 0.1 0.648343 0 0 0.650835 0 0.02 0.650835 0 0.04 0.650835 0 0.06 0.650835 0 0.08 0.650835 0 0.1 0.650835 0 0 0.653297 0 0.02 0.653297 0 0.04 0.653297 0 0.06 0.653297 0 0.08 0.653297 0 0.1 0.653297 0 0 0.655736 0 0.02 0.655736 0 0.04 0.655736 0 0.06 0.655736 0 0.08 0.655736 0 0.1 0.655736 0 0 0.658158 0 0.02 0.658158 0 0.04 0.658158 0 0.06 0.658158 0 0.08 0.658158 0 0.1 0.658158 0 0 0.660567 0 0.02 0.660567 0 0.04 0.660567 0 0.06 0.660567 0 0.08 0.660567 0 0.1 0.660567 0 0 0.662967 0 0.02 0.662967 0 0.04 0.662967 0 0.06 0.662967 0 0.08 0.662967 0 0.1 0.662967 0 0 0.66536 0 0.02 0.66536 0 0.04 0.66536 0 0.06 0.66536 0 0.08 0.66536 0 0.1 0.66536 0 0 0.667747 0 0.02 0.667747 0 0.04 0.667747 0 0.06 0.667747 0 0.08 0.667747 0 0.1 0.667747 0 0 0.670128 0 0.02 0.670128 0 0.04 0.670128 0 0.06 0.670128 0 0.08 0.670128 0 0.1 0.670128 0 0 0.672505 0 0.02 0.672505 0 0.04 0.672505 0 0.06 0.672505 0 0.08 0.672505 0 0.1 0.672505 0 0 0.674877 0 0.02 0.674877 0 0.04 0.674877 0 0.06 0.674877 0 0.08 0.674877 0 0.1 0.674877 0 0 0.677247 0 0.02 0.677247 0 0.04 0.677247 0 0.06 0.677247 0 0.08 0.677247 0 0.1 0.677247 0 0 0.679615 0 0.02 0.679615 0 0.04 0.679615 0 0.06 0.679615 0 0.08 0.679615 0 0.1 0.679615 0 0 0.68198 0 0.02 0.68198 0 0.04 0.68198 0 0.06 0.68198 0 0.08 0.68198 0 0.1 0.68198 0 0 0.684343 0 0.02 0.684343 0 0.04 0.684343 0 0.06 0.684343 0 0.08 0.684343 0 0.1 0.684343 0 0 0.686704 0 0.02 0.686704 0 0.04 0.686704 0 0.06 0.686704 0 0.08 0.686704 0 0.1 0.686704 0 0 0.689064 0 0.02 0.689064 0 0.04 0.689064 0 0.06 0.689064 0 0.08 0.689064 0 0.1 0.689064 0 0 0.691424 0 0.02 0.691424 0 0.04 0.691424 
[...]
			<PointData Scalars="VitesseX">
				<DataArray Name="VitesseX" type="Float32" format="ascii">
 0 1.24654e-15 4.58398e-15 2.12755e-15 3.17809e-15 0 0 1.83459e-15 3.61328e-15 2.75026e-15 2.3934e-15 0 0 2.2833e-15 2.66071e-15 3.27762e-15 1.42399e-15 0 0 2.20352e-15 2.73975e-15 2.90125e-15 8.31002e-16 0 0 2.41261e-15 2.3791e-15 2.44545e-15 7.22015e-16 0 0 2.067e-15 3.22848e-15 8.46715e-16 2.72086e-15 0 0 2.32557e-15 3.71574e-15 8.13266e-18 3.3895e-15 0 0 1.89018e-15 4.15208e-15 6.56495e-16 1.62205e-15 0 0 1.37625e-16 5.70606e-15 2.08907e-15 -3.5292e-16 0 0 -2.74594e-17 6.81002e-15 2.40814e-15 -1.96923e-15 0 0 9.47422e-16 6.20682e-15 1.94492e-15 -2.90594e-15 0 0 1.95859e-15 3.20493e-15 2.55997e-15 -2.13825e-15 0 0 1.27438e-15 1.37873e-15 4.34112e-15 -2.95047e-15 0 0 -2.45327e-16 -7.36969e-17 4.41976e-15 -5.62213e-15 0 0 4.30389e-16 -1.36085e-15 2.99611e-15 -6.36092e-15 0 0 1.98657e-15 -1.07414e-15 1.82744e-15 -4.87883e-15 0 0 -1.08458e-15 2.90894e-15 1.69878e-15 -5.89538e-15 0 0 -3.4793e-15 6.23779e-15 1.74574e-15 -3.37e-15 0 0 -1.90725e-16 2.09901e-15 1.21598e-15 1.12966e-15 0 0 -1.15656e-15 -1.56857e-15 1.44705e-15 1.62984e-15 0 0 -5.44264e-15 5.24642e-16 -1.21609e-15 2.58423e-15 0 0 -4.28738e-15 3.34262e-15 -7.11587e-15 3.93927e-15 0 0 2.07236e-15 -5.08655e-15 -5.9544e-16 9.14706e-16 0 0 -3.32827e-15 -3.96097e-15 -1.96052e-15 6.49604e-15 0 0 -7.37823e-15 -4.10441e-15 1.44588e-16 1.20155e-14 0 0 -6.40307e-15 -7.91075e-15 1.14517e-14 8.39228e-15 0 0 -2.45364e-15 -6.51499e-15 3.91913e-15 1.34595e-14 0 0 -6.14234e-18 -4.72749e-15 -4.1241e-15 1.77431e-14 0 0 -2.05346e-15 -2.13127e-15 -5.36993e-15 1.66878e-14 0 0 -3.06042e-16 -3.06618e-15 -1.18929e-14 1.46748e-14 0 0 -3.14931e-15 -8.03737e-16 -1.24569e-14 6.55847e-15 0 0 1.15705e-15 1.38884e-15 -1.13823e-14 2.33568e-16 0 0 -5.19851e-17 5.58441e-15 -1.48763e-14 2.26159e-15 0 0 -5.54226e-15 2.38374e-15 -3.35111e-15 -2.43497e-15 0 0 4.00174e-15 -9.35928e-15 4.27432e-15 -9.31161e-15 0 0 9.74372e-15 -1.10366e-14 -3.61951e-15 -7.00556e-15 0 0 2.93836e-15 -5.95391e-15 -3.11815e-15 -4.22214e-15 0 0 3.12388e-15 -5.96969e-15 1.44988e-15 -1.68393e-16 0 0 2.32329e-15 -1.34932e-15 -2.14937e-15 1.64412e-15 0 0 2.94552e-16 -3.46077e-15 -2.46194e-15 5.84908e-15 0 0 3.44358e-15 -7.4644e-15 -5.06876e-15 1.19132e-14 0 0 -1.64011e-15 3.16864e-15 -3.04527e-15 4.41458e-15 0 0 -1.08751e-14 1.58668e-14 -2.92437e-15 7.33025e-15 0 0 -4.52352e-15 6.43962e-15 6.47784e-15 2.2502e-14 0 0 1.04747e-14 -7.97868e-16 2.01701e-14 2.35707e-14 0 0 1.24738e-14 -2.37555e-15 2.01393e-14 2.23962e-14 0 0 -3.71149e-16 -1.15584e-14 1.84105e-14 1.80724e-14 0 0 -3.67322e-15 -5.94234e-15 1.02659e-14 1.21857e-16 0 0 -6.59353e-16 4.0637e-15 -1.72181e-14 -1.20008e-15 0 0 3.84839e-15 8.38979e-15 -4.55665e-14 -2.57115e-15 0 0 2.40437e-14 -1.09008e-15 -3.9219e-14 -1.85693e-14 0 0 -1.22747e-14 3.31455e-15 -1.46549e-14 -6.9749e-15 0 0 -1.84871e-14 5.13565e-15 1.11271e-14 -1.85507e-14 0 0 -5.64536e-15 -2.95108e-15 -3.81653e-15 -1.71733e-14 0 0 -1.22773e-14 -1.05363e-14 -2.30572e-14 5.05084e-15 0 0 1.23123e-14 -1.49007e-14 -1.06548e-14 -2.12667e-14 0 0 6.87391e-15 -2.14178e-15 -1.09068e-14 -3.498e-14 0 0 3.70769e-15 2.80065e-15 -2.33278e-14 -1.61059e-14 0 0 4.13432e-16 -1.33673e-15 -2.12695e-14 -1.46506e-14 0 0 -1.41356e-14 -4.9894e-16 -3.83712e-14 2.91189e-15 0 0 -5.49823e-15 -1.34545e-14 -5.26588e-14 2.99955e-14 0 0 7.86993e-15 -2.19415e-14 -2.69048e-14 1.74727e-14 0 0 1.62448e-14 -1.59695e-14 -1.80656e-14 1.1299e-14 0 0 1.79216e-14 -1.28337e-14 -1.93772e-14 -1.5675e-15 0 0 -3.62341e-15 4.12335e-15 -1.69268e-15 -2.68799e-14 0 0 -4.97947e-15 8.11128e-15 9.80763e-15 -2.08006e-14 0 0 -3.2457e-15 -5.69586e-15 9.59252e-15 -1.31082e-14 0 0 -1.13565e-14 -3.14417e-15 9.22064e-15 -2.291e-14 0 0 6.67032e-15 -2.16954e-14 1.94354e-14 -2.21963e-14 0 0 1.24685e-14 -2.56594e-14 2.55455e-14 -2.41771e-14 0 0 -6.19223e-15 1.94245e-15 8.41296e-15 -1.48539e-15 0 0 -3.32926e-15 3.47267e-15 -6.95804e-15 2.36665e-14 0 0 1.10766e-14 3.3121e-15 -2.25135e-14 1.67313e-14 0 0 -9.32519e-17 -1.27296e-14 -1.98616e-15 -4.25002e-17 0 0 -2.10391e-14 -1.46864e-14 3.00671e-14 -8.02919e-16 0 0 -1.77274e-14 5.87653e-15 2.54502e-14 -1.07427e-15 0 0 1.05876e-14 -1.189e-14 6.23206e-15 3.44286e-15 0 0 4.52978e-15 -1.06901e-14 -1.04678e-14 1.22567e-14 0 0 -7.82142e-15 -5.04952e-15 -9.22024e-16 1.54337e-14 0 0 2.7234e-15 1.44455e-15 -1.59586e-14 2.26928e-14 0 0 -3.53604e-15 1.21775e-14 -4.4339e-15 1.35999e-14 0 0 -6.91993e-15 1.2355e-14 -7.04159e-15 2.99064e-15 0 0 -3.25739e-14 2.73492e-14 -4.82391e-15 -2.02329e-14 0 0 -2.92314e-14 2.61889e-15 1.70956e-14 -1.16609e-14 0 0 7.93812e-15 3.07627e-15 -1.98154e-14 1.86193e-14 0 0 1.6225e-14 8.23713e-15 7.21312e-15 -5.92854e-15 0 0 -1.34211e-14 9.80801e-15 2.41984e-14 -1.52257e-16 0 0 -2.28348e-14 9.53189e-15 1.43012e-15 1.67999e-14 0 0 1.12507e-14 -4.40928e-15 -1.63217e-14 9.37559e-15 0 0 8.90252e-15 6.624e-15 -1.7014e-14 -2.77875e-15 0 0 2.87052e-15 2.75435e-14 6.50527e-15 1.28598e-14 0 0 2.46163e-14 3.34094e-14 1.35614e-14 1.26185e-14 0 0 3.90345e-14 5.76844e-14 4.56647e-14 1.55262e-14 0 0 3.86843e-14 8.78834e-14 6.86805e-14 3.34396e-14 0 0 4.61805e-14 7.1699e-14 7.59536e-14 4.56673e-14 0 0 2.9502e-14 6.11193e-14 5.03561e-14 4.04495e-14 0 0 1.18556e-14 2.53859e-14 2.72691e-14 1.53027e-14 0 0 -2.18278e-15 -2.99293e-14 -3.33654e-16 -1.42436e-14 0 0 -2.37673e-14 -3.92555e-14 -3.2932e-14 -2.35783e-14 0 0 -2.29658e-14 -3.39898e-14 -3.26886e-14 -1.94769e-14 0 0 -7.71638e-15 -3.36239e-14 -3.4169e-14 -2.17049e-15 0 0 -2.20244e-14 4.71399e-15 -3.78817e-14 2.16738e-14 0 0 -2.53119e-14 1.26501e-14 -4.39768e-14 7.33163e-14 0 0 -9.83192e-15 7.07988e-15 8.00849e-15 5.05809e-14 0 0 -1.41006e-15 2.35822e-14 8.28244e-15 8.30115e-14 0 0 6.20282e-15 4.64664e-14 3.48528e-14 4.6654e-14 0 0 1.53432e-14 5.42604e-14 7.23687e-14 4.89335e-14 0 0 -3.36693e-14 7.68439e-15 2.25371e-14 3.12728e-14 0 0 -1.19249e-13 -1.38258e-13 -1.12333e-13 -8.16124e-14 0 0 -2.38702e-13 -3.69259e-13 -3.361e-13 -1.98626e-13 0 0 -3.8281e-13 -5.72958e-13 -5.77373e-13 -3.48042e-13 0 0 -4.79707e-13 -7.13841e-13 -7.01305e-13 -4.31374e-13 0 0 -4.87063e-13 -7.51411e-13 -7.15236e-13 -4.39263e-13 0 0 -4.46885e-13 -6.9162e-13 -6.90528e-13 -3.98624e-13 0 0 -4.03063e-13 -6.23882e-13 -6.1093e-13 -3.22547e-13 0 0 -3.3843e-13 -5.50009e-13 -4.99012e-13 -3.11498e-13 0 0 -2.78088e-13 -4.68551e-13 -4.2446e-13 -2.62291e-13 0 0 -2.34657e-13 -3.94522e-13 -3.59365e-13 -1.66626e-13 0 0 -1.99103e-13 -3.1314e-13 -2.85936e-13 -1.7194e-13 0 0 -1.64545e-13 -2.3934e-13 -2.59924e-13 -1.34118e-13 0 0 -1.30101e-13 -2.2758e-13 -2.18524e-13 -8.95377e-14 0 0 -9.51601e-14 -1.95957e-13 -1.45415e-13 -1.02758e-13 0 0 -7.07525e-14 -1.40185e-13 -1.46254e-13 -5.75712e-14 0 0 -6.45454e-14 -9.95825e-14 -1.55729e-13 -1.39144e-14 0 0 -6.16296e-14 -7.48355e-14 -1.45995e-13 3.4635e-14 0 0 -4.62316e-14 -7.16714e-14 -1.66561e-13 8.79611e-14 0 0 -3.99562e-14 -6.60562e-14 -1.38988e-13 4.19308e-14 0 0 -3.67209e-14 -2.6221e-14 -1.41427e-13 4.48664e-15 0 0 -3.04804e-14 -9.57678e-15 -1.12617e-13 -3.92537e-15 0 0 -3.77021e-14 8.08276e-15 -9.4288e-14 -6.30319e-15 0 0 -3.48445e-14 -2.00172e-14 -6.39709e-14 -1.56479e-14 0 0 -1.44525e-14 -1.51285e-14 -3.49535e-14 -4.703e-14 0 0 -4.10068e-14 1.86972e-14 -5.92833e-14 -8.36523e-15 0 0 -3.25593e-14 -1.55029e-14 -2.67825e-14 4.70586e-15 0 0 1.05545e-14 -5.2807e-14 4.50034e-15 -6.21101e-15 0 0 1.51609e-14 -4.75121e-14 -2.90685e-14 -2.13616e-14 0 0 -2.19596e-14 3.36061e-14 -8.00955e-14 -8.94003e-15 0 0 -6.2746e-14 1.06037e-13 -9.81866e-14 8.63859e-14 0 0 -1.3783e-14 6.27606e-14 -1.58736e-14 2.63224e-14 0 0 6.31381e-14 8.24425e-15 9.02393e-15 -2.73868e-15 0 0 4.60295e-14 3.91978e-14 1.19062e-14 9.4998e-14 0 0 1.45776e-14 9.08366e-14 6.61687e-14 4.56931e-14 0 0 -1.30585e-14 1.23739e-13 1.06043e-13 2.62251e-14 0 0 -2.23927e-14 1.51798e-13 1.1118e-13 8.61192e-14 0 0 1.38411e-15 1.58968e-13 1.01478e-13 7.12128e-14 0 0 5.16778e-14 1.43127e-13 1.2212e-13 5.98507e-14 0 0 5.1396e-14 1.00196e-13 1.42714e-13 9.53629e-14 0 0 9.33943e-14 7.02614e-14 1.64888e-13 1.20964e-13 0 0 8.25972e-14 6.00774e-14 1.82017e-13 1.51607e-13 0 0 4.15928e-14 1.16302e-13 1.76154e-13 1.41583e-13 0 0 4.3654e-14 1.06605e-13 1.2451e-13 1.67765e-13 0 0 3.32845e-14 6.59292e-14 1.1189e-13 1.6478e-13 0 0 3.92624e-14 4.33232e-14 1.4002e-13 1.39938e-13 0 0 2.69773e-15 4.159e-14 1.16395e-13 5.44538e-15 0 0 1.99447e-14 5.15347e-14 1.85095e-14 -5.20508e-14 0 0 -3.60822e-15 1.31523e-14 1.54705e-14 2.62803e-14 0 0 -3.04108e-14 -2.6555e-14 2.28789e-14 -3.83932e-14 0 0 -3.12914e-14 -2.95163e-15 -3.38291e-14 -7.3684e-14 0 0 -5.0889e-14 -2.26444e-14 -4.80992e-14 -8.55493e-14 0 0 -4.37865e-14 -7.3393e-14 -3.5213e-14 -4.58189e-14 0 0 -3.50922e-14 -8.97197e-14 -5.5507e-14 -3.48404e-14 0 0 -4.30025e-14 -9.35846e-14 -5.26739e-14 -7.3666e-14 0 0 -4.76934e-14 -7.22176e-14 -8.24389e-14 -5.30686e-14 0 0 -4.86696e-14 -6.78738e-14 -9.82465e-14 -5.45733e-14 0 0 -6.37899e-14 -5.95434e-14 -7.88662e-14 -7.01038e-14 0 0 -7.31058e-14 -3.69205e-14 -1.04697e-13 -4.46292e-14 0 0 -4.299e-14 -8.78653e-14 -6.48516e-14 -4.38278e-14 0 0 -3.18409e-14 -1.14383e-13 3.79483e-15 -1.09449e-13 0 0 -4.8319e-14 -7.94498e-14 -4.08048e-14 -9.30397e-14 0 0 -4.72476e-14 -8.39411e-14 -7.10484e-14 -3.04171e-14 0 0 -4.27068e-14 -9.26939e-14 -4.71907e-14 -5.29322e-14 0 0 -4.79442e-14 -7.05818e-14 -5.00371e-14 -7.56654e-14 0 0 -3.5924e-14 -9.18558e-14 -3.74901e-14 -4.766e-14 0 0 -4.45902e-14 -8.78765e-14 -2.45583e-14 -3.37923e-14 0 0 -7.15385e-14 -3.50352e-14 -3.11924e-14 -5.84592e-14 0 0 -6.12585e-14 -3.40808e-14 -2.58409e-14 -4.94275e-14 0 0 -5.46669e-14 -4.72479e-14 -2.16258e-14 -4.30516e-15 0 0 -5.03e-14 -5.18082e-14 -7.68335e-16 -1.19877e-14 0 0 -5.33363e-14 -1.14351e-14 -4.09273e-14 -2.72181e-15 0 0 -4.72077e-14 7.99955e-15 -5.45809e-14 5.55069e-15 0 0 -2.75816e-14 -2.96209e-14 -2.27404e-14 1.78926e-14 0 0 -2.38292e-14 -1.24883e-14 -3.45113e-14 -3.42763e-15 0 0 -7.59461e-15 -2.67621e-14 -7.40244e-15 -4.61292e-14 0 0 -1.92623e-14 -1.39916e-14 -6.91296e-14 1.81423e-14 0 0 -5.92789e-14 3.61803e-14 -1.56e-13 8.90928e-14 0 0 -8.50347e-14 1.95294e-14 -1.1012e-13 6.32784e-14 0 0 -5.00086e-14 -3.87287e-14 -1.75119e-14 -3.07704e-14 0 0 1.26299e-14 -1.05994e-13 2.66343e-14 -5.42136e-14 0 0 1.70566e-14 -1.15207e-13 3.31489e-14 -5.70926e-14 0 0 -7.91156e-15 -8.24335e-14 4.51885e-14 -5.63152e-14 0 0 1.76073e-14 -1.24746e-13 1.0537e-13 -7.95528e-14 0 0 4.80647e-15 -1.16979e-13 1.05197e-13 -4.30013e-14 0 0 -4.83059e-14 -1.73511e-14 6.00308e-14 4.33402e-15 0 0 -6.62528e-15 -2.42036e-14 7.24344e-14 -2.86397e-14 0 0 -2.92302e-15 -3.43121e-14 6.20296e-14 -2.97791e-14 0 0 -5.12157e-14 -3.09756e-15 2.11629e-14 -9.14962e-15 0 0 -1.32773e-14 -6.80128e-14 5.22183e-14 -3.91991e-14 0 0 -2.45008e-15 -8.75268e-14 5.41429e-14 -4.22442e-14 0 0 -4.00266e-14 -3.94222e-14 2.84505e-15 -1.87254e-14 0 0 -3.44195e-14 -3.87081e-14 -1.30207e-14 -2.38864e-14 0 0 -2.69472e-14 -3.8592e-14 -3.13784e-14 -5.16562e-15 0
				</DataArray>
				<DataArray Name="VitesseY" type="Float32" format="ascii">