<?xml version="1.0"?>
<VTKFile type="PolyData">
	<PolyData>
		<Piece NumberOfPoints="1206" NumberOfPolys="1000">
			<Points>
				<DataArray type="Float32" NumberOfComponents="3" format="ascii">
 0 0 0 0.02 0 0 0.04 0 0 0.06 0 0 0.08 0 0 0.1 0 0 0 0.005 0 0.02 0.005 0 0.04 0.005 0 0.06 0.005 0 0.08 0.005 0 0.1 0.005 0 0 0.01 0 0.02 0.01 0 0.04 0.01 0 0.06 0.01 0 0.08 0.01 0 0.1 0.01 0 0 0.015 0 0.02 0.015 0 0.04 0.015 0 0.06 0.015 0 0.08 0.015 0 0.1 0.015 0 0 0.02 0 0.02 0.02 0 0.04 0.02 0 0.06 0.02 0 0.08 0.02 0 0.1 0.02 0 0 0.025 0 0.02 0.025 0 0.04 0.025 0 0.06 0.025 0 0.08 0.025 0 0.1 0.025 0 0 0.03 0 0.02 0.03 0 0.04 0.03 0 0.06 0.03 0 0.08 0.03 0 0.1 0.03 0 0 0.035 0 0.02 0.035 0 0.04 0.035 0 0.06 0.035 0 0.08 0.035 0 0.1 0.035 0 0 0.04 0 0.02 0.04 0 0.04 0.04 0 0.06 0.04 0 0.08 0.04 0 0.1 0.04 0 0 0.045 0 0.02 0.045 0 0.04 0.045 0 0.06 0.045 0 0.08 0.045 0 0.1 0.045 0 0 0.05 0 0.02 0.05 0 0.04 0.05 0 0.06 0.05 0 0.08 0.05 0 0.1 0.05 0 0 0.055 0 0.02 0.055 0 0.04 0.055 0 0.06 0.055 0 0.08 0.055 0 0.1 0.055 0 0 0.06 0 0.02 0.06 0 0.04 0.06 0 0.06 0.06 0 0.08 0.06 0 0.1 0.06 0 0 0.065 0 0.02 0.065 0 0.04 0.065 0 0.06 0.065 0 0.08 0.065 0 0.1 0.065 0 0 0.07 0 0.02 0.07 0 0.04 0.07 0 0.06 0.07 0 0.08 0.07 0 0.1 0.07 0 0 0.075 0 0.02 0.075 0 0.04 0.075 0 0.06 0.075 0 0.08 0.075 0 0.1 0.075 0 0 0.08 0 0.02 0.08 0 0.04 0.08 0 0.06 0.08 0 0.08 0.08 0 0.1 0.08 0 0 0.085 0 0.02 0.085 0 0.04 0.085 0 0.06 0.085 0 0.08 0.085 0 0.1 0.085 0 0 0.09 0 0.02 0.09 0 0.04 0.09 0 0.06 0.09 0 0.08 0.09 0 0.1 0.09 0 0 0.095 0 0.02 0.095 0 0.04 0.095 0 0.06 0.095 0 0.08 0.095 0 0.1 0.095 0 0 0.1 0 0.02 0.1 0 0.04 0.1 0 0.06 0.1 0 0.08 0.1 0 0.1 0.1 0 0 0.105 0 0.02 0.105 0 0.04 0.105 0 0.06 0.105 0 0.08 0.105 0 0.1 0.105 0 0 0.11 0 0.02 0.11 0 0.04 0.11 0 0.06 0.11 0 0.08 0.11 0 0.1 0.11 0 0 0.115 0 0.02 0.115 0 0.04 0.115 0 0.06 0.115 0 0.08 0.115 0 0.1 0.115 0 0 0.12 0 0.02 0.12 0 0.04 0.12 0 0.06 0.12 0 0.08 0.12 0 0.1 0.12 0 0 0.125 0 0.02 0.125 0 0.04 0.125 0 0.06 0.125 0 0.08 0.125 0 0.1 0.125 0 0 0.13 0 0.02 0.13 0 0.04 0.13 0 0.06 0.13 0 0.08 0.13 0 0.1 0.13 0 0 0.135 0 0.02 0.135 0 0.04 0.135 0 0.06 0.135 0 0.08 0.135 0 0.1 0.135 0 0 0.14 0 0.02 0.14 0 0.04 0.14 0 0.06 0.14 0 0.08 0.14 0 0.1 0.14 0 0 0.145 0 0.02 0.145 0 0.04 0.145 0 0.06 0.145 0 0.08 0.145 0 0.1 0.145 0 0 0.15 0 0.02 0.15 0 0.04 0.15 0 0.06 0.15 0 0.08 0.15 0 0.1 0.15 0 0 0.155 0 0.02 0.155 0 0.04 0.155 0 0.06 0.155 0 0.08 0.155 0 0.1 0.155 0 0 0.16 0 0.02 0.16 0 0.04 0.16 0 0.06 0.16 0 0.08 0.16 0 0.1 0.16 0 0 0.165 0 0.02 0.165 0 0.04 0.165 0 0.06 0.165 0 0.08 0.165 0 0.1 0.165 0 0 0.17 0 0.02 0.17 0 0.04 0.17 0 0.06 0.17 0 0.08 0.17 0 0.1 0.17 0 0 0.175 0 0.02 0.175 0 0.04 0.175 0 0.06 0.175 0 0.08 0.175 0 0.1 0.175 0 0 0.18 0 0.02 0.18 0 0.04 0.18 0 0.06 0.18 0 0.08 0.18 0 0.1 0.18 0 0 0.185 0 0.02 0.185 0 0.04 0.185 0 0.06 0.185 0 0.08 0.185 0 0.1 0.185 0 0 0.19 0 0.02 0.19 0 0.04 0.19 0 0.06 0.19 0 0.08 0.19 0 0.1 0.19 0 0 0.195 0 0.02 0.195 0 0.04 0.195 0 0.06 0.195 0 0.08 0.195 0 0.1 0.195 0 0 0.2 0 0.02 0.2 0 0.04 0.2 0 0.06 0.2 0 0.08 0.2 0 0.1 0.2 0 0 0.205 0 0.02 0.205 0 0.04 0.205 0 0.06 0.205 0 0.08 0.205 0 0.1 0.205 0 0 0.21 0 0.02 0.21 0 0.04 0.21 0 0.06 0.21 0 0.08 0.21 0 0.1 0.21 0 0 0.215 0 0.02 0.215 0 0.04 0.215 0 0.06 0.215 0 0.08 0.215 0 0.1 0.215 0 0 0.22 0 0.02 0.22 0 0.04 0.22 0 0.06 0.22 0 0.08 0.22 0 0.1 0.22 0 0 0.225 0 0.02 0.225 0 0.04 0.225 0 0.06 0.225 0 0.08 0.225 0 0.1 0.225 0 0 0.23 0 0.02 0.23 0 0.04 0.23 0 0.06 0.23 0 0.08 0.23 0 0.1 0.23 0 0 0.235 0 0.02 0.235 0 0.04 0.235 0 0.06 0.235 0 0.08 0.235 0 0.1 0.235 0 0 0.24 0 0.02 0.24 0 0.04 0.24 0 0.06 0.24 0 0.08 0.24 0 0.1 0.24 0 0 0.245 0 0.02 0.245 0 0.04 0.245 0 0.06 0.245 0 0.08 0.245 0 0.1 0.245 0 0 0.25 0 0.02 0.25 0 0.04 0.25 0 0.06 0.25 0 0.08 0.25 0 0.1 0.25 0 0 0.255 0 0.02 0.255 0 0.04 0.255 0 0.06 0.255 0 0.08 0.255 0 0.1 0.255 0 0 0.26 0 0.02 0.26 0 0.04 0.26 0 0.06 0.26 0 0.08 0.26 0 0.1 0.26 0 0 0.265001 0 0.02 0.265001 0 0.04 0.265001 0 0.06 0.265001 0 0.08 0.265001 0 0.1 0.265001 0 0 0.270004 0 0.02 0.270004 0 0.04 0.270004 0 0.06 0.270004 0 0.08 0.270004 0 0.1 0.270004 0 0 0.275011 0 0.02 0.275011 0 0.04 0.275011 0 0.06 0.275011 0 0.08 0.275011 0 0.1 0.275011 0 0 0.280027 0 0.02 0.280027 0 0.04 0.280027 0 0.06 0.280027 0 0.08 0.280027 0 0.1 0.280027 0 0 0.285061 0 0.02 0.285061 0 0.04 0.285061 0 0.06 0.285061 0 0.08 0.285061 0 0.1 0.285061 0 0 0.290127 0 0.02 0.290127 0 0.04 0.290127 0 0.06 0.290127 0 0.08 0.290127 0 0.1 0.290127 0 0 0.295241 0 0.02 0.295241 0 0.04 0.295241 0 0.06 0.295241 0 0.08 0.295241 0 0.1 0.295241 0 0 0.300421 0 0.02 0.300421 0 0.04 0.300421 0 0.06 0.300421 0 0.08 0.300421 0 0.1 0.300421 0 0 0.305682 0 0.02 0.305682 0 0.04 0.305682 0 0.06 0.305682 0 0.08 0.305682 0 0.1 0.305682 0 0 0.311037 0 0.02 0.311037 0 0.04 0.311037 0 0.06 0.311037 0 0.08 0.311037 0 0.1 0.311037 0 0 0.316499 0 0.02 0.316499 0 0.04 0.316499 0 0.06 0.316499 0 0.08 0.316499 0 0.1 0.316499 0 0 0.322074 0 0.02 0.322074 0 0.04 0.322074 0 0.06 0.322074 0 0.08 0.322074 0 0.1 0.322074 0 0 0.327772 0 0.02 0.327772 0 0.04 0.327772 0 0.06 0.327772 0 0.08 0.327772 0 0.1 0.327772 0 0 0.3336 0 0.02 0.3336 0 0.04 0.3336 0 0.06 0.3336 0 0.08 0.3336 0 0.1 0.3336 0 0 0.339566 0 0.02 0.339566 0 0.04 0.339566 0 0.06 0.339566 0 0.08 0.339566 0 0.1 0.339566 0 0 0.34568 0 0.02 0.34568 0 0.04 0.34568 0 0.06 0.34568 0 0.08 0.34568 0 0.1 0.34568 0 0 0.351949 0 0.02 0.351949 0 0.04 0.351949 0 0.06 0.351949 0 0.08 0.351949 0 0.1 0.351949 0 0 0.358384 0 0.02 0.358384 0 0.04 0.358384 0 0.06 0.358384 0 0.08 0.358384 0 0.1 0.358384 0 0 0.364994 0 0.02 0.364994 0 0.04 0.364994 0 0.06 0.364994 0 0.08 0.364994 0 0.1 0.364994 0 0 0.371791 0 0.02 0.371791 0 0.04 0.371791 0 0.06 0.371791 0 0.08 0.371791 0 0.1 0.371791 0 0 0.378788 0 0.02 0.378788 0 0.04 0.378788 0 0.06 0.378788 0 0.08 0.378788 0 0.1 0.378788 0 0 0.385997 0 0.02 0.385997 0 0.04 0.385997 0 0.06 0.385997 0 0.08 0.385997 0 0.1 0.385997 0 0 0.393435 0 0.02 0.393435 0 0.04 0.393435 0 0.06 0.393435 0 0.08 0.393435 0 0.1 0.393435 0 0 0.401116 0 0.02 0.401116 0 0.04 0.401116 0 0.06 0.401116 0 0.08 0.401116 0 0.1 0.401116 0 0 0.409059 0 0.02 0.409059 0 0.04 0.409059 0 0.06 0.409059 0 0.08 0.409059 0 0.1 0.409059 0 0 0.417286 0 0.02 0.417286 0 0.04 0.417286 0 0.06 0.417286 0 0.08 0.417286 0 0.1 0.417286 0 0 0.425817 0 0.02 0.425817 0 0.04 0.425817 0 0.06 0.425817 0 0.08 0.425817 0 0.1 0.425817 0 0 0.434678 0 0.02 0.434678 0 0.04 0.434678 0 0.06 0.434678 0 0.08 0.434678 0 0.1 0.434678 0 0 0.443897 0 0.02 0.443897 0 0.04 0.443897 0 0.06 0.443897 0 0.08 0.443897 0 0.1 0.443897 0 0 0.453504 0 0.02 0.453504 0 0.04 0.453504 0 0.06 0.453504 0 0.08 0.453504 0 0.1 0.453504 0 0 0.463532 0 0.02 0.463532 0 0.04 0.463532 0 0.06 0.463532 0 0.08 0.463532 0 0.1 0.463532 0 0 0.474015 0 0.02 0.474015 0 0.04 0.474015 0 0.06 0.474015 0 0.08 0.474015 0 0.1 0.474015 0 0 0.484983 0 0.02 0.484983 0 0.04 0.484983 0 0.06 0.484983 0 0.08 0.484983 0 0.1 0.484983 0 0 0.496446 0 0.02 0.496446 0 0.04 0.496446 0 0.06 0.496446 0 0.08 0.496446 0 0.1 0.496446 0 0 0.508357 0 0.02 0.508357 0 0.04 0.508357 0 0.06 0.508357 0 0.08 0.508357 0 0.1 0.508357 0 0 0.520503 0 0.02 0.520503 0 0.04 0.520503 0 0.06 0.520503 0 0.08 0.520503 0 0.1 0.520503 0 0 0.532591 0 0.02 0.532591 0 0.04 0.532591 0 0.06 0.532591 0 0.08 0.532591 0 0.1 0.532591 0 0 0.544584 0 0.02 0.544584 0 0.04 0.544584 0 0.06 0.544584 0 0.08 0.544584 0 0.1 0.544584 0 0 0.556483 0 0.02 0.556483 0 0.04 0.556483 0 0.06 0.556483 0 0.08 0.556483 0 0.1 0.556483 0 0 0.56831 0 0.02 0.56831 0 0.04 0.56831 0 0.06 0.56831 0 0.08 0.56831 0 0.1 0.56831 0 0 0.580092 0 0.02 0.580092 0 0.04 0.580092 0 0.06 0.580092 0 0.08 0.580092 0 0.1 0.580092 0 0 0.59185 0 0.02 0.59185 0 0.04 0.59185 0 0.06 0.59185 0 0.08 0.59185 0 0.1 0.59185 0 0 0.603596 0 0.02 0.603596 0 0.04 0.603596 0 0.06 0.603596 0 0.08 0.603596 0 0.1 0.603596 0 0 0.615337 0 0.02 0.615337 0 0.04 0.615337 0 0.06 0.615337 0 0.08 0.615337 0 0.1 0.615337 0 0 0.627076 0 0.02 0.627076 0 0.04 0.627076 0 0.06 0.627076 0 0.08 0.627076 0 0.1 0.627076 0 0 0.638814 0 0.02 0.638814 0 0.04 0.638814 0 0.06 0.638814 0 0.08 0.638814 0 0.1 0.638814 0 0 0.650554 0 0.02 0.650554 0 0.04 0.650554 0 0.06 0.650554 0 0.08 0.650554 0 0.1 0.650554 0 0 0.662307 0 0.02 0.662307 0 0.04 0.662307 0 0.06 0.662307 0 0.08 0.662307 0 0.1 0.662307 0 0 0.66492 0 0.02 0.66492 0 0.04 0.66492 0 0.06 0.66492 0 0.08 0.66492 0 0.1 0.66492 0 0 0.667458 0 0.02 0.667458 0 0.04 0.667458 0 0.06 0.667458 0 0.08 0.667458 0 0.1 0.667458 0 0 0.669949 0 0.02 0.669949 0 0.04 0.669949 0 0.06 0.669949 0 0.08 0.669949 0 0.1 0.669949 0 0 0.672409 0 0.02 0.672409 0 0.04 0.672409 0 0.06 0.672409 0 0.08 0.672409 0 0.1 0.672409 0 0 0.674847 0 0.02 0.674847 0 0.04 0.674847 0 0.06 0.674847 0 0.08 0.674847 0 0.1 0.674847 0 0 0.677269 0 0.02 0.677269 0 0.04 0.677269 0 0.06 0.677269 0 0.08 0.677269 0 0.1 0.677269 0 0 0.679678 0 0.02 0.679678 0 0.04 0.679678 0 0.06 0.679678 0 0.08 0.679678 0 0.1 0.679678 0 0 0.682078 0 0.02 0.682078 0 0.04 0.682078 0 0.06 0.682078 0 0.08 0.682078 0 0.1 0.682078 0 0 0.684472 0 0.02 0.684472 0 0.04 0.684472 0 0.06 0.684472 0 0.08 0.684472 0 0.1 0.684472 0 0 0.68686 0 0.02 0.68686 0 0.04 0.68686 0 0.06 0.68686 0 0.08 0.68686 0 0.1 0.68686 0 0 0.689244 0 0.02 0.689244 0 0.04 0.689244 0 0.06 0.689244 0 0.08 0.689244 0 0.1 0.689244 0 0 0.691624 0 0.02 0.691624 0 0.04 0.691624 0 0.06 0.691624 0 0.08 0.691624 0 0.1 0.691624 0 0 0.694001 0 0.02 0.694001 0 0.04 0.694001 0 0.06 0.694001 0 0.08 0.694001 0 0.1 0.694001 0 0 0.696375 0 0.02 0.696375 0 0.04 0.696375 0 0.06 0.696375 0 0.08 0.696375 0 0.1 0.696375 0 0 0.698746 0 0.02 0.698746 0 0.04 0.698746 0 0.06 0.698746 0 0.08 0.698746 0 0.1 0.698746 0 0 0.701114 0 0.02 0.701114 0 0.04 0.701114 0 0.06 0.701114 0 0.08 0.701114 0 0.1 0.701114 0 0 0.70348 0 0.02 0.70348 0 0.04 0.70348 0 0.06 0.70348 0 0.08 0.70348 0 0.1 0.70348 0 0 0.705844 0 0.02 0.705844 0 0.04 0.705844 0 0.06 0.705844 0 0.08 0.705844 0 0.1 0.705844 0 0 0.708206 0 0.02 0.708206 0 0.04 0.708206 0 0.06 0
[...]
			<PointData Scalars="VitesseX">
				<DataArray Name="VitesseX" type="Float32" format="ascii">
 0 2.50062e-15 2.13176e-16 -4.01439e-15 -9.97911e-17 0 0 2.60285e-15 4.97637e-16 -3.51124e-15 -4.83621e-17 0 0 3.14109e-15 1.20151e-15 -1.69201e-15 -3.98657e-16 0 0 2.66312e-15 3.55079e-15 2.75261e-16 -4.1515e-16 0 0 2.05065e-15 5.53757e-15 2.99841e-15 6.41764e-16 0 0 2.00795e-15 5.82475e-15 6.3074e-15 3.84244e-15 0 0 1.34155e-15 6.7459e-15 6.64149e-15 9.47615e-15 0 0 3.41438e-15 4.62341e-15 7.83693e-15 1.30126e-14 0 0 6.08696e-15 4.60726e-15 8.27058e-15 1.34224e-14 0 0 7.29698e-15 6.93667e-15 7.6486e-15 1.30492e-14 0 0 8.74645e-15 8.17004e-15 6.36501e-15 1.26118e-14 0 0 1.07586e-14 8.99256e-15 4.57487e-15 1.15468e-14 0 0 1.23821e-14 8.65327e-15 5.21643e-15 7.18398e-15 0 0 1.20909e-14 9.92024e-15 6.59652e-15 3.05928e-15 0 0 1.15474e-14 1.16615e-14 6.09515e-15 2.27649e-15 0 0 1.07118e-14 1.45442e-14 4.15573e-15 -5.69712e-17 0 0 9.35498e-15 1.63101e-14 4.27656e-15 -5.83035e-15 0 0 1.0404e-14 1.37156e-14 3.24468e-15 -1.24032e-14 0 0 1.19304e-14 7.97408e-15 3.8957e-15 -1.54861e-14 0 0 1.03759e-14 5.9255e-15 2.11707e-15 -1.1926e-14 0 0 7.8345e-15 3.64902e-15 2.9642e-15 -1.02259e-14 0 0 3.7712e-15 2.10623e-15 6.62873e-15 -1.18282e-14 0 0 3.23761e-15 8.00717e-17 9.51725e-15 -9.43753e-15 0 0 1.42577e-15 -3.36352e-15 1.36761e-14 -2.40988e-15 0 0 -3.00983e-15 -2.41923e-15 5.63371e-15 1.07485e-14 0 0 -5.45776e-16 -6.2081e-15 -5.15457e-16 2.22586e-14 0 0 4.18605e-15 -1.34525e-14 8.37958e-15 1.96463e-14 0 0 4.38356e-15 -1.49392e-14 1.36701e-14 1.31132e-14 0 0 2.7851e-15 -1.25344e-14 1.13393e-14 1.77417e-14 0 0 7.69504e-16 -7.34296e-15 9.27549e-15 2.19376e-14 0 0 -2.22846e-15 -2.85848e-16 9.13262e-15 1.9549e-14 0 0 -1.38295e-16 -1.10053e-15 1.39674e-14 1.31299e-14 0 0 1.45752e-15 -1.27455e-15 1.85673e-14 1.14294e-15 0 0 -2.58773e-15 8.43462e-15 1.61932e-14 -3.46586e-15 0 0 -7.57489e-15 1.59746e-14 1.42887e-14 -2.19776e-15 0 0 -9.3201e-15 1.89627e-14 1.57437e-14 -9.67843e-16 0 0 -6.39664e-15 1.47584e-14 2.32135e-14 -1.80137e-16 0 0 -2.2071e-15 1.29446e-14 1.87602e-14 7.21906e-15 0 0 -2.21311e-15 2.59936e-14 9.90186e-15 1.81916e-14 0 0 4.64048e-15 2.78068e-14 2.58521e-14 1.74252e-14 0 0 1.96709e-14 2.34869e-14 4.49019e-14 9.98466e-15 0 0 1.87437e-14 3.8344e-14 4.2297e-14 1.1568e-14 0 0 2.30621e-14 3.85294e-14 4.51636e-14 1.58973e-14 0 0 3.33904e-14 3.8333e-14 4.81518e-14 2.35337e-14 0 0 4.19682e-14 4.82193e-14 4.68893e-14 3.87735e-14 0 0 3.82251e-14 6.24708e-14 5.37692e-14 4.37363e-14 0 0 3.02292e-14 7.30748e-14 5.40633e-14 4.61487e-14 0 0 3.17588e-14 5.33439e-14 6.96066e-14 4.60921e-14 0 0 1.34148e-14 3.73143e-14 8.78502e-14 3.11076e-14 0 0 -4.8812e-15 3.35847e-14 7.7135e-14 2.76208e-14 0 0 -7.81087e-15 2.87147e-14 6.48264e-14 3.14878e-14 0 0 -1.21952e-15 1.43834e-14 6.11353e-14 1.91961e-14 0 0 1.74529e-15 3.2351e-15 4.30374e-14 1.42447e-14 0 0 2.07232e-15 5.57018e-15 1.72346e-14 2.37079e-14 0 0 -1.1268e-15 1.11519e-15 8.92197e-15 3.0974e-14 0 0 -7.60354e-15 -2.54288e-15 2.60873e-15 2.27645e-14 0 0 -1.53949e-14 1.56792e-14 2.43262e-15 -1.51053e-14 0 0 -1.81579e-14 2.70468e-14 -4.40966e-15 -2.69663e-14 0 0 -9.55264e-15 2.52023e-14 -1.90786e-14 -7.86265e-15 0 0 -3.07923e-15 1.90608e-14 -1.98547e-14 -3.7996e-15 0 0 8.52385e-15 1.38277e-14 -3.62853e-14 1.14103e-15 0 0 -4.72018e-15 3.14805e-14 -4.52699e-14 -2.60805e-15 0 0 -1.23038e-14 3.30493e-14 -3.35498e-14 -1.74994e-14 0 0 2.2354e-14 1.82135e-14 -3.02222e-14 -3.12628e-14 0 0 3.32567e-14 9.25938e-15 -2.95085e-14 -2.67546e-14 0 0 1.32247e-14 2.90826e-14 -3.33457e-14 -2.08473e-14 0 0 -1.22137e-14 4.87015e-14 -4.54005e-14 -1.85145e-14 0 0 -4.8007e-15 9.13738e-15 -2.96928e-14 -6.5407e-15 0 0 2.67723e-14 -2.11733e-14 -1.60439e-14 -1.03599e-14 0 0 9.95536e-15 -7.89723e-15 -3.28278e-14 -4.01241e-15 0 0 -9.41861e-15 1.68768e-15 -3.89297e-14 6.3551e-15 0 0 4.81011e-17 3.99826e-15 -3.88672e-14 -9.4963e-15 0 0 4.56581e-15 -1.20538e-14 -2.38507e-14 -2.07169e-14 0 0 -1.2476e-15 -1.77513e-14 -2.79558e-14 -2.86216e-14 0 0 1.16568e-14 -1.76687e-14 -4.62285e-14 -5.46041e-15 0 0 1.24123e-14 -1.1152e-14 -5.62854e-14 2.22704e-14 0 0 7.87563e-15 -1.22086e-14 -4.28066e-14 1.0858e-14 0 0 2.05605e-14 -1.21868e-14 -2.09202e-14 -7.7146e-15 0 0 8.8843e-16 8.76849e-15 -1.9417e-14 -4.41736e-15 0 0 -3.57965e-15 7.05436e-16 -2.14733e-14 -1.0702e-15 0 0 2.09029e-14 -1.44292e-14 -2.14243e-14 -6.50914e-15 0 0 2.76949e-14 -2.07596e-14 -1.3515e-14 -4.7649e-15 0 0 1.14775e-15 -1.57063e-14 -2.84666e-15 6.19481e-16 0 0 -1.96119e-15 -2.2316e-14 6.5635e-15 -7.04044e-15 0 0 -1.18265e-14 -1.93406e-14 -2.14159e-15 9.06894e-16 0 0 -1.89617e-14 -1.45696e-14 -5.39003e-15 2.73721e-15 0 0 -4.7848e-15 -1.51363e-14 5.16995e-15 -1.60289e-14 0 0 7.48284e-15 -2.27326e-14 3.37929e-15 -7.51928e-15 0 0 6.32927e-15 -1.64357e-14 5.43446e-15 7.1601e-15 0 0 -1.37595e-14 -4.69853e-15 -1.92898e-14 -1.89461e-14 0 0 -1.50057e-14 -2.37036e-14 -3.0989e-14 -6.7405e-15 0 0 -1.70317e-14 -2.8731e-14 -3.77056e-14 -1.09095e-14 0 0 -2.15547e-14 -2.3994e-14 -5.1435e-14 -2.27182e-14 0 0 -1.89412e-14 -2.19843e-14 -1.59295e-14 -2.70716e-14 0 0 2.30899e-15 -3.55029e-15 -2.5625e-15 -2.1187e-15 0 0 2.17786e-14 2.53177e-14 1.48728e-14 2.2752e-14 0 0 3.46571e-14 3.88664e-14 5.98197e-14 2.44751e-14 0 0 3.14767e-14 5.69074e-14 6.50063e-14 4.09279e-14 0 0 3.04067e-14 6.67874e-14 7.36516e-14 3.2043e-14 0 0 3.44575e-14 4.05679e-14 6.8089e-14 2.45374e-14 0 0 2.87081e-14 3.20804e-14 4.57891e-14 2.13826e-14 0 0 2.79881e-14 2.3415e-14 2.37933e-14 -2.28983e-14 0 0 -9.01802e-15 5.61322e-14 2.02743e-14 -5.18932e-14 0 0 -4.93812e-15 3.90914e-14 2.92264e-15 -5.25641e-14 0 0 8.60446e-16 -2.13791e-14 2.74589e-14 -8.82359e-14 0 0 -1.26349e-14 -3.55882e-14 1.53922e-14 -6.4312e-14 0 0 -2.21631e-14 -1.27127e-14 -4.36462e-14 -3.35998e-14 0 0 -2.32649e-14 2.62706e-14 -3.8536e-14 -5.09511e-14 0 0 2.0111e-14 9.28809e-14 4.27629e-14 -1.67933e-14 0 0 1.36161e-13 2.36052e-13 2.05035e-13 1.08566e-13 0 0 2.67718e-13 4.45934e-13 3.98183e-13 2.5091e-13 0 0 3.64727e-13 6.00898e-13 5.82605e-13 3.73096e-13 0 0 4.21909e-13 6.76316e-13 6.81039e-13 4.12448e-13 0 0 4.23123e-13 7.05758e-13 6.80314e-13 3.78958e-13 0 0 3.87775e-13 6.72393e-13 6.29022e-13 3.44036e-13 0 0 3.40585e-13 5.86901e-13 5.72451e-13 3.15448e-13 0 0 2.92993e-13 4.96246e-13 5.26711e-13 2.89357e-13 0 0 2.60002e-13 4.34008e-13 4.34348e-13 2.57249e-13 0 0 2.21948e-13 3.91514e-13 3.81526e-13 2.54357e-13 0 0 1.70863e-13 3.51292e-13 3.50148e-13 2.27211e-13 0 0 1.3994e-13 3.21731e-13 2.70848e-13 2.25126e-13 0 0 1.19896e-13 2.67147e-13 2.50806e-13 1.88689e-13 0 0 8.39234e-14 2.34275e-13 2.81521e-13 1.75987e-13 0 0 7.9606e-14 2.256e-13 2.15408e-13 1.68931e-13 0 0 9.59641e-14 1.83328e-13 2.03878e-13 9.92165e-14 0 0 7.75129e-14 1.66116e-13 1.86422e-13 1.54665e-13 0 0 7.45785e-14 1.3316e-13 1.76848e-13 1.88606e-13 0 0 8.32455e-14 1.20756e-13 1.67254e-13 1.50051e-13 0 0 7.08568e-14 1.26451e-13 1.60993e-13 1.20005e-13 0 0 6.8459e-14 1.15649e-13 1.96576e-13 1.09284e-13 0 0 8.08439e-14 1.22326e-13 1.44675e-13 1.04853e-13 0 0 9.03676e-14 1.15829e-13 1.10272e-13 9.70416e-14 0 0 7.35277e-14 1.1496e-13 1.46742e-13 8.28659e-14 0 0 6.07829e-14 1.4024e-13 7.42207e-14 7.38937e-14 0 0 4.48246e-14 1.71128e-13 1.50063e-14 1.08095e-13 0 0 4.38552e-14 1.75469e-13 4.65282e-14 4.76104e-14 0 0 5.59953e-14 1.57529e-13 2.80254e-14 5.77018e-15 0 0 6.91583e-14 1.19843e-13 4.30351e-14 1.6233e-14 0 0 6.80848e-14 1.21737e-13 5.87584e-14 1.76645e-14 0 0 7.11473e-14 1.02107e-13 2.00481e-14 6.19243e-14 0 0 6.56199e-14 6.90542e-14 2.38057e-15 2.45305e-14 0 0 1.6696e-14 1.12466e-13 -6.10016e-14 7.35579e-14 0 0 -2.5122e-14 1.41176e-13 -1.62985e-13 1.17093e-13 0 0 -2.13012e-14 1.32112e-13 -1.62552e-13 7.60639e-14 0 0 3.7058e-14 8.91809e-14 -1.64888e-13 7.05732e-14 0 0 8.31949e-14 6.15433e-14 -2.14953e-13 8.27239e-14 0 0 2.56343e-14 9.77775e-14 -1.99322e-13 9.25392e-14 0 0 -2.12208e-15 9.43206e-14 -1.48076e-13 2.32529e-14 0 0 -3.98454e-15 5.18246e-14 -7.26753e-14 -9.11347e-14 0 0 -1.2336e-14 1.77837e-14 -1.35898e-14 -1.66824e-13 0 0 -5.06874e-14 5.60832e-14 -7.01985e-14 -1.8321e-13 0 0 -3.79845e-14 7.55855e-14 -1.31532e-13 -1.91512e-13 0 0 1.91317e-14 -1.59252e-14 -3.83582e-14 -2.08291e-13 0 0 3.65722e-14 -8.68778e-14 3.08275e-14 -2.10993e-13 0 0 -7.49244e-15 -6.81317e-14 5.76972e-14 -2.68076e-13 0 0 -3.96058e-14 -3.88298e-14 -5.1727e-14 -1.20457e-13 0 0 -1.133e-13 -3.30931e-14 -1.06287e-14 -1.12285e-13 0 0 -1.27284e-13 -3.56962e-14 6.42171e-14 -2.52124e-13 0 0 -8.76164e-14 -2.7521e-14 -8.35443e-15 -1.70057e-13 0 0 -1.85497e-14 -8.88004e-14 -6.87209e-14 -5.10824e-14 0 0 -1.29099e-14 -9.50748e-14 -8.99545e-14 -3.22649e-14 0 0 -3.911e-14 -5.59799e-14 -8.55573e-14 -2.06338e-14 0 0 -1.42432e-14 -4.83426e-14 -5.17117e-14 7.80531e-15 0 0 -3.91816e-15 -5.59259e-15 6.49244e-14 -1.4128e-14 0 0 3.75649e-15 1.10373e-14 1.24819e-13 -4.82246e-15 0 0 1.7172e-14 6.72863e-14 1.12265e-13 2.67514e-14 0 0 2.74147e-14 1.00345e-13 1.06079e-13 4.80896e-14 0 0 5.5509e-14 9.50913e-14 1.3308e-13 8.18718e-14 0 0 5.38966e-14 1.18638e-13 1.38169e-13 1.09065e-13 0 0 5.24691e-14 1.31578e-13 1.57907e-13 9.08297e-14 0 0 6.28108e-14 1.29189e-13 1.64586e-13 9.14487e-14 0 0 6.94808e-14 1.43585e-13 1.41286e-13 1.20565e-13 0 0 6.24331e-14 1.6481e-13 1.30356e-13 1.51965e-13 0 0 6.35161e-14 1.69196e-13 1.31601e-13 1.74533e-13 0 0 7.97659e-14 1.41129e-13 1.6842e-13 1.21498e-13 0 0 8.50893e-14 1.24125e-13 2.09465e-13 9.36389e-14 0 0 7.84134e-14 1.5492e-13 1.98091e-13 1.05398e-13 0 0 8.50519e-14 1.62947e-13 1.8886e-13 1.19257e-13 0 0 9.45761e-14 1.68924e-13 1.89536e-13 7.87824e-14 0 0 9.05105e-14 1.86077e-13 1.95928e-13 5.33567e-14 0 0 8.95656e-14 1.85229e-13 1.99692e-13 6.41291e-14 0 0 1.10356e-13 1.81235e-13 1.8671e-13 8.23496e-14 0 0 1.11951e-13 1.94281e-13 1.85741e-13 6.77508e-14 0 0 8.50264e-14 2.12989e-13 1.96583e-13 7.11545e-14 0 0 9.41732e-14 1.97341e-13 2.22085e-13 6.46354e-14 0 0 1.24588e-13 1.73512e-13 2.12866e-13 6.05911e-14 0 0 1.57415e-13 1.40426e-13 2.17012e-13 6.644e-14 0 0 1.51579e-13 1.41709e-13 1.96852e-13 4.33634e-14 0 0 1.4282e-13 1.40883e-13 1.47074e-13 5.54667e-14 0 0 1.53054e-13 9.05552e-14 1.48846e-13 5.8214e-14 0 0 1.43069e-13 6.50939e-14 1.4101e-13 5.49608e-14 0 0 1.29754e-13 7.43801e-14 1.21466e-13 3.97438e-14 0 0 8.72865e-14 9.77873e-14 1.21278e-13 2.63337e-14 0 0 6.18009e-14 1.17191e-13 1.15457e-13 6.82893e-14 0 0 6.78837e-14 1.23229e-13 9.15728e-14 1.31033e-13 0 0 6.92706e-14 1.18692e-13 9.00516e-14 1.24425e-13 0 0 5.02372e-14 1.05254e-13 1.11536e-13 1.04781e-13 0 0 9.32865e-15 9.55396e-14 1.40789e-13 9.05346e-14 0 0 1.28757e-16 9.5048e-14 1.46594e-13 6.18598e-14 0 0 9.39524e-15 9.89669e-14 8.54269e-14 8.88615e-14 0 0 6.8496e-15 1.04119e-13 3.55015e-14 1.40467e-13 0
				</DataArray>
				<DataArray Name="VitesseY" type="Float32" format="ascii">