<?xml version="1.0"?>
<VTKFile type="PolyData">
	<PolyData>
		<Piece NumberOfPoints="1206" NumberOfPolys="1000">
			<Points>
				<DataArray type="Float32" NumberOfComponents="3" format="ascii">
 0 0 0 0.02 0 0 0.04 0 0 0.06 0 0 0.08 0 0 0.1 0 0 0 0.005 0 0.02 0.005 0 0.04 0.005 0 0.06 0.005 0 0.08 0.005 0 0.1 0.005 0 0 0.01 0 0.02 0.01 0 0.04 0.01 0 0.06 0.01 0 0.08 0.01 0 0.1 0.01 0 0 0.015 0 0.02 0.015 0 0.04 0.015 0 0.06 0.015 0 0.08 0.015 0 0.1 0.015 0 0 0.02 0 0.02 0.02 0 0.04 0.02 0 0.06 0.02 0 0.08 0.02 0 0.1 0.02 0 0 0.025 0 0.02 0.025 0 0.04 0.025 0 0.06 0.025 0 0.08 0.025 0 0.1 0.025 0 0 0.03 0 0.02 0.03 0 0.04 0.03 0 0.06 0.03 0 0.08 0.03 0 0.1 0.03 0 0 0.035 0 0.02 0.035 0 0.04 0.035 0 0.06 0.035 0 0.08 0.035 0 0.1 0.035 0 0 0.04 0 0.02 0.04 0 0.04 0.04 0 0.06 0.04 0 0.08 0.04 0 0.1 0.04 0 0 0.045 0 0.02 0.045 0 0.04 0.045 0 0.06 0.045 0 0.08 0.045 0 0.1 0.045 0 0 0.05 0 0.02 0.05 0 0.04 0.05 0 0.06 0.05 0 0.08 0.05 0 0.1 0.05 0 0 0.055 0 0.02 0.055 0 0.04 0.055 0 0.06 0.055 0 0.08 0.055 0 0.1 0.055 0 0 0.06 0 0.02 0.06 0 0.04 0.06 0 0.06 0.06 0 0.08 0.06 0 0.1 0.06 0 0 0.065 0 0.02 0.065 0 0.04 0.065 0 0.06 0.065 0 0.08 0.065 0 0.1 0.065 0 0 0.07 0 0.02 0.07 0 0.04 0.07 0 0.06 0.07 0 0.08 0.07 0 0.1 0.07 0 0 0.075 0 0.02 0.075 0 0.04 0.075 0 0.06 0.075 0 0.08 0.075 0 0.1 0.075 0 0 0.08 0 0.02 0.08 0 0.04 0.08 0 0.06 0.08 0 0.08 0.08 0 0.1 0.08 0 0 0.085 0 0.02 0.085 0 0.04 0.085 0 0.06 0.085 0 0.08 0.085 0 0.1 0.085 0 0 0.09 0 0.02 0.09 0 0.04 0.09 0 0.06 0.09 0 0.08 0.09 0 0.1 0.09 0 0 0.095 0 0.02 0.095 0 0.04 0.095 0 0.06 0.095 0 0.08 0.095 0 0.1 0.095 0 0 0.1 0 0.02 0.1 0 0.04 0.1 0 0.06 0.1 0 0.08 0.1 0 0.1 0.1 0 0 0.105 0 0.02 0.105 0 0.04 0.105 0 0.06 0.105 0 0.08 0.105 0 0.1 0.105 0 0 0.11 0 0.02 0.11 0 0.04 0.11 0 0.06 0.11 0 0.08 0.11 0 0.1 0.11 0 0 0.115 0 0.02 0.115 0 0.04 0.115 0 0.06 0.115 0 0.08 0.115 0 0.1 0.115 0 0 0.12 0 0.02 0.12 0 0.04 0.12 0 0.06 0.12 0 0.08 0.12 0 0.1 0.12 0 0 0.125 0 0.02 0.125 0 0.04 0.125 0 0.06 0.125 0 0.08 0.125 0 0.1 0.125 0 0 0.13 0 0.02 0.13 0 0.04 0.13 0 0.06 0.13 0 0.08 0.13 0 0.1 0.13 0 0 0.135 0 0.02 0.135 0 0.04 0.135 0 0.06 0.135 0 0.08 0.135 0 0.1 0.135 0 0 0.14 0 0.02 0.14 0 0.04 0.14 0 0.06 0.14 0 0.08 0.14 0 0.1 0.14 0 0 0.145 0 0.02 0.145 0 0.04 0.145 0 0.06 0.145 0 0.08 0.145 0 0.1 0.145 0 0 0.15 0 0.02 0.15 0 0.04 0.15 0 0.06 0.15 0 0.08 0.15 0 0.1 0.15 0 0 0.155 0 0.02 0.155 0 0.04 0.155 0 0.06 0.155 0 0.08 0.155 0 0.1 0.155 0 0 0.16 0 0.02 0.16 0 0.04 0.16 0 0.06 0.16 0 0.08 0.16 0 0.1 0.16 0 0 0.165 0 0.02 0.165 0 0.04 0.165 0 0.06 0.165 0 0.08 0.165 0 0.1 0.165 0 0 0.17 0 0.02 0.17 0 0.04 0.17 0 0.06 0.17 0 0.08 0.17 0 0.1 0.17 0 0 0.175 0 0.02 0.175 0 0.04 0.175 0 0.06 0.175 0 0.08 0.175 0 0.1 0.175 0 0 0.18 0 0.02 0.18 0 0.04 0.18 0 0.06 0.18 0 0.08 0.18 0 0.1 0.18 0 0 0.185 0 0.02 0.185 0 0.04 0.185 0 0.06 0.185 0 0.08 0.185 0 0.1 0.185 0 0 0.19 0 0.02 0.19 0 0.04 0.19 0 0.06 0.19 0 0.08 0.19 0 0.1 0.19 0 0 0.195 0 0.02 0.195 0 0.04 0.195 0 0.06 0.195 0 0.08 0.195 0 0.1 0.195 0 0 0.2 0 0.02 0.2 0 0.04 0.2 0 0.06 0.2 0 0.08 0.2 0 0.1 0.2 0 0 0.205 0 0.02 0.205 0 0.04 0.205 0 0.06 0.205 0 0.08 0.205 0 0.1 0.205 0 0 0.21 0 0.02 0.21 0 0.04 0.21 0 0.06 0.21 0 0.08 0.21 0 0.1 0.21 0 0 0.215 0 0.02 0.215 0 0.04 0.215 0 0.06 0.215 0 0.08 0.215 0 0.1 0.215 0 0 0.22 0 0.02 0.22 0 0.04 0.22 0 0.06 0.22 0 0.08 0.22 0 0.1 0.22 0 0 0.225 0 0.02 0.225 0 0.04 0.225 0 0.06 0.225 0 0.08 0.225 0 0.1 0.225 0 0 0.23 0 0.02 0.23 0 0.04 0.23 0 0.06 0.23 0 0.08 0.23 0 0.1 0.23 0 0 0.235 0 0.02 0.235 0 0.04 0.235 0 0.06 0.235 0 0.08 0.235 0 0.1 0.235 0 0 0.24 0 0.02 0.24 0 0.04 0.24 0 0.06 0.24 0 0.08 0.24 0 0.1 0.24 0 0 0.245 0 0.02 0.245 0 0.04 0.245 0 0.06 0.245 0 0.08 0.245 0 0.1 0.245 0 0 0.25 0 0.02 0.25 0 0.04 0.25 0 0.06 0.25 0 0.08 0.25 0 0.1 0.25 0 0 0.255 0 0.02 0.255 0 0.04 0.255 0 0.06 0.255 0 0.08 0.255 0 0.1 0.255 0 0 0.26 0 0.02 0.26 0 0.04 0.26 0 0.06 0.26 0 0.08 0.26 0 0.1 0.26 0 0 0.265 0 0.02 0.265 0 0.04 0.265 0 0.06 0.265 0 0.08 0.265 0 0.1 0.265 0 0 0.27 0 0.02 0.27 0 0.04 0.27 0 0.06 0.27 0 0.08 0.27 0 0.1 0.27 0 0 0.275 0 0.02 0.275 0 0.04 0.275 0 0.06 0.275 0 0.08 0.275 0 0.1 0.275 0 0 0.28 0 0.02 0.28 0 0.04 0.28 0 0.06 0.28 0 0.08 0.28 0 0.1 0.28 0 0 0.285 0 0.02 0.285 0 0.04 0.285 0 0.06 0.285 0 0.08 0.285 0 0.1 0.285 0 0 0.29 0 0.02 0.29 0 0.04 0.29 0 0.06 0.29 0 0.08 0.29 0 0.1 0.29 0 0 0.295 0 0.02 0.295 0 0.04 0.295 0 0.06 0.295 0 0.08 0.295 0 0.1 0.295 0 0 0.3 0 0.02 0.3 0 0.04 0.3 0 0.06 0.3 0 0.08 0.3 0 0.1 0.3 0 0 0.305 0 0.02 0.305 0 0.04 0.305 0 0.06 0.305 0 0.08 0.305 0 0.1 0.305 0 0 0.31 0 0.02 0.31 0 0.04 0.31 0 0.06 0.31 0 0.08 0.31 0 0.1 0.31 0 0 0.315 0 0.02 0.315 0 0.04 0.315 0 0.06 0.315 0 0.08 0.315 0 0.1 0.315 0 0 0.32 0 0.02 0.32 0 0.04 0.32 0 0.06 0.32 0 0.08 0.32 0 0.1 0.32 0 0 0.325 0 0.02 0.325 0 0.04 0.325 0 0.06 0.325 0 0.08 0.325 0 0.1 0.325 0 0 0.33 0 0.02 0.33 0 0.04 0.33 0 0.06 0.33 0 0.08 0.33 0 0.1 0.33 0 0 0.335 0 0.02 0.335 0 0.04 0.335 0 0.06 0.335 0 0.08 0.335 0 0.1 0.335 0 0 0.34 0 0.02 0.34 0 0.04 0.34 0 0.06 0.34 0 0.08 0.34 0 0.1 0.34 0 0 0.345 0 0.02 0.345 0 0.04 0.345 0 0.06 0.345 0 0.08 0.345 0 0.1 0.345 0 0 0.35 0 0.02 0.35 0 0.04 0.35 0 0.06 0.35 0 0.08 0.35 0 0.1 0.35 0 0 0.355 0 0.02 0.355 0 0.04 0.355 0 0.06 0.355 0 0.08 0.355 0 0.1 0.355 0 0 0.36 0 0.02 0.36 0 0.04 0.36 0 0.06 0.36 0 0.08 0.36 0 0.1 0.36 0 0 0.365 0 0.02 0.365 0 0.04 0.365 0 0.06 0.365 0 0.08 0.365 0 0.1 0.365 0 0 0.37 0 0.02 0.37 0 0.04 0.37 0 0.06 0.37 0 0.08 0.37 0 0.1 0.37 0 0 0.375 0 0.02 0.375 0 0.04 0.375 0 0.06 0.375 0 0.08 0.375 0 0.1 0.375 0 0 0.38 0 0.02 0.38 0 0.04 0.38 0 0.06 0.38 0 0.08 0.38 0 0.1 0.38 0 0 0.385 0 0.02 0.385 0 0.04 0.385 0 0.06 0.385 0 0.08 0.385 0 0.1 0.385 0 0 0.39 0 0.02 0.39 0 0.04 0.39 0 0.06 0.39 0 0.08 0.39 0 0.1 0.39 0 0 0.395 0 0.02 0.395 0 0.04 0.395 0 0.06 0.395 0 0.08 0.395 0 0.1 0.395 0 0 0.4 0 0.02 0.4 0 0.04 0.4 0 0.06 0.4 0 0.08 0.4 0 0.1 0.4 0 0 0.405 0 0.02 0.405 0 0.04 0.405 0 0.06 0.405 0 0.08 0.405 0 0.1 0.405 0 0 0.41 0 0.02 0.41 0 0.04 0.41 0 0.06 0.41 0 0.08 0.41 0 0.1 0.41 0 0 0.415 0 0.02 0.415 0 0.04 0.415 0 0.06 0.415 0 0.08 0.415 0 0.1 0.415 0 0 0.420001 0 0.02 0.420001 0 0.04 0.420001 0 0.06 0.420001 0 0.08 0.420001 0 0.1 0.420001 0 0 0.425005 0 0.02 0.425005 0 0.04 0.425005 0 0.06 0.425005 0 0.08 0.425005 0 0.1 0.425005 0 0 0.430024 0 0.02 0.430024 0 0.04 0.430024 0 0.06 0.430024 0 0.08 0.430024 0 0.1 0.430024 0 0 0.435086 0 0.02 0.435086 0 0.04 0.435086 0 0.06 0.435086 0 0.08 0.435086 0 0.1 0.435086 0 0 0.440257 0 0.02 0.440257 0 0.04 0.440257 0 0.06 0.440257 0 0.08 0.440257 0 0.1 0.440257 0 0 0.445631 0 0.02 0.445631 0 0.04 0.445631 0 0.06 0.445631 0 0.08 0.445631 0 0.1 0.445631 0 0 0.451317 0 0.02 0.451317 0 0.04 0.451317 0 0.06 0.451317 0 0.08 0.451317 0 0.1 0.451317 0 0 0.45742 0 0.02 0.45742 0 0.04 0.45742 0 0.06 0.45742 0 0.08 0.45742 0 0.1 0.45742 0 0 0.464051 0 0.02 0.464051 0 0.04 0.464051 0 0.06 0.464051 0 0.08 0.464051 0 0.1 0.464051 0 0 0.471337 0 0.02 0.471337 0 0.04 0.471337 0 0.06 0.471337 0 0.08 0.471337 0 0.1 0.471337 0 0 0.479447 0 0.02 0.479447 0 0.04 0.479447 0 0.06 0.479447 0 0.08 0.479447 0 0.1 0.479447 0 0 0.488597 0 0.02 0.488597 0 0.04 0.488597 0 0.06 0.488597 0 0.08 0.488597 0 0.1 0.488597 0 0 0.499054 0 0.02 0.499054 0 0.04 0.499054 0 0.06 0.499054 0 0.08 0.499054 0 0.1 0.499054 0 0 0.510947 0 0.02 0.510947 0 0.04 0.510947 0 0.06 0.510947 0 0.08 0.510947 0 0.1 0.510947 0 0 0.523426 0 0.02 0.523426 0 0.04 0.523426 0 0.06 0.523426 0 0.08 0.523426 0 0.1 0.523426 0 0 0.535511 0 0.02 0.535511 0 0.04 0.535511 0 0.06 0.535511 0 0.08 0.535511 0 0.1 0.535511 0 0 0.547376 0 0.02 0.547376 0 0.04 0.547376 0 0.06 0.547376 0 0.08 0.547376 0 0.1 0.547376 0 0 0.549997 0 0.02 0.549997 0 0.04 0.549997 0 0.06 0.549997 0 0.08 0.549997 0 0.1 0.549997 0 0 0.552542 0 0.02 0.552542 0 0.04 0.552542 0 0.06 0.552542 0 0.08 0.552542 0 0.1 0.552542 0 0 0.555043 0 0.02 0.555043 0 0.04 0.555043 0 0.06 0.555043 0 0.08 0.555043 0 0.1 0.555043 0 0 0.557513 0 0.02 0.557513 0 0.04 0.557513 0 0.06 0.557513 0 0.08 0.557513 0 0.1 0.557513 0 0 0.559963 0 0.02 0.559963 0 0.04 0.559963 0 0.06 0.559963 0 0.08 0.559963 0 0.1 0.559963 0 0 0.562401 0 0.02 0.562401 0 0.04 0.562401 0 0.06 0.562401 0 0.08 0.562401 0 0.1 0.562401 0 0 0.564829 0 0.02 0.564829 0 0.04 0.564829 0 0.06 0.564829 0 0.08 0.564829 0 0.1 0.564829 0 0 0.567253 0 0.02 0.567253 0 0.04 0.567253 0 0.06 0.567253 0 0.08 0.567253 0 0.1 0.567253 0 0 0.569675 0 0.02 0.569675 0 0.04 0.569675 0 0.06 0.569675 0 0.08 0.569675 0 0.1 0.569675 0 0 0.572103 0 0.02 0.572103 0 0.04 0.572103 0 0.06 0.572103 0 0.08 0.572103 0 0.1 0.572103 0 0 0.57454 0 0.02 0.57454 0 0.04 0.57454 0 0.06 0.57454 0 0.08 0.57454 0 0.1 0.57454 0 0 0.577007 0 0.02 0.577007 0 0.04 0.577007 0 0.06 0.577007 0 0.08 0.577007 0 0.1 0.577007 0 0 0.579507 0 0.02 0.579507 0 0.04 0.579507 0 0.06 0.579507 0 0.08 0.579507 0 0.1 0.579507 0 0 0.582085 0 0.02 0.582085 0 0.04 0.582085 0 0.06 0.582085 0 0.08 0.582085 0 0.1 0.582085 0 0 0.58473 0 0.02 0.58473 0 0.04 0.58473 0 0.06 0.58473 0 0.08 0.58473 0 0.1 0.58473 0 0 0.587534 0 0.02 0.587534 0 0.04 0.587534 0 0.06 0.587534 0 0.08 0.587534 0 0.1 0.587534 0 0 0.590505 0 0.02 0.590505 0 0.04 0.590505 0 0.06 0.590505 0 0.08 0.590505 0 0.1 0.590505 0 0 0.593766 0 0.02 0.593766 0 0.04 0.593766 0 0.06 0.593766 0 0.08 0.593766 0 0.1 0.593766 0 0 0.59735 0 0.02 0.59735 0 0.04 0.59735 0 0.06 0.59735 0 0.08 0.59735 0 0.1 0.59735 0 0 0.601314 0 0.02 0.601314 0 0.04 0.601314 0 0.06 0.601314 0 0.08 0.601314 0 0.1 0.601314 0 0 0.60564 0 0.02 0.60564 0 0.04 0.60564 0 0.06 0.60564 0 0.08 0.60564 0 0.1 0.60564 0 0 0.610267 0 0.02 0.610267 0 0.04 0.610267 0 0.06 0.610267 0 0.08 0.610267 0 0.1 0.610267 0 0 0.615097 0 0.02 0.615097 0 0.04 0.615097 0 0.06 0.615097 0 0.08 0.615097 0 0.1 0.615097 0 0 0.620032 0 0.02 0.620032 0 0.04 0.620032 0 0.06 0.620032 0 0.08 0.620032 0 0.1 0.620032 0 0 0.62501 0 0.02 0.62501 0 0.04 0.62501 0 0.06 0.62501 0 0.08 0.62501 0 0.1 0.62501 0 0 0.630003 0 0.02 0.630003 0 0.04 0.630003 0 0.06 0.630
[...]
			<PointData Scalars="VitesseX">
				<DataArray Name="VitesseX" type="Float32" format="ascii">
 0 7.90771e-16 -9.11787e-16 -3.01178e-15 -4.99268e-15 0 0 7.96159e-16 -1.10057e-15 -2.70298e-15 -4.75772e-15 0 0 1.19621e-16 -8.26139e-16 -1.99053e-15 -5.03839e-15 0 0 -8.19855e-16 -3.07528e-17 -1.73193e-15 -5.20298e-15 0 0 -5.28303e-16 -4.53213e-16 -2.34722e-15 -3.82157e-15 0 0 -1.46299e-17 -1.04962e-15 -3.34894e-15 -2.88072e-15 0 0 -9.9673e-17 -7.93071e-16 -2.9891e-15 -4.19773e-15 0 0 -1.03433e-15 2.63374e-16 -3.41947e-15 -4.32917e-15 0 0 -9.72677e-16 -4.70076e-16 -3.59665e-15 -3.95754e-15 0 0 1.18314e-17 -2.02792e-15 -2.25392e-15 -4.65452e-15 0 0 -7.91014e-16 -8.32921e-16 -3.47426e-15 -5.04135e-15 0 0 -1.1547e-15 -1.04825e-15 -4.03236e-15 -5.46427e-15 0 0 -1.67764e-15 -4.57951e-17 -5.05032e-15 -5.28722e-15 0 0 1.10319e-15 -3.05164e-15 -3.75649e-15 -5.77558e-15 0 0 -9.22658e-16 -7.4009e-16 -5.27107e-15 -5.02009e-15 0 0 -3.15541e-15 1.55444e-15 -6.17704e-15 -4.4268e-15 0 0 1.34424e-15 -4.6341e-15 -1.91501e-15 -4.58567e-15 0 0 5.67674e-17 -3.57394e-15 -1.43868e-15 -3.16223e-15 0 0 8.10989e-16 -2.89489e-15 -2.46078e-15 -3.20052e-15 0 0 9.02681e-16 -2.16724e-15 -5.14897e-15 -2.56407e-15 0 0 -2.22932e-15 -1.95627e-15 -6.69046e-15 -1.9355e-16 0 0 -2.45956e-15 -4.25151e-15 -4.35442e-15 -4.59843e-15 0 0 -1.66778e-15 -5.73864e-15 -3.02678e-15 -9.53549e-15 0 0 -2.83392e-15 -5.37205e-15 -7.53055e-15 -2.93634e-15 0 0 -7.68388e-15 -4.79089e-15 -8.27777e-15 4.54315e-16 0 0 -1.16316e-14 -4.80061e-15 -4.07437e-15 3.29392e-16 0 0 -4.87243e-15 -1.42533e-14 2.9303e-15 -1.0601e-15 0 0 -7.77763e-16 -1.71929e-14 1.85963e-15 -3.33776e-16 0 0 -6.2053e-15 -7.53713e-15 -3.99983e-15 2.4395e-15 0 0 -7.54628e-15 -9.9002e-15 -7.27231e-16 -1.24804e-15 0 0 -8.59352e-15 -1.02025e-14 -6.75015e-15 3.34091e-16 0 0 -8.40803e-15 -6.858e-15 -1.46987e-14 5.97655e-15 0 0 -5.93574e-15 -1.36556e-14 -8.42865e-15 3.92702e-15 0 0 -4.94726e-15 -1.69092e-14 -1.53209e-15 -6.61903e-15 0 0 -9.72828e-15 -1.42382e-14 1.10828e-15 -1.25079e-14 0 0 -1.4478e-14 -8.70463e-15 -9.2997e-15 -1.50221e-14 0 0 -1.41276e-14 -1.0396e-14 -1.242e-14 -2.41744e-14 0 0 -1.12563e-14 -1.80707e-14 -7.22799e-15 -2.79944e-14 0 0 -1.3493e-14 -1.38278e-14 -1.31536e-14 -2.45755e-14 0 0 -1.92328e-14 -2.30402e-15 -2.2994e-14 -1.98088e-14 0 0 -1.19853e-14 -1.0582e-14 -1.52642e-14 -2.44121e-14 0 0 -2.58181e-15 -2.31863e-14 -9.32007e-15 -2.55146e-14 0 0 -5.30824e-15 -1.09555e-14 -2.40008e-14 -1.73881e-14 0 0 -1.01401e-14 -7.99873e-15 -2.38465e-14 -1.70581e-14 0 0 -9.36158e-15 -1.1955e-14 -2.28381e-14 -9.56817e-15 0 0 -1.11288e-14 -1.10111e-14 -1.84934e-14 -1.17434e-14 0 0 -1.06919e-14 -1.50284e-14 -1.85868e-14 -7.77553e-15 0 0 -7.89788e-15 -1.92481e-14 -2.45027e-14 7.19454e-15 0 0 -1.19806e-14 -1.60669e-14 -2.4805e-14 2.33241e-15 0 0 -1.04875e-14 -1.78176e-14 -2.17802e-14 -2.86294e-15 0 0 -9.70452e-15 -2.16359e-14 -6.0044e-15 -1.33963e-14 0 0 -6.91509e-15 -2.16961e-14 1.47758e-15 -1.5141e-14 0 0 -1.0463e-14 -2.08599e-14 -5.02464e-15 4.69715e-15 0 0 -1.75123e-14 -1.96727e-14 -3.78436e-15 1.25782e-14 0 0 -1.26206e-14 -2.53993e-14 2.25633e-15 1.10063e-14 0 0 -1.88699e-14 -9.25194e-15 -7.46592e-15 4.07107e-15 0 0 -1.77008e-14 -5.38856e-15 -1.32642e-14 -2.13288e-15 0 0 -1.47352e-14 -2.03978e-14 -5.47725e-15 -3.89071e-15 0 0 -2.03514e-14 -2.06188e-14 -4.61732e-15 -5.7451e-15 0 0 -2.25746e-14 -2.80637e-14 2.89914e-15 -1.17433e-14 0 0 -2.23976e-14 -2.44464e-14 -9.35719e-15 -1.99423e-14 0 0 -1.43097e-14 -3.50957e-14 -1.55255e-14 -2.69053e-14 0 0 -2.19659e-14 -4.31434e-14 -6.75816e-15 -3.65235e-14 0 0 -2.5441e-14 -4.09181e-14 -4.1245e-15 -5.01849e-14 0 0 -2.43752e-14 -4.42228e-14 -4.42828e-15 -5.2048e-14 0 0 -2.36722e-14 -4.54295e-14 -2.84228e-14 -2.19132e-14 0 0 -9.34703e-15 -6.48759e-14 -3.30853e-14 1.09832e-15 0 0 -1.99834e-14 -5.00196e-14 -4.56633e-14 1.23567e-14 0 0 -2.81382e-14 -3.36002e-14 -4.68423e-14 8.0314e-15 0 0 -2.28128e-14 -4.27303e-14 -2.94384e-14 4.01064e-15 0 0 -2.68854e-14 -2.80826e-14 -3.92687e-14 8.30348e-15 0 0 -2.80519e-14 -2.94736e-14 -3.92116e-14 -2.70161e-15 0 0 -2.87696e-14 -4.63059e-14 -2.56963e-14 -9.40284e-15 0 0 -2.35229e-14 -4.44341e-14 -2.17996e-14 -7.66393e-15 0 0 -1.50513e-14 -3.23946e-14 -3.64655e-14 6.75322e-15 0 0 -2.8099e-15 -2.51971e-14 -4.23364e-14 1.53484e-14 0 0 -1.76147e-15 -1.48616e-14 -4.15309e-14 1.99354e-14 0 0 -7.06314e-15 -1.10542e-14 -3.68381e-14 2.04407e-14 0 0 3.70278e-15 -1.92425e-14 -2.54421e-14 5.30201e-16 0 0 1.40166e-14 -1.75021e-14 -2.68793e-14 -2.00932e-15 0 0 1.6227e-14 -1.83161e-14 -2.25625e-14 5.09309e-15 0 0 1.28872e-14 -2.72026e-14 -8.89011e-15 -6.53061e-15 0 0 4.93463e-15 -2.06129e-14 -1.58372e-14 -3.38642e-15 0 0 1.84913e-15 -1.75522e-14 -1.63963e-15 -5.54941e-15 0 0 4.53676e-15 -2.47376e-14 8.34537e-15 -1.34696e-14 0 0 7.38898e-15 -1.50179e-14 -8.70067e-15 -8.81854e-15 0 0 8.56522e-15 -1.03942e-14 -6.69672e-15 -6.68245e-15 0 0 7.30175e-15 -1.20603e-14 -4.25564e-15 3.32126e-16 0 0 6.18511e-15 -6.09803e-15 -9.15591e-16 -2.19383e-15 0 0 6.62349e-16 4.1047e-16 1.04582e-14 -1.08674e-14 0 0 -8.51246e-15 9.01043e-15 4.38619e-15 3.49596e-15 0 0 -9.37811e-15 1.6011e-14 -1.60222e-14 1.76233e-14 0 0 -4.66478e-15 -3.44385e-15 -7.80685e-15 2.55485e-14 0 0 3.17601e-15 -3.83099e-15 7.11794e-15 1.95196e-14 0 0 -5.90915e-15 4.64634e-16 1.623e-14 -2.01312e-15 0 0 -2.58927e-14 9.92205e-15 1.10633e-15 -5.46761e-15 0 0 4.87859e-15 -3.29886e-15 -9.12773e-15 -2.01664e-15 0 0 1.85867e-14 8.51792e-15 2.21936e-14 6.81759e-15 0 0 7.02408e-14 1.23488e-13 1.11238e-13 7.21255e-14 0 0 1.87802e-13 3.01638e-13 2.85457e-13 1.90828e-13 0 0 2.38549e-13 4.10521e-13 3.96594e-13 2.39086e-13 0 0 2.10426e-13 3.5121e-13 3.03389e-13 1.84225e-13 0 0 1.4458e-13 2.37543e-13 1.55927e-13 1.33125e-13 0 0 6.06827e-14 9.04259e-14 3.92594e-14 4.29878e-14 0 0 -6.86796e-15 -8.1769e-14 -4.52057e-14 -7.30146e-14 0 0 -4.32766e-14 -2.45942e-13 -1.27796e-13 -1.89312e-13 0 0 -1.20947e-13 -3.37522e-13 -2.08711e-13 -2.75439e-13 0 0 -2.48258e-13 -2.98303e-13 -3.39904e-13 -2.06824e-13 0 0 -2.77949e-13 -2.58431e-13 -2.88446e-13 -1.56789e-13 0 0 -1.3085e-13 -2.74648e-13 3.68012e-14 -1.4557e-13 0 0 4.65525e-14 -1.19975e-13 2.57851e-13 -3.15566e-14 0 0 1.47751e-13 1.5158e-13 3.67585e-13 8.77331e-14 0 0 2.10345e-13 3.84078e-13 4.59501e-13 2.34564e-13 0 0 2.59709e-13 4.57162e-13 5.20933e-13 3.04382e-13 0 0 3.142e-13 5.43241e-13 5.33058e-13 3.90722e-13 0 0 3.34835e-13 5.74648e-13 4.83955e-13 4.00436e-13 0 0 3.74738e-13 6.25852e-13 5.47851e-13 3.85926e-13 0 0 3.61041e-13 5.86261e-13 5.2737e-13 4.29087e-13 0 0 3.61745e-13 5.55454e-13 5.37025e-13 3.46149e-13 0 0 2.96994e-13 5.09492e-13 4.91438e-13 2.57922e-13 0 0 2.22277e-13 3.7757e-13 3.64395e-13 2.11463e-13 0 0 1.59616e-13 2.27481e-13 2.29216e-13 1.40567e-13 0 0 8.91757e-14 1.17417e-13 1.089e-13 8.20991e-14 0 0 4.86496e-14 6.00176e-14 2.95309e-14 4.75093e-15 0 0 2.56167e-14 2.2239e-14 -2.35679e-15 -1.81198e-14 0 0 2.09697e-14 5.32917e-15 -2.50311e-15 -2.56893e-14 0 0 1.80215e-14 9.49116e-15 -1.39474e-14 -2.27553e-14 0 0 1.12492e-14 2.82634e-14 -3.85476e-14 -1.62605e-14 0 0 1.42183e-14 2.09252e-14 -4.48718e-14 -4.17999e-14 0 0 2.33011e-14 -2.52948e-15 -3.55159e-14 -3.01985e-14 0 0 1.10228e-14 -3.64851e-15 -3.72567e-14 -1.09223e-14 0 0 -2.45177e-15 -6.53145e-15 -5.41279e-14 -1.51229e-14 0 0 1.08244e-15 -2.04687e-14 -5.56361e-14 -2.71285e-14 0 0 -9.12078e-15 -3.02823e-14 -6.06689e-14 -1.40082e-14 0 0 -1.81128e-14 -4.06961e-14 -4.58397e-14 -9.9807e-15 0 0 -2.61543e-14 -3.96509e-14 -3.46643e-14 -3.56879e-14 0 0 -2.50503e-14 -3.3912e-14 -7.9777e-14 -2.80993e-14 0 0 -1.3734e-14 -6.3809e-14 -8.75654e-14 -3.26909e-14 0 0 -3.09225e-14 -8.24241e-14 -7.67924e-14 -3.18075e-14 0 0 -5.77549e-14 -6.37642e-14 -1.05907e-13 -2.04581e-14 0 0 -6.70405e-14 -6.78207e-14 -1.09194e-13 -2.85116e-14 0 0 -5.94743e-14 -1.21962e-13 -7.37695e-14 -6.36098e-14 0 0 -3.81051e-14 -1.49032e-13 -9.21407e-14 -5.80694e-14 0 0 -4.81765e-14 -1.02201e-13 -1.49434e-13 -2.65098e-14 0 0 -6.19697e-14 -7.58249e-14 -1.53843e-13 -3.32618e-14 0 0 -3.67011e-14 -8.0113e-14 -1.55759e-13 -3.64334e-14 0 0 -3.66424e-14 -7.95235e-14 -1.58033e-13 -4.41669e-14 0 0 -3.13613e-14 -9.80134e-14 -1.389e-13 -9.68514e-14 0 0 -4.44499e-14 -7.99739e-14 -1.37564e-13 -1.33115e-13 0 0 -6.0636e-14 -5.14742e-14 -1.64731e-13 -1.04863e-13 0 0 -4.67872e-14 -7.18973e-14 -1.64328e-13 -1.05168e-13 0 0 -5.14992e-14 -1.10649e-13 -1.21627e-13 -1.24115e-13 0 0 -5.16422e-14 -1.28093e-13 -9.68345e-14 -1.08185e-13 0 0 -6.9361e-14 -1.04436e-13 -1.04633e-13 -7.35962e-14 0 0 -8.0145e-14 -9.88292e-14 -8.51179e-14 -6.65204e-14 0 0 -7.46786e-14 -9.62022e-14 -8.88457e-14 -6.12947e-14 0 0 -6.23734e-14 -1.11596e-13 -1.10128e-13 -6.17475e-14 0 0 -3.86277e-14 -1.50324e-13 -1.06765e-13 -6.74248e-14 0 0 -1.63815e-14 -1.74235e-13 -1.22241e-13 -7.74684e-14 0 0 -3.19876e-14 -1.60581e-13 -1.68064e-13 -6.25638e-14 0 0 -4.88234e-14 -1.30934e-13 -1.80771e-13 -6.70047e-14 0 0 -1.57606e-14 -1.53721e-13 -1.30546e-13 -1.26784e-13 0 0 -1.54567e-14 -1.4788e-13 -1.30273e-13 -1.26377e-13 0 0 -4.00999e-14 -1.35792e-13 -1.61375e-13 -8.93544e-14 0 0 -5.08558e-14 -1.47525e-13 -1.74548e-13 -5.89064e-14 0 0 -4.92585e-14 -1.53409e-13 -1.56709e-13 -4.71573e-14 0 0 -4.8961e-14 -1.50522e-13 -1.65011e-13 -4.75836e-14 0 0 -6.44861e-14 -1.33061e-13 -1.66406e-13 -8.75355e-14 0 0 -5.80583e-14 -1.59293e-13 -9.39266e-14 -1.58869e-13 0 0 -6.42093e-14 -1.74362e-13 -8.03884e-14 -1.79039e-13 0 0 -8.23495e-14 -1.5372e-13 -1.49659e-13 -1.03228e-13 0 0 -8.29618e-14 -1.33464e-13 -1.96983e-13 -5.06421e-14 0 0 -8.62725e-14 -8.65602e-14 -2.15965e-13 -5.41369e-14 0 0 -8.39672e-14 -9.36657e-14 -2.01672e-13 -3.6883e-14 0 0 -8.60264e-14 -1.36084e-13 -1.36129e-13 -7.1479e-14 0 0 -8.97599e-14 -1.54527e-13 -7.33127e-14 -1.14573e-13 0 0 -8.38393e-14 -1.48715e-13 -1.00758e-13 -6.95948e-14 0 0 -8.27819e-14 -1.29585e-13 -1.48193e-13 -1.54878e-14 0 0 -7.56197e-14 -1.31023e-13 -1.51477e-13 -9.74436e-15 0 0 -7.47962e-14 -1.02071e-13 -1.94066e-13 -8.76763e-15 0 0 -7.25287e-14 -7.63693e-14 -1.89162e-13 -2.99134e-14 0 0 -7.29506e-14 -8.20114e-14 -1.32355e-13 -8.48765e-14 0 0 -8.13945e-14 -8.08872e-14 -1.36036e-13 -1.1298e-13 0 0 -7.3159e-14 -7.76252e-14 -1.57224e-13 -9.9262e-14 0 0 -6.31566e-14 -8.98332e-14 -1.32841e-13 -9.58056e-14 0 0 -7.69592e-14 -1.14785e-13 -1.01889e-13 -7.6253e-14 0 0 -8.40981e-14 -1.44432e-13 -8.82015e-14 -4.17595e-14 0 0 -9.34842e-14 -1.34485e-13 -9.02132e-14 1.24577e-15 0 0 -8.9213e-14 -1.14906e-13 -1.03411e-13 9.36004e-15 0 0 -5.41574e-14 -1.19196e-13 -1.4188e-13 2.27625e-15 0 0 -6.00567e-14 -1.13714e-13 -1.76149e-13 1.58965e-14 0 0 -7.05708e-14 -8.21589e-14 -1.83831e-13 -2.05754e-14 0 0 -6.60044e-14 -7.09241e-14 -1.54464e-13 -7.3564e-14 0 0 -7.18679e-14 -6.7849e-14 -1.40361e-13 -9.08687e-14 0 0 -5.10309e-14 -6.4612e-14 -1.38928e-13 -7.57121e-14 0 0 -3.77998e-14 -7.97409e-14 -1.10589e-13 -6.26872e-14 0 0 -4.86271e-14 -6.57333e-14 -1.10147e-13 -3.74153e-14 0 0 -4.84157e-14 -5.46537e-14 -7.11419e-14 -6.33754e-14 0 0 -4.4241e-14 -6.03604e-14 -2.88779e-14 -9.82662e-14 0 0 -4.14492e-14 -5.16703e-14 -5.15814e-14 -5.62601e-14 0 0 -4.35854e-14 -3.94605e-14 -7.34067e-14 -2.62513e-14 0
				</DataArray>
				<DataArray Name="VitesseY" type="Float32" format="ascii">