<?xml version="1.0"?>
<VTKFile type="PolyData">
	<PolyData>
		<Piece NumberOfPoints="1206" NumberOfPolys="1000">
			<Points>
				<DataArray type="Float32" NumberOfComponents="3" format="ascii">
 0 0 0 0.02 0 0 0.04 0 0 0.06 0 0 0.08 0 0 0.1 0 0 0 0.005 0 0.02 0.005 0 0.04 0.005 0 0.06 0.005 0 0.08 0.005 0 0.1 0.005 0 0 0.01 0 0.02 0.01 0 0.04 0.01 0 0.06 0.01 0 0.08 0.01 0 0.1 0.01 0 0 0.015 0 0.02 0.015 0 0.04 0.015 0 0.06 0.015 0 0.08 0.015 0 0.1 0.015 0 0 0.02 0 0.02 0.02 0 0.04 0.02 0 0.06 0.02 0 0.08 0.02 0 0.1 0.02 0 0 0.025 0 0.02 0.025 0 0.04 0.025 0 0.06 0.025 0 0.08 0.025 0 0.1 0.025 0 0 0.03 0 0.02 0.03 0 0.04 0.03 0 0.06 0.03 0 0.08 0.03 0 0.1 0.03 0 0 0.035 0 0.02 0.035 0 0.04 0.035 0 0.06 0.035 0 0.08 0.035 0 0.1 0.035 0 0 0.04 0 0.02 0.04 0 0.04 0.04 0 0.06 0.04 0 0.08 0.04 0 0.1 0.04 0 0 0.045 0 0.02 0.045 0 0.04 0.045 0 0.06 0.045 0 0.08 0.045 0 0.1 0.045 0 0 0.05 0 0.02 0.05 0 0.04 0.05 0 0.06 0.05 0 0.08 0.05 0 0.1 0.05 0 0 0.055 0 0.02 0.055 0 0.04 0.055 0 0.06 0.055 0 0.08 0.055 0 0.1 0.055 0 0 0.06 0 0.02 0.06 0 0.04 0.06 0 0.06 0.06 0 0.08 0.06 0 0.1 0.06 0 0 0.065 0 0.02 0.065 0 0.04 0.065 0 0.06 0.065 0 0.08 0.065 0 0.1 0.065 0 0 0.07 0 0.02 0.07 0 0.04 0.07 0 0.06 0.07 0 0.08 0.07 0 0.1 0.07 0 0 0.075 0 0.02 0.075 0 0.04 0.075 0 0.06 0.075 0 0.08 0.075 0 0.1 0.075 0 0 0.08 0 0.02 0.08 0 0.04 0.08 0 0.06 0.08 0 0.08 0.08 0 0.1 0.08 0 0 0.085 0 0.02 0.085 0 0.04 0.085 0 0.06 0.085 0 0.08 0.085 0 0.1 0.085 0 0 0.09 0 0.02 0.09 0 0.04 0.09 0 0.06 0.09 0 0.08 0.09 0 0.1 0.09 0 0 0.095 0 0.02 0.095 0 0.04 0.095 0 0.06 0.095 0 0.08 0.095 0 0.1 0.095 0 0 0.1 0 0.02 0.1 0 0.04 0.1 0 0.06 0.1 0 0.08 0.1 0 0.1 0.1 0 0 0.105 0 0.02 0.105 0 0.04 0.105 0 0.06 0.105 0 0.08 0.105 0 0.1 0.105 0 0 0.11 0 0.02 0.11 0 0.04 0.11 0 0.06 0.11 0 0.08 0.11 0 0.1 0.11 0 0 0.115 0 0.02 0.115 0 0.04 0.115 0 0.06 0.115 0 0.08 0.115 0 0.1 0.115 0 0 0.12 0 0.02 0.12 0 0.04 0.12 0 0.06 0.12 0 0.08 0.12 0 0.1 0.12 0 0 0.125 0 0.02 0.125 0 0.04 0.125 0 0.06 0.125 0 0.08 0.125 0 0.1 0.125 0 0 0.13 0 0.02 0.13 0 0.04 0.13 0 0.06 0.13 0 0.08 0.13 0 0.1 0.13 0 0 0.135 0 0.02 0.135 0 0.04 0.135 0 0.06 0.135 0 0.08 0.135 0 0.1 0.135 0 0 0.14 0 0.02 0.14 0 0.04 0.14 0 0.06 0.14 0 0.08 0.14 0 0.1 0.14 0 0 0.145 0 0.02 0.145 0 0.04 0.145 0 0.06 0.145 0 0.08 0.145 0 0.1 0.145 0 0 0.15 0 0.02 0.15 0 0.04 0.15 0 0.06 0.15 0 0.08 0.15 0 0.1 0.15 0 0 0.155 0 0.02 0.155 0 0.04 0.155 0 0.06 0.155 0 0.08 0.155 0 0.1 0.155 0 0 0.16 0 0.02 0.16 0 0.04 0.16 0 0.06 0.16 0 0.08 0.16 0 0.1 0.16 0 0 0.165 0 0.02 0.165 0 0.04 0.165 0 0.06 0.165 0 0.08 0.165 0 0.1 0.165 0 0 0.17 0 0.02 0.17 0 0.04 0.17 0 0.06 0.17 0 0.08 0.17 0 0.1 0.17 0 0 0.175 0 0.02 0.175 0 0.04 0.175 0 0.06 0.175 0 0.08 0.175 0 0.1 0.175 0 0 0.18 0 0.02 0.18 0 0.04 0.18 0 0.06 0.18 0 0.08 0.18 0 0.1 0.18 0 0 0.185 0 0.02 0.185 0 0.04 0.185 0 0.06 0.185 0 0.08 0.185 0 0.1 0.185 0 0 0.19 0 0.02 0.19 0 0.04 0.19 0 0.06 0.19 0 0.08 0.19 0 0.1 0.19 0 0 0.195 0 0.02 0.195 0 0.04 0.195 0 0.06 0.195 0 0.08 0.195 0 0.1 0.195 0 0 0.2 0 0.02 0.2 0 0.04 0.2 0 0.06 0.2 0 0.08 0.2 0 0.1 0.2 0 0 0.205 0 0.02 0.205 0 0.04 0.205 0 0.06 0.205 0 0.08 0.205 0 0.1 0.205 0 0 0.21 0 0.02 0.21 0 0.04 0.21 0 0.06 0.21 0 0.08 0.21 0 0.1 0.21 0 0 0.215 0 0.02 0.215 0 0.04 0.215 0 0.06 0.215 0 0.08 0.215 0 0.1 0.215 0 0 0.22 0 0.02 0.22 0 0.04 0.22 0 0.06 0.22 0 0.08 0.22 0 0.1 0.22 0 0 0.225 0 0.02 0.225 0 0.04 0.225 0 0.06 0.225 0 0.08 0.225 0 0.1 0.225 0 0 0.23 0 0.02 0.23 0 0.04 0.23 0 0.06 0.23 0 0.08 0.23 0 0.1 0.23 0 0 0.235 0 0.02 0.235 0 0.04 0.235 0 0.06 0.235 0 0.08 0.235 0 0.1 0.235 0 0 0.24 0 0.02 0.24 0 0.04 0.24 0 0.06 0.24 0 0.08 0.24 0 0.1 0.24 0 0 0.245 0 0.02 0.245 0 0.04 0.245 0 0.06 0.245 0 0.08 0.245 0 0.1 0.245 0 0 0.25 0 0.02 0.25 0 0.04 0.25 0 0.06 0.25 0 0.08 0.25 0 0.1 0.25 0 0 0.255 0 0.02 0.255 0 0.04 0.255 0 0.06 0.255 0 0.08 0.255 0 0.1 0.255 0 0 0.26 0 0.02 0.26 0 0.04 0.26 0 0.06 0.26 0 0.08 0.26 0 0.1 0.26 0 0 0.265 0 0.02 0.265 0 0.04 0.265 0 0.06 0.265 0 0.08 0.265 0 0.1 0.265 0 0 0.27 0 0.02 0.27 0 0.04 0.27 0 0.06 0.27 0 0.08 0.27 0 0.1 0.27 0 0 0.275 0 0.02 0.275 0 0.04 0.275 0 0.06 0.275 0 0.08 0.275 0 0.1 0.275 0 0 0.28 0 0.02 0.28 0 0.04 0.28 0 0.06 0.28 0 0.08 0.28 0 0.1 0.28 0 0 0.285 0 0.02 0.285 0 0.04 0.285 0 0.06 0.285 0 0.08 0.285 0 0.1 0.285 0 0 0.29 0 0.02 0.29 0 0.04 0.29 0 0.06 0.29 0 0.08 0.29 0 0.1 0.29 0 0 0.295 0 0.02 0.295 0 0.04 0.295 0 0.06 0.295 0 0.08 0.295 0 0.1 0.295 0 0 0.3 0 0.02 0.3 0 0.04 0.3 0 0.06 0.3 0 0.08 0.3 0 0.1 0.3 0 0 0.305 0 0.02 0.305 0 0.04 0.305 0 0.06 0.305 0 0.08 0.305 0 0.1 0.305 0 0 0.31 0 0.02 0.31 0 0.04 0.31 0 0.06 0.31 0 0.08 0.31 0 0.1 0.31 0 0 0.315 0 0.02 0.315 0 0.04 0.315 0 0.06 0.315 0 0.08 0.315 0 0.1 0.315 0 0 0.32 0 0.02 0.32 0 0.04 0.32 0 0.06 0.32 0 0.08 0.32 0 0.1 0.32 0 0 0.325 0 0.02 0.325 0 0.04 0.325 0 0.06 0.325 0 0.08 0.325 0 0.1 0.325 0 0 0.33 0 0.02 0.33 0 0.04 0.33 0 0.06 0.33 0 0.08 0.33 0 0.1 0.33 0 0 0.335 0 0.02 0.335 0 0.04 0.335 0 0.06 0.335 0 0.08 0.335 0 0.1 0.335 0 0 0.34 0 0.02 0.34 0 0.04 0.34 0 0.06 0.34 0 0.08 0.34 0 0.1 0.34 0 0 0.345 0 0.02 0.345 0 0.04 0.345 0 0.06 0.345 0 0.08 0.345 0 0.1 0.345 0 0 0.35 0 0.02 0.35 0 0.04 0.35 0 0.06 0.35 0 0.08 0.35 0 0.1 0.35 0 0 0.355 0 0.02 0.355 0 0.04 0.355 0 0.06 0.355 0 0.08 0.355 0 0.1 0.355 0 0 0.36 0 0.02 0.36 0 0.04 0.36 0 0.06 0.36 0 0.08 0.36 0 0.1 0.36 0 0 0.365 0 0.02 0.365 0 0.04 0.365 0 0.06 0.365 0 0.08 0.365 0 0.1 0.365 0 0 0.37 0 0.02 0.37 0 0.04 0.37 0 0.06 0.37 0 0.08 0.37 0 0.1 0.37 0 0 0.375 0 0.02 0.375 0 0.04 0.375 0 0.06 0.375 0 0.08 0.375 0 0.1 0.375 0 0 0.38 0 0.02 0.38 0 0.04 0.38 0 0.06 0.38 0 0.08 0.38 0 0.1 0.38 0 0 0.385 0 0.02 0.385 0 0.04 0.385 0 0.06 0.385 0 0.08 0.385 0 0.1 0.385 0 0 0.39 0 0.02 0.39 0 0.04 0.39 0 0.06 0.39 0 0.08 0.39 0 0.1 0.39 0 0 0.395 0 0.02 0.395 0 0.04 0.395 0 0.06 0.395 0 0.08 0.395 0 0.1 0.395 0 0 0.4 0 0.02 0.4 0 0.04 0.4 0 0.06 0.4 0 0.08 0.4 0 0.1 0.4 0 0 0.405 0 0.02 0.405 0 0.04 0.405 0 0.06 0.405 0 0.08 0.405 0 0.1 0.405 0 0 0.41 0 0.02 0.41 0 0.04 0.41 0 0.06 0.41 0 0.08 0.41 0 0.1 0.41 0 0 0.415 0 0.02 0.415 0 0.04 0.415 0 0.06 0.415 0 0.08 0.415 0 0.1 0.415 0 0 0.42 0 0.02 0.42 0 0.04 0.42 0 0.06 0.42 0 0.08 0.42 0 0.1 0.42 0 0 0.425 0 0.02 0.425 0 0.04 0.425 0 0.06 0.425 0 0.08 0.425 0 0.1 0.425 0 0 0.43 0 0.02 0.43 0 0.04 0.43 0 0.06 0.43 0 0.08 0.43 0 0.1 0.43 0 0 0.435002 0 0.02 0.435002 0 0.04 0.435002 0 0.06 0.435002 0 0.08 0.435002 0 0.1 0.435002 0 0 0.440009 0 0.02 0.440009 0 0.04 0.440009 0 0.06 0.440009 0 0.08 0.440009 0 0.1 0.440009 0 0 0.445043 0 0.02 0.445043 0 0.04 0.445043 0 0.06 0.445043 0 0.08 0.445043 0 0.1 0.445043 0 0 0.45016 0 0.02 0.45016 0 0.04 0.45016 0 0.06 0.45016 0 0.08 0.45016 0 0.1 0.45016 0 0 0.455468 0 0.02 0.455468 0 0.04 0.455468 0 0.06 0.455468 0 0.08 0.455468 0 0.1 0.455468 0 0 0.461116 0 0.02 0.461116 0 0.04 0.461116 0 0.06 0.461116 0 0.08 0.461116 0 0.1 0.461116 0 0 0.467264 0 0.02 0.467264 0 0.04 0.467264 0 0.06 0.467264 0 0.08 0.467264 0 0.1 0.467264 0 0 0.474086 0 0.02 0.474086 0 0.04 0.474086 0 0.06 0.474086 0 0.08 0.474086 0 0.1 0.474086 0 0 0.481799 0 0.02 0.481799 0 0.04 0.481799 0 0.06 0.481799 0 0.08 0.481799 0 0.1 0.481799 0 0 0.490695 0 0.02 0.490695 0 0.04 0.490695 0 0.06 0.490695 0 0.08 0.490695 0 0.1 0.490695 0 0 0.501154 0 0.02 0.501154 0 0.04 0.501154 0 0.06 0.501154 0 0.08 0.501154 0 0.1 0.501154 0 0 0.513311 0 0.02 0.513311 0 0.04 0.513311 0 0.06 0.513311 0 0.08 0.513311 0 0.1 0.513311 0 0 0.525768 0 0.02 0.525768 0 0.04 0.525768 0 0.06 0.525768 0 0.08 0.525768 0 0.1 0.525768 0 0 0.537787 0 0.02 0.537787 0 0.04 0.537787 0 0.06 0.537787 0 0.08 0.537787 0 0.1 0.537787 0 0 0.540429 0 0.02 0.540429 0 0.04 0.540429 0 0.06 0.540429 0 0.08 0.540429 0 0.1 0.540429 0 0 0.542995 0 0.02 0.542995 0 0.04 0.542995 0 0.06 0.542995 0 0.08 0.542995 0 0.1 0.542995 0 0 0.545514 0 0.02 0.545514 0 0.04 0.545514 0 0.06 0.545514 0 0.08 0.545514 0 0.1 0.545514 0 0 0.548003 0 0.02 0.548003 0 0.04 0.548003 0 0.06 0.548003 0 0.08 0.548003 0 0.1 0.548003 0 0 0.550472 0 0.02 0.550472 0 0.04 0.550472 0 0.06 0.550472 0 0.08 0.550472 0 0.1 0.550472 0 0 0.552926 0 0.02 0.552926 0 0.04 0.552926 0 0.06 0.552926 0 0.08 0.552926 0 0.1 0.552926 0 0 0.55537 0 0.02 0.55537 0 0.04 0.55537 0 0.06 0.55537 0 0.08 0.55537 0 0.1 0.55537 0 0 0.557818 0 0.02 0.557818 0 0.04 0.557818 0 0.06 0.557818 0 0.08 0.557818 0 0.1 0.557818 0 0 0.560281 0 0.02 0.560281 0 0.04 0.560281 0 0.06 0.560281 0 0.08 0.560281 0 0.1 0.560281 0 0 0.562755 0 0.02 0.562755 0 0.04 0.562755 0 0.06 0.562755 0 0.08 0.562755 0 0.1 0.562755 0 0 0.565329 0 0.02 0.565329 0 0.04 0.565329 0 0.06 0.565329 0 0.08 0.565329 0 0.1 0.565329 0 0 0.568059 0 0.02 0.568059 0 0.04 0.568059 0 0.06 0.568059 0 0.08 0.568059 0 0.1 0.568059 0 0 0.570969 0 0.02 0.570969 0 0.04 0.570969 0 0.06 0.570969 0 0.08 0.570969 0 0.1 0.570969 0 0 0.574144 0 0.02 0.574144 0 0.04 0.574144 0 0.06 0.574144 0 0.08 0.574144 0 0.1 0.574144 0 0 0.577633 0 0.02 0.577633 0 0.04 0.577633 0 0.06 0.577633 0 0.08 0.577633 0 0.1 0.577633 0 0 0.581501 0 0.02 0.581501 0 0.04 0.581501 0 0.06 0.581501 0 0.08 0.581501 0 0.1 0.581501 0 0 0.585743 0 0.02 0.585743 0 0.04 0.585743 0 0.06 0.585743 0 0.08 0.585743 0 0.1 0.585743 0 0 0.590313 0 0.02 0.590313 0 0.04 0.590313 0 0.06 0.590313 0 0.08 0.590313 0 0.1 0.590313 0 0 0.595111 0 0.02 0.595111 0 0.04 0.595111 0 0.06 0.595111 0 0.08 0.595111 0 0.1 0.595111 0 0 0.600035 0 0.02 0.600035 0 0.04 0.600035 0 0.06 0.600035 0 0.08 0.600035 0 0.1 0.600035 0 0 0.60501 0 0.02 0.60501 0 0.04 0.60501 0 0.06 0.60501 0 0.08 0.60501 0 0.1 0.60501 0 0 0.610003 0 0.02 0.610003 0 0.04 0.610003 0 0.06 0.610003 0 0.08 0.610003 0 0.1 0.610003 0 0 0.615001 0 0.02 0.615001 0 0.04 0.615001 0 0.06 0.615001 0 0.08 0.615001 0 0.1 0.615001 0 0 0.62 0 0.02 0.62 0 0.04 0.62 0 0.06 0.62 0 0.08 0.62 0 0.1 0.62 0 0 0.625 0 0.02 0.625 0 0.04 0.625 0 0.06 0.625 0 0.08 0.625 0 0.1 0.625 0 0 0.63 0 0.02 0.63 0 0.04 0.63 0 0.06 0.63 0 0.08 0.63 0 0.1 0.63 0 0 0.635 0 0.02 0.635 0 0.04 0.635 0 0.06 0.635 0 0.08 0.635 0 0.1 0.635 0 0 0
[...]
			<PointData Scalars="VitesseX">
				<DataArray Name="VitesseX" type="Float32" format="ascii">
 0 3.16288e-16 -9.51441e-16 1.20456e-15 -6.66255e-16 0 0 3.80346e-16 -7.08852e-16 9.78577e-16 -5.84864e-16 0 0 4.74692e-16 -4.42842e-16 7.35402e-16 -6.33399e-16 0 0 -4.97379e-16 1.1818e-15 -4.93496e-16 3.35059e-16 0 0 -7.6411e-16 1.52376e-15 -5.80886e-16 6.86465e-16 0 0 3.92138e-17 -5.90759e-16 8.29525e-16 2.8746e-16 0 0 2.593e-16 -5.32588e-16 3.87076e-16 5.87742e-16 0 0 5.93174e-16 -4.34083e-17 -2.3703e-16 8.55296e-16 0 0 -2.36761e-16 1.95576e-16 5.88328e-16 1.69343e-16 0 0 -1.12914e-15 1.88454e-16 1.65843e-15 4.85286e-17 0 0 -2.92704e-16 -5.39186e-16 1.51212e-15 2.03138e-15 0 0 1.17279e-15 -1.41393e-15 7.01943e-16 3.92077e-15 0 0 5.94251e-16 9.9569e-16 -2.71337e-15 5.12817e-15 0 0 -1.14534e-15 1.3744e-15 -9.97637e-16 1.79907e-15 0 0 -7.80442e-16 2.79708e-16 1.86113e-15 -2.2709e-15 0 0 -4.51317e-16 5.63074e-16 9.42924e-16 -1.10384e-15 0 0 2.42336e-16 -1.08736e-15 2.12425e-15 -3.92238e-16 0 0 -1.44894e-15 1.69721e-15 3.87118e-16 2.49775e-16 0 0 -1.19865e-15 1.01787e-15 5.32295e-16 -2.22602e-16 0 0 3.81259e-16 -5.14809e-16 1.41784e-15 -9.2742e-16 0 0 8.7213e-16 4.94473e-16 -1.48632e-15 1.9743e-15 0 0 1.55707e-15 -1.69512e-15 -1.52365e-15 1.65946e-15 0 0 3.37535e-19 -2.79287e-15 4.47039e-16 -9.85466e-16 0 0 -5.82322e-16 -3.45563e-16 4.6033e-16 -1.86088e-15 0 0 6.18411e-16 8.18168e-16 -2.52389e-15 1.01627e-16 0 0 3.07138e-15 2.44746e-15 -7.84248e-15 3.55591e-15 0 0 -2.0677e-16 3.89006e-15 -3.98912e-15 1.42971e-15 0 0 -1.76178e-15 -2.76646e-16 3.32144e-15 -3.17294e-15 0 0 2.3409e-16 -2.96239e-15 2.91879e-15 -3.82081e-15 0 0 4.72008e-16 -5.93577e-16 1.14385e-15 -2.69648e-15 0 0 1.6688e-15 7.18636e-16 1.12606e-15 -1.23211e-15 0 0 -2.07726e-15 2.3166e-15 -7.47777e-17 2.32926e-15 0 0 -5.26339e-16 -2.60639e-15 5.89777e-15 -1.21447e-15 0 0 1.62489e-15 -6.20872e-15 6.24037e-15 -1.23953e-15 0 0 1.23603e-15 -3.90493e-15 8.68981e-16 5.48948e-15 0 0 3.07983e-15 -2.22109e-15 7.92775e-16 4.68788e-15 0 0 1.39121e-15 5.25574e-16 -1.60588e-15 2.62616e-15 0 0 -1.26596e-15 -2.24261e-16 1.5924e-15 -1.26865e-16 0 0 -1.79486e-15 4.63818e-16 -1.82529e-15 3.85012e-15 0 0 -1.1289e-15 -2.04451e-16 -7.64254e-16 1.94427e-15 0 0 4.30061e-16 4.12151e-16 3.21754e-15 9.38492e-15 0 0 1.94422e-15 5.71387e-16 2.99624e-15 1.99709e-14 0 0 4.32494e-16 6.71992e-16 4.15866e-15 1.21469e-14 0 0 -2.06281e-15 5.91023e-15 -4.01907e-15 1.25632e-14 0 0 -3.58663e-15 5.34407e-15 -4.76636e-15 1.01798e-14 0 0 3.90002e-15 -7.43129e-15 3.32641e-15 2.81814e-15 0 0 2.67664e-15 -4.59817e-15 6.30485e-15 -3.31013e-15 0 0 1.78524e-15 -1.48513e-15 1.29189e-14 -1.1281e-14 0 0 2.33046e-15 1.20276e-16 1.17448e-14 -1.0445e-14 0 0 -2.68731e-15 1.11754e-14 -4.17311e-15 7.92653e-15 0 0 -1.35257e-15 8.45547e-15 -8.95792e-15 1.46839e-14 0 0 -2.03949e-15 5.35661e-15 -8.45968e-15 5.89995e-15 0 0 1.83221e-15 -2.1952e-15 5.52821e-16 -3.41605e-15 0 0 2.97301e-16 -4.7521e-15 5.84565e-15 -2.64578e-15 0 0 1.72048e-15 9.67861e-16 -4.12904e-16 -1.83614e-15 0 0 2.54454e-15 -1.18396e-15 -2.0824e-15 2.51632e-15 0 0 1.01688e-15 -1.53696e-15 -1.4782e-15 8.63674e-15 0 0 8.55733e-15 -1.30046e-14 1.89151e-14 -6.11609e-15 0 0 2.27588e-15 -1.01869e-14 9.48441e-15 2.34085e-15 0 0 -3.84976e-15 5.26214e-15 -5.57903e-15 6.26133e-15 0 0 9.72204e-16 -4.55755e-15 1.79044e-14 -1.04747e-14 0 0 -1.49654e-15 2.12118e-15 8.69405e-15 -1.1482e-14 0 0 1.27535e-15 5.07035e-15 -3.77882e-16 -9.05483e-15 0 0 2.18291e-15 -1.73829e-15 1.8406e-15 3.02743e-16 0 0 1.69419e-15 -6.29695e-16 -2.74865e-15 5.10195e-15 0 0 1.00076e-14 -5.55099e-15 4.6229e-15 -6.88923e-15 0 0 2.37972e-15 4.20712e-15 -5.2925e-17 -6.69925e-15 0 0 6.21464e-15 -4.31787e-15 7.54842e-15 -3.46563e-15 0 0 6.72564e-15 5.19051e-16 -1.96853e-15 2.82445e-15 0 0 -9.71698e-16 1.43992e-14 -1.48094e-14 1.78354e-15 0 0 9.85424e-15 3.17774e-15 -9.12643e-15 -7.58197e-15 0 0 4.68937e-15 7.70962e-15 -9.48404e-15 -7.76025e-15 0 0 -1.93056e-15 7.8956e-15 -4.28698e-15 7.39425e-16 0 0 -5.22898e-16 -1.44585e-15 3.29683e-15 3.14233e-15 0 0 1.33055e-14 -1.94179e-14 2.59144e-14 -1.2512e-14 0 0 2.23965e-14 -2.80422e-14 2.35048e-14 1.3018e-14 0 0 1.56027e-15 1.64806e-16 -1.71791e-14 4.46893e-14 0 0 4.44265e-15 1.22426e-15 -9.99896e-15 2.21365e-14 0 0 1.91752e-14 -8.06861e-15 8.86904e-15 6.0371e-16 0 0 1.60768e-14 7.39107e-15 7.92608e-15 1.19614e-15 0 0 4.51375e-15 2.41468e-14 -7.8454e-16 -1.16821e-15 0 0 -5.91901e-15 1.88733e-14 -7.83107e-15 3.00294e-14 0 0 -1.20132e-15 5.97917e-15 8.49099e-15 2.39087e-14 0 0 1.14469e-14 1.84556e-14 1.24737e-14 -2.29575e-14 0 0 4.99325e-15 1.48551e-14 2.63426e-15 -1.53272e-14 0 0 -7.59843e-15 1.02121e-14 -1.81605e-14 -1.15086e-14 0 0 3.41907e-15 1.38971e-14 -2.14991e-14 -3.90886e-15 0 0 9.67842e-15 -1.20226e-15 -9.00407e-15 1.47564e-14 0 0 3.4488e-15 6.57875e-16 -6.53819e-15 8.47773e-15 0 0 -4.26682e-15 2.7871e-14 -1.69681e-14 1.62169e-14 0 0 -5.18252e-16 2.21305e-14 -1.19205e-14 2.45981e-14 0 0 1.33207e-14 -2.20919e-15 -3.10268e-16 1.84227e-14 0 0 1.17063e-14 -3.17866e-15 -2.63789e-15 1.1247e-14 0 0 -1.1893e-14 7.55584e-15 3.63434e-16 2.42158e-15 0 0 -4.89229e-15 1.77628e-15 1.65841e-16 5.61715e-15 0 0 5.11468e-15 2.05255e-16 -3.26411e-15 4.42209e-15 0 0 1.09149e-14 9.71572e-15 -2.20089e-15 -2.05703e-16 0 0 1.09457e-14 7.49256e-15 -3.40162e-15 5.63853e-15 0 0 -1.86323e-14 -3.94625e-14 -3.35103e-14 -1.11521e-14 0 0 -1.18071e-13 -2.00864e-13 -1.83288e-13 -1.10495e-13 0 0 -2.37748e-13 -3.97224e-13 -3.96821e-13 -2.3028e-13 0 0 -6.16451e-13 -1.03144e-12 -1.0204e-12 -6.0692e-13 0 0 -5.86195e-13 -9.67696e-13 -9.65155e-13 -5.68105e-13 0 0 -5.03741e-13 -8.12467e-13 -8.73827e-13 -4.80965e-13 0 0 -3.84131e-13 -6.24322e-13 -6.97997e-13 -3.43745e-13 0 0 -2.4696e-13 -3.93808e-13 -3.97348e-13 -2.69208e-13 0 0 -1.25819e-13 -1.83297e-13 -1.41073e-13 -1.94884e-13 0 0 -8.48029e-14 -3.55427e-14 -6.37479e-14 -1.04587e-13 0 0 -1.07629e-13 -4.56116e-14 -1.4085e-13 -6.16335e-14 0 0 -1.63885e-13 -3.35555e-13 -3.18841e-13 -1.64865e-13 0 0 -3.25657e-13 -6.87312e-13 -6.66384e-13 -3.69805e-13 0 0 -5.00439e-13 -9.19765e-13 -9.23087e-13 -5.57035e-13 0 0 -6.7682e-13 -1.10683e-12 -1.20706e-12 -6.95574e-13 0 0 -7.49116e-13 -1.07439e-12 -1.31738e-12 -7.17909e-13 0 0 -7.07526e-13 -1.10069e-12 -1.15765e-12 -7.61134e-13 0 0 -6.13477e-13 -1.00542e-12 -1.00468e-12 -6.39273e-13 0 0 -4.68472e-13 -7.18118e-13 -7.9013e-13 -4.5044e-13 0 0 -3.0085e-13 -4.13645e-13 -4.97599e-13 -2.7317e-13 0 0 -1.30842e-13 -1.94863e-13 -2.24982e-13 -1.19423e-13 0 0 -3.29968e-14 -8.07722e-14 -5.49943e-14 -5.52785e-14 0 0 -1.37083e-14 -2.46934e-14 8.92565e-15 -2.08686e-14 0 0 -7.00466e-15 1.93623e-14 -1.3439e-14 7.51833e-15 0 0 -7.87356e-15 3.19267e-14 -8.28601e-15 3.69138e-15 0 0 6.99608e-16 -6.61016e-15 3.61922e-14 -1.28895e-14 0 0 -4.27135e-15 4.89011e-15 5.63191e-15 2.05762e-14 0 0 1.58306e-15 5.12288e-15 -1.29411e-14 3.18147e-14 0 0 5.82435e-15 3.65464e-16 -5.56528e-15 3.06557e-14 0 0 -1.46928e-15 1.20537e-14 4.94739e-15 3.23185e-14 0 0 9.83564e-15 1.0069e-14 2.64829e-14 1.15336e-14 0 0 1.64849e-15 3.41061e-14 -1.08474e-16 1.42727e-14 0 0 1.60588e-16 3.35381e-14 -2.75038e-15 7.49769e-15 0 0 1.59165e-14 2.23555e-15 3.44126e-14 3.80312e-15 0 0 1.46727e-14 1.05732e-14 3.11567e-14 7.72676e-15 0 0 1.46539e-14 2.52387e-14 1.35929e-14 -6.12837e-15 0 0 2.43247e-14 1.29507e-14 1.61298e-14 6.40735e-15 0 0 3.50398e-14 2.89941e-14 -3.20531e-15 2.94165e-14 0 0 2.84025e-14 4.33519e-14 -1.62932e-14 2.71463e-14 0 0 1.95472e-14 2.84977e-14 1.53723e-14 -1.28907e-14 0 0 3.46545e-14 2.71157e-15 8.01444e-15 -6.43062e-15 0 0 2.492e-14 1.23807e-14 -5.58414e-15 2.68612e-15 0 0 9.14069e-15 5.06026e-14 -6.03038e-15 -1.73028e-14 0 0 1.0689e-14 4.96673e-14 -5.5506e-15 -3.38754e-15 0 0 1.06807e-15 2.98688e-14 -1.33715e-14 2.80431e-14 0 0 6.28829e-15 8.96923e-15 -2.09582e-15 2.72497e-14 0 0 1.92557e-14 -1.71301e-15 2.35111e-14 -7.66691e-15 0 0 3.50091e-15 2.97685e-14 1.92264e-15 -9.92344e-15 0 0 4.9474e-15 2.31736e-14 4.76185e-15 -2.44092e-15 0 0 1.17704e-14 7.85869e-15 5.83246e-15 -2.7045e-15 0 0 2.98389e-14 4.6168e-15 -1.03247e-14 3.07009e-15 0 0 3.82499e-14 -1.31727e-14 6.39153e-15 2.05403e-15 0 0 1.50316e-14 2.40038e-15 -4.25119e-15 5.57846e-15 0 0 3.77126e-14 2.95935e-15 -1.68957e-14 8.46908e-16 0 0 3.03916e-14 9.69339e-15 2.05027e-14 -1.85708e-14 0 0 1.49935e-14 1.28931e-14 4.16236e-14 -3.35943e-14 0 0 1.13008e-14 3.52868e-14 6.93259e-16 -2.14408e-14 0 0 1.74399e-14 1.90094e-14 -4.09439e-16 -5.51749e-15 0 0 4.03293e-14 -8.48972e-15 1.08425e-14 -6.51091e-15 0 0 4.04097e-14 3.61563e-16 -9.16805e-16 -9.01282e-15 0 0 2.82519e-14 2.37579e-15 4.24712e-15 -2.77687e-15 0 0 3.74691e-14 6.55497e-15 5.23765e-15 7.44525e-15 0 0 6.10559e-14 -2.44132e-14 2.86179e-14 -4.20408e-14 0 0 2.18527e-14 -3.05156e-14 3.37161e-14 -7.18799e-14 0 0 -1.17862e-14 -3.68837e-15 2.92197e-14 -2.33367e-14 0 0 1.58496e-14 -9.40313e-15 3.802e-14 5.4047e-15 0 0 3.35175e-14 -7.62841e-16 4.4609e-14 -2.26941e-14 0 0 2.22416e-14 5.1083e-14 2.24701e-14 -2.80136e-14 0 0 8.92601e-15 4.88844e-14 -8.55696e-16 3.73167e-15 0 0 2.86765e-14 -1.57702e-14 9.26832e-15 2.57534e-14 0 0 1.99801e-14 8.37867e-15 -4.14521e-15 -8.97252e-16 0 0 2.17996e-14 1.86332e-14 -2.1055e-14 -1.30198e-14 0 0 1.72071e-14 8.93237e-16 1.38628e-14 -2.73377e-14 0 0 1.47993e-14 1.33336e-14 9.27819e-15 -4.14366e-14 0 0 2.50604e-14 -3.65563e-15 1.08907e-14 -2.15966e-14 0 0 -9.87938e-15 -2.12426e-15 5.86029e-14 -1.15854e-14 0 0 1.27662e-14 -2.72019e-14 9.08504e-14 -3.34582e-14 0 0 8.72706e-15 -1.79555e-14 1.03271e-13 -3.81973e-14 0 0 2.21854e-15 -9.05195e-15 8.9974e-14 -3.5598e-14 0 0 2.85331e-14 1.99348e-14 4.90817e-15 -2.76424e-14 0 0 4.76406e-14 1.4325e-14 -2.2154e-14 3.03956e-15 0 0 3.67647e-14 -1.70026e-14 2.97407e-14 -6.03252e-15 0 0 2.4588e-14 1.14474e-14 2.00965e-14 4.05177e-15 0 0 1.95262e-14 1.14728e-14 4.80551e-14 1.4225e-14 0 0 2.39585e-15 4.95362e-15 5.36638e-14 3.26626e-14 0 0 2.34603e-14 1.19172e-14 2.17488e-15 3.24813e-15 0 0 1.76185e-14 2.69855e-14 1.407e-15 -3.37936e-14 0 0 1.09385e-14 1.89741e-14 7.24326e-15 2.7871e-14 0 0 -1.20289e-14 4.24273e-14 2.03329e-15 4.68042e-14 0 0 -2.49462e-14 4.94303e-14 5.327e-14 -7.64632e-15 0 0 7.81021e-15 2.334e-14 3.86855e-14 -1.35847e-14 0 0 -2.98951e-15 2.89838e-14 -1.43692e-14 3.72915e-15 0 0 8.23961e-15 -2.23845e-15 8.46001e-16 2.24143e-15 0 0 1.959e-14 -9.4121e-15 5.94365e-15 1.11198e-14 0 0 -9.94188e-15 1.20471e-14 -1.14043e-14 4.56517e-14 0 0 -1.32854e-16 -4.7087e-15 -1.26165e-14 4.1282e-14 0 0 2.32091e-15 -4.64678e-15 -1.3729e-14 1.54817e-14 0 0 -3.44451e-15 -1.23693e-15 -8.99138e-15 4.20076e-15 0 0 5.13625e-15 -5.24336e-16 -8.85591e-15 -9.20718e-15 0 0 -7.99848e-15 2.12463e-14 -1.30332e-14 -6.85891e-15 0 0 7.27331e-15 2.92386e-15 1.26235e-14 -1.23725e-14 0 0 3.96604e-15 -1.28033e-14 2.87016e-14 -2.87334e-15 0 0 -2.41411e-14 2.67958e-15 3.16166e-14 5.905e-15 0
				</DataArray>
				<DataArray Name="VitesseY" type="Float32" format="ascii">