<?xml version="1.0"?>
<VTKFile type="PolyData">
	<PolyData>
		<Piece NumberOfPoints="1206" NumberOfPolys="1000">
			<Points>
				<DataArray type="Float32" NumberOfComponents="3" format="ascii">
 0 0 0 0.02 0 0 0.04 0 0 0.06 0 0 0.08 0 0 0.1 0 0 0 0.005 0 0.02 0.005 0 0.04 0.005 0 0.06 0.005 0 0.08 0.005 0 0.1 0.005 0 0 0.01 0 0.02 0.01 0 0.04 0.01 0 0.06 0.01 0 0.08 0.01 0 0.1 0.01 0 0 0.015 0 0.02 0.015 0 0.04 0.015 0 0.06 0.015 0 0.08 0.015 0 0.1 0.015 0 0 0.02 0 0.02 0.02 0 0.04 0.02 0 0.06 0.02 0 0.08 0.02 0 0.1 0.02 0 0 0.025 0 0.02 0.025 0 0.04 0.025 0 0.06 0.025 0 0.08 0.025 0 0.1 0.025 0 0 0.03 0 0.02 0.03 0 0.04 0.03 0 0.06 0.03 0 0.08 0.03 0 0.1 0.03 0 0 0.035 0 0.02 0.035 0 0.04 0.035 0 0.06 0.035 0 0.08 0.035 0 0.1 0.035 0 0 0.04 0 0.02 0.04 0 0.04 0.04 0 0.06 0.04 0 0.08 0.04 0 0.1 0.04 0 0 0.045 0 0.02 0.045 0 0.04 0.045 0 0.06 0.045 0 0.08 0.045 0 0.1 0.045 0 0 0.05 0 0.02 0.05 0 0.04 0.05 0 0.06 0.05 0 0.08 0.05 0 0.1 0.05 0 0 0.055 0 0.02 0.055 0 0.04 0.055 0 0.06 0.055 0 0.08 0.055 0 0.1 0.055 0 0 0.06 0 0.02 0.06 0 0.04 0.06 0 0.06 0.06 0 0.08 0.06 0 0.1 0.06 0 0 0.065 0 0.02 0.065 0 0.04 0.065 0 0.06 0.065 0 0.08 0.065 0 0.1 0.065 0 0 0.07 0 0.02 0.07 0 0.04 0.07 0 0.06 0.07 0 0.08 0.07 0 0.1 0.07 0 0 0.075 0 0.02 0.075 0 0.04 0.075 0 0.06 0.075 0 0.08 0.075 0 0.1 0.075 0 0 0.08 0 0.02 0.08 0 0.04 0.08 0 0.06 0.08 0 0.08 0.08 0 0.1 0.08 0 0 0.085 0 0.02 0.085 0 0.04 0.085 0 0.06 0.085 0 0.08 0.085 0 0.1 0.085 0 0 0.09 0 0.02 0.09 0 0.04 0.09 0 0.06 0.09 0 0.08 0.09 0 0.1 0.09 0 0 0.095 0 0.02 0.095 0 0.04 0.095 0 0.06 0.095 0 0.08 0.095 0 0.1 0.095 0 0 0.1 0 0.02 0.1 0 0.04 0.1 0 0.06 0.1 0 0.08 0.1 0 0.1 0.1 0 0 0.105 0 0.02 0.105 0 0.04 0.105 0 0.06 0.105 0 0.08 0.105 0 0.1 0.105 0 0 0.11 0 0.02 0.11 0 0.04 0.11 0 0.06 0.11 0 0.08 0.11 0 0.1 0.11 0 0 0.115 0 0.02 0.115 0 0.04 0.115 0 0.06 0.115 0 0.08 0.115 0 0.1 0.115 0 0 0.12 0 0.02 0.12 0 0.04 0.12 0 0.06 0.12 0 0.08 0.12 0 0.1 0.12 0 0 0.125 0 0.02 0.125 0 0.04 0.125 0 0.06 0.125 0 0.08 0.125 0 0.1 0.125 0 0 0.13 0 0.02 0.13 0 0.04 0.13 0 0.06 0.13 0 0.08 0.13 0 0.1 0.13 0 0 0.135 0 0.02 0.135 0 0.04 0.135 0 0.06 0.135 0 0.08 0.135 0 0.1 0.135 0 0 0.14 0 0.02 0.14 0 0.04 0.14 0 0.06 0.14 0 0.08 0.14 0 0.1 0.14 0 0 0.145 0 0.02 0.145 0 0.04 0.145 0 0.06 0.145 0 0.08 0.145 0 0.1 0.145 0 0 0.15 0 0.02 0.15 0 0.04 0.15 0 0.06 0.15 0 0.08 0.15 0 0.1 0.15 0 0 0.155 0 0.02 0.155 0 0.04 0.155 0 0.06 0.155 0 0.08 0.155 0 0.1 0.155 0 0 0.16 0 0.02 0.16 0 0.04 0.16 0 0.06 0.16 0 0.08 0.16 0 0.1 0.16 0 0 0.165 0 0.02 0.165 0 0.04 0.165 0 0.06 0.165 0 0.08 0.165 0 0.1 0.165 0 0 0.17 0 0.02 0.17 0 0.04 0.17 0 0.06 0.17 0 0.08 0.17 0 0.1 0.17 0 0 0.175 0 0.02 0.175 0 0.04 0.175 0 0.06 0.175 0 0.08 0.175 0 0.1 0.175 0 0 0.18 0 0.02 0.18 0 0.04 0.18 0 0.06 0.18 0 0.08 0.18 0 0.1 0.18 0 0 0.185 0 0.02 0.185 0 0.04 0.185 0 0.06 0.185 0 0.08 0.185 0 0.1 0.185 0 0 0.19 0 0.02 0.19 0 0.04 0.19 0 0.06 0.19 0 0.08 0.19 0 0.1 0.19 0 0 0.195 0 0.02 0.195 0 0.04 0.195 0 0.06 0.195 0 0.08 0.195 0 0.1 0.195 0 0 0.2 0 0.02 0.2 0 0.04 0.2 0 0.06 0.2 0 0.08 0.2 0 0.1 0.2 0 0 0.205 0 0.02 0.205 0 0.04 0.205 0 0.06 0.205 0 0.08 0.205 0 0.1 0.205 0 0 0.21 0 0.02 0.21 0 0.04 0.21 0 0.06 0.21 0 0.08 0.21 0 0.1 0.21 0 0 0.215 0 0.02 0.215 0 0.04 0.215 0 0.06 0.215 0 0.08 0.215 0 0.1 0.215 0 0 0.22 0 0.02 0.22 0 0.04 0.22 0 0.06 0.22 0 0.08 0.22 0 0.1 0.22 0 0 0.225 0 0.02 0.225 0 0.04 0.225 0 0.06 0.225 0 0.08 0.225 0 0.1 0.225 0 0 0.23 0 0.02 0.23 0 0.04 0.23 0 0.06 0.23 0 0.08 0.23 0 0.1 0.23 0 0 0.235 0 0.02 0.235 0 0.04 0.235 0 0.06 0.235 0 0.08 0.235 0 0.1 0.235 0 0 0.24 0 0.02 0.24 0 0.04 0.24 0 0.06 0.24 0 0.08 0.24 0 0.1 0.24 0 0 0.245 0 0.02 0.245 0 0.04 0.245 0 0.06 0.245 0 0.08 0.245 0 0.1 0.245 0 0 0.25 0 0.02 0.25 0 0.04 0.25 0 0.06 0.25 0 0.08 0.25 0 0.1 0.25 0 0 0.255 0 0.02 0.255 0 0.04 0.255 0 0.06 0.255 0 0.08 0.255 0 0.1 0.255 0 0 0.26 0 0.02 0.26 0 0.04 0.26 0 0.06 0.26 0 0.08 0.26 0 0.1 0.26 0 0 0.265 0 0.02 0.265 0 0.04 0.265 0 0.06 0.265 0 0.08 0.265 0 0.1 0.265 0 0 0.27 0 0.02 0.27 0 0.04 0.27 0 0.06 0.27 0 0.08 0.27 0 0.1 0.27 0 0 0.275001 0 0.02 0.275001 0 0.04 0.275001 0 0.06 0.275001 0 0.08 0.275001 0 0.1 0.275001 0 0 0.280002 0 0.02 0.280002 0 0.04 0.280002 0 0.06 0.280002 0 0.08 0.280002 0 0.1 0.280002 0 0 0.285006 0 0.02 0.285006 0 0.04 0.285006 0 0.06 0.285006 0 0.08 0.285006 0 0.1 0.285006 0 0 0.290017 0 0.02 0.290017 0 0.04 0.290017 0 0.06 0.290017 0 0.08 0.290017 0 0.1 0.290017 0 0 0.295042 0 0.02 0.295042 0 0.04 0.295042 0 0.06 0.295042 0 0.08 0.295042 0 0.1 0.295042 0 0 0.300093 0 0.02 0.300093 0 0.04 0.300093 0 0.06 0.300093 0 0.08 0.300093 0 0.1 0.300093 0 0 0.305186 0 0.02 0.305186 0 0.04 0.305186 0 0.06 0.305186 0 0.08 0.305186 0 0.1 0.305186 0 0 0.31034 0 0.02 0.31034 0 0.04 0.31034 0 0.06 0.31034 0 0.08 0.31034 0 0.1 0.31034 0 0 0.315575 0 0.02 0.315575 0 0.04 0.315575 0 0.06 0.315575 0 0.08 0.315575 0 0.1 0.315575 0 0 0.320905 0 0.02 0.320905 0 0.04 0.320905 0 0.06 0.320905 0 0.08 0.320905 0 0.1 0.320905 0 0 0.326343 0 0.02 0.326343 0 0.04 0.326343 0 0.06 0.326343 0 0.08 0.326343 0 0.1 0.326343 0 0 0.331901 0 0.02 0.331901 0 0.04 0.331901 0 0.06 0.331901 0 0.08 0.331901 0 0.1 0.331901 0 0 0.337587 0 0.02 0.337587 0 0.04 0.337587 0 0.06 0.337587 0 0.08 0.337587 0 0.1 0.337587 0 0 0.34341 0 0.02 0.34341 0 0.04 0.34341 0 0.06 0.34341 0 0.08 0.34341 0 0.1 0.34341 0 0 0.349381 0 0.02 0.349381 0 0.04 0.349381 0 0.06 0.349381 0 0.08 0.349381 0 0.1 0.349381 0 0 0.355507 0 0.02 0.355507 0 0.04 0.355507 0 0.06 0.355507 0 0.08 0.355507 0 0.1 0.355507 0 0 0.3618 0 0.02 0.3618 0 0.04 0.3618 0 0.06 0.3618 0 0.08 0.3618 0 0.1 0.3618 0 0 0.36827 0 0.02 0.36827 0 0.04 0.36827 0 0.06 0.36827 0 0.08 0.36827 0 0.1 0.36827 0 0 0.374929 0 0.02 0.374929 0 0.04 0.374929 0 0.06 0.374929 0 0.08 0.374929 0 0.1 0.374929 0 0 0.38179 0 0.02 0.38179 0 0.04 0.38179 0 0.06 0.38179 0 0.08 0.38179 0 0.1 0.38179 0 0 0.388868 0 0.02 0.388868 0 0.04 0.388868 0 0.06 0.388868 0 0.08 0.388868 0 0.1 0.388868 0 0 0.396178 0 0.02 0.396178 0 0.04 0.396178 0 0.06 0.396178 0 0.08 0.396178 0 0.1 0.396178 0 0 0.403738 0 0.02 0.403738 0 0.04 0.403738 0 0.06 0.403738 0 0.08 0.403738 0 0.1 0.403738 0 0 0.411567 0 0.02 0.411567 0 0.04 0.411567 0 0.06 0.411567 0 0.08 0.411567 0 0.1 0.411567 0 0 0.419688 0 0.02 0.419688 0 0.04 0.419688 0 0.06 0.419688 0 0.08 0.419688 0 0.1 0.419688 0 0 0.428123 0 0.02 0.428123 0 0.04 0.428123 0 0.06 0.428123 0 0.08 0.428123 0 0.1 0.428123 0 0 0.436902 0 0.02 0.436902 0 0.04 0.436902 0 0.06 0.436902 0 0.08 0.436902 0 0.1 0.436902 0 0 0.446053 0 0.02 0.446053 0 0.04 0.446053 0 0.06 0.446053 0 0.08 0.446053 0 0.1 0.446053 0 0 0.45561 0 0.02 0.45561 0 0.04 0.45561 0 0.06 0.45561 0 0.08 0.45561 0 0.1 0.45561 0 0 0.465611 0 0.02 0.465611 0 0.04 0.465611 0 0.06 0.465611 0 0.08 0.465611 0 0.1 0.465611 0 0 0.476092 0 0.02 0.476092 0 0.04 0.476092 0 0.06 0.476092 0 0.08 0.476092 0 0.1 0.476092 0 0 0.487085 0 0.02 0.487085 0 0.04 0.487085 0 0.06 0.487085 0 0.08 0.487085 0 0.1 0.487085 0 0 0.498603 0 0.02 0.498603 0 0.04 0.498603 0 0.06 0.498603 0 0.08 0.498603 0 0.1 0.498603 0 0 0.510579 0 0.02 0.510579 0 0.04 0.510579 0 0.06 0.510579 0 0.08 0.510579 0 0.1 0.510579 0 0 0.522751 0 0.02 0.522751 0 0.04 0.522751 0 0.06 0.522751 0 0.08 0.522751 0 0.1 0.522751 0 0 0.534837 0 0.02 0.534837 0 0.04 0.534837 0 0.06 0.534837 0 0.08 0.534837 0 0.1 0.534837 0 0 0.546821 0 0.02 0.546821 0 0.04 0.546821 0 0.06 0.546821 0 0.08 0.546821 0 0.1 0.546821 0 0 0.558706 0 0.02 0.558706 0 0.04 0.558706 0 0.06 0.558706 0 0.08 0.558706 0 0.1 0.558706 0 0 0.570519 0 0.02 0.570519 0 0.04 0.570519 0 0.06 0.570519 0 0.08 0.570519 0 0.1 0.570519 0 0 0.58229 0 0.02 0.58229 0 0.04 0.58229 0 0.06 0.58229 0 0.08 0.58229 0 0.1 0.58229 0 0 0.59404 0 0.02 0.59404 0 0.04 0.59404 0 0.06 0.59404 0 0.08 0.59404 0 0.1 0.59404 0 0 0.605781 0 0.02 0.605781 0 0.04 0.605781 0 0.06 0.605781 0 0.08 0.605781 0 0.1 0.605781 0 0 0.617519 0 0.02 0.617519 0 0.04 0.617519 0 0.06 0.617519 0 0.08 0.617519 0 0.1 0.617519 0 0 0.629257 0 0.02 0.629257 0 0.04 0.629257 0 0.06 0.629257 0 0.08 0.629257 0 0.1 0.629257 0 0 0.640997 0 0.02 0.640997 0 0.04 0.640997 0 0.06 0.640997 0 0.08 0.640997 0 0.1 0.640997 0 0 0.65275 0 0.02 0.65275 0 0.04 0.65275 0 0.06 0.65275 0 0.08 0.65275 0 0.1 0.65275 0 0 0.655364 0 0.02 0.655364 0 0.04 0.655364 0 0.06 0.655364 0 0.08 0.655364 0 0.1 0.655364 0 0 0.657904 0 0.02 0.657904 0 0.04 0.657904 0 0.06 0.657904 0 0.08 0.657904 0 0.1 0.657904 0 0 0.660396 0 0.02 0.660396 0 0.04 0.660396 0 0.06 0.660396 0 0.08 0.660396 0 0.1 0.660396 0 0 0.662858 0 0.02 0.662858 0 0.04 0.662858 0 0.06 0.662858 0 0.08 0.662858 0 0.1 0.662858 0 0 0.665296 0 0.02 0.665296 0 0.04 0.665296 0 0.06 0.665296 0 0.08 0.665296 0 0.1 0.665296 0 0 0.667718 0 0.02 0.667718 0 0.04 0.667718 0 0.06 0.667718 0 0.08 0.667718 0 0.1 0.667718 0 0 0.670127 0 0.02 0.670127 0 0.04 0.670127 0 0.06 0.670127 0 0.08 0.670127 0 0.1 0.670127 0 0 0.672526 0 0.02 0.672526 0 0.04 0.672526 0 0.06 0.672526 0 0.08 0.672526 0 0.1 0.672526 0 0 0.674919 0 0.02 0.674919 0 0.04 0.674919 0 0.06 0.674919 0 0.08 0.674919 0 0.1 0.674919 0 0 0.677305 0 0.02 0.677305 0 0.04 0.677305 0 0.06 0.677305 0 0.08 0.677305 0 0.1 0.677305 0 0 0.679685 0 0.02 0.679685 0 0.04 0.679685 0 0.06 0.679685 0 0.08 0.679685 0 0.1 0.679685 0 0 0.682062 0 0.02 0.682062 0 0.04 0.682062 0 0.06 0.682062 0 0.08 0.682062 0 0.1 0.682062 0 0 0.684434 0 0.02 0.684434 0 0.04 0.684434 0 0.06 0.684434 0 0.08 0.684434 0 0.1 0.684434 0 0 0.686803 0 0.02 0.686803 0 0.04 0.686803 0 0.06 0.686803 0 0.08 0.686803 0 0.1 0.686803 0 0 0.689171 0 0.02 0.689171 0 0.04 0.689171 0 0.06 0.689171 0 0.08 0.689171 0 0.1 0.689171 0 0 0.691535 0 0.02 0.691535 0 0.04 0.691535 0 0.06 0.691535 0 0.08 0.691535 0 0.1 0.691535 0 0 0.693898 0 0.02 0.693898 0 0.04 0.693898 0 0.06 0.693898 0 0.08 0.693898 0 0.1 0.693898 0 0 0.696259 0 0.02 0.696259 0 0.04 0.696259 0 0.06 0.696259 0 0.08 0.696259 0 0.1 0.696259 0 0 0.698619 0 0.02 0.698619 0 0.04 0.698619 0 0.06 0.698619 0 0.08 0.698619 0 0.1 0.698619 0 0 0.700979 0 
[...]
			<PointData Scalars="VitesseX">
				<DataArray Name="VitesseX" type="Float32" format="ascii">
 0 6.50039e-17 4.50399e-15 2.34876e-15 3.33816e-15 0 0 6.62477e-16 4.14288e-15 2.5314e-15 3.18895e-15 0 0 1.91376e-15 3.11736e-15 3.28716e-15 2.4478e-15 0 0 3.23668e-15 2.01032e-15 3.40268e-15 2.49962e-15 0 0 3.63157e-15 2.16746e-15 3.18224e-15 1.17635e-15 0 0 2.61056e-15 4.52759e-15 1.52917e-15 -7.92727e-16 0 0 3.30708e-15 5.0926e-15 1.82005e-16 -1.3576e-15 0 0 3.37533e-15 5.40879e-15 4.61237e-16 -2.68281e-15 0 0 2.41592e-15 5.54825e-15 -1.93721e-16 -2.78428e-15 0 0 1.1142e-15 4.37873e-15 5.32286e-16 -2.29905e-15 0 0 -5.97726e-17 2.78942e-15 2.0977e-15 -1.60082e-15 0 0 -2.09117e-16 9.99711e-16 1.10497e-15 1.57823e-15 0 0 2.87949e-15 -3.16117e-15 3.19465e-15 2.41654e-15 0 0 3.24724e-15 -2.67487e-15 3.39654e-15 2.43045e-15 0 0 4.84204e-16 6.86812e-16 3.38211e-15 -1.1752e-15 0 0 -2.20997e-15 2.29232e-15 5.30978e-15 -4.28681e-15 0 0 -2.51343e-15 1.72296e-15 3.12204e-15 2.64528e-15 0 0 -1.88368e-15 -2.58375e-16 -2.26019e-15 8.82038e-15 0 0 -3.62406e-15 -1.92359e-15 -2.04383e-15 6.42123e-15 0 0 -4.22533e-15 -2.14732e-15 -2.11655e-15 4.70339e-15 0 0 -3.78186e-16 -7.1289e-15 -1.34302e-15 6.20859e-15 0 0 -2.93811e-16 -5.77195e-15 -8.17842e-16 6.77754e-15 0 0 -2.96162e-15 -1.34843e-15 -1.27445e-15 4.97681e-15 0 0 -1.4164e-15 -7.00184e-15 6.52505e-15 2.43189e-15 0 0 -3.24275e-15 -5.58718e-15 5.25944e-15 6.70709e-15 0 0 -1.83954e-15 -5.24643e-15 2.46658e-16 1.09098e-14 0 0 -3.09223e-16 -8.94375e-15 1.24928e-15 5.65646e-15 0 0 -3.98961e-16 -6.71645e-15 -4.62779e-15 3.71666e-15 0 0 7.14886e-15 -1.09505e-14 -6.00222e-15 2.9895e-15 0 0 1.66616e-15 7.21598e-16 -1.14107e-14 2.44723e-16 0 0 -1.61049e-15 8.62777e-15 -1.51741e-14 1.65221e-15 0 0 1.1994e-15 -4.76374e-15 1.06653e-15 -5.85318e-15 0 0 -2.60756e-15 -4.86976e-15 3.89474e-15 -6.9375e-15 0 0 4.63789e-16 -4.25357e-15 -2.54001e-15 3.47715e-15 0 0 2.35387e-16 -4.0343e-15 3.10085e-15 3.41891e-15 0 0 -6.06255e-15 6.31336e-15 3.1184e-15 -1.81934e-15 0 0 -3.53083e-15 6.21406e-15 -5.24736e-15 3.47481e-15 0 0 1.7982e-15 -2.58431e-15 -5.6759e-15 3.47265e-15 0 0 5.31122e-15 -6.75662e-15 -3.87979e-15 -3.35131e-15 0 0 7.31156e-15 4.85461e-16 -7.97912e-15 1.74666e-15 0 0 2.65152e-15 1.4834e-15 4.13767e-15 1.04571e-14 0 0 1.20675e-14 -1.01504e-14 1.48709e-14 2.65813e-14 0 0 1.69736e-14 -1.56208e-15 1.05581e-15 4.67676e-14 0 0 8.84051e-15 2.51469e-15 -8.48777e-15 3.93547e-14 0 0 -3.34037e-15 -5.03287e-15 -7.05685e-15 2.52215e-14 0 0 -1.15556e-14 -2.11359e-15 -9.95851e-15 2.1736e-14 0 0 -2.11678e-17 -1.47645e-15 -1.15539e-14 6.59959e-15 0 0 8.04532e-15 -9.47491e-15 -1.14418e-14 -1.28696e-14 0 0 4.36098e-15 -5.71992e-15 -1.87661e-14 -2.80022e-14 0 0 -1.48025e-14 8.64069e-15 -3.03948e-14 -1.46743e-14 0 0 -3.80231e-14 6.0609e-15 -1.89678e-14 -2.58554e-14 0 0 -9.8898e-15 -1.54915e-15 -2.77461e-14 -4.45899e-14 0 0 1.00613e-14 -2.47538e-14 -4.89155e-14 -2.29892e-14 0 0 1.15466e-14 -2.84752e-14 -2.16835e-14 -2.17241e-14 0 0 9.40262e-15 -2.0628e-15 -6.06095e-15 -3.76303e-14 0 0 -6.56456e-15 -3.90124e-15 -1.2229e-14 -2.28185e-14 0 0 2.03944e-14 -2.93662e-14 -3.80824e-15 -1.01714e-14 0 0 6.71445e-16 -1.48731e-14 -1.55341e-14 -1.76933e-14 0 0 -2.03159e-14 -6.39406e-16 -2.12722e-14 -9.37858e-15 0 0 1.6611e-15 -1.27227e-14 -1.39513e-14 1.06688e-14 0 0 3.86828e-15 -1.48219e-15 -2.89847e-14 2.32226e-14 0 0 1.1454e-14 -2.11525e-14 -1.47434e-14 9.10097e-15 0 0 7.56746e-15 -2.48086e-14 -1.05992e-15 -5.12855e-15 0 0 -4.82553e-15 -6.07952e-15 8.70002e-15 -2.87567e-15 0 0 -5.39855e-15 -1.32984e-14 2.05154e-14 3.82389e-15 0 0 -1.78014e-14 -6.7816e-15 4.81633e-15 1.1767e-14 0 0 -1.5609e-14 1.78603e-15 -8.81006e-16 1.16262e-14 0 0 7.39395e-15 2.72539e-15 -2.59406e-15 -3.35014e-15 0 0 6.62313e-15 1.32812e-14 -1.05256e-14 -1.50753e-14 0 0 -2.90277e-15 1.3445e-14 -9.25689e-15 -9.75896e-15 0 0 -7.63456e-15 1.20513e-14 -2.60951e-14 1.25367e-14 0 0 1.8602e-15 9.02679e-15 -2.51795e-14 1.70228e-15 0 0 -3.90348e-15 -7.5049e-15 -4.35615e-15 1.10243e-14 0 0 -1.26471e-14 -8.83728e-15 2.65816e-14 1.64524e-14 0 0 -9.32075e-15 7.80864e-15 1.00434e-14 1.05508e-14 0 0 5.82982e-15 1.7944e-14 -2.50038e-14 1.55549e-14 0 0 2.79316e-14 -9.68949e-15 5.19373e-15 7.90969e-15 0 0 -1.65961e-15 -1.11151e-15 1.60737e-14 -4.7341e-15 0 0 -6.45418e-15 8.09542e-15 -6.8524e-15 1.01302e-14 0 0 1.08149e-14 -8.2732e-15 -2.31225e-14 4.50934e-14 0 0 1.11129e-14 -1.66262e-14 2.36071e-14 2.91734e-15 0 0 1.46981e-14 -2.17464e-14 2.97237e-14 -1.69395e-14 0 0 -1.74895e-14 1.53104e-14 6.64246e-15 -2.58785e-15 0 0 -3.76639e-16 1.00223e-14 5.59071e-15 -8.68259e-15 0 0 -6.9591e-15 3.96274e-15 5.3552e-15 -6.83493e-15 0 0 -5.26682e-15 2.39344e-14 5.71577e-15 -1.33994e-14 0 0 -1.25903e-14 1.34964e-14 3.65349e-15 8.04213e-15 0 0 -1.47349e-14 -1.11101e-14 7.36109e-15 2.67628e-14 0 0 1.26944e-14 -9.33302e-15 -4.45966e-15 2.90787e-14 0 0 -6.8385e-15 2.52228e-14 -2.99614e-14 2.21361e-14 0 0 1.25448e-14 3.83915e-14 -3.47258e-15 3.60869e-14 0 0 4.16028e-14 3.45093e-14 3.46644e-14 2.3658e-14 0 0 4.40275e-14 6.34527e-14 3.55221e-14 3.25415e-14 0 0 3.06523e-14 7.33925e-14 5.50091e-14 2.88507e-14 0 0 3.30017e-14 3.80609e-14 5.11628e-14 2.65615e-14 0 0 1.21016e-14 1.50919e-14 8.21786e-15 2.78077e-15 0 0 -9.74464e-15 -2.22845e-14 -1.93742e-14 -1.82336e-14 0 0 -2.75786e-14 -5.49936e-14 -4.77589e-14 -8.25259e-15 0 0 -3.95853e-14 -5.52846e-14 -5.46789e-14 -3.09283e-14 0 0 -3.19508e-14 -4.88046e-14 -4.5378e-14 -3.95547e-14 0 0 -2.30801e-14 -3.72285e-14 -5.59271e-14 -9.93369e-15 0 0 -3.06855e-14 1.59856e-16 -1.49954e-14 9.56475e-15 0 0 -5.46907e-15 -1.86907e-15 -1.44697e-15 2.03645e-14 0 0 1.97721e-14 1.29007e-14 2.55236e-15 2.38024e-14 0 0 2.63576e-14 3.62444e-14 2.86101e-14 4.683e-15 0 0 1.79943e-14 8.04849e-14 4.34448e-14 2.15856e-14 0 0 2.27605e-14 9.79179e-14 4.33292e-14 1.2164e-14 0 0 -1.3124e-14 2.55421e-14 1.51903e-14 -1.38539e-14 0 0 -1.1866e-13 -1.37035e-13 -1.37326e-13 -6.42166e-14 0 0 -2.53585e-13 -3.43033e-13 -3.83374e-13 -2.0097e-13 0 0 -3.94323e-13 -5.63236e-13 -5.77651e-13 -3.68858e-13 0 0 -4.69132e-13 -7.22891e-13 -7.11959e-13 -4.30555e-13 0 0 -4.7917e-13 -7.60039e-13 -7.26084e-13 -4.54671e-13 0 0 -4.491e-13 -6.96335e-13 -6.66156e-13 -4.3254e-13 0 0 -3.97578e-13 -5.91114e-13 -5.95621e-13 -3.93619e-13 0 0 -3.40035e-13 -4.94324e-13 -4.92171e-13 -3.03564e-13 0 0 -2.68152e-13 -4.6298e-13 -3.83299e-13 -2.43787e-13 0 0 -2.21687e-13 -4.10397e-13 -2.95277e-13 -2.32072e-13 0 0 -2.03776e-13 -3.07261e-13 -2.29014e-13 -1.61538e-13 0 0 -1.71887e-13 -2.5492e-13 -2.00254e-13 -1.04312e-13 0 0 -1.31954e-13 -2.44228e-13 -1.91442e-13 -6.19677e-14 0 0 -1.01856e-13 -2.02248e-13 -2.06812e-13 -7.92602e-14 0 0 -4.71664e-14 -1.77871e-13 -2.08602e-13 -9.20158e-14 0 0 -4.29694e-14 -1.34473e-13 -1.95464e-13 -3.62942e-14 0 0 -6.51691e-14 -1.04237e-13 -1.52886e-13 -5.11595e-14 0 0 -4.5797e-14 -1.33919e-13 -8.51388e-14 -1.02786e-13 0 0 -6.00482e-14 -7.64526e-14 -8.59648e-14 -7.96236e-14 0 0 -5.98739e-14 -5.73193e-14 -1.17644e-13 -2.47943e-14 0 0 -5.83933e-14 -7.63971e-14 -1.16272e-13 -5.57607e-14 0 0 -5.04436e-14 -5.24041e-14 -9.1128e-14 -5.78471e-14 0 0 -2.40793e-14 -7.92863e-14 -1.27523e-13 4.39484e-15 0 0 8.52189e-15 -7.14681e-14 -1.42034e-13 -5.28326e-14 0 0 2.83726e-15 -7.1137e-14 -1.135e-13 -5.05718e-14 0 0 1.31898e-15 -5.42004e-14 -1.13084e-13 -2.82643e-14 0 0 7.45513e-15 -2.30525e-14 -1.00898e-13 -8.4915e-14 0 0 -7.79132e-15 -2.358e-14 -1.25579e-13 -3.27939e-14 0 0 8.42425e-15 -3.91553e-14 -1.05124e-13 1.51793e-14 0 0 2.19355e-14 -3.69038e-14 -9.54081e-14 -3.1499e-14 0 0 -2.60641e-14 3.69087e-14 -1.31336e-13 -1.32052e-14 0 0 -4.43883e-14 4.60306e-14 -1.02099e-13 1.22235e-14 0 0 -3.41163e-14 1.1951e-14 -3.63808e-14 -2.46756e-14 0 0 -2.18934e-14 -3.70815e-15 1.75815e-15 -9.52175e-14 0 0 -2.24606e-14 1.44305e-15 5.74142e-14 -1.47677e-13 0 0 -3.37265e-14 2.06151e-14 7.53534e-14 -1.80072e-13 0 0 -2.14609e-14 1.64335e-14 8.17216e-14 -1.61556e-13 0 0 -2.24337e-14 4.5469e-14 8.06717e-14 -1.5693e-13 0 0 -3.82135e-14 5.41665e-14 5.06958e-14 -1.01204e-13 0 0 -2.18364e-16 7.40831e-14 2.46538e-14 1.64707e-14 0 0 2.31089e-14 6.01067e-14 2.39059e-14 8.01734e-14 0 0 2.68209e-14 4.89516e-14 8.15314e-14 6.72406e-14 0 0 1.61282e-14 5.69031e-14 9.09003e-14 7.52052e-14 0 0 -2.19899e-15 7.38522e-14 7.61683e-14 1.33945e-13 0 0 1.80454e-14 9.52726e-14 7.69157e-14 7.33524e-14 0 0 2.16917e-14 7.58693e-14 4.79268e-14 -4.19317e-14 0 0 6.5706e-14 3.20023e-14 2.15658e-14 4.77621e-14 0 0 4.49882e-14 7.31533e-14 -2.98804e-15 3.54715e-14 0 0 5.04294e-14 6.84938e-14 8.22624e-15 -6.31869e-14 0 0 5.1742e-14 3.21649e-14 5.27988e-14 9.03766e-14 0 0 1.9258e-14 2.62519e-14 1.03306e-14 1.51207e-13 0 0 1.35272e-14 1.96978e-14 -3.89505e-14 9.47537e-15 0 0 -2.34357e-14 8.56469e-15 -4.95474e-14 -3.1948e-14 0 0 -4.56464e-14 -1.95834e-14 -6.0204e-14 -3.3923e-14 0 0 -3.60206e-14 -6.33828e-14 -3.35637e-14 -5.34663e-14 0 0 -3.14886e-14 -5.79653e-14 -8.5676e-14 -2.80552e-14 0 0 -5.21857e-14 -3.85485e-14 -1.15523e-13 -1.86846e-14 0 0 -6.01699e-14 -3.77802e-14 -8.77989e-14 -4.76133e-14 0 0 -4.60544e-14 -4.90281e-14 -1.06291e-13 -5.11041e-14 0 0 -3.92885e-14 -7.16033e-14 -9.6491e-14 -6.81853e-14 0 0 -3.68641e-14 -8.77493e-14 -7.35026e-14 -8.8902e-14 0 0 -4.59326e-14 -8.10541e-14 -9.67098e-14 -7.19488e-14 0 0 -5.43481e-14 -6.29852e-14 -9.72532e-14 -8.26097e-14 0 0 -3.65074e-14 -8.93951e-14 -7.50035e-14 -8.24106e-14 0 0 -4.17322e-14 -8.60492e-14 -5.74987e-14 -8.72485e-14 0 0 -7.47401e-14 -4.61989e-14 -5.77431e-14 -1.01381e-13 0 0 -6.38597e-14 -6.55583e-14 -2.67656e-14 -1.06519e-13 0 0 -3.64677e-14 -7.00504e-14 -5.262e-14 -5.75744e-14 0 0 -4.10233e-14 -5.91199e-14 -7.02157e-14 -2.65805e-14 0 0 -2.82732e-14 -6.41919e-14 -4.14147e-14 -3.42878e-14 0 0 -4.01054e-14 1.14902e-14 -1.07504e-13 5.03377e-15 0 0 -4.05648e-14 9.35177e-15 -9.2395e-14 -8.77456e-15 0 0 4.43561e-15 -7.1113e-14 -1.81652e-14 -5.11362e-14 0 0 2.41997e-14 -9.12143e-14 -1.69375e-15 -1.61149e-14 0 0 2.37005e-14 -7.31084e-14 -1.49356e-14 4.16205e-14 0 0 -1.388e-14 -3.08132e-14 -4.02763e-14 6.17381e-14 0 0 -4.17667e-14 -1.66831e-16 -6.79898e-14 6.09903e-14 0 0 -2.67307e-14 2.04358e-14 -6.89428e-14 4.77532e-14 0 0 -3.10248e-14 1.59644e-14 -1.47644e-14 4.05899e-14 0 0 -2.24808e-14 -1.32015e-14 8.69303e-15 1.26072e-14 0 0 9.78175e-15 -5.44627e-14 -8.11046e-15 -1.89989e-14 0 0 7.50731e-15 -8.41676e-14 -4.6361e-15 -7.81916e-14 0 0 -6.95876e-15 -7.4866e-14 -2.5899e-14 -6.48649e-14 0 0 -8.72544e-15 -2.7552e-14 -6.65924e-14 1.93029e-14 0 0 8.613e-16 -3.6953e-14 -2.09531e-14 1.04947e-14 0 0 -1.27851e-14 -4.00004e-14 2.53118e-14 -1.18451e-14 0 0 -1.80625e-14 -2.64669e-14 2.12162e-14 1.30057e-14 0 0 -1.76814e-14 -2.02838e-14 -2.20654e-14 4.28914e-14 0 0 -1.7821e-14 -6.33102e-14 3.00057e-14 6.41295e-15 0 0 -2.0349e-14 -8.72301e-14 4.04284e-14 1.44005e-14 0 0 -4.5651e-14 -4.8442e-14 -4.22416e-14 4.7672e-14 0 0 -5.96708e-14 -5.46199e-14 -5.3709e-14 2.18203e-14 0 0 -6.64625e-14 -5.85189e-14 -5.74047e-14 1.32107e-14 0
				</DataArray>
				<DataArray Name="VitesseY" type="Float32" format="ascii">