<?xml version="1.0"?>
<VTKFile type="PolyData">
	<PolyData>
		<Piece NumberOfPoints="1206" NumberOfPolys="1000">
			<Points>
				<DataArray type="Float32" NumberOfComponents="3" format="ascii">
 0 0 0 0.02 0 0 0.04 0 0 0.06 0 0 0.08 0 0 0.1 0 0 0 0.005 0 0.02 0.005 0 0.04 0.005 0 0.06 0.005 0 0.08 0.005 0 0.1 0.005 0 0 0.01 0 0.02 0.01 0 0.04 0.01 0 0.06 0.01 0 0.08 0.01 0 0.1 0.01 0 0 0.015 0 0.02 0.015 0 0.04 0.015 0 0.06 0.015 0 0.08 0.015 0 0.1 0.015 0 0 0.02 0 0.02 0.02 0 0.04 0.02 0 0.06 0.02 0 0.08 0.02 0 0.1 0.02 0 0 0.025 0 0.02 0.025 0 0.04 0.025 0 0.06 0.025 0 0.08 0.025 0 0.1 0.025 0 0 0.03 0 0.02 0.03 0 0.04 0.03 0 0.06 0.03 0 0.08 0.03 0 0.1 0.03 0 0 0.035 0 0.02 0.035 0 0.04 0.035 0 0.06 0.035 0 0.08 0.035 0 0.1 0.035 0 0 0.04 0 0.02 0.04 0 0.04 0.04 0 0.06 0.04 0 0.08 0.04 0 0.1 0.04 0 0 0.045 0 0.02 0.045 0 0.04 0.045 0 0.06 0.045 0 0.08 0.045 0 0.1 0.045 0 0 0.05 0 0.02 0.05 0 0.04 0.05 0 0.06 0.05 0 0.08 0.05 0 0.1 0.05 0 0 0.055 0 0.02 0.055 0 0.04 0.055 0 0.06 0.055 0 0.08 0.055 0 0.1 0.055 0 0 0.06 0 0.02 0.06 0 0.04 0.06 0 0.06 0.06 0 0.08 0.06 0 0.1 0.06 0 0 0.065 0 0.02 0.065 0 0.04 0.065 0 0.06 0.065 0 0.08 0.065 0 0.1 0.065 0 0 0.07 0 0.02 0.07 0 0.04 0.07 0 0.06 0.07 0 0.08 0.07 0 0.1 0.07 0 0 0.075 0 0.02 0.075 0 0.04 0.075 0 0.06 0.075 0 0.08 0.075 0 0.1 0.075 0 0 0.08 0 0.02 0.08 0 0.04 0.08 0 0.06 0.08 0 0.08 0.08 0 0.1 0.08 0 0 0.085 0 0.02 0.085 0 0.04 0.085 0 0.06 0.085 0 0.08 0.085 0 0.1 0.085 0 0 0.09 0 0.02 0.09 0 0.04 0.09 0 0.06 0.09 0 0.08 0.09 0 0.1 0.09 0 0 0.095 0 0.02 0.095 0 0.04 0.095 0 0.06 0.095 0 0.08 0.095 0 0.1 0.095 0 0 0.1 0 0.02 0.1 0 0.04 0.1 0 0.06 0.1 0 0.08 0.1 0 0.1 0.1 0 0 0.105 0 0.02 0.105 0 0.04 0.105 0 0.06 0.105 0 0.08 0.105 0 0.1 0.105 0 0 0.11 0 0.02 0.11 0 0.04 0.11 0 0.06 0.11 0 0.08 0.11 0 0.1 0.11 0 0 0.115 0 0.02 0.115 0 0.04 0.115 0 0.06 0.115 0 0.08 0.115 0 0.1 0.115 0 0 0.12 0 0.02 0.12 0 0.04 0.12 0 0.06 0.12 0 0.08 0.12 0 0.1 0.12 0 0 0.125 0 0.02 0.125 0 0.04 0.125 0 0.06 0.125 0 0.08 0.125 0 0.1 0.125 0 0 0.13 0 0.02 0.13 0 0.04 0.13 0 0.06 0.13 0 0.08 0.13 0 0.1 0.13 0 0 0.135 0 0.02 0.135 0 0.04 0.135 0 0.06 0.135 0 0.08 0.135 0 0.1 0.135 0 0 0.14 0 0.02 0.14 0 0.04 0.14 0 0.06 0.14 0 0.08 0.14 0 0.1 0.14 0 0 0.145 0 0.02 0.145 0 0.04 0.145 0 0.06 0.145 0 0.08 0.145 0 0.1 0.145 0 0 0.15 0 0.02 0.15 0 0.04 0.15 0 0.06 0.15 0 0.08 0.15 0 0.1 0.15 0 0 0.155 0 0.02 0.155 0 0.04 0.155 0 0.06 0.155 0 0.08 0.155 0 0.1 0.155 0 0 0.16 0 0.02 0.16 0 0.04 0.16 0 0.06 0.16 0 0.08 0.16 0 0.1 0.16 0 0 0.165 0 0.02 0.165 0 0.04 0.165 0 0.06 0.165 0 0.08 0.165 0 0.1 0.165 0 0 0.17 0 0.02 0.17 0 0.04 0.17 0 0.06 0.17 0 0.08 0.17 0 0.1 0.17 0 0 0.175 0 0.02 0.175 0 0.04 0.175 0 0.06 0.175 0 0.08 0.175 0 0.1 0.175 0 0 0.18 0 0.02 0.18 0 0.04 0.18 0 0.06 0.18 0 0.08 0.18 0 0.1 0.18 0 0 0.185 0 0.02 0.185 0 0.04 0.185 0 0.06 0.185 0 0.08 0.185 0 0.1 0.185 0 0 0.19 0 0.02 0.19 0 0.04 0.19 0 0.06 0.19 0 0.08 0.19 0 0.1 0.19 0 0 0.195 0 0.02 0.195 0 0.04 0.195 0 0.06 0.195 0 0.08 0.195 0 0.1 0.195 0 0 0.2 0 0.02 0.2 0 0.04 0.2 0 0.06 0.2 0 0.08 0.2 0 0.1 0.2 0 0 0.205 0 0.02 0.205 0 0.04 0.205 0 0.06 0.205 0 0.08 0.205 0 0.1 0.205 0 0 0.21 0 0.02 0.21 0 0.04 0.21 0 0.06 0.21 0 0.08 0.21 0 0.1 0.21 0 0 0.215 0 0.02 0.215 0 0.04 0.215 0 0.06 0.215 0 0.08 0.215 0 0.1 0.215 0 0 0.22 0 0.02 0.22 0 0.04 0.22 0 0.06 0.22 0 0.08 0.22 0 0.1 0.22 0 0 0.225 0 0.02 0.225 0 0.04 0.225 0 0.06 0.225 0 0.08 0.225 0 0.1 0.225 0 0 0.23 0 0.02 0.23 0 0.04 0.23 0 0.06 0.23 0 0.08 0.23 0 0.1 0.23 0 0 0.235 0 0.02 0.235 0 0.04 0.235 0 0.06 0.235 0 0.08 0.235 0 0.1 0.235 0 0 0.24 0 0.02 0.24 0 0.04 0.24 0 0.06 0.24 0 0.08 0.24 0 0.1 0.24 0 0 0.245 0 0.02 0.245 0 0.04 0.245 0 0.06 0.245 0 0.08 0.245 0 0.1 0.245 0 0 0.25 0 0.02 0.25 0 0.04 0.25 0 0.06 0.25 0 0.08 0.25 0 0.1 0.25 0 0 0.255 0 0.02 0.255 0 0.04 0.255 0 0.06 0.255 0 0.08 0.255 0 0.1 0.255 0 0 0.26 0 0.02 0.26 0 0.04 0.26 0 0.06 0.26 0 0.08 0.26 0 0.1 0.26 0 0 0.265 0 0.02 0.265 0 0.04 0.265 0 0.06 0.265 0 0.08 0.265 0 0.1 0.265 0 0 0.27 0 0.02 0.27 0 0.04 0.27 0 0.06 0.27 0 0.08 0.27 0 0.1 0.27 0 0 0.275 0 0.02 0.275 0 0.04 0.275 0 0.06 0.275 0 0.08 0.275 0 0.1 0.275 0 0 0.28 0 0.02 0.28 0 0.04 0.28 0 0.06 0.28 0 0.08 0.28 0 0.1 0.28 0 0 0.285 0 0.02 0.285 0 0.04 0.285 0 0.06 0.285 0 0.08 0.285 0 0.1 0.285 0 0 0.29 0 0.02 0.29 0 0.04 0.29 0 0.06 0.29 0 0.08 0.29 0 0.1 0.29 0 0 0.295 0 0.02 0.295 0 0.04 0.295 0 0.06 0.295 0 0.08 0.295 0 0.1 0.295 0 0 0.3 0 0.02 0.3 0 0.04 0.3 0 0.06 0.3 0 0.08 0.3 0 0.1 0.3 0 0 0.305 0 0.02 0.305 0 0.04 0.305 0 0.06 0.305 0 0.08 0.305 0 0.1 0.305 0 0 0.31 0 0.02 0.31 0 0.04 0.31 0 0.06 0.31 0 0.08 0.31 0 0.1 0.31 0 0 0.315001 0 0.02 0.315001 0 0.04 0.315001 0 0.06 0.315001 0 0.08 0.315001 0 0.1 0.315001 0 0 0.320003 0 0.02 0.320003 0 0.04 0.320003 0 0.06 0.320003 0 0.08 0.320003 0 0.1 0.320003 0 0 0.32501 0 0.02 0.32501 0 0.04 0.32501 0 0.06 0.32501 0 0.08 0.32501 0 0.1 0.32501 0 0 0.330028 0 0.02 0.330028 0 0.04 0.330028 0 0.06 0.330028 0 0.08 0.330028 0 0.1 0.330028 0 0 0.33507 0 0.02 0.33507 0 0.04 0.33507 0 0.06 0.33507 0 0.08 0.33507 0 0.1 0.33507 0 0 0.340154 0 0.02 0.340154 0 0.04 0.340154 0 0.06 0.340154 0 0.08 0.340154 0 0.1 0.340154 0 0 0.345305 0 0.02 0.345305 0 0.04 0.345305 0 0.06 0.345305 0 0.08 0.345305 0 0.1 0.345305 0 0 0.350548 0 0.02 0.350548 0 0.04 0.350548 0 0.06 0.350548 0 0.08 0.350548 0 0.1 0.350548 0 0 0.355906 0 0.02 0.355906 0 0.04 0.355906 0 0.06 0.355906 0 0.08 0.355906 0 0.1 0.355906 0 0 0.361399 0 0.02 0.361399 0 0.04 0.361399 0 0.06 0.361399 0 0.08 0.361399 0 0.1 0.361399 0 0 0.367042 0 0.02 0.367042 0 0.04 0.367042 0 0.06 0.367042 0 0.08 0.367042 0 0.1 0.367042 0 0 0.372849 0 0.02 0.372849 0 0.04 0.372849 0 0.06 0.372849 0 0.08 0.372849 0 0.1 0.372849 0 0 0.378834 0 0.02 0.378834 0 0.04 0.378834 0 0.06 0.378834 0 0.08 0.378834 0 0.1 0.378834 0 0 0.385013 0 0.02 0.385013 0 0.04 0.385013 0 0.06 0.385013 0 0.08 0.385013 0 0.1 0.385013 0 0 0.391401 0 0.02 0.391401 0 0.04 0.391401 0 0.06 0.391401 0 0.08 0.391401 0 0.1 0.391401 0 0 0.398015 0 0.02 0.398015 0 0.04 0.398015 0 0.06 0.398015 0 0.08 0.398015 0 0.1 0.398015 0 0 0.404874 0 0.02 0.404874 0 0.04 0.404874 0 0.06 0.404874 0 0.08 0.404874 0 0.1 0.404874 0 0 0.412 0 0.02 0.412 0 0.04 0.412 0 0.06 0.412 0 0.08 0.412 0 0.1 0.412 0 0 0.419418 0 0.02 0.419418 0 0.04 0.419418 0 0.06 0.419418 0 0.08 0.419418 0 0.1 0.419418 0 0 0.427155 0 0.02 0.427155 0 0.04 0.427155 0 0.06 0.427155 0 0.08 0.427155 0 0.1 0.427155 0 0 0.435241 0 0.02 0.435241 0 0.04 0.435241 0 0.06 0.435241 0 0.08 0.435241 0 0.1 0.435241 0 0 0.443714 0 0.02 0.443714 0 0.04 0.443714 0 0.06 0.443714 0 0.08 0.443714 0 0.1 0.443714 0 0 0.452614 0 0.02 0.452614 0 0.04 0.452614 0 0.06 0.452614 0 0.08 0.452614 0 0.1 0.452614 0 0 0.461987 0 0.02 0.461987 0 0.04 0.461987 0 0.06 0.461987 0 0.08 0.461987 0 0.1 0.461987 0 0 0.471885 0 0.02 0.471885 0 0.04 0.471885 0 0.06 0.471885 0 0.08 0.471885 0 0.1 0.471885 0 0 0.482361 0 0.02 0.482361 0 0.04 0.482361 0 0.06 0.482361 0 0.08 0.482361 0 0.1 0.482361 0 0 0.493459 0 0.02 0.493459 0 0.04 0.493459 0 0.06 0.493459 0 0.08 0.493459 0 0.1 0.493459 0 0 0.505176 0 0.02 0.505176 0 0.04 0.505176 0 0.06 0.505176 0 0.08 0.505176 0 0.1 0.505176 0 0 0.51734 0 0.02 0.51734 0 0.04 0.51734 0 0.06 0.51734 0 0.08 0.51734 0 0.1 0.51734 0 0 0.529512 0 0.02 0.529512 0 0.04 0.529512 0 0.06 0.529512 0 0.08 0.529512 0 0.1 0.529512 0 0 0.541552 0 0.02 0.541552 0 0.04 0.541552 0 0.06 0.541552 0 0.08 0.541552 0 0.1 0.541552 0 0 0.553467 0 0.02 0.553467 0 0.04 0.553467 0 0.06 0.553467 0 0.08 0.553467 0 0.1 0.553467 0 0 0.565292 0 0.02 0.565292 0 0.04 0.565292 0 0.06 0.565292 0 0.08 0.565292 0 0.1 0.565292 0 0 0.577067 0 0.02 0.577067 0 0.04 0.577067 0 0.06 0.577067 0 0.08 0.577067 0 0.1 0.577067 0 0 0.58882 0 0.02 0.58882 0 0.04 0.58882 0 0.06 0.58882 0 0.08 0.58882 0 0.1 0.58882 0 0 0.600564 0 0.02 0.600564 0 0.04 0.600564 0 0.06 0.600564 0 0.08 0.600564 0 0.1 0.600564 0 0 0.612307 0 0.02 0.612307 0 0.04 0.612307 0 0.06 0.612307 0 0.08 0.612307 0 0.1 0.612307 0 0 0.624064 0 0.02 0.624064 0 0.04 0.624064 0 0.06 0.624064 0 0.08 0.624064 0 0.1 0.624064 0 0 0.626679 0 0.02 0.626679 0 0.04 0.626679 0 0.06 0.626679 0 0.08 0.626679 0 0.1 0.626679 0 0 0.629219 0 0.02 0.629219 0 0.04 0.629219 0 0.06 0.629219 0 0.08 0.629219 0 0.1 0.629219 0 0 0.631713 0 0.02 0.631713 0 0.04 0.631713 0 0.06 0.631713 0 0.08 0.631713 0 0.1 0.631713 0 0 0.634175 0 0.02 0.634175 0 0.04 0.634175 0 0.06 0.634175 0 0.08 0.634175 0 0.1 0.634175 0 0 0.636615 0 0.02 0.636615 0 0.04 0.636615 0 0.06 0.636615 0 0.08 0.636615 0 0.1 0.636615 0 0 0.639037 0 0.02 0.639037 0 0.04 0.639037 0 0.06 0.639037 0 0.08 0.639037 0 0.1 0.639037 0 0 0.641447 0 0.02 0.641447 0 0.04 0.641447 0 0.06 0.641447 0 0.08 0.641447 0 0.1 0.641447 0 0 0.643846 0 0.02 0.643846 0 0.04 0.643846 0 0.06 0.643846 0 0.08 0.643846 0 0.1 0.643846 0 0 0.64624 0 0.02 0.64624 0 0.04 0.64624 0 0.06 0.64624 0 0.08 0.64624 0 0.1 0.64624 0 0 0.648626 0 0.02 0.648626 0 0.04 0.648626 0 0.06 0.648626 0 0.08 0.648626 0 0.1 0.648626 0 0 0.651007 0 0.02 0.651007 0 0.04 0.651007 0 0.06 0.651007 0 0.08 0.651007 0 0.1 0.651007 0 0 0.653384 0 0.02 0.653384 0 0.04 0.653384 0 0.06 0.653384 0 0.08 0.653384 0 0.1 0.653384 0 0 0.655757 0 0.02 0.655757 0 0.04 0.655757 0 0.06 0.655757 0 0.08 0.655757 0 0.1 0.655757 0 0 0.658128 0 0.02 0.658128 0 0.04 0.658128 0 0.06 0.658128 0 0.08 0.658128 0 0.1 0.658128 0 0 0.660496 0 0.02 0.660496 0 0.04 0.660496 0 0.06 0.660496 0 0.08 0.660496 0 0.1 0.660496 0 0 0.662862 0 0.02 0.662862 0 0.04 0.662862 0 0.06 0.662862 0 0.08 0.662862 0 0.1 0.662862 0 0 0.665227 0 0.02 0.665227 0 0.04 0.665227 0 0.06 0.665227 0 0.08 0.665227 0 0.1 0.665227 0 0 0.667589 0 0.02 0.667589 0 0.04 0.667589 0 0.06 0.667589 0 0.08 0.667589 0 0.1 0.667589 0 0 0.66995 0 0.02 0.66995 0 0.04 0.66995 0 0.06 0.66995 0 0.08 0.66995 0 0.1 0.66995 0 0 0.672311 0 0.02 0.672311 0 0.04 0.672311 0 0.06 0.672311 0 0.08 0.672311 0 0.1 0.672311 0 0 0.67467 0 0.02 0.67467 0 0.04 0.67467 0 0.06 0.67467 0 0.08 0.67467 0 0.1 0.67467 0 0 0
[...]
			<PointData Scalars="VitesseX">
				<DataArray Name="VitesseX" type="Float32" format="ascii">
 0 3.08258e-15 2.0368e-15 1.10139e-15 -2.51871e-15 0 0 2.85141e-15 2.36327e-15 8.5055e-16 -2.18285e-15 0 0 2.47867e-15 2.5006e-15 1.02935e-15 -1.43607e-15 0 0 1.7022e-15 3.05279e-15 2.02781e-15 -4.14264e-16 0 0 6.82426e-16 3.76083e-15 2.13957e-15 1.40731e-15 0 0 1.22656e-15 1.67003e-15 4.01067e-15 1.89763e-15 0 0 4.98895e-16 2.60015e-15 4.48329e-15 1.88085e-15 0 0 -5.10693e-16 5.30131e-15 1.66403e-15 2.69957e-15 0 0 1.56434e-15 2.42225e-15 1.868e-15 4.0836e-15 0 0 3.30822e-15 -1.44603e-15 4.16705e-15 4.42144e-15 0 0 1.3687e-15 8.76817e-16 4.16038e-15 2.81879e-15 0 0 -4.47336e-16 6.26264e-15 1.98798e-15 1.78855e-15 0 0 5.84908e-16 7.17376e-15 1.10432e-15 1.21217e-15 0 0 3.56385e-15 4.29716e-15 4.80604e-15 -4.70888e-15 0 0 4.90062e-15 1.9211e-15 6.3105e-15 -7.23973e-15 0 0 1.55048e-16 4.44701e-15 3.09762e-15 -3.28726e-15 0 0 1.26537e-15 1.93172e-15 2.36284e-15 -1.94498e-15 0 0 4.05394e-15 -8.43882e-16 2.37338e-15 -3.42583e-15 0 0 3.69431e-16 5.02488e-15 -2.38076e-15 -2.36666e-15 0 0 2.5319e-15 3.9068e-15 -2.92742e-15 -5.8691e-16 0 0 5.19298e-15 2.70592e-15 -5.45463e-16 1.09569e-15 0 0 7.05864e-15 6.44618e-17 4.78336e-15 -4.15347e-15 0 0 1.7321e-15 3.19096e-15 6.09215e-15 -9.10142e-15 0 0 2.19413e-15 1.76652e-15 6.33609e-15 -3.24124e-15 0 0 6.99602e-15 -2.47639e-15 1.46951e-15 9.71279e-15 0 0 3.45171e-15 3.51764e-15 -1.00925e-14 1.27388e-14 0 0 -4.2233e-15 8.49291e-15 -7.92862e-15 1.63772e-15 0 0 -3.06524e-15 1.23293e-15 1.00473e-15 -3.92175e-15 0 0 -6.3112e-15 -3.25406e-16 5.49257e-16 -1.22797e-15 0 0 -7.52582e-15 -1.10658e-16 4.25378e-15 -3.49311e-15 0 0 -5.77891e-16 -5.62871e-15 1.20883e-14 -9.23513e-15 0 0 -5.26094e-15 2.62948e-15 3.28449e-15 -4.56948e-15 0 0 -5.13211e-15 3.12212e-15 -1.01691e-15 -3.83906e-15 0 0 -1.87391e-16 -4.78622e-15 3.9318e-16 -2.99367e-15 0 0 -1.40786e-15 -6.93108e-15 -3.16052e-15 4.15303e-15 0 0 -9.34865e-15 -1.9384e-16 -9.23449e-16 -1.0203e-15 0 0 -4.99077e-15 -5.20011e-16 -5.42531e-16 -2.22073e-15 0 0 2.96858e-16 6.48181e-16 -7.46268e-15 4.80847e-15 0 0 -1.57389e-15 4.83758e-15 -6.22241e-15 -5.46918e-16 0 0 -1.00431e-15 2.63121e-15 -1.15782e-15 -1.02391e-14 0 0 1.68462e-16 6.81751e-15 -5.79172e-15 -1.11688e-14 0 0 -1.11592e-15 7.50796e-15 -7.81749e-15 -1.20138e-14 0 0 1.08454e-14 -8.04972e-15 -1.53315e-15 -4.41415e-15 0 0 1.31223e-14 -1.19802e-14 -5.30145e-15 9.87181e-15 0 0 5.89314e-16 -1.62733e-15 -7.1107e-15 3.59486e-15 0 0 1.11011e-15 1.08267e-16 2.10202e-15 -7.52288e-15 0 0 3.58444e-15 -1.3653e-16 4.01726e-15 -1.2245e-14 0 0 1.1304e-15 1.04727e-14 6.11451e-15 -6.5e-15 0 0 -9.44507e-16 9.08302e-15 2.22271e-14 2.1742e-15 0 0 -5.21443e-15 -4.61662e-15 3.701e-14 1.14862e-14 0 0 -1.44958e-14 7.70453e-15 2.92282e-14 2.05539e-14 0 0 2.94472e-15 -9.60953e-16 3.45345e-14 3.06415e-14 0 0 2.56966e-14 -1.33118e-15 8.54337e-17 3.93888e-14 0 0 1.83497e-14 1.33887e-14 -1.45267e-14 1.67405e-14 0 0 -1.24973e-14 4.52294e-15 1.40128e-14 -4.7726e-16 0 0 -2.89647e-14 8.70177e-15 2.19733e-15 8.43473e-15 0 0 -4.94311e-15 8.60227e-15 -1.39212e-14 2.37268e-14 0 0 -1.14175e-15 -1.08666e-14 -4.03357e-15 1.23039e-14 0 0 -1.56784e-14 -6.22867e-15 5.51464e-15 -1.95479e-14 0 0 1.05778e-15 -1.23875e-14 1.12007e-14 -3.41073e-14 0 0 1.38773e-14 -1.73795e-14 1.01706e-14 -3.95674e-14 0 0 -1.45128e-14 1.75427e-14 -2.70833e-15 -4.39886e-14 0 0 -1.66971e-14 2.25916e-14 -1.79222e-14 -3.73713e-14 0 0 2.30486e-15 3.19786e-16 -2.9587e-14 -2.21362e-14 0 0 -6.57021e-15 -1.41473e-14 -1.70319e-14 -1.24514e-14 0 0 1.31232e-15 -2.06607e-14 -1.28356e-14 1.86701e-15 0 0 7.48793e-15 -1.40879e-14 -1.40121e-14 7.34659e-15 0 0 5.65884e-15 -4.77724e-15 -1.64787e-14 -8.09029e-15 0 0 1.47728e-15 1.38564e-15 -1.84123e-14 -2.1205e-15 0 0 -6.22544e-15 1.75743e-15 -7.88719e-15 5.41293e-15 0 0 3.00927e-15 -2.36828e-14 2.15311e-14 -5.75228e-15 0 0 -3.51737e-15 -1.44883e-14 1.76272e-14 -1.00105e-14 0 0 -6.25752e-15 9.10897e-16 7.98017e-15 -1.96459e-14 0 0 -1.8214e-14 3.71537e-15 -3.47883e-15 1.87383e-15 0 0 -3.13901e-15 -5.14887e-15 -7.01078e-15 1.09388e-14 0 0 1.59621e-14 -2.03069e-14 3.81463e-15 -1.53134e-14 0 0 -2.79782e-14 -3.813e-15 -1.1559e-14 6.5237e-15 0 0 -2.86474e-14 -7.67539e-16 4.52671e-15 6.82524e-15 0 0 2.82834e-15 -9.11542e-15 1.42025e-14 -2.08329e-14 0 0 -4.2363e-15 -9.79706e-15 8.42784e-15 -2.39577e-14 0 0 -2.31455e-14 2.01204e-14 -1.54352e-14 -4.98182e-15 0 0 -2.64021e-14 2.12168e-14 -2.99671e-14 1.00665e-14 0 0 7.99511e-15 -2.04999e-14 -2.0509e-18 8.94184e-15 0 0 2.26481e-14 -1.29494e-14 -7.23492e-16 -4.43983e-15 0 0 -1.24003e-14 1.43508e-15 -8.08601e-15 1.03273e-14 0 0 8.21563e-15 -2.33855e-14 1.01857e-14 1.33187e-14 0 0 1.53625e-14 -1.23244e-14 6.19801e-15 -1.30015e-14 0 0 3.75816e-15 2.55906e-14 -1.52563e-14 -3.23147e-14 0 0 3.7518e-16 2.42503e-14 8.50115e-15 -2.48038e-14 0 0 2.48556e-14 -2.8335e-14 2.83931e-14 -4.22687e-14 0 0 1.9851e-14 -1.62959e-14 1.46809e-14 -2.11766e-14 0 0 -1.69733e-14 7.05285e-15 1.66789e-16 7.72888e-15 0 0 1.57371e-15 -4.61065e-15 1.24923e-14 9.34827e-15 0 0 1.50249e-14 3.36546e-14 4.21845e-14 3.18069e-14 0 0 4.84871e-14 6.84272e-14 8.4472e-14 6.91933e-14 0 0 6.7258e-14 1.01665e-13 1.1981e-13 7.09479e-14 0 0 6.99192e-14 1.24512e-13 1.04766e-13 7.77274e-14 0 0 5.53499e-14 9.53269e-14 8.04865e-14 5.93552e-14 0 0 3.60256e-14 5.74913e-14 5.66258e-14 2.80777e-14 0 0 2.71355e-14 3.98783e-14 3.51956e-14 2.0002e-14 0 0 3.44591e-14 3.62726e-14 4.12279e-14 1.28566e-14 0 0 4.53401e-14 1.2171e-13 8.51788e-14 3.64924e-14 0 0 2.99045e-14 1.35963e-13 9.18508e-14 5.04631e-14 0 0 5.95993e-14 1.31585e-13 1.40122e-13 2.97799e-14 0 0 8.15635e-14 1.21831e-13 1.38591e-13 7.17999e-14 0 0 9.71585e-14 1.33178e-13 1.52386e-13 6.65677e-14 0 0 1.07038e-13 1.30289e-13 1.41895e-13 1.04706e-13 0 0 7.84968e-14 4.67009e-14 9.07142e-14 1.36661e-13 0 0 -7.99579e-15 -8.03349e-14 -5.78713e-14 7.99546e-15 0 0 -1.62146e-13 -2.90002e-13 -3.08247e-13 -1.35506e-13 0 0 -3.01902e-13 -5.16725e-13 -5.35406e-13 -2.60879e-13 0 0 -4.02675e-13 -6.30569e-13 -6.88032e-13 -3.55231e-13 0 0 -4.26581e-13 -6.63763e-13 -6.93183e-13 -3.92418e-13 0 0 -3.84485e-13 -6.13719e-13 -6.16479e-13 -3.91217e-13 0 0 -3.46912e-13 -5.13354e-13 -5.25656e-13 -3.2373e-13 0 0 -2.74534e-13 -4.35079e-13 -4.22149e-13 -2.46348e-13 0 0 -2.29972e-13 -3.22801e-13 -3.75658e-13 -1.9244e-13 0 0 -1.87098e-13 -2.47251e-13 -3.09342e-13 -1.52723e-13 0 0 -1.17527e-13 -2.32883e-13 -2.15313e-13 -1.31071e-13 0 0 -9.32394e-14 -1.74399e-13 -1.7116e-13 -6.95807e-14 0 0 -9.3521e-14 -8.05366e-14 -1.1764e-13 -4.5673e-14 0 0 -6.2483e-14 -4.72035e-14 -8.05747e-14 -5.04151e-14 0 0 -5.71932e-15 -2.82442e-14 -5.23499e-14 -2.16467e-14 0 0 6.81884e-15 -5.23179e-15 5.87982e-14 -3.57383e-14 0 0 -3.80921e-16 -9.78376e-15 1.17048e-13 2.72099e-16 0 0 2.05773e-14 -1.24297e-15 1.09806e-13 5.33776e-14 0 0 -1.03122e-15 2.98266e-14 1.84848e-13 3.82162e-14 0 0 -2.74854e-15 3.34748e-14 2.13358e-13 7.88598e-14 0 0 2.88982e-14 2.66205e-14 1.97357e-13 8.96023e-14 0 0 5.13643e-14 3.29147e-14 2.09307e-13 1.09002e-13 0 0 5.85619e-14 6.386e-14 2.10355e-13 1.1616e-13 0 0 8.825e-14 1.07317e-13 2.07086e-13 1.13383e-13 0 0 8.90144e-14 1.21544e-13 2.01628e-13 1.80533e-13 0 0 6.77831e-14 2.11678e-13 1.4236e-13 2.00233e-13 0 0 1.01099e-13 2.05455e-13 1.57874e-13 2.33468e-13 0 0 1.56259e-13 1.43477e-13 2.73732e-13 1.60291e-13 0 0 1.75665e-13 1.46731e-13 3.73379e-13 5.30418e-14 0 0 1.58394e-13 1.63669e-13 3.48508e-13 8.73366e-14 0 0 1.60552e-13 1.84509e-13 3.09547e-13 1.14256e-13 0 0 1.79411e-13 1.88789e-13 3.06788e-13 1.44849e-13 0 0 1.61581e-13 2.17216e-13 3.1739e-13 1.66562e-13 0 0 1.66152e-13 2.28936e-13 3.01466e-13 2.29404e-13 0 0 1.55376e-13 1.97272e-13 2.55677e-13 3.06374e-13 0 0 1.31557e-13 2.03184e-13 2.94996e-13 3.15105e-13 0 0 1.25154e-13 1.454e-13 2.77762e-13 2.36865e-13 0 0 1.11362e-13 1.56845e-13 1.55119e-13 1.67816e-13 0 0 7.32254e-14 1.96257e-13 6.35077e-14 7.89065e-14 0 0 6.03283e-14 1.49986e-13 6.80141e-14 1.38074e-14 0 0 3.95167e-14 8.69878e-14 8.01584e-14 4.69621e-14 0 0 2.55439e-14 4.0001e-14 5.80106e-14 -6.69453e-15 0 0 2.86363e-14 -3.38449e-15 -7.60319e-15 2.05819e-14 0 0 4.05277e-15 -1.46598e-14 -2.38298e-14 -2.42098e-14 0 0 -2.16543e-14 -8.35999e-15 -3.51925e-14 -4.16974e-14 0 0 -1.81783e-14 -2.05621e-14 -6.05087e-14 5.97477e-15 0 0 -1.7026e-14 -3.16901e-14 -4.59502e-14 -2.72531e-14 0 0 -1.48653e-14 -4.27154e-14 -1.82066e-14 -7.13495e-14 0 0 -2.44122e-14 -4.52814e-14 -2.82607e-14 -3.76016e-14 0 0 -2.67923e-14 -4.3027e-14 -4.46505e-14 -2.46269e-14 0 0 -3.59205e-14 -3.95038e-14 -3.77556e-14 -4.31896e-14 0 0 -4.35033e-14 -3.6901e-14 -3.93653e-14 -2.69181e-14 0 0 -4.28848e-14 -2.85076e-14 -4.98514e-14 -2.77101e-14 0 0 -5.45881e-14 -2.40904e-14 -7.07435e-14 -3.04954e-15 0 0 -5.47844e-14 -4.66933e-14 -5.6252e-14 -1.73705e-14 0 0 -6.18743e-14 -5.25887e-14 -4.10156e-14 -2.17149e-14 0 0 -4.61424e-14 -6.85617e-14 -1.61183e-14 -5.40233e-14 0 0 -2.69274e-14 -9.73394e-14 1.51494e-14 -8.08053e-14 0 0 -5.28838e-14 -5.22185e-14 -2.28573e-14 -2.5472e-14 0 0 -6.07469e-14 -3.03731e-14 -4.2651e-14 1.01299e-14 0 0 -3.54277e-14 -4.13592e-14 -1.7767e-14 2.14648e-14 0 0 -3.68796e-14 -4.56751e-14 3.34851e-14 2.99278e-14 0 0 -4.13989e-14 -5.97879e-14 6.9524e-14 4.35042e-14 0 0 -4.67581e-14 -3.81003e-15 -3.04703e-15 9.83157e-14 0 0 -2.85491e-14 6.28357e-15 -3.15418e-14 1.11002e-13 0 0 1.8423e-14 -5.63107e-14 2.05257e-14 8.98595e-14 0 0 2.60654e-15 -1.13499e-14 5.00917e-15 4.29297e-14 0 0 -3.49508e-14 3.5071e-14 -1.58173e-14 -3.17683e-15 0 0 -3.67382e-14 -7.88516e-15 -1.82e-14 2.41568e-14 0 0 -4.41258e-14 -4.21728e-14 -3.44519e-14 4.77546e-14 0 0 -3.8493e-14 -1.11518e-13 3.89853e-14 7.08808e-15 0 0 -5.28982e-14 -1.08221e-13 4.37881e-14 -1.36232e-14 0 0 -8.00648e-14 -5.02906e-14 -2.56126e-14 2.66189e-15 0 0 -9.85203e-14 -1.40056e-14 -3.87901e-14 -1.49775e-14 0 0 -8.52287e-14 9.83751e-15 -8.32309e-14 9.48949e-15 0 0 -4.11339e-14 -3.68989e-14 -2.51107e-14 -1.49062e-14 0 0 -2.36998e-14 -5.27275e-14 2.97229e-14 -5.83371e-14 0 0 7.25032e-15 -6.0353e-14 -6.42171e-16 -2.18226e-14 0 0 6.26361e-15 -7.78101e-14 4.1893e-14 -1.54831e-14 0 0 -1.49531e-14 -5.65337e-14 4.69822e-14 8.6723e-15 0 0 -2.4691e-14 -2.70773e-15 -3.33268e-14 1.01672e-13 0 0 -3.53891e-14 4.4738e-14 -1.26798e-13 1.58231e-13 0 0 -2.48352e-14 2.12401e-14 -1.38301e-13 1.75105e-13 0 0 1.08984e-14 -3.86785e-14 -7.79262e-14 2.19553e-13 0 0 2.01295e-15 -3.91132e-14 -4.1445e-14 1.46041e-13 0 0 -3.23758e-14 3.66683e-15 -2.90758e-14 6.44157e-14 0 0 -1.78263e-14 1.02898e-14 -1.76052e-14 6.39725e-14 0 0 -7.56457e-15 1.76208e-14 2.83981e-16 3.12448e-14 0 0 -9.57764e-15 4.44937e-14 -1.25243e-14 1.7153e-14 0 0 -3.45746e-15 3.93896e-14 9.40377e-15 -4.10689e-15 0 0 1.81083e-14 2.54853e-14 2.26979e-14 7.50737e-16 0 0 3.1121e-14 2.43707e-14 2.16244e-14 1.22033e-14 0 0 2.93747e-14 1.3386e-14 5.22408e-14 -1.65693e-15 0
				</DataArray>
				<DataArray Name="VitesseY" type="Float32" format="ascii">