<?xml version="1.0"?>
<VTKFile type="PolyData">
	<PolyData>
		<Piece NumberOfPoints="1206" NumberOfPolys="1000">
			<Points>
				<DataArray type="Float32" NumberOfComponents="3" format="ascii">
 0 0 0 0.02 0 0 0.04 0 0 0.06 0 0 0.08 0 0 0.1 0 0 0 0.005 0 0.02 0.005 0 0.04 0.005 0 0.06 0.005 0 0.08 0.005 0 0.1 0.005 0 0 0.01 0 0.02 0.01 0 0.04 0.01 0 0.06 0.01 0 0.08 0.01 0 0.1 0.01 0 0 0.015 0 0.02 0.015 0 0.04 0.015 0 0.06 0.015 0 0.08 0.015 0 0.1 0.015 0 0 0.02 0 0.02 0.02 0 0.04 0.02 0 0.06 0.02 0 0.08 0.02 0 0.1 0.02 0 0 0.025 0 0.02 0.025 0 0.04 0.025 0 0.06 0.025 0 0.08 0.025 0 0.1 0.025 0 0 0.03 0 0.02 0.03 0 0.04 0.03 0 0.06 0.03 0 0.08 0.03 0 0.1 0.03 0 0 0.035 0 0.02 0.035 0 0.04 0.035 0 0.06 0.035 0 0.08 0.035 0 0.1 0.035 0 0 0.04 0 0.02 0.04 0 0.04 0.04 0 0.06 0.04 0 0.08 0.04 0 0.1 0.04 0 0 0.045 0 0.02 0.045 0 0.04 0.045 0 0.06 0.045 0 0.08 0.045 0 0.1 0.045 0 0 0.05 0 0.02 0.05 0 0.04 0.05 0 0.06 0.05 0 0.08 0.05 0 0.1 0.05 0 0 0.055 0 0.02 0.055 0 0.04 0.055 0 0.06 0.055 0 0.08 0.055 0 0.1 0.055 0 0 0.06 0 0.02 0.06 0 0.04 0.06 0 0.06 0.06 0 0.08 0.06 0 0.1 0.06 0 0 0.065 0 0.02 0.065 0 0.04 0.065 0 0.06 0.065 0 0.08 0.065 0 0.1 0.065 0 0 0.07 0 0.02 0.07 0 0.04 0.07 0 0.06 0.07 0 0.08 0.07 0 0.1 0.07 0 0 0.075 0 0.02 0.075 0 0.04 0.075 0 0.06 0.075 0 0.08 0.075 0 0.1 0.075 0 0 0.08 0 0.02 0.08 0 0.04 0.08 0 0.06 0.08 0 0.08 0.08 0 0.1 0.08 0 0 0.085 0 0.02 0.085 0 0.04 0.085 0 0.06 0.085 0 0.08 0.085 0 0.1 0.085 0 0 0.09 0 0.02 0.09 0 0.04 0.09 0 0.06 0.09 0 0.08 0.09 0 0.1 0.09 0 0 0.095 0 0.02 0.095 0 0.04 0.095 0 0.06 0.095 0 0.08 0.095 0 0.1 0.095 0 0 0.1 0 0.02 0.1 0 0.04 0.1 0 0.06 0.1 0 0.08 0.1 0 0.1 0.1 0 0 0.105 0 0.02 0.105 0 0.04 0.105 0 0.06 0.105 0 0.08 0.105 0 0.1 0.105 0 0 0.11 0 0.02 0.11 0 0.04 0.11 0 0.06 0.11 0 0.08 0.11 0 0.1 0.11 0 0 0.115 0 0.02 0.115 0 0.04 0.115 0 0.06 0.115 0 0.08 0.115 0 0.1 0.115 0 0 0.12 0 0.02 0.12 0 0.04 0.12 0 0.06 0.12 0 0.08 0.12 0 0.1 0.12 0 0 0.125 0 0.02 0.125 0 0.04 0.125 0 0.06 0.125 0 0.08 0.125 0 0.1 0.125 0 0 0.13 0 0.02 0.13 0 0.04 0.13 0 0.06 0.13 0 0.08 0.13 0 0.1 0.13 0 0 0.135 0 0.02 0.135 0 0.04 0.135 0 0.06 0.135 0 0.08 0.135 0 0.1 0.135 0 0 0.14 0 0.02 0.14 0 0.04 0.14 0 0.06 0.14 0 0.08 0.14 0 0.1 0.14 0 0 0.145 0 0.02 0.145 0 0.04 0.145 0 0.06 0.145 0 0.08 0.145 0 0.1 0.145 0 0 0.15 0 0.02 0.15 0 0.04 0.15 0 0.06 0.15 0 0.08 0.15 0 0.1 0.15 0 0 0.155 0 0.02 0.155 0 0.04 0.155 0 0.06 0.155 0 0.08 0.155 0 0.1 0.155 0 0 0.16 0 0.02 0.16 0 0.04 0.16 0 0.06 0.16 0 0.08 0.16 0 0.1 0.16 0 0 0.165 0 0.02 0.165 0 0.04 0.165 0 0.06 0.165 0 0.08 0.165 0 0.1 0.165 0 0 0.17 0 0.02 0.17 0 0.04 0.17 0 0.06 0.17 0 0.08 0.17 0 0.1 0.17 0 0 0.175 0 0.02 0.175 0 0.04 0.175 0 0.06 0.175 0 0.08 0.175 0 0.1 0.175 0 0 0.18 0 0.02 0.18 0 0.04 0.18 0 0.06 0.18 0 0.08 0.18 0 0.1 0.18 0 0 0.185 0 0.02 0.185 0 0.04 0.185 0 0.06 0.185 0 0.08 0.185 0 0.1 0.185 0 0 0.19 0 0.02 0.19 0 0.04 0.19 0 0.06 0.19 0 0.08 0.19 0 0.1 0.19 0 0 0.195 0 0.02 0.195 0 0.04 0.195 0 0.06 0.195 0 0.08 0.195 0 0.1 0.195 0 0 0.2 0 0.02 0.2 0 0.04 0.2 0 0.06 0.2 0 0.08 0.2 0 0.1 0.2 0 0 0.205 0 0.02 0.205 0 0.04 0.205 0 0.06 0.205 0 0.08 0.205 0 0.1 0.205 0 0 0.21 0 0.02 0.21 0 0.04 0.21 0 0.06 0.21 0 0.08 0.21 0 0.1 0.21 0 0 0.215 0 0.02 0.215 0 0.04 0.215 0 0.06 0.215 0 0.08 0.215 0 0.1 0.215 0 0 0.22 0 0.02 0.22 0 0.04 0.22 0 0.06 0.22 0 0.08 0.22 0 0.1 0.22 0 0 0.225 0 0.02 0.225 0 0.04 0.225 0 0.06 0.225 0 0.08 0.225 0 0.1 0.225 0 0 0.23 0 0.02 0.23 0 0.04 0.23 0 0.06 0.23 0 0.08 0.23 0 0.1 0.23 0 0 0.235 0 0.02 0.235 0 0.04 0.235 0 0.06 0.235 0 0.08 0.235 0 0.1 0.235 0 0 0.24 0 0.02 0.24 0 0.04 0.24 0 0.06 0.24 0 0.08 0.24 0 0.1 0.24 0 0 0.245 0 0.02 0.245 0 0.04 0.245 0 0.06 0.245 0 0.08 0.245 0 0.1 0.245 0 0 0.25 0 0.02 0.25 0 0.04 0.25 0 0.06 0.25 0 0.08 0.25 0 0.1 0.25 0 0 0.255 0 0.02 0.255 0 0.04 0.255 0 0.06 0.255 0 0.08 0.255 0 0.1 0.255 0 0 0.26 0 0.02 0.26 0 0.04 0.26 0 0.06 0.26 0 0.08 0.26 0 0.1 0.26 0 0 0.265 0 0.02 0.265 0 0.04 0.265 0 0.06 0.265 0 0.08 0.265 0 0.1 0.265 0 0 0.27 0 0.02 0.27 0 0.04 0.27 0 0.06 0.27 0 0.08 0.27 0 0.1 0.27 0 0 0.275 0 0.02 0.275 0 0.04 0.275 0 0.06 0.275 0 0.08 0.275 0 0.1 0.275 0 0 0.28 0 0.02 0.28 0 0.04 0.28 0 0.06 0.28 0 0.08 0.28 0 0.1 0.28 0 0 0.285 0 0.02 0.285 0 0.04 0.285 0 0.06 0.285 0 0.08 0.285 0 0.1 0.285 0 0 0.29 0 0.02 0.29 0 0.04 0.29 0 0.06 0.29 0 0.08 0.29 0 0.1 0.29 0 0 0.295 0 0.02 0.295 0 0.04 0.295 0 0.06 0.295 0 0.08 0.295 0 0.1 0.295 0 0 0.3 0 0.02 0.3 0 0.04 0.3 0 0.06 0.3 0 0.08 0.3 0 0.1 0.3 0 0 0.305 0 0.02 0.305 0 0.04 0.305 0 0.06 0.305 0 0.08 0.305 0 0.1 0.305 0 0 0.31 0 0.02 0.31 0 0.04 0.31 0 0.06 0.31 0 0.08 0.31 0 0.1 0.31 0 0 0.315 0 0.02 0.315 0 0.04 0.315 0 0.06 0.315 0 0.08 0.315 0 0.1 0.315 0 0 0.32 0 0.02 0.32 0 0.04 0.32 0 0.06 0.32 0 0.08 0.32 0 0.1 0.32 0 0 0.325 0 0.02 0.325 0 0.04 0.325 0 0.06 0.325 0 0.08 0.325 0 0.1 0.325 0 0 0.33 0 0.02 0.33 0 0.04 0.33 0 0.06 0.33 0 0.08 0.33 0 0.1 0.33 0 0 0.335 0 0.02 0.335 0 0.04 0.335 0 0.06 0.335 0 0.08 0.335 0 0.1 0.335 0 0 0.34 0 0.02 0.34 0 0.04 0.34 0 0.06 0.34 0 0.08 0.34 0 0.1 0.34 0 0 0.345 0 0.02 0.345 0 0.04 0.345 0 0.06 0.345 0 0.08 0.345 0 0.1 0.345 0 0 0.35 0 0.02 0.35 0 0.04 0.35 0 0.06 0.35 0 0.08 0.35 0 0.1 0.35 0 0 0.355 0 0.02 0.355 0 0.04 0.355 0 0.06 0.355 0 0.08 0.355 0 0.1 0.355 0 0 0.36 0 0.02 0.36 0 0.04 0.36 0 0.06 0.36 0 0.08 0.36 0 0.1 0.36 0 0 0.365 0 0.02 0.365 0 0.04 0.365 0 0.06 0.365 0 0.08 0.365 0 0.1 0.365 0 0 0.37 0 0.02 0.37 0 0.04 0.37 0 0.06 0.37 0 0.08 0.37 0 0.1 0.37 0 0 0.375 0 0.02 0.375 0 0.04 0.375 0 0.06 0.375 0 0.08 0.375 0 0.1 0.375 0 0 0.38 0 0.02 0.38 0 0.04 0.38 0 0.06 0.38 0 0.08 0.38 0 0.1 0.38 0 0 0.385 0 0.02 0.385 0 0.04 0.385 0 0.06 0.385 0 0.08 0.385 0 0.1 0.385 0 0 0.39 0 0.02 0.39 0 0.04 0.39 0 0.06 0.39 0 0.08 0.39 0 0.1 0.39 0 0 0.395 0 0.02 0.395 0 0.04 0.395 0 0.06 0.395 0 0.08 0.395 0 0.1 0.395 0 0 0.4 0 0.02 0.4 0 0.04 0.4 0 0.06 0.4 0 0.08 0.4 0 0.1 0.4 0 0 0.405001 0 0.02 0.405001 0 0.04 0.405001 0 0.06 0.405001 0 0.08 0.405001 0 0.1 0.405001 0 0 0.410003 0 0.02 0.410003 0 0.04 0.410003 0 0.06 0.410003 0 0.08 0.410003 0 0.1 0.410003 0 0 0.415013 0 0.02 0.415013 0 0.04 0.415013 0 0.06 0.415013 0 0.08 0.415013 0 0.1 0.415013 0 0 0.420048 0 0.02 0.420048 0 0.04 0.420048 0 0.06 0.420048 0 0.08 0.420048 0 0.1 0.420048 0 0 0.425145 0 0.02 0.425145 0 0.04 0.425145 0 0.06 0.425145 0 0.08 0.425145 0 0.1 0.425145 0 0 0.430369 0 0.02 0.430369 0 0.04 0.430369 0 0.06 0.430369 0 0.08 0.430369 0 0.1 0.430369 0 0 0.435799 0 0.02 0.435799 0 0.04 0.435799 0 0.06 0.435799 0 0.08 0.435799 0 0.1 0.435799 0 0 0.441513 0 0.02 0.441513 0 0.04 0.441513 0 0.06 0.441513 0 0.08 0.441513 0 0.1 0.441513 0 0 0.447586 0 0.02 0.447586 0 0.04 0.447586 0 0.06 0.447586 0 0.08 0.447586 0 0.1 0.447586 0 0 0.454092 0 0.02 0.454092 0 0.04 0.454092 0 0.06 0.454092 0 0.08 0.454092 0 0.1 0.454092 0 0 0.461116 0 0.02 0.461116 0 0.04 0.461116 0 0.06 0.461116 0 0.08 0.461116 0 0.1 0.461116 0 0 0.468764 0 0.02 0.468764 0 0.04 0.468764 0 0.06 0.468764 0 0.08 0.468764 0 0.1 0.468764 0 0 0.47717 0 0.02 0.47717 0 0.04 0.47717 0 0.06 0.47717 0 0.08 0.47717 0 0.1 0.47717 0 0 0.486504 0 0.02 0.486504 0 0.04 0.486504 0 0.06 0.486504 0 0.08 0.486504 0 0.1 0.486504 0 0 0.496962 0 0.02 0.496962 0 0.04 0.496962 0 0.06 0.496962 0 0.08 0.496962 0 0.1 0.496962 0 0 0.508656 0 0.02 0.508656 0 0.04 0.508656 0 0.06 0.508656 0 0.08 0.508656 0 0.1 0.508656 0 0 0.521081 0 0.02 0.521081 0 0.04 0.521081 0 0.06 0.521081 0 0.08 0.521081 0 0.1 0.521081 0 0 0.533247 0 0.02 0.533247 0 0.04 0.533247 0 0.06 0.533247 0 0.08 0.533247 0 0.1 0.533247 0 0 0.545157 0 0.02 0.545157 0 0.04 0.545157 0 0.06 0.545157 0 0.08 0.545157 0 0.1 0.545157 0 0 0.556961 0 0.02 0.556961 0 0.04 0.556961 0 0.06 0.556961 0 0.08 0.556961 0 0.1 0.556961 0 0 0.559585 0 0.02 0.559585 0 0.04 0.559585 0 0.06 0.559585 0 0.08 0.559585 0 0.1 0.559585 0 0 0.562134 0 0.02 0.562134 0 0.04 0.562134 0 0.06 0.562134 0 0.08 0.562134 0 0.1 0.562134 0 0 0.564637 0 0.02 0.564637 0 0.04 0.564637 0 0.06 0.564637 0 0.08 0.564637 0 0.1 0.564637 0 0 0.567108 0 0.02 0.567108 0 0.04 0.567108 0 0.06 0.567108 0 0.08 0.567108 0 0.1 0.567108 0 0 0.569557 0 0.02 0.569557 0 0.04 0.569557 0 0.06 0.569557 0 0.08 0.569557 0 0.1 0.569557 0 0 0.57199 0 0.02 0.57199 0 0.04 0.57199 0 0.06 0.57199 0 0.08 0.57199 0 0.1 0.57199 0 0 0.574412 0 0.02 0.574412 0 0.04 0.574412 0 0.06 0.574412 0 0.08 0.574412 0 0.1 0.574412 0 0 0.576825 0 0.02 0.576825 0 0.04 0.576825 0 0.06 0.576825 0 0.08 0.576825 0 0.1 0.576825 0 0 0.579232 0 0.02 0.579232 0 0.04 0.579232 0 0.06 0.579232 0 0.08 0.579232 0 0.1 0.579232 0 0 0.581634 0 0.02 0.581634 0 0.04 0.581634 0 0.06 0.581634 0 0.08 0.581634 0 0.1 0.581634 0 0 0.584036 0 0.02 0.584036 0 0.04 0.584036 0 0.06 0.584036 0 0.08 0.584036 0 0.1 0.584036 0 0 0.586438 0 0.02 0.586438 0 0.04 0.586438 0 0.06 0.586438 0 0.08 0.586438 0 0.1 0.586438 0 0 0.588846 0 0.02 0.588846 0 0.04 0.588846 0 0.06 0.588846 0 0.08 0.588846 0 0.1 0.588846 0 0 0.59126 0 0.02 0.59126 0 0.04 0.59126 0 0.06 0.59126 0 0.08 0.59126 0 0.1 0.59126 0 0 0.5937 0 0.02 0.5937 0 0.04 0.5937 0 0.06 0.5937 0 0.08 0.5937 0 0.1 0.5937 0 0 0.596163 0 0.02 0.596163 0 0.04 0.596163 0 0.06 0.596163 0 0.08 0.596163 0 0.1 0.596163 0 0 0.59869 0 0.02 0.59869 0 0.04 0.59869 0 0.06 0.59869 0 0.08 0.59869 0 0.1 0.59869 0 0 0.601272 0 0.02 0.601272 0 0.04 0.601272 0 0.06 0.601272 0 0.08 0.601272 0 0.1 0.601272 0 0 0.603983 0 0.02 0.603983 0 0.04 0.603983 0 0.06 0.603983 0 0.08 0.603983 0 0.1 0.603983 0 0 0.606827 0 0.02 0.606827 0 0.04 0.606827 0 0.06 0.606827 0 0.08 0.606827 0 0.1 0.606827 0 0 0.609916 0 0.02 0.609916 0 0.04 0.609916 0 0.06 0.609916 0 0.08 0.609916 0 0.1 0.609916 0 0 0.613283 0 0.02 0.613283 0 0.04 0.613283 0 0.06 0.613283 0 0.08 0.613283 0 0.1 0.613283 0 0 0.617006 0 0.02 0.617006 0 0.04 0.617006 0 0.06 0.617006 0 0.08 0.617006 0 0.1 0.617006 0 0 0.621093 0 0.02 0.621093 0 0.04 0.621093 0 0.06 0.621093 0 0.08 0.621093 0 0.1 0.621093 0 0 0.625521 0 0.02 0.625521 0 0.04 0.625521 0 0.06 0.625521 0 0.08 0.625521 0 0.1 0.6255
[...]
			<PointData Scalars="VitesseX">
				<DataArray Name="VitesseX" type="Float32" format="ascii">
 0 6.11452e-16 -7.04116e-16 -3.54029e-15 -4.70956e-15 0 0 5.95628e-16 -1.00618e-15 -2.98142e-15 -5.0548e-15 0 0 3.70706e-17 -9.81939e-16 -2.86597e-15 -4.91072e-15 0 0 -1.89806e-16 -1.45591e-15 -2.76542e-15 -4.29455e-15 0 0 -9.8918e-17 -1.39459e-15 -3.47494e-15 -3.14913e-15 0 0 -7.81575e-16 1.92827e-17 -4.49094e-15 -2.10686e-15 0 0 -9.20737e-16 -8.6152e-16 -2.85244e-15 -1.824e-15 0 0 -1.38112e-15 -5.08279e-16 -3.7427e-15 -9.50234e-16 0 0 -1.0789e-15 -7.27276e-16 -4.15106e-15 -1.29836e-15 0 0 2.26475e-16 -3.14395e-15 -2.18082e-15 -2.6653e-15 0 0 -6.11726e-16 -2.03398e-15 -3.85173e-15 -1.85817e-15 0 0 -2.34612e-15 3.71012e-17 -5.75503e-15 -1.16728e-15 0 0 -1.88287e-15 -1.52045e-16 -6.49213e-15 -6.29193e-16 0 0 1.11952e-16 -2.60335e-15 -4.96679e-15 -6.81397e-16 0 0 -1.50538e-15 -1.09197e-15 -4.56085e-15 -1.38643e-15 0 0 -2.04879e-15 -4.82973e-16 -5.57774e-15 -1.86873e-15 0 0 -8.275e-16 -5.64494e-15 -2.07583e-15 -5.83374e-15 0 0 -2.67765e-15 -7.36679e-15 -4.04614e-15 -8.13147e-15 0 0 -3.89991e-15 -8.49447e-15 -4.37169e-15 -1.05687e-14 0 0 -5.27213e-15 -9.12984e-15 -1.15247e-15 -1.27457e-14 0 0 -7.37571e-15 -4.48235e-15 -7.14713e-15 -7.761e-15 0 0 -6.89115e-15 -5.14681e-15 -9.10502e-15 -3.34803e-15 0 0 -7.7466e-15 -5.11325e-15 -8.97827e-15 -2.15057e-15 0 0 -7.42533e-15 -3.7747e-15 -8.79004e-15 -9.45706e-16 0 0 -4.66533e-15 -7.18399e-15 -5.7474e-15 -2.40335e-15 0 0 -2.24068e-15 -1.01646e-14 -4.5658e-15 -4.44199e-15 0 0 -5.62729e-15 -7.82817e-15 -4.03467e-15 -5.13893e-15 0 0 -6.90018e-15 -1.02137e-14 -4.55221e-15 -3.80318e-15 0 0 -8.78555e-15 -1.19162e-14 -6.95148e-15 -1.86375e-15 0 0 -5.65755e-15 -1.59354e-14 -1.12428e-14 -1.49322e-15 0 0 -6.41898e-15 -1.56404e-14 -1.67578e-14 -1.74188e-15 0 0 -1.23401e-14 -1.61656e-14 -1.29112e-14 -5.75007e-15 0 0 -9.53732e-15 -2.45112e-14 -6.31769e-15 -1.4773e-14 0 0 -1.27031e-14 -2.0038e-14 -1.57874e-14 -1.56155e-14 0 0 -1.4731e-14 -1.99929e-14 -1.76828e-14 -1.41635e-14 0 0 -1.72699e-14 -1.80821e-14 -1.53848e-14 -1.75534e-14 0 0 -1.31401e-14 -1.88161e-14 -2.06852e-14 -1.36096e-14 0 0 -1.1287e-14 -1.66134e-14 -3.20325e-14 1.95935e-15 0 0 -1.15994e-14 -1.55332e-14 -3.14896e-14 2.18775e-15 0 0 -1.06035e-14 -2.10084e-14 -1.80288e-14 -6.74092e-15 0 0 -9.65188e-15 -2.08312e-14 -1.74327e-14 -7.13112e-15 0 0 -6.18566e-15 -1.29807e-14 -2.28358e-14 -5.70462e-15 0 0 -5.71053e-15 -8.86584e-15 -2.18382e-14 -4.10761e-15 0 0 -1.21851e-15 -1.42536e-14 -2.18078e-14 -4.55805e-15 0 0 1.62324e-15 -1.83943e-14 -2.29104e-14 -6.82168e-15 0 0 -2.34961e-15 -2.27747e-14 -2.01409e-14 -8.54188e-15 0 0 -8.35765e-15 -2.30291e-14 -1.86779e-14 -1.56285e-14 0 0 -7.70287e-15 -2.41613e-14 -1.84267e-14 -1.4481e-14 0 0 -8.34678e-15 -2.15392e-14 -2.07483e-14 -3.52756e-15 0 0 -1.30401e-14 -1.49624e-14 -2.16151e-14 -4.28322e-15 0 0 -8.92933e-15 -2.40643e-14 -7.82083e-15 -4.90894e-15 0 0 -9.34092e-15 -3.1774e-14 5.75223e-15 -6.10972e-15 0 0 -1.59788e-14 -1.84762e-14 -4.08418e-15 -1.11838e-14 0 0 -1.33035e-14 -8.04948e-15 -2.44618e-14 -1.43781e-15 0 0 -9.35889e-15 -1.0648e-14 -3.17645e-14 -7.47651e-16 0 0 -1.29402e-14 -1.76864e-14 -2.77311e-14 -1.54439e-14 0 0 -2.30187e-14 -1.47401e-14 -2.6131e-14 -1.9709e-14 0 0 -2.79628e-14 -8.48142e-15 -3.16213e-14 -1.38724e-14 0 0 -3.21013e-14 -2.24465e-15 -4.8542e-14 -4.66831e-15 0 0 -2.57566e-14 -1.26965e-14 -4.93221e-14 -9.29567e-15 0 0 -2.32788e-14 -3.57689e-14 -3.5414e-14 -5.01281e-15 0 0 -3.19077e-14 -3.4047e-14 -3.68265e-14 -5.85696e-15 0 0 -3.15277e-14 -2.80283e-14 -3.69815e-14 -1.99886e-14 0 0 -3.22363e-14 -1.67368e-14 -4.76993e-14 -1.58292e-14 0 0 -2.41157e-14 -2.02775e-14 -5.76045e-14 7.81731e-15 0 0 -1.54191e-14 -2.40795e-14 -5.65907e-14 1.9114e-14 0 0 -9.40606e-15 -2.27495e-14 -4.05698e-14 -3.23722e-15 0 0 -1.27317e-14 -2.382e-14 -3.43668e-14 -1.62292e-14 0 0 -2.64958e-14 -5.64284e-15 -5.37276e-14 -1.73456e-14 0 0 -1.99283e-14 -1.79006e-14 -3.80959e-14 -3.36098e-14 0 0 -2.61538e-14 -2.20335e-14 -3.22193e-14 -2.36367e-14 0 0 -2.2763e-14 -1.32193e-14 -3.13424e-14 -1.83321e-14 0 0 2.24159e-15 -1.67261e-14 -1.74005e-14 -2.48255e-14 0 0 4.03384e-15 -8.61193e-15 -1.31508e-14 -6.7854e-15 0 0 -2.36448e-15 1.10363e-14 -1.88065e-14 4.54706e-15 0 0 -6.55738e-15 2.58252e-14 -2.75597e-14 2.77509e-16 0 0 4.57286e-15 1.61104e-14 -2.0868e-14 -5.21513e-15 0 0 2.48881e-14 4.0279e-15 -1.89123e-14 -2.10323e-15 0 0 1.89774e-14 3.3404e-15 -2.02e-14 8.33019e-15 0 0 3.28351e-16 5.1929e-15 -1.21513e-14 2.44268e-15 0 0 2.23479e-15 3.49914e-15 -9.52616e-15 -1.3417e-14 0 0 4.27414e-15 -1.98787e-16 -1.25872e-14 -1.10762e-14 0 0 -9.24616e-15 -2.13204e-15 -7.91772e-15 8.32208e-16 0 0 -5.66222e-15 -1.79842e-14 -8.34037e-15 6.97955e-15 0 0 -1.496e-16 -2.45313e-14 -5.34115e-15 1.93721e-15 0 0 -9.87848e-15 -1.2536e-14 -1.10782e-15 -9.30736e-16 0 0 -1.61261e-14 1.57326e-15 -1.62226e-14 2.3462e-15 0 0 -9.31758e-15 1.32885e-14 -2.33869e-14 6.01939e-15 0 0 6.70987e-15 -5.81122e-16 -1.08187e-14 1.46575e-14 0 0 1.24851e-14 -1.26724e-14 4.3013e-15 4.50944e-15 0 0 2.27695e-15 1.61813e-15 6.85263e-15 -6.9181e-15 0 0 -1.05446e-14 1.97666e-14 2.00918e-15 2.6003e-15 0 0 -1.24965e-15 1.72254e-14 1.17994e-15 7.06401e-15 0 0 1.22442e-14 2.13614e-15 2.49462e-15 1.67823e-14 0 0 -1.3104e-14 -1.34904e-14 8.42063e-15 1.00828e-15 0 0 -2.25597e-14 1.42107e-14 -1.34286e-14 -4.43181e-15 0 0 2.49419e-14 1.27956e-14 -1.70015e-15 1.5171e-14 0 0 6.10233e-14 7.20265e-14 8.65126e-14 5.40252e-14 0 0 1.03815e-13 1.81108e-13 1.73121e-13 9.99791e-14 0 0 6.98352e-14 9.09236e-14 9.57731e-14 6.25189e-14 0 0 -3.8814e-14 -8.6123e-14 -8.31294e-14 -4.5627e-14 0 0 -3.84913e-13 -6.77575e-13 -6.82442e-13 -4.07417e-13 0 0 -4.23862e-13 -7.11516e-13 -6.77838e-13 -4.10459e-13 0 0 -4.23581e-13 -7.83857e-13 -5.51795e-13 -4.7228e-13 0 0 -4.25617e-13 -7.50201e-13 -5.31752e-13 -4.59935e-13 0 0 -4.4992e-13 -6.31218e-13 -6.22998e-13 -3.69479e-13 0 0 -4.34445e-13 -5.58838e-13 -6.07424e-13 -3.45468e-13 0 0 -3.33509e-13 -5.79188e-13 -4.87359e-13 -3.24818e-13 0 0 -2.46192e-13 -4.73509e-13 -3.52501e-13 -2.85461e-13 0 0 -1.55469e-13 -2.25515e-13 -1.87872e-13 -1.4627e-13 0 0 -7.35857e-15 9.61838e-15 4.45815e-14 -2.42762e-15 0 0 1.4521e-13 1.91024e-13 2.69698e-13 4.96402e-14 0 0 2.02158e-13 3.25583e-13 3.83314e-13 1.27785e-13 0 0 1.2988e-13 4.60277e-13 3.25521e-13 2.09199e-13 0 0 1.08373e-13 4.0297e-13 3.37113e-13 1.56567e-13 0 0 1.54614e-13 2.37665e-13 3.51079e-13 9.74343e-14 0 0 1.21171e-13 2.33141e-13 2.42215e-13 1.42145e-13 0 0 1.05719e-13 2.33217e-13 1.75516e-13 2.10326e-13 0 0 1.49763e-13 1.182e-13 2.19929e-13 1.6075e-13 0 0 1.64868e-13 1.37891e-13 3.03593e-13 7.82942e-14 0 0 1.32046e-13 2.20688e-13 2.78377e-13 6.42231e-14 0 0 1.33058e-13 2.38679e-13 2.44469e-13 1.38118e-13 0 0 1.47791e-13 2.44849e-13 2.13153e-13 1.41881e-13 0 0 1.3092e-13 2.60795e-13 1.8215e-13 7.37304e-14 0 0 1.17456e-13 1.78766e-13 1.41826e-13 6.7329e-14 0 0 8.22343e-14 1.22145e-13 7.05683e-14 5.35855e-14 0 0 4.29853e-14 8.39912e-14 2.97355e-14 1.64178e-14 0 0 4.06614e-14 2.24306e-14 6.48864e-16 -4.80687e-15 0 0 2.33024e-14 1.57329e-14 -4.04511e-14 -2.55773e-15 0 0 1.67991e-14 1.29971e-14 -4.56035e-14 -2.13584e-14 0 0 1.74846e-14 2.85701e-15 -3.58881e-14 -3.31277e-14 0 0 9.87688e-15 -6.78502e-15 -3.59158e-14 -1.79391e-14 0 0 7.02189e-15 -1.09931e-14 -4.59728e-14 -2.66596e-15 0 0 -1.46131e-15 7.79163e-16 -6.40457e-14 -1.3618e-14 0 0 5.13657e-16 -1.71665e-14 -4.53764e-14 -4.9054e-14 0 0 6.91372e-15 -2.47764e-14 -4.19881e-14 -5.50576e-14 0 0 4.95372e-16 -2.61701e-14 -4.11894e-14 -5.54067e-14 0 0 -3.7906e-15 -3.36579e-14 -3.1756e-14 -7.93726e-14 0 0 -2.23135e-14 3.97688e-15 -7.88887e-14 -4.56296e-14 0 0 -3.92407e-14 1.15131e-14 -9.57244e-14 -8.02073e-16 0 0 -3.15909e-14 -2.99138e-14 -5.00285e-14 -2.37532e-14 0 0 -1.11137e-14 -6.77235e-14 -4.17691e-14 9.06697e-15 0 0 -1.1137e-14 -6.5139e-14 -6.75813e-14 3.17189e-14 0 0 -2.48666e-14 -5.26227e-14 -7.08316e-14 -2.62377e-14 0 0 -3.35912e-14 -5.3606e-14 -1.03648e-13 -3.52354e-14 0 0 -3.20285e-14 -6.87313e-14 -1.35394e-13 -4.05101e-14 0 0 -4.3128e-14 -6.44776e-14 -1.54136e-13 -7.08286e-14 0 0 -3.5505e-14 -7.77759e-14 -1.6077e-13 -7.8432e-14 0 0 -3.44036e-14 -1.00084e-13 -1.7188e-13 -4.211e-14 0 0 -6.4639e-14 -8.45235e-14 -1.51015e-13 -6.21094e-14 0 0 -5.24623e-14 -1.00999e-13 -9.68997e-14 -1.08274e-13 0 0 -4.28383e-14 -9.89581e-14 -1.04912e-13 -8.0026e-14 0 0 -4.86758e-14 -7.58494e-14 -1.20017e-13 -7.12177e-14 0 0 -6.7319e-14 -6.37302e-14 -1.23894e-13 -1.00968e-13 0 0 -6.91541e-14 -5.71808e-14 -1.39252e-13 -1.48179e-13 0 0 -6.57968e-14 -6.28601e-14 -1.44189e-13 -1.58358e-13 0 0 -9.49219e-14 -6.74533e-14 -1.40605e-13 -1.2332e-13 0 0 -6.03702e-14 -1.19007e-13 -1.29703e-13 -1.10257e-13 0 0 -3.08239e-14 -1.65692e-13 -1.1465e-13 -1.05647e-13 0 0 -6.8263e-14 -1.30922e-13 -1.14519e-13 -1.17195e-13 0 0 -6.52289e-14 -1.12364e-13 -1.0552e-13 -1.38425e-13 0 0 -2.94e-14 -1.3907e-13 -1.11096e-13 -1.30393e-13 0 0 -1.84705e-14 -1.46752e-13 -1.45857e-13 -6.65846e-14 0 0 -3.37671e-14 -1.22972e-13 -1.71851e-13 -1.53081e-14 0 0 -3.39834e-14 -1.42828e-13 -1.43976e-13 -5.93045e-14 0 0 -2.84072e-14 -1.60203e-13 -1.57196e-13 -7.50048e-14 0 0 -5.1334e-14 -1.21657e-13 -2.00499e-13 -3.94691e-14 0 0 -6.74372e-14 -1.16176e-13 -1.78279e-13 -5.96541e-14 0 0 -8.22653e-14 -1.10328e-13 -1.80973e-13 -4.55149e-14 0 0 -6.70794e-14 -1.39965e-13 -1.56377e-13 -5.20155e-14 0 0 -6.23437e-14 -1.504e-13 -1.38487e-13 -6.93189e-14 0 0 -8.68587e-14 -1.11983e-13 -1.46596e-13 -4.06316e-14 0 0 -1.032e-13 -1.15451e-13 -1.13272e-13 -6.18909e-14 0 0 -1.12983e-13 -1.18078e-13 -9.83406e-14 -7.48308e-14 0 0 -1.1866e-13 -9.76462e-14 -1.43507e-13 -2.71945e-14 0 0 -8.59992e-14 -1.10187e-13 -1.81927e-13 2.21626e-14 0 0 -6.73273e-14 -1.35605e-13 -1.32881e-13 7.18276e-15 0 0 -7.75828e-14 -1.23457e-13 -9.86275e-14 -3.91773e-14 0 0 -5.48235e-14 -9.94092e-14 -1.21845e-13 -4.55868e-14 0 0 -7.25028e-14 -5.69981e-14 -1.32199e-13 -8.08625e-14 0 0 -8.09738e-14 -6.56252e-14 -1.25999e-13 -1.12981e-13 0 0 -4.21839e-14 -1.28333e-13 -1.35021e-13 -8.56061e-14 0 0 -1.30557e-14 -1.33541e-13 -1.64887e-13 -8.11728e-14 0 0 -4.88183e-14 -6.01336e-14 -2.22396e-13 -8.15599e-14 0 0 -9.39431e-14 -5.21301e-14 -2.0972e-13 -9.40872e-14 0 0 -8.86424e-14 -1.0442e-13 -1.43993e-13 -1.05096e-13 0 0 -7.0871e-14 -1.59074e-13 -1.14746e-13 -8.98625e-14 0 0 -6.51571e-14 -1.81005e-13 -9.87094e-14 -8.84838e-14 0 0 -8.75542e-14 -1.53701e-13 -7.07014e-14 -9.98142e-14 0 0 -8.71153e-14 -1.50988e-13 -4.47433e-14 -8.86259e-14 0 0 -7.58987e-14 -1.47333e-13 -4.47076e-14 -9.13676e-14 0 0 -6.46215e-14 -1.53123e-13 -8.72527e-14 -4.48064e-14 0 0 -4.25413e-14 -1.68066e-13 -1.12912e-13 -1.74169e-14 0 0 -3.51035e-14 -1.50116e-13 -1.43838e-13 -5.72258e-14 0 0 -4.51834e-14 -1.04914e-13 -2.04831e-13 -7.49786e-14 0 0 -6.74405e-14 -7.01321e-14 -2.08805e-13 -7.85651e-14 0 0 -8.10133e-14 -8.46201e-14 -1.59813e-13 -7.33681e-14 0 0 -6.29965e-14 -1.19661e-13 -1.02416e-13 -9.04221e-14 0 0 -4.15844e-14 -9.63518e-14 -1.20324e-13 -8.95492e-14 0 0 -5.36411e-14 -5.27952e-14 -1.36073e-13 -8.33227e-14 0 0 -6.23616e-14 -4.57642e-14 -1.13832e-13 -8.77515e-14 0
				</DataArray>
				<DataArray Name="VitesseY" type="Float32" format="ascii">