<?xml version="1.0"?>
<VTKFile type="PolyData">
	<PolyData>
		<Piece NumberOfPoints="1206" NumberOfPolys="1000">
			<Points>
				<DataArray type="Float32" NumberOfComponents="3" format="ascii">
 0 0 0 0.02 0 0 0.04 0 0 0.06 0 0 0.08 0 0 0.1 0 0 0 0.005 0 0.02 0.005 0 0.04 0.005 0 0.06 0.005 0 0.08 0.005 0 0.1 0.005 0 0 0.01 0 0.02 0.01 0 0.04 0.01 0 0.06 0.01 0 0.08 0.01 0 0.1 0.01 0 0 0.015 0 0.02 0.015 0 0.04 0.015 0 0.06 0.015 0 0.08 0.015 0 0.1 0.015 0 0 0.02 0 0.02 0.02 0 0.04 0.02 0 0.06 0.02 0 0.08 0.02 0 0.1 0.02 0 0 0.025 0 0.02 0.025 0 0.04 0.025 0 0.06 0.025 0 0.08 0.025 0 0.1 0.025 0 0 0.03 0 0.02 0.03 0 0.04 0.03 0 0.06 0.03 0 0.08 0.03 0 0.1 0.03 0 0 0.035 0 0.02 0.035 0 0.04 0.035 0 0.06 0.035 0 0.08 0.035 0 0.1 0.035 0 0 0.04 0 0.02 0.04 0 0.04 0.04 0 0.06 0.04 0 0.08 0.04 0 0.1 0.04 0 0 0.045 0 0.02 0.045 0 0.04 0.045 0 0.06 0.045 0 0.08 0.045 0 0.1 0.045 0 0 0.05 0 0.02 0.05 0 0.04 0.05 0 0.06 0.05 0 0.08 0.05 0 0.1 0.05 0 0 0.055 0 0.02 0.055 0 0.04 0.055 0 0.06 0.055 0 0.08 0.055 0 0.1 0.055 0 0 0.06 0 0.02 0.06 0 0.04 0.06 0 0.06 0.06 0 0.08 0.06 0 0.1 0.06 0 0 0.065 0 0.02 0.065 0 0.04 0.065 0 0.06 0.065 0 0.08 0.065 0 0.1 0.065 0 0 0.07 0 0.02 0.07 0 0.04 0.07 0 0.06 0.07 0 0.08 0.07 0 0.1 0.07 0 0 0.075 0 0.02 0.075 0 0.04 0.075 0 0.06 0.075 0 0.08 0.075 0 0.1 0.075 0 0 0.08 0 0.02 0.08 0 0.04 0.08 0 0.06 0.08 0 0.08 0.08 0 0.1 0.08 0 0 0.085 0 0.02 0.085 0 0.04 0.085 0 0.06 0.085 0 0.08 0.085 0 0.1 0.085 0 0 0.09 0 0.02 0.09 0 0.04 0.09 0 0.06 0.09 0 0.08 0.09 0 0.1 0.09 0 0 0.095 0 0.02 0.095 0 0.04 0.095 0 0.06 0.095 0 0.08 0.095 0 0.1 0.095 0 0 0.1 0 0.02 0.1 0 0.04 0.1 0 0.06 0.1 0 0.08 0.1 0 0.1 0.1 0 0 0.105 0 0.02 0.105 0 0.04 0.105 0 0.06 0.105 0 0.08 0.105 0 0.1 0.105 0 0 0.11 0 0.02 0.11 0 0.04 0.11 0 0.06 0.11 0 0.08 0.11 0 0.1 0.11 0 0 0.115 0 0.02 0.115 0 0.04 0.115 0 0.06 0.115 0 0.08 0.115 0 0.1 0.115 0 0 0.12 0 0.02 0.12 0 0.04 0.12 0 0.06 0.12 0 0.08 0.12 0 0.1 0.12 0 0 0.125 0 0.02 0.125 0 0.04 0.125 0 0.06 0.125 0 0.08 0.125 0 0.1 0.125 0 0 0.13 0 0.02 0.13 0 0.04 0.13 0 0.06 0.13 0 0.08 0.13 0 0.1 0.13 0 0 0.135 0 0.02 0.135 0 0.04 0.135 0 0.06 0.135 0 0.08 0.135 0 0.1 0.135 0 0 0.14 0 0.02 0.14 0 0.04 0.14 0 0.06 0.14 0 0.08 0.14 0 0.1 0.14 0 0 0.145 0 0.02 0.145 0 0.04 0.145 0 0.06 0.145 0 0.08 0.145 0 0.1 0.145 0 0 0.15 0 0.02 0.15 0 0.04 0.15 0 0.06 0.15 0 0.08 0.15 0 0.1 0.15 0 0 0.155 0 0.02 0.155 0 0.04 0.155 0 0.06 0.155 0 0.08 0.155 0 0.1 0.155 0 0 0.16 0 0.02 0.16 0 0.04 0.16 0 0.06 0.16 0 0.08 0.16 0 0.1 0.16 0 0 0.165 0 0.02 0.165 0 0.04 0.165 0 0.06 0.165 0 0.08 0.165 0 0.1 0.165 0 0 0.17 0 0.02 0.17 0 0.04 0.17 0 0.06 0.17 0 0.08 0.17 0 0.1 0.17 0 0 0.175 0 0.02 0.175 0 0.04 0.175 0 0.06 0.175 0 0.08 0.175 0 0.1 0.175 0 0 0.18 0 0.02 0.18 0 0.04 0.18 0 0.06 0.18 0 0.08 0.18 0 0.1 0.18 0 0 0.185 0 0.02 0.185 0 0.04 0.185 0 0.06 0.185 0 0.08 0.185 0 0.1 0.185 0 0 0.19 0 0.02 0.19 0 0.04 0.19 0 0.06 0.19 0 0.08 0.19 0 0.1 0.19 0 0 0.195 0 0.02 0.195 0 0.04 0.195 0 0.06 0.195 0 0.08 0.195 0 0.1 0.195 0 0 0.2 0 0.02 0.2 0 0.04 0.2 0 0.06 0.2 0 0.08 0.2 0 0.1 0.2 0 0 0.205 0 0.02 0.205 0 0.04 0.205 0 0.06 0.205 0 0.08 0.205 0 0.1 0.205 0 0 0.21 0 0.02 0.21 0 0.04 0.21 0 0.06 0.21 0 0.08 0.21 0 0.1 0.21 0 0 0.215 0 0.02 0.215 0 0.04 0.215 0 0.06 0.215 0 0.08 0.215 0 0.1 0.215 0 0 0.22 0 0.02 0.22 0 0.04 0.22 0 0.06 0.22 0 0.08 0.22 0 0.1 0.22 0 0 0.225 0 0.02 0.225 0 0.04 0.225 0 0.06 0.225 0 0.08 0.225 0 0.1 0.225 0 0 0.23 0 0.02 0.23 0 0.04 0.23 0 0.06 0.23 0 0.08 0.23 0 0.1 0.23 0 0 0.235 0 0.02 0.235 0 0.04 0.235 0 0.06 0.235 0 0.08 0.235 0 0.1 0.235 0 0 0.24 0 0.02 0.24 0 0.04 0.24 0 0.06 0.24 0 0.08 0.24 0 0.1 0.24 0 0 0.245 0 0.02 0.245 0 0.04 0.245 0 0.06 0.245 0 0.08 0.245 0 0.1 0.245 0 0 0.25 0 0.02 0.25 0 0.04 0.25 0 0.06 0.25 0 0.08 0.25 0 0.1 0.25 0 0 0.255 0 0.02 0.255 0 0.04 0.255 0 0.06 0.255 0 0.08 0.255 0 0.1 0.255 0 0 0.26 0 0.02 0.26 0 0.04 0.26 0 0.06 0.26 0 0.08 0.26 0 0.1 0.26 0 0 0.265 0 0.02 0.265 0 0.04 0.265 0 0.06 0.265 0 0.08 0.265 0 0.1 0.265 0 0 0.27 0 0.02 0.27 0 0.04 0.27 0 0.06 0.27 0 0.08 0.27 0 0.1 0.27 0 0 0.275 0 0.02 0.275 0 0.04 0.275 0 0.06 0.275 0 0.08 0.275 0 0.1 0.275 0 0 0.28 0 0.02 0.28 0 0.04 0.28 0 0.06 0.28 0 0.08 0.28 0 0.1 0.28 0 0 0.285 0 0.02 0.285 0 0.04 0.285 0 0.06 0.285 0 0.08 0.285 0 0.1 0.285 0 0 0.29 0 0.02 0.29 0 0.04 0.29 0 0.06 0.29 0 0.08 0.29 0 0.1 0.29 0 0 0.295 0 0.02 0.295 0 0.04 0.295 0 0.06 0.295 0 0.08 0.295 0 0.1 0.295 0 0 0.3 0 0.02 0.3 0 0.04 0.3 0 0.06 0.3 0 0.08 0.3 0 0.1 0.3 0 0 0.305 0 0.02 0.305 0 0.04 0.305 0 0.06 0.305 0 0.08 0.305 0 0.1 0.305 0 0 0.31 0 0.02 0.31 0 0.04 0.31 0 0.06 0.31 0 0.08 0.31 0 0.1 0.31 0 0 0.315 0 0.02 0.315 0 0.04 0.315 0 0.06 0.315 0 0.08 0.315 0 0.1 0.315 0 0 0.32 0 0.02 0.32 0 0.04 0.32 0 0.06 0.32 0 0.08 0.32 0 0.1 0.32 0 0 0.325 0 0.02 0.325 0 0.04 0.325 0 0.06 0.325 0 0.08 0.325 0 0.1 0.325 0 0 0.33 0 0.02 0.33 0 0.04 0.33 0 0.06 0.33 0 0.08 0.33 0 0.1 0.33 0 0 0.335 0 0.02 0.335 0 0.04 0.335 0 0.06 0.335 0 0.08 0.335 0 0.1 0.335 0 0 0.34 0 0.02 0.34 0 0.04 0.34 0 0.06 0.34 0 0.08 0.34 0 0.1 0.34 0 0 0.345 0 0.02 0.345 0 0.04 0.345 0 0.06 0.345 0 0.08 0.345 0 0.1 0.345 0 0 0.35 0 0.02 0.35 0 0.04 0.35 0 0.06 0.35 0 0.08 0.35 0 0.1 0.35 0 0 0.355 0 0.02 0.355 0 0.04 0.355 0 0.06 0.355 0 0.08 0.355 0 0.1 0.355 0 0 0.36 0 0.02 0.36 0 0.04 0.36 0 0.06 0.36 0 0.08 0.36 0 0.1 0.36 0 0 0.365 0 0.02 0.365 0 0.04 0.365 0 0.06 0.365 0 0.08 0.365 0 0.1 0.365 0 0 0.37 0 0.02 0.37 0 0.04 0.37 0 0.06 0.37 0 0.08 0.37 0 0.1 0.37 0 0 0.375 0 0.02 0.375 0 0.04 0.375 0 0.06 0.375 0 0.08 0.375 0 0.1 0.375 0 0 0.38 0 0.02 0.38 0 0.04 0.38 0 0.06 0.38 0 0.08 0.38 0 0.1 0.38 0 0 0.385 0 0.02 0.385 0 0.04 0.385 0 0.06 0.385 0 0.08 0.385 0 0.1 0.385 0 0 0.39 0 0.02 0.39 0 0.04 0.39 0 0.06 0.39 0 0.08 0.39 0 0.1 0.39 0 0 0.395002 0 0.02 0.395002 0 0.04 0.395002 0 0.06 0.395002 0 0.08 0.395002 0 0.1 0.395002 0 0 0.400007 0 0.02 0.400007 0 0.04 0.400007 0 0.06 0.400007 0 0.08 0.400007 0 0.1 0.400007 0 0 0.405027 0 0.02 0.405027 0 0.04 0.405027 0 0.06 0.405027 0 0.08 0.405027 0 0.1 0.405027 0 0 0.410084 0 0.02 0.410084 0 0.04 0.410084 0 0.06 0.410084 0 0.08 0.410084 0 0.1 0.410084 0 0 0.415221 0 0.02 0.415221 0 0.04 0.415221 0 0.06 0.415221 0 0.08 0.415221 0 0.1 0.415221 0 0 0.420497 0 0.02 0.420497 0 0.04 0.420497 0 0.06 0.420497 0 0.08 0.420497 0 0.1 0.420497 0 0 0.425975 0 0.02 0.425975 0 0.04 0.425975 0 0.06 0.425975 0 0.08 0.425975 0 0.1 0.425975 0 0 0.431714 0 0.02 0.431714 0 0.04 0.431714 0 0.06 0.431714 0 0.08 0.431714 0 0.1 0.431714 0 0 0.437766 0 0.02 0.437766 0 0.04 0.437766 0 0.06 0.437766 0 0.08 0.437766 0 0.1 0.437766 0 0 0.444186 0 0.02 0.444186 0 0.04 0.444186 0 0.06 0.444186 0 0.08 0.444186 0 0.1 0.444186 0 0 0.451035 0 0.02 0.451035 0 0.04 0.451035 0 0.06 0.451035 0 0.08 0.451035 0 0.1 0.451035 0 0 0.458384 0 0.02 0.458384 0 0.04 0.458384 0 0.06 0.458384 0 0.08 0.458384 0 0.1 0.458384 0 0 0.466323 0 0.02 0.466323 0 0.04 0.466323 0 0.06 0.466323 0 0.08 0.466323 0 0.1 0.466323 0 0 0.474962 0 0.02 0.474962 0 0.04 0.474962 0 0.06 0.474962 0 0.08 0.474962 0 0.1 0.474962 0 0 0.484437 0 0.02 0.484437 0 0.04 0.484437 0 0.06 0.484437 0 0.08 0.484437 0 0.1 0.484437 0 0 0.4949 0 0.02 0.4949 0 0.04 0.4949 0 0.06 0.4949 0 0.08 0.4949 0 0.1 0.4949 0 0 0.506447 0 0.02 0.506447 0 0.04 0.506447 0 0.06 0.506447 0 0.08 0.506447 0 0.1 0.506447 0 0 0.518783 0 0.02 0.518783 0 0.04 0.518783 0 0.06 0.518783 0 0.08 0.518783 0 0.1 0.518783 0 0 0.531016 0 0.02 0.531016 0 0.04 0.531016 0 0.06 0.531016 0 0.08 0.531016 0 0.1 0.531016 0 0 0.543006 0 0.02 0.543006 0 0.04 0.543006 0 0.06 0.543006 0 0.08 0.543006 0 0.1 0.543006 0 0 0.554844 0 0.02 0.554844 0 0.04 0.554844 0 0.06 0.554844 0 0.08 0.554844 0 0.1 0.554844 0 0 0.566645 0 0.02 0.566645 0 0.04 0.566645 0 0.06 0.566645 0 0.08 0.566645 0 0.1 0.566645 0 0 0.569265 0 0.02 0.569265 0 0.04 0.569265 0 0.06 0.569265 0 0.08 0.569265 0 0.1 0.569265 0 0 0.57181 0 0.02 0.57181 0 0.04 0.57181 0 0.06 0.57181 0 0.08 0.57181 0 0.1 0.57181 0 0 0.574308 0 0.02 0.574308 0 0.04 0.574308 0 0.06 0.574308 0 0.08 0.574308 0 0.1 0.574308 0 0 0.576775 0 0.02 0.576775 0 0.04 0.576775 0 0.06 0.576775 0 0.08 0.576775 0 0.1 0.576775 0 0 0.579219 0 0.02 0.579219 0 0.04 0.579219 0 0.06 0.579219 0 0.08 0.579219 0 0.1 0.579219 0 0 0.581647 0 0.02 0.581647 0 0.04 0.581647 0 0.06 0.581647 0 0.08 0.581647 0 0.1 0.581647 0 0 0.584062 0 0.02 0.584062 0 0.04 0.584062 0 0.06 0.584062 0 0.08 0.584062 0 0.1 0.584062 0 0 0.586467 0 0.02 0.586467 0 0.04 0.586467 0 0.06 0.586467 0 0.08 0.586467 0 0.1 0.586467 0 0 0.588866 0 0.02 0.588866 0 0.04 0.588866 0 0.06 0.588866 0 0.08 0.588866 0 0.1 0.588866 0 0 0.591258 0 0.02 0.591258 0 0.04 0.591258 0 0.06 0.591258 0 0.08 0.591258 0 0.1 0.591258 0 0 0.593646 0 0.02 0.593646 0 0.04 0.593646 0 0.06 0.593646 0 0.08 0.593646 0 0.1 0.593646 0 0 0.59603 0 0.02 0.59603 0 0.04 0.59603 0 0.06 0.59603 0 0.08 0.59603 0 0.1 0.59603 0 0 0.598415 0 0.02 0.598415 0 0.04 0.598415 0 0.06 0.598415 0 0.08 0.598415 0 0.1 0.598415 0 0 0.600798 0 0.02 0.600798 0 0.04 0.600798 0 0.06 0.600798 0 0.08 0.600798 0 0.1 0.600798 0 0 0.603179 0 0.02 0.603179 0 0.04 0.603179 0 0.06 0.603179 0 0.08 0.603179 0 0.1 0.603179 0 0 0.605551 0 0.02 0.605551 0 0.04 0.605551 0 0.06 0.605551 0 0.08 0.605551 0 0.1 0.605551 0 0 0.607923 0 0.02 0.607923 0 0.04 0.607923 0 0.06 0.607923 0 0.08 0.607923 0 0.1 0.607923 0 0 0.610301 0 0.02 0.610301 0 0.04 0.610301 0 0.06 0.610301 0 0.08 0.610301 0 0.1 0.610301 0 0 0.612708 0 0.02 0.612708 0 0.04 0.612708 0 0.06 0.612708 0 0.08 0.612708 0 0.1 0.612708 0 0 0.615157 0 0.02 0.615157 0 0.04 0.615157 0 0.06 0.615157 0 0.08 0.615157 0 0.1 0.615157 0 0 0.61768 0 0.02 0.61768 0 0.04 0.61768 0 0.06 0.61768 0 0.08 0.61768 0 0.1 0.61768 0 0 0.62029 0 0.02 0.62029 0 0.04 0.62029 0 0.06 0.62029 0 0.08 0.62029 0 0.1 0.62029 0 0 0.623053 0 0.02 0.623053 0 0.04 0.623053 0 0.06 0.623053 0 0.08 0.623053 0 0.1 0.623053 0 0 0.626002 0 0.02 0.626002 0 0.04 0.626002 0 0.06 0.626002 0 0.08 0.626002 0 0.1 0.626002 0 0 0.629217 0 0.02 0.629217 0 0.04 0.629
[...]
			<PointData Scalars="VitesseX">
				<DataArray Name="VitesseX" type="Float32" format="ascii">
 0 7.57198e-16 -9.6991e-16 1.07643e-15 2.66081e-15 0 0 4.05439e-16 -1.59438e-16 1.0678e-15 2.16738e-15 0 0 -7.97e-18 8.50733e-16 1.41144e-15 1.56718e-15 0 0 6.38312e-16 -2.06427e-16 2.911e-15 1.69515e-15 0 0 8.62321e-16 -8.8668e-16 3.29005e-15 2.35725e-15 0 0 -4.14883e-16 -8.5655e-17 2.49345e-15 2.65273e-15 0 0 -1.54926e-15 9.89873e-16 1.34989e-15 3.17851e-15 0 0 -1.60844e-15 1.97885e-15 8.73817e-17 3.57727e-15 0 0 -5.76986e-16 6.49048e-16 6.63603e-16 2.63006e-15 0 0 1.5547e-15 -2.04257e-15 1.80416e-15 9.02561e-16 0 0 5.3231e-16 3.7777e-16 3.06565e-16 9.24497e-16 0 0 -2.88098e-15 4.83535e-15 1.91507e-17 7.44634e-16 0 0 -1.7232e-15 1.57287e-15 4.28981e-15 -1.02118e-15 0 0 3.52568e-16 -1.7624e-15 5.28381e-15 -1.63674e-15 0 0 1.48888e-15 -8.88377e-16 1.38854e-15 -5.61818e-16 0 0 1.71236e-15 6.57783e-16 -1.35069e-15 1.1083e-15 0 0 8.15353e-16 1.09495e-15 -1.05834e-15 8.33008e-16 0 0 2.00892e-15 -2.43862e-15 1.67085e-15 -9.02051e-17 0 0 1.53185e-15 -2.48139e-15 1.51619e-15 6.48207e-15 0 0 -1.93864e-17 -6.9829e-16 1.68695e-15 9.7046e-15 0 0 1.4925e-15 -2.07049e-15 1.54661e-15 8.60685e-15 0 0 -4.40656e-16 2.28165e-15 -1.96543e-15 1.07634e-14 0 0 -1.23814e-15 1.98032e-15 -3.47941e-16 8.97234e-15 0 0 1.45212e-15 -1.24563e-15 3.07295e-15 2.25815e-15 0 0 -2.45327e-16 2.03658e-15 2.26047e-15 -3.55305e-15 0 0 -9.89678e-16 1.9362e-15 2.16665e-15 -5.60332e-15 0 0 -1.00092e-15 3.94994e-16 6.64234e-15 -3.34732e-15 0 0 2.44369e-16 1.94735e-15 2.04133e-15 1.10953e-14 0 0 9.53106e-17 2.0426e-15 -1.85237e-15 1.58254e-14 0 0 -1.81305e-15 5.82169e-15 -5.96885e-16 6.84585e-15 0 0 -1.93516e-15 5.53865e-15 -2.79718e-15 1.18932e-14 0 0 3.01617e-15 -2.68672e-15 1.81155e-15 7.74186e-15 0 0 6.83892e-16 4.04547e-16 7.39999e-15 -3.46256e-15 0 0 -2.04038e-15 2.36393e-15 3.20167e-15 4.36077e-15 0 0 2.01657e-15 2.19881e-15 -1.75558e-15 6.54671e-15 0 0 1.97901e-15 5.45308e-15 -2.55562e-16 -2.10779e-16 0 0 6.63794e-16 4.34366e-15 4.13854e-15 -2.81377e-15 0 0 2.48431e-15 7.83377e-16 1.02713e-14 -6.95775e-15 0 0 4.52944e-15 6.11125e-16 4.76029e-15 -3.71343e-15 0 0 4.12151e-16 7.54612e-15 -6.89808e-15 2.24396e-16 0 0 -1.84918e-15 8.66181e-15 -1.08558e-14 2.90541e-15 0 0 1.73126e-15 7.37286e-15 -7.84476e-15 5.62278e-15 0 0 9.65174e-16 9.38079e-15 -3.24707e-15 8.49299e-15 0 0 1.01881e-15 -1.01536e-15 7.70084e-15 3.2435e-15 0 0 2.39615e-15 -3.00736e-15 5.97733e-15 -1.39047e-15 0 0 -1.25028e-15 6.85284e-15 -9.92848e-15 8.60571e-15 0 0 4.51369e-15 4.91779e-17 -4.54341e-15 3.05667e-15 0 0 1.90869e-15 7.19555e-15 -5.63845e-15 5.87294e-15 0 0 -5.48624e-15 1.8106e-14 -4.88862e-15 6.74163e-15 0 0 3.81273e-15 3.4092e-15 7.86098e-15 1.22806e-15 0 0 6.80766e-15 -2.59787e-15 5.2734e-15 5.74854e-15 0 0 2.94873e-15 -1.1947e-15 1.15868e-14 -8.85483e-15 0 0 -4.33023e-16 9.6898e-15 4.86157e-15 -8.79243e-15 0 0 -1.33538e-15 1.4221e-14 -3.43669e-15 -1.29603e-15 0 0 3.4718e-15 4.34343e-15 -3.64315e-15 4.35819e-15 0 0 -5.70619e-15 1.11372e-14 -6.92603e-15 8.48273e-15 0 0 2.7166e-15 -1.17009e-15 1.50794e-14 -9.56484e-15 0 0 -3.938e-15 1.41249e-14 1.3722e-14 -1.8023e-14 0 0 -6.44583e-15 2.32107e-14 3.30833e-15 -2.4515e-14 0 0 1.5923e-14 -4.60673e-15 6.61442e-15 -1.67929e-14 0 0 5.22764e-15 -6.13423e-15 4.17049e-15 6.09668e-15 0 0 5.84183e-15 -1.18414e-14 1.54181e-14 -5.22554e-15 0 0 6.49408e-15 -2.16095e-15 1.16175e-14 -1.30528e-14 0 0 2.19166e-15 7.12419e-15 3.65279e-16 -4.08276e-15 0 0 7.81684e-15 5.33027e-15 -2.98856e-15 -3.0011e-15 0 0 2.68255e-15 1.51448e-14 -3.53919e-15 -8.88465e-15 0 0 3.88195e-15 7.4973e-15 5.33589e-15 -1.06432e-14 0 0 -1.69622e-15 1.3721e-14 -2.77911e-15 4.94366e-15 0 0 -3.37211e-15 2.78011e-14 -9.62404e-15 2.19219e-14 0 0 5.32947e-15 1.52998e-14 2.23288e-15 3.633e-14 0 0 -1.23761e-14 1.1757e-14 9.81787e-15 2.91877e-14 0 0 -1.37217e-14 -1.53511e-15 2.94158e-14 3.10857e-15 0 0 -6.05495e-16 -5.28589e-15 1.70114e-14 1.23548e-14 0 0 3.20572e-15 2.91975e-15 7.89995e-15 1.52724e-14 0 0 -4.21701e-15 1.33988e-14 6.57241e-15 5.02325e-15 0 0 -1.27464e-14 1.1459e-14 -9.49131e-15 7.92e-15 0 0 -1.79795e-14 -1.63251e-14 1.00304e-14 4.55826e-15 0 0 -2.37948e-14 -1.96745e-14 2.48845e-14 -3.15363e-15 0 0 -1.18983e-14 7.34142e-15 -8.20427e-16 -2.18041e-14 0 0 -9.53352e-15 2.05936e-15 -3.76376e-15 -2.76498e-14 0 0 -1.94462e-14 -4.17273e-16 -1.60359e-15 -6.87705e-15 0 0 -9.90791e-15 1.92274e-15 -9.27017e-15 2.12313e-14 0 0 2.32504e-15 -2.75816e-14 4.67278e-15 2.13204e-14 0 0 -1.02349e-14 -1.57558e-14 1.70577e-15 5.89407e-15 0 0 2.1777e-15 5.20178e-15 -1.47174e-14 1.5159e-14 0 0 8.73537e-15 -1.941e-14 1.23688e-14 -1.01029e-14 0 0 -1.43556e-14 -2.96431e-14 2.14856e-14 -1.16066e-14 0 0 -1.6055e-14 -6.58084e-15 -1.33057e-14 1.55265e-14 0 0 -6.5412e-15 -4.94816e-15 1.72663e-14 -2.06828e-14 0 0 6.33495e-15 -1.51341e-14 1.76667e-14 -2.87938e-14 0 0 1.07479e-14 -2.10383e-14 -4.73942e-16 -1.48601e-14 0 0 -4.97585e-15 -1.3482e-14 3.6058e-15 -2.95918e-14 0 0 -6.56949e-15 1.71912e-15 4.38899e-16 -2.98201e-14 0 0 1.178e-14 2.85867e-15 -4.58609e-15 -1.45922e-15 0 0 1.36853e-14 4.85505e-15 -3.77901e-15 1.16183e-14 0 0 -7.41498e-15 -1.20139e-14 -8.5797e-15 3.57509e-16 0 0 -3.15885e-14 -6.80315e-14 -4.03201e-14 -2.92558e-14 0 0 -5.26435e-14 -9.7127e-14 -7.34483e-14 -6.63972e-14 0 0 -7.86134e-15 -1.71275e-14 -1.07823e-14 -1.946e-14 0 0 1.16301e-13 1.95907e-13 1.86793e-13 9.96618e-14 0 0 2.21717e-13 3.57124e-13 3.4791e-13 1.92683e-13 0 0 3.87646e-13 6.10401e-13 7.15927e-13 3.57074e-13 0 0 3.83252e-13 6.17699e-13 6.66218e-13 3.84499e-13 0 0 3.80419e-13 6.15975e-13 6.43077e-13 4.01036e-13 0 0 3.90435e-13 6.32598e-13 6.30334e-13 4.15904e-13 0 0 4.01298e-13 6.24117e-13 6.54729e-13 4.1617e-13 0 0 3.97057e-13 6.31394e-13 6.06606e-13 4.63591e-13 0 0 3.52879e-13 5.57119e-13 5.01847e-13 4.87463e-13 0 0 2.53727e-13 3.82851e-13 3.97543e-13 3.3315e-13 0 0 1.01746e-13 1.39576e-13 1.67788e-13 1.67276e-13 0 0 -5.40469e-14 -8.23421e-14 -1.0483e-13 5.29578e-14 0 0 -1.39565e-13 -2.13534e-13 -2.54929e-13 -6.67948e-14 0 0 -1.56435e-13 -2.85871e-13 -2.56036e-13 -1.43107e-13 0 0 -1.34146e-13 -2.80318e-13 -2.03492e-13 -1.64471e-13 0 0 -1.30058e-13 -1.54797e-13 -2.34473e-13 -5.30047e-14 0 0 -8.83362e-14 -7.18361e-14 -2.19261e-13 7.1386e-14 0 0 -1.46142e-14 -8.26568e-14 -7.14437e-14 9.2137e-14 0 0 -1.92964e-14 -4.35866e-15 -2.15647e-15 1.05333e-13 0 0 1.88556e-14 3.84616e-14 3.22657e-14 7.40774e-14 0 0 6.13406e-14 4.22903e-14 1.15782e-13 4.73801e-14 0 0 3.94066e-14 8.32175e-14 9.35415e-14 7.86015e-14 0 0 3.85756e-14 7.89569e-14 8.50253e-14 4.08028e-14 0 0 4.48608e-14 8.84877e-14 7.0232e-14 6.94611e-14 0 0 3.95019e-14 5.41027e-14 4.50214e-14 7.04325e-14 0 0 1.65996e-14 1.04632e-14 8.80475e-14 -5.43614e-14 0 0 -1.37004e-16 3.14055e-16 6.84102e-15 -5.25625e-14 0 0 -7.54684e-15 -2.83728e-14 -4.70523e-14 -2.46955e-15 0 0 -2.49053e-14 -1.56971e-14 -6.02208e-14 -1.75572e-14 0 0 -3.53359e-14 -3.0372e-14 -6.15682e-14 -4.52841e-14 0 0 -2.07363e-14 -4.4051e-14 -3.02923e-14 -1.41974e-14 0 0 -1.79803e-14 -7.1877e-15 -1.71634e-14 -6.61391e-15 0 0 -1.0039e-14 5.29602e-15 -2.73318e-14 -1.09098e-14 0 0 -7.00021e-15 -2.01964e-15 -1.66368e-14 1.46364e-14 0 0 -1.87301e-14 -2.5792e-15 5.81379e-15 1.97445e-14 0 0 -1.41512e-14 -1.22318e-14 1.89935e-14 1.43841e-14 0 0 -6.42302e-15 -2.1734e-14 2.78508e-14 1.3865e-14 0 0 -1.29445e-14 -2.47168e-14 2.76571e-14 1.81158e-14 0 0 -1.86252e-14 -1.27666e-14 1.24302e-14 2.07563e-14 0 0 -1.63904e-14 -8.41219e-15 1.68343e-14 5.03544e-14 0 0 -7.58975e-15 -2.24083e-14 2.88829e-14 4.86604e-14 0 0 -1.85688e-14 -9.6196e-15 3.3481e-14 3.85897e-15 0 0 -1.68705e-14 -1.05533e-14 4.61882e-14 2.82697e-14 0 0 9.92093e-15 -1.88333e-14 2.41876e-14 5.56489e-14 0 0 1.69118e-14 -3.50914e-15 8.44557e-15 5.2308e-14 0 0 -2.57537e-15 2.24596e-14 2.55276e-14 3.53324e-14 0 0 -3.38162e-15 2.48555e-14 5.90323e-14 1.24173e-15 0 0 8.55794e-15 2.394e-14 5.58847e-14 1.91011e-14 0 0 2.239e-14 1.02285e-14 6.20876e-14 2.12372e-14 0 0 1.20001e-14 3.71635e-14 7.22925e-14 -1.22361e-15 0 0 -2.33136e-14 9.25323e-14 3.31168e-14 1.11564e-14 0 0 -1.60617e-14 5.07684e-14 5.14288e-14 1.33177e-14 0 0 2.97226e-15 3.45637e-14 4.98383e-14 -3.56372e-15 0 0 5.7029e-16 5.87114e-14 1.08859e-14 5.50757e-15 0 0 8.38121e-15 5.54735e-14 5.03969e-15 3.31922e-14 0 0 1.4204e-14 4.35832e-14 4.51078e-14 2.03203e-14 0 0 1.58864e-14 2.59999e-14 6.66532e-14 -5.70305e-15 0 0 -8.59544e-15 3.70925e-14 5.96348e-14 -1.57498e-14 0 0 -5.31646e-14 7.78446e-14 2.2763e-14 1.00243e-14 0 0 -3.45962e-14 7.15446e-14 1.64385e-14 4.38465e-14 0 0 -3.08548e-14 8.05493e-14 4.44487e-14 4.49715e-14 0 0 -5.26931e-14 1.15129e-13 1.87291e-14 4.66924e-14 0 0 -7.55886e-14 1.22875e-13 -3.55386e-15 4.89585e-14 0 0 -3.81e-14 4.95233e-14 5.14044e-14 3.47242e-14 0 0 9.14739e-15 2.5746e-14 3.09592e-14 2.01353e-14 0 0 -1.33491e-14 9.4785e-14 -4.82058e-14 5.81473e-14 0 0 1.69029e-14 2.89453e-14 4.50363e-14 7.52428e-15 0 0 3.87616e-15 3.939e-14 4.43864e-14 1.57736e-14 0 0 -2.69783e-15 5.65395e-14 7.23429e-15 7.60357e-14 0 0 1.43959e-15 4.40173e-14 5.38005e-14 1.94422e-14 0 0 7.06419e-15 4.76549e-14 7.23774e-14 -1.59637e-14 0 0 -2.83788e-15 8.08251e-14 1.20313e-14 6.55617e-14 0 0 1.57824e-14 1.02352e-13 -3.27101e-14 1.24239e-13 0 0 6.43195e-14 7.04663e-14 3.84588e-15 3.99873e-14 0 0 5.15828e-14 9.60791e-14 2.96086e-15 2.1247e-14 0 0 4.42483e-14 8.31109e-14 -6.39701e-15 6.03345e-14 0 0 3.82325e-14 6.45424e-14 -1.01742e-15 6.04487e-14 0 0 5.157e-14 6.75621e-14 1.05682e-14 4.10748e-14 0 0 5.77781e-14 5.43934e-14 2.1201e-14 2.45765e-14 0 0 4.01358e-14 4.41449e-14 2.53592e-14 1.14732e-14 0 0 2.28325e-14 7.52747e-14 1.70018e-14 -2.738e-14 0 0 2.83745e-14 9.41948e-14 9.12953e-15 -2.28619e-14 0 0 4.49229e-14 6.26857e-14 4.54734e-14 1.91757e-14 0 0 3.2841e-14 8.26538e-14 5.47025e-14 8.06047e-16 0 0 -7.53789e-15 1.21786e-13 1.47732e-14 1.08305e-14 0 0 -1.66638e-15 5.83232e-14 9.97114e-14 -3.63272e-14 0 0 2.49364e-14 2.77322e-14 1.06624e-13 -5.71139e-14 0 0 2.03062e-14 4.46009e-14 5.66433e-14 -6.08811e-14 0 0 1.54084e-14 4.99572e-14 5.80989e-14 -1.08867e-13 0 0 3.29939e-14 3.96321e-14 3.8209e-14 -3.50775e-14 0 0 2.82873e-14 2.3867e-14 4.8028e-14 4.09559e-14 0 0 1.55092e-14 2.1396e-14 3.45009e-14 7.6211e-14 0 0 1.335e-14 2.817e-14 6.29308e-14 3.00877e-14 0 0 1.47403e-14 3.68697e-14 6.83045e-14 -2.72524e-14 0 0 2.51155e-14 3.23829e-14 5.80642e-15 1.27022e-14 0 0 2.32836e-14 1.8163e-14 1.06521e-14 5.1437e-14 0 0 1.51746e-14 5.57658e-15 3.56281e-14 4.40044e-14 0 0 7.84054e-15 8.65696e-15 2.53585e-14 2.15103e-14 0 0 3.77846e-15 1.12799e-14 1.48941e-14 2.17266e-14 0 0 -4.6111e-16 1.50469e-14 1.34934e-14 1.42737e-14 0 0 7.81491e-15 1.28608e-14 2.969e-14 -2.96996e-14 0 0 2.14846e-14 1.79732e-15 4.29048e-14 -5.45927e-14 0
				</DataArray>
				<DataArray Name="VitesseY" type="Float32" format="ascii">