<?xml version="1.0"?>
<VTKFile type="PolyData">
	<PolyData>
		<Piece NumberOfPoints="1206" NumberOfPolys="1000">
			<Points>
				<DataArray type="Float32" NumberOfComponents="3" format="ascii">
 0 0 0 0.02 0 0 0.04 0 0 0.06 0 0 0.08 0 0 0.1 0 0 0 0.005 0 0.02 0.005 0 0.04 0.005 0 0.06 0.005 0 0.08 0.005 0 0.1 0.005 0 0 0.01 0 0.02 0.01 0 0.04 0.01 0 0.06 0.01 0 0.08 0.01 0 0.1 0.01 0 0 0.015 0 0.02 0.015 0 0.04 0.015 0 0.06 0.015 0 0.08 0.015 0 0.1 0.015 0 0 0.02 0 0.02 0.02 0 0.04 0.02 0 0.06 0.02 0 0.08 0.02 0 0.1 0.02 0 0 0.025 0 0.02 0.025 0 0.04 0.025 0 0.06 0.025 0 0.08 0.025 0 0.1 0.025 0 0 0.03 0 0.02 0.03 0 0.04 0.03 0 0.06 0.03 0 0.08 0.03 0 0.1 0.03 0 0 0.035 0 0.02 0.035 0 0.04 0.035 0 0.06 0.035 0 0.08 0.035 0 0.1 0.035 0 0 0.04 0 0.02 0.04 0 0.04 0.04 0 0.06 0.04 0 0.08 0.04 0 0.1 0.04 0 0 0.045 0 0.02 0.045 0 0.04 0.045 0 0.06 0.045 0 0.08 0.045 0 0.1 0.045 0 0 0.05 0 0.02 0.05 0 0.04 0.05 0 0.06 0.05 0 0.08 0.05 0 0.1 0.05 0 0 0.055 0 0.02 0.055 0 0.04 0.055 0 0.06 0.055 0 0.08 0.055 0 0.1 0.055 0 0 0.06 0 0.02 0.06 0 0.04 0.06 0 0.06 0.06 0 0.08 0.06 0 0.1 0.06 0 0 0.065 0 0.02 0.065 0 0.04 0.065 0 0.06 0.065 0 0.08 0.065 0 0.1 0.065 0 0 0.07 0 0.02 0.07 0 0.04 0.07 0 0.06 0.07 0 0.08 0.07 0 0.1 0.07 0 0 0.075 0 0.02 0.075 0 0.04 0.075 0 0.06 0.075 0 0.08 0.075 0 0.1 0.075 0 0 0.08 0 0.02 0.08 0 0.04 0.08 0 0.06 0.08 0 0.08 0.08 0 0.1 0.08 0 0 0.085 0 0.02 0.085 0 0.04 0.085 0 0.06 0.085 0 0.08 0.085 0 0.1 0.085 0 0 0.09 0 0.02 0.09 0 0.04 0.09 0 0.06 0.09 0 0.08 0.09 0 0.1 0.09 0 0 0.095 0 0.02 0.095 0 0.04 0.095 0 0.06 0.095 0 0.08 0.095 0 0.1 0.095 0 0 0.1 0 0.02 0.1 0 0.04 0.1 0 0.06 0.1 0 0.08 0.1 0 0.1 0.1 0 0 0.105 0 0.02 0.105 0 0.04 0.105 0 0.06 0.105 0 0.08 0.105 0 0.1 0.105 0 0 0.11 0 0.02 0.11 0 0.04 0.11 0 0.06 0.11 0 0.08 0.11 0 0.1 0.11 0 0 0.115 0 0.02 0.115 0 0.04 0.115 0 0.06 0.115 0 0.08 0.115 0 0.1 0.115 0 0 0.12 0 0.02 0.12 0 0.04 0.12 0 0.06 0.12 0 0.08 0.12 0 0.1 0.12 0 0 0.125 0 0.02 0.125 0 0.04 0.125 0 0.06 0.125 0 0.08 0.125 0 0.1 0.125 0 0 0.13 0 0.02 0.13 0 0.04 0.13 0 0.06 0.13 0 0.08 0.13 0 0.1 0.13 0 0 0.135 0 0.02 0.135 0 0.04 0.135 0 0.06 0.135 0 0.08 0.135 0 0.1 0.135 0 0 0.14 0 0.02 0.14 0 0.04 0.14 0 0.06 0.14 0 0.08 0.14 0 0.1 0.14 0 0 0.145 0 0.02 0.145 0 0.04 0.145 0 0.06 0.145 0 0.08 0.145 0 0.1 0.145 0 0 0.15 0 0.02 0.15 0 0.04 0.15 0 0.06 0.15 0 0.08 0.15 0 0.1 0.15 0 0 0.155 0 0.02 0.155 0 0.04 0.155 0 0.06 0.155 0 0.08 0.155 0 0.1 0.155 0 0 0.16 0 0.02 0.16 0 0.04 0.16 0 0.06 0.16 0 0.08 0.16 0 0.1 0.16 0 0 0.165 0 0.02 0.165 0 0.04 0.165 0 0.06 0.165 0 0.08 0.165 0 0.1 0.165 0 0 0.17 0 0.02 0.17 0 0.04 0.17 0 0.06 0.17 0 0.08 0.17 0 0.1 0.17 0 0 0.175 0 0.02 0.175 0 0.04 0.175 0 0.06 0.175 0 0.08 0.175 0 0.1 0.175 0 0 0.18 0 0.02 0.18 0 0.04 0.18 0 0.06 0.18 0 0.08 0.18 0 0.1 0.18 0 0 0.185 0 0.02 0.185 0 0.04 0.185 0 0.06 0.185 0 0.08 0.185 0 0.1 0.185 0 0 0.19 0 0.02 0.19 0 0.04 0.19 0 0.06 0.19 0 0.08 0.19 0 0.1 0.19 0 0 0.195 0 0.02 0.195 0 0.04 0.195 0 0.06 0.195 0 0.08 0.195 0 0.1 0.195 0 0 0.2 0 0.02 0.2 0 0.04 0.2 0 0.06 0.2 0 0.08 0.2 0 0.1 0.2 0 0 0.205 0 0.02 0.205 0 0.04 0.205 0 0.06 0.205 0 0.08 0.205 0 0.1 0.205 0 0 0.21 0 0.02 0.21 0 0.04 0.21 0 0.06 0.21 0 0.08 0.21 0 0.1 0.21 0 0 0.215 0 0.02 0.215 0 0.04 0.215 0 0.06 0.215 0 0.08 0.215 0 0.1 0.215 0 0 0.22 0 0.02 0.22 0 0.04 0.22 0 0.06 0.22 0 0.08 0.22 0 0.1 0.22 0 0 0.225 0 0.02 0.225 0 0.04 0.225 0 0.06 0.225 0 0.08 0.225 0 0.1 0.225 0 0 0.23 0 0.02 0.23 0 0.04 0.23 0 0.06 0.23 0 0.08 0.23 0 0.1 0.23 0 0 0.235 0 0.02 0.235 0 0.04 0.235 0 0.06 0.235 0 0.08 0.235 0 0.1 0.235 0 0 0.24 0 0.02 0.24 0 0.04 0.24 0 0.06 0.24 0 0.08 0.24 0 0.1 0.24 0 0 0.245 0 0.02 0.245 0 0.04 0.245 0 0.06 0.245 0 0.08 0.245 0 0.1 0.245 0 0 0.25 0 0.02 0.25 0 0.04 0.25 0 0.06 0.25 0 0.08 0.25 0 0.1 0.25 0 0 0.255 0 0.02 0.255 0 0.04 0.255 0 0.06 0.255 0 0.08 0.255 0 0.1 0.255 0 0 0.26 0 0.02 0.26 0 0.04 0.26 0 0.06 0.26 0 0.08 0.26 0 0.1 0.26 0 0 0.265 0 0.02 0.265 0 0.04 0.265 0 0.06 0.265 0 0.08 0.265 0 0.1 0.265 0 0 0.27 0 0.02 0.27 0 0.04 0.27 0 0.06 0.27 0 0.08 0.27 0 0.1 0.27 0 0 0.275 0 0.02 0.275 0 0.04 0.275 0 0.06 0.275 0 0.08 0.275 0 0.1 0.275 0 0 0.28 0 0.02 0.28 0 0.04 0.28 0 0.06 0.28 0 0.08 0.28 0 0.1 0.28 0 0 0.285 0 0.02 0.285 0 0.04 0.285 0 0.06 0.285 0 0.08 0.285 0 0.1 0.285 0 0 0.29 0 0.02 0.29 0 0.04 0.29 0 0.06 0.29 0 0.08 0.29 0 0.1 0.29 0 0 0.295 0 0.02 0.295 0 0.04 0.295 0 0.06 0.295 0 0.08 0.295 0 0.1 0.295 0 0 0.3 0 0.02 0.3 0 0.04 0.3 0 0.06 0.3 0 0.08 0.3 0 0.1 0.3 0 0 0.305 0 0.02 0.305 0 0.04 0.305 0 0.06 0.305 0 0.08 0.305 0 0.1 0.305 0 0 0.31 0 0.02 0.31 0 0.04 0.31 0 0.06 0.31 0 0.08 0.31 0 0.1 0.31 0 0 0.315 0 0.02 0.315 0 0.04 0.315 0 0.06 0.315 0 0.08 0.315 0 0.1 0.315 0 0 0.32 0 0.02 0.32 0 0.04 0.32 0 0.06 0.32 0 0.08 0.32 0 0.1 0.32 0 0 0.325 0 0.02 0.325 0 0.04 0.325 0 0.06 0.325 0 0.08 0.325 0 0.1 0.325 0 0 0.330002 0 0.02 0.330002 0 0.04 0.330002 0 0.06 0.330002 0 0.08 0.330002 0 0.1 0.330002 0 0 0.335006 0 0.02 0.335006 0 0.04 0.335006 0 0.06 0.335006 0 0.08 0.335006 0 0.1 0.335006 0 0 0.340017 0 0.02 0.340017 0 0.04 0.340017 0 0.06 0.340017 0 0.08 0.340017 0 0.1 0.340017 0 0 0.345046 0 0.02 0.345046 0 0.04 0.345046 0 0.06 0.345046 0 0.08 0.345046 0 0.1 0.345046 0 0 0.35011 0 0.02 0.35011 0 0.04 0.35011 0 0.06 0.35011 0 0.08 0.35011 0 0.1 0.35011 0 0 0.355233 0 0.02 0.355233 0 0.04 0.355233 0 0.06 0.355233 0 0.08 0.355233 0 0.1 0.355233 0 0 0.360444 0 0.02 0.360444 0 0.04 0.360444 0 0.06 0.360444 0 0.08 0.360444 0 0.1 0.360444 0 0 0.365771 0 0.02 0.365771 0 0.04 0.365771 0 0.06 0.365771 0 0.08 0.365771 0 0.1 0.365771 0 0 0.371237 0 0.02 0.371237 0 0.04 0.371237 0 0.06 0.371237 0 0.08 0.371237 0 0.1 0.371237 0 0 0.376861 0 0.02 0.376861 0 0.04 0.376861 0 0.06 0.376861 0 0.08 0.376861 0 0.1 0.376861 0 0 0.382661 0 0.02 0.382661 0 0.04 0.382661 0 0.06 0.382661 0 0.08 0.382661 0 0.1 0.382661 0 0 0.388653 0 0.02 0.388653 0 0.04 0.388653 0 0.06 0.388653 0 0.08 0.388653 0 0.1 0.388653 0 0 0.394855 0 0.02 0.394855 0 0.04 0.394855 0 0.06 0.394855 0 0.08 0.394855 0 0.1 0.394855 0 0 0.401286 0 0.02 0.401286 0 0.04 0.401286 0 0.06 0.401286 0 0.08 0.401286 0 0.1 0.401286 0 0 0.407965 0 0.02 0.407965 0 0.04 0.407965 0 0.06 0.407965 0 0.08 0.407965 0 0.1 0.407965 0 0 0.414917 0 0.02 0.414917 0 0.04 0.414917 0 0.06 0.414917 0 0.08 0.414917 0 0.1 0.414917 0 0 0.422168 0 0.02 0.422168 0 0.04 0.422168 0 0.06 0.422168 0 0.08 0.422168 0 0.1 0.422168 0 0 0.429747 0 0.02 0.429747 0 0.04 0.429747 0 0.06 0.429747 0 0.08 0.429747 0 0.1 0.429747 0 0 0.43769 0 0.02 0.43769 0 0.04 0.43769 0 0.06 0.43769 0 0.08 0.43769 0 0.1 0.43769 0 0 0.446035 0 0.02 0.446035 0 0.04 0.446035 0 0.06 0.446035 0 0.08 0.446035 0 0.1 0.446035 0 0 0.454828 0 0.02 0.454828 0 0.04 0.454828 0 0.06 0.454828 0 0.08 0.454828 0 0.1 0.454828 0 0 0.464122 0 0.02 0.464122 0 0.04 0.464122 0 0.06 0.464122 0 0.08 0.464122 0 0.1 0.464122 0 0 0.473976 0 0.02 0.473976 0 0.04 0.473976 0 0.06 0.473976 0 0.08 0.473976 0 0.1 0.473976 0 0 0.48445 0 0.02 0.48445 0 0.04 0.48445 0 0.06 0.48445 0 0.08 0.48445 0 0.1 0.48445 0 0 0.495594 0 0.02 0.495594 0 0.04 0.495594 0 0.06 0.495594 0 0.08 0.495594 0 0.1 0.495594 0 0 0.507394 0 0.02 0.507394 0 0.04 0.507394 0 0.06 0.507394 0 0.08 0.507394 0 0.1 0.507394 0 0 0.51961 0 0.02 0.51961 0 0.04 0.51961 0 0.06 0.51961 0 0.08 0.51961 0 0.1 0.51961 0 0 0.531769 0 0.02 0.531769 0 0.04 0.531769 0 0.06 0.531769 0 0.08 0.531769 0 0.1 0.531769 0 0 0.543785 0 0.02 0.543785 0 0.04 0.543785 0 0.06 0.543785 0 0.08 0.543785 0 0.1 0.543785 0 0 0.555673 0 0.02 0.555673 0 0.04 0.555673 0 0.06 0.555673 0 0.08 0.555673 0 0.1 0.555673 0 0 0.56748 0 0.02 0.56748 0 0.04 0.56748 0 0.06 0.56748 0 0.08 0.56748 0 0.1 0.56748 0 0 0.579246 0 0.02 0.579246 0 0.04 0.579246 0 0.06 0.579246 0 0.08 0.579246 0 0.1 0.579246 0 0 0.590997 0 0.02 0.590997 0 0.04 0.590997 0 0.06 0.590997 0 0.08 0.590997 0 0.1 0.590997 0 0 0.602742 0 0.02 0.602742 0 0.04 0.602742 0 0.06 0.602742 0 0.08 0.602742 0 0.1 0.602742 0 0 0.614499 0 0.02 0.614499 0 0.04 0.614499 0 0.06 0.614499 0 0.08 0.614499 0 0.1 0.614499 0 0 0.617113 0 0.02 0.617113 0 0.04 0.617113 0 0.06 0.617113 0 0.08 0.617113 0 0.1 0.617113 0 0 0.619654 0 0.02 0.619654 0 0.04 0.619654 0 0.06 0.619654 0 0.08 0.619654 0 0.1 0.619654 0 0 0.622148 0 0.02 0.622148 0 0.04 0.622148 0 0.06 0.622148 0 0.08 0.622148 0 0.1 0.622148 0 0 0.62461 0 0.02 0.62461 0 0.04 0.62461 0 0.06 0.62461 0 0.08 0.62461 0 0.1 0.62461 0 0 0.627051 0 0.02 0.627051 0 0.04 0.627051 0 0.06 0.627051 0 0.08 0.627051 0 0.1 0.627051 0 0 0.629474 0 0.02 0.629474 0 0.04 0.629474 0 0.06 0.629474 0 0.08 0.629474 0 0.1 0.629474 0 0 0.631884 0 0.02 0.631884 0 0.04 0.631884 0 0.06 0.631884 0 0.08 0.631884 0 0.1 0.631884 0 0 0.634285 0 0.02 0.634285 0 0.04 0.634285 0 0.06 0.634285 0 0.08 0.634285 0 0.1 0.634285 0 0 0.636679 0 0.02 0.636679 0 0.04 0.636679 0 0.06 0.636679 0 0.08 0.636679 0 0.1 0.636679 0 0 0.639067 0 0.02 0.639067 0 0.04 0.639067 0 0.06 0.639067 0 0.08 0.639067 0 0.1 0.639067 0 0 0.641449 0 0.02 0.641449 0 0.04 0.641449 0 0.06 0.641449 0 0.08 0.641449 0 0.1 0.641449 0 0 0.643826 0 0.02 0.643826 0 0.04 0.643826 0 0.06 0.643826 0 0.08 0.643826 0 0.1 0.643826 0 0 0.646199 0 0.02 0.646199 0 0.04 0.646199 0 0.06 0.646199 0 0.08 0.646199 0 0.1 0.646199 0 0 0.64857 0 0.02 0.64857 0 0.04 0.64857 0 0.06 0.64857 0 0.08 0.64857 0 0.1 0.64857 0 0 0.650938 0 0.02 0.650938 0 0.04 0.650938 0 0.06 0.650938 0 0.08 0.650938 0 0.1 0.650938 0 0 0.653303 0 0.02 0.653303 0 0.04 0.653303 0 0.06 0.653303 0 0.08 0.653303 0 0.1 0.653303 0 0 0.655666 0 0.02 0.655666 0 0.04 0.655666 0 0.06 0.655666 0 0.08 0.655666 0 0.1 0.655666 0 0 0.658028 0 0.02 0.658028 0 0.04 0.658028 0 0.06 0.658028 0 0.08 0.658028 0 0.1 0.658028 0 0 0.66039 0 0.02 0.66039 0 0.04 0.66039 0 0.06 0.66039 0 0.08 0.66039 0 0.1 0.66039 0 0 0.662752 0 0.02 0.662752 0 0.04 0.662752 0 0.06 0.662752 0 0.08 0.662752 0 0.1 0.662752 0 0 0.665113 0 0.02 0.665113 0 0.04 0.665113 0 0.06 0.665113 0 0.08 0.665113 0 0.1 0.665113 0 0 0.667472 0 0.02 0.667472 0 0.04 0.667472 0 0.06 0
[...]
			<PointData Scalars="VitesseX">
				<DataArray Name="VitesseX" type="Float32" format="ascii">
 0 2.47516e-15 8.36119e-16 1.76059e-15 -2.97073e-15 0 0 2.00622e-15 1.70406e-15 8.3643e-16 -1.87443e-15 0 0 1.55342e-15 2.47941e-15 1.98314e-16 -1.67125e-16 0 0 1.93291e-15 1.79091e-15 9.35445e-16 4.61517e-16 0 0 1.27571e-15 2.2894e-15 1.50389e-15 3.2671e-16 0 0 3.48425e-16 2.99549e-15 3.40086e-15 -3.08345e-16 0 0 8.42632e-16 2.6025e-15 4.18664e-15 1.02387e-15 0 0 1.07139e-15 3.00115e-15 2.59634e-15 3.17749e-15 0 0 1.62554e-15 2.48581e-15 2.89684e-15 2.72044e-15 0 0 3.6496e-15 -8.45666e-16 5.45718e-15 2.40145e-15 0 0 2.29866e-15 1.23452e-16 2.7078e-15 6.97645e-15 0 0 -8.49917e-16 4.07078e-15 -1.75528e-15 9.31515e-15 0 0 1.10284e-15 2.43927e-15 7.41743e-16 4.94609e-15 0 0 2.66213e-15 1.44847e-15 3.44989e-15 6.84845e-16 0 0 -1.30556e-16 7.19709e-15 2.02098e-15 -1.23389e-15 0 0 1.5723e-15 8.98375e-15 -4.66735e-16 -2.65387e-15 0 0 6.6402e-15 -1.19237e-15 5.74354e-15 -4.65232e-15 0 0 2.52836e-15 -3.54125e-16 6.14957e-15 -4.73453e-17 0 0 3.24727e-16 3.96311e-15 1.36256e-15 3.90275e-15 0 0 5.96682e-16 3.63369e-15 1.31505e-15 3.94733e-16 0 0 3.1494e-15 2.18802e-15 4.57272e-15 -8.45554e-15 0 0 4.30646e-15 4.76832e-15 4.92225e-15 -1.46581e-14 0 0 3.62735e-15 9.68629e-15 -7.04568e-16 -1.16864e-14 0 0 6.32116e-15 4.4457e-15 2.55047e-15 -9.8781e-15 0 0 4.03193e-15 3.36704e-15 3.9886e-15 -5.95755e-15 0 0 3.87077e-15 2.4441e-15 3.15508e-15 5.10609e-15 0 0 3.37165e-15 3.94436e-15 -1.27993e-15 6.92998e-15 0 0 5.24309e-15 -2.35974e-15 1.212e-15 -4.14009e-16 0 0 3.94882e-15 -5.46689e-16 -7.00887e-16 -1.42578e-15 0 0 -1.9061e-15 5.11117e-15 -6.97854e-15 -9.26967e-16 0 0 -1.64675e-15 -4.19484e-15 1.66581e-15 -2.32995e-15 0 0 -8.08948e-16 -2.19436e-15 4.80764e-15 -4.30817e-15 0 0 -1.75136e-15 3.60004e-15 4.32498e-15 -6.13689e-15 0 0 -3.8201e-15 3.79979e-15 1.01658e-14 -1.33761e-14 0 0 -6.96398e-15 5.00276e-15 9.25829e-15 -1.31651e-14 0 0 -3.33575e-15 1.38023e-16 2.30906e-15 3.92345e-16 0 0 -5.4851e-15 2.18263e-15 -3.5065e-15 2.62978e-16 0 0 -1.16747e-15 1.25112e-17 -5.95834e-15 -7.12321e-15 0 0 5.31952e-15 -5.90978e-15 -2.52155e-15 -6.76462e-15 0 0 6.67224e-16 4.1451e-15 -6.76588e-15 -3.42341e-15 0 0 -1.91988e-15 9.21199e-15 -7.23494e-15 -3.10722e-16 0 0 3.77388e-15 1.46231e-15 -1.73902e-15 -4.10541e-15 0 0 5.51293e-15 -5.91663e-15 3.21977e-15 -1.88173e-14 0 0 2.28087e-15 5.32944e-16 -2.07365e-15 -1.26305e-14 0 0 7.84999e-15 1.19522e-14 -2.25005e-14 1.35652e-14 0 0 2.27074e-15 1.85162e-14 -3.08459e-14 3.52996e-14 0 0 1.33373e-15 1.17053e-14 -1.22177e-14 2.50374e-14 0 0 -1.84065e-15 1.06492e-14 2.35514e-15 7.05046e-15 0 0 -3.91252e-16 4.79336e-15 5.72887e-15 3.605e-15 0 0 4.40283e-15 3.85397e-15 5.90533e-15 -3.42362e-15 0 0 8.67983e-15 1.11263e-15 8.80927e-15 -5.63327e-15 0 0 3.26265e-15 1.75348e-15 1.01981e-14 1.34247e-14 0 0 -1.56444e-14 1.3317e-14 1.64498e-14 2.00199e-14 0 0 7.9832e-16 -4.35083e-15 2.51007e-14 1.97886e-14 0 0 2.31936e-14 -6.81537e-15 1.46628e-14 2.1173e-14 0 0 1.60192e-14 1.00979e-14 3.11796e-15 1.25358e-14 0 0 -4.17544e-15 3.36874e-15 1.96205e-14 -1.42437e-15 0 0 -4.52532e-15 6.71273e-15 1.41745e-14 -8.45631e-17 0 0 -1.55243e-15 1.10871e-14 9.70276e-15 5.42881e-15 0 0 -1.04309e-14 -5.66581e-15 3.08543e-14 -2.13208e-14 0 0 -1.72703e-14 -7.34531e-15 1.86954e-14 -3.14545e-14 0 0 -1.16615e-15 -1.18154e-14 5.05843e-15 -2.81511e-14 0 0 -3.77665e-15 -5.51179e-15 1.41843e-15 -1.9775e-14 0 0 -1.81282e-14 2.61974e-15 2.10893e-15 -1.149e-14 0 0 -3.08578e-15 -5.77306e-15 4.78053e-15 -8.78797e-15 0 0 -4.73326e-15 -5.8567e-15 -1.05613e-14 -2.9449e-16 0 0 -4.90761e-15 -1.4521e-14 -2.91666e-14 1.37781e-14 0 0 -9.1914e-16 -1.31327e-14 -2.66046e-14 1.72254e-14 0 0 -7.7444e-15 1.49817e-14 -3.70439e-14 8.6788e-15 0 0 -7.13903e-15 1.94686e-14 -4.08918e-14 -1.65456e-15 0 0 -2.70229e-15 9.36199e-15 -1.9229e-14 -1.49247e-14 0 0 -1.24773e-15 -5.46413e-15 8.36266e-16 -1.35893e-14 0 0 -9.10151e-15 -1.58022e-14 2.01676e-15 1.55227e-15 0 0 -1.113e-14 8.9244e-16 -1.15304e-14 -6.13061e-15 0 0 -1.58472e-14 5.57274e-15 -1.46175e-14 -8.68222e-16 0 0 -2.04369e-15 -8.14689e-15 -9.27295e-15 1.92969e-14 0 0 2.28483e-14 6.31267e-15 -2.07736e-14 -2.39669e-15 0 0 -6.62505e-15 -6.47373e-16 -2.63504e-15 -4.52421e-14 0 0 -3.47436e-14 -8.38561e-15 1.43623e-14 -2.34555e-14 0 0 -1.37562e-16 -1.50613e-14 1.44735e-15 -3.18575e-15 0 0 -7.43284e-15 -1.23737e-14 9.8947e-15 -1.66071e-14 0 0 2.79838e-15 -1.38552e-14 -8.51558e-16 6.54459e-17 0 0 3.70352e-14 -2.98438e-14 -6.36808e-15 5.10658e-15 0 0 2.17532e-14 -1.9525e-14 -9.03419e-15 1.72409e-14 0 0 -1.52488e-14 -2.56015e-15 1.50058e-15 -2.81672e-15 0 0 -6.01135e-16 -2.99252e-15 -7.46923e-15 -1.3857e-14 0 0 1.70752e-14 -1.27045e-14 -1.45032e-14 -1.10957e-14 0 0 1.28751e-14 6.40538e-15 -5.89324e-15 -2.29104e-14 0 0 -9.24381e-16 2.41219e-14 6.34329e-15 -2.08532e-14 0 0 1.68816e-14 -1.76522e-14 2.7091e-14 -3.51032e-14 0 0 2.57248e-14 -2.35188e-14 1.4908e-14 -7.85008e-15 0 0 -2.53993e-14 -7.00815e-15 -6.37923e-15 3.17101e-15 0 0 -2.11652e-14 -2.47479e-14 1.14164e-14 -1.58734e-15 0 0 4.10786e-15 -5.34995e-15 1.82976e-14 2.37271e-14 0 0 3.07333e-14 4.28842e-14 4.43195e-14 4.38858e-14 0 0 5.74394e-14 9.74975e-14 1.02444e-13 6.13586e-14 0 0 8.25546e-14 1.37376e-13 1.40701e-13 9.12552e-14 0 0 8.94331e-14 1.41798e-13 1.57748e-13 7.70165e-14 0 0 7.76225e-14 1.17029e-13 1.29842e-13 7.13656e-14 0 0 5.99521e-14 9.62119e-14 9.71805e-14 6.20853e-14 0 0 7.47355e-14 9.4774e-14 8.72422e-14 5.69715e-14 0 0 1.43403e-13 1.56207e-13 1.70823e-13 8.52835e-14 0 0 1.33457e-13 1.63995e-13 1.71697e-13 1.06634e-13 0 0 1.31895e-13 1.96072e-13 1.70124e-13 1.02664e-13 0 0 1.25073e-13 2.31603e-13 1.74324e-13 1.17139e-13 0 0 1.38062e-13 2.33216e-13 2.16252e-13 9.65856e-14 0 0 1.4393e-13 2.13457e-13 2.59421e-13 8.07138e-14 0 0 1.08843e-13 1.61373e-13 1.78971e-13 9.48963e-14 0 0 5.21545e-14 1.09597e-14 -1.43141e-15 1.0625e-14 0 0 -8.49338e-14 -2.01165e-13 -2.21623e-13 -1.29762e-13 0 0 -2.41423e-13 -4.14187e-13 -4.81069e-13 -2.45079e-13 0 0 -3.17421e-13 -5.46648e-13 -6.19371e-13 -3.1271e-13 0 0 -3.65847e-13 -5.43322e-13 -6.31349e-13 -3.10618e-13 0 0 -3.37699e-13 -5.00901e-13 -6.23632e-13 -2.74834e-13 0 0 -2.65303e-13 -4.09116e-13 -5.23166e-13 -2.53887e-13 0 0 -2.15102e-13 -3.08226e-13 -3.94166e-13 -2.36375e-13 0 0 -1.63539e-13 -2.70545e-13 -2.62474e-13 -1.70875e-13 0 0 -1.18386e-13 -2.05598e-13 -1.72874e-13 -1.15983e-13 0 0 -9.5754e-14 -1.03247e-13 -1.45862e-13 -7.48581e-14 0 0 -7.05395e-14 -3.59614e-14 -9.27668e-14 4.62974e-16 0 0 -2.13337e-14 -1.35662e-14 -2.41662e-14 6.97102e-14 0 0 2.07703e-15 3.31623e-15 2.62952e-14 3.48749e-15 0 0 2.62903e-14 4.84919e-14 7.13919e-14 -2.36311e-14 0 0 3.9268e-14 9.4142e-14 9.10329e-14 5.47705e-14 0 0 4.64596e-14 1.13532e-13 1.52478e-13 4.49239e-14 0 0 8.55391e-14 1.17013e-13 1.9859e-13 7.32677e-14 0 0 1.129e-13 1.52297e-13 2.12125e-13 9.51769e-14 0 0 1.2035e-13 2.09008e-13 2.47207e-13 9.0096e-14 0 0 1.17159e-13 2.28232e-13 2.73966e-13 9.22629e-14 0 0 1.50726e-13 2.35687e-13 2.85066e-13 1.43054e-13 0 0 1.58448e-13 2.43334e-13 3.1644e-13 2.09312e-13 0 0 1.39041e-13 3.13399e-13 2.97006e-13 2.14489e-13 0 0 1.62664e-13 3.19324e-13 2.71541e-13 2.47137e-13 0 0 2.3196e-13 2.51178e-13 3.21619e-13 2.36797e-13 0 0 2.55215e-13 2.33844e-13 3.36042e-13 2.9469e-13 0 0 2.33908e-13 2.77482e-13 2.80403e-13 3.58176e-13 0 0 2.02487e-13 3.6447e-13 1.95551e-13 3.6247e-13 0 0 1.67729e-13 3.96905e-13 2.32546e-13 3.74507e-13 0 0 1.89338e-13 3.46839e-13 3.27501e-13 2.76923e-13 0 0 1.9899e-13 2.86517e-13 2.27467e-13 2.12084e-13 0 0 1.86961e-13 2.68027e-13 2.1269e-13 2.53621e-13 0 0 1.51004e-13 2.73887e-13 2.44226e-13 1.86057e-13 0 0 1.23559e-13 2.13219e-13 2.57137e-13 1.11596e-13 0 0 1.34667e-13 1.40697e-13 2.18146e-13 7.52585e-14 0 0 9.84186e-14 1.41877e-13 1.01777e-13 4.69544e-14 0 0 5.00601e-14 7.46528e-14 9.16636e-14 1.533e-14 0 0 1.937e-14 -1.88276e-15 8.17109e-14 -1.93755e-14 0 0 8.33813e-15 -4.67158e-16 2.71734e-15 -9.22389e-15 0 0 -8.11053e-15 -1.16573e-14 -7.63867e-15 -9.07457e-15 0 0 -2.44565e-14 -2.97154e-15 -3.0027e-14 -2.5089e-14 0 0 -2.70919e-14 -1.05179e-14 -3.60211e-14 -1.2029e-14 0 0 -1.47862e-14 -2.74509e-14 -4.49185e-14 3.45331e-15 0 0 -7.34978e-15 -9.64001e-15 -7.20186e-14 -5.31681e-15 0 0 -1.43668e-14 -5.15278e-15 -5.201e-14 -3.08437e-14 0 0 -1.52722e-14 -2.09809e-14 -3.41382e-14 -2.30575e-14 0 0 -1.38578e-14 -1.92101e-14 -3.36387e-14 -3.12397e-14 0 0 -9.84838e-15 -3.00469e-14 -2.71401e-14 -3.91061e-15 0 0 -1.63928e-14 -3.01568e-14 -2.47636e-14 1.87146e-15 0 0 -2.81251e-14 -2.22759e-14 -2.44412e-14 -2.29817e-14 0 0 -2.63243e-14 -2.20242e-14 -2.93024e-14 2.45606e-14 0 0 -9.40914e-15 -3.58618e-14 -2.4117e-14 4.8911e-14 0 0 -6.92245e-15 -4.88064e-14 -8.1731e-15 4.11902e-14 0 0 -1.5206e-14 -4.13875e-14 -1.46723e-14 2.18274e-14 0 0 -1.56124e-14 -2.89259e-14 -4.87286e-14 7.38775e-14 0 0 2.73784e-15 -5.23502e-14 -7.32965e-15 4.04744e-14 0 0 2.74663e-14 -8.46117e-14 4.75186e-14 -4.03048e-14 0 0 -1.30422e-14 -1.95967e-14 -2.28151e-14 1.74869e-14 0 0 -5.44916e-14 3.44645e-14 -6.26676e-14 7.79029e-14 0 0 -2.86256e-14 2.06625e-14 8.71675e-16 7.58677e-14 0 0 -1.24438e-14 3.86072e-15 1.31937e-14 1.32855e-13 0 0 -3.68032e-14 4.93965e-14 -1.6858e-14 1.20151e-13 0 0 4.51008e-15 1.34651e-14 5.01921e-14 -3.82082e-14 0 0 1.82595e-14 -2.89353e-14 5.50423e-14 -6.76984e-14 0 0 -3.64213e-14 -2.39912e-14 4.72712e-14 -3.99327e-14 0 0 -2.23294e-14 -7.92113e-14 8.58955e-14 -2.07683e-14 0 0 -8.17628e-15 -6.18424e-14 3.60385e-14 4.62285e-16 0 0 -2.73329e-14 -3.93809e-14 1.42129e-14 -1.0955e-14 0 0 -2.85895e-14 -6.91695e-14 2.61205e-14 -5.06772e-15 0 0 -5.90617e-14 -4.04938e-14 2.54078e-14 -3.50636e-14 0 0 -8.09892e-14 3.67673e-16 2.14896e-14 -5.6412e-14 0 0 -4.46229e-14 -1.73217e-14 5.19005e-14 -6.67242e-14 0 0 -2.44775e-14 -4.9172e-14 8.12213e-14 -5.78216e-14 0 0 -6.59584e-14 -4.78089e-14 5.73338e-14 1.07198e-14 0 0 -2.58006e-14 -1.10223e-13 8.45682e-14 5.16406e-14 0 0 3.82724e-14 -1.44263e-13 1.30369e-13 -1.33525e-14 0 0 -9.76112e-15 -6.48283e-14 1.32627e-13 -5.61452e-14 0 0 -3.57553e-14 -2.32736e-15 5.91192e-14 -2.90318e-14 0 0 -7.48244e-15 -7.95173e-15 -1.09673e-14 -2.78214e-14 0 0 1.2045e-14 -1.78292e-14 -3.24133e-14 -1.31536e-14 0 0 4.20752e-15 5.95213e-15 -6.6378e-14 2.82498e-14 0 0 -3.37887e-14 2.46077e-14 -6.76684e-14 6.94651e-14 0 0 -3.18415e-14 7.25415e-15 -4.30289e-14 7.45046e-14 0 0 -1.71624e-15 1.55067e-14 -5.41787e-14 5.97998e-14 0 0 -4.58772e-15 7.05379e-14 -8.10234e-14 9.35567e-14 0 0 2.19621e-14 4.20745e-14 -3.8523e-14 7.68507e-14 0 0 3.93777e-14 1.38159e-14 1.55093e-14 1.97247e-14 0 0 2.68974e-14 5.36065e-14 -2.84308e-15 2.2634e-14 0 0 3.21207e-14 6.68309e-14 -2.22138e-14 4.22795e-14 0 0 2.92228e-14 5.99193e-14 1.10947e-14 3.84747e-14 0 0 3.3847e-14 4.86058e-14 3.79519e-14 3.51595e-14 0 0 4.83737e-14 3.31334e-14 3.47718e-14 5.27277e-14 0
				</DataArray>
				<DataArray Name="VitesseY" type="Float32" format="ascii">