<?xml version="1.0"?>
<VTKFile type="PolyData">
	<PolyData>
		<Piece NumberOfPoints="1206" NumberOfPolys="1000">
			<Points>
				<DataArray type="Float32" NumberOfComponents="3" format="ascii">
 0 0 0 0.02 0 0 0.04 0 0 0.06 0 0 0.08 0 0 0.1 0 0 0 0.005 0 0.02 0.005 0 0.04 0.005 0 0.06 0.005 0 0.08 0.005 0 0.1 0.005 0 0 0.01 0 0.02 0.01 0 0.04 0.01 0 0.06 0.01 0 0.08 0.01 0 0.1 0.01 0 0 0.015 0 0.02 0.015 0 0.04 0.015 0 0.06 0.015 0 0.08 0.015 0 0.1 0.015 0 0 0.02 0 0.02 0.02 0 0.04 0.02 0 0.06 0.02 0 0.08 0.02 0 0.1 0.02 0 0 0.025 0 0.02 0.025 0 0.04 0.025 0 0.06 0.025 0 0.08 0.025 0 0.1 0.025 0 0 0.03 0 0.02 0.03 0 0.04 0.03 0 0.06 0.03 0 0.08 0.03 0 0.1 0.03 0 0 0.035 0 0.02 0.035 0 0.04 0.035 0 0.06 0.035 0 0.08 0.035 0 0.1 0.035 0 0 0.04 0 0.02 0.04 0 0.04 0.04 0 0.06 0.04 0 0.08 0.04 0 0.1 0.04 0 0 0.045 0 0.02 0.045 0 0.04 0.045 0 0.06 0.045 0 0.08 0.045 0 0.1 0.045 0 0 0.05 0 0.02 0.05 0 0.04 0.05 0 0.06 0.05 0 0.08 0.05 0 0.1 0.05 0 0 0.055 0 0.02 0.055 0 0.04 0.055 0 0.06 0.055 0 0.08 0.055 0 0.1 0.055 0 0 0.06 0 0.02 0.06 0 0.04 0.06 0 0.06 0.06 0 0.08 0.06 0 0.1 0.06 0 0 0.065 0 0.02 0.065 0 0.04 0.065 0 0.06 0.065 0 0.08 0.065 0 0.1 0.065 0 0 0.07 0 0.02 0.07 0 0.04 0.07 0 0.06 0.07 0 0.08 0.07 0 0.1 0.07 0 0 0.075 0 0.02 0.075 0 0.04 0.075 0 0.06 0.075 0 0.08 0.075 0 0.1 0.075 0 0 0.08 0 0.02 0.08 0 0.04 0.08 0 0.06 0.08 0 0.08 0.08 0 0.1 0.08 0 0 0.085 0 0.02 0.085 0 0.04 0.085 0 0.06 0.085 0 0.08 0.085 0 0.1 0.085 0 0 0.09 0 0.02 0.09 0 0.04 0.09 0 0.06 0.09 0 0.08 0.09 0 0.1 0.09 0 0 0.095 0 0.02 0.095 0 0.04 0.095 0 0.06 0.095 0 0.08 0.095 0 0.1 0.095 0 0 0.1 0 0.02 0.1 0 0.04 0.1 0 0.06 0.1 0 0.08 0.1 0 0.1 0.1 0 0 0.105 0 0.02 0.105 0 0.04 0.105 0 0.06 0.105 0 0.08 0.105 0 0.1 0.105 0 0 0.11 0 0.02 0.11 0 0.04 0.11 0 0.06 0.11 0 0.08 0.11 0 0.1 0.11 0 0 0.115 0 0.02 0.115 0 0.04 0.115 0 0.06 0.115 0 0.08 0.115 0 0.1 0.115 0 0 0.12 0 0.02 0.12 0 0.04 0.12 0 0.06 0.12 0 0.08 0.12 0 0.1 0.12 0 0 0.125 0 0.02 0.125 0 0.04 0.125 0 0.06 0.125 0 0.08 0.125 0 0.1 0.125 0 0 0.13 0 0.02 0.13 0 0.04 0.13 0 0.06 0.13 0 0.08 0.13 0 0.1 0.13 0 0 0.135 0 0.02 0.135 0 0.04 0.135 0 0.06 0.135 0 0.08 0.135 0 0.1 0.135 0 0 0.14 0 0.02 0.14 0 0.04 0.14 0 0.06 0.14 0 0.08 0.14 0 0.1 0.14 0 0 0.145 0 0.02 0.145 0 0.04 0.145 0 0.06 0.145 0 0.08 0.145 0 0.1 0.145 0 0 0.15 0 0.02 0.15 0 0.04 0.15 0 0.06 0.15 0 0.08 0.15 0 0.1 0.15 0 0 0.155 0 0.02 0.155 0 0.04 0.155 0 0.06 0.155 0 0.08 0.155 0 0.1 0.155 0 0 0.16 0 0.02 0.16 0 0.04 0.16 0 0.06 0.16 0 0.08 0.16 0 0.1 0.16 0 0 0.165 0 0.02 0.165 0 0.04 0.165 0 0.06 0.165 0 0.08 0.165 0 0.1 0.165 0 0 0.17 0 0.02 0.17 0 0.04 0.17 0 0.06 0.17 0 0.08 0.17 0 0.1 0.17 0 0 0.175 0 0.02 0.175 0 0.04 0.175 0 0.06 0.175 0 0.08 0.175 0 0.1 0.175 0 0 0.18 0 0.02 0.18 0 0.04 0.18 0 0.06 0.18 0 0.08 0.18 0 0.1 0.18 0 0 0.185 0 0.02 0.185 0 0.04 0.185 0 0.06 0.185 0 0.08 0.185 0 0.1 0.185 0 0 0.19 0 0.02 0.19 0 0.04 0.19 0 0.06 0.19 0 0.08 0.19 0 0.1 0.19 0 0 0.195 0 0.02 0.195 0 0.04 0.195 0 0.06 0.195 0 0.08 0.195 0 0.1 0.195 0 0 0.2 0 0.02 0.2 0 0.04 0.2 0 0.06 0.2 0 0.08 0.2 0 0.1 0.2 0 0 0.205 0 0.02 0.205 0 0.04 0.205 0 0.06 0.205 0 0.08 0.205 0 0.1 0.205 0 0 0.21 0 0.02 0.21 0 0.04 0.21 0 0.06 0.21 0 0.08 0.21 0 0.1 0.21 0 0 0.215 0 0.02 0.215 0 0.04 0.215 0 0.06 0.215 0 0.08 0.215 0 0.1 0.215 0 0 0.22 0 0.02 0.22 0 0.04 0.22 0 0.06 0.22 0 0.08 0.22 0 0.1 0.22 0 0 0.225 0 0.02 0.225 0 0.04 0.225 0 0.06 0.225 0 0.08 0.225 0 0.1 0.225 0 0 0.23 0 0.02 0.23 0 0.04 0.23 0 0.06 0.23 0 0.08 0.23 0 0.1 0.23 0 0 0.235 0 0.02 0.235 0 0.04 0.235 0 0.06 0.235 0 0.08 0.235 0 0.1 0.235 0 0 0.24 0 0.02 0.24 0 0.04 0.24 0 0.06 0.24 0 0.08 0.24 0 0.1 0.24 0 0 0.245 0 0.02 0.245 0 0.04 0.245 0 0.06 0.245 0 0.08 0.245 0 0.1 0.245 0 0 0.25 0 0.02 0.25 0 0.04 0.25 0 0.06 0.25 0 0.08 0.25 0 0.1 0.25 0 0 0.255 0 0.02 0.255 0 0.04 0.255 0 0.06 0.255 0 0.08 0.255 0 0.1 0.255 0 0 0.26 0 0.02 0.26 0 0.04 0.26 0 0.06 0.26 0 0.08 0.26 0 0.1 0.26 0 0 0.265 0 0.02 0.265 0 0.04 0.265 0 0.06 0.265 0 0.08 0.265 0 0.1 0.265 0 0 0.27 0 0.02 0.27 0 0.04 0.27 0 0.06 0.27 0 0.08 0.27 0 0.1 0.27 0 0 0.275 0 0.02 0.275 0 0.04 0.275 0 0.06 0.275 0 0.08 0.275 0 0.1 0.275 0 0 0.28 0 0.02 0.28 0 0.04 0.28 0 0.06 0.28 0 0.08 0.28 0 0.1 0.28 0 0 0.285 0 0.02 0.285 0 0.04 0.285 0 0.06 0.285 0 0.08 0.285 0 0.1 0.285 0 0 0.29 0 0.02 0.29 0 0.04 0.29 0 0.06 0.29 0 0.08 0.29 0 0.1 0.29 0 0 0.295 0 0.02 0.295 0 0.04 0.295 0 0.06 0.295 0 0.08 0.295 0 0.1 0.295 0 0 0.3 0 0.02 0.3 0 0.04 0.3 0 0.06 0.3 0 0.08 0.3 0 0.1 0.3 0 0 0.305 0 0.02 0.305 0 0.04 0.305 0 0.06 0.305 0 0.08 0.305 0 0.1 0.305 0 0 0.31 0 0.02 0.31 0 0.04 0.31 0 0.06 0.31 0 0.08 0.31 0 0.1 0.31 0 0 0.315 0 0.02 0.315 0 0.04 0.315 0 0.06 0.315 0 0.08 0.315 0 0.1 0.315 0 0 0.32 0 0.02 0.32 0 0.04 0.32 0 0.06 0.32 0 0.08 0.32 0 0.1 0.32 0 0 0.325 0 0.02 0.325 0 0.04 0.325 0 0.06 0.325 0 0.08 0.325 0 0.1 0.325 0 0 0.33 0 0.02 0.33 0 0.04 0.33 0 0.06 0.33 0 0.08 0.33 0 0.1 0.33 0 0 0.335 0 0.02 0.335 0 0.04 0.335 0 0.06 0.335 0 0.08 0.335 0 0.1 0.335 0 0 0.34 0 0.02 0.34 0 0.04 0.34 0 0.06 0.34 0 0.08 0.34 0 0.1 0.34 0 0 0.345 0 0.02 0.345 0 0.04 0.345 0 0.06 0.345 0 0.08 0.345 0 0.1 0.345 0 0 0.35 0 0.02 0.35 0 0.04 0.35 0 0.06 0.35 0 0.08 0.35 0 0.1 0.35 0 0 0.355 0 0.02 0.355 0 0.04 0.355 0 0.06 0.355 0 0.08 0.355 0 0.1 0.355 0 0 0.36 0 0.02 0.36 0 0.04 0.36 0 0.06 0.36 0 0.08 0.36 0 0.1 0.36 0 0 0.365 0 0.02 0.365 0 0.04 0.365 0 0.06 0.365 0 0.08 0.365 0 0.1 0.365 0 0 0.37 0 0.02 0.37 0 0.04 0.37 0 0.06 0.37 0 0.08 0.37 0 0.1 0.37 0 0 0.375 0 0.02 0.375 0 0.04 0.375 0 0.06 0.375 0 0.08 0.375 0 0.1 0.375 0 0 0.38 0 0.02 0.38 0 0.04 0.38 0 0.06 0.38 0 0.08 0.38 0 0.1 0.38 0 0 0.385 0 0.02 0.385 0 0.04 0.385 0 0.06 0.385 0 0.08 0.385 0 0.1 0.385 0 0 0.39 0 0.02 0.39 0 0.04 0.39 0 0.06 0.39 0 0.08 0.39 0 0.1 0.39 0 0 0.395 0 0.02 0.395 0 0.04 0.395 0 0.06 0.395 0 0.08 0.395 0 0.1 0.395 0 0 0.4 0 0.02 0.4 0 0.04 0.4 0 0.06 0.4 0 0.08 0.4 0 0.1 0.4 0 0 0.405 0 0.02 0.405 0 0.04 0.405 0 0.06 0.405 0 0.08 0.405 0 0.1 0.405 0 0 0.41 0 0.02 0.41 0 0.04 0.41 0 0.06 0.41 0 0.08 0.41 0 0.1 0.41 0 0 0.415 0 0.02 0.415 0 0.04 0.415 0 0.06 0.415 0 0.08 0.415 0 0.1 0.415 0 0 0.42 0 0.02 0.42 0 0.04 0.42 0 0.06 0.42 0 0.08 0.42 0 0.1 0.42 0 0 0.425 0 0.02 0.425 0 0.04 0.425 0 0.06 0.425 0 0.08 0.425 0 0.1 0.425 0 0 0.43 0 0.02 0.43 0 0.04 0.43 0 0.06 0.43 0 0.08 0.43 0 0.1 0.43 0 0 0.435 0 0.02 0.435 0 0.04 0.435 0 0.06 0.435 0 0.08 0.435 0 0.1 0.435 0 0 0.44 0 0.02 0.44 0 0.04 0.44 0 0.06 0.44 0 0.08 0.44 0 0.1 0.44 0 0 0.445 0 0.02 0.445 0 0.04 0.445 0 0.06 0.445 0 0.08 0.445 0 0.1 0.445 0 0 0.45 0 0.02 0.45 0 0.04 0.45 0 0.06 0.45 0 0.08 0.45 0 0.1 0.45 0 0 0.455 0 0.02 0.455 0 0.04 0.455 0 0.06 0.455 0 0.08 0.455 0 0.1 0.455 0 0 0.46 0 0.02 0.46 0 0.04 0.46 0 0.06 0.46 0 0.08 0.46 0 0.1 0.46 0 0 0.465004 0 0.02 0.465004 0 0.04 0.465004 0 0.06 0.465004 0 0.08 0.465004 0 0.1 0.465004 0 0 0.470029 0 0.02 0.470029 0 0.04 0.470029 0 0.06 0.470029 0 0.08 0.470029 0 0.1 0.470029 0 0 0.475169 0 0.02 0.475169 0 0.04 0.475169 0 0.06 0.475169 0 0.08 0.475169 0 0.1 0.475169 0 0 0.48068 0 0.02 0.48068 0 0.04 0.48068 0 0.06 0.48068 0 0.08 0.48068 0 0.1 0.48068 0 0 0.48703 0 0.02 0.48703 0 0.04 0.48703 0 0.06 0.48703 0 0.08 0.48703 0 0.1 0.48703 0 0 0.494922 0 0.02 0.494922 0 0.04 0.494922 0 0.06 0.494922 0 0.08 0.494922 0 0.1 0.494922 0 0 0.505463 0 0.02 0.505463 0 0.04 0.505463 0 0.06 0.505463 0 0.08 0.505463 0 0.1 0.505463 0 0 0.518577 0 0.02 0.518577 0 0.04 0.518577 0 0.06 0.518577 0 0.08 0.518577 0 0.1 0.518577 0 0 0.521239 0 0.02 0.521239 0 0.04 0.521239 0 0.06 0.521239 0 0.08 0.521239 0 0.1 0.521239 0 0 0.523745 0 0.02 0.523745 0 0.04 0.523745 0 0.06 0.523745 0 0.08 0.523745 0 0.1 0.523745 0 0 0.526226 0 0.02 0.526226 0 0.04 0.526226 0 0.06 0.526226 0 0.08 0.526226 0 0.1 0.526226 0 0 0.528777 0 0.02 0.528777 0 0.04 0.528777 0 0.06 0.528777 0 0.08 0.528777 0 0.1 0.528777 0 0 0.531489 0 0.02 0.531489 0 0.04 0.531489 0 0.06 0.531489 0 0.08 0.531489 0 0.1 0.531489 0 0 0.534458 0 0.02 0.534458 0 0.04 0.534458 0 0.06 0.534458 0 0.08 0.534458 0 0.1 0.534458 0 0 0.537779 0 0.02 0.537779 0 0.04 0.537779 0 0.06 0.537779 0 0.08 0.537779 0 0.1 0.537779 0 0 0.541518 0 0.02 0.541518 0 0.04 0.541518 0 0.06 0.541518 0 0.08 0.541518 0 0.1 0.541518 0 0 0.545694 0 0.02 0.545694 0 0.04 0.545694 0 0.06 0.545694 0 0.08 0.545694 0 0.1 0.545694 0 0 0.550252 0 0.02 0.550252 0 0.04 0.550252 0 0.06 0.550252 0 0.08 0.550252 0 0.1 0.550252 0 0 0.555071 0 0.02 0.555071 0 0.04 0.555071 0 0.06 0.555071 0 0.08 0.555071 0 0.1 0.555071 0 0 0.560016 0 0.02 0.560016 0 0.04 0.560016 0 0.06 0.560016 0 0.08 0.560016 0 0.1 0.560016 0 0 0.565003 0 0.02 0.565003 0 0.04 0.565003 0 0.06 0.565003 0 0.08 0.565003 0 0.1 0.565003 0 0 0.570001 0 0.02 0.570001 0 0.04 0.570001 0 0.06 0.570001 0 0.08 0.570001 0 0.1 0.570001 0 0 0.575 0 0.02 0.575 0 0.04 0.575 0 0.06 0.575 0 0.08 0.575 0 0.1 0.575 0 0 0.58 0 0.02 0.58 0 0.04 0.58 0 0.06 0.58 0 0.08 0.58 0 0.1 0.58 0 0 0.585 0 0.02 0.585 0 0.04 0.585 0 0.06 0.585 0 0.08 0.585 0 0.1 0.585 0 0 0.59 0 0.02 0.59 0 0.04 0.59 0 0.06 0.59 0 0.08 0.59 0 0.1 0.59 0 0 0.595 0 0.02 0.595 0 0.04 0.595 0 0.06 0.595 0 0.08 0.595 0 0.1 0.595 0 0 0.6 0 0.02 0.6 0 0.04 0.6 0 0.06 0.6 0 0.08 0.6 0 0.1 0.6 0 0 0.605 0 0.02 0.605 0 0.04 0.605 0 0.06 0.605 0 0.08 0.605 0 0.1 0.605 0 0 0.61 0 0.02 0.61 0 0.04 0.61 0 0.06 0.61 0 0.08 0.61 0 0.1 0.61 0 0 0.615 0 0.02 0.615 0 0.04 0.615 0 0.06 0.615 0 0.08 0.615 0 0.1 0.615 0 0 0.62 0 0.02 0.62 0 0.04 0.62 0 0.06 0.62 0 0.08 0.62 0 0.1 0.62 0 0 0.625 0 0.02 0.625 0 0.04 0.625 0 0.06 0.625 0 0.08 0.625 0 0.1 0.625 0 0 0.63 0 0.02 0.63 0 0.04 0.63 0 0.06 0.63 0 0.08 0.63 0 0.1 0.63 0 0 0.635 0 0.02 0.635 0 0.04 0.635 0 0.06 0.635 0 0.08 0.635 0 0.1 0.635 0 0 0.64 0 0.02 0.64 0 0.04 0.64 0 0.06 0.64 0 0.08 0.64 0 0.1 0.64 0 0 0.645 0 0.02 0.645 0 0.04 0.645 0 0.06 0.645 0 0.08 0.645 0 0.1 0.645 0 0 0.65 0 0.02 0.65 0 0.04 0.65 0 0.06 0.65 0 0.08 0.65 0 0.1 0.65 0 0 0.655 0 0.02 0.655 0 0.04 0.655 0 0.06 0.655 0 0.08 0.655 0 0.1 0.655 0 0 0.66 0 0.02 0.66 0 0.04 0.66 
[...]
			<PointData Scalars="VitesseX">
				<DataArray Name="VitesseX" type="Float32" format="ascii">
 0 1.76627e-16 -9.5088e-16 5.88586e-16 -1.27357e-15 0 0 1.1416e-16 -6.3472e-16 2.23188e-16 -1.1484e-15 0 0 -1.52742e-16 -1.93692e-17 -4.44064e-16 -9.74651e-16 0 0 3.35351e-16 -2.88829e-16 -4.34764e-16 -1.43981e-15 0 0 3.84618e-16 -1.00073e-17 -9.66419e-16 -1.54301e-15 0 0 -2.23926e-16 7.01155e-17 -1.1524e-15 -1.38721e-15 0 0 -2.88576e-16 -5.04965e-16 -1.52895e-17 -1.89546e-15 0 0 9.79979e-16 -1.72761e-15 1.2401e-15 -3.60783e-15 0 0 6.60922e-16 -8.64977e-16 1.10426e-16 -3.85401e-15 0 0 -1.05083e-15 1.69091e-15 -2.37246e-15 -2.26418e-15 0 0 -2.41871e-17 4.19605e-17 -1.41106e-15 -2.47723e-15 0 0 -4.10441e-16 -1.03459e-15 5.36678e-17 -3.35876e-15 0 0 5.92702e-16 -2.38298e-15 1.16173e-15 -4.42184e-15 0 0 -9.37177e-16 3.77061e-16 -2.15578e-15 -1.40157e-15 0 0 -1.23552e-15 1.1275e-16 -1.44739e-15 -1.49522e-15 0 0 1.84995e-15 -3.73547e-15 2.05351e-15 -4.42982e-15 0 0 -1.43237e-15 1.77254e-15 -3.40232e-15 -2.80248e-15 0 0 -2.11715e-16 3.78293e-16 -2.44797e-15 -4.30417e-15 0 0 2.85012e-17 3.49727e-16 -2.19126e-15 -4.17545e-15 0 0 -1.43119e-15 8.24028e-16 -3.62127e-15 -3.49391e-15 0 0 1.32641e-15 -4.46239e-15 -2.98182e-15 -3.51623e-15 0 0 1.05442e-15 -2.90389e-15 -3.51309e-15 -4.20223e-15 0 0 -6.86975e-16 6.20429e-16 -2.42771e-15 -7.50276e-15 0 0 -2.24154e-15 3.15073e-15 -5.50396e-15 -5.86517e-15 0 0 -1.21261e-15 8.82127e-16 -5.25649e-15 -3.47886e-15 0 0 4.57374e-16 -3.37697e-15 1.36571e-15 -5.25366e-15 0 0 -1.43085e-15 1.85192e-15 -5.67961e-15 1.46481e-15 0 0 -1.87163e-15 1.16663e-15 -4.37819e-15 3.932e-15 0 0 -6.49138e-16 -3.21073e-15 4.07253e-15 -1.88542e-15 0 0 1.64838e-15 -4.39767e-15 5.5536e-16 -8.20953e-16 0 0 -2.66425e-16 -2.59697e-15 -5.70813e-16 -2.15724e-15 0 0 -3.2366e-16 -1.82949e-15 2.63531e-16 -4.60943e-15 0 0 1.74045e-15 -4.97416e-15 -7.29479e-17 1.02576e-15 0 0 -4.14542e-15 -1.61596e-16 -5.02411e-15 9.18348e-15 0 0 -4.17108e-15 -5.28581e-15 -7.60577e-16 1.01261e-14 0 0 -5.62924e-15 -1.11321e-14 6.6212e-15 8.62361e-15 0 0 -6.65033e-15 -5.11483e-15 2.98264e-15 9.07777e-15 0 0 -6.26266e-15 2.28642e-15 -3.99492e-15 4.08984e-15 0 0 -3.2744e-15 7.9748e-16 -8.85342e-15 1.57156e-15 0 0 -4.55268e-16 -3.62122e-15 -6.04577e-15 -3.16862e-15 0 0 -2.24781e-16 -5.93577e-15 -5.44151e-15 -1.23788e-14 0 0 1.6691e-15 -5.82024e-15 -7.36463e-15 -1.45963e-14 0 0 -2.07103e-15 -3.16358e-15 -4.09999e-15 -1.52487e-14 0 0 -1.51025e-15 -5.11844e-15 -6.33307e-15 -1.36068e-14 0 0 -1.39748e-15 -4.82444e-15 -1.59192e-14 -3.2402e-15 0 0 -5.54873e-15 -6.47077e-15 -1.31789e-14 -3.73367e-15 0 0 -4.65296e-15 -7.19897e-15 -1.17843e-14 -8.30823e-15 0 0 -3.1134e-15 -7.26574e-15 -9.18342e-15 -1.44049e-14 0 0 -3.27018e-15 -4.13613e-15 -8.58493e-15 -2.11336e-14 0 0 -7.90012e-16 -3.54908e-15 -1.25185e-14 -1.88081e-14 0 0 5.39054e-16 -1.04727e-14 -2.11601e-15 -2.04048e-14 0 0 -5.70442e-17 -8.26843e-15 -9.0716e-15 -4.97265e-15 0 0 -8.55867e-15 -1.15762e-14 -6.98977e-15 9.02417e-15 0 0 -5.28157e-15 -2.14287e-14 2.99023e-15 6.87797e-15 0 0 -2.73853e-15 -1.6428e-14 -1.49902e-15 7.98504e-15 0 0 -8.50613e-15 -7.06802e-15 -2.06053e-15 1.07615e-14 0 0 1.63193e-15 -6.75672e-15 5.06712e-16 4.08446e-15 0 0 -1.5408e-15 -6.93679e-15 6.6108e-15 -7.84369e-15 0 0 -5.98062e-15 -3.97539e-15 6.2186e-15 -4.43573e-15 0 0 -6.3869e-15 2.08002e-15 8.18895e-16 1.98651e-15 0 0 -7.27389e-15 6.03088e-16 4.31674e-15 2.77911e-15 0 0 -1.09339e-14 2.45613e-15 -1.91205e-15 1.09493e-14 0 0 -8.81104e-15 -1.73952e-16 -6.11148e-15 1.13797e-14 0 0 -4.83199e-15 -2.15004e-15 2.21788e-15 4.27967e-15 0 0 -1.22245e-14 -3.88859e-16 2.96563e-15 5.8816e-15 0 0 -1.16256e-14 -1.44366e-14 6.54624e-15 9.95884e-15 0 0 -1.35551e-14 -1.15782e-14 3.71261e-15 4.19338e-15 0 0 -1.29285e-14 -1.15254e-14 2.60063e-15 6.45874e-15 0 0 -7.12399e-15 -1.48429e-14 4.68841e-15 1.21785e-14 0 0 -1.05278e-14 1.92545e-15 -8.52466e-15 9.25618e-15 0 0 -1.69017e-14 -3.1235e-15 -5.9565e-15 2.11259e-15 0 0 -1.24283e-14 -2.2441e-14 5.55869e-15 -3.78896e-15 0 0 -1.83911e-14 -1.55257e-14 5.16973e-15 -9.16034e-15 0 0 -2.32314e-14 -1.0167e-14 -2.32732e-15 -9.05512e-15 0 0 -1.7467e-14 -1.45913e-14 -3.74485e-15 -2.06219e-14 0 0 -1.70439e-14 -9.33994e-15 2.42244e-15 -2.54163e-14 0 0 -1.51311e-14 -1.16941e-14 2.40815e-15 -3.47368e-15 0 0 -1.83976e-14 -1.50642e-14 5.85284e-15 7.70418e-15 0 0 -1.7175e-14 -2.72324e-15 4.14852e-16 8.15569e-15 0 0 -6.111e-15 -4.51336e-15 1.30563e-14 -1.98698e-14 0 0 -6.31562e-15 4.9328e-16 6.07823e-15 -2.61348e-14 0 0 -1.06296e-14 1.26108e-14 -7.39523e-15 -2.58207e-15 0 0 -1.9191e-14 1.57941e-14 6.71273e-15 -1.50338e-14 0 0 -9.40003e-15 1.05607e-15 -2.33501e-15 -1.08576e-14 0 0 -4.19086e-15 -1.13422e-14 -5.95219e-15 9.68079e-15 0 0 -1.81408e-14 -2.48687e-15 -9.66656e-16 1.66344e-15 0 0 -1.92978e-14 9.24885e-15 -1.40155e-14 2.79232e-16 0 0 -1.28708e-14 1.10875e-14 -2.27452e-14 9.33339e-15 0 0 -4.49272e-15 -2.73578e-15 -9.88791e-15 3.29839e-15 0 0 5.34505e-16 -8.01712e-15 -2.73797e-15 -5.86555e-15 0 0 4.90356e-16 -9.1245e-15 -3.09621e-16 -1.04632e-14 0 0 -5.33537e-15 -1.63128e-15 2.98858e-15 -1.42264e-14 0 0 8.57557e-16 7.49557e-16 -9.76679e-15 -7.574e-15 0 0 1.15207e-15 -1.03302e-14 -1.10946e-14 -1.10611e-15 0 0 -2.34881e-15 -1.7573e-15 -7.30134e-15 -6.32451e-15 0 0 6.1302e-15 -8.22356e-15 -1.68095e-15 -9.45447e-15 0 0 -2.83991e-15 -2.78385e-15 4.17274e-15 -3.28332e-15 0 0 9.03774e-16 1.16034e-16 -1.22882e-15 1.83001e-15 0 0 -1.9223e-15 -3.95109e-15 1.48868e-15 -6.73854e-15 0 0 -8.71831e-15 1.21106e-15 -6.29076e-15 -2.57686e-15 0 0 -1.07647e-14 5.1367e-15 -8.2498e-15 1.57452e-15 0 0 -4.33977e-14 -7.87519e-14 -6.83737e-14 -2.82785e-14 0 0 3.56902e-15 3.71092e-14 5.43367e-14 4.85779e-14 0 0 -1.55851e-13 -2.55203e-13 -2.27427e-13 -1.35006e-13 0 0 8.53273e-14 8.69891e-14 1.27827e-13 2.49652e-14 0 0 1.7183e-14 1.53291e-14 2.70288e-14 2.55472e-14 0 0 -1.16913e-13 -1.91225e-13 -1.83448e-13 -7.74467e-14 0 0 9.2251e-14 1.53852e-13 1.42156e-13 5.28718e-14 0 0 -4.85122e-14 -5.43867e-14 -1.06925e-13 -5.18392e-14 0 0 7.59842e-15 2.50837e-14 4.86826e-16 3.96315e-14 0 0 -6.35243e-15 1.2181e-14 -2.34897e-14 8.44686e-15 0 0 -6.38595e-15 1.23054e-14 -2.64325e-14 -4.45929e-15 0 0 6.00771e-15 -1.33332e-14 -1.62075e-15 7.7844e-15 0 0 -3.8252e-17 4.53885e-16 -1.40808e-14 1.82169e-14 0 0 -2.61063e-15 2.17789e-15 -9.61759e-15 1.68034e-14 0 0 -4.02528e-15 -7.39994e-15 1.25959e-14 -1.36864e-14 0 0 -1.06182e-16 -1.56092e-14 2.06118e-14 -2.72707e-14 0 0 1.78597e-15 -1.78401e-14 1.37771e-14 -1.35763e-14 0 0 -4.32175e-15 -1.43693e-14 1.53632e-14 -1.15933e-14 0 0 -1.02495e-14 -1.40926e-14 1.10092e-14 -1.48537e-14 0 0 -1.51664e-14 -1.69354e-14 3.67551e-15 -9.85059e-16 0 0 -1.32558e-14 -1.41127e-14 8.11123e-15 -8.15392e-15 0 0 -1.26478e-14 -1.53599e-14 -2.43219e-16 -1.52864e-16 0 0 -2.3985e-14 -1.76504e-14 -1.95648e-14 3.55397e-14 0 0 -2.94199e-14 -2.96886e-14 -1.44986e-14 3.48909e-14 0 0 -4.07384e-14 -3.84612e-14 5.28963e-15 1.5534e-14 0 0 -3.09136e-14 -4.79275e-14 7.54494e-15 7.98466e-15 0 0 -1.4677e-14 -5.48248e-14 9.7806e-15 1.66146e-14 0 0 -4.01743e-14 -1.71141e-14 -4.29174e-15 1.96934e-14 0 0 -3.67608e-14 -1.61417e-14 -6.5793e-15 2.65896e-14 0 0 -3.33622e-14 -2.78833e-14 1.12758e-14 1.64064e-14 0 0 -4.18915e-14 -2.02173e-14 1.1374e-14 6.86337e-15 0 0 -2.19758e-14 -2.03076e-14 7.68786e-15 3.52716e-15 0 0 -2.93269e-14 -1.26947e-14 5.51651e-15 -1.09925e-14 0 0 -3.20055e-14 -2.6649e-14 8.05678e-16 -1.00889e-14 0 0 -2.69526e-14 -3.60986e-14 2.84649e-16 3.61565e-15 0 0 -3.14663e-14 -3.02774e-14 -6.2266e-15 1.6729e-14 0 0 -2.06069e-14 -2.30107e-14 -1.18811e-15 -4.02916e-15 0 0 -2.22393e-14 -1.25594e-14 -9.6895e-15 -4.18906e-14 0 0 -2.35815e-14 -1.40261e-14 -1.59705e-14 -6.68006e-14 0 0 -2.7508e-14 -3.0375e-14 3.38164e-15 -5.9824e-14 0 0 -3.78631e-14 -4.2991e-14 -2.23564e-15 -3.22799e-14 0 0 -3.56839e-14 -3.6922e-14 -3.82637e-14 -1.1282e-14 0 0 -3.66927e-14 -3.73643e-14 -2.96103e-14 -2.60856e-14 0 0 -5.15342e-14 -4.64799e-14 1.42806e-14 -5.33966e-14 0 0 -4.77404e-14 -5.13498e-14 -2.45158e-15 -3.51038e-14 0 0 -4.40161e-14 -4.62909e-14 -2.29876e-14 -3.37989e-14 0 0 -3.94036e-14 -3.96565e-14 -4.20591e-14 -2.64389e-14 0 0 -3.4117e-14 -6.83406e-14 -2.81805e-14 -8.8162e-15 0 0 -5.13281e-14 -7.75267e-14 1.49299e-14 -1.044e-14 0 0 -5.31203e-14 -7.40701e-14 1.98637e-14 4.12459e-15 0 0 -4.54216e-14 -8.62164e-14 1.88823e-14 6.03708e-15 0 0 -4.52185e-14 -5.44817e-14 -1.74409e-14 8.91917e-15 0 0 -4.45777e-14 -4.50086e-14 -2.01131e-14 -1.1229e-14 0 0 -3.40666e-14 -5.46561e-14 -9.66222e-15 -4.03472e-14 0 0 -3.68518e-14 -4.70682e-14 -2.51081e-14 -5.86364e-14 0 0 -3.69764e-14 -4.85838e-14 -5.36731e-14 -1.68624e-14 0 0 -4.76118e-14 -4.68972e-14 -6.82369e-14 8.41034e-15 0 0 -7.1508e-14 -3.19997e-14 -5.1864e-14 -8.247e-15 0 0 -7.48049e-14 -1.83797e-14 -4.64475e-14 -5.2955e-15 0 0 -7.86787e-14 -3.16392e-14 -7.58099e-15 -4.80841e-14 0 0 -6.06086e-14 -2.85107e-14 -3.20045e-15 -4.593e-14 0 0 -6.99015e-14 -5.66144e-15 -2.83722e-14 -5.24785e-15 0 0 -8.11674e-14 -7.50564e-15 -3.15396e-14 -2.182e-14 0 0 -6.58059e-14 -1.85423e-14 -4.58522e-14 -4.76836e-14 0 0 -5.57481e-14 -1.44165e-14 -5.83749e-14 -5.45776e-14 0 0 -4.15182e-14 -7.34078e-15 -5.71136e-14 -8.73593e-14 0 0 -2.82192e-14 -2.27026e-14 -7.30975e-14 -7.74829e-14 0 0 -4.14455e-14 -1.02748e-14 -8.05726e-14 -6.3763e-14 0 0 -6.31678e-14 1.20015e-15 -7.668e-14 -3.43768e-14 0 0 -5.51311e-14 -4.46837e-14 -4.8105e-14 9.12971e-15 0 0 -5.58589e-14 -6.38071e-14 -3.5443e-14 8.62127e-15 0 0 -5.43987e-14 -4.79979e-14 -6.61314e-14 3.65697e-15 0 0 -4.27386e-14 -5.75352e-14 -5.96071e-14 -1.89109e-14 0 0 -2.07923e-14 -6.94923e-14 -6.06167e-14 -1.59915e-14 0 0 -1.72805e-14 -4.14001e-14 -7.64432e-14 -9.79444e-15 0 0 -4.03262e-14 -3.54629e-14 -4.90267e-14 -6.07418e-14 0 0 -3.66237e-14 -7.13507e-14 -3.89002e-14 -7.88255e-14 0 0 -3.74366e-14 -7.83845e-14 -8.28284e-14 -1.2098e-14 0 0 -5.35151e-14 -5.0186e-14 -9.6863e-14 2.56048e-14 0 0 -6.12217e-14 -4.71914e-14 -7.29001e-14 3.2501e-14 0 0 -6.33163e-14 -7.31695e-14 -5.79823e-14 3.61826e-14 0 0 -4.54125e-14 -7.39636e-14 -7.67456e-14 2.6693e-14 0 0 -4.36683e-14 -4.00222e-14 -9.20758e-14 -2.16973e-15 0 0 -4.7321e-14 -2.45005e-14 -6.44561e-14 -1.81325e-15 0 0 -3.71885e-14 -2.9318e-14 -4.15874e-14 3.34675e-14 0 0 -4.90793e-14 -2.2355e-14 -3.56464e-14 2.83215e-14 0 0 -5.48024e-14 -2.04951e-14 -1.5908e-14 -4.53004e-16 0 0 -3.92221e-14 -1.89164e-14 -8.09097e-15 -1.84459e-14 0 0 -1.5667e-14 -1.13632e-14 -1.03018e-14 -6.24166e-15 0 0 -1.10919e-14 1.87923e-15 -3.24017e-15 -1.54799e-15 0 0 -2.17199e-14 -4.04237e-15 -1.3951e-15 -7.18727e-15 0 0 -1.32433e-14 -1.8678e-14 -4.78919e-14 4.60564e-14 0 0 -1.57613e-14 -2.94845e-14 -5.602e-14 3.55206e-14 0 0 -2.95007e-14 -6.07083e-14 -5.98483e-15 -8.55278e-15 0 0 -3.06045e-14 -5.94524e-14 -8.0809e-15 -1.00875e-14 0 0 -3.35323e-14 -3.27052e-14 -2.43882e-14 -2.53825e-14 0 0 -2.40291e-14 -3.37413e-14 -4.63173e-14 2.61089e-14 0 0 -1.06829e-14 -3.48863e-14 -4.72763e-14 2.41002e-14 0 0 -9.95162e-15 -2.54064e-14 -2.51287e-14 -1.19542e-14 0 0 -7.23641e-15 -2.38238e-14 -2.02134e-14 3.71239e-15 0
				</DataArray>
				<DataArray Name="VitesseY" type="Float32" format="ascii">