<?xml version="1.0"?>
<VTKFile type="PolyData">
	<PolyData>
		<Piece NumberOfPoints="1206" NumberOfPolys="1000">
			<Points>
				<DataArray type="Float32" NumberOfComponents="3" format="ascii">
 0 0 0 0.02 0 0 0.04 0 0 0.06 0 0 0.08 0 0 0.1 0 0 0 0.005 0 0.02 0.005 0 0.04 0.005 0 0.06 0.005 0 0.08 0.005 0 0.1 0.005 0 0 0.01 0 0.02 0.01 0 0.04 0.01 0 0.06 0.01 0 0.08 0.01 0 0.1 0.01 0 0 0.015 0 0.02 0.015 0 0.04 0.015 0 0.06 0.015 0 0.08 0.015 0 0.1 0.015 0 0 0.02 0 0.02 0.02 0 0.04 0.02 0 0.06 0.02 0 0.08 0.02 0 0.1 0.02 0 0 0.025 0 0.02 0.025 0 0.04 0.025 0 0.06 0.025 0 0.08 0.025 0 0.1 0.025 0 0 0.03 0 0.02 0.03 0 0.04 0.03 0 0.06 0.03 0 0.08 0.03 0 0.1 0.03 0 0 0.035 0 0.02 0.035 0 0.04 0.035 0 0.06 0.035 0 0.08 0.035 0 0.1 0.035 0 0 0.04 0 0.02 0.04 0 0.04 0.04 0 0.06 0.04 0 0.08 0.04 0 0.1 0.04 0 0 0.045 0 0.02 0.045 0 0.04 0.045 0 0.06 0.045 0 0.08 0.045 0 0.1 0.045 0 0 0.05 0 0.02 0.05 0 0.04 0.05 0 0.06 0.05 0 0.08 0.05 0 0.1 0.05 0 0 0.055 0 0.02 0.055 0 0.04 0.055 0 0.06 0.055 0 0.08 0.055 0 0.1 0.055 0 0 0.06 0 0.02 0.06 0 0.04 0.06 0 0.06 0.06 0 0.08 0.06 0 0.1 0.06 0 0 0.065 0 0.02 0.065 0 0.04 0.065 0 0.06 0.065 0 0.08 0.065 0 0.1 0.065 0 0 0.07 0 0.02 0.07 0 0.04 0.07 0 0.06 0.07 0 0.08 0.07 0 0.1 0.07 0 0 0.075 0 0.02 0.075 0 0.04 0.075 0 0.06 0.075 0 0.08 0.075 0 0.1 0.075 0 0 0.08 0 0.02 0.08 0 0.04 0.08 0 0.06 0.08 0 0.08 0.08 0 0.1 0.08 0 0 0.085 0 0.02 0.085 0 0.04 0.085 0 0.06 0.085 0 0.08 0.085 0 0.1 0.085 0 0 0.09 0 0.02 0.09 0 0.04 0.09 0 0.06 0.09 0 0.08 0.09 0 0.1 0.09 0 0 0.095 0 0.02 0.095 0 0.04 0.095 0 0.06 0.095 0 0.08 0.095 0 0.1 0.095 0 0 0.1 0 0.02 0.1 0 0.04 0.1 0 0.06 0.1 0 0.08 0.1 0 0.1 0.1 0 0 0.105 0 0.02 0.105 0 0.04 0.105 0 0.06 0.105 0 0.08 0.105 0 0.1 0.105 0 0 0.11 0 0.02 0.11 0 0.04 0.11 0 0.06 0.11 0 0.08 0.11 0 0.1 0.11 0 0 0.115 0 0.02 0.115 0 0.04 0.115 0 0.06 0.115 0 0.08 0.115 0 0.1 0.115 0 0 0.12 0 0.02 0.12 0 0.04 0.12 0 0.06 0.12 0 0.08 0.12 0 0.1 0.12 0 0 0.125 0 0.02 0.125 0 0.04 0.125 0 0.06 0.125 0 0.08 0.125 0 0.1 0.125 0 0 0.13 0 0.02 0.13 0 0.04 0.13 0 0.06 0.13 0 0.08 0.13 0 0.1 0.13 0 0 0.135 0 0.02 0.135 0 0.04 0.135 0 0.06 0.135 0 0.08 0.135 0 0.1 0.135 0 0 0.14 0 0.02 0.14 0 0.04 0.14 0 0.06 0.14 0 0.08 0.14 0 0.1 0.14 0 0 0.145 0 0.02 0.145 0 0.04 0.145 0 0.06 0.145 0 0.08 0.145 0 0.1 0.145 0 0 0.15 0 0.02 0.15 0 0.04 0.15 0 0.06 0.15 0 0.08 0.15 0 0.1 0.15 0 0 0.155 0 0.02 0.155 0 0.04 0.155 0 0.06 0.155 0 0.08 0.155 0 0.1 0.155 0 0 0.16 0 0.02 0.16 0 0.04 0.16 0 0.06 0.16 0 0.08 0.16 0 0.1 0.16 0 0 0.165 0 0.02 0.165 0 0.04 0.165 0 0.06 0.165 0 0.08 0.165 0 0.1 0.165 0 0 0.17 0 0.02 0.17 0 0.04 0.17 0 0.06 0.17 0 0.08 0.17 0 0.1 0.17 0 0 0.175 0 0.02 0.175 0 0.04 0.175 0 0.06 0.175 0 0.08 0.175 0 0.1 0.175 0 0 0.18 0 0.02 0.18 0 0.04 0.18 0 0.06 0.18 0 0.08 0.18 0 0.1 0.18 0 0 0.185 0 0.02 0.185 0 0.04 0.185 0 0.06 0.185 0 0.08 0.185 0 0.1 0.185 0 0 0.19 0 0.02 0.19 0 0.04 0.19 0 0.06 0.19 0 0.08 0.19 0 0.1 0.19 0 0 0.195 0 0.02 0.195 0 0.04 0.195 0 0.06 0.195 0 0.08 0.195 0 0.1 0.195 0 0 0.2 0 0.02 0.2 0 0.04 0.2 0 0.06 0.2 0 0.08 0.2 0 0.1 0.2 0 0 0.205 0 0.02 0.205 0 0.04 0.205 0 0.06 0.205 0 0.08 0.205 0 0.1 0.205 0 0 0.21 0 0.02 0.21 0 0.04 0.21 0 0.06 0.21 0 0.08 0.21 0 0.1 0.21 0 0 0.215 0 0.02 0.215 0 0.04 0.215 0 0.06 0.215 0 0.08 0.215 0 0.1 0.215 0 0 0.22 0 0.02 0.22 0 0.04 0.22 0 0.06 0.22 0 0.08 0.22 0 0.1 0.22 0 0 0.225 0 0.02 0.225 0 0.04 0.225 0 0.06 0.225 0 0.08 0.225 0 0.1 0.225 0 0 0.23 0 0.02 0.23 0 0.04 0.23 0 0.06 0.23 0 0.08 0.23 0 0.1 0.23 0 0 0.235 0 0.02 0.235 0 0.04 0.235 0 0.06 0.235 0 0.08 0.235 0 0.1 0.235 0 0 0.24 0 0.02 0.24 0 0.04 0.24 0 0.06 0.24 0 0.08 0.24 0 0.1 0.24 0 0 0.245 0 0.02 0.245 0 0.04 0.245 0 0.06 0.245 0 0.08 0.245 0 0.1 0.245 0 0 0.25 0 0.02 0.25 0 0.04 0.25 0 0.06 0.25 0 0.08 0.25 0 0.1 0.25 0 0 0.255 0 0.02 0.255 0 0.04 0.255 0 0.06 0.255 0 0.08 0.255 0 0.1 0.255 0 0 0.26 0 0.02 0.26 0 0.04 0.26 0 0.06 0.26 0 0.08 0.26 0 0.1 0.26 0 0 0.265 0 0.02 0.265 0 0.04 0.265 0 0.06 0.265 0 0.08 0.265 0 0.1 0.265 0 0 0.27 0 0.02 0.27 0 0.04 0.27 0 0.06 0.27 0 0.08 0.27 0 0.1 0.27 0 0 0.275 0 0.02 0.275 0 0.04 0.275 0 0.06 0.275 0 0.08 0.275 0 0.1 0.275 0 0 0.28 0 0.02 0.28 0 0.04 0.28 0 0.06 0.28 0 0.08 0.28 0 0.1 0.28 0 0 0.285 0 0.02 0.285 0 0.04 0.285 0 0.06 0.285 0 0.08 0.285 0 0.1 0.285 0 0 0.29 0 0.02 0.29 0 0.04 0.29 0 0.06 0.29 0 0.08 0.29 0 0.1 0.29 0 0 0.295 0 0.02 0.295 0 0.04 0.295 0 0.06 0.295 0 0.08 0.295 0 0.1 0.295 0 0 0.3 0 0.02 0.3 0 0.04 0.3 0 0.06 0.3 0 0.08 0.3 0 0.1 0.3 0 0 0.305 0 0.02 0.305 0 0.04 0.305 0 0.06 0.305 0 0.08 0.305 0 0.1 0.305 0 0 0.31 0 0.02 0.31 0 0.04 0.31 0 0.06 0.31 0 0.08 0.31 0 0.1 0.31 0 0 0.315 0 0.02 0.315 0 0.04 0.315 0 0.06 0.315 0 0.08 0.315 0 0.1 0.315 0 0 0.32 0 0.02 0.32 0 0.04 0.32 0 0.06 0.32 0 0.08 0.32 0 0.1 0.32 0 0 0.325 0 0.02 0.325 0 0.04 0.325 0 0.06 0.325 0 0.08 0.325 0 0.1 0.325 0 0 0.330002 0 0.02 0.330002 0 0.04 0.330002 0 0.06 0.330002 0 0.08 0.330002 0 0.1 0.330002 0 0 0.335006 0 0.02 0.335006 0 0.04 0.335006 0 0.06 0.335006 0 0.08 0.335006 0 0.1 0.335006 0 0 0.340017 0 0.02 0.340017 0 0.04 0.340017 0 0.06 0.340017 0 0.08 0.340017 0 0.1 0.340017 0 0 0.345046 0 0.02 0.345046 0 0.04 0.345046 0 0.06 0.345046 0 0.08 0.345046 0 0.1 0.345046 0 0 0.35011 0 0.02 0.35011 0 0.04 0.35011 0 0.06 0.35011 0 0.08 0.35011 0 0.1 0.35011 0 0 0.355233 0 0.02 0.355233 0 0.04 0.355233 0 0.06 0.355233 0 0.08 0.355233 0 0.1 0.355233 0 0 0.360444 0 0.02 0.360444 0 0.04 0.360444 0 0.06 0.360444 0 0.08 0.360444 0 0.1 0.360444 0 0 0.365771 0 0.02 0.365771 0 0.04 0.365771 0 0.06 0.365771 0 0.08 0.365771 0 0.1 0.365771 0 0 0.371237 0 0.02 0.371237 0 0.04 0.371237 0 0.06 0.371237 0 0.08 0.371237 0 0.1 0.371237 0 0 0.376861 0 0.02 0.376861 0 0.04 0.376861 0 0.06 0.376861 0 0.08 0.376861 0 0.1 0.376861 0 0 0.382661 0 0.02 0.382661 0 0.04 0.382661 0 0.06 0.382661 0 0.08 0.382661 0 0.1 0.382661 0 0 0.388654 0 0.02 0.388654 0 0.04 0.388654 0 0.06 0.388654 0 0.08 0.388654 0 0.1 0.388654 0 0 0.394856 0 0.02 0.394856 0 0.04 0.394856 0 0.06 0.394856 0 0.08 0.394856 0 0.1 0.394856 0 0 0.401286 0 0.02 0.401286 0 0.04 0.401286 0 0.06 0.401286 0 0.08 0.401286 0 0.1 0.401286 0 0 0.407966 0 0.02 0.407966 0 0.04 0.407966 0 0.06 0.407966 0 0.08 0.407966 0 0.1 0.407966 0 0 0.414918 0 0.02 0.414918 0 0.04 0.414918 0 0.06 0.414918 0 0.08 0.414918 0 0.1 0.414918 0 0 0.422169 0 0.02 0.422169 0 0.04 0.422169 0 0.06 0.422169 0 0.08 0.422169 0 0.1 0.422169 0 0 0.429748 0 0.02 0.429748 0 0.04 0.429748 0 0.06 0.429748 0 0.08 0.429748 0 0.1 0.429748 0 0 0.437691 0 0.02 0.437691 0 0.04 0.437691 0 0.06 0.437691 0 0.08 0.437691 0 0.1 0.437691 0 0 0.446036 0 0.02 0.446036 0 0.04 0.446036 0 0.06 0.446036 0 0.08 0.446036 0 0.1 0.446036 0 0 0.45483 0 0.02 0.45483 0 0.04 0.45483 0 0.06 0.45483 0 0.08 0.45483 0 0.1 0.45483 0 0 0.464125 0 0.02 0.464125 0 0.04 0.464125 0 0.06 0.464125 0 0.08 0.464125 0 0.1 0.464125 0 0 0.473979 0 0.02 0.473979 0 0.04 0.473979 0 0.06 0.473979 0 0.08 0.473979 0 0.1 0.473979 0 0 0.484453 0 0.02 0.484453 0 0.04 0.484453 0 0.06 0.484453 0 0.08 0.484453 0 0.1 0.484453 0 0 0.495598 0 0.02 0.495598 0 0.04 0.495598 0 0.06 0.495598 0 0.08 0.495598 0 0.1 0.495598 0 0 0.507396 0 0.02 0.507396 0 0.04 0.507396 0 0.06 0.507396 0 0.08 0.507396 0 0.1 0.507396 0 0 0.519603 0 0.02 0.519603 0 0.04 0.519603 0 0.06 0.519603 0 0.08 0.519603 0 0.1 0.519603 0 0 0.53175 0 0.02 0.53175 0 0.04 0.53175 0 0.06 0.53175 0 0.08 0.53175 0 0.1 0.53175 0 0 0.543755 0 0.02 0.543755 0 0.04 0.543755 0 0.06 0.543755 0 0.08 0.543755 0 0.1 0.543755 0 0 0.555636 0 0.02 0.555636 0 0.04 0.555636 0 0.06 0.555636 0 0.08 0.555636 0 0.1 0.555636 0 0 0.567441 0 0.02 0.567441 0 0.04 0.567441 0 0.06 0.567441 0 0.08 0.567441 0 0.1 0.567441 0 0 0.579211 0 0.02 0.579211 0 0.04 0.579211 0 0.06 0.579211 0 0.08 0.579211 0 0.1 0.579211 0 0 0.590968 0 0.02 0.590968 0 0.04 0.590968 0 0.06 0.590968 0 0.08 0.590968 0 0.1 0.590968 0 0 0.602721 0 0.02 0.602721 0 0.04 0.602721 0 0.06 0.602721 0 0.08 0.602721 0 0.1 0.602721 0 0 0.614482 0 0.02 0.614482 0 0.04 0.614482 0 0.06 0.614482 0 0.08 0.614482 0 0.1 0.614482 0 0 0.617096 0 0.02 0.617096 0 0.04 0.617096 0 0.06 0.617096 0 0.08 0.617096 0 0.1 0.617096 0 0 0.619636 0 0.02 0.619636 0 0.04 0.619636 0 0.06 0.619636 0 0.08 0.619636 0 0.1 0.619636 0 0 0.622128 0 0.02 0.622128 0 0.04 0.622128 0 0.06 0.622128 0 0.08 0.622128 0 0.1 0.622128 0 0 0.62459 0 0.02 0.62459 0 0.04 0.62459 0 0.06 0.62459 0 0.08 0.62459 0 0.1 0.62459 0 0 0.627029 0 0.02 0.627029 0 0.04 0.627029 0 0.06 0.627029 0 0.08 0.627029 0 0.1 0.627029 0 0 0.629452 0 0.02 0.629452 0 0.04 0.629452 0 0.06 0.629452 0 0.08 0.629452 0 0.1 0.629452 0 0 0.631862 0 0.02 0.631862 0 0.04 0.631862 0 0.06 0.631862 0 0.08 0.631862 0 0.1 0.631862 0 0 0.634264 0 0.02 0.634264 0 0.04 0.634264 0 0.06 0.634264 0 0.08 0.634264 0 0.1 0.634264 0 0 0.636658 0 0.02 0.636658 0 0.04 0.636658 0 0.06 0.636658 0 0.08 0.636658 0 0.1 0.636658 0 0 0.639048 0 0.02 0.639048 0 0.04 0.639048 0 0.06 0.639048 0 0.08 0.639048 0 0.1 0.639048 0 0 0.641433 0 0.02 0.641433 0 0.04 0.641433 0 0.06 0.641433 0 0.08 0.641433 0 0.1 0.641433 0 0 0.643814 0 0.02 0.643814 0 0.04 0.643814 0 0.06 0.643814 0 0.08 0.643814 0 0.1 0.643814 0 0 0.646193 0 0.02 0.646193 0 0.04 0.646193 0 0.06 0.646193 0 0.08 0.646193 0 0.1 0.646193 0 0 0.648568 0 0.02 0.648568 0 0.04 0.648568 0 0.06 0.648568 0 0.08 0.648568 0 0.1 0.648568 0 0 0.65094 0 0.02 0.65094 0 0.04 0.65094 0 0.06 0.65094 0 0.08 0.65094 0 0.1 0.65094 0 0 0.653309 0 0.02 0.653309 0 0.04 0.653309 0 0.06 0.653309 0 0.08 0.653309 0 0.1 0.653309 0 0 0.655676 0 0.02 0.655676 0 0.04 0.655676 0 0.06 0.655676 0 0.08 0.655676 0 0.1 0.655676 0 0 0.658041 0 0.02 0.658041 0 0.04 0.658041 0 0.06 0.658041 0 0.08 0.658041 0 0.1 0.658041 0 0 0.660405 0 0.02 0.660405 0 0.04 0.660405 0 0.06 0.660405 0 0.08 0.660405 0 0.1 0.660405 0 0 0.662767 0 0.02 0.662767 0 0.04 0.662767 0 0.06 0.662767 0 0.08 0.662767 0 0.1 0.662767 0 0 0.665128 0 0.02 0.665128 0 0.04 0.665128 0 0.06 0.665128 0 0.08 0.665128 0 0.1 0.665128 0 0 0.667489 0 0.02 0.667489 0 0.04
[...]
			<PointData Scalars="VitesseX">
				<DataArray Name="VitesseX" type="Float32" format="ascii">
 0 -5.25579e-15 -6.14863e-15 -6.14264e-15 -7.42526e-15 0 0 -5.17474e-15 -5.95118e-15 -6.42594e-15 -7.14538e-15 0 0 -4.5775e-15 -5.98885e-15 -6.27355e-15 -6.90704e-15 0 0 -3.89231e-15 -5.78659e-15 -5.64804e-15 -7.44168e-15 0 0 -3.04729e-15 -6.01289e-15 -4.84339e-15 -8.49934e-15 0 0 -2.1127e-15 -5.46427e-15 -6.55901e-15 -7.60574e-15 0 0 -1.08375e-15 -5.05392e-15 -7.30374e-15 -8.11451e-15 0 0 -2.74772e-16 -5.79263e-15 -5.35459e-15 -9.77698e-15 0 0 1.28562e-16 -6.37899e-15 -4.02132e-15 -1.02177e-14 0 0 -5.37967e-16 -5.75163e-15 -5.68468e-15 -1.03818e-14 0 0 -8.63629e-16 -6.42813e-15 -8.46191e-15 -5.43405e-15 0 0 -1.04096e-15 -7.01869e-15 -1.01987e-14 -1.8112e-15 0 0 -1.5883e-15 -5.4344e-15 -1.35372e-14 -1.77209e-15 0 0 -2.25621e-15 -6.51319e-15 -1.04261e-14 -5.62326e-15 0 0 -3.5395e-15 -1.14878e-14 -3.47006e-15 -1.05728e-14 0 0 -4.6253e-15 -1.07851e-14 -6.90128e-15 -6.61958e-15 0 0 -2.3324e-15 -1.0072e-14 -4.49835e-15 -6.24885e-15 0 0 1.81787e-15 -1.39837e-14 4.26806e-15 -8.56614e-15 0 0 -3.48488e-15 -5.82358e-15 1.86004e-15 -2.53383e-15 0 0 -6.99455e-15 -6.60001e-16 4.66597e-15 -8.39659e-16 0 0 -2.58991e-15 -3.32136e-15 9.65845e-15 -1.5104e-15 0 0 -2.84668e-15 -2.89143e-15 1.34565e-14 -8.69034e-16 0 0 -4.68299e-15 -1.08878e-15 1.49326e-14 1.50884e-15 0 0 -2.39344e-15 -1.70978e-15 1.50801e-14 3.31552e-15 0 0 -1.6308e-15 -1.41313e-15 1.44864e-14 6.48614e-15 0 0 -2.13549e-15 1.20769e-16 1.12365e-14 1.35262e-14 0 0 1.72209e-16 -1.72895e-15 9.33707e-15 1.90806e-14 0 0 6.7139e-16 -1.75664e-15 9.92926e-15 1.90924e-14 0 0 8.8573e-16 -2.60557e-15 1.82399e-14 1.20535e-14 0 0 2.20861e-15 5.99106e-15 1.03517e-14 1.39899e-14 0 0 6.57836e-15 9.78736e-15 5.78367e-15 1.21558e-14 0 0 1.10551e-14 2.9752e-15 9.61909e-15 -2.42175e-15 0 0 8.24336e-15 8.61165e-15 2.91854e-15 -1.66061e-14 0 0 4.92914e-15 1.13545e-14 4.03288e-15 -2.08049e-14 0 0 3.08901e-15 8.35889e-15 4.38613e-15 -1.78769e-14 0 0 5.26696e-15 4.75374e-15 4.70205e-16 -2.05236e-14 0 0 9.49608e-15 3.3198e-15 -8.52624e-15 -1.13939e-14 0 0 8.29418e-15 6.32811e-15 -1.76395e-14 1.96907e-15 0 0 7.42821e-15 2.38799e-15 -1.1587e-14 -3.95607e-17 0 0 9.37619e-15 -1.64124e-15 -1.10228e-15 -1.00168e-14 0 0 8.64038e-15 -7.07558e-17 6.63286e-15 -1.87275e-14 0 0 4.51921e-15 7.8061e-15 5.07638e-15 -2.28881e-14 0 0 2.69006e-15 1.14967e-14 4.20386e-15 -2.04866e-14 0 0 5.11764e-15 8.09161e-15 9.22235e-15 -1.51861e-14 0 0 8.98078e-15 3.06759e-15 1.85268e-15 3.11111e-15 0 0 5.4588e-15 7.17736e-15 -1.01765e-14 2.47558e-14 0 0 2.34245e-15 1.2766e-14 -1.24252e-14 1.73604e-14 0 0 8.76988e-15 5.74618e-16 1.15695e-14 -3.27966e-15 0 0 6.7437e-15 -1.95676e-15 3.22817e-14 -3.54689e-15 0 0 -4.46803e-15 8.64286e-15 3.69608e-14 -2.6717e-15 0 0 -9.89341e-15 1.54578e-14 3.58965e-14 -3.77169e-16 0 0 2.32459e-15 6.16044e-15 3.04447e-14 9.11836e-15 0 0 1.80797e-14 -3.07195e-15 2.11557e-14 1.63317e-14 0 0 1.99233e-14 1.43132e-14 8.82297e-15 1.75267e-14 0 0 2.58016e-14 3.55634e-14 1.16086e-14 3.34661e-15 0 0 4.37091e-14 4.66678e-14 1.62843e-14 -1.45331e-15 0 0 5.47556e-14 5.22067e-14 1.84785e-14 1.29392e-14 0 0 5.02572e-14 5.83355e-14 2.58917e-14 4.20352e-14 0 0 4.5255e-14 6.51662e-14 3.26258e-14 4.14653e-14 0 0 3.47151e-14 8.31467e-14 2.93492e-14 2.89178e-14 0 0 3.74104e-14 8.31533e-14 2.9844e-14 3.88328e-14 0 0 4.60906e-14 6.92239e-14 2.33592e-14 4.99576e-14 0 0 4.83233e-14 6.25052e-14 9.3716e-15 6.89591e-14 0 0 4.11925e-14 4.51958e-14 2.4813e-14 6.40941e-14 0 0 2.26343e-14 3.55399e-14 4.71747e-14 3.99255e-14 0 0 2.01462e-15 5.27116e-14 2.94662e-14 4.40733e-14 0 0 -9.94007e-15 5.87046e-14 1.48646e-14 6.24175e-14 0 0 7.41994e-15 2.97954e-14 3.46175e-14 5.67059e-14 0 0 1.82457e-14 5.46003e-16 5.71059e-14 4.8821e-14 0 0 8.89285e-15 8.4381e-15 4.10216e-14 7.19787e-14 0 0 1.06627e-14 2.43776e-14 2.79563e-14 6.84843e-14 0 0 -1.29928e-14 2.49668e-14 3.673e-14 4.17597e-14 0 0 -2.29544e-14 2.61054e-14 3.99742e-14 3.10085e-14 0 0 7.65475e-15 1.51901e-14 3.26125e-14 4.62605e-14 0 0 2.4131e-14 1.63008e-14 1.97034e-14 4.89318e-14 0 0 2.10408e-14 2.24058e-14 2.0415e-14 3.9259e-14 0 0 1.74645e-14 1.07817e-14 2.76416e-14 3.92693e-14 0 0 2.80367e-15 6.39552e-15 4.57067e-14 2.61683e-14 0 0 -3.66501e-15 2.41645e-14 3.55202e-14 2.71405e-14 0 0 5.36529e-15 2.74987e-14 1.70499e-14 2.70252e-14 0 0 1.5857e-14 1.21014e-14 1.49256e-14 1.93872e-14 0 0 3.10404e-14 1.33135e-14 -5.03203e-15 2.30862e-14 0 0 1.39316e-14 2.18479e-14 4.61267e-15 9.4434e-15 0 0 7.02374e-15 2.30945e-14 2.4802e-14 1.17563e-14 0 0 1.9973e-14 1.98155e-14 2.28543e-14 1.15817e-14 0 0 2.27737e-14 1.39547e-14 1.80208e-14 1.03451e-14 0 0 1.56938e-14 3.06969e-14 5.09049e-15 2.67136e-14 0 0 7.43226e-15 2.95957e-14 -4.40609e-15 2.18949e-14 0 0 6.26316e-15 1.12806e-14 5.86752e-15 9.67682e-15 0 0 1.30583e-14 -1.2924e-14 7.37391e-15 -2.00458e-14 0 0 -5.14214e-15 -1.66794e-14 -7.11055e-16 1.02459e-14 0 0 -2.27363e-14 1.5353e-14 3.3506e-15 2.36562e-14 0 0 -1.19305e-15 1.3926e-14 6.19922e-15 -2.2419e-15 0 0 1.23267e-16 -2.20643e-14 -3.30832e-15 -7.0714e-17 0 0 -3.8829e-14 -5.6699e-14 -5.62548e-14 -1.50287e-14 0 0 -7.22044e-14 -9.89462e-14 -1.13785e-13 -5.99546e-14 0 0 -9.0144e-14 -1.43279e-13 -1.48104e-13 -8.55764e-14 0 0 -1.00475e-13 -1.48673e-13 -1.47333e-13 -9.43281e-14 0 0 -7.40616e-14 -1.24352e-13 -1.16731e-13 -8.48535e-14 0 0 -4.9577e-14 -9.95974e-14 -1.09579e-13 -6.45831e-14 0 0 -5.51772e-14 -9.49317e-14 -1.21088e-13 -7.69228e-14 0 0 -1.05853e-13 -1.8253e-13 -1.43888e-13 -1.6099e-13 0 0 -8.93201e-14 -1.78207e-13 -1.62081e-13 -1.42383e-13 0 0 -9.22334e-14 -1.79699e-13 -1.76628e-13 -1.42196e-13 0 0 -1.10164e-13 -1.79033e-13 -1.39553e-13 -1.73518e-13 0 0 -1.21896e-13 -2.03287e-13 -1.63658e-13 -1.371e-13 0 0 -1.31918e-13 -2.1434e-13 -1.96219e-13 -1.37922e-13 0 0 -1.3498e-13 -1.61096e-13 -1.81746e-13 -1.24524e-13 0 0 -9.84422e-14 -8.68739e-14 -1.09098e-13 -6.31722e-14 0 0 1.83659e-15 8.56077e-14 1.45979e-14 1.5108e-14 0 0 1.15949e-13 2.94145e-13 2.39548e-13 1.27561e-13 0 0 2.45228e-13 4.22102e-13 4.0847e-13 2.42631e-13 0 0 3.25781e-13 4.81106e-13 5.08298e-13 2.82929e-13 0 0 3.17094e-13 4.75152e-13 5.60462e-13 2.67242e-13 0 0 2.86599e-13 4.27718e-13 5.03257e-13 2.12401e-13 0 0 2.45715e-13 3.59632e-13 4.19811e-13 1.84736e-13 0 0 2.00031e-13 3.07547e-13 3.35893e-13 1.67677e-13 0 0 1.82592e-13 2.06045e-13 2.60507e-13 1.35664e-13 0 0 1.50275e-13 1.4831e-13 2.07806e-13 1.09681e-13 0 0 1.04869e-13 1.02884e-13 1.37579e-13 1.0584e-13 0 0 5.42712e-14 7.0031e-14 4.85534e-14 1.23344e-13 0 0 1.09023e-14 4.15392e-14 4.4445e-15 8.12388e-14 0 0 -3.05208e-15 -1.00585e-14 -3.31426e-14 8.13763e-14 0 0 -1.98345e-14 -1.28766e-14 -1.39418e-13 9.77134e-14 0 0 -3.41602e-14 -6.73263e-15 -1.70253e-13 4.19564e-14 0 0 -3.97948e-14 -2.90793e-14 -2.15434e-13 3.46876e-15 0 0 -3.62345e-14 -9.38442e-14 -2.41314e-13 3.13362e-14 0 0 -1.49172e-14 -1.52379e-13 -2.27154e-13 3.3547e-14 0 0 -2.57089e-15 -2.33081e-13 -2.05591e-13 -4.58207e-14 0 0 -3.70413e-14 -2.68971e-13 -1.88933e-13 -7.49465e-14 0 0 -1.16744e-13 -2.16344e-13 -3.06716e-13 -5.56684e-14 0 0 -1.39326e-13 -2.03724e-13 -4.15384e-13 -7.42397e-14 0 0 -1.61147e-13 -2.22124e-13 -4.4646e-13 -1.93287e-13 0 0 -2.31095e-13 -2.41888e-13 -4.58292e-13 -2.71398e-13 0 0 -2.20987e-13 -3.42452e-13 -4.15035e-13 -2.05865e-13 0 0 -2.12523e-13 -4.1912e-13 -3.71315e-13 -1.26205e-13 0 0 -2.62156e-13 -3.74153e-13 -3.42762e-13 -1.73748e-13 0 0 -2.49516e-13 -3.75318e-13 -3.08244e-13 -2.53688e-13 0 0 -2.10556e-13 -3.58647e-13 -3.59736e-13 -2.28442e-13 0 0 -2.26913e-13 -3.18056e-13 -4.54134e-13 -3.39944e-13 0 0 -2.12364e-13 -3.17234e-13 -4.5126e-13 -4.68841e-13 0 0 -1.89434e-13 -3.33973e-13 -4.10217e-13 -3.72364e-13 0 0 -1.46598e-13 -3.03215e-13 -3.50603e-13 -2.52971e-13 0 0 -1.07664e-13 -2.30272e-13 -2.16562e-13 -2.47903e-13 0 0 -7.07438e-14 -1.44939e-13 -1.11642e-13 -1.6231e-13 0 0 -2.81166e-14 -5.44445e-14 -6.66924e-14 -4.78539e-14 0 0 2.25873e-14 1.84405e-14 4.1994e-14 3.2391e-15 0 0 5.45485e-14 6.55398e-14 9.7784e-14 3.4223e-14 0 0 5.15119e-14 1.23126e-13 1.18046e-13 8.70655e-14 0 0 6.77384e-14 1.38261e-13 1.44653e-13 8.82251e-14 0 0 7.22403e-14 1.45024e-13 1.61739e-13 1.05456e-13 0 0 6.86329e-14 1.73112e-13 1.59986e-13 1.12459e-13 0 0 7.13497e-14 1.77602e-13 1.89377e-13 1.16025e-13 0 0 7.62688e-14 1.90251e-13 1.8118e-13 1.49505e-13 0 0 8.91988e-14 1.84723e-13 1.77583e-13 1.52235e-13 0 0 9.04971e-14 1.80917e-13 2.07611e-13 1.5135e-13 0 0 8.10146e-14 2.11614e-13 1.93363e-13 1.43791e-13 0 0 9.69918e-14 1.96493e-13 2.14337e-13 1.34083e-13 0 0 1.12019e-13 1.96049e-13 2.38111e-13 8.49417e-14 0 0 1.03717e-13 2.18175e-13 2.14966e-13 8.67316e-14 0 0 1.23563e-13 1.93934e-13 2.03221e-13 1.25936e-13 0 0 1.48734e-13 1.79188e-13 1.76384e-13 1.26243e-13 0 0 1.5115e-13 1.61764e-13 1.5816e-13 1.18887e-13 0 0 1.49976e-13 1.57148e-13 1.70685e-13 8.61482e-14 0 0 1.61226e-13 1.76605e-13 1.45717e-13 6.20685e-14 0 0 1.80389e-13 1.64507e-13 1.24599e-13 3.81315e-14 0 0 1.74576e-13 1.58786e-13 1.44023e-13 -8.86538e-15 0 0 1.42366e-13 1.813e-13 1.04656e-13 2.87822e-14 0 0 1.18837e-13 1.77414e-13 9.58742e-14 2.03019e-14 0 0 1.12253e-13 1.46008e-13 1.05656e-13 3.40496e-16 0 0 1.06973e-13 1.01355e-13 1.23275e-13 5.50434e-14 0 0 9.15471e-14 9.9244e-14 1.11605e-13 7.00349e-14 0 0 6.82269e-14 1.48671e-13 1.66842e-14 1.2492e-13 0 0 1.01139e-13 1.21952e-13 1.20101e-15 1.40972e-13 0 0 1.20828e-13 6.85885e-14 7.35848e-14 4.66804e-14 0 0 7.43638e-14 8.92661e-14 1.04668e-13 2.68078e-14 0 0 6.13556e-14 1.16896e-13 8.45189e-14 4.53634e-14 0 0 7.21752e-14 1.09711e-13 5.97704e-14 1.2746e-14 0 0 6.25041e-14 1.06904e-13 1.84536e-14 3.83738e-14 0 0 7.44396e-14 8.08567e-14 3.25234e-14 4.70097e-14 0 0 8.75288e-14 7.64193e-14 5.03207e-14 -5.53244e-15 0 0 6.41092e-14 8.21539e-14 6.98831e-14 -2.97495e-14 0 0 4.92913e-14 6.31569e-14 7.99001e-14 1.07605e-14 0 0 3.53997e-14 8.93342e-14 3.43808e-14 8.08907e-14 0 0 1.38672e-14 1.0765e-13 3.19538e-14 9.45026e-14 0 0 1.65867e-14 7.28764e-14 5.83775e-14 7.05092e-14 0 0 2.75725e-14 4.74195e-14 4.58802e-14 4.83642e-14 0 0 4.94202e-15 6.052e-14 -6.02991e-15 7.19834e-14 0 0 2.63373e-14 4.32004e-14 -4.24302e-14 9.08922e-14 0 0 3.83747e-14 2.89689e-14 -3.11693e-14 5.79559e-14 0 0 5.6084e-15 5.2598e-15 5.14658e-14 6.3765e-15 0 0 1.24738e-14 -2.7867e-14 1.11456e-13 -8.37475e-15 0 0 2.89703e-14 3.87693e-15 4.2328e-14 4.11712e-14 0 0 6.36133e-14 1.03294e-16 1.27379e-14 2.82724e-14 0 0 7.48445e-14 -1.08581e-14 2.64674e-14 2.703e-14 0 0 6.17165e-14 2.08616e-14 3.15332e-14 -5.71595e-15 0 0 6.22324e-14 4.91197e-14 1.41713e-14 -2.5038e-14 0 0 6.67159e-14 5.87852e-14 4.00423e-15 7.51873e-15 0 0 6.38933e-14 5.11012e-14 2.89161e-14 6.97924e-15 0 0 5.05481e-14 5.95431e-14 2.22792e-14 1.55533e-14 0 0 4.67832e-14 6.67661e-14 1.85645e-14 1.30237e-14 0
				</DataArray>
				<DataArray Name="VitesseY" type="Float32" format="ascii">