<?xml version="1.0"?>
<VTKFile type="PolyData">
	<PolyData>
		<Piece NumberOfPoints="1206" NumberOfPolys="1000">
			<Points>
				<DataArray type="Float32" NumberOfComponents="3" format="ascii">
 0 0 0 0.02 0 0 0.04 0 0 0.06 0 0 0.08 0 0 0.1 0 0 0 0.005 0 0.02 0.005 0 0.04 0.005 0 0.06 0.005 0 0.08 0.005 0 0.1 0.005 0 0 0.01 0 0.02 0.01 0 0.04 0.01 0 0.06 0.01 0 0.08 0.01 0 0.1 0.01 0 0 0.015 0 0.02 0.015 0 0.04 0.015 0 0.06 0.015 0 0.08 0.015 0 0.1 0.015 0 0 0.02 0 0.02 0.02 0 0.04 0.02 0 0.06 0.02 0 0.08 0.02 0 0.1 0.02 0 0 0.025 0 0.02 0.025 0 0.04 0.025 0 0.06 0.025 0 0.08 0.025 0 0.1 0.025 0 0 0.03 0 0.02 0.03 0 0.04 0.03 0 0.06 0.03 0 0.08 0.03 0 0.1 0.03 0 0 0.035 0 0.02 0.035 0 0.04 0.035 0 0.06 0.035 0 0.08 0.035 0 0.1 0.035 0 0 0.04 0 0.02 0.04 0 0.04 0.04 0 0.06 0.04 0 0.08 0.04 0 0.1 0.04 0 0 0.045 0 0.02 0.045 0 0.04 0.045 0 0.06 0.045 0 0.08 0.045 0 0.1 0.045 0 0 0.05 0 0.02 0.05 0 0.04 0.05 0 0.06 0.05 0 0.08 0.05 0 0.1 0.05 0 0 0.055 0 0.02 0.055 0 0.04 0.055 0 0.06 0.055 0 0.08 0.055 0 0.1 0.055 0 0 0.06 0 0.02 0.06 0 0.04 0.06 0 0.06 0.06 0 0.08 0.06 0 0.1 0.06 0 0 0.065 0 0.02 0.065 0 0.04 0.065 0 0.06 0.065 0 0.08 0.065 0 0.1 0.065 0 0 0.07 0 0.02 0.07 0 0.04 0.07 0 0.06 0.07 0 0.08 0.07 0 0.1 0.07 0 0 0.075 0 0.02 0.075 0 0.04 0.075 0 0.06 0.075 0 0.08 0.075 0 0.1 0.075 0 0 0.08 0 0.02 0.08 0 0.04 0.08 0 0.06 0.08 0 0.08 0.08 0 0.1 0.08 0 0 0.085 0 0.02 0.085 0 0.04 0.085 0 0.06 0.085 0 0.08 0.085 0 0.1 0.085 0 0 0.09 0 0.02 0.09 0 0.04 0.09 0 0.06 0.09 0 0.08 0.09 0 0.1 0.09 0 0 0.095 0 0.02 0.095 0 0.04 0.095 0 0.06 0.095 0 0.08 0.095 0 0.1 0.095 0 0 0.1 0 0.02 0.1 0 0.04 0.1 0 0.06 0.1 0 0.08 0.1 0 0.1 0.1 0 0 0.105 0 0.02 0.105 0 0.04 0.105 0 0.06 0.105 0 0.08 0.105 0 0.1 0.105 0 0 0.11 0 0.02 0.11 0 0.04 0.11 0 0.06 0.11 0 0.08 0.11 0 0.1 0.11 0 0 0.115 0 0.02 0.115 0 0.04 0.115 0 0.06 0.115 0 0.08 0.115 0 0.1 0.115 0 0 0.12 0 0.02 0.12 0 0.04 0.12 0 0.06 0.12 0 0.08 0.12 0 0.1 0.12 0 0 0.125 0 0.02 0.125 0 0.04 0.125 0 0.06 0.125 0 0.08 0.125 0 0.1 0.125 0 0 0.13 0 0.02 0.13 0 0.04 0.13 0 0.06 0.13 0 0.08 0.13 0 0.1 0.13 0 0 0.135 0 0.02 0.135 0 0.04 0.135 0 0.06 0.135 0 0.08 0.135 0 0.1 0.135 0 0 0.14 0 0.02 0.14 0 0.04 0.14 0 0.06 0.14 0 0.08 0.14 0 0.1 0.14 0 0 0.145 0 0.02 0.145 0 0.04 0.145 0 0.06 0.145 0 0.08 0.145 0 0.1 0.145 0 0 0.15 0 0.02 0.15 0 0.04 0.15 0 0.06 0.15 0 0.08 0.15 0 0.1 0.15 0 0 0.155 0 0.02 0.155 0 0.04 0.155 0 0.06 0.155 0 0.08 0.155 0 0.1 0.155 0 0 0.16 0 0.02 0.16 0 0.04 0.16 0 0.06 0.16 0 0.08 0.16 0 0.1 0.16 0 0 0.165 0 0.02 0.165 0 0.04 0.165 0 0.06 0.165 0 0.08 0.165 0 0.1 0.165 0 0 0.17 0 0.02 0.17 0 0.04 0.17 0 0.06 0.17 0 0.08 0.17 0 0.1 0.17 0 0 0.175 0 0.02 0.175 0 0.04 0.175 0 0.06 0.175 0 0.08 0.175 0 0.1 0.175 0 0 0.18 0 0.02 0.18 0 0.04 0.18 0 0.06 0.18 0 0.08 0.18 0 0.1 0.18 0 0 0.185 0 0.02 0.185 0 0.04 0.185 0 0.06 0.185 0 0.08 0.185 0 0.1 0.185 0 0 0.19 0 0.02 0.19 0 0.04 0.19 0 0.06 0.19 0 0.08 0.19 0 0.1 0.19 0 0 0.195 0 0.02 0.195 0 0.04 0.195 0 0.06 0.195 0 0.08 0.195 0 0.1 0.195 0 0 0.2 0 0.02 0.2 0 0.04 0.2 0 0.06 0.2 0 0.08 0.2 0 0.1 0.2 0 0 0.205 0 0.02 0.205 0 0.04 0.205 0 0.06 0.205 0 0.08 0.205 0 0.1 0.205 0 0 0.21 0 0.02 0.21 0 0.04 0.21 0 0.06 0.21 0 0.08 0.21 0 0.1 0.21 0 0 0.215 0 0.02 0.215 0 0.04 0.215 0 0.06 0.215 0 0.08 0.215 0 0.1 0.215 0 0 0.22 0 0.02 0.22 0 0.04 0.22 0 0.06 0.22 0 0.08 0.22 0 0.1 0.22 0 0 0.225 0 0.02 0.225 0 0.04 0.225 0 0.06 0.225 0 0.08 0.225 0 0.1 0.225 0 0 0.23 0 0.02 0.23 0 0.04 0.23 0 0.06 0.23 0 0.08 0.23 0 0.1 0.23 0 0 0.235 0 0.02 0.235 0 0.04 0.235 0 0.06 0.235 0 0.08 0.235 0 0.1 0.235 0 0 0.24 0 0.02 0.24 0 0.04 0.24 0 0.06 0.24 0 0.08 0.24 0 0.1 0.24 0 0 0.245 0 0.02 0.245 0 0.04 0.245 0 0.06 0.245 0 0.08 0.245 0 0.1 0.245 0 0 0.250001 0 0.02 0.250001 0 0.04 0.250001 0 0.06 0.250001 0 0.08 0.250001 0 0.1 0.250001 0 0 0.255002 0 0.02 0.255002 0 0.04 0.255002 0 0.06 0.255002 0 0.08 0.255002 0 0.1 0.255002 0 0 0.260007 0 0.02 0.260007 0 0.04 0.260007 0 0.06 0.260007 0 0.08 0.260007 0 0.1 0.260007 0 0 0.265017 0 0.02 0.265017 0 0.04 0.265017 0 0.06 0.265017 0 0.08 0.265017 0 0.1 0.265017 0 0 0.27004 0 0.02 0.27004 0 0.04 0.27004 0 0.06 0.27004 0 0.08 0.27004 0 0.1 0.27004 0 0 0.275086 0 0.02 0.275086 0 0.04 0.275086 0 0.06 0.275086 0 0.08 0.275086 0 0.1 0.275086 0 0 0.280169 0 0.02 0.280169 0 0.04 0.280169 0 0.06 0.280169 0 0.08 0.280169 0 0.1 0.280169 0 0 0.285304 0 0.02 0.285304 0 0.04 0.285304 0 0.06 0.285304 0 0.08 0.285304 0 0.1 0.285304 0 0 0.290508 0 0.02 0.290508 0 0.04 0.290508 0 0.06 0.290508 0 0.08 0.290508 0 0.1 0.290508 0 0 0.295795 0 0.02 0.295795 0 0.04 0.295795 0 0.06 0.295795 0 0.08 0.295795 0 0.1 0.295795 0 0 0.301174 0 0.02 0.301174 0 0.04 0.301174 0 0.06 0.301174 0 0.08 0.301174 0 0.1 0.301174 0 0 0.306656 0 0.02 0.306656 0 0.04 0.306656 0 0.06 0.306656 0 0.08 0.306656 0 0.1 0.306656 0 0 0.312247 0 0.02 0.312247 0 0.04 0.312247 0 0.06 0.312247 0 0.08 0.312247 0 0.1 0.312247 0 0 0.317955 0 0.02 0.317955 0 0.04 0.317955 0 0.06 0.317955 0 0.08 0.317955 0 0.1 0.317955 0 0 0.323787 0 0.02 0.323787 0 0.04 0.323787 0 0.06 0.323787 0 0.08 0.323787 0 0.1 0.323787 0 0 0.32975 0 0.02 0.32975 0 0.04 0.32975 0 0.06 0.32975 0 0.08 0.32975 0 0.1 0.32975 0 0 0.335852 0 0.02 0.335852 0 0.04 0.335852 0 0.06 0.335852 0 0.08 0.335852 0 0.1 0.335852 0 0 0.3421 0 0.02 0.3421 0 0.04 0.3421 0 0.06 0.3421 0 0.08 0.3421 0 0.1 0.3421 0 0 0.348503 0 0.02 0.348503 0 0.04 0.348503 0 0.06 0.348503 0 0.08 0.348503 0 0.1 0.348503 0 0 0.35507 0 0.02 0.35507 0 0.04 0.35507 0 0.06 0.35507 0 0.08 0.35507 0 0.1 0.35507 0 0 0.361811 0 0.02 0.361811 0 0.04 0.361811 0 0.06 0.361811 0 0.08 0.361811 0 0.1 0.361811 0 0 0.368736 0 0.02 0.368736 0 0.04 0.368736 0 0.06 0.368736 0 0.08 0.368736 0 0.1 0.368736 0 0 0.375858 0 0.02 0.375858 0 0.04 0.375858 0 0.06 0.375858 0 0.08 0.375858 0 0.1 0.375858 0 0 0.383189 0 0.02 0.383189 0 0.04 0.383189 0 0.06 0.383189 0 0.08 0.383189 0 0.1 0.383189 0 0 0.390743 0 0.02 0.390743 0 0.04 0.390743 0 0.06 0.390743 0 0.08 0.390743 0 0.1 0.390743 0 0 0.398536 0 0.02 0.398536 0 0.04 0.398536 0 0.06 0.398536 0 0.08 0.398536 0 0.1 0.398536 0 0 0.406584 0 0.02 0.406584 0 0.04 0.406584 0 0.06 0.406584 0 0.08 0.406584 0 0.1 0.406584 0 0 0.414906 0 0.02 0.414906 0 0.04 0.414906 0 0.06 0.414906 0 0.08 0.414906 0 0.1 0.414906 0 0 0.423524 0 0.02 0.423524 0 0.04 0.423524 0 0.06 0.423524 0 0.08 0.423524 0 0.1 0.423524 0 0 0.43246 0 0.02 0.43246 0 0.04 0.43246 0 0.06 0.43246 0 0.08 0.43246 0 0.1 0.43246 0 0 0.441739 0 0.02 0.441739 0 0.04 0.441739 0 0.06 0.441739 0 0.08 0.441739 0 0.1 0.441739 0 0 0.45139 0 0.02 0.45139 0 0.04 0.45139 0 0.06 0.45139 0 0.08 0.45139 0 0.1 0.45139 0 0 0.461443 0 0.02 0.461443 0 0.04 0.461443 0 0.06 0.461443 0 0.08 0.461443 0 0.1 0.461443 0 0 0.471927 0 0.02 0.471927 0 0.04 0.471927 0 0.06 0.471927 0 0.08 0.471927 0 0.1 0.471927 0 0 0.482871 0 0.02 0.482871 0 0.04 0.482871 0 0.06 0.482871 0 0.08 0.482871 0 0.1 0.482871 0 0 0.494286 0 0.02 0.494286 0 0.04 0.494286 0 0.06 0.494286 0 0.08 0.494286 0 0.1 0.494286 0 0 0.506138 0 0.02 0.506138 0 0.04 0.506138 0 0.06 0.506138 0 0.08 0.506138 0 0.1 0.506138 0 0 0.518259 0 0.02 0.518259 0 0.04 0.518259 0 0.06 0.518259 0 0.08 0.518259 0 0.1 0.518259 0 0 0.530355 0 0.02 0.530355 0 0.04 0.530355 0 0.06 0.530355 0 0.08 0.530355 0 0.1 0.530355 0 0 0.542363 0 0.02 0.542363 0 0.04 0.542363 0 0.06 0.542363 0 0.08 0.542363 0 0.1 0.542363 0 0 0.55428 0 0.02 0.55428 0 0.04 0.55428 0 0.06 0.55428 0 0.08 0.55428 0 0.1 0.55428 0 0 0.566122 0 0.02 0.566122 0 0.04 0.566122 0 0.06 0.566122 0 0.08 0.566122 0 0.1 0.566122 0 0 0.577914 0 0.02 0.577914 0 0.04 0.577914 0 0.06 0.577914 0 0.08 0.577914 0 0.1 0.577914 0 0 0.589677 0 0.02 0.589677 0 0.04 0.589677 0 0.06 0.589677 0 0.08 0.589677 0 0.1 0.589677 0 0 0.601425 0 0.02 0.601425 0 0.04 0.601425 0 0.06 0.601425 0 0.08 0.601425 0 0.1 0.601425 0 0 0.613167 0 0.02 0.613167 0 0.04 0.613167 0 0.06 0.613167 0 0.08 0.613167 0 0.1 0.613167 0 0 0.624905 0 0.02 0.624905 0 0.04 0.624905 0 0.06 0.624905 0 0.08 0.624905 0 0.1 0.624905 0 0 0.636641 0 0.02 0.636641 0 0.04 0.636641 0 0.06 0.636641 0 0.08 0.636641 0 0.1 0.636641 0 0 0.648378 0 0.02 0.648378 0 0.04 0.648378 0 0.06 0.648378 0 0.08 0.648378 0 0.1 0.648378 0 0 0.660117 0 0.02 0.660117 0 0.04 0.660117 0 0.06 0.660117 0 0.08 0.660117 0 0.1 0.660117 0 0 0.67187 0 0.02 0.67187 0 0.04 0.67187 0 0.06 0.67187 0 0.08 0.67187 0 0.1 0.67187 0 0 0.674482 0 0.02 0.674482 0 0.04 0.674482 0 0.06 0.674482 0 0.08 0.674482 0 0.1 0.674482 0 0 0.67702 0 0.02 0.67702 0 0.04 0.67702 0 0.06 0.67702 0 0.08 0.67702 0 0.1 0.67702 0 0 0.679512 0 0.02 0.679512 0 0.04 0.679512 0 0.06 0.679512 0 0.08 0.679512 0 0.1 0.679512 0 0 0.681972 0 0.02 0.681972 0 0.04 0.681972 0 0.06 0.681972 0 0.08 0.681972 0 0.1 0.681972 0 0 0.684409 0 0.02 0.684409 0 0.04 0.684409 0 0.06 0.684409 0 0.08 0.684409 0 0.1 0.684409 0 0 0.686831 0 0.02 0.686831 0 0.04 0.686831 0 0.06 0.686831 0 0.08 0.686831 0 0.1 0.686831 0 0 0.68924 0 0.02 0.68924 0 0.04 0.68924 0 0.06 0.68924 0 0.08 0.68924 0 0.1 0.68924 0 0 0.69164 0 0.02 0.69164 0 0.04 0.69164 0 0.06 0.69164 0 0.08 0.69164 0 0.1 0.69164 0 0 0.694034 0 0.02 0.694034 0 0.04 0.694034 0 0.06 0.694034 0 0.08 0.694034 0 0.1 0.694034 0 0 0.696422 0 0.02 0.696422 0 0.04 0.696422 0 0.06 0.696422 0 0.08 0.696422 0 0.1 0.696422 0 0 0.698805 0 0.02 0.698805 0 0.04 0.698805 0 0.06 0.698805 0 0.08 0.698805 0 0.1 0.698805 0 0 0.701186 0 0.02 0.701186 0 0.04 0.701186 0 0.06 0.701186 0 0.08 0.701186 0 0.1 0.701186 0 0 0.703563 0 0.02 0.703563 0 0.04 0.703563 0 0.06 0.703563 0 0.08 0.703563 0 0.1 0.703563 0 0 0.705937 0 0.02 0.705937 0 0.04 0.705937 0 0.06 0.705937 0 0.08 0.705937 0 0.1 0.705937 0 0 0.708307 0 0.02 0.708307 0 0.04 0.708307 0 0.06 0.708307 0 0.08 0.708307 0 0.1 0.708307 0 0 0.710675 0 0.02 0.710675 0 0.04 0.710675 0 0.06 0.710675 0 0.08 0.710675 0 0.1 0.710675 0 0 0.713041 0 0.02 0.713041 0 0.04 0.713041 0 0.06 0.713041 0 0.08 0.713041 0 0.1 0.713041 0 0 0.715405 0 0.02 0.715405 0 0.04 0.715405 0 0.06 0.715405 0 0.08 0.715405 0 0.1 0.715405 0 0 0.71776
[...]
			<PointData Scalars="VitesseX">
				<DataArray Name="VitesseX" type="Float32" format="ascii">
 0 3.20215e-15 5.05326e-15 2.66191e-15 6.46353e-15 0 0 3.0266e-15 5.3801e-15 3.34162e-15 6.1948e-15 0 0 2.49371e-15 5.65553e-15 5.79177e-15 6.2235e-15 0 0 1.79444e-15 6.01322e-15 7.73316e-15 8.39634e-15 0 0 2.29076e-15 6.18732e-15 7.97977e-15 1.18521e-14 0 0 3.66291e-15 6.63692e-15 7.63043e-15 1.35791e-14 0 0 4.78329e-15 9.13534e-15 6.12122e-15 1.34241e-14 0 0 6.57128e-15 1.03604e-14 5.59342e-15 1.23629e-14 0 0 8.35636e-15 9.20491e-15 5.84109e-15 1.1113e-14 0 0 9.51224e-15 7.55582e-15 5.0449e-15 1.04315e-14 0 0 9.36091e-15 6.92234e-15 3.20576e-15 9.7633e-15 0 0 7.63708e-15 7.70953e-15 9.91862e-16 6.55372e-15 0 0 6.84524e-15 6.14142e-15 2.6904e-15 1.23515e-15 0 0 5.66653e-15 5.07075e-15 4.65902e-15 -2.29873e-15 0 0 6.24121e-15 2.96306e-15 7.54057e-15 -7.29549e-15 0 0 8.03278e-15 6.24246e-16 9.74208e-15 -1.12015e-14 0 0 6.82431e-15 1.75215e-15 7.43111e-15 -1.20641e-14 0 0 6.07238e-15 7.81315e-17 5.27159e-15 -9.88897e-15 0 0 4.44898e-15 -2.99614e-15 6.21448e-15 -8.86395e-15 0 0 1.28187e-15 -1.62654e-15 5.12327e-15 -6.67163e-15 0 0 -9.53441e-16 -8.615e-16 -7.25287e-17 3.91277e-15 0 0 -1.99873e-15 -3.63549e-15 1.28492e-15 8.51132e-15 0 0 -3.59498e-16 -8.78562e-15 3.78265e-15 1.14224e-14 0 0 -1.29329e-15 -8.74511e-15 3.07312e-15 1.24611e-14 0 0 -4.11397e-15 -5.35249e-15 8.34559e-15 3.27057e-17 0 0 -5.71314e-15 -4.90393e-15 1.11774e-14 -1.70392e-15 0 0 -6.89721e-15 -3.92063e-15 4.67416e-15 1.34055e-14 0 0 -3.15198e-15 -8.49834e-15 5.86623e-15 1.72283e-14 0 0 -1.96313e-15 -5.27438e-15 3.51655e-15 1.11479e-14 0 0 -2.73341e-15 1.08948e-15 -1.28982e-15 9.65148e-15 0 0 -9.12447e-16 -3.14144e-15 7.23747e-15 9.17435e-15 0 0 5.16236e-16 -5.91951e-15 1.1126e-14 1.32216e-14 0 0 -1.29444e-15 -2.78358e-15 1.02855e-14 1.75088e-14 0 0 -5.91183e-15 2.88125e-15 1.18451e-14 1.75659e-14 0 0 -9.37115e-15 1.5007e-14 7.50654e-15 1.26027e-14 0 0 -8.322e-15 2.5559e-14 6.18362e-15 3.17795e-15 0 0 2.33477e-15 2.96883e-14 1.75047e-14 9.35779e-16 0 0 1.0225e-14 3.95839e-14 3.25295e-14 8.32256e-16 0 0 1.71001e-14 4.73598e-14 3.87612e-14 3.91612e-15 0 0 3.02535e-14 4.55099e-14 4.32915e-14 7.72622e-15 0 0 3.02128e-14 5.34267e-14 4.22842e-14 1.53968e-14 0 0 2.67312e-14 7.17587e-14 3.25438e-14 2.57281e-14 0 0 4.06452e-14 6.95733e-14 4.00128e-14 2.34752e-14 0 0 4.27199e-14 6.49701e-14 4.20522e-14 3.11939e-14 0 0 2.22148e-14 6.87003e-14 3.27173e-14 4.16339e-14 0 0 1.24803e-14 5.02882e-14 4.47082e-14 4.31903e-14 0 0 -5.1818e-16 2.64654e-14 6.10481e-14 4.0094e-14 0 0 -1.23059e-14 1.57368e-14 6.34295e-14 2.59713e-14 0 0 1.4628e-15 4.1469e-15 5.02571e-14 2.54271e-14 0 0 6.17381e-15 -6.84988e-15 3.46194e-14 2.47324e-14 0 0 -3.7688e-15 -1.8255e-14 3.41404e-14 5.93607e-15 0 0 -2.07378e-14 -4.99594e-15 1.43565e-14 3.48218e-15 0 0 -2.48141e-14 5.35145e-15 -1.13995e-14 1.303e-14 0 0 -2.02588e-14 -1.27563e-15 -2.24349e-14 8.7239e-15 0 0 -7.32767e-15 -3.57903e-15 -2.51801e-14 -1.62405e-14 0 0 7.098e-15 -1.00762e-14 -2.46969e-14 -3.73364e-14 0 0 1.30007e-14 -2.02495e-14 -2.41479e-14 -3.19728e-14 0 0 4.56888e-15 -9.21144e-15 -2.68728e-14 -3.29907e-14 0 0 -4.90805e-15 7.27806e-15 -4.97388e-14 -2.80233e-14 0 0 2.27079e-14 -1.09709e-14 -5.80812e-14 -1.51912e-14 0 0 2.72464e-14 -3.23272e-15 -6.85253e-14 -1.69571e-15 0 0 2.40403e-14 1.16824e-14 -8.07445e-14 2.96669e-15 0 0 2.50209e-14 2.50463e-15 -5.2729e-14 -1.85187e-14 0 0 1.14307e-14 5.01016e-16 -2.99115e-14 -1.21942e-14 0 0 8.53843e-15 1.70799e-14 -3.6505e-14 -2.42238e-14 0 0 2.83878e-14 7.33303e-15 -4.31955e-14 -3.38895e-14 0 0 3.12625e-14 -9.57035e-15 -4.8866e-14 6.43224e-15 0 0 2.89483e-15 -5.28405e-15 -2.79695e-14 -9.05474e-15 0 0 -1.85518e-14 -1.46712e-14 6.79881e-16 -2.68624e-14 0 0 -1.52715e-14 -1.10659e-14 -1.90209e-14 -1.00319e-14 0 0 1.91654e-15 -1.83554e-14 -3.51348e-14 2.96287e-15 0 0 -1.70098e-15 -3.0365e-14 -3.73183e-14 1.14296e-14 0 0 -2.22585e-15 -2.4446e-14 -4.26791e-14 1.20719e-15 0 0 -1.33938e-15 -2.44134e-14 -3.71557e-14 -5.80537e-15 0 0 -3.02121e-15 -3.68784e-14 -2.337e-14 -5.69349e-15 0 0 8.26199e-15 -2.35889e-14 -3.7596e-14 -1.19068e-14 0 0 2.29092e-14 -3.36336e-14 -3.64953e-14 -2.86655e-15 0 0 3.09284e-15 -4.27011e-14 -8.2714e-15 -9.23532e-15 0 0 -5.06987e-15 -8.5649e-15 -2.29576e-14 -1.34431e-14 0 0 1.22982e-15 -1.232e-14 -3.26178e-14 -2.11071e-15 0 0 4.7512e-15 -2.67061e-14 -2.686e-14 7.35206e-15 0 0 1.30111e-14 -1.33841e-14 -3.06754e-14 4.95653e-15 0 0 7.83585e-15 -9.94932e-15 -4.18852e-14 2.21797e-15 0 0 -1.51036e-15 -2.16368e-14 -1.96568e-14 -1.78365e-14 0 0 -2.14832e-14 -1.78411e-14 -1.39058e-15 -1.25352e-14 0 0 -1.92171e-14 -2.18145e-14 -6.79071e-15 1.72693e-14 0 0 -3.1875e-15 -7.22057e-15 -8.61937e-15 7.25937e-15 0 0 6.23988e-15 -7.90158e-15 -2.82732e-14 -1.09126e-14 0 0 -1.92788e-15 -2.24728e-14 -1.37766e-14 -6.4984e-15 0 0 -1.51661e-14 -2.19955e-14 -2.98342e-14 -3.0286e-14 0 0 -1.50129e-14 -3.01644e-14 -3.37598e-14 -2.21366e-14 0 0 -1.10653e-14 -3.14947e-14 -1.25409e-14 -2.01073e-14 0 0 -8.81054e-15 -1.57641e-14 -1.28553e-14 -1.75262e-14 0 0 3.36656e-15 1.05593e-14 1.5711e-14 -5.55682e-15 0 0 2.47945e-14 3.54554e-14 4.206e-14 7.51797e-15 0 0 3.10294e-14 6.13041e-14 5.53333e-14 3.1354e-14 0 0 4.32898e-14 6.41192e-14 6.59239e-14 4.02834e-14 0 0 3.96161e-14 6.67395e-14 6.91648e-14 4.33458e-14 0 0 3.56601e-14 6.46804e-14 6.30802e-14 2.66358e-14 0 0 3.02554e-14 4.01678e-14 3.88199e-14 1.67972e-14 0 0 6.13344e-15 3.90425e-14 1.86402e-14 4.18399e-15 0 0 -2.95892e-14 9.32081e-15 4.77536e-16 -5.04692e-14 0 0 -2.24433e-14 -2.8627e-15 -1.61611e-14 -1.26422e-14 0 0 -3.19468e-14 -1.41219e-14 -3.07415e-14 -5.6311e-14 0 0 -2.48868e-14 -1.02864e-14 -3.89282e-14 -6.0204e-14 0 0 -2.35677e-14 -4.5056e-14 -4.85068e-14 -4.65733e-14 0 0 -3.3637e-14 -6.89574e-14 -1.79746e-14 -4.2327e-14 0 0 -1.82363e-14 -4.97752e-14 -1.97521e-14 -1.22539e-14 0 0 1.56785e-14 2.184e-14 6.93998e-14 1.47784e-14 0 0 1.19039e-13 2.1536e-13 1.93357e-13 1.2158e-13 0 0 2.43202e-13 4.09353e-13 3.9872e-13 2.64584e-13 0 0 3.48679e-13 5.73019e-13 5.90068e-13 3.77114e-13 0 0 4.30652e-13 6.63908e-13 6.54836e-13 3.88843e-13 0 0 4.25171e-13 6.5324e-13 6.71738e-13 4.0763e-13 0 0 3.83405e-13 6.11823e-13 6.22802e-13 4.07461e-13 0 0 3.47906e-13 5.5249e-13 5.21571e-13 3.47587e-13 0 0 2.90912e-13 4.88223e-13 4.52494e-13 2.76205e-13 0 0 2.59444e-13 4.10187e-13 3.86195e-13 2.96747e-13 0 0 2.17791e-13 3.52403e-13 3.153e-13 3.05077e-13 0 0 1.58544e-13 3.14795e-13 2.712e-13 2.20378e-13 0 0 1.54778e-13 2.72633e-13 2.41066e-13 2.07815e-13 0 0 1.44998e-13 2.03258e-13 2.26948e-13 1.74453e-13 0 0 1.37598e-13 1.66061e-13 1.80228e-13 1.68293e-13 0 0 1.27995e-13 1.6616e-13 1.39328e-13 1.23616e-13 0 0 1.00743e-13 1.50618e-13 1.21498e-13 8.26966e-14 0 0 9.90087e-14 1.42236e-13 1.03333e-13 1.13701e-13 0 0 9.63827e-14 1.02787e-13 9.12612e-14 1.06821e-13 0 0 9.45853e-14 1.10588e-13 3.27421e-14 1.1287e-13 0 0 7.50802e-14 1.60605e-13 -1.71512e-14 9.32579e-14 0 0 6.99518e-14 1.4609e-13 -5.87828e-15 1.16003e-13 0 0 6.43627e-14 1.23456e-13 2.00799e-14 9.76054e-14 0 0 5.44956e-14 1.24577e-13 -6.32367e-15 7.11794e-14 0 0 4.63708e-14 1.33003e-13 -2.99937e-14 6.22865e-14 0 0 3.57515e-14 1.16059e-13 -2.93246e-14 3.438e-14 0 0 3.94951e-14 1.13165e-13 -3.97037e-14 2.77365e-15 0 0 2.52978e-14 9.0523e-14 -4.73787e-14 3.45976e-14 0 0 3.67739e-14 4.97291e-14 -4.44209e-14 1.07278e-13 0 0 5.8647e-14 2.43616e-14 -4.02752e-14 8.74785e-14 0 0 5.703e-14 6.75638e-15 -2.07525e-14 3.03868e-14 0 0 4.75802e-14 -1.94796e-14 3.8567e-15 1.42925e-14 0 0 5.1822e-14 -4.49607e-14 -3.24984e-14 -6.0326e-15 0 0 6.91458e-14 -4.07217e-14 -1.35102e-14 -5.44217e-14 0 0 8.50447e-14 -8.72451e-14 3.21774e-14 -8.5793e-14 0 0 8.56413e-14 -6.70043e-14 1.93824e-14 -1.33357e-13 0 0 2.43014e-14 2.36722e-14 -5.39118e-14 -3.87622e-14 0 0 -4.29025e-14 9.11857e-14 -8.11379e-14 2.73453e-14 0 0 -6.73801e-14 6.50756e-14 -5.51827e-15 -1.51336e-14 0 0 -4.03505e-14 -3.25471e-14 6.55361e-14 -1.93834e-14 0 0 -2.73635e-14 -6.31878e-14 7.26685e-14 1.06697e-13 0 0 2.03195e-14 -6.14571e-14 -3.38399e-14 3.05181e-13 0 0 1.80242e-14 -2.18542e-14 -6.8909e-14 2.8455e-13 0 0 3.25224e-14 -1.06548e-14 -5.65494e-14 1.74111e-13 0 0 -2.00291e-14 9.35782e-14 -1.74998e-13 1.79958e-13 0 0 -4.72125e-14 1.03246e-13 -2.289e-13 2.45442e-13 0 0 -1.94755e-14 4.67183e-14 -2.74286e-13 2.88564e-13 0 0 6.36435e-14 -5.77097e-14 -2.72346e-13 2.51995e-13 0 0 1.06508e-13 -1.60411e-13 -1.44761e-13 1.08718e-13 0 0 2.00072e-14 -7.23966e-14 -2.61282e-13 1.88634e-13 0 0 -8.35614e-14 4.17852e-16 -2.92003e-13 1.37792e-13 0 0 -9.79351e-14 -7.94773e-14 -1.1359e-13 -3.97267e-15 0 0 -1.09511e-13 -1.21146e-13 -6.29221e-14 7.0269e-14 0 0 -1.47997e-13 -9.77613e-14 -1.1416e-13 3.13363e-14 0 0 -1.18084e-13 -1.53355e-13 -8.24742e-14 -7.93771e-14 0 0 -8.76405e-14 -1.18605e-13 -1.23878e-13 -9.23446e-14 0 0 -1.02805e-13 -3.32376e-14 -2.56022e-13 -1.20862e-13 0 0 -5.24466e-14 -1.03679e-14 -1.92796e-13 -9.61265e-14 0 0 -5.78465e-16 -2.95309e-14 -3.34196e-14 -1.12576e-13 0 0 5.87656e-15 -2.0024e-15 1.28639e-15 -8.52443e-14 0 0 1.87116e-14 2.05157e-14 6.55596e-16 8.95241e-14 0 0 1.4862e-14 4.42708e-14 3.26467e-14 6.96985e-14 0 0 3.70448e-14 5.01631e-14 8.7173e-14 4.32693e-14 0 0 3.78343e-14 6.97434e-14 7.72804e-14 1.03433e-13 0 0 3.15214e-14 8.8821e-14 9.86059e-14 1.13634e-13 0 0 3.92167e-14 1.03973e-13 1.09272e-13 8.91998e-14 0 0 4.84653e-14 1.07774e-13 1.41808e-13 4.56135e-14 0 0 7.53928e-14 8.69846e-14 1.71275e-13 4.76543e-14 0 0 8.92709e-14 1.00306e-13 1.52463e-13 7.01616e-14 0 0 7.97223e-14 1.36288e-13 1.46703e-13 6.90639e-14 0 0 7.58394e-14 1.64692e-13 1.52644e-13 6.30594e-14 0 0 8.71887e-14 1.67411e-13 1.53233e-13 3.84681e-14 0 0 9.07571e-14 1.80128e-13 1.41349e-13 7.3758e-14 0 0 7.68667e-14 2.08616e-13 1.57393e-13 9.82562e-14 0 0 8.50646e-14 2.10659e-13 1.57402e-13 1.02714e-13 0 0 1.17631e-13 1.88405e-13 1.71733e-13 9.48252e-14 0 0 1.24791e-13 2.06541e-13 1.76373e-13 8.50718e-14 0 0 1.34167e-13 2.10968e-13 1.58757e-13 9.68753e-14 0 0 1.47118e-13 1.86318e-13 1.85924e-13 5.00503e-14 0 0 1.52851e-13 1.66877e-13 1.82883e-13 6.43639e-14 0 0 1.48077e-13 1.71075e-13 1.43673e-13 1.15439e-13 0 0 1.40612e-13 1.8719e-13 9.097e-14 9.35095e-14 0 0 1.54625e-13 1.41375e-13 1.0471e-13 7.65033e-14 0 0 1.48281e-13 1.16905e-13 1.3504e-13 6.14837e-14 0 0 1.68728e-13 8.54636e-14 1.40177e-13 4.36653e-14 0 0 1.67749e-13 5.91965e-14 1.18759e-13 7.81514e-14 0 0 1.18347e-13 7.43295e-14 6.48032e-14 1.11242e-13 0 0 1.08404e-13 4.95625e-14 8.37259e-14 8.67025e-14 0 0 7.71075e-14 7.46499e-14 6.61206e-14 6.97486e-14 0 0 5.62371e-14 7.31305e-14 5.86348e-14 5.74992e-14 0 0 4.41462e-14 4.98624e-14 7.50184e-14 6.80306e-14 0 0 1.78347e-14 6.55852e-14 8.23992e-14 6.81478e-14 0 0 1.79705e-14 6.1472e-14 1.03898e-13 3.48187e-14 0
				</DataArray>
				<DataArray Name="VitesseY" type="Float32" format="ascii">