<?xml version="1.0"?>
<VTKFile type="PolyData">
	<PolyData>
		<Piece NumberOfPoints="1206" NumberOfPolys="1000">
			<Points>
				<DataArray type="Float32" NumberOfComponents="3" format="ascii">
 0 0 0 0.02 0 0 0.04 0 0 0.06 0 0 0.08 0 0 0.1 0 0 0 0.005 0 0.02 0.005 0 0.04 0.005 0 0.06 0.005 0 0.08 0.005 0 0.1 0.005 0 0 0.01 0 0.02 0.01 0 0.04 0.01 0 0.06 0.01 0 0.08 0.01 0 0.1 0.01 0 0 0.015 0 0.02 0.015 0 0.04 0.015 0 0.06 0.015 0 0.08 0.015 0 0.1 0.015 0 0 0.02 0 0.02 0.02 0 0.04 0.02 0 0.06 0.02 0 0.08 0.02 0 0.1 0.02 0 0 0.025 0 0.02 0.025 0 0.04 0.025 0 0.06 0.025 0 0.08 0.025 0 0.1 0.025 0 0 0.03 0 0.02 0.03 0 0.04 0.03 0 0.06 0.03 0 0.08 0.03 0 0.1 0.03 0 0 0.035 0 0.02 0.035 0 0.04 0.035 0 0.06 0.035 0 0.08 0.035 0 0.1 0.035 0 0 0.04 0 0.02 0.04 0 0.04 0.04 0 0.06 0.04 0 0.08 0.04 0 0.1 0.04 0 0 0.045 0 0.02 0.045 0 0.04 0.045 0 0.06 0.045 0 0.08 0.045 0 0.1 0.045 0 0 0.05 0 0.02 0.05 0 0.04 0.05 0 0.06 0.05 0 0.08 0.05 0 0.1 0.05 0 0 0.055 0 0.02 0.055 0 0.04 0.055 0 0.06 0.055 0 0.08 0.055 0 0.1 0.055 0 0 0.06 0 0.02 0.06 0 0.04 0.06 0 0.06 0.06 0 0.08 0.06 0 0.1 0.06 0 0 0.065 0 0.02 0.065 0 0.04 0.065 0 0.06 0.065 0 0.08 0.065 0 0.1 0.065 0 0 0.07 0 0.02 0.07 0 0.04 0.07 0 0.06 0.07 0 0.08 0.07 0 0.1 0.07 0 0 0.075 0 0.02 0.075 0 0.04 0.075 0 0.06 0.075 0 0.08 0.075 0 0.1 0.075 0 0 0.08 0 0.02 0.08 0 0.04 0.08 0 0.06 0.08 0 0.08 0.08 0 0.1 0.08 0 0 0.085 0 0.02 0.085 0 0.04 0.085 0 0.06 0.085 0 0.08 0.085 0 0.1 0.085 0 0 0.09 0 0.02 0.09 0 0.04 0.09 0 0.06 0.09 0 0.08 0.09 0 0.1 0.09 0 0 0.095 0 0.02 0.095 0 0.04 0.095 0 0.06 0.095 0 0.08 0.095 0 0.1 0.095 0 0 0.1 0 0.02 0.1 0 0.04 0.1 0 0.06 0.1 0 0.08 0.1 0 0.1 0.1 0 0 0.105 0 0.02 0.105 0 0.04 0.105 0 0.06 0.105 0 0.08 0.105 0 0.1 0.105 0 0 0.11 0 0.02 0.11 0 0.04 0.11 0 0.06 0.11 0 0.08 0.11 0 0.1 0.11 0 0 0.115 0 0.02 0.115 0 0.04 0.115 0 0.06 0.115 0 0.08 0.115 0 0.1 0.115 0 0 0.12 0 0.02 0.12 0 0.04 0.12 0 0.06 0.12 0 0.08 0.12 0 0.1 0.12 0 0 0.125 0 0.02 0.125 0 0.04 0.125 0 0.06 0.125 0 0.08 0.125 0 0.1 0.125 0 0 0.13 0 0.02 0.13 0 0.04 0.13 0 0.06 0.13 0 0.08 0.13 0 0.1 0.13 0 0 0.135 0 0.02 0.135 0 0.04 0.135 0 0.06 0.135 0 0.08 0.135 0 0.1 0.135 0 0 0.14 0 0.02 0.14 0 0.04 0.14 0 0.06 0.14 0 0.08 0.14 0 0.1 0.14 0 0 0.145 0 0.02 0.145 0 0.04 0.145 0 0.06 0.145 0 0.08 0.145 0 0.1 0.145 0 0 0.15 0 0.02 0.15 0 0.04 0.15 0 0.06 0.15 0 0.08 0.15 0 0.1 0.15 0 0 0.155 0 0.02 0.155 0 0.04 0.155 0 0.06 0.155 0 0.08 0.155 0 0.1 0.155 0 0 0.16 0 0.02 0.16 0 0.04 0.16 0 0.06 0.16 0 0.08 0.16 0 0.1 0.16 0 0 0.165 0 0.02 0.165 0 0.04 0.165 0 0.06 0.165 0 0.08 0.165 0 0.1 0.165 0 0 0.17 0 0.02 0.17 0 0.04 0.17 0 0.06 0.17 0 0.08 0.17 0 0.1 0.17 0 0 0.175 0 0.02 0.175 0 0.04 0.175 0 0.06 0.175 0 0.08 0.175 0 0.1 0.175 0 0 0.18 0 0.02 0.18 0 0.04 0.18 0 0.06 0.18 0 0.08 0.18 0 0.1 0.18 0 0 0.185 0 0.02 0.185 0 0.04 0.185 0 0.06 0.185 0 0.08 0.185 0 0.1 0.185 0 0 0.19 0 0.02 0.19 0 0.04 0.19 0 0.06 0.19 0 0.08 0.19 0 0.1 0.19 0 0 0.195 0 0.02 0.195 0 0.04 0.195 0 0.06 0.195 0 0.08 0.195 0 0.1 0.195 0 0 0.2 0 0.02 0.2 0 0.04 0.2 0 0.06 0.2 0 0.08 0.2 0 0.1 0.2 0 0 0.205 0 0.02 0.205 0 0.04 0.205 0 0.06 0.205 0 0.08 0.205 0 0.1 0.205 0 0 0.21 0 0.02 0.21 0 0.04 0.21 0 0.06 0.21 0 0.08 0.21 0 0.1 0.21 0 0 0.215 0 0.02 0.215 0 0.04 0.215 0 0.06 0.215 0 0.08 0.215 0 0.1 0.215 0 0 0.22 0 0.02 0.22 0 0.04 0.22 0 0.06 0.22 0 0.08 0.22 0 0.1 0.22 0 0 0.225 0 0.02 0.225 0 0.04 0.225 0 0.06 0.225 0 0.08 0.225 0 0.1 0.225 0 0 0.23 0 0.02 0.23 0 0.04 0.23 0 0.06 0.23 0 0.08 0.23 0 0.1 0.23 0 0 0.235 0 0.02 0.235 0 0.04 0.235 0 0.06 0.235 0 0.08 0.235 0 0.1 0.235 0 0 0.24 0 0.02 0.24 0 0.04 0.24 0 0.06 0.24 0 0.08 0.24 0 0.1 0.24 0 0 0.245 0 0.02 0.245 0 0.04 0.245 0 0.06 0.245 0 0.08 0.245 0 0.1 0.245 0 0 0.25 0 0.02 0.25 0 0.04 0.25 0 0.06 0.25 0 0.08 0.25 0 0.1 0.25 0 0 0.255 0 0.02 0.255 0 0.04 0.255 0 0.06 0.255 0 0.08 0.255 0 0.1 0.255 0 0 0.26 0 0.02 0.26 0 0.04 0.26 0 0.06 0.26 0 0.08 0.26 0 0.1 0.26 0 0 0.265 0 0.02 0.265 0 0.04 0.265 0 0.06 0.265 0 0.08 0.265 0 0.1 0.265 0 0 0.27 0 0.02 0.27 0 0.04 0.27 0 0.06 0.27 0 0.08 0.27 0 0.1 0.27 0 0 0.275 0 0.02 0.275 0 0.04 0.275 0 0.06 0.275 0 0.08 0.275 0 0.1 0.275 0 0 0.28 0 0.02 0.28 0 0.04 0.28 0 0.06 0.28 0 0.08 0.28 0 0.1 0.28 0 0 0.285 0 0.02 0.285 0 0.04 0.285 0 0.06 0.285 0 0.08 0.285 0 0.1 0.285 0 0 0.29 0 0.02 0.29 0 0.04 0.29 0 0.06 0.29 0 0.08 0.29 0 0.1 0.29 0 0 0.295 0 0.02 0.295 0 0.04 0.295 0 0.06 0.295 0 0.08 0.295 0 0.1 0.295 0 0 0.300001 0 0.02 0.300001 0 0.04 0.300001 0 0.06 0.300001 0 0.08 0.300001 0 0.1 0.300001 0 0 0.305002 0 0.02 0.305002 0 0.04 0.305002 0 0.06 0.305002 0 0.08 0.305002 0 0.1 0.305002 0 0 0.310006 0 0.02 0.310006 0 0.04 0.310006 0 0.06 0.310006 0 0.08 0.310006 0 0.1 0.310006 0 0 0.315017 0 0.02 0.315017 0 0.04 0.315017 0 0.06 0.315017 0 0.08 0.315017 0 0.1 0.315017 0 0 0.320044 0 0.02 0.320044 0 0.04 0.320044 0 0.06 0.320044 0 0.08 0.320044 0 0.1 0.320044 0 0 0.3251 0 0.02 0.3251 0 0.04 0.3251 0 0.06 0.3251 0 0.08 0.3251 0 0.1 0.3251 0 0 0.330205 0 0.02 0.330205 0 0.04 0.330205 0 0.06 0.330205 0 0.08 0.330205 0 0.1 0.330205 0 0 0.335383 0 0.02 0.335383 0 0.04 0.335383 0 0.06 0.335383 0 0.08 0.335383 0 0.1 0.335383 0 0 0.340656 0 0.02 0.340656 0 0.04 0.340656 0 0.06 0.340656 0 0.08 0.340656 0 0.1 0.340656 0 0 0.346042 0 0.02 0.346042 0 0.04 0.346042 0 0.06 0.346042 0 0.08 0.346042 0 0.1 0.346042 0 0 0.351557 0 0.02 0.351557 0 0.04 0.351557 0 0.06 0.351557 0 0.08 0.351557 0 0.1 0.351557 0 0 0.357214 0 0.02 0.357214 0 0.04 0.357214 0 0.06 0.357214 0 0.08 0.357214 0 0.1 0.357214 0 0 0.363026 0 0.02 0.363026 0 0.04 0.363026 0 0.06 0.363026 0 0.08 0.363026 0 0.1 0.363026 0 0 0.369004 0 0.02 0.369004 0 0.04 0.369004 0 0.06 0.369004 0 0.08 0.369004 0 0.1 0.369004 0 0 0.375161 0 0.02 0.375161 0 0.04 0.375161 0 0.06 0.375161 0 0.08 0.375161 0 0.1 0.375161 0 0 0.38151 0 0.02 0.38151 0 0.04 0.38151 0 0.06 0.38151 0 0.08 0.38151 0 0.1 0.38151 0 0 0.388066 0 0.02 0.388066 0 0.04 0.388066 0 0.06 0.388066 0 0.08 0.388066 0 0.1 0.388066 0 0 0.394846 0 0.02 0.394846 0 0.04 0.394846 0 0.06 0.394846 0 0.08 0.394846 0 0.1 0.394846 0 0 0.401867 0 0.02 0.401867 0 0.04 0.401867 0 0.06 0.401867 0 0.08 0.401867 0 0.1 0.401867 0 0 0.409149 0 0.02 0.409149 0 0.04 0.409149 0 0.06 0.409149 0 0.08 0.409149 0 0.1 0.409149 0 0 0.416715 0 0.02 0.416715 0 0.04 0.416715 0 0.06 0.416715 0 0.08 0.416715 0 0.1 0.416715 0 0 0.42459 0 0.02 0.42459 0 0.04 0.42459 0 0.06 0.42459 0 0.08 0.42459 0 0.1 0.42459 0 0 0.432803 0 0.02 0.432803 0 0.04 0.432803 0 0.06 0.432803 0 0.08 0.432803 0 0.1 0.432803 0 0 0.441387 0 0.02 0.441387 0 0.04 0.441387 0 0.06 0.441387 0 0.08 0.441387 0 0.1 0.441387 0 0 0.450377 0 0.02 0.450377 0 0.04 0.450377 0 0.06 0.450377 0 0.08 0.450377 0 0.1 0.450377 0 0 0.459817 0 0.02 0.459817 0 0.04 0.459817 0 0.06 0.459817 0 0.08 0.459817 0 0.1 0.459817 0 0 0.46975 0 0.02 0.46975 0 0.04 0.46975 0 0.06 0.46975 0 0.08 0.46975 0 0.1 0.46975 0 0 0.480225 0 0.02 0.480225 0 0.04 0.480225 0 0.06 0.480225 0 0.08 0.480225 0 0.1 0.480225 0 0 0.49128 0 0.02 0.49128 0 0.04 0.49128 0 0.06 0.49128 0 0.08 0.49128 0 0.1 0.49128 0 0 0.50292 0 0.02 0.50292 0 0.04 0.50292 0 0.06 0.50292 0 0.08 0.50292 0 0.1 0.50292 0 0 0.51502 0 0.02 0.51502 0 0.04 0.51502 0 0.06 0.51502 0 0.08 0.51502 0 0.1 0.51502 0 0 0.527194 0 0.02 0.527194 0 0.04 0.527194 0 0.06 0.527194 0 0.08 0.527194 0 0.1 0.527194 0 0 0.539248 0 0.02 0.539248 0 0.04 0.539248 0 0.06 0.539248 0 0.08 0.539248 0 0.1 0.539248 0 0 0.551181 0 0.02 0.551181 0 0.04 0.551181 0 0.06 0.551181 0 0.08 0.551181 0 0.1 0.551181 0 0 0.563018 0 0.02 0.563018 0 0.04 0.563018 0 0.06 0.563018 0 0.08 0.563018 0 0.1 0.563018 0 0 0.574797 0 0.02 0.574797 0 0.04 0.574797 0 0.06 0.574797 0 0.08 0.574797 0 0.1 0.574797 0 0 0.586547 0 0.02 0.586547 0 0.04 0.586547 0 0.06 0.586547 0 0.08 0.586547 0 0.1 0.586547 0 0 0.598285 0 0.02 0.598285 0 0.04 0.598285 0 0.06 0.598285 0 0.08 0.598285 0 0.1 0.598285 0 0 0.61002 0 0.02 0.61002 0 0.04 0.61002 0 0.06 0.61002 0 0.08 0.61002 0 0.1 0.61002 0 0 0.621755 0 0.02 0.621755 0 0.04 0.621755 0 0.06 0.621755 0 0.08 0.621755 0 0.1 0.621755 0 0 0.633503 0 0.02 0.633503 0 0.04 0.633503 0 0.06 0.633503 0 0.08 0.633503 0 0.1 0.633503 0 0 0.636113 0 0.02 0.636113 0 0.04 0.636113 0 0.06 0.636113 0 0.08 0.636113 0 0.1 0.636113 0 0 0.63865 0 0.02 0.63865 0 0.04 0.63865 0 0.06 0.63865 0 0.08 0.63865 0 0.1 0.63865 0 0 0.64114 0 0.02 0.64114 0 0.04 0.64114 0 0.06 0.64114 0 0.08 0.64114 0 0.1 0.64114 0 0 0.643601 0 0.02 0.643601 0 0.04 0.643601 0 0.06 0.643601 0 0.08 0.643601 0 0.1 0.643601 0 0 0.64604 0 0.02 0.64604 0 0.04 0.64604 0 0.06 0.64604 0 0.08 0.64604 0 0.1 0.64604 0 0 0.648463 0 0.02 0.648463 0 0.04 0.648463 0 0.06 0.648463 0 0.08 0.648463 0 0.1 0.648463 0 0 0.650876 0 0.02 0.650876 0 0.04 0.650876 0 0.06 0.650876 0 0.08 0.650876 0 0.1 0.650876 0 0 0.653288 0 0.02 0.653288 0 0.04 0.653288 0 0.06 0.653288 0 0.08 0.653288 0 0.1 0.653288 0 0 0.655701 0 0.02 0.655701 0 0.04 0.655701 0 0.06 0.655701 0 0.08 0.655701 0 0.1 0.655701 0 0 0.658098 0 0.02 0.658098 0 0.04 0.658098 0 0.06 0.658098 0 0.08 0.658098 0 0.1 0.658098 0 0 0.660485 0 0.02 0.660485 0 0.04 0.660485 0 0.06 0.660485 0 0.08 0.660485 0 0.1 0.660485 0 0 0.662866 0 0.02 0.662866 0 0.04 0.662866 0 0.06 0.662866 0 0.08 0.662866 0 0.1 0.662866 0 0 0.665244 0 0.02 0.665244 0 0.04 0.665244 0 0.06 0.665244 0 0.08 0.665244 0 0.1 0.665244 0 0 0.667621 0 0.02 0.667621 0 0.04 0.667621 0 0.06 0.667621 0 0.08 0.667621 0 0.1 0.667621 0 0 0.669998 0 0.02 0.669998 0 0.04 0.669998 0 0.06 0.669998 0 0.08 0.669998 0 0.1 0.669998 0 0 0.672371 0 0.02 0.672371 0 0.04 0.672371 0 0.06 0.672371 0 0.08 0.672371 0 0.1 0.672371 0 0 0.674741 0 0.02 0.674741 0 0.04 0.674741 0 0.06 0.674741 0 0.08 0.674741 0 0.1 0.674741 0 0 0.677108 0 0.02 0.677108 0 0.04 0.677108 0 0.06 0.677108 0 0.08 0.677108 0 0.1 0.677108 0 0 0.679476 0 0.02 0.679476 0 0.04 0.679476 0 0.06 0.679476 0 0.08 0.679476 0 0.1 0.679476 0 0 0.681844 0 0.02 0.681844 0 0.04 0.681844 0 0.06 0.681844 0 0.08 0.681844 0 0.1 0.681844 0 0 0.68421 0 0.02 0.68421 0 0.04 0.6
[...]
			<PointData Scalars="VitesseX">
				<DataArray Name="VitesseX" type="Float32" format="ascii">
 0 1.73792e-17 5.92114e-16 2.64638e-15 8.77516e-15 0 0 5.98439e-16 3.86497e-16 2.86517e-15 8.48936e-15 0 0 6.18875e-16 1.28781e-15 2.82142e-15 9.75392e-15 0 0 -5.80343e-16 4.01032e-15 1.61049e-15 1.16372e-14 0 0 -2.31778e-16 5.68009e-15 3.28548e-16 1.15089e-14 0 0 2.77114e-16 7.03022e-15 -8.53165e-17 9.55415e-15 0 0 7.59213e-16 6.29789e-15 4.03177e-15 3.25559e-15 0 0 9.4373e-16 6.72322e-15 6.00312e-15 -9.21533e-16 0 0 2.46906e-15 6.668e-15 5.57636e-15 -6.04075e-16 0 0 4.44413e-15 6.96365e-15 4.87095e-15 5.66445e-16 0 0 5.06728e-15 7.09572e-15 6.30825e-15 1.27003e-15 0 0 4.79255e-15 4.61439e-15 1.02696e-14 2.57847e-15 0 0 3.22011e-15 5.58464e-15 6.91314e-15 7.73658e-15 0 0 4.67271e-15 3.20608e-15 4.33996e-15 8.27815e-15 0 0 5.11551e-15 1.55409e-15 1.09526e-15 7.24154e-15 0 0 2.7112e-15 4.84897e-15 -3.52975e-15 9.85465e-15 0 0 2.17308e-15 5.34458e-15 -4.99003e-15 9.6888e-15 0 0 1.43679e-15 7.53892e-15 -9.00758e-15 6.00912e-15 0 0 3.89191e-15 1.39849e-15 -2.29895e-15 -4.70859e-16 0 0 4.48975e-15 -4.73722e-15 4.19377e-15 -7.27882e-15 0 0 -7.39701e-16 -2.2659e-15 3.62125e-15 -9.2344e-15 0 0 -2.28648e-15 -2.86437e-15 3.26773e-15 -2.73112e-15 0 0 4.76997e-17 -4.84114e-15 -4.24272e-15 6.42308e-15 0 0 -1.23431e-15 -1.97274e-15 -8.87885e-15 2.99701e-15 0 0 -6.63092e-15 3.06759e-15 -7.3228e-15 -3.31761e-15 0 0 -8.00902e-15 2.86878e-15 -4.23873e-15 -4.07944e-15 0 0 -9.06319e-15 6.94611e-15 -9.59959e-15 3.1882e-15 0 0 -9.21703e-15 1.08532e-14 -8.74659e-15 2.02689e-15 0 0 -1.89491e-15 2.62253e-15 1.99999e-15 -5.91273e-15 0 0 1.86463e-15 -1.87128e-15 3.87174e-15 -5.2319e-15 0 0 -8.37897e-15 8.30761e-15 -3.76976e-15 -2.80838e-16 0 0 -6.5589e-15 8.86344e-16 8.22311e-17 5.23476e-16 0 0 6.28278e-16 -1.12394e-14 1.16418e-14 -6.15541e-15 0 0 -2.14767e-15 -1.11376e-14 4.98058e-15 1.63927e-16 0 0 -2.96541e-16 -8.01732e-15 -3.83374e-15 7.13135e-15 0 0 -3.51728e-15 -9.07778e-16 1.51812e-15 1.33331e-15 0 0 -7.70954e-15 2.64734e-15 2.48998e-15 -3.25476e-15 0 0 -1.31459e-15 5.76342e-16 -3.61022e-15 8.76944e-15 0 0 -4.36549e-15 4.30427e-15 -1.41563e-15 9.64295e-15 0 0 -2.1925e-15 1.13827e-15 3.0699e-15 -8.00595e-15 0 0 1.03157e-14 -9.47441e-15 -1.18614e-15 -8.36294e-15 0 0 1.29913e-14 -5.8349e-15 -1.47871e-14 1.4538e-15 0 0 9.6696e-15 1.4093e-15 -1.66596e-14 2.68695e-16 0 0 -6.43448e-15 8.68754e-15 -1.25066e-15 -1.01332e-14 0 0 -9.32353e-15 4.73263e-15 1.7309e-15 -5.26773e-15 0 0 -3.06714e-15 -7.19069e-15 -2.08791e-15 4.75977e-15 0 0 2.93582e-15 -6.84462e-15 -6.28818e-15 8.18951e-15 0 0 -1.08799e-15 9.59512e-15 -7.64616e-15 1.64928e-14 0 0 -1.01767e-14 1.47729e-14 -5.07845e-15 3.62535e-14 0 0 1.2506e-14 9.27716e-15 -1.91084e-14 3.18301e-14 0 0 2.04613e-14 3.60105e-15 1.55439e-15 -5.87853e-15 0 0 -5.41604e-15 2.22349e-14 -3.24981e-16 5.18252e-15 0 0 -2.26906e-14 2.58405e-14 -1.5072e-14 2.57875e-14 0 0 -6.36773e-15 -2.53394e-14 1.4471e-14 1.74441e-14 0 0 1.03057e-14 -4.9303e-14 2.80896e-14 1.22975e-14 0 0 1.33149e-14 -2.11279e-14 9.44113e-15 -2.81683e-15 0 0 -3.11014e-16 -1.51319e-14 -1.48979e-14 -3.78637e-15 0 0 -2.38291e-14 -2.05707e-14 -1.84578e-14 -4.26907e-15 0 0 -6.90018e-15 -3.57045e-15 -4.35565e-14 -1.49803e-14 0 0 1.82411e-14 -1.49097e-14 -4.64824e-14 -2.54544e-14 0 0 5.88451e-15 -2.21743e-14 -5.14047e-14 -1.14764e-14 0 0 -2.09782e-14 7.30404e-15 -5.88319e-14 9.67951e-16 0 0 2.00472e-15 -1.10946e-14 -2.61189e-14 -1.51305e-14 0 0 2.75715e-14 -2.72455e-14 -1.09252e-14 -3.07727e-14 0 0 6.83169e-15 -1.31403e-14 -3.24744e-15 -2.22063e-15 0 0 4.66657e-15 -1.28073e-14 -1.2629e-14 3.56694e-14 0 0 7.67538e-15 -1.31832e-14 -2.18789e-14 1.83883e-14 0 0 8.42668e-15 -1.90533e-14 -1.24449e-14 -6.52751e-15 0 0 -9.62309e-15 -5.68139e-15 -1.62441e-14 7.26195e-15 0 0 -3.2727e-14 1.23099e-14 -2.23808e-14 7.34988e-15 0 0 -2.13941e-14 2.13122e-14 -1.22684e-14 -4.78436e-14 0 0 1.39998e-14 -1.28521e-14 1.73605e-14 -4.88052e-14 0 0 2.08882e-14 -4.26035e-14 3.25981e-14 -1.85202e-14 0 0 3.0331e-15 -2.58966e-14 2.90045e-14 -2.3829e-14 0 0 -2.11958e-14 -1.00455e-14 3.62863e-14 -2.23836e-14 0 0 -3.85881e-14 1.23115e-14 2.34804e-14 -2.35051e-14 0 0 -3.10687e-14 2.53891e-14 7.87872e-15 -1.01896e-14 0 0 1.00632e-14 -2.50517e-14 1.21699e-14 2.04017e-14 0 0 2.77226e-14 -4.92912e-14 1.9445e-14 1.64159e-14 0 0 -1.46417e-14 -1.22452e-17 -8.85287e-16 -2.06272e-15 0 0 -4.92524e-15 3.57593e-15 -1.43999e-14 9.27488e-15 0 0 7.86318e-16 -1.24435e-14 7.73473e-15 -1.53758e-14 0 0 7.09631e-15 -1.97891e-14 1.07211e-14 -1.44076e-14 0 0 4.40722e-15 -1.15791e-14 -2.03539e-14 8.62014e-15 0 0 -1.21291e-14 2.16262e-14 -4.04665e-14 1.94691e-14 0 0 1.08452e-14 8.80248e-15 -4.0468e-15 1.0249e-14 0 0 1.80433e-14 5.25637e-15 2.38757e-14 -3.0729e-14 0 0 1.91443e-14 1.85281e-14 1.66542e-15 -6.37314e-15 0 0 1.58889e-14 7.39787e-15 -1.35426e-14 1.71397e-15 0 0 -1.14692e-14 -2.11189e-14 3.79832e-15 -8.34844e-15 0 0 -2.88142e-14 -1.53353e-14 -1.57153e-14 -1.34116e-14 0 0 -1.67413e-14 -8.22968e-15 -3.1259e-14 -3.22385e-14 0 0 -4.90609e-15 -1.4464e-14 3.32363e-16 -1.83592e-14 0 0 1.47209e-14 4.36363e-14 3.59424e-14 3.90053e-14 0 0 6.793e-14 1.08163e-13 1.24814e-13 7.3079e-14 0 0 1.18208e-13 1.71095e-13 2.02363e-13 1.07109e-13 0 0 1.45396e-13 2.34715e-13 2.28699e-13 1.54734e-13 0 0 1.57908e-13 2.58541e-13 2.59713e-13 1.72252e-13 0 0 1.6753e-13 2.75165e-13 2.75685e-13 1.70605e-13 0 0 1.78778e-13 3.05751e-13 2.92178e-13 1.60659e-13 0 0 2.07945e-13 3.49241e-13 3.28881e-13 1.93906e-13 0 0 3.63708e-13 5.38031e-13 5.79062e-13 3.16194e-13 0 0 3.73726e-13 5.21058e-13 5.79945e-13 3.34538e-13 0 0 3.80311e-13 5.61671e-13 5.53005e-13 3.64485e-13 0 0 3.73905e-13 6.37919e-13 5.36708e-13 3.89693e-13 0 0 3.90057e-13 6.72957e-13 5.57343e-13 4.01592e-13 0 0 4.01112e-13 6.53053e-13 5.80266e-13 4.05328e-13 0 0 3.31705e-13 5.48479e-13 4.741e-13 3.46219e-13 0 0 1.35254e-13 2.56852e-13 2.34079e-13 1.66534e-13 0 0 -6.71152e-14 -1.34286e-13 -3.78874e-14 -5.23921e-14 0 0 -2.04276e-13 -4.24378e-13 -3.80315e-13 -2.32229e-13 0 0 -3.27121e-13 -5.76528e-13 -6.15985e-13 -3.01081e-13 0 0 -3.82093e-13 -6.11663e-13 -6.7636e-13 -3.33412e-13 0 0 -3.65913e-13 -5.63778e-13 -6.62834e-13 -3.36151e-13 0 0 -3.33475e-13 -5.28391e-13 -5.29961e-13 -3.45539e-13 0 0 -2.96092e-13 -4.60473e-13 -4.59421e-13 -3.03912e-13 0 0 -2.42998e-13 -3.94886e-13 -4.22571e-13 -2.00798e-13 0 0 -2.02081e-13 -3.01792e-13 -3.24843e-13 -2.18944e-13 0 0 -1.54409e-13 -2.291e-13 -2.025e-13 -1.61431e-13 0 0 -8.85113e-14 -1.99149e-13 -9.45785e-14 -7.92801e-14 0 0 -5.50897e-14 -1.207e-13 -3.68553e-14 -4.151e-14 0 0 -2.57778e-14 -3.78839e-14 -7.88804e-15 2.32859e-14 0 0 -1.18516e-14 2.89079e-14 1.56706e-14 7.58939e-14 0 0 2.26695e-15 8.71948e-14 1.57237e-14 9.96865e-14 0 0 6.19656e-14 8.13304e-14 7.78503e-14 1.02322e-13 0 0 1.1083e-13 6.44281e-14 1.99903e-13 7.53603e-14 0 0 9.90506e-14 1.62388e-13 2.34408e-13 1.05427e-13 0 0 1.37837e-13 2.19604e-13 2.21043e-13 2.01198e-13 0 0 1.7374e-13 2.44575e-13 2.44899e-13 2.63218e-13 0 0 1.89627e-13 2.67941e-13 3.28373e-13 2.22444e-13 0 0 1.94952e-13 2.83899e-13 3.97849e-13 1.8661e-13 0 0 1.87146e-13 3.44585e-13 4.2054e-13 2.28596e-13 0 0 2.08306e-13 4.17761e-13 4.41483e-13 2.32784e-13 0 0 1.96848e-13 4.82856e-13 4.71736e-13 2.07879e-13 0 0 2.01504e-13 5.0977e-13 4.87452e-13 2.45937e-13 0 0 2.4468e-13 4.9191e-13 5.53624e-13 2.44782e-13 0 0 2.81806e-13 4.67168e-13 6.11535e-13 1.75301e-13 0 0 3.02446e-13 4.91371e-13 6.41951e-13 2.24851e-13 0 0 3.36456e-13 5.1175e-13 6.1226e-13 3.38743e-13 0 0 3.50638e-13 5.28139e-13 5.74702e-13 4.3535e-13 0 0 3.37907e-13 5.48378e-13 6.09423e-13 4.13882e-13 0 0 3.64813e-13 5.21622e-13 6.41734e-13 4.07993e-13 0 0 3.73713e-13 5.66412e-13 6.34245e-13 4.25349e-13 0 0 3.6987e-13 6.28261e-13 6.26473e-13 3.33082e-13 0 0 3.89049e-13 6.61769e-13 5.60542e-13 3.40166e-13 0 0 3.73955e-13 6.66664e-13 4.60851e-13 4.24673e-13 0 0 3.37492e-13 6.21111e-13 5.17819e-13 3.1563e-13 0 0 3.54191e-13 5.93139e-13 4.93153e-13 2.76296e-13 0 0 3.30533e-13 5.29582e-13 3.64183e-13 4.27326e-13 0 0 2.78377e-13 4.27258e-13 3.43251e-13 3.65947e-13 0 0 2.4297e-13 3.07169e-13 3.35657e-13 2.38265e-13 0 0 1.55716e-13 2.41057e-13 2.7887e-13 1.59787e-13 0 0 8.72376e-14 1.58854e-13 1.67872e-13 1.13195e-13 0 0 4.45026e-14 7.82034e-14 3.96476e-14 6.59741e-14 0 0 6.73594e-15 8.54672e-15 1.68447e-14 -1.8241e-14 0 0 -1.95524e-14 -3.46065e-14 -9.21119e-15 -4.865e-14 0 0 -2.06381e-14 -4.2352e-14 -6.48409e-14 -3.77928e-14 0 0 -2.71104e-14 -6.53185e-14 -6.36213e-14 -5.93275e-14 0 0 -4.40303e-14 -5.27161e-14 -8.56269e-14 -6.7896e-14 0 0 -5.25706e-14 -4.59348e-14 -9.68611e-14 -7.62442e-14 0 0 -5.68138e-14 -4.0791e-14 -7.77701e-14 -9.01396e-14 0 0 -4.67428e-14 -7.6366e-14 -5.30517e-14 -8.11341e-14 0 0 -5.16373e-14 -9.03458e-14 -5.16024e-14 -5.86044e-14 0 0 -3.14588e-14 -9.73745e-14 -3.94315e-14 -7.10862e-14 0 0 -2.33701e-14 -9.59643e-14 -6.24867e-14 -4.75515e-14 0 0 -7.10125e-14 -3.26037e-14 -1.00511e-13 -2.70726e-14 0 0 -7.58754e-14 -2.40798e-14 -9.44714e-14 -4.03641e-14 0 0 -6.93141e-14 -4.29883e-14 -8.45084e-14 -4.00837e-14 0 0 -7.12897e-14 -5.52473e-14 -5.96699e-14 -5.51684e-14 0 0 -7.74448e-14 -3.34595e-14 -4.32572e-14 -1.01734e-13 0 0 -6.99253e-14 2.09479e-15 -9.09229e-14 -6.73652e-14 0 0 -4.71458e-14 -5.82931e-15 -9.6885e-14 -5.4427e-14 0 0 -2.53172e-14 -4.21721e-14 -3.97891e-14 -1.09626e-13 0 0 -1.26166e-14 -3.73198e-14 -4.63766e-14 -1.07991e-13 0 0 2.47362e-15 -2.52088e-14 -5.25452e-14 -1.11053e-13 0 0 1.34512e-14 -3.87972e-15 -9.82184e-14 -3.44636e-14 0 0 -2.99107e-14 4.10193e-14 -1.32504e-13 3.80829e-14 0 0 -6.40173e-14 3.42788e-14 -1.01948e-13 8.78259e-14 0 0 -3.54633e-14 -7.73926e-15 -8.11849e-14 1.25267e-13 0 0 5.19492e-15 -4.4435e-14 -5.95527e-14 7.81331e-14 0 0 5.04802e-17 -4.11219e-14 -5.94039e-14 2.67501e-14 0 0 -6.48671e-14 2.54191e-14 -8.59471e-14 3.54205e-15 0 0 -6.50352e-14 -1.70235e-14 6.10181e-15 -3.00523e-14 0 0 -3.65358e-14 -3.75578e-14 4.3905e-14 2.5155e-14 0 0 -6.26431e-14 2.50858e-14 -8.65255e-15 8.11873e-14 0 0 -3.54335e-14 -8.35457e-15 3.20544e-14 1.57636e-14 0 0 -5.48785e-14 4.67941e-15 4.58467e-14 -1.2221e-14 0 0 -7.20167e-14 1.41234e-15 4.49788e-14 1.50785e-14 0 0 -3.50329e-14 1.51419e-14 4.64255e-16 4.76531e-14 0 0 1.54741e-14 -5.15918e-15 -2.93574e-14 5.9585e-14 0 0 3.62474e-14 -2.2312e-15 -5.68557e-14 5.51377e-14 0 0 1.21864e-14 2.79246e-14 -4.90508e-14 9.3725e-15 0 0 -4.17763e-14 3.38367e-14 -2.93509e-14 8.25725e-15 0 0 -6.86877e-14 4.7547e-14 -4.77846e-14 4.00435e-14 0 0 -2.8464e-14 -1.21667e-14 -1.78121e-15 -2.90004e-15 0 0 4.3959e-14 -9.18926e-14 2.50051e-14 -7.32219e-14 0 0 5.05543e-14 -9.33555e-14 -2.96637e-14 -5.43635e-14 0 0 -4.30886e-14 -2.60613e-14 -9.05154e-14 -7.49563e-15 0 0 -4.6414e-14 -3.63104e-14 -5.82071e-14 -7.36688e-14 0 0 -2.58138e-14 -5.5461e-14 9.45706e-15 -1.53447e-13 0 0 -3.68372e-14 -5.08966e-14 4.17784e-14 -1.83614e-13 0
				</DataArray>
				<DataArray Name="VitesseY" type="Float32" format="ascii">