<?xml version="1.0"?>
<VTKFile type="PolyData">
	<PolyData>
		<Piece NumberOfPoints="1206" NumberOfPolys="1000">
			<Points>
				<DataArray type="Float32" NumberOfComponents="3" format="ascii">
 0 0 0 0.02 0 0 0.04 0 0 0.06 0 0 0.08 0 0 0.1 0 0 0 0.005 0 0.02 0.005 0 0.04 0.005 0 0.06 0.005 0 0.08 0.005 0 0.1 0.005 0 0 0.01 0 0.02 0.01 0 0.04 0.01 0 0.06 0.01 0 0.08 0.01 0 0.1 0.01 0 0 0.015 0 0.02 0.015 0 0.04 0.015 0 0.06 0.015 0 0.08 0.015 0 0.1 0.015 0 0 0.02 0 0.02 0.02 0 0.04 0.02 0 0.06 0.02 0 0.08 0.02 0 0.1 0.02 0 0 0.025 0 0.02 0.025 0 0.04 0.025 0 0.06 0.025 0 0.08 0.025 0 0.1 0.025 0 0 0.03 0 0.02 0.03 0 0.04 0.03 0 0.06 0.03 0 0.08 0.03 0 0.1 0.03 0 0 0.035 0 0.02 0.035 0 0.04 0.035 0 0.06 0.035 0 0.08 0.035 0 0.1 0.035 0 0 0.04 0 0.02 0.04 0 0.04 0.04 0 0.06 0.04 0 0.08 0.04 0 0.1 0.04 0 0 0.045 0 0.02 0.045 0 0.04 0.045 0 0.06 0.045 0 0.08 0.045 0 0.1 0.045 0 0 0.05 0 0.02 0.05 0 0.04 0.05 0 0.06 0.05 0 0.08 0.05 0 0.1 0.05 0 0 0.055 0 0.02 0.055 0 0.04 0.055 0 0.06 0.055 0 0.08 0.055 0 0.1 0.055 0 0 0.06 0 0.02 0.06 0 0.04 0.06 0 0.06 0.06 0 0.08 0.06 0 0.1 0.06 0 0 0.065 0 0.02 0.065 0 0.04 0.065 0 0.06 0.065 0 0.08 0.065 0 0.1 0.065 0 0 0.07 0 0.02 0.07 0 0.04 0.07 0 0.06 0.07 0 0.08 0.07 0 0.1 0.07 0 0 0.075 0 0.02 0.075 0 0.04 0.075 0 0.06 0.075 0 0.08 0.075 0 0.1 0.075 0 0 0.08 0 0.02 0.08 0 0.04 0.08 0 0.06 0.08 0 0.08 0.08 0 0.1 0.08 0 0 0.085 0 0.02 0.085 0 0.04 0.085 0 0.06 0.085 0 0.08 0.085 0 0.1 0.085 0 0 0.09 0 0.02 0.09 0 0.04 0.09 0 0.06 0.09 0 0.08 0.09 0 0.1 0.09 0 0 0.095 0 0.02 0.095 0 0.04 0.095 0 0.06 0.095 0 0.08 0.095 0 0.1 0.095 0 0 0.1 0 0.02 0.1 0 0.04 0.1 0 0.06 0.1 0 0.08 0.1 0 0.1 0.1 0 0 0.105 0 0.02 0.105 0 0.04 0.105 0 0.06 0.105 0 0.08 0.105 0 0.1 0.105 0 0 0.11 0 0.02 0.11 0 0.04 0.11 0 0.06 0.11 0 0.08 0.11 0 0.1 0.11 0 0 0.115 0 0.02 0.115 0 0.04 0.115 0 0.06 0.115 0 0.08 0.115 0 0.1 0.115 0 0 0.12 0 0.02 0.12 0 0.04 0.12 0 0.06 0.12 0 0.08 0.12 0 0.1 0.12 0 0 0.125 0 0.02 0.125 0 0.04 0.125 0 0.06 0.125 0 0.08 0.125 0 0.1 0.125 0 0 0.13 0 0.02 0.13 0 0.04 0.13 0 0.06 0.13 0 0.08 0.13 0 0.1 0.13 0 0 0.135 0 0.02 0.135 0 0.04 0.135 0 0.06 0.135 0 0.08 0.135 0 0.1 0.135 0 0 0.14 0 0.02 0.14 0 0.04 0.14 0 0.06 0.14 0 0.08 0.14 0 0.1 0.14 0 0 0.145 0 0.02 0.145 0 0.04 0.145 0 0.06 0.145 0 0.08 0.145 0 0.1 0.145 0 0 0.15 0 0.02 0.15 0 0.04 0.15 0 0.06 0.15 0 0.08 0.15 0 0.1 0.15 0 0 0.155 0 0.02 0.155 0 0.04 0.155 0 0.06 0.155 0 0.08 0.155 0 0.1 0.155 0 0 0.16 0 0.02 0.16 0 0.04 0.16 0 0.06 0.16 0 0.08 0.16 0 0.1 0.16 0 0 0.165 0 0.02 0.165 0 0.04 0.165 0 0.06 0.165 0 0.08 0.165 0 0.1 0.165 0 0 0.17 0 0.02 0.17 0 0.04 0.17 0 0.06 0.17 0 0.08 0.17 0 0.1 0.17 0 0 0.175 0 0.02 0.175 0 0.04 0.175 0 0.06 0.175 0 0.08 0.175 0 0.1 0.175 0 0 0.18 0 0.02 0.18 0 0.04 0.18 0 0.06 0.18 0 0.08 0.18 0 0.1 0.18 0 0 0.185 0 0.02 0.185 0 0.04 0.185 0 0.06 0.185 0 0.08 0.185 0 0.1 0.185 0 0 0.19 0 0.02 0.19 0 0.04 0.19 0 0.06 0.19 0 0.08 0.19 0 0.1 0.19 0 0 0.195 0 0.02 0.195 0 0.04 0.195 0 0.06 0.195 0 0.08 0.195 0 0.1 0.195 0 0 0.2 0 0.02 0.2 0 0.04 0.2 0 0.06 0.2 0 0.08 0.2 0 0.1 0.2 0 0 0.205 0 0.02 0.205 0 0.04 0.205 0 0.06 0.205 0 0.08 0.205 0 0.1 0.205 0 0 0.21 0 0.02 0.21 0 0.04 0.21 0 0.06 0.21 0 0.08 0.21 0 0.1 0.21 0 0 0.215 0 0.02 0.215 0 0.04 0.215 0 0.06 0.215 0 0.08 0.215 0 0.1 0.215 0 0 0.22 0 0.02 0.22 0 0.04 0.22 0 0.06 0.22 0 0.08 0.22 0 0.1 0.22 0 0 0.225 0 0.02 0.225 0 0.04 0.225 0 0.06 0.225 0 0.08 0.225 0 0.1 0.225 0 0 0.23 0 0.02 0.23 0 0.04 0.23 0 0.06 0.23 0 0.08 0.23 0 0.1 0.23 0 0 0.235 0 0.02 0.235 0 0.04 0.235 0 0.06 0.235 0 0.08 0.235 0 0.1 0.235 0 0 0.24 0 0.02 0.24 0 0.04 0.24 0 0.06 0.24 0 0.08 0.24 0 0.1 0.24 0 0 0.245 0 0.02 0.245 0 0.04 0.245 0 0.06 0.245 0 0.08 0.245 0 0.1 0.245 0 0 0.25 0 0.02 0.25 0 0.04 0.25 0 0.06 0.25 0 0.08 0.25 0 0.1 0.25 0 0 0.255 0 0.02 0.255 0 0.04 0.255 0 0.06 0.255 0 0.08 0.255 0 0.1 0.255 0 0 0.26 0 0.02 0.26 0 0.04 0.26 0 0.06 0.26 0 0.08 0.26 0 0.1 0.26 0 0 0.265 0 0.02 0.265 0 0.04 0.265 0 0.06 0.265 0 0.08 0.265 0 0.1 0.265 0 0 0.27 0 0.02 0.27 0 0.04 0.27 0 0.06 0.27 0 0.08 0.27 0 0.1 0.27 0 0 0.275 0 0.02 0.275 0 0.04 0.275 0 0.06 0.275 0 0.08 0.275 0 0.1 0.275 0 0 0.28 0 0.02 0.28 0 0.04 0.28 0 0.06 0.28 0 0.08 0.28 0 0.1 0.28 0 0 0.285 0 0.02 0.285 0 0.04 0.285 0 0.06 0.285 0 0.08 0.285 0 0.1 0.285 0 0 0.29 0 0.02 0.29 0 0.04 0.29 0 0.06 0.29 0 0.08 0.29 0 0.1 0.29 0 0 0.295 0 0.02 0.295 0 0.04 0.295 0 0.06 0.295 0 0.08 0.295 0 0.1 0.295 0 0 0.3 0 0.02 0.3 0 0.04 0.3 0 0.06 0.3 0 0.08 0.3 0 0.1 0.3 0 0 0.305 0 0.02 0.305 0 0.04 0.305 0 0.06 0.305 0 0.08 0.305 0 0.1 0.305 0 0 0.31 0 0.02 0.31 0 0.04 0.31 0 0.06 0.31 0 0.08 0.31 0 0.1 0.31 0 0 0.315 0 0.02 0.315 0 0.04 0.315 0 0.06 0.315 0 0.08 0.315 0 0.1 0.315 0 0 0.32 0 0.02 0.32 0 0.04 0.32 0 0.06 0.32 0 0.08 0.32 0 0.1 0.32 0 0 0.325 0 0.02 0.325 0 0.04 0.325 0 0.06 0.325 0 0.08 0.325 0 0.1 0.325 0 0 0.33 0 0.02 0.33 0 0.04 0.33 0 0.06 0.33 0 0.08 0.33 0 0.1 0.33 0 0 0.335 0 0.02 0.335 0 0.04 0.335 0 0.06 0.335 0 0.08 0.335 0 0.1 0.335 0 0 0.34 0 0.02 0.34 0 0.04 0.34 0 0.06 0.34 0 0.08 0.34 0 0.1 0.34 0 0 0.345 0 0.02 0.345 0 0.04 0.345 0 0.06 0.345 0 0.08 0.345 0 0.1 0.345 0 0 0.35 0 0.02 0.35 0 0.04 0.35 0 0.06 0.35 0 0.08 0.35 0 0.1 0.35 0 0 0.355 0 0.02 0.355 0 0.04 0.355 0 0.06 0.355 0 0.08 0.355 0 0.1 0.355 0 0 0.36 0 0.02 0.36 0 0.04 0.36 0 0.06 0.36 0 0.08 0.36 0 0.1 0.36 0 0 0.365 0 0.02 0.365 0 0.04 0.365 0 0.06 0.365 0 0.08 0.365 0 0.1 0.365 0 0 0.37 0 0.02 0.37 0 0.04 0.37 0 0.06 0.37 0 0.08 0.37 0 0.1 0.37 0 0 0.375 0 0.02 0.375 0 0.04 0.375 0 0.06 0.375 0 0.08 0.375 0 0.1 0.375 0 0 0.38 0 0.02 0.38 0 0.04 0.38 0 0.06 0.38 0 0.08 0.38 0 0.1 0.38 0 0 0.385 0 0.02 0.385 0 0.04 0.385 0 0.06 0.385 0 0.08 0.385 0 0.1 0.385 0 0 0.39 0 0.02 0.39 0 0.04 0.39 0 0.06 0.39 0 0.08 0.39 0 0.1 0.39 0 0 0.395 0 0.02 0.395 0 0.04 0.395 0 0.06 0.395 0 0.08 0.395 0 0.1 0.395 0 0 0.4 0 0.02 0.4 0 0.04 0.4 0 0.06 0.4 0 0.08 0.4 0 0.1 0.4 0 0 0.405 0 0.02 0.405 0 0.04 0.405 0 0.06 0.405 0 0.08 0.405 0 0.1 0.405 0 0 0.41 0 0.02 0.41 0 0.04 0.41 0 0.06 0.41 0 0.08 0.41 0 0.1 0.41 0 0 0.415 0 0.02 0.415 0 0.04 0.415 0 0.06 0.415 0 0.08 0.415 0 0.1 0.415 0 0 0.420001 0 0.02 0.420001 0 0.04 0.420001 0 0.06 0.420001 0 0.08 0.420001 0 0.1 0.420001 0 0 0.425005 0 0.02 0.425005 0 0.04 0.425005 0 0.06 0.425005 0 0.08 0.425005 0 0.1 0.425005 0 0 0.430024 0 0.02 0.430024 0 0.04 0.430024 0 0.06 0.430024 0 0.08 0.430024 0 0.1 0.430024 0 0 0.435087 0 0.02 0.435087 0 0.04 0.435087 0 0.06 0.435087 0 0.08 0.435087 0 0.1 0.435087 0 0 0.440258 0 0.02 0.440258 0 0.04 0.440258 0 0.06 0.440258 0 0.08 0.440258 0 0.1 0.440258 0 0 0.445633 0 0.02 0.445633 0 0.04 0.445633 0 0.06 0.445633 0 0.08 0.445633 0 0.1 0.445633 0 0 0.451319 0 0.02 0.451319 0 0.04 0.451319 0 0.06 0.451319 0 0.08 0.451319 0 0.1 0.451319 0 0 0.457424 0 0.02 0.457424 0 0.04 0.457424 0 0.06 0.457424 0 0.08 0.457424 0 0.1 0.457424 0 0 0.464055 0 0.02 0.464055 0 0.04 0.464055 0 0.06 0.464055 0 0.08 0.464055 0 0.1 0.464055 0 0 0.471343 0 0.02 0.471343 0 0.04 0.471343 0 0.06 0.471343 0 0.08 0.471343 0 0.1 0.471343 0 0 0.479453 0 0.02 0.479453 0 0.04 0.479453 0 0.06 0.479453 0 0.08 0.479453 0 0.1 0.479453 0 0 0.488605 0 0.02 0.488605 0 0.04 0.488605 0 0.06 0.488605 0 0.08 0.488605 0 0.1 0.488605 0 0 0.499062 0 0.02 0.499062 0 0.04 0.499062 0 0.06 0.499062 0 0.08 0.499062 0 0.1 0.499062 0 0 0.510955 0 0.02 0.510955 0 0.04 0.510955 0 0.06 0.510955 0 0.08 0.510955 0 0.1 0.510955 0 0 0.523436 0 0.02 0.523436 0 0.04 0.523436 0 0.06 0.523436 0 0.08 0.523436 0 0.1 0.523436 0 0 0.535528 0 0.02 0.535528 0 0.04 0.535528 0 0.06 0.535528 0 0.08 0.535528 0 0.1 0.535528 0 0 0.54741 0 0.02 0.54741 0 0.04 0.54741 0 0.06 0.54741 0 0.08 0.54741 0 0.1 0.54741 0 0 0.550031 0 0.02 0.550031 0 0.04 0.550031 0 0.06 0.550031 0 0.08 0.550031 0 0.1 0.550031 0 0 0.552578 0 0.02 0.552578 0 0.04 0.552578 0 0.06 0.552578 0 0.08 0.552578 0 0.1 0.552578 0 0 0.55508 0 0.02 0.55508 0 0.04 0.55508 0 0.06 0.55508 0 0.08 0.55508 0 0.1 0.55508 0 0 0.557553 0 0.02 0.557553 0 0.04 0.557553 0 0.06 0.557553 0 0.08 0.557553 0 0.1 0.557553 0 0 0.560006 0 0.02 0.560006 0 0.04 0.560006 0 0.06 0.560006 0 0.08 0.560006 0 0.1 0.560006 0 0 0.562446 0 0.02 0.562446 0 0.04 0.562446 0 0.06 0.562446 0 0.08 0.562446 0 0.1 0.562446 0 0 0.564879 0 0.02 0.564879 0 0.04 0.564879 0 0.06 0.564879 0 0.08 0.564879 0 0.1 0.564879 0 0 0.567313 0 0.02 0.567313 0 0.04 0.567313 0 0.06 0.567313 0 0.08 0.567313 0 0.1 0.567313 0 0 0.569749 0 0.02 0.569749 0 0.04 0.569749 0 0.06 0.569749 0 0.08 0.569749 0 0.1 0.569749 0 0 0.572177 0 0.02 0.572177 0 0.04 0.572177 0 0.06 0.572177 0 0.08 0.572177 0 0.1 0.572177 0 0 0.574591 0 0.02 0.574591 0 0.04 0.574591 0 0.06 0.574591 0 0.08 0.574591 0 0.1 0.574591 0 0 0.577014 0 0.02 0.577014 0 0.04 0.577014 0 0.06 0.577014 0 0.08 0.577014 0 0.1 0.577014 0 0 0.579471 0 0.02 0.579471 0 0.04 0.579471 0 0.06 0.579471 0 0.08 0.579471 0 0.1 0.579471 0 0 0.582014 0 0.02 0.582014 0 0.04 0.582014 0 0.06 0.582014 0 0.08 0.582014 0 0.1 0.582014 0 0 0.584634 0 0.02 0.584634 0 0.04 0.584634 0 0.06 0.584634 0 0.08 0.584634 0 0.1 0.584634 0 0 0.587439 0 0.02 0.587439 0 0.04 0.587439 0 0.06 0.587439 0 0.08 0.587439 0 0.1 0.587439 0 0 0.59045 0 0.02 0.59045 0 0.04 0.59045 0 0.06 0.59045 0 0.08 0.59045 0 0.1 0.59045 0 0 0.593713 0 0.02 0.593713 0 0.04 0.593713 0 0.06 0.593713 0 0.08 0.593713 0 0.1 0.593713 0 0 0.597326 0 0.02 0.597326 0 0.04 0.597326 0 0.06 0.597326 0 0.08 0.597326 0 0.1 0.597326 0 0 0.601302 0 0.02 0.601302 0 0.04 0.601302 0 0.06 0.601302 0 0.08 0.601302 0 0.1 0.601302 0 0 0.605638 0 0.02 0.605638 0 0.04 0.605638 0 0.06 0.605638 0 0.08 0.605638 0 0.1 0.605638 0 0 0.610269 0 0.02 0.610269 0 0.04 0.610269 0 0.06 0.610269 0 0.08 0.610269 0 0.1 0.610269 0 0 0.615099 0 0.02 0.615099 0 0.04 0.615099 0 0.06 0.615099 0 0.08 0.615099 0 0.1 0.615099 0 0 0.620033 0 0.02 0.620033 0 0.04 0.620033 0 0.06 0.620033 0 0.08 0.620033 0 0.1 0.620033 0 0 0.62501 0 0.02 0.62501 0 0.04 0.62501 0 0.06 0.62501 0 0.08 0.62501 0 0.1 0.62501 0 0 0.630003 0 0.02 0.630003 0 0.04 0.630003 
[...]
			<PointData Scalars="VitesseX">
				<DataArray Name="VitesseX" type="Float32" format="ascii">
 0 3.16842e-17 -1.26837e-17 3.09723e-15 -1.87941e-15 0 0 -1.07763e-16 -5.35869e-16 3.90312e-15 -1.64044e-15 0 0 -9.81992e-16 -4.59177e-16 3.66812e-15 2.99649e-16 0 0 -1.45167e-15 1.87365e-16 2.32755e-15 2.17379e-15 0 0 -1.3342e-15 -3.58419e-16 2.27199e-15 2.60438e-15 0 0 -1.95764e-15 -4.7157e-17 1.1911e-15 3.93998e-15 0 0 -1.8849e-15 5.38133e-16 3.0946e-17 3.54753e-15 0 0 1.26326e-16 -1.97966e-15 2.44772e-15 2.12535e-15 0 0 2.26696e-15 -3.07214e-15 3.80594e-15 2.25207e-15 0 0 1.62138e-15 -1.85864e-15 3.43298e-15 2.56039e-15 0 0 5.906e-16 -5.15718e-17 2.59065e-15 2.6252e-15 0 0 3.47824e-16 2.25782e-15 1.41406e-15 4.98006e-15 0 0 -5.53612e-17 2.46734e-15 5.09344e-16 6.7228e-15 0 0 3.27417e-15 -1.5978e-15 2.14024e-16 7.5806e-15 0 0 3.56246e-15 -2.84425e-15 -1.1243e-15 8.68433e-15 0 0 -9.34192e-17 1.23179e-15 -3.35063e-15 7.25473e-15 0 0 -5.43275e-16 2.4064e-15 -3.39437e-16 5.2246e-15 0 0 -2.86578e-15 5.99827e-15 -2.93054e-15 7.80888e-15 0 0 -1.51465e-15 4.68403e-15 -2.85512e-15 6.55618e-15 0 0 6.83205e-16 2.66732e-16 4.15794e-15 1.44101e-15 0 0 -1.61511e-15 3.68783e-15 -3.35862e-15 1.11943e-14 0 0 6.56212e-16 1.4763e-15 -6.32947e-15 1.4757e-14 0 0 1.27181e-15 -1.92255e-16 6.79474e-16 5.91659e-15 0 0 2.08699e-15 7.27499e-16 1.34414e-15 4.92172e-15 0 0 1.20454e-16 3.0031e-15 -7.7299e-17 4.21297e-15 0 0 -3.42439e-16 1.64155e-15 5.36989e-15 -1.35865e-15 0 0 3.16843e-15 -2.85083e-15 2.62641e-15 4.91259e-15 0 0 1.91454e-15 -3.36711e-15 -1.73739e-15 1.04888e-14 0 0 3.99842e-15 -7.64896e-15 1.09428e-14 -1.01388e-15 0 0 3.58339e-15 -6.35967e-15 1.10237e-14 4.32999e-16 0 0 -3.40895e-15 1.42996e-15 2.35146e-15 4.78993e-15 0 0 -1.93876e-15 4.10832e-15 -1.22824e-15 -1.00961e-16 0 0 8.67201e-15 -2.67447e-15 2.82209e-15 -4.47062e-15 0 0 8.56469e-15 -7.02168e-15 7.70495e-15 -5.29374e-15 0 0 -1.02602e-15 -5.69654e-15 9.18539e-15 5.97799e-15 0 0 -6.74673e-15 -1.55652e-16 1.58619e-14 8.38765e-15 0 0 -5.96458e-16 2.91028e-15 2.89425e-14 -1.21731e-14 0 0 3.96031e-15 2.34206e-15 2.91659e-14 -1.87936e-14 0 0 5.28757e-15 6.59113e-15 6.98186e-15 -2.61116e-15 0 0 5.7671e-15 1.04719e-14 2.07098e-15 -2.42715e-15 0 0 2.06975e-15 1.17037e-14 9.81501e-15 -1.1389e-14 0 0 2.41774e-15 8.9147e-15 1.73389e-14 -1.60906e-14 0 0 4.06241e-15 9.37168e-15 1.48641e-14 -1.05418e-14 0 0 2.99781e-15 8.57232e-15 9.55791e-15 -4.80205e-15 0 0 4.98969e-15 3.86745e-15 1.40093e-14 -1.24519e-14 0 0 7.12813e-15 8.28775e-15 5.3451e-15 -8.22297e-15 0 0 5.27103e-15 1.21068e-14 -5.32565e-15 8.70719e-15 0 0 7.64016e-15 8.99229e-16 3.47751e-15 5.59889e-15 0 0 7.11771e-15 -1.87897e-15 1.33451e-14 -7.71197e-15 0 0 -4.97007e-15 9.95312e-15 1.61287e-14 -1.01415e-14 0 0 -8.18904e-15 1.09234e-14 1.01604e-14 -7.93444e-15 0 0 5.66366e-15 1.04879e-15 3.93126e-16 -3.3134e-15 0 0 1.19159e-14 3.11038e-16 -5.69907e-15 1.66282e-15 0 0 8.069e-15 4.09244e-15 -7.57381e-15 8.81944e-15 0 0 -3.62426e-16 1.20211e-14 3.71997e-15 4.50563e-15 0 0 6.66581e-16 1.06783e-14 1.7035e-14 -9.73378e-15 0 0 -5.19005e-15 1.39309e-14 1.04967e-14 -5.88605e-15 0 0 2.99921e-15 8.09938e-15 -6.31789e-16 4.79393e-15 0 0 1.35614e-14 1.173e-15 -1.00681e-14 1.24168e-14 0 0 2.37894e-15 1.16161e-14 -3.77987e-15 4.45311e-15 0 0 5.01348e-15 1.64157e-15 1.83354e-14 -9.88872e-15 0 0 -4.22342e-15 1.63456e-14 5.94631e-15 -1.37114e-14 0 0 -1.66707e-15 1.62856e-14 -5.88577e-15 -2.36633e-15 0 0 1.06664e-14 2.3326e-15 6.91708e-16 -1.53726e-15 0 0 5.63638e-15 2.46973e-15 6.40021e-15 -4.87996e-15 0 0 1.20466e-14 -6.68391e-15 6.25744e-16 9.62574e-15 0 0 7.55719e-15 3.49361e-15 -6.06267e-15 4.60842e-15 0 0 3.6165e-15 4.13531e-15 -7.14365e-15 -5.10456e-15 0 0 -1.3287e-15 9.9436e-15 -1.49419e-14 -2.12999e-15 0 0 -7.90288e-15 1.18076e-14 -8.60614e-15 3.07346e-15 0 0 4.02831e-15 -7.11527e-16 -2.2778e-15 -2.48923e-15 0 0 5.54294e-16 8.72339e-15 -4.42873e-15 -4.20054e-15 0 0 3.4749e-16 -5.18484e-15 1.25236e-14 2.84808e-16 0 0 4.92708e-16 -4.75404e-15 1.3902e-14 9.40728e-15 0 0 -3.56077e-15 1.00204e-14 3.51534e-15 2.72621e-14 0 0 2.99909e-15 1.19871e-14 -2.38134e-15 2.74304e-14 0 0 5.73181e-15 2.81668e-14 -5.37096e-15 3.35601e-14 0 0 -4.42716e-15 1.68124e-14 1.75408e-14 3.04927e-14 0 0 -7.73155e-16 -7.0501e-15 2.50472e-14 -1.62413e-15 0 0 6.34052e-16 -1.07819e-14 1.56053e-14 -1.52955e-14 0 0 1.1819e-14 -8.22659e-15 1.13229e-15 3.85151e-15 0 0 2.05323e-14 -6.65073e-15 -6.61018e-15 -1.97596e-15 0 0 -1.38091e-14 1.7325e-14 -7.36165e-15 -1.91025e-14 0 0 -8.55672e-15 5.06793e-15 -3.6379e-16 -1.71506e-14 0 0 1.92179e-14 -2.96459e-14 1.50824e-14 -2.0955e-14 0 0 6.83459e-16 3.43495e-15 3.41764e-15 -2.30147e-14 0 0 -1.06348e-14 1.99541e-14 -3.43073e-15 -2.14371e-14 0 0 2.02764e-14 -4.4509e-15 1.51006e-14 -1.6172e-14 0 0 1.62866e-14 5.20583e-15 5.69207e-15 -1.33008e-14 0 0 -8.41547e-16 1.07035e-14 -1.4126e-15 -6.71149e-15 0 0 -7.76475e-15 1.17852e-14 9.43457e-15 1.50588e-14 0 0 2.61457e-15 1.24993e-14 7.02944e-15 2.46904e-14 0 0 1.26402e-14 -2.76244e-15 5.85331e-15 1.88326e-14 0 0 -3.22993e-16 1.16253e-14 -2.49457e-15 -7.22343e-15 0 0 7.92286e-16 6.51437e-16 4.71182e-16 -1.34269e-14 0 0 9.84466e-15 -5.90113e-15 -7.02337e-16 8.6767e-15 0 0 1.55622e-14 -3.67991e-16 -4.25487e-15 8.94449e-15 0 0 -1.36383e-14 -3.98988e-14 -5.10029e-14 -1.06671e-14 0 0 -1.54189e-13 -2.22805e-13 -2.39354e-13 -1.39535e-13 0 0 -3.45124e-13 -5.40547e-13 -5.23643e-13 -3.51605e-13 0 0 -4.30682e-13 -7.27175e-13 -7.09863e-13 -4.45403e-13 0 0 -4.89877e-13 -8.24617e-13 -8.61341e-13 -5.03015e-13 0 0 -4.49278e-13 -7.60089e-13 -7.32185e-13 -4.29668e-13 0 0 -4.13855e-13 -6.71858e-13 -6.86884e-13 -4.05045e-13 0 0 -3.8736e-13 -5.841e-13 -6.69234e-13 -3.85897e-13 0 0 -3.53072e-13 -5.4887e-13 -5.85928e-13 -3.41156e-13 0 0 -3.29068e-13 -5.7011e-13 -5.21662e-13 -3.33012e-13 0 0 -3.69383e-13 -6.71805e-13 -5.8271e-13 -4.13042e-13 0 0 -5.46327e-13 -8.95134e-13 -8.67226e-13 -5.66401e-13 0 0 -7.63258e-13 -1.17563e-12 -1.23332e-12 -7.20935e-13 0 0 -9.18159e-13 -1.43103e-12 -1.51825e-12 -8.73317e-13 0 0 -1.0315e-12 -1.608e-12 -1.69735e-12 -1.01904e-12 0 0 -1.082e-12 -1.69845e-12 -1.74675e-12 -1.04114e-12 0 0 -1.06399e-12 -1.75355e-12 -1.72057e-12 -1.02477e-12 0 0 -1.05609e-12 -1.80642e-12 -1.73945e-12 -1.08323e-12 0 0 -9.88568e-13 -1.64007e-12 -1.67779e-12 -1.02568e-12 0 0 -9.54255e-13 -1.48776e-12 -1.6256e-12 -9.37167e-13 0 0 -9.17511e-13 -1.38226e-12 -1.45125e-12 -9.32605e-13 0 0 -7.49723e-13 -1.18834e-12 -1.17515e-12 -7.91061e-13 0 0 -5.62188e-13 -9.44691e-13 -9.50186e-13 -5.96069e-13 0 0 -3.93284e-13 -6.67997e-13 -6.36989e-13 -4.1404e-13 0 0 -2.35757e-13 -3.94417e-13 -3.92419e-13 -2.15656e-13 0 0 -1.1552e-13 -1.72221e-13 -2.01392e-13 -1.0477e-13 0 0 -5.1848e-14 -6.14499e-14 -6.17678e-14 -4.98302e-14 0 0 -2.08521e-14 -2.20558e-14 -1.01102e-16 -1.17379e-14 0 0 -4.14874e-15 -2.27583e-14 4.84757e-14 -2.38329e-14 0 0 -1.89411e-14 1.9412e-15 3.78898e-14 -1.49043e-14 0 0 -1.44881e-14 1.48083e-14 -2.09996e-15 1.1812e-14 0 0 3.35174e-15 8.85551e-15 2.45468e-16 2.72825e-15 0 0 -9.00227e-15 2.31555e-14 -1.42424e-14 8.87894e-15 0 0 1.60504e-15 1.62722e-15 3.36214e-15 1.52838e-14 0 0 9.84636e-15 -9.17843e-15 3.77434e-14 1.60874e-14 0 0 -2.41261e-15 1.3104e-14 3.18119e-14 1.05679e-14 0 0 2.36148e-15 2.16455e-14 1.86153e-14 2.84883e-14 0 0 2.70769e-15 9.56157e-15 2.94212e-14 3.64535e-14 0 0 1.92259e-15 9.90925e-15 2.81312e-14 3.82582e-14 0 0 2.30572e-14 1.96838e-14 1.63649e-14 1.98547e-14 0 0 4.05316e-14 3.55727e-16 3.14915e-14 -2.48954e-14 0 0 2.38178e-14 2.60694e-14 1.51762e-14 3.52614e-15 0 0 3.09157e-15 9.67066e-14 -4.9089e-14 7.83743e-14 0 0 2.22518e-14 8.4499e-14 -9.8411e-15 8.78311e-14 0 0 5.03369e-14 4.32908e-14 4.50351e-14 6.26603e-14 0 0 3.32163e-14 4.46804e-14 1.76127e-14 7.89851e-14 0 0 2.87089e-14 2.02362e-14 2.17852e-14 6.92685e-14 0 0 4.58306e-14 5.45209e-15 2.28493e-14 3.86165e-14 0 0 3.55743e-14 2.12179e-15 3.51565e-14 8.93987e-15 0 0 2.18673e-14 -1.6837e-15 5.75578e-14 -2.01447e-14 0 0 3.49072e-14 2.49544e-15 6.44653e-14 -5.85893e-15 0 0 6.42437e-14 -2.76184e-14 8.94351e-14 6.70168e-15 0 0 3.08789e-14 1.79347e-14 6.13829e-14 3.69568e-14 0 0 2.72275e-14 5.55746e-14 3.16764e-14 6.00251e-14 0 0 6.43644e-14 9.06576e-15 6.74972e-14 1.94369e-14 0 0 3.50214e-14 -9.56389e-16 9.89701e-14 -2.34287e-14 0 0 1.81011e-14 1.86984e-14 6.15294e-14 -1.44467e-15 0 0 1.43793e-14 1.56176e-14 4.054e-14 4.17323e-14 0 0 2.10914e-14 1.9578e-14 3.6466e-14 5.99721e-14 0 0 2.83993e-14 3.73459e-14 5.14259e-14 7.21414e-14 0 0 2.97836e-15 6.31462e-14 3.79228e-14 8.45671e-14 0 0 1.62661e-14 6.12308e-14 -1.79669e-14 9.72534e-14 0 0 2.90083e-14 2.71227e-14 5.90626e-14 3.16332e-14 0 0 -6.29731e-15 4.10385e-14 9.48594e-14 1.10685e-14 0 0 -2.79505e-14 6.99202e-14 9.16897e-15 1.09156e-13 0 0 1.82991e-14 4.93257e-14 -4.19398e-14 1.58089e-13 0 0 6.55187e-14 -1.41273e-14 4.18382e-14 5.12743e-14 0 0 4.99019e-14 -2.77654e-15 8.58347e-14 -3.68536e-14 0 0 1.35279e-14 6.46063e-14 3.20197e-14 -2.44964e-14 0 0 3.60933e-14 1.41913e-16 7.21508e-14 -3.64113e-14 0 0 3.01036e-14 -3.00006e-14 8.14866e-14 -1.6065e-14 0 0 -1.96166e-14 4.45641e-14 4.22662e-14 4.19408e-14 0 0 -1.13033e-14 5.01151e-14 4.31698e-14 6.52477e-14 0 0 9.34156e-15 2.26414e-14 5.06449e-14 2.65386e-14 0 0 2.68756e-14 2.67787e-14 2.2474e-14 -4.0571e-16 0 0 -1.32518e-14 9.92819e-14 -3.13389e-14 3.10081e-14 0 0 -3.54876e-14 1.16184e-13 -3.21573e-14 4.48126e-14 0 0 2.10884e-14 2.86587e-14 1.32303e-14 8.28851e-14 0 0 6.33434e-14 -1.04103e-14 3.38524e-14 8.36539e-14 0 0 6.39715e-14 7.53187e-15 2.31645e-14 2.06415e-14 0 0 6.45604e-14 -2.09532e-15 3.46964e-14 -2.51699e-14 0 0 5.12225e-14 1.5306e-14 2.04991e-14 -1.22353e-15 0 0 2.9358e-14 4.07657e-14 1.89998e-14 3.05282e-15 0 0 2.17259e-14 2.74529e-14 1.67724e-14 -1.21358e-14 0 0 2.48208e-14 -2.342e-15 -6.77356e-15 3.96125e-14 0 0 1.32975e-14 6.59734e-14 -6.47297e-14 7.72606e-14 0 0 -1.32988e-14 1.18291e-13 -7.52101e-14 6.71415e-14 0 0 2.3299e-14 8.02203e-15 4.26058e-15 6.22361e-14 0 0 3.37289e-14 -2.32632e-14 6.32392e-15 3.50099e-14 0 0 3.15569e-14 1.80367e-14 -3.72594e-14 7.58294e-14 0 0 3.0592e-14 4.72247e-14 -2.35314e-14 1.26374e-13 0 0 1.07086e-14 6.68263e-14 1.81938e-14 7.76975e-14 0 0 3.31545e-14 1.58191e-14 4.6154e-14 5.96501e-14 0 0 5.64014e-14 -7.71563e-15 1.92258e-14 5.85662e-14 0 0 6.22297e-14 1.91872e-14 2.57379e-15 2.80014e-15 0 0 3.90305e-14 1.44832e-14 6.98554e-14 -7.65496e-14 0 0 3.36045e-14 -2.48678e-14 9.71385e-14 -6.7357e-14 0 0 2.18883e-14 3.36727e-15 2.3796e-14 9.19194e-15 0 0 -1.62891e-14 7.38363e-14 -3.87733e-14 4.78973e-14 0 0 7.57045e-16 5.43632e-14 -9.63128e-16 -1.61351e-14 0 0 -4.93051e-15 2.5815e-14 5.52828e-14 -3.87392e-14 0 0 2.04743e-15 -2.16178e-15 5.61675e-14 -9.61779e-15 0 0 1.47815e-14 -6.35926e-15 5.97661e-14 -4.84274e-14 0 0 -1.36078e-14 2.35798e-14 8.10368e-14 -8.74822e-14 0
				</DataArray>
				<DataArray Name="VitesseY" type="Float32" format="ascii">