<?xml version="1.0"?>
<VTKFile type="PolyData">
	<PolyData>
		<Piece NumberOfPoints="1206" NumberOfPolys="1000">
			<Points>
				<DataArray type="Float32" NumberOfComponents="3" format="ascii">
 0 0 0 0.02 0 0 0.04 0 0 0.06 0 0 0.08 0 0 0.1 0 0 0 0.005 0 0.02 0.005 0 0.04 0.005 0 0.06 0.005 0 0.08 0.005 0 0.1 0.005 0 0 0.01 0 0.02 0.01 0 0.04 0.01 0 0.06 0.01 0 0.08 0.01 0 0.1 0.01 0 0 0.015 0 0.02 0.015 0 0.04 0.015 0 0.06 0.015 0 0.08 0.015 0 0.1 0.015 0 0 0.02 0 0.02 0.02 0 0.04 0.02 0 0.06 0.02 0 0.08 0.02 0 0.1 0.02 0 0 0.025 0 0.02 0.025 0 0.04 0.025 0 0.06 0.025 0 0.08 0.025 0 0.1 0.025 0 0 0.03 0 0.02 0.03 0 0.04 0.03 0 0.06 0.03 0 0.08 0.03 0 0.1 0.03 0 0 0.035 0 0.02 0.035 0 0.04 0.035 0 0.06 0.035 0 0.08 0.035 0 0.1 0.035 0 0 0.04 0 0.02 0.04 0 0.04 0.04 0 0.06 0.04 0 0.08 0.04 0 0.1 0.04 0 0 0.045 0 0.02 0.045 0 0.04 0.045 0 0.06 0.045 0 0.08 0.045 0 0.1 0.045 0 0 0.05 0 0.02 0.05 0 0.04 0.05 0 0.06 0.05 0 0.08 0.05 0 0.1 0.05 0 0 0.055 0 0.02 0.055 0 0.04 0.055 0 0.06 0.055 0 0.08 0.055 0 0.1 0.055 0 0 0.06 0 0.02 0.06 0 0.04 0.06 0 0.06 0.06 0 0.08 0.06 0 0.1 0.06 0 0 0.065 0 0.02 0.065 0 0.04 0.065 0 0.06 0.065 0 0.08 0.065 0 0.1 0.065 0 0 0.07 0 0.02 0.07 0 0.04 0.07 0 0.06 0.07 0 0.08 0.07 0 0.1 0.07 0 0 0.075 0 0.02 0.075 0 0.04 0.075 0 0.06 0.075 0 0.08 0.075 0 0.1 0.075 0 0 0.08 0 0.02 0.08 0 0.04 0.08 0 0.06 0.08 0 0.08 0.08 0 0.1 0.08 0 0 0.085 0 0.02 0.085 0 0.04 0.085 0 0.06 0.085 0 0.08 0.085 0 0.1 0.085 0 0 0.09 0 0.02 0.09 0 0.04 0.09 0 0.06 0.09 0 0.08 0.09 0 0.1 0.09 0 0 0.095 0 0.02 0.095 0 0.04 0.095 0 0.06 0.095 0 0.08 0.095 0 0.1 0.095 0 0 0.1 0 0.02 0.1 0 0.04 0.1 0 0.06 0.1 0 0.08 0.1 0 0.1 0.1 0 0 0.105 0 0.02 0.105 0 0.04 0.105 0 0.06 0.105 0 0.08 0.105 0 0.1 0.105 0 0 0.11 0 0.02 0.11 0 0.04 0.11 0 0.06 0.11 0 0.08 0.11 0 0.1 0.11 0 0 0.115 0 0.02 0.115 0 0.04 0.115 0 0.06 0.115 0 0.08 0.115 0 0.1 0.115 0 0 0.12 0 0.02 0.12 0 0.04 0.12 0 0.06 0.12 0 0.08 0.12 0 0.1 0.12 0 0 0.125 0 0.02 0.125 0 0.04 0.125 0 0.06 0.125 0 0.08 0.125 0 0.1 0.125 0 0 0.13 0 0.02 0.13 0 0.04 0.13 0 0.06 0.13 0 0.08 0.13 0 0.1 0.13 0 0 0.135 0 0.02 0.135 0 0.04 0.135 0 0.06 0.135 0 0.08 0.135 0 0.1 0.135 0 0 0.14 0 0.02 0.14 0 0.04 0.14 0 0.06 0.14 0 0.08 0.14 0 0.1 0.14 0 0 0.145 0 0.02 0.145 0 0.04 0.145 0 0.06 0.145 0 0.08 0.145 0 0.1 0.145 0 0 0.15 0 0.02 0.15 0 0.04 0.15 0 0.06 0.15 0 0.08 0.15 0 0.1 0.15 0 0 0.155 0 0.02 0.155 0 0.04 0.155 0 0.06 0.155 0 0.08 0.155 0 0.1 0.155 0 0 0.16 0 0.02 0.16 0 0.04 0.16 0 0.06 0.16 0 0.08 0.16 0 0.1 0.16 0 0 0.165 0 0.02 0.165 0 0.04 0.165 0 0.06 0.165 0 0.08 0.165 0 0.1 0.165 0 0 0.17 0 0.02 0.17 0 0.04 0.17 0 0.06 0.17 0 0.08 0.17 0 0.1 0.17 0 0 0.175 0 0.02 0.175 0 0.04 0.175 0 0.06 0.175 0 0.08 0.175 0 0.1 0.175 0 0 0.18 0 0.02 0.18 0 0.04 0.18 0 0.06 0.18 0 0.08 0.18 0 0.1 0.18 0 0 0.185 0 0.02 0.185 0 0.04 0.185 0 0.06 0.185 0 0.08 0.185 0 0.1 0.185 0 0 0.19 0 0.02 0.19 0 0.04 0.19 0 0.06 0.19 0 0.08 0.19 0 0.1 0.19 0 0 0.195 0 0.02 0.195 0 0.04 0.195 0 0.06 0.195 0 0.08 0.195 0 0.1 0.195 0 0 0.2 0 0.02 0.2 0 0.04 0.2 0 0.06 0.2 0 0.08 0.2 0 0.1 0.2 0 0 0.205 0 0.02 0.205 0 0.04 0.205 0 0.06 0.205 0 0.08 0.205 0 0.1 0.205 0 0 0.21 0 0.02 0.21 0 0.04 0.21 0 0.06 0.21 0 0.08 0.21 0 0.1 0.21 0 0 0.215 0 0.02 0.215 0 0.04 0.215 0 0.06 0.215 0 0.08 0.215 0 0.1 0.215 0 0 0.22 0 0.02 0.22 0 0.04 0.22 0 0.06 0.22 0 0.08 0.22 0 0.1 0.22 0 0 0.225 0 0.02 0.225 0 0.04 0.225 0 0.06 0.225 0 0.08 0.225 0 0.1 0.225 0 0 0.23 0 0.02 0.23 0 0.04 0.23 0 0.06 0.23 0 0.08 0.23 0 0.1 0.23 0 0 0.235 0 0.02 0.235 0 0.04 0.235 0 0.06 0.235 0 0.08 0.235 0 0.1 0.235 0 0 0.24 0 0.02 0.24 0 0.04 0.24 0 0.06 0.24 0 0.08 0.24 0 0.1 0.24 0 0 0.245 0 0.02 0.245 0 0.04 0.245 0 0.06 0.245 0 0.08 0.245 0 0.1 0.245 0 0 0.25 0 0.02 0.25 0 0.04 0.25 0 0.06 0.25 0 0.08 0.25 0 0.1 0.25 0 0 0.255 0 0.02 0.255 0 0.04 0.255 0 0.06 0.255 0 0.08 0.255 0 0.1 0.255 0 0 0.26 0 0.02 0.26 0 0.04 0.26 0 0.06 0.26 0 0.08 0.26 0 0.1 0.26 0 0 0.265 0 0.02 0.265 0 0.04 0.265 0 0.06 0.265 0 0.08 0.265 0 0.1 0.265 0 0 0.27 0 0.02 0.27 0 0.04 0.27 0 0.06 0.27 0 0.08 0.27 0 0.1 0.27 0 0 0.275 0 0.02 0.275 0 0.04 0.275 0 0.06 0.275 0 0.08 0.275 0 0.1 0.275 0 0 0.28 0 0.02 0.28 0 0.04 0.28 0 0.06 0.28 0 0.08 0.28 0 0.1 0.28 0 0 0.285 0 0.02 0.285 0 0.04 0.285 0 0.06 0.285 0 0.08 0.285 0 0.1 0.285 0 0 0.29 0 0.02 0.29 0 0.04 0.29 0 0.06 0.29 0 0.08 0.29 0 0.1 0.29 0 0 0.295 0 0.02 0.295 0 0.04 0.295 0 0.06 0.295 0 0.08 0.295 0 0.1 0.295 0 0 0.3 0 0.02 0.3 0 0.04 0.3 0 0.06 0.3 0 0.08 0.3 0 0.1 0.3 0 0 0.305 0 0.02 0.305 0 0.04 0.305 0 0.06 0.305 0 0.08 0.305 0 0.1 0.305 0 0 0.31 0 0.02 0.31 0 0.04 0.31 0 0.06 0.31 0 0.08 0.31 0 0.1 0.31 0 0 0.315 0 0.02 0.315 0 0.04 0.315 0 0.06 0.315 0 0.08 0.315 0 0.1 0.315 0 0 0.32 0 0.02 0.32 0 0.04 0.32 0 0.06 0.32 0 0.08 0.32 0 0.1 0.32 0 0 0.325 0 0.02 0.325 0 0.04 0.325 0 0.06 0.325 0 0.08 0.325 0 0.1 0.325 0 0 0.33 0 0.02 0.33 0 0.04 0.33 0 0.06 0.33 0 0.08 0.33 0 0.1 0.33 0 0 0.335 0 0.02 0.335 0 0.04 0.335 0 0.06 0.335 0 0.08 0.335 0 0.1 0.335 0 0 0.34 0 0.02 0.34 0 0.04 0.34 0 0.06 0.34 0 0.08 0.34 0 0.1 0.34 0 0 0.345 0 0.02 0.345 0 0.04 0.345 0 0.06 0.345 0 0.08 0.345 0 0.1 0.345 0 0 0.35 0 0.02 0.35 0 0.04 0.35 0 0.06 0.35 0 0.08 0.35 0 0.1 0.35 0 0 0.355 0 0.02 0.355 0 0.04 0.355 0 0.06 0.355 0 0.08 0.355 0 0.1 0.355 0 0 0.36 0 0.02 0.36 0 0.04 0.36 0 0.06 0.36 0 0.08 0.36 0 0.1 0.36 0 0 0.365 0 0.02 0.365 0 0.04 0.365 0 0.06 0.365 0 0.08 0.365 0 0.1 0.365 0 0 0.37 0 0.02 0.37 0 0.04 0.37 0 0.06 0.37 0 0.08 0.37 0 0.1 0.37 0 0 0.375 0 0.02 0.375 0 0.04 0.375 0 0.06 0.375 0 0.08 0.375 0 0.1 0.375 0 0 0.38 0 0.02 0.38 0 0.04 0.38 0 0.06 0.38 0 0.08 0.38 0 0.1 0.38 0 0 0.385 0 0.02 0.385 0 0.04 0.385 0 0.06 0.385 0 0.08 0.385 0 0.1 0.385 0 0 0.39 0 0.02 0.39 0 0.04 0.39 0 0.06 0.39 0 0.08 0.39 0 0.1 0.39 0 0 0.395 0 0.02 0.395 0 0.04 0.395 0 0.06 0.395 0 0.08 0.395 0 0.1 0.395 0 0 0.4 0 0.02 0.4 0 0.04 0.4 0 0.06 0.4 0 0.08 0.4 0 0.1 0.4 0 0 0.405001 0 0.02 0.405001 0 0.04 0.405001 0 0.06 0.405001 0 0.08 0.405001 0 0.1 0.405001 0 0 0.410003 0 0.02 0.410003 0 0.04 0.410003 0 0.06 0.410003 0 0.08 0.410003 0 0.1 0.410003 0 0 0.415013 0 0.02 0.415013 0 0.04 0.415013 0 0.06 0.415013 0 0.08 0.415013 0 0.1 0.415013 0 0 0.420048 0 0.02 0.420048 0 0.04 0.420048 0 0.06 0.420048 0 0.08 0.420048 0 0.1 0.420048 0 0 0.425146 0 0.02 0.425146 0 0.04 0.425146 0 0.06 0.425146 0 0.08 0.425146 0 0.1 0.425146 0 0 0.43037 0 0.02 0.43037 0 0.04 0.43037 0 0.06 0.43037 0 0.08 0.43037 0 0.1 0.43037 0 0 0.435801 0 0.02 0.435801 0 0.04 0.435801 0 0.06 0.435801 0 0.08 0.435801 0 0.1 0.435801 0 0 0.441516 0 0.02 0.441516 0 0.04 0.441516 0 0.06 0.441516 0 0.08 0.441516 0 0.1 0.441516 0 0 0.44759 0 0.02 0.44759 0 0.04 0.44759 0 0.06 0.44759 0 0.08 0.44759 0 0.1 0.44759 0 0 0.454096 0 0.02 0.454096 0 0.04 0.454096 0 0.06 0.454096 0 0.08 0.454096 0 0.1 0.454096 0 0 0.461121 0 0.02 0.461121 0 0.04 0.461121 0 0.06 0.461121 0 0.08 0.461121 0 0.1 0.461121 0 0 0.46877 0 0.02 0.46877 0 0.04 0.46877 0 0.06 0.46877 0 0.08 0.46877 0 0.1 0.46877 0 0 0.477177 0 0.02 0.477177 0 0.04 0.477177 0 0.06 0.477177 0 0.08 0.477177 0 0.1 0.477177 0 0 0.486512 0 0.02 0.486512 0 0.04 0.486512 0 0.06 0.486512 0 0.08 0.486512 0 0.1 0.486512 0 0 0.49697 0 0.02 0.49697 0 0.04 0.49697 0 0.06 0.49697 0 0.08 0.49697 0 0.1 0.49697 0 0 0.508665 0 0.02 0.508665 0 0.04 0.508665 0 0.06 0.508665 0 0.08 0.508665 0 0.1 0.508665 0 0 0.521094 0 0.02 0.521094 0 0.04 0.521094 0 0.06 0.521094 0 0.08 0.521094 0 0.1 0.521094 0 0 0.533267 0 0.02 0.533267 0 0.04 0.533267 0 0.06 0.533267 0 0.08 0.533267 0 0.1 0.533267 0 0 0.545188 0 0.02 0.545188 0 0.04 0.545188 0 0.06 0.545188 0 0.08 0.545188 0 0.1 0.545188 0 0 0.557002 0 0.02 0.557002 0 0.04 0.557002 0 0.06 0.557002 0 0.08 0.557002 0 0.1 0.557002 0 0 0.559622 0 0.02 0.559622 0 0.04 0.559622 0 0.06 0.559622 0 0.08 0.559622 0 0.1 0.559622 0 0 0.562169 0 0.02 0.562169 0 0.04 0.562169 0 0.06 0.562169 0 0.08 0.562169 0 0.1 0.562169 0 0 0.56467 0 0.02 0.56467 0 0.04 0.56467 0 0.06 0.56467 0 0.08 0.56467 0 0.1 0.56467 0 0 0.56714 0 0.02 0.56714 0 0.04 0.56714 0 0.06 0.56714 0 0.08 0.56714 0 0.1 0.56714 0 0 0.569589 0 0.02 0.569589 0 0.04 0.569589 0 0.06 0.569589 0 0.08 0.569589 0 0.1 0.569589 0 0 0.572022 0 0.02 0.572022 0 0.04 0.572022 0 0.06 0.572022 0 0.08 0.572022 0 0.1 0.572022 0 0 0.574445 0 0.02 0.574445 0 0.04 0.574445 0 0.06 0.574445 0 0.08 0.574445 0 0.1 0.574445 0 0 0.576865 0 0.02 0.576865 0 0.04 0.576865 0 0.06 0.576865 0 0.08 0.576865 0 0.1 0.576865 0 0 0.579285 0 0.02 0.579285 0 0.04 0.579285 0 0.06 0.579285 0 0.08 0.579285 0 0.1 0.579285 0 0 0.58169 0 0.02 0.58169 0 0.04 0.58169 0 0.06 0.58169 0 0.08 0.58169 0 0.1 0.58169 0 0 0.584086 0 0.02 0.584086 0 0.04 0.584086 0 0.06 0.584086 0 0.08 0.584086 0 0.1 0.584086 0 0 0.586479 0 0.02 0.586479 0 0.04 0.586479 0 0.06 0.586479 0 0.08 0.586479 0 0.1 0.586479 0 0 0.588875 0 0.02 0.588875 0 0.04 0.588875 0 0.06 0.588875 0 0.08 0.588875 0 0.1 0.588875 0 0 0.591278 0 0.02 0.591278 0 0.04 0.591278 0 0.06 0.591278 0 0.08 0.591278 0 0.1 0.591278 0 0 0.593692 0 0.02 0.593692 0 0.04 0.593692 0 0.06 0.593692 0 0.08 0.593692 0 0.1 0.593692 0 0 0.596124 0 0.02 0.596124 0 0.04 0.596124 0 0.06 0.596124 0 0.08 0.596124 0 0.1 0.596124 0 0 0.598607 0 0.02 0.598607 0 0.04 0.598607 0 0.06 0.598607 0 0.08 0.598607 0 0.1 0.598607 0 0 0.601189 0 0.02 0.601189 0 0.04 0.601189 0 0.06 0.601189 0 0.08 0.601189 0 0.1 0.601189 0 0 0.603878 0 0.02 0.603878 0 0.04 0.603878 0 0.06 0.603878 0 0.08 0.603878 0 0.1 0.603878 0 0 0.606753 0 0.02 0.606753 0 0.04 0.606753 0 0.06 0.606753 0 0.08 0.606753 0 0.1 0.606753 0 0 0.609842 0 0.02 0.609842 0 0.04 0.609842 0 0.06 0.609842 0 0.08 0.609842 0 0.1 0.609842 0 0 0.61324 0 0.02 0.61324 0 0.04 0.61324 0 0.06 0.61324 0 0.08 0.61324 0 0.1 0.61324 0 0 0.616976 0 0.02 0.616976 0 0.04 0.616976 0 0.06 0.616976 0 0.08 0.616976 0 0.1 0.616976 0 0 0.621079 0 0.02 0.621079 0 0.04 0.621079 0 0.06 0.621079 0 0.08 0.621079 0 0.1 0.621079 0 0 0.625516 0 0.02 0.625516 0 0.04 0.625516 0 0.06 0.625516 0 0.08 0.625516 0 0.1 0.625516 0 0 0.630
[...]
			<PointData Scalars="VitesseX">
				<DataArray Name="VitesseX" type="Float32" format="ascii">
 0 -2.05447e-15 -9.9434e-16 6.51435e-15 -6.2874e-16 0 0 -1.64876e-15 -7.24611e-16 5.34257e-15 1.41276e-16 0 0 -9.20609e-16 -1.0044e-16 2.80666e-15 1.97281e-15 0 0 -6.37522e-16 1.23651e-16 1.35764e-15 3.08939e-15 0 0 -9.07062e-16 -1.05934e-16 1.34453e-15 2.85458e-15 0 0 -1.1364e-15 -1.33089e-15 3.36439e-15 1.28757e-15 0 0 -1.10853e-15 -2.2228e-15 4.26696e-15 2.59872e-15 0 0 6.49128e-17 -1.7177e-15 2.62485e-15 4.94742e-15 0 0 2.13481e-15 -2.01264e-15 3.03895e-15 3.73161e-15 0 0 2.36002e-15 -2.42966e-15 6.21758e-15 2.69486e-15 0 0 2.25189e-15 -1.70113e-15 5.21055e-15 3.99119e-15 0 0 -9.34939e-17 2.90207e-15 4.48912e-16 4.24606e-15 0 0 4.54391e-16 3.32639e-15 -1.98293e-15 6.46807e-15 0 0 4.47549e-15 -3.2829e-15 1.93719e-18 8.66819e-15 0 0 2.4912e-15 -3.75931e-16 -3.3732e-15 1.12517e-14 0 0 -3.01098e-16 3.85598e-15 -4.98611e-15 1.08276e-14 0 0 7.73498e-16 2.98992e-16 8.16854e-16 5.21046e-15 0 0 -1.19273e-15 3.70949e-15 -1.71314e-15 7.37417e-15 0 0 -2.63925e-16 2.59342e-15 5.33361e-16 6.08173e-15 0 0 1.09398e-15 -1.79845e-15 3.46433e-15 5.82644e-15 0 0 -3.13018e-15 3.71136e-15 -1.9802e-15 9.41511e-15 0 0 -2.29835e-15 5.96235e-15 -2.85327e-15 7.10113e-15 0 0 2.18279e-15 1.07741e-15 2.91418e-15 2.90545e-15 0 0 4.51993e-15 1.20424e-15 5.5399e-15 -1.89538e-15 0 0 3.96934e-15 3.5268e-15 3.86855e-15 7.27116e-16 0 0 4.39159e-15 -4.89508e-16 -3.23877e-16 8.90123e-15 0 0 7.86938e-15 -6.43087e-15 -1.40335e-17 5.55259e-15 0 0 2.67436e-15 -4.77598e-15 -1.81251e-15 6.81472e-15 0 0 -1.44353e-15 -4.86174e-15 4.63423e-16 7.50417e-15 0 0 2.80705e-15 -6.66142e-15 7.09636e-15 -4.02682e-16 0 0 6.61784e-16 3.99058e-15 -1.17e-15 2.73883e-15 0 0 -7.71597e-15 1.61649e-14 -6.67653e-15 4.72928e-15 0 0 -1.68542e-15 5.45718e-15 2.37436e-15 7.24699e-15 0 0 9.04373e-15 -7.07904e-15 5.54749e-15 1.0926e-14 0 0 5.38562e-15 1.56414e-15 4.34217e-15 3.62307e-15 0 0 -2.34851e-15 8.91228e-15 6.16018e-15 3.22643e-15 0 0 3.42881e-15 -3.29925e-16 4.21784e-15 1.45978e-14 0 0 6.53739e-15 4.6109e-15 3.05764e-15 2.38607e-16 0 0 -2.84668e-15 2.1372e-14 9.00208e-16 -1.89157e-14 0 0 6.63607e-15 8.25882e-15 3.44145e-15 -1.61527e-14 0 0 9.12908e-15 4.4532e-15 2.79306e-15 -9.94685e-15 0 0 3.73735e-15 7.29972e-15 4.24404e-15 -1.37258e-14 0 0 -3.62419e-15 1.24308e-14 5.24862e-15 -1.68186e-14 0 0 -4.80893e-15 1.98789e-14 -2.45931e-16 -1.11671e-14 0 0 8.84827e-15 1.25423e-14 1.92222e-15 -1.45914e-15 0 0 9.17138e-15 1.37522e-14 -6.361e-15 1.47772e-14 0 0 1.06039e-14 6.2175e-15 -2.50152e-15 1.32628e-14 0 0 7.59998e-15 -8.16367e-16 1.48048e-14 -2.31325e-15 0 0 -2.83138e-15 8.78311e-15 8.90163e-15 -5.49417e-15 0 0 1.61641e-15 1.58231e-15 8.13665e-15 -2.61998e-15 0 0 6.89543e-15 -9.21123e-15 1.83737e-14 -2.2351e-14 0 0 1.8596e-14 -2.05114e-14 2.41743e-14 -3.23861e-14 0 0 5.92181e-15 -2.58978e-15 1.07184e-14 -6.69583e-15 0 0 -1.16691e-14 2.46974e-14 -3.04835e-15 1.15262e-14 0 0 9.4236e-16 1.02712e-14 1.00211e-14 6.4367e-15 0 0 6.56333e-15 2.81403e-16 1.60035e-14 7.79995e-15 0 0 3.37534e-15 7.92977e-15 8.0458e-16 1.06115e-14 0 0 -3.90333e-15 1.52057e-14 -8.31017e-15 1.19522e-14 0 0 6.65449e-16 7.93087e-16 7.91456e-15 4.48233e-15 0 0 1.04239e-14 -6.59241e-15 5.25827e-16 5.13352e-15 0 0 1.31457e-14 -2.31185e-15 -6.24202e-15 9.51982e-15 0 0 4.05932e-15 8.77935e-16 1.03236e-14 -7.40654e-15 0 0 7.15188e-15 5.29925e-15 -4.1823e-16 -9.38605e-15 0 0 1.24106e-14 1.27548e-14 -9.07909e-15 -7.73519e-15 0 0 5.74195e-15 1.09801e-14 8.12227e-16 -1.14517e-14 0 0 -2.18117e-15 1.04563e-14 -5.23911e-15 -3.71025e-15 0 0 5.08096e-16 1.77698e-15 -4.87177e-15 6.389e-15 0 0 -1.75906e-15 6.48208e-16 -4.60416e-15 8.98908e-15 0 0 -1.28179e-14 2.91485e-15 -6.87763e-15 5.37355e-15 0 0 -5.79559e-15 -1.03108e-14 1.40738e-14 -1.32628e-14 0 0 -2.6297e-15 1.2466e-14 8.47178e-15 4.09919e-16 0 0 3.34331e-15 2.96608e-14 -3.92563e-15 4.83218e-14 0 0 7.60914e-15 2.50162e-14 -9.68498e-15 7.28506e-14 0 0 3.39524e-15 2.01002e-14 5.79394e-15 4.81745e-14 0 0 -2.33803e-15 3.65046e-14 6.00965e-15 2.45987e-14 0 0 -7.84771e-15 1.87942e-14 1.26251e-14 2.34672e-14 0 0 -3.11089e-14 -4.32375e-15 3.50931e-14 2.42186e-15 0 0 -3.72552e-14 1.36635e-14 5.59666e-16 -4.6671e-15 0 0 -2.26862e-14 1.12066e-14 -3.27945e-14 1.06605e-14 0 0 8.08638e-15 -3.06318e-15 -1.97289e-14 -3.70329e-15 0 0 8.87243e-15 -1.02885e-14 -5.84907e-15 -3.50518e-14 0 0 -2.81233e-14 7.79231e-15 -1.06256e-14 -3.1484e-14 0 0 -1.24534e-14 8.44823e-15 -1.25959e-14 2.30508e-15 0 0 4.12115e-15 -3.33268e-15 -1.35583e-14 7.97251e-15 0 0 6.91763e-15 -1.16769e-14 -1.13083e-15 -2.41297e-15 0 0 7.49319e-16 -9.4714e-15 -1.5551e-14 1.49687e-14 0 0 -9.49181e-15 8.91362e-15 -2.07052e-14 -8.48693e-15 0 0 -2.23432e-15 -1.60955e-15 -9.62617e-16 -3.43669e-14 0 0 1.24108e-14 -5.79117e-15 2.17112e-15 -2.10729e-14 0 0 1.058e-14 1.04346e-14 1.28132e-14 -2.90515e-14 0 0 2.36288e-15 1.93673e-14 -1.02201e-14 -5.74039e-15 0 0 -1.84553e-15 5.80495e-15 -3.07807e-15 9.42331e-15 0 0 -1.62752e-15 -1.1199e-14 2.10293e-14 -9.85299e-16 0 0 5.57181e-15 3.42958e-15 1.12302e-14 -6.20767e-16 0 0 1.00713e-14 6.84882e-15 1.00955e-14 -1.01753e-14 0 0 1.37788e-14 1.11473e-15 -7.95301e-15 3.17271e-15 0 0 -6.90401e-15 -2.8427e-14 -3.29451e-14 -7.92924e-15 0 0 -9.46407e-14 -1.7052e-13 -1.70006e-13 -8.91946e-14 0 0 -2.2647e-13 -3.56926e-13 -3.60038e-13 -2.22308e-13 0 0 -2.42414e-13 -3.73103e-13 -3.83067e-13 -2.4808e-13 0 0 -1.76083e-13 -2.91701e-13 -3.28692e-13 -1.6904e-13 0 0 -7.2201e-14 -7.42017e-14 -1.1985e-13 -8.7301e-14 0 0 -1.43507e-14 -6.91776e-14 -8.04997e-14 -5.34308e-14 0 0 1.70124e-14 -4.39875e-14 -4.03132e-14 -5.3316e-14 0 0 7.12428e-15 1.8805e-14 -2.87333e-14 -3.60002e-14 0 0 3.05131e-14 3.37759e-14 -2.47204e-14 -1.32154e-14 0 0 2.39107e-14 -2.79234e-14 -3.42636e-14 -3.61177e-14 0 0 -6.12969e-14 -1.64967e-13 -1.85504e-13 -1.22458e-13 0 0 -2.4436e-13 -4.82338e-13 -4.87522e-13 -3.02506e-13 0 0 -4.84347e-13 -8.73507e-13 -8.29599e-13 -5.55985e-13 0 0 -6.75169e-13 -1.18316e-12 -1.13991e-12 -7.38688e-13 0 0 -7.86254e-13 -1.39509e-12 -1.32492e-12 -8.26059e-13 0 0 -8.34516e-13 -1.46674e-12 -1.41018e-12 -8.80421e-13 0 0 -8.76799e-13 -1.39989e-12 -1.49179e-12 -8.58824e-13 0 0 -8.73591e-13 -1.33276e-12 -1.48451e-12 -7.95812e-13 0 0 -8.07539e-13 -1.30455e-12 -1.38439e-12 -8.05771e-13 0 0 -7.87984e-13 -1.30596e-12 -1.3073e-12 -8.29643e-13 0 0 -7.52237e-13 -1.22715e-12 -1.2167e-12 -7.49986e-13 0 0 -7.44672e-13 -1.16101e-12 -1.17775e-12 -7.11158e-13 0 0 -6.99117e-13 -1.06812e-12 -1.03391e-12 -6.95238e-13 0 0 -6.43981e-13 -1.00092e-12 -9.69261e-13 -6.82106e-13 0 0 -5.42552e-13 -9.00146e-13 -9.04392e-13 -6.0707e-13 0 0 -4.55537e-13 -7.82663e-13 -7.57332e-13 -4.82925e-13 0 0 -3.4878e-13 -6.06742e-13 -5.74709e-13 -3.69294e-13 0 0 -2.51848e-13 -4.00422e-13 -3.7831e-13 -2.82825e-13 0 0 -1.6007e-13 -2.19322e-13 -2.20471e-13 -1.66872e-13 0 0 -5.85893e-14 -1.11405e-13 -1.25728e-13 -5.82574e-14 0 0 -1.62946e-14 -5.73909e-14 -5.4698e-14 -5.05028e-15 0 0 -1.64344e-14 -2.16965e-14 1.66252e-15 -1.13115e-14 0 0 -1.75911e-14 1.19063e-14 9.39725e-16 7.01317e-15 0 0 -9.05719e-15 1.77619e-14 8.90711e-15 1.04179e-14 0 0 -9.04842e-15 8.10516e-16 4.47744e-14 -4.39767e-16 0 0 -6.91276e-15 1.05409e-14 1.72862e-14 2.36324e-14 0 0 -7.49241e-15 1.27124e-14 3.21153e-15 3.39981e-14 0 0 -1.89763e-15 8.86565e-15 2.16228e-14 -6.49486e-15 0 0 7.27682e-15 9.41585e-15 3.54505e-14 -2.51159e-14 0 0 1.08588e-14 5.04749e-15 4.85958e-14 -4.56515e-14 0 0 1.24446e-14 9.43704e-15 4.72166e-14 -3.49528e-14 0 0 5.63447e-15 1.23841e-14 3.21223e-14 2.88557e-14 0 0 1.74088e-15 4.38849e-15 5.44548e-14 3.43182e-14 0 0 8.40422e-16 1.25496e-14 6.07041e-14 2.43609e-14 0 0 6.3633e-15 3.17215e-14 3.16414e-14 4.45902e-14 0 0 2.24264e-15 4.05733e-14 3.70837e-14 1.98995e-14 0 0 2.60954e-15 3.70898e-14 4.03417e-14 2.20805e-14 0 0 2.02607e-14 2.27084e-14 4.86787e-14 5.50751e-14 0 0 3.89075e-14 8.46703e-15 5.30074e-14 7.23583e-14 0 0 3.02207e-14 1.86628e-14 1.54479e-14 9.20862e-14 0 0 3.34227e-14 6.82606e-16 2.76727e-14 9.75241e-14 0 0 4.01598e-14 -1.90119e-15 6.23732e-14 7.93092e-14 0 0 2.2009e-14 3.98718e-14 5.07274e-14 4.5394e-14 0 0 2.34667e-14 5.18057e-14 6.16396e-14 3.34558e-15 0 0 1.00553e-14 4.7316e-14 7.50513e-14 3.41564e-14 0 0 3.84242e-14 -1.19249e-14 8.43549e-14 8.90124e-14 0 0 4.40911e-14 -1.34213e-14 7.44101e-14 8.39386e-14 0 0 2.05044e-14 1.0453e-14 8.67047e-14 5.32214e-14 0 0 2.05086e-14 2.07101e-14 6.65075e-14 5.94492e-14 0 0 5.50359e-15 4.54106e-14 -4.93243e-15 1.13314e-13 0 0 1.95338e-14 4.72678e-14 2.11416e-14 7.50541e-14 0 0 7.51496e-15 6.75344e-14 9.14201e-14 -1.25157e-14 0 0 -2.25971e-15 6.37763e-14 7.16712e-14 -1.68238e-14 0 0 3.71834e-14 8.56183e-15 5.08521e-14 1.88558e-14 0 0 1.70096e-14 2.23122e-14 2.94943e-14 2.78045e-14 0 0 -4.30771e-14 8.76022e-14 -3.35939e-14 6.08165e-14 0 0 -2.31323e-14 9.0386e-14 -7.68599e-14 7.63059e-14 0 0 5.61416e-15 5.60694e-14 -2.6478e-14 -2.40151e-16 0 0 -2.84361e-14 6.09826e-14 6.20533e-14 -9.32471e-14 0 0 -3.3112e-14 5.99035e-14 1.35184e-13 -1.11734e-13 0 0 1.05748e-14 2.54693e-14 1.28115e-13 -2.23345e-14 0 0 -1.88234e-14 7.64763e-14 8.69353e-14 -3.4576e-14 0 0 -4.43249e-14 9.01535e-14 9.26032e-14 -8.43864e-14 0 0 2.49351e-14 2.1611e-14 4.12885e-14 7.80023e-15 0 0 3.6536e-14 2.58804e-14 -2.62558e-15 5.80791e-14 0 0 -8.17978e-15 1.02184e-13 -2.7969e-14 1.79058e-14 0 0 1.26676e-14 9.31211e-14 -4.23237e-15 -2.3829e-14 0 0 6.1167e-14 3.3761e-14 2.43185e-14 -1.48719e-14 0 0 3.9677e-14 4.8583e-14 5.50086e-15 1.1085e-14 0 0 3.32911e-15 7.75287e-14 -2.08683e-15 4.11439e-14 0 0 4.24337e-14 1.21621e-14 3.27391e-14 5.57455e-14 0 0 2.09211e-14 -1.62213e-15 3.75287e-14 5.65899e-14 0 0 -1.24394e-14 3.21456e-15 3.66425e-14 6.04393e-14 0 0 2.73649e-14 -2.3826e-14 6.8194e-14 5.89724e-14 0 0 4.79929e-14 -6.45957e-15 2.4222e-14 8.09413e-14 0 0 2.40563e-14 -7.14209e-15 -1.62041e-14 1.00006e-13 0 0 9.89733e-15 8.81259e-15 -4.73279e-14 1.39191e-13 0 0 3.93463e-14 6.10912e-15 -4.39177e-14 1.58806e-13 0 0 3.33212e-14 -3.34108e-15 -5.93136e-16 1.92546e-13 0 0 7.2166e-15 -1.36302e-14 3.80657e-14 2.30482e-13 0 0 -2.00463e-16 -2.57152e-14 9.81945e-14 1.19705e-13 0 0 2.58762e-14 -2.90781e-14 8.18103e-14 2.14363e-14 0 0 7.5449e-14 -3.81873e-14 1.45288e-14 1.0292e-13 0 0 5.48764e-14 4.22675e-15 1.114e-15 1.74051e-13 0 0 -4.0114e-15 4.423e-14 4.14219e-14 1.33032e-13 0 0 1.835e-14 1.66287e-15 7.64615e-14 3.63193e-14 0 0 5.26502e-14 5.54615e-15 2.87903e-14 -2.87202e-15 0 0 3.91002e-14 6.82629e-14 -4.04643e-14 3.89326e-14 0 0 1.58013e-14 7.36462e-14 -1.90936e-14 3.60233e-14 0 0 -5.71898e-15 4.50399e-14 4.29477e-14 6.21605e-15 0 0 1.78694e-15 4.76041e-14 3.9167e-14 -1.59504e-14 0 0 7.65447e-16 6.2737e-14 -1.80336e-14 5.09654e-14 0 0 -6.27722e-15 2.60771e-14 -1.36163e-14 1.18794e-13 0 0 4.10923e-15 -1.00158e-14 1.3299e-14 1.1736e-13 0
				</DataArray>
				<DataArray Name="VitesseY" type="Float32" format="ascii">