<?xml version="1.0"?>
<VTKFile type="PolyData">
	<PolyData>
		<Piece NumberOfPoints="1206" NumberOfPolys="1000">
			<Points>
				<DataArray type="Float32" NumberOfComponents="3" format="ascii">
 0 0 0 0.02 0 0 0.04 0 0 0.06 0 0 0.08 0 0 0.1 0 0 0 0.005 0 0.02 0.005 0 0.04 0.005 0 0.06 0.005 0 0.08 0.005 0 0.1 0.005 0 0 0.01 0 0.02 0.01 0 0.04 0.01 0 0.06 0.01 0 0.08 0.01 0 0.1 0.01 0 0 0.015 0 0.02 0.015 0 0.04 0.015 0 0.06 0.015 0 0.08 0.015 0 0.1 0.015 0 0 0.02 0 0.02 0.02 0 0.04 0.02 0 0.06 0.02 0 0.08 0.02 0 0.1 0.02 0 0 0.025 0 0.02 0.025 0 0.04 0.025 0 0.06 0.025 0 0.08 0.025 0 0.1 0.025 0 0 0.03 0 0.02 0.03 0 0.04 0.03 0 0.06 0.03 0 0.08 0.03 0 0.1 0.03 0 0 0.035 0 0.02 0.035 0 0.04 0.035 0 0.06 0.035 0 0.08 0.035 0 0.1 0.035 0 0 0.04 0 0.02 0.04 0 0.04 0.04 0 0.06 0.04 0 0.08 0.04 0 0.1 0.04 0 0 0.045 0 0.02 0.045 0 0.04 0.045 0 0.06 0.045 0 0.08 0.045 0 0.1 0.045 0 0 0.05 0 0.02 0.05 0 0.04 0.05 0 0.06 0.05 0 0.08 0.05 0 0.1 0.05 0 0 0.055 0 0.02 0.055 0 0.04 0.055 0 0.06 0.055 0 0.08 0.055 0 0.1 0.055 0 0 0.06 0 0.02 0.06 0 0.04 0.06 0 0.06 0.06 0 0.08 0.06 0 0.1 0.06 0 0 0.065 0 0.02 0.065 0 0.04 0.065 0 0.06 0.065 0 0.08 0.065 0 0.1 0.065 0 0 0.07 0 0.02 0.07 0 0.04 0.07 0 0.06 0.07 0 0.08 0.07 0 0.1 0.07 0 0 0.075 0 0.02 0.075 0 0.04 0.075 0 0.06 0.075 0 0.08 0.075 0 0.1 0.075 0 0 0.08 0 0.02 0.08 0 0.04 0.08 0 0.06 0.08 0 0.08 0.08 0 0.1 0.08 0 0 0.085 0 0.02 0.085 0 0.04 0.085 0 0.06 0.085 0 0.08 0.085 0 0.1 0.085 0 0 0.09 0 0.02 0.09 0 0.04 0.09 0 0.06 0.09 0 0.08 0.09 0 0.1 0.09 0 0 0.095 0 0.02 0.095 0 0.04 0.095 0 0.06 0.095 0 0.08 0.095 0 0.1 0.095 0 0 0.1 0 0.02 0.1 0 0.04 0.1 0 0.06 0.1 0 0.08 0.1 0 0.1 0.1 0 0 0.105 0 0.02 0.105 0 0.04 0.105 0 0.06 0.105 0 0.08 0.105 0 0.1 0.105 0 0 0.11 0 0.02 0.11 0 0.04 0.11 0 0.06 0.11 0 0.08 0.11 0 0.1 0.11 0 0 0.115 0 0.02 0.115 0 0.04 0.115 0 0.06 0.115 0 0.08 0.115 0 0.1 0.115 0 0 0.12 0 0.02 0.12 0 0.04 0.12 0 0.06 0.12 0 0.08 0.12 0 0.1 0.12 0 0 0.125 0 0.02 0.125 0 0.04 0.125 0 0.06 0.125 0 0.08 0.125 0 0.1 0.125 0 0 0.13 0 0.02 0.13 0 0.04 0.13 0 0.06 0.13 0 0.08 0.13 0 0.1 0.13 0 0 0.135 0 0.02 0.135 0 0.04 0.135 0 0.06 0.135 0 0.08 0.135 0 0.1 0.135 0 0 0.14 0 0.02 0.14 0 0.04 0.14 0 0.06 0.14 0 0.08 0.14 0 0.1 0.14 0 0 0.145 0 0.02 0.145 0 0.04 0.145 0 0.06 0.145 0 0.08 0.145 0 0.1 0.145 0 0 0.15 0 0.02 0.15 0 0.04 0.15 0 0.06 0.15 0 0.08 0.15 0 0.1 0.15 0 0 0.155 0 0.02 0.155 0 0.04 0.155 0 0.06 0.155 0 0.08 0.155 0 0.1 0.155 0 0 0.16 0 0.02 0.16 0 0.04 0.16 0 0.06 0.16 0 0.08 0.16 0 0.1 0.16 0 0 0.165 0 0.02 0.165 0 0.04 0.165 0 0.06 0.165 0 0.08 0.165 0 0.1 0.165 0 0 0.17 0 0.02 0.17 0 0.04 0.17 0 0.06 0.17 0 0.08 0.17 0 0.1 0.17 0 0 0.175 0 0.02 0.175 0 0.04 0.175 0 0.06 0.175 0 0.08 0.175 0 0.1 0.175 0 0 0.18 0 0.02 0.18 0 0.04 0.18 0 0.06 0.18 0 0.08 0.18 0 0.1 0.18 0 0 0.185 0 0.02 0.185 0 0.04 0.185 0 0.06 0.185 0 0.08 0.185 0 0.1 0.185 0 0 0.19 0 0.02 0.19 0 0.04 0.19 0 0.06 0.19 0 0.08 0.19 0 0.1 0.19 0 0 0.195 0 0.02 0.195 0 0.04 0.195 0 0.06 0.195 0 0.08 0.195 0 0.1 0.195 0 0 0.2 0 0.02 0.2 0 0.04 0.2 0 0.06 0.2 0 0.08 0.2 0 0.1 0.2 0 0 0.205 0 0.02 0.205 0 0.04 0.205 0 0.06 0.205 0 0.08 0.205 0 0.1 0.205 0 0 0.21 0 0.02 0.21 0 0.04 0.21 0 0.06 0.21 0 0.08 0.21 0 0.1 0.21 0 0 0.215 0 0.02 0.215 0 0.04 0.215 0 0.06 0.215 0 0.08 0.215 0 0.1 0.215 0 0 0.22 0 0.02 0.22 0 0.04 0.22 0 0.06 0.22 0 0.08 0.22 0 0.1 0.22 0 0 0.225 0 0.02 0.225 0 0.04 0.225 0 0.06 0.225 0 0.08 0.225 0 0.1 0.225 0 0 0.23 0 0.02 0.23 0 0.04 0.23 0 0.06 0.23 0 0.08 0.23 0 0.1 0.23 0 0 0.235 0 0.02 0.235 0 0.04 0.235 0 0.06 0.235 0 0.08 0.235 0 0.1 0.235 0 0 0.24 0 0.02 0.24 0 0.04 0.24 0 0.06 0.24 0 0.08 0.24 0 0.1 0.24 0 0 0.245 0 0.02 0.245 0 0.04 0.245 0 0.06 0.245 0 0.08 0.245 0 0.1 0.245 0 0 0.25 0 0.02 0.25 0 0.04 0.25 0 0.06 0.25 0 0.08 0.25 0 0.1 0.25 0 0 0.255 0 0.02 0.255 0 0.04 0.255 0 0.06 0.255 0 0.08 0.255 0 0.1 0.255 0 0 0.26 0 0.02 0.26 0 0.04 0.26 0 0.06 0.26 0 0.08 0.26 0 0.1 0.26 0 0 0.265 0 0.02 0.265 0 0.04 0.265 0 0.06 0.265 0 0.08 0.265 0 0.1 0.265 0 0 0.27 0 0.02 0.27 0 0.04 0.27 0 0.06 0.27 0 0.08 0.27 0 0.1 0.27 0 0 0.275 0 0.02 0.275 0 0.04 0.275 0 0.06 0.275 0 0.08 0.275 0 0.1 0.275 0 0 0.28 0 0.02 0.28 0 0.04 0.28 0 0.06 0.28 0 0.08 0.28 0 0.1 0.28 0 0 0.285 0 0.02 0.285 0 0.04 0.285 0 0.06 0.285 0 0.08 0.285 0 0.1 0.285 0 0 0.29 0 0.02 0.29 0 0.04 0.29 0 0.06 0.29 0 0.08 0.29 0 0.1 0.29 0 0 0.295 0 0.02 0.295 0 0.04 0.295 0 0.06 0.295 0 0.08 0.295 0 0.1 0.295 0 0 0.3 0 0.02 0.3 0 0.04 0.3 0 0.06 0.3 0 0.08 0.3 0 0.1 0.3 0 0 0.305 0 0.02 0.305 0 0.04 0.305 0 0.06 0.305 0 0.08 0.305 0 0.1 0.305 0 0 0.31 0 0.02 0.31 0 0.04 0.31 0 0.06 0.31 0 0.08 0.31 0 0.1 0.31 0 0 0.315 0 0.02 0.315 0 0.04 0.315 0 0.06 0.315 0 0.08 0.315 0 0.1 0.315 0 0 0.32 0 0.02 0.32 0 0.04 0.32 0 0.06 0.32 0 0.08 0.32 0 0.1 0.32 0 0 0.325 0 0.02 0.325 0 0.04 0.325 0 0.06 0.325 0 0.08 0.325 0 0.1 0.325 0 0 0.33 0 0.02 0.33 0 0.04 0.33 0 0.06 0.33 0 0.08 0.33 0 0.1 0.33 0 0 0.335 0 0.02 0.335 0 0.04 0.335 0 0.06 0.335 0 0.08 0.335 0 0.1 0.335 0 0 0.340001 0 0.02 0.340001 0 0.04 0.340001 0 0.06 0.340001 0 0.08 0.340001 0 0.1 0.340001 0 0 0.345003 0 0.02 0.345003 0 0.04 0.345003 0 0.06 0.345003 0 0.08 0.345003 0 0.1 0.345003 0 0 0.35001 0 0.02 0.35001 0 0.04 0.35001 0 0.06 0.35001 0 0.08 0.35001 0 0.1 0.35001 0 0 0.355028 0 0.02 0.355028 0 0.04 0.355028 0 0.06 0.355028 0 0.08 0.355028 0 0.1 0.355028 0 0 0.360074 0 0.02 0.360074 0 0.04 0.360074 0 0.06 0.360074 0 0.08 0.360074 0 0.1 0.360074 0 0 0.36517 0 0.02 0.36517 0 0.04 0.36517 0 0.06 0.36517 0 0.08 0.36517 0 0.1 0.36517 0 0 0.370348 0 0.02 0.370348 0 0.04 0.370348 0 0.06 0.370348 0 0.08 0.370348 0 0.1 0.370348 0 0 0.375639 0 0.02 0.375639 0 0.04 0.375639 0 0.06 0.375639 0 0.08 0.375639 0 0.1 0.375639 0 0 0.381074 0 0.02 0.381074 0 0.04 0.381074 0 0.06 0.381074 0 0.08 0.381074 0 0.1 0.381074 0 0 0.386676 0 0.02 0.386676 0 0.04 0.386676 0 0.06 0.386676 0 0.08 0.386676 0 0.1 0.386676 0 0 0.392466 0 0.02 0.392466 0 0.04 0.392466 0 0.06 0.392466 0 0.08 0.392466 0 0.1 0.392466 0 0 0.398464 0 0.02 0.398464 0 0.04 0.398464 0 0.06 0.398464 0 0.08 0.398464 0 0.1 0.398464 0 0 0.404692 0 0.02 0.404692 0 0.04 0.404692 0 0.06 0.404692 0 0.08 0.404692 0 0.1 0.404692 0 0 0.411172 0 0.02 0.411172 0 0.04 0.411172 0 0.06 0.411172 0 0.08 0.411172 0 0.1 0.411172 0 0 0.417928 0 0.02 0.417928 0 0.04 0.417928 0 0.06 0.417928 0 0.08 0.417928 0 0.1 0.417928 0 0 0.424991 0 0.02 0.424991 0 0.04 0.424991 0 0.06 0.424991 0 0.08 0.424991 0 0.1 0.424991 0 0 0.432392 0 0.02 0.432392 0 0.04 0.432392 0 0.06 0.432392 0 0.08 0.432392 0 0.1 0.432392 0 0 0.440169 0 0.02 0.440169 0 0.04 0.440169 0 0.06 0.440169 0 0.08 0.440169 0 0.1 0.440169 0 0 0.448367 0 0.02 0.448367 0 0.04 0.448367 0 0.06 0.448367 0 0.08 0.448367 0 0.1 0.448367 0 0 0.457036 0 0.02 0.457036 0 0.04 0.457036 0 0.06 0.457036 0 0.08 0.457036 0 0.1 0.457036 0 0 0.466237 0 0.02 0.466237 0 0.04 0.466237 0 0.06 0.466237 0 0.08 0.466237 0 0.1 0.466237 0 0 0.476037 0 0.02 0.476037 0 0.04 0.476037 0 0.06 0.476037 0 0.08 0.476037 0 0.1 0.476037 0 0 0.486506 0 0.02 0.486506 0 0.04 0.486506 0 0.06 0.486506 0 0.08 0.486506 0 0.1 0.486506 0 0 0.497701 0 0.02 0.497701 0 0.04 0.497701 0 0.06 0.497701 0 0.08 0.497701 0 0.1 0.497701 0 0 0.50959 0 0.02 0.50959 0 0.04 0.50959 0 0.06 0.50959 0 0.08 0.50959 0 0.1 0.50959 0 0 0.521843 0 0.02 0.521843 0 0.04 0.521843 0 0.06 0.521843 0 0.08 0.521843 0 0.1 0.521843 0 0 0.533977 0 0.02 0.533977 0 0.04 0.533977 0 0.06 0.533977 0 0.08 0.533977 0 0.1 0.533977 0 0 0.545956 0 0.02 0.545956 0 0.04 0.545956 0 0.06 0.545956 0 0.08 0.545956 0 0.1 0.545956 0 0 0.557809 0 0.02 0.557809 0 0.04 0.557809 0 0.06 0.557809 0 0.08 0.557809 0 0.1 0.557809 0 0 0.569591 0 0.02 0.569591 0 0.04 0.569591 0 0.06 0.569591 0 0.08 0.569591 0 0.1 0.569591 0 0 0.581345 0 0.02 0.581345 0 0.04 0.581345 0 0.06 0.581345 0 0.08 0.581345 0 0.1 0.581345 0 0 0.593089 0 0.02 0.593089 0 0.04 0.593089 0 0.06 0.593089 0 0.08 0.593089 0 0.1 0.593089 0 0 0.604843 0 0.02 0.604843 0 0.04 0.604843 0 0.06 0.604843 0 0.08 0.604843 0 0.1 0.604843 0 0 0.607455 0 0.02 0.607455 0 0.04 0.607455 0 0.06 0.607455 0 0.08 0.607455 0 0.1 0.607455 0 0 0.609993 0 0.02 0.609993 0 0.04 0.609993 0 0.06 0.609993 0 0.08 0.609993 0 0.1 0.609993 0 0 0.612486 0 0.02 0.612486 0 0.04 0.612486 0 0.06 0.612486 0 0.08 0.612486 0 0.1 0.612486 0 0 0.614947 0 0.02 0.614947 0 0.04 0.614947 0 0.06 0.614947 0 0.08 0.614947 0 0.1 0.614947 0 0 0.617387 0 0.02 0.617387 0 0.04 0.617387 0 0.06 0.617387 0 0.08 0.617387 0 0.1 0.617387 0 0 0.619812 0 0.02 0.619812 0 0.04 0.619812 0 0.06 0.619812 0 0.08 0.619812 0 0.1 0.619812 0 0 0.622226 0 0.02 0.622226 0 0.04 0.622226 0 0.06 0.622226 0 0.08 0.622226 0 0.1 0.622226 0 0 0.624638 0 0.02 0.624638 0 0.04 0.624638 0 0.06 0.624638 0 0.08 0.624638 0 0.1 0.624638 0 0 0.62705 0 0.02 0.62705 0 0.04 0.62705 0 0.06 0.62705 0 0.08 0.62705 0 0.1 0.62705 0 0 0.629448 0 0.02 0.629448 0 0.04 0.629448 0 0.06 0.629448 0 0.08 0.629448 0 0.1 0.629448 0 0 0.631835 0 0.02 0.631835 0 0.04 0.631835 0 0.06 0.631835 0 0.08 0.631835 0 0.1 0.631835 0 0 0.634217 0 0.02 0.634217 0 0.04 0.634217 0 0.06 0.634217 0 0.08 0.634217 0 0.1 0.634217 0 0 0.636596 0 0.02 0.636596 0 0.04 0.636596 0 0.06 0.636596 0 0.08 0.636596 0 0.1 0.636596 0 0 0.638975 0 0.02 0.638975 0 0.04 0.638975 0 0.06 0.638975 0 0.08 0.638975 0 0.1 0.638975 0 0 0.641354 0 0.02 0.641354 0 0.04 0.641354 0 0.06 0.641354 0 0.08 0.641354 0 0.1 0.641354 0 0 0.643728 0 0.02 0.643728 0 0.04 0.643728 0 0.06 0.643728 0 0.08 0.643728 0 0.1 0.643728 0 0 0.6461 0 0.02 0.6461 0 0.04 0.6461 0 0.06 0.6461 0 0.08 0.6461 0 0.1 0.6461 0 0 0.648469 0 0.02 0.648469 0 0.04 0.648469 0 0.06 0.648469 0 0.08 0.648469 0 0.1 0.648469 0 0 0.650838 0 0.02 0.650838 0 0.04 0.650838 0 0.06 0.650838 0 0.08 0.650838 0 0.1 0.650838 0 0 0.653207 0 0.02 0.653207 0 0.04 0.653207 0 0.06 0.653207 0 0.08 0.653207 0 0.1 0.653207 0 0 0.655573 0 0.02 0.655573 0 0.04 0.655573 0 0.06 0.655573 0 0.08 0.655573 0 0.1 0.655573 0 0 0.657937 0 0.02 0.657937 0 0.04 0.657937 0 0.06 0.657937 0 0.08 0.657937 0 0.1 
[...]
			<PointData Scalars="VitesseX">
				<DataArray Name="VitesseX" type="Float32" format="ascii">
 0 5.9156e-16 1.16788e-16 3.91708e-15 5.65976e-15 0 0 -3.64042e-16 9.2542e-16 3.63698e-15 6.22344e-15 0 0 -1.59314e-15 1.50211e-15 4.22161e-15 5.95139e-15 0 0 -6.67279e-16 -1.03953e-15 6.15953e-15 5.13057e-15 0 0 -8.62261e-16 -5.53417e-16 4.59287e-15 6.56239e-15 0 0 -1.86884e-15 1.4629e-15 2.40415e-15 7.72096e-15 0 0 -2.11824e-15 1.42929e-15 1.86872e-15 8.47453e-15 0 0 -1.39028e-15 -1.19948e-16 1.15068e-15 9.28133e-15 0 0 -1.96417e-15 8.0664e-16 -1.28187e-15 1.01652e-14 0 0 -2.48583e-15 3.08156e-15 -3.72192e-15 1.01269e-14 0 0 -8.95509e-16 2.30534e-15 -2.81646e-15 1.01822e-14 0 0 -1.9892e-15 5.41724e-15 -4.33417e-15 1.40802e-14 0 0 -9.16917e-16 5.02912e-15 -1.29863e-15 1.27896e-14 0 0 5.593e-17 3.96296e-15 3.32385e-15 9.07536e-15 0 0 -1.54658e-15 8.67443e-15 1.45902e-15 9.80742e-15 0 0 -1.38118e-15 9.50359e-15 3.48596e-15 7.25818e-15 0 0 2.08766e-15 1.70863e-15 1.15992e-14 2.88757e-15 0 0 2.9329e-15 1.70781e-15 9.84074e-15 6.38425e-15 0 0 1.58873e-15 7.56092e-15 3.94935e-15 1.62512e-14 0 0 3.30712e-15 5.53667e-15 5.12874e-15 1.89332e-14 0 0 3.39724e-15 3.6241e-15 5.36358e-15 1.40537e-14 0 0 3.35391e-15 1.01768e-15 6.77196e-15 9.20163e-15 0 0 1.70535e-15 5.72686e-15 2.3067e-15 3.21714e-15 0 0 3.26716e-15 8.75138e-15 -2.85864e-16 -4.11986e-15 0 0 7.5716e-15 4.00094e-15 -7.96056e-17 -3.45033e-15 0 0 7.27415e-15 1.46046e-15 -9.87362e-16 7.17356e-16 0 0 8.02786e-15 -4.971e-15 -5.79451e-16 3.66911e-15 0 0 -1.38597e-16 5.33015e-15 -1.2108e-14 9.60674e-15 0 0 -3.57386e-15 4.40903e-15 -5.67808e-15 7.01538e-15 0 0 7.59716e-16 -3.87998e-15 3.43657e-15 -3.23146e-16 0 0 4.59897e-15 -6.18164e-15 1.43057e-15 -1.79164e-16 0 0 7.87431e-16 -4.04531e-15 -1.35944e-15 1.49219e-15 0 0 2.2287e-15 -3.52844e-15 -1.80377e-15 -1.07117e-15 0 0 1.1522e-14 -1.40815e-14 5.42896e-15 -5.88121e-15 0 0 5.60513e-15 -6.99787e-15 2.52832e-15 -1.00274e-14 0 0 -2.23721e-15 8.43646e-16 9.05461e-16 -5.10945e-15 0 0 2.96999e-15 -6.86441e-15 1.16308e-14 -7.93607e-15 0 0 9.0403e-15 -1.15942e-14 1.35056e-14 -1.33851e-14 0 0 -1.65417e-15 -1.05541e-15 1.5052e-15 -8.18373e-15 0 0 -1.11803e-14 -1.07744e-16 7.91642e-16 -7.36158e-15 0 0 -1.34117e-14 -2.41711e-16 1.24237e-15 -1.51236e-14 0 0 -1.01833e-14 3.80148e-15 4.50938e-15 -3.08803e-14 0 0 -1.9145e-15 9.45389e-16 1.26725e-15 -2.63989e-14 0 0 -1.1547e-15 -7.93521e-15 -2.69533e-15 -2.94927e-15 0 0 -8.59383e-15 -5.54695e-15 3.21859e-16 6.02712e-15 0 0 -1.31608e-14 1.14299e-14 -1.35248e-14 1.41501e-14 0 0 -9.60156e-15 9.95285e-15 -1.93987e-14 1.44889e-14 0 0 -5.04058e-15 -1.1619e-14 1.06558e-14 -1.09363e-14 0 0 -7.41012e-15 -1.09977e-14 1.13476e-14 -8.14772e-15 0 0 7.98663e-16 -1.13065e-14 3.1563e-15 1.75444e-15 0 0 7.02063e-15 -1.39675e-14 6.5418e-15 -8.20816e-15 0 0 1.8166e-16 -3.35516e-15 -3.16092e-16 -1.33135e-14 0 0 -3.65646e-15 -9.16676e-15 1.7027e-15 -9.42974e-15 0 0 -7.91575e-15 5.00914e-15 -1.82782e-14 2.17441e-15 0 0 -6.36201e-15 2.61091e-14 -2.81626e-14 5.94581e-15 0 0 6.23288e-15 1.39546e-14 -2.28384e-15 4.64236e-17 0 0 2.11418e-14 7.42613e-15 1.74908e-14 -1.2111e-14 0 0 1.37511e-14 2.68458e-14 2.04734e-14 -5.69989e-15 0 0 -4.12481e-15 8.36624e-15 4.44079e-14 1.34124e-14 0 0 -6.99031e-15 -6.94865e-15 2.87511e-14 3.84928e-14 0 0 -2.26717e-15 1.13661e-14 1.76805e-14 4.64338e-15 0 0 -8.94013e-16 1.4484e-14 3.55213e-14 -3.88067e-14 0 0 -1.36862e-14 3.03991e-15 1.11763e-14 -4.35835e-15 0 0 -1.58963e-14 -8.8501e-16 -1.16973e-14 1.25765e-14 0 0 -1.03403e-14 1.24661e-14 -1.91122e-14 -7.02681e-15 0 0 -6.27918e-15 1.12799e-14 -3.57477e-14 -1.40833e-14 0 0 -2.58211e-14 -2.45859e-14 3.70188e-16 -3.29406e-14 0 0 -4.28724e-14 -7.33858e-15 -5.07442e-15 -3.04644e-14 0 0 -1.11183e-14 -1.09694e-14 -2.18407e-14 -1.58136e-14 0 0 2.74129e-14 -4.96939e-14 5.49523e-15 -3.84742e-14 0 0 -9.00435e-15 -9.46062e-15 -2.72906e-14 -1.80604e-15 0 0 -1.13373e-14 1.29063e-14 -5.26989e-14 3.20391e-14 0 0 4.22082e-15 1.87661e-15 -5.65079e-14 3.02673e-14 0 0 -2.37498e-14 -7.4367e-15 -3.44388e-14 3.69045e-14 0 0 -1.40893e-14 -5.26552e-16 -3.37366e-14 2.16655e-14 0 0 2.06819e-15 -1.24235e-14 -3.64144e-14 5.4583e-15 0 0 1.69251e-14 -2.12327e-14 -1.2637e-14 -1.08879e-14 0 0 2.11725e-15 8.61315e-15 -3.04281e-14 -5.04982e-15 0 0 -3.77185e-14 2.18418e-14 -3.68973e-14 6.26099e-16 0 0 -1.16065e-14 2.29697e-15 -8.73037e-15 -2.29686e-14 0 0 1.94697e-14 -1.8822e-14 2.65775e-15 -1.78603e-14 0 0 -1.52277e-14 1.04099e-14 -3.87088e-15 -1.28736e-16 0 0 -1.40311e-14 1.59685e-14 -7.95051e-15 7.777e-15 0 0 1.21548e-14 -9.09347e-15 3.1306e-15 -1.22023e-14 0 0 1.64877e-14 -1.56442e-14 2.12437e-14 -3.57627e-14 0 0 -9.94506e-15 -1.72204e-14 6.13988e-15 2.79602e-15 0 0 -1.69205e-14 -5.39688e-15 -3.19379e-14 2.01227e-14 0 0 -1.39864e-14 -1.46372e-14 3.3763e-15 -1.49781e-14 0 0 -2.14038e-14 -1.78782e-14 1.48847e-14 -1.98166e-14 0 0 -5.11524e-15 -1.41229e-15 -1.60931e-14 -5.77848e-15 0 0 8.09191e-15 -1.67566e-14 -8.52762e-15 1.79799e-15 0 0 -2.51262e-14 -3.24012e-14 -9.77227e-15 2.24116e-14 0 0 -2.41913e-14 -3.9733e-14 -4.40294e-14 2.89036e-15 0 0 -2.46228e-14 -6.97155e-14 -6.99625e-14 -5.47748e-14 0 0 -4.67962e-14 -8.85666e-14 -7.24399e-14 -6.73737e-14 0 0 -2.80154e-14 -4.13588e-14 -3.77177e-14 -2.27964e-14 0 0 4.22596e-14 6.29923e-14 6.16e-14 4.56649e-14 0 0 1.32838e-13 1.90431e-13 1.97047e-13 1.13547e-13 0 0 1.84365e-13 3.11236e-13 3.12245e-13 1.85728e-13 0 0 2.31217e-13 3.86081e-13 4.04123e-13 2.46283e-13 0 0 2.93463e-13 4.58414e-13 4.97637e-13 3.14024e-13 0 0 5.22967e-13 8.32402e-13 8.92686e-13 5.64097e-13 0 0 5.21626e-13 8.38177e-13 8.57309e-13 5.60176e-13 0 0 5.3395e-13 8.74497e-13 8.22029e-13 5.34513e-13 0 0 5.40059e-13 8.71909e-13 8.77848e-13 5.00568e-13 0 0 5.58554e-13 8.69079e-13 9.42502e-13 5.29589e-13 0 0 5.65625e-13 8.68184e-13 9.73859e-13 5.24357e-13 0 0 5.11382e-13 7.82762e-13 8.61111e-13 4.72639e-13 0 0 3.40279e-13 5.16164e-13 5.89879e-13 3.34987e-13 0 0 1.3197e-13 2.24614e-13 2.51842e-13 8.55533e-14 0 0 -4.08073e-14 -5.62895e-15 -4.99952e-14 -1.262e-13 0 0 -1.6518e-13 -1.72039e-13 -2.09916e-13 -1.70411e-13 0 0 -2.28248e-13 -2.38568e-13 -2.65884e-13 -1.28153e-13 0 0 -2.06686e-13 -2.35303e-13 -2.76099e-13 -8.82839e-14 0 0 -1.19372e-13 -2.14532e-13 -2.19085e-13 -1.03737e-13 0 0 -7.65983e-14 -1.7364e-13 -1.26698e-13 -1.12684e-13 0 0 -6.16784e-14 -9.46472e-14 -7.84522e-14 -5.20798e-14 0 0 -3.48123e-14 7.33282e-16 -1.25345e-14 -5.38171e-14 0 0 1.251e-14 6.97916e-14 6.13732e-14 -4.76482e-14 0 0 5.76621e-14 1.08119e-13 1.04753e-13 5.09386e-14 0 0 9.86578e-14 1.54638e-13 1.72422e-13 6.64384e-14 0 0 1.38027e-13 1.96536e-13 2.17829e-13 6.08024e-14 0 0 1.49278e-13 2.72113e-13 2.0029e-13 1.24324e-13 0 0 2.05994e-13 3.03228e-13 2.63621e-13 1.53727e-13 0 0 2.40139e-13 3.0784e-13 3.23495e-13 1.85714e-13 0 0 2.39676e-13 3.51693e-13 3.2171e-13 1.52559e-13 0 0 2.49317e-13 3.85966e-13 3.08146e-13 2.23092e-13 0 0 2.53658e-13 4.36485e-13 2.57784e-13 3.57647e-13 0 0 2.4641e-13 4.88837e-13 2.29461e-13 3.55395e-13 0 0 2.70639e-13 4.55932e-13 2.75159e-13 2.86617e-13 0 0 2.94679e-13 3.8963e-13 3.11843e-13 1.93807e-13 0 0 2.86307e-13 3.67161e-13 3.07042e-13 1.48692e-13 0 0 2.87676e-13 3.02074e-13 3.5277e-13 1.19754e-13 0 0 2.39377e-13 2.76363e-13 3.54953e-13 2.3704e-14 0 0 1.94601e-13 2.74682e-13 3.305e-13 6.00133e-14 0 0 1.78395e-13 2.07219e-13 3.12895e-13 1.20465e-13 0 0 1.66171e-13 1.9057e-13 2.15322e-13 1.65686e-13 0 0 1.28578e-13 1.73182e-13 1.66539e-13 1.41152e-13 0 0 6.40547e-14 1.19473e-13 1.34269e-13 4.7697e-14 0 0 4.10504e-14 7.24216e-14 9.62155e-14 1.41337e-13 0 0 1.13844e-14 4.63673e-14 4.97189e-14 5.22576e-14 0 0 -3.39279e-16 1.72793e-14 -9.14992e-15 -4.7957e-14 0 0 -8.92309e-15 -2.14231e-14 -3.10178e-14 5.5575e-14 0 0 -2.76895e-14 -1.57546e-14 -6.5048e-14 1.08499e-14 0 0 -2.99849e-14 -6.84612e-15 -7.28786e-14 -6.68332e-14 0 0 -1.59822e-14 -1.9455e-14 -6.10128e-14 -4.79305e-14 0 0 -2.6936e-15 -3.81561e-14 -7.67363e-14 -2.64632e-14 0 0 -2.48168e-15 -5.67149e-14 -5.4064e-14 -3.87782e-14 0 0 -8.08705e-15 -3.62403e-14 -4.67179e-14 -7.86175e-14 0 0 -1.26917e-14 -3.33224e-14 -5.69377e-14 -7.74718e-14 0 0 -1.59461e-14 -3.977e-14 -7.14316e-14 -6.01768e-14 0 0 -1.88308e-14 -4.10848e-14 -7.22459e-14 -6.06317e-14 0 0 -1.3768e-14 -5.63214e-14 -5.08242e-14 -6.46862e-14 0 0 -7.83917e-15 -5.54764e-14 -5.89097e-14 -7.33828e-14 0 0 -2.12808e-15 -7.36059e-14 -4.12106e-14 -4.91678e-14 0 0 -1.13339e-14 -7.29897e-14 -3.59441e-14 -1.94965e-14 0 0 -2.81337e-14 -4.50076e-14 -4.68843e-14 2.33035e-14 0 0 -2.02361e-14 -4.20595e-14 -4.52934e-14 6.62939e-14 0 0 -2.41935e-14 -4.74203e-14 -1.9017e-14 5.04784e-14 0 0 -6.90132e-15 -6.58218e-14 2.57061e-14 2.74099e-14 0 0 3.07149e-14 -8.41496e-14 1.67159e-14 6.86221e-14 0 0 2.25268e-14 -4.82427e-14 -2.72611e-14 6.77542e-14 0 0 -4.63141e-15 6.35721e-15 -2.0926e-14 4.73144e-15 0 0 -2.7088e-14 2.79873e-14 -9.7274e-15 5.48016e-16 0 0 -1.06862e-14 6.10738e-15 1.97243e-14 2.22221e-14 0 0 4.01573e-15 -9.56863e-15 9.31792e-14 -2.90548e-14 0 0 3.56817e-14 -2.01312e-14 1.1667e-13 -8.01445e-14 0 0 7.2576e-14 -2.69106e-14 7.8399e-14 -4.17089e-14 0 0 3.16147e-14 -4.96548e-15 3.38074e-14 1.29283e-14 0 0 3.62734e-14 -5.36668e-14 8.11093e-14 -1.42973e-14 0 0 7.90383e-14 -1.11577e-13 1.04511e-13 -2.02025e-15 0 0 2.93748e-14 -3.05211e-14 2.08826e-14 5.53103e-14 0 0 -6.61209e-14 8.33704e-14 -5.51517e-14 9.03248e-14 0 0 -5.69533e-14 6.61689e-14 -4.73678e-14 7.38813e-14 0 0 1.26302e-14 -6.18233e-15 2.00724e-14 -2.35499e-14 0 0 8.18548e-15 -1.84057e-15 7.3921e-14 -9.41485e-14 0 0 2.98537e-15 4.79618e-15 8.78602e-14 -4.79814e-14 0 0 2.56491e-14 -2.17894e-14 1.09228e-13 -2.26599e-14 0 0 2.13502e-14 1.59787e-15 7.0445e-14 -2.31894e-15 0 0 4.76481e-14 3.68819e-14 -2.73155e-14 5.29178e-14 0 0 8.83003e-14 2.7717e-14 -4.25253e-14 1.56165e-14 0 0 8.35449e-14 -1.32259e-14 2.81013e-14 -4.07932e-14 0 0 2.9604e-14 2.10947e-14 5.39138e-14 -9.3484e-14 0 0 2.5105e-14 4.57021e-14 -1.49886e-14 -9.97442e-14 0 0 9.40699e-14 -3.59272e-14 -3.12876e-14 -5.34639e-14 0 0 1.33499e-13 -6.28649e-14 -2.42902e-14 -4.84181e-16 0 0 1.22157e-13 -4.92823e-14 -2.00022e-14 4.10082e-14 0 0 2.31428e-14 1.79926e-14 -5.14908e-14 5.36517e-14 0 0 -1.78172e-14 9.02801e-15 -4.79788e-15 -7.72649e-16 0 0 1.61379e-15 -3.0425e-14 6.61625e-14 -5.35342e-14 0 0 -2.05812e-14 2.28202e-14 2.31693e-14 -5.92571e-14 0 0 -7.76454e-17 1.92234e-14 -3.61478e-16 -3.08402e-14 0 0 7.42937e-14 -6.21418e-14 1.03003e-14 3.19532e-14 0 0 7.53162e-14 -7.28067e-14 3.88327e-14 2.98797e-14 0 0 -3.14104e-15 4.31324e-14 2.72822e-14 -2.68519e-14 0 0 -2.60848e-14 1.19329e-13 -3.46898e-14 -4.5215e-15 0 0 1.00608e-14 9.65345e-14 -2.58343e-14 1.32785e-14 0 0 3.84213e-14 3.93282e-14 4.80141e-14 -2.23731e-14 0 0 3.18438e-14 4.20355e-14 6.00476e-14 4.59324e-14 0 0 3.18446e-14 5.50055e-14 2.26986e-14 1.46755e-13 0 0 4.04607e-14 4.02123e-14 4.01852e-16 1.74688e-13 0
				</DataArray>
				<DataArray Name="VitesseY" type="Float32" format="ascii">