<?xml version="1.0"?>
<VTKFile type="PolyData">
	<PolyData>
		<Piece NumberOfPoints="1206" NumberOfPolys="1000">
			<Points>
				<DataArray type="Float32" NumberOfComponents="3" format="ascii">
 0 0 0 0.02 0 0 0.04 0 0 0.06 0 0 0.08 0 0 0.1 0 0 0 0.005 0 0.02 0.005 0 0.04 0.005 0 0.06 0.005 0 0.08 0.005 0 0.1 0.005 0 0 0.01 0 0.02 0.01 0 0.04 0.01 0 0.06 0.01 0 0.08 0.01 0 0.1 0.01 0 0 0.015 0 0.02 0.015 0 0.04 0.015 0 0.06 0.015 0 0.08 0.015 0 0.1 0.015 0 0 0.02 0 0.02 0.02 0 0.04 0.02 0 0.06 0.02 0 0.08 0.02 0 0.1 0.02 0 0 0.025 0 0.02 0.025 0 0.04 0.025 0 0.06 0.025 0 0.08 0.025 0 0.1 0.025 0 0 0.03 0 0.02 0.03 0 0.04 0.03 0 0.06 0.03 0 0.08 0.03 0 0.1 0.03 0 0 0.035 0 0.02 0.035 0 0.04 0.035 0 0.06 0.035 0 0.08 0.035 0 0.1 0.035 0 0 0.04 0 0.02 0.04 0 0.04 0.04 0 0.06 0.04 0 0.08 0.04 0 0.1 0.04 0 0 0.045 0 0.02 0.045 0 0.04 0.045 0 0.06 0.045 0 0.08 0.045 0 0.1 0.045 0 0 0.05 0 0.02 0.05 0 0.04 0.05 0 0.06 0.05 0 0.08 0.05 0 0.1 0.05 0 0 0.055 0 0.02 0.055 0 0.04 0.055 0 0.06 0.055 0 0.08 0.055 0 0.1 0.055 0 0 0.06 0 0.02 0.06 0 0.04 0.06 0 0.06 0.06 0 0.08 0.06 0 0.1 0.06 0 0 0.065 0 0.02 0.065 0 0.04 0.065 0 0.06 0.065 0 0.08 0.065 0 0.1 0.065 0 0 0.07 0 0.02 0.07 0 0.04 0.07 0 0.06 0.07 0 0.08 0.07 0 0.1 0.07 0 0 0.075 0 0.02 0.075 0 0.04 0.075 0 0.06 0.075 0 0.08 0.075 0 0.1 0.075 0 0 0.08 0 0.02 0.08 0 0.04 0.08 0 0.06 0.08 0 0.08 0.08 0 0.1 0.08 0 0 0.085 0 0.02 0.085 0 0.04 0.085 0 0.06 0.085 0 0.08 0.085 0 0.1 0.085 0 0 0.09 0 0.02 0.09 0 0.04 0.09 0 0.06 0.09 0 0.08 0.09 0 0.1 0.09 0 0 0.095 0 0.02 0.095 0 0.04 0.095 0 0.06 0.095 0 0.08 0.095 0 0.1 0.095 0 0 0.1 0 0.02 0.1 0 0.04 0.1 0 0.06 0.1 0 0.08 0.1 0 0.1 0.1 0 0 0.105 0 0.02 0.105 0 0.04 0.105 0 0.06 0.105 0 0.08 0.105 0 0.1 0.105 0 0 0.11 0 0.02 0.11 0 0.04 0.11 0 0.06 0.11 0 0.08 0.11 0 0.1 0.11 0 0 0.115 0 0.02 0.115 0 0.04 0.115 0 0.06 0.115 0 0.08 0.115 0 0.1 0.115 0 0 0.12 0 0.02 0.12 0 0.04 0.12 0 0.06 0.12 0 0.08 0.12 0 0.1 0.12 0 0 0.125 0 0.02 0.125 0 0.04 0.125 0 0.06 0.125 0 0.08 0.125 0 0.1 0.125 0 0 0.13 0 0.02 0.13 0 0.04 0.13 0 0.06 0.13 0 0.08 0.13 0 0.1 0.13 0 0 0.135 0 0.02 0.135 0 0.04 0.135 0 0.06 0.135 0 0.08 0.135 0 0.1 0.135 0 0 0.14 0 0.02 0.14 0 0.04 0.14 0 0.06 0.14 0 0.08 0.14 0 0.1 0.14 0 0 0.145 0 0.02 0.145 0 0.04 0.145 0 0.06 0.145 0 0.08 0.145 0 0.1 0.145 0 0 0.15 0 0.02 0.15 0 0.04 0.15 0 0.06 0.15 0 0.08 0.15 0 0.1 0.15 0 0 0.155 0 0.02 0.155 0 0.04 0.155 0 0.06 0.155 0 0.08 0.155 0 0.1 0.155 0 0 0.16 0 0.02 0.16 0 0.04 0.16 0 0.06 0.16 0 0.08 0.16 0 0.1 0.16 0 0 0.165 0 0.02 0.165 0 0.04 0.165 0 0.06 0.165 0 0.08 0.165 0 0.1 0.165 0 0 0.17 0 0.02 0.17 0 0.04 0.17 0 0.06 0.17 0 0.08 0.17 0 0.1 0.17 0 0 0.175 0 0.02 0.175 0 0.04 0.175 0 0.06 0.175 0 0.08 0.175 0 0.1 0.175 0 0 0.18 0 0.02 0.18 0 0.04 0.18 0 0.06 0.18 0 0.08 0.18 0 0.1 0.18 0 0 0.185 0 0.02 0.185 0 0.04 0.185 0 0.06 0.185 0 0.08 0.185 0 0.1 0.185 0 0 0.19 0 0.02 0.19 0 0.04 0.19 0 0.06 0.19 0 0.08 0.19 0 0.1 0.19 0 0 0.195 0 0.02 0.195 0 0.04 0.195 0 0.06 0.195 0 0.08 0.195 0 0.1 0.195 0 0 0.2 0 0.02 0.2 0 0.04 0.2 0 0.06 0.2 0 0.08 0.2 0 0.1 0.2 0 0 0.205 0 0.02 0.205 0 0.04 0.205 0 0.06 0.205 0 0.08 0.205 0 0.1 0.205 0 0 0.21 0 0.02 0.21 0 0.04 0.21 0 0.06 0.21 0 0.08 0.21 0 0.1 0.21 0 0 0.215 0 0.02 0.215 0 0.04 0.215 0 0.06 0.215 0 0.08 0.215 0 0.1 0.215 0 0 0.22 0 0.02 0.22 0 0.04 0.22 0 0.06 0.22 0 0.08 0.22 0 0.1 0.22 0 0 0.225 0 0.02 0.225 0 0.04 0.225 0 0.06 0.225 0 0.08 0.225 0 0.1 0.225 0 0 0.23 0 0.02 0.23 0 0.04 0.23 0 0.06 0.23 0 0.08 0.23 0 0.1 0.23 0 0 0.235 0 0.02 0.235 0 0.04 0.235 0 0.06 0.235 0 0.08 0.235 0 0.1 0.235 0 0 0.24 0 0.02 0.24 0 0.04 0.24 0 0.06 0.24 0 0.08 0.24 0 0.1 0.24 0 0 0.245 0 0.02 0.245 0 0.04 0.245 0 0.06 0.245 0 0.08 0.245 0 0.1 0.245 0 0 0.25 0 0.02 0.25 0 0.04 0.25 0 0.06 0.25 0 0.08 0.25 0 0.1 0.25 0 0 0.255 0 0.02 0.255 0 0.04 0.255 0 0.06 0.255 0 0.08 0.255 0 0.1 0.255 0 0 0.26 0 0.02 0.26 0 0.04 0.26 0 0.06 0.26 0 0.08 0.26 0 0.1 0.26 0 0 0.265 0 0.02 0.265 0 0.04 0.265 0 0.06 0.265 0 0.08 0.265 0 0.1 0.265 0 0 0.27 0 0.02 0.27 0 0.04 0.27 0 0.06 0.27 0 0.08 0.27 0 0.1 0.27 0 0 0.275 0 0.02 0.275 0 0.04 0.275 0 0.06 0.275 0 0.08 0.275 0 0.1 0.275 0 0 0.28 0 0.02 0.28 0 0.04 0.28 0 0.06 0.28 0 0.08 0.28 0 0.1 0.28 0 0 0.285 0 0.02 0.285 0 0.04 0.285 0 0.06 0.285 0 0.08 0.285 0 0.1 0.285 0 0 0.29 0 0.02 0.29 0 0.04 0.29 0 0.06 0.29 0 0.08 0.29 0 0.1 0.29 0 0 0.295 0 0.02 0.295 0 0.04 0.295 0 0.06 0.295 0 0.08 0.295 0 0.1 0.295 0 0 0.3 0 0.02 0.3 0 0.04 0.3 0 0.06 0.3 0 0.08 0.3 0 0.1 0.3 0 0 0.305 0 0.02 0.305 0 0.04 0.305 0 0.06 0.305 0 0.08 0.305 0 0.1 0.305 0 0 0.31 0 0.02 0.31 0 0.04 0.31 0 0.06 0.31 0 0.08 0.31 0 0.1 0.31 0 0 0.315 0 0.02 0.315 0 0.04 0.315 0 0.06 0.315 0 0.08 0.315 0 0.1 0.315 0 0 0.32 0 0.02 0.32 0 0.04 0.32 0 0.06 0.32 0 0.08 0.32 0 0.1 0.32 0 0 0.325 0 0.02 0.325 0 0.04 0.325 0 0.06 0.325 0 0.08 0.325 0 0.1 0.325 0 0 0.33 0 0.02 0.33 0 0.04 0.33 0 0.06 0.33 0 0.08 0.33 0 0.1 0.33 0 0 0.335 0 0.02 0.335 0 0.04 0.335 0 0.06 0.335 0 0.08 0.335 0 0.1 0.335 0 0 0.34 0 0.02 0.34 0 0.04 0.34 0 0.06 0.34 0 0.08 0.34 0 0.1 0.34 0 0 0.345 0 0.02 0.345 0 0.04 0.345 0 0.06 0.345 0 0.08 0.345 0 0.1 0.345 0 0 0.35 0 0.02 0.35 0 0.04 0.35 0 0.06 0.35 0 0.08 0.35 0 0.1 0.35 0 0 0.355001 0 0.02 0.355001 0 0.04 0.355001 0 0.06 0.355001 0 0.08 0.355001 0 0.1 0.355001 0 0 0.360005 0 0.02 0.360005 0 0.04 0.360005 0 0.06 0.360005 0 0.08 0.360005 0 0.1 0.360005 0 0 0.365016 0 0.02 0.365016 0 0.04 0.365016 0 0.06 0.365016 0 0.08 0.365016 0 0.1 0.365016 0 0 0.370047 0 0.02 0.370047 0 0.04 0.370047 0 0.06 0.370047 0 0.08 0.370047 0 0.1 0.370047 0 0 0.375119 0 0.02 0.375119 0 0.04 0.375119 0 0.06 0.375119 0 0.08 0.375119 0 0.1 0.375119 0 0 0.380264 0 0.02 0.380264 0 0.04 0.380264 0 0.06 0.380264 0 0.08 0.380264 0 0.1 0.380264 0 0 0.385519 0 0.02 0.385519 0 0.04 0.385519 0 0.06 0.385519 0 0.08 0.385519 0 0.1 0.385519 0 0 0.39092 0 0.02 0.39092 0 0.04 0.39092 0 0.06 0.39092 0 0.08 0.39092 0 0.1 0.39092 0 0 0.396498 0 0.02 0.396498 0 0.04 0.396498 0 0.06 0.396498 0 0.08 0.396498 0 0.1 0.396498 0 0 0.402278 0 0.02 0.402278 0 0.04 0.402278 0 0.06 0.402278 0 0.08 0.402278 0 0.1 0.402278 0 0 0.408286 0 0.02 0.408286 0 0.04 0.408286 0 0.06 0.408286 0 0.08 0.408286 0 0.1 0.408286 0 0 0.414547 0 0.02 0.414547 0 0.04 0.414547 0 0.06 0.414547 0 0.08 0.414547 0 0.1 0.414547 0 0 0.421088 0 0.02 0.421088 0 0.04 0.421088 0 0.06 0.421088 0 0.08 0.421088 0 0.1 0.421088 0 0 0.427942 0 0.02 0.427942 0 0.04 0.427942 0 0.06 0.427942 0 0.08 0.427942 0 0.1 0.427942 0 0 0.435145 0 0.02 0.435145 0 0.04 0.435145 0 0.06 0.435145 0 0.08 0.435145 0 0.1 0.435145 0 0 0.442737 0 0.02 0.442737 0 0.04 0.442737 0 0.06 0.442737 0 0.08 0.442737 0 0.1 0.442737 0 0 0.450769 0 0.02 0.450769 0 0.04 0.450769 0 0.06 0.450769 0 0.08 0.450769 0 0.1 0.450769 0 0 0.459298 0 0.02 0.459298 0 0.04 0.459298 0 0.06 0.459298 0 0.08 0.459298 0 0.1 0.459298 0 0 0.468393 0 0.02 0.468393 0 0.04 0.468393 0 0.06 0.468393 0 0.08 0.468393 0 0.1 0.468393 0 0 0.478132 0 0.02 0.478132 0 0.04 0.478132 0 0.06 0.478132 0 0.08 0.478132 0 0.1 0.478132 0 0 0.488599 0 0.02 0.488599 0 0.04 0.488599 0 0.06 0.488599 0 0.08 0.488599 0 0.1 0.488599 0 0 0.499858 0 0.02 0.499858 0 0.04 0.499858 0 0.06 0.499858 0 0.08 0.499858 0 0.1 0.499858 0 0 0.51185 0 0.02 0.51185 0 0.04 0.51185 0 0.06 0.51185 0 0.08 0.51185 0 0.1 0.51185 0 0 0.524127 0 0.02 0.524127 0 0.04 0.524127 0 0.06 0.524127 0 0.08 0.524127 0 0.1 0.524127 0 0 0.536236 0 0.02 0.536236 0 0.04 0.536236 0 0.06 0.536236 0 0.08 0.536236 0 0.1 0.536236 0 0 0.54818 0 0.02 0.54818 0 0.04 0.54818 0 0.06 0.54818 0 0.08 0.54818 0 0.1 0.54818 0 0 0.560006 0 0.02 0.560006 0 0.04 0.560006 0 0.06 0.560006 0 0.08 0.560006 0 0.1 0.560006 0 0 0.571776 0 0.02 0.571776 0 0.04 0.571776 0 0.06 0.571776 0 0.08 0.571776 0 0.1 0.571776 0 0 0.583528 0 0.02 0.583528 0 0.04 0.583528 0 0.06 0.583528 0 0.08 0.583528 0 0.1 0.583528 0 0 0.595287 0 0.02 0.595287 0 0.04 0.595287 0 0.06 0.595287 0 0.08 0.595287 0 0.1 0.595287 0 0 0.597898 0 0.02 0.597898 0 0.04 0.597898 0 0.06 0.597898 0 0.08 0.597898 0 0.1 0.597898 0 0 0.600436 0 0.02 0.600436 0 0.04 0.600436 0 0.06 0.600436 0 0.08 0.600436 0 0.1 0.600436 0 0 0.602928 0 0.02 0.602928 0 0.04 0.602928 0 0.06 0.602928 0 0.08 0.602928 0 0.1 0.602928 0 0 0.60539 0 0.02 0.60539 0 0.04 0.60539 0 0.06 0.60539 0 0.08 0.60539 0 0.1 0.60539 0 0 0.607831 0 0.02 0.607831 0 0.04 0.607831 0 0.06 0.607831 0 0.08 0.607831 0 0.1 0.607831 0 0 0.610257 0 0.02 0.610257 0 0.04 0.610257 0 0.06 0.610257 0 0.08 0.610257 0 0.1 0.610257 0 0 0.612673 0 0.02 0.612673 0 0.04 0.612673 0 0.06 0.612673 0 0.08 0.612673 0 0.1 0.612673 0 0 0.615086 0 0.02 0.615086 0 0.04 0.615086 0 0.06 0.615086 0 0.08 0.615086 0 0.1 0.615086 0 0 0.6175 0 0.02 0.6175 0 0.04 0.6175 0 0.06 0.6175 0 0.08 0.6175 0 0.1 0.6175 0 0 0.619898 0 0.02 0.619898 0 0.04 0.619898 0 0.06 0.619898 0 0.08 0.619898 0 0.1 0.619898 0 0 0.622286 0 0.02 0.622286 0 0.04 0.622286 0 0.06 0.622286 0 0.08 0.622286 0 0.1 0.622286 0 0 0.624668 0 0.02 0.624668 0 0.04 0.624668 0 0.06 0.624668 0 0.08 0.624668 0 0.1 0.624668 0 0 0.627047 0 0.02 0.627047 0 0.04 0.627047 0 0.06 0.627047 0 0.08 0.627047 0 0.1 0.627047 0 0 0.629425 0 0.02 0.629425 0 0.04 0.629425 0 0.06 0.629425 0 0.08 0.629425 0 0.1 0.629425 0 0 0.631803 0 0.02 0.631803 0 0.04 0.631803 0 0.06 0.631803 0 0.08 0.631803 0 0.1 0.631803 0 0 0.634177 0 0.02 0.634177 0 0.04 0.634177 0 0.06 0.634177 0 0.08 0.634177 0 0.1 0.634177 0 0 0.63655 0 0.02 0.63655 0 0.04 0.63655 0 0.06 0.63655 0 0.08 0.63655 0 0.1 0.63655 0 0 0.638921 0 0.02 0.638921 0 0.04 0.638921 0 0.06 0.638921 0 0.08 0.638921 0 0.1 0.638921 0 0 0.641293 0 0.02 0.641293 0 0.04 0.641293 0 0.06 0.641293 0 0.08 0.641293 0 0.1 0.641293 0 0 0.643664 0 0.02 0.643664 0 0.04 0.643664 0 0.06 0.643664 0 0.08 0.643664 0 0.1 0.643664 0 0 0.646034 0 0.02 0.646034 0 0.04 0.646034 0 0.06 0.646034 0 0.08 0.646034 0 0.1 0.646034 0 0 0.648403 0 0.02 0.648403 0 0.04 0.648403 0 0.06 0.648403 0 0.08 0.648403 0 0.1 0.648403 0 0 0.650772 0 0.02 0.650772 0 0.04 0.650772 0 0.06 0.650772 0 
[...]
			<PointData Scalars="VitesseX">
				<DataArray Name="VitesseX" type="Float32" format="ascii">
 0 -1.71985e-15 9.40634e-16 4.64205e-15 6.74247e-15 0 0 -1.49859e-15 7.51225e-16 4.80452e-15 6.17156e-15 0 0 -9.10569e-16 3.86425e-16 4.32046e-15 5.79606e-15 0 0 -1.8232e-16 -6.4175e-16 4.90961e-15 4.83867e-15 0 0 -7.13057e-17 -1.3114e-15 5.8734e-15 3.78455e-15 0 0 -1.26624e-15 6.94551e-17 4.53437e-15 3.90748e-15 0 0 -1.96995e-15 1.18208e-15 2.56782e-15 5.00019e-15 0 0 -7.12407e-16 6.14445e-16 6.21044e-16 7.82212e-15 0 0 -8.20206e-16 1.12677e-15 -1.72672e-15 1.07889e-14 0 0 -3.71929e-15 4.81872e-15 -5.15542e-15 1.16025e-14 0 0 -4.19802e-15 5.17714e-15 -4.4336e-15 9.23101e-15 0 0 -2.99906e-15 4.33217e-15 -3.85164e-15 7.39736e-15 0 0 -2.20451e-15 3.92749e-15 -5.18958e-15 8.53598e-15 0 0 -1.37764e-15 2.93189e-15 -1.41442e-15 7.81111e-15 0 0 -3.65094e-15 5.98617e-15 1.11313e-15 7.16859e-15 0 0 -2.56751e-15 4.61673e-15 4.43759e-15 5.14174e-15 0 0 9.69573e-16 -1.91237e-16 1.13435e-14 -7.32879e-16 0 0 2.09481e-15 -9.02452e-17 1.17688e-14 5.37214e-16 0 0 1.27554e-15 3.52208e-15 4.71631e-15 7.4646e-15 0 0 1.71368e-15 6.19317e-15 -2.79939e-15 1.21164e-14 0 0 4.80487e-15 1.64664e-15 3.21687e-15 9.07267e-15 0 0 2.5347e-15 1.73565e-15 7.75823e-15 8.09812e-15 0 0 1.29112e-15 3.68139e-15 6.39547e-15 1.17027e-14 0 0 2.31236e-16 4.39378e-15 7.37157e-15 1.15279e-14 0 0 -4.12427e-15 9.78625e-15 7.83168e-15 4.62125e-15 0 0 1.20822e-15 6.7167e-15 1.23992e-14 -5.39553e-15 0 0 4.43377e-15 6.48018e-15 1.30587e-14 -1.04093e-14 0 0 3.13325e-15 8.89798e-15 7.74163e-15 -5.80068e-15 0 0 2.66821e-15 3.49557e-15 3.68091e-15 1.18534e-15 0 0 2.86868e-15 -1.28103e-15 1.88513e-15 1.22585e-15 0 0 2.03338e-15 -2.99881e-15 1.74356e-15 -3.5834e-15 0 0 -3.46144e-15 3.63577e-15 -4.24272e-15 -3.8773e-15 0 0 3.636e-15 -5.11689e-15 3.11573e-15 -6.35318e-15 0 0 8.15665e-15 -1.67405e-14 1.41798e-14 -9.53502e-15 0 0 -3.91775e-15 -3.30942e-16 -3.87317e-15 2.99931e-15 0 0 -1.08123e-14 1.60048e-14 -1.50985e-14 5.96548e-16 0 0 -3.75487e-15 6.68168e-15 -2.78387e-15 -9.57971e-15 0 0 1.77115e-15 -7.46458e-15 4.02588e-15 -2.81386e-15 0 0 3.03862e-15 -8.97523e-15 -4.91424e-15 3.78918e-15 0 0 2.93312e-15 -8.08233e-15 -4.83933e-15 -3.66131e-16 0 0 -5.94045e-15 -3.65977e-15 5.35029e-15 -1.37228e-14 0 0 -7.45997e-15 -4.37823e-15 5.01892e-15 -1.2536e-14 0 0 -1.39361e-14 3.77015e-15 5.40078e-15 -9.87533e-15 0 0 -1.35686e-14 2.56932e-15 2.5687e-14 -2.78266e-14 0 0 1.15599e-15 -1.10692e-14 2.87185e-14 -2.55152e-14 0 0 -1.70494e-15 -5.01163e-15 7.42231e-15 -3.31393e-15 0 0 -7.28034e-15 -3.0498e-15 3.8626e-15 9.34175e-15 0 0 -1.4342e-15 -1.06681e-14 6.37277e-15 8.11364e-15 0 0 -4.74449e-15 4.42706e-15 -1.22889e-14 1.3026e-14 0 0 -2.06691e-15 -2.45435e-15 -7.38256e-15 1.19775e-14 0 0 1.11378e-14 -2.60734e-14 7.18339e-15 5.71313e-15 0 0 -3.28133e-15 -2.56395e-15 -5.16792e-15 4.67952e-15 0 0 -1.0149e-14 1.38636e-14 7.80395e-16 -9.59779e-15 0 0 1.88766e-15 5.54946e-16 1.76674e-14 -2.95736e-14 0 0 -1.08455e-14 9.94519e-15 1.41864e-14 -2.11674e-14 0 0 -1.18624e-14 1.34435e-14 9.35253e-15 -6.40679e-15 0 0 1.77353e-15 -2.35111e-16 5.49416e-15 -2.01791e-15 0 0 -4.27005e-15 1.24525e-15 9.73878e-16 8.97772e-15 0 0 -7.10596e-15 2.13793e-14 -1.19567e-14 3.9358e-15 0 0 1.57249e-15 2.99316e-14 1.04336e-14 -1.16282e-14 0 0 -2.74307e-15 1.56635e-14 2.12041e-14 2.7667e-14 0 0 -8.31262e-15 4.52735e-15 1.81618e-15 6.39758e-14 0 0 -5.66017e-15 8.20066e-15 1.99974e-14 1.34633e-14 0 0 -1.5648e-14 1.53406e-14 2.39699e-14 6.28754e-15 0 0 -1.97955e-14 1.16158e-14 -9.64558e-15 5.0052e-14 0 0 -2.86622e-14 1.3654e-14 -1.97485e-14 4.42305e-14 0 0 4.53273e-15 -4.53269e-15 2.18372e-15 1.20989e-14 0 0 6.98283e-15 -2.27315e-14 9.61085e-16 4.21967e-15 0 0 -3.00862e-14 -1.91499e-14 -5.31534e-15 -1.05098e-14 0 0 -2.61295e-14 -1.78871e-14 -2.06486e-15 -3.08388e-14 0 0 -3.07504e-15 -1.87726e-15 -3.53701e-14 -2.01013e-14 0 0 3.88067e-15 -4.03116e-15 -5.4283e-14 -1.78708e-15 0 0 7.66651e-15 -1.24494e-14 -4.43954e-14 1.63254e-14 0 0 2.81066e-14 -1.09196e-14 -4.09269e-14 1.08966e-14 0 0 4.46529e-15 -8.04029e-15 -3.36277e-14 9.22099e-15 0 0 -1.65303e-14 6.31771e-15 -1.59633e-14 1.90141e-15 0 0 -1.70293e-14 -6.77736e-15 -6.96387e-15 -1.94221e-14 0 0 4.5517e-15 -2.3976e-14 -2.23913e-14 -2.63797e-15 0 0 3.16658e-14 -1.72241e-14 -2.84799e-14 1.01838e-15 0 0 7.4137e-15 -2.47339e-14 -9.38534e-16 -1.28761e-14 0 0 -3.15009e-15 -1.63163e-14 7.7161e-15 -1.08639e-14 0 0 8.14032e-16 1.5623e-15 2.20458e-15 -1.39126e-14 0 0 -3.68386e-15 8.43877e-15 -2.04658e-15 -7.91737e-15 0 0 2.06704e-15 -7.7419e-15 7.9585e-15 2.70132e-15 0 0 -4.64775e-15 -3.96647e-14 3.13609e-14 -1.23405e-14 0 0 -8.25044e-15 -2.0422e-14 6.19383e-15 -2.0194e-14 0 0 -2.57614e-14 1.82271e-15 -1.05958e-14 -5.96231e-15 0 0 -2.82511e-14 -1.64687e-14 -8.74785e-15 -5.57523e-15 0 0 1.73191e-15 -2.52035e-14 -2.50455e-14 3.37766e-15 0 0 -1.50071e-14 -7.22398e-15 -1.95121e-14 7.99619e-15 0 0 -8.44015e-16 -1.38837e-14 1.57413e-15 -7.07398e-16 0 0 -4.46774e-15 -2.35052e-14 -1.66961e-14 1.65005e-14 0 0 -1.43747e-14 -1.33643e-14 -3.86978e-14 6.05865e-15 0 0 -9.64296e-15 -2.48652e-14 -4.9834e-14 -4.95855e-14 0 0 -5.02256e-14 -8.54579e-14 -9.32867e-14 -6.11041e-14 0 0 -7.48096e-14 -1.13052e-13 -1.07147e-13 -5.67444e-14 0 0 -3.63046e-14 -4.86485e-14 -4.4872e-14 -3.92377e-14 0 0 6.44515e-14 6.84635e-14 7.39903e-14 4.7902e-14 0 0 1.4e-13 2.23491e-13 2.24102e-13 1.31683e-13 0 0 2.03928e-13 3.41968e-13 3.54003e-13 2.08923e-13 0 0 2.70764e-13 4.33176e-13 4.47943e-13 3.04328e-13 0 0 4.39724e-13 8.59424e-13 7.99799e-13 5.39063e-13 0 0 4.72498e-13 8.08744e-13 8.45424e-13 5.28231e-13 0 0 5.03429e-13 7.99947e-13 9.01904e-13 5.20913e-13 0 0 5.25129e-13 8.45403e-13 9.10166e-13 5.30129e-13 0 0 5.29187e-13 8.89516e-13 8.91707e-13 5.79311e-13 0 0 5.30436e-13 8.87811e-13 8.74319e-13 5.88855e-13 0 0 4.80753e-13 7.87032e-13 7.79621e-13 4.93312e-13 0 0 3.07225e-13 5.09524e-13 4.87128e-13 3.22401e-13 0 0 1.13631e-13 1.64345e-13 1.62963e-13 1.06147e-13 0 0 -5.24255e-14 -1.44681e-13 -7.68986e-14 -7.51564e-14 0 0 -1.63399e-13 -3.15737e-13 -2.59529e-13 -1.33639e-13 0 0 -2.15006e-13 -3.60044e-13 -3.15957e-13 -1.50703e-13 0 0 -2.33063e-13 -3.04775e-13 -2.97185e-13 -1.05176e-13 0 0 -2.02279e-13 -2.02597e-13 -2.91944e-13 -8.45656e-14 0 0 -1.58119e-13 -1.4395e-13 -2.00552e-13 -9.93222e-14 0 0 -9.01959e-14 -1.14487e-13 -5.54765e-14 -4.34306e-14 0 0 9.96101e-15 -8.0978e-14 -1.93623e-14 8.56162e-15 0 0 5.88941e-14 -2.94703e-14 3.35283e-14 -1.18488e-15 0 0 6.16465e-14 2.9052e-14 1.3964e-13 -2.02684e-14 0 0 8.29907e-14 1.01504e-13 1.46559e-13 1.13526e-16 0 0 1.4368e-13 1.14553e-13 1.77448e-13 3.58296e-15 0 0 1.8653e-13 1.22835e-13 2.03792e-13 3.42598e-14 0 0 1.70599e-13 1.54691e-13 1.71192e-13 6.66174e-14 0 0 1.39382e-13 1.85889e-13 1.56507e-13 8.55927e-14 0 0 1.37906e-13 1.59218e-13 1.98291e-13 7.10903e-14 0 0 1.48766e-13 1.2818e-13 2.54386e-13 3.96768e-14 0 0 1.50711e-13 1.35876e-13 2.36772e-13 9.52631e-14 0 0 1.10935e-13 1.56797e-13 1.9661e-13 1.09257e-13 0 0 4.46046e-14 1.68729e-13 1.6982e-13 8.81354e-14 0 0 4.50745e-14 9.86548e-14 1.46426e-13 1.18565e-13 0 0 4.67393e-14 4.60404e-14 1.0553e-13 1.22719e-13 0 0 -2.79211e-15 2.81283e-14 7.76239e-14 1.07975e-13 0 0 4.78834e-16 4.30975e-14 7.71497e-14 8.20975e-14 0 0 -1.52959e-14 -4.00292e-15 5.96074e-14 4.13363e-14 0 0 -3.69146e-14 -1.58941e-14 -4.30645e-14 -2.43115e-14 0 0 -4.22419e-14 -2.89869e-14 -8.39388e-14 -2.27101e-14 0 0 -4.64776e-14 -1.11953e-13 -2.37017e-14 -4.55916e-14 0 0 -5.94459e-14 -7.01938e-14 -8.98193e-14 -1.96917e-14 0 0 -5.37563e-14 -4.18712e-14 -1.34135e-13 4.92259e-14 0 0 -2.22551e-14 -5.60571e-14 -6.0938e-14 -1.86535e-14 0 0 -1.82242e-14 -2.67255e-14 -3.33465e-14 -3.32773e-14 0 0 -1.43705e-14 -1.34628e-14 -3.15492e-14 -7.69505e-15 0 0 -2.21967e-14 -1.30702e-14 -6.21077e-15 -3.22098e-14 0 0 -1.46432e-14 -2.4513e-14 -8.70963e-15 -6.38674e-15 0 0 -7.26852e-15 -3.01055e-14 -1.90414e-14 -9.35189e-15 0 0 -1.49609e-14 -1.44562e-14 -2.55554e-14 -3.05699e-14 0 0 -1.21013e-14 -1.72944e-14 -1.98342e-14 -3.77704e-14 0 0 -7.79455e-15 -2.52909e-14 -9.29485e-15 -3.44722e-14 0 0 -1.64737e-14 -1.60923e-14 -1.77909e-14 -4.27128e-14 0 0 -1.27445e-14 -1.71438e-14 -1.33188e-14 -9.79842e-14 0 0 -6.17892e-15 -2.58062e-14 -2.30448e-14 -6.99793e-14 0 0 -1.06359e-14 -2.85479e-14 -1.91192e-14 -6.76257e-14 0 0 2.83049e-15 -4.93323e-14 4.63677e-15 -9.33659e-14 0 0 1.15528e-14 -5.09354e-14 -1.31842e-15 -4.72192e-14 0 0 -1.86151e-14 -1.24271e-14 -2.77164e-14 -1.40799e-14 0 0 -3.50722e-14 1.21227e-15 -5.78661e-14 1.64062e-14 0 0 -2.70423e-14 -6.51127e-15 -4.31001e-14 6.12426e-14 0 0 -1.1653e-15 -3.51134e-14 1.4313e-14 8.99024e-14 0 0 5.20441e-15 -4.28126e-14 6.76864e-14 4.08583e-14 0 0 -1.03237e-14 -2.83974e-14 9.65802e-14 2.55592e-14 0 0 3.30037e-14 -5.06678e-14 9.15697e-14 5.2441e-14 0 0 5.13703e-14 -3.69826e-15 3.24529e-14 5.35849e-14 0 0 8.34906e-14 3.22484e-14 -2.68097e-14 5.16524e-14 0 0 1.11913e-13 2.25107e-14 -5.69278e-14 4.42627e-14 0 0 7.341e-14 3.91124e-14 -3.42157e-14 3.93607e-15 0 0 4.32252e-14 2.42571e-14 3.78047e-14 -7.52469e-14 0 0 1.27062e-14 2.54491e-14 6.35904e-15 -8.81202e-15 0 0 6.64201e-14 -1.74897e-14 -5.9291e-14 1.55317e-13 0 0 9.3511e-14 -5.74432e-14 -1.79803e-14 2.33171e-13 0 0 6.34183e-14 -5.17337e-14 1.32982e-14 2.2803e-13 0 0 4.4591e-14 -4.07348e-14 -7.72104e-15 2.19235e-13 0 0 -1.67291e-14 4.59475e-14 -3.97709e-14 1.92881e-13 0 0 -3.13728e-14 7.40264e-14 -1.00245e-14 8.92513e-14 0 0 -1.07697e-14 3.22548e-14 4.77705e-14 3.53594e-14 0 0 2.61093e-14 7.44172e-15 3.28039e-14 5.10444e-14 0 0 6.08119e-14 -1.78434e-14 7.43182e-14 -1.13351e-14 0 0 2.7177e-14 1.30449e-14 7.9539e-14 -3.18196e-14 0 0 1.49653e-14 1.35759e-14 4.34764e-14 -3.8203e-15 0 0 3.17559e-14 -1.29356e-14 3.63632e-14 -1.15474e-15 0 0 2.02634e-14 1.42137e-14 3.24072e-14 -2.77704e-14 0 0 -1.29168e-15 7.64705e-14 1.89198e-14 -1.00948e-13 0 0 1.05585e-14 1.14032e-13 -4.84619e-14 -7.73675e-14 0 0 2.97739e-14 1.07473e-13 -9.39616e-14 3.09432e-14 0 0 6.98491e-14 2.81569e-14 -4.87572e-14 6.44053e-14 0 0 6.34043e-14 -3.42004e-14 3.80579e-14 1.31443e-14 0 0 -9.96331e-15 4.04138e-14 1.57375e-14 -2.71403e-14 0 0 -7.12084e-15 7.78563e-14 -2.8405e-14 -1.24684e-14 0 0 2.20295e-14 4.80522e-14 -1.58455e-14 -5.44699e-15 0 0 6.25283e-14 -3.15955e-14 2.5727e-14 -1.88636e-14 0 0 2.58325e-14 -1.23932e-14 4.21182e-14 -4.55439e-14 0 0 3.28273e-15 2.09637e-14 4.30967e-14 -3.83472e-14 0 0 1.87828e-14 -8.38033e-15 8.75462e-14 -3.98136e-14 0 0 3.25562e-14 -2.09527e-14 1.15262e-13 -1.08559e-13 0 0 3.73797e-14 2.50845e-14 2.9529e-14 -6.33206e-14 0 0 1.31077e-14 9.55347e-14 -6.52539e-14 1.09542e-13 0 0 1.51167e-14 8.31097e-14 -1.77423e-14 1.24414e-13 0 0 6.22114e-16 7.75102e-14 3.2366e-14 5.57066e-14 0 0 3.59532e-14 4.78289e-14 6.32612e-14 6.06313e-14 0 0 7.43599e-14 2.76979e-14 1.13262e-13 5.6966e-14 0 0 7.95222e-14 3.37365e-14 1.3002e-13 5.59671e-14 0
				</DataArray>
				<DataArray Name="VitesseY" type="Float32" format="ascii">