<?xml version="1.0"?>
<VTKFile type="PolyData">
	<PolyData>
		<Piece NumberOfPoints="1206" NumberOfPolys="1000">
			<Points>
				<DataArray type="Float32" NumberOfComponents="3" format="ascii">
 0 0 0 0.02 0 0 0.04 0 0 0.06 0 0 0.08 0 0 0.1 0 0 0 0.005 0 0.02 0.005 0 0.04 0.005 0 0.06 0.005 0 0.08 0.005 0 0.1 0.005 0 0 0.01 0 0.02 0.01 0 0.04 0.01 0 0.06 0.01 0 0.08 0.01 0 0.1 0.01 0 0 0.015 0 0.02 0.015 0 0.04 0.015 0 0.06 0.015 0 0.08 0.015 0 0.1 0.015 0 0 0.02 0 0.02 0.02 0 0.04 0.02 0 0.06 0.02 0 0.08 0.02 0 0.1 0.02 0 0 0.025 0 0.02 0.025 0 0.04 0.025 0 0.06 0.025 0 0.08 0.025 0 0.1 0.025 0 0 0.03 0 0.02 0.03 0 0.04 0.03 0 0.06 0.03 0 0.08 0.03 0 0.1 0.03 0 0 0.035 0 0.02 0.035 0 0.04 0.035 0 0.06 0.035 0 0.08 0.035 0 0.1 0.035 0 0 0.04 0 0.02 0.04 0 0.04 0.04 0 0.06 0.04 0 0.08 0.04 0 0.1 0.04 0 0 0.045 0 0.02 0.045 0 0.04 0.045 0 0.06 0.045 0 0.08 0.045 0 0.1 0.045 0 0 0.05 0 0.02 0.05 0 0.04 0.05 0 0.06 0.05 0 0.08 0.05 0 0.1 0.05 0 0 0.055 0 0.02 0.055 0 0.04 0.055 0 0.06 0.055 0 0.08 0.055 0 0.1 0.055 0 0 0.06 0 0.02 0.06 0 0.04 0.06 0 0.06 0.06 0 0.08 0.06 0 0.1 0.06 0 0 0.065 0 0.02 0.065 0 0.04 0.065 0 0.06 0.065 0 0.08 0.065 0 0.1 0.065 0 0 0.07 0 0.02 0.07 0 0.04 0.07 0 0.06 0.07 0 0.08 0.07 0 0.1 0.07 0 0 0.075 0 0.02 0.075 0 0.04 0.075 0 0.06 0.075 0 0.08 0.075 0 0.1 0.075 0 0 0.08 0 0.02 0.08 0 0.04 0.08 0 0.06 0.08 0 0.08 0.08 0 0.1 0.08 0 0 0.085 0 0.02 0.085 0 0.04 0.085 0 0.06 0.085 0 0.08 0.085 0 0.1 0.085 0 0 0.09 0 0.02 0.09 0 0.04 0.09 0 0.06 0.09 0 0.08 0.09 0 0.1 0.09 0 0 0.095 0 0.02 0.095 0 0.04 0.095 0 0.06 0.095 0 0.08 0.095 0 0.1 0.095 0 0 0.1 0 0.02 0.1 0 0.04 0.1 0 0.06 0.1 0 0.08 0.1 0 0.1 0.1 0 0 0.105 0 0.02 0.105 0 0.04 0.105 0 0.06 0.105 0 0.08 0.105 0 0.1 0.105 0 0 0.11 0 0.02 0.11 0 0.04 0.11 0 0.06 0.11 0 0.08 0.11 0 0.1 0.11 0 0 0.115 0 0.02 0.115 0 0.04 0.115 0 0.06 0.115 0 0.08 0.115 0 0.1 0.115 0 0 0.12 0 0.02 0.12 0 0.04 0.12 0 0.06 0.12 0 0.08 0.12 0 0.1 0.12 0 0 0.125 0 0.02 0.125 0 0.04 0.125 0 0.06 0.125 0 0.08 0.125 0 0.1 0.125 0 0 0.13 0 0.02 0.13 0 0.04 0.13 0 0.06 0.13 0 0.08 0.13 0 0.1 0.13 0 0 0.135 0 0.02 0.135 0 0.04 0.135 0 0.06 0.135 0 0.08 0.135 0 0.1 0.135 0 0 0.14 0 0.02 0.14 0 0.04 0.14 0 0.06 0.14 0 0.08 0.14 0 0.1 0.14 0 0 0.145 0 0.02 0.145 0 0.04 0.145 0 0.06 0.145 0 0.08 0.145 0 0.1 0.145 0 0 0.15 0 0.02 0.15 0 0.04 0.15 0 0.06 0.15 0 0.08 0.15 0 0.1 0.15 0 0 0.155 0 0.02 0.155 0 0.04 0.155 0 0.06 0.155 0 0.08 0.155 0 0.1 0.155 0 0 0.16 0 0.02 0.16 0 0.04 0.16 0 0.06 0.16 0 0.08 0.16 0 0.1 0.16 0 0 0.165 0 0.02 0.165 0 0.04 0.165 0 0.06 0.165 0 0.08 0.165 0 0.1 0.165 0 0 0.17 0 0.02 0.17 0 0.04 0.17 0 0.06 0.17 0 0.08 0.17 0 0.1 0.17 0 0 0.175 0 0.02 0.175 0 0.04 0.175 0 0.06 0.175 0 0.08 0.175 0 0.1 0.175 0 0 0.18 0 0.02 0.18 0 0.04 0.18 0 0.06 0.18 0 0.08 0.18 0 0.1 0.18 0 0 0.185 0 0.02 0.185 0 0.04 0.185 0 0.06 0.185 0 0.08 0.185 0 0.1 0.185 0 0 0.19 0 0.02 0.19 0 0.04 0.19 0 0.06 0.19 0 0.08 0.19 0 0.1 0.19 0 0 0.195 0 0.02 0.195 0 0.04 0.195 0 0.06 0.195 0 0.08 0.195 0 0.1 0.195 0 0 0.2 0 0.02 0.2 0 0.04 0.2 0 0.06 0.2 0 0.08 0.2 0 0.1 0.2 0 0 0.205 0 0.02 0.205 0 0.04 0.205 0 0.06 0.205 0 0.08 0.205 0 0.1 0.205 0 0 0.21 0 0.02 0.21 0 0.04 0.21 0 0.06 0.21 0 0.08 0.21 0 0.1 0.21 0 0 0.215 0 0.02 0.215 0 0.04 0.215 0 0.06 0.215 0 0.08 0.215 0 0.1 0.215 0 0 0.22 0 0.02 0.22 0 0.04 0.22 0 0.06 0.22 0 0.08 0.22 0 0.1 0.22 0 0 0.225 0 0.02 0.225 0 0.04 0.225 0 0.06 0.225 0 0.08 0.225 0 0.1 0.225 0 0 0.23 0 0.02 0.23 0 0.04 0.23 0 0.06 0.23 0 0.08 0.23 0 0.1 0.23 0 0 0.235 0 0.02 0.235 0 0.04 0.235 0 0.06 0.235 0 0.08 0.235 0 0.1 0.235 0 0 0.24 0 0.02 0.24 0 0.04 0.24 0 0.06 0.24 0 0.08 0.24 0 0.1 0.24 0 0 0.245 0 0.02 0.245 0 0.04 0.245 0 0.06 0.245 0 0.08 0.245 0 0.1 0.245 0 0 0.25 0 0.02 0.25 0 0.04 0.25 0 0.06 0.25 0 0.08 0.25 0 0.1 0.25 0 0 0.255 0 0.02 0.255 0 0.04 0.255 0 0.06 0.255 0 0.08 0.255 0 0.1 0.255 0 0 0.26 0 0.02 0.26 0 0.04 0.26 0 0.06 0.26 0 0.08 0.26 0 0.1 0.26 0 0 0.265 0 0.02 0.265 0 0.04 0.265 0 0.06 0.265 0 0.08 0.265 0 0.1 0.265 0 0 0.27 0 0.02 0.27 0 0.04 0.27 0 0.06 0.27 0 0.08 0.27 0 0.1 0.27 0 0 0.275 0 0.02 0.275 0 0.04 0.275 0 0.06 0.275 0 0.08 0.275 0 0.1 0.275 0 0 0.28 0 0.02 0.28 0 0.04 0.28 0 0.06 0.28 0 0.08 0.28 0 0.1 0.28 0 0 0.285 0 0.02 0.285 0 0.04 0.285 0 0.06 0.285 0 0.08 0.285 0 0.1 0.285 0 0 0.29 0 0.02 0.29 0 0.04 0.29 0 0.06 0.29 0 0.08 0.29 0 0.1 0.29 0 0 0.295 0 0.02 0.295 0 0.04 0.295 0 0.06 0.295 0 0.08 0.295 0 0.1 0.295 0 0 0.3 0 0.02 0.3 0 0.04 0.3 0 0.06 0.3 0 0.08 0.3 0 0.1 0.3 0 0 0.305 0 0.02 0.305 0 0.04 0.305 0 0.06 0.305 0 0.08 0.305 0 0.1 0.305 0 0 0.31 0 0.02 0.31 0 0.04 0.31 0 0.06 0.31 0 0.08 0.31 0 0.1 0.31 0 0 0.315 0 0.02 0.315 0 0.04 0.315 0 0.06 0.315 0 0.08 0.315 0 0.1 0.315 0 0 0.32 0 0.02 0.32 0 0.04 0.32 0 0.06 0.32 0 0.08 0.32 0 0.1 0.32 0 0 0.325 0 0.02 0.325 0 0.04 0.325 0 0.06 0.325 0 0.08 0.325 0 0.1 0.325 0 0 0.33 0 0.02 0.33 0 0.04 0.33 0 0.06 0.33 0 0.08 0.33 0 0.1 0.33 0 0 0.335 0 0.02 0.335 0 0.04 0.335 0 0.06 0.335 0 0.08 0.335 0 0.1 0.335 0 0 0.34 0 0.02 0.34 0 0.04 0.34 0 0.06 0.34 0 0.08 0.34 0 0.1 0.34 0 0 0.345 0 0.02 0.345 0 0.04 0.345 0 0.06 0.345 0 0.08 0.345 0 0.1 0.345 0 0 0.35 0 0.02 0.35 0 0.04 0.35 0 0.06 0.35 0 0.08 0.35 0 0.1 0.35 0 0 0.355 0 0.02 0.355 0 0.04 0.355 0 0.06 0.355 0 0.08 0.355 0 0.1 0.355 0 0 0.36 0 0.02 0.36 0 0.04 0.36 0 0.06 0.36 0 0.08 0.36 0 0.1 0.36 0 0 0.365 0 0.02 0.365 0 0.04 0.365 0 0.06 0.365 0 0.08 0.365 0 0.1 0.365 0 0 0.37 0 0.02 0.37 0 0.04 0.37 0 0.06 0.37 0 0.08 0.37 0 0.1 0.37 0 0 0.375 0 0.02 0.375 0 0.04 0.375 0 0.06 0.375 0 0.08 0.375 0 0.1 0.375 0 0 0.38 0 0.02 0.38 0 0.04 0.38 0 0.06 0.38 0 0.08 0.38 0 0.1 0.38 0 0 0.385 0 0.02 0.385 0 0.04 0.385 0 0.06 0.385 0 0.08 0.385 0 0.1 0.385 0 0 0.39 0 0.02 0.39 0 0.04 0.39 0 0.06 0.39 0 0.08 0.39 0 0.1 0.39 0 0 0.395 0 0.02 0.395 0 0.04 0.395 0 0.06 0.395 0 0.08 0.395 0 0.1 0.395 0 0 0.4 0 0.02 0.4 0 0.04 0.4 0 0.06 0.4 0 0.08 0.4 0 0.1 0.4 0 0 0.405 0 0.02 0.405 0 0.04 0.405 0 0.06 0.405 0 0.08 0.405 0 0.1 0.405 0 0 0.41 0 0.02 0.41 0 0.04 0.41 0 0.06 0.41 0 0.08 0.41 0 0.1 0.41 0 0 0.415 0 0.02 0.415 0 0.04 0.415 0 0.06 0.415 0 0.08 0.415 0 0.1 0.415 0 0 0.42 0 0.02 0.42 0 0.04 0.42 0 0.06 0.42 0 0.08 0.42 0 0.1 0.42 0 0 0.425 0 0.02 0.425 0 0.04 0.425 0 0.06 0.425 0 0.08 0.425 0 0.1 0.425 0 0 0.43 0 0.02 0.43 0 0.04 0.43 0 0.06 0.43 0 0.08 0.43 0 0.1 0.43 0 0 0.435 0 0.02 0.435 0 0.04 0.435 0 0.06 0.435 0 0.08 0.435 0 0.1 0.435 0 0 0.44 0 0.02 0.44 0 0.04 0.44 0 0.06 0.44 0 0.08 0.44 0 0.1 0.44 0 0 0.445 0 0.02 0.445 0 0.04 0.445 0 0.06 0.445 0 0.08 0.445 0 0.1 0.445 0 0 0.45 0 0.02 0.45 0 0.04 0.45 0 0.06 0.45 0 0.08 0.45 0 0.1 0.45 0 0 0.455 0 0.02 0.455 0 0.04 0.455 0 0.06 0.455 0 0.08 0.455 0 0.1 0.455 0 0 0.46 0 0.02 0.46 0 0.04 0.46 0 0.06 0.46 0 0.08 0.46 0 0.1 0.46 0 0 0.465004 0 0.02 0.465004 0 0.04 0.465004 0 0.06 0.465004 0 0.08 0.465004 0 0.1 0.465004 0 0 0.47003 0 0.02 0.47003 0 0.04 0.47003 0 0.06 0.47003 0 0.08 0.47003 0 0.1 0.47003 0 0 0.475169 0 0.02 0.475169 0 0.04 0.475169 0 0.06 0.475169 0 0.08 0.475169 0 0.1 0.475169 0 0 0.480681 0 0.02 0.480681 0 0.04 0.480681 0 0.06 0.480681 0 0.08 0.480681 0 0.1 0.480681 0 0 0.487033 0 0.02 0.487033 0 0.04 0.487033 0 0.06 0.487033 0 0.08 0.487033 0 0.1 0.487033 0 0 0.494925 0 0.02 0.494925 0 0.04 0.494925 0 0.06 0.494925 0 0.08 0.494925 0 0.1 0.494925 0 0 0.505465 0 0.02 0.505465 0 0.04 0.505465 0 0.06 0.505465 0 0.08 0.505465 0 0.1 0.505465 0 0 0.518574 0 0.02 0.518574 0 0.04 0.518574 0 0.06 0.518574 0 0.08 0.518574 0 0.1 0.518574 0 0 0.521235 0 0.02 0.521235 0 0.04 0.521235 0 0.06 0.521235 0 0.08 0.521235 0 0.1 0.521235 0 0 0.52374 0 0.02 0.52374 0 0.04 0.52374 0 0.06 0.52374 0 0.08 0.52374 0 0.1 0.52374 0 0 0.526227 0 0.02 0.526227 0 0.04 0.526227 0 0.06 0.526227 0 0.08 0.526227 0 0.1 0.526227 0 0 0.528786 0 0.02 0.528786 0 0.04 0.528786 0 0.06 0.528786 0 0.08 0.528786 0 0.1 0.528786 0 0 0.531506 0 0.02 0.531506 0 0.04 0.531506 0 0.06 0.531506 0 0.08 0.531506 0 0.1 0.531506 0 0 0.534485 0 0.02 0.534485 0 0.04 0.534485 0 0.06 0.534485 0 0.08 0.534485 0 0.1 0.534485 0 0 0.537809 0 0.02 0.537809 0 0.04 0.537809 0 0.06 0.537809 0 0.08 0.537809 0 0.1 0.537809 0 0 0.541546 0 0.02 0.541546 0 0.04 0.541546 0 0.06 0.541546 0 0.08 0.541546 0 0.1 0.541546 0 0 0.545714 0 0.02 0.545714 0 0.04 0.545714 0 0.06 0.545714 0 0.08 0.545714 0 0.1 0.545714 0 0 0.550262 0 0.02 0.550262 0 0.04 0.550262 0 0.06 0.550262 0 0.08 0.550262 0 0.1 0.550262 0 0 0.555075 0 0.02 0.555075 0 0.04 0.555075 0 0.06 0.555075 0 0.08 0.555075 0 0.1 0.555075 0 0 0.560017 0 0.02 0.560017 0 0.04 0.560017 0 0.06 0.560017 0 0.08 0.560017 0 0.1 0.560017 0 0 0.565003 0 0.02 0.565003 0 0.04 0.565003 0 0.06 0.565003 0 0.08 0.565003 0 0.1 0.565003 0 0 0.570001 0 0.02 0.570001 0 0.04 0.570001 0 0.06 0.570001 0 0.08 0.570001 0 0.1 0.570001 0 0 0.575 0 0.02 0.575 0 0.04 0.575 0 0.06 0.575 0 0.08 0.575 0 0.1 0.575 0 0 0.58 0 0.02 0.58 0 0.04 0.58 0 0.06 0.58 0 0.08 0.58 0 0.1 0.58 0 0 0.585 0 0.02 0.585 0 0.04 0.585 0 0.06 0.585 0 0.08 0.585 0 0.1 0.585 0 0 0.59 0 0.02 0.59 0 0.04 0.59 0 0.06 0.59 0 0.08 0.59 0 0.1 0.59 0 0 0.595 0 0.02 0.595 0 0.04 0.595 0 0.06 0.595 0 0.08 0.595 0 0.1 0.595 0 0 0.6 0 0.02 0.6 0 0.04 0.6 0 0.06 0.6 0 0.08 0.6 0 0.1 0.6 0 0 0.605 0 0.02 0.605 0 0.04 0.605 0 0.06 0.605 0 0.08 0.605 0 0.1 0.605 0 0 0.61 0 0.02 0.61 0 0.04 0.61 0 0.06 0.61 0 0.08 0.61 0 0.1 0.61 0 0 0.615 0 0.02 0.615 0 0.04 0.615 0 0.06 0.615 0 0.08 0.615 0 0.1 0.615 0 0 0.62 0 0.02 0.62 0 0.04 0.62 0 0.06 0.62 0 0.08 0.62 0 0.1 0.62 0 0 0.625 0 0.02 0.625 0 0.04 0.625 0 0.06 0.625 0 0.08 0.625 0 0.1 0.625 0 0 0.63 0 0.02 0.63 0 0.04 0.63 0 0.06 0.63 0 0.08 0.63 0 0.1 0.63 0 0 0.635 0 0.02 0.635 0 0.04 0.635 0 0.06 0.635 0 0.08 0.635 0 0.1 0.635 0 0 0.64 0 0.02 0.64 0 0.04 0.64 0 0.06 0.64 0 0.08 0.64 0 0.1 0.64 0 0 0.645 0 0.02 0.645 0 0.04 0.645 0 0.06 0.645 0 0.08 0.645 0 0.1 0.645 0 0 0.65 0 0.02 0.65 0 0.04 0.65 0 0.06 0.65 0 0.08 0.65 0 0.1 0.65 0 0 0.655 0 0.02 0.655 0 0.04 0.655 0 0.06 0.655 0 0.08 0.655 0 0.1 0.655 0 0 0.66 0 0.02 0.66 0 0.04 0.66 
[...]
			<PointData Scalars="VitesseX">
				<DataArray Name="VitesseX" type="Float32" format="ascii">
 0 3.15981e-16 -5.21014e-16 1.22035e-15 -7.39877e-16 0 0 1.73671e-16 -4.83898e-16 1.21762e-15 -4.49773e-16 0 0 -1.25323e-16 -2.54907e-16 1.13649e-15 -6.18123e-17 0 0 5.03359e-16 -6.49547e-16 8.14204e-16 3.52506e-16 0 0 2.78095e-16 5.21831e-16 -6.75859e-16 1.04113e-15 0 0 -1.16601e-15 1.85565e-15 -9.56641e-16 8.40271e-16 0 0 -1.62795e-15 1.16482e-15 5.65215e-16 -1.2831e-16 0 0 6.24901e-16 -1.76169e-15 2.55711e-15 -2.38008e-16 0 0 1.27867e-15 -1.43307e-15 1.78802e-15 1.00849e-15 0 0 1.76214e-16 6.80071e-16 -2.66157e-16 1.4593e-15 0 0 6.34065e-16 -5.26201e-16 -5.88148e-16 1.14472e-15 0 0 -1.16897e-15 4.78448e-16 7.04205e-16 -3.16191e-16 0 0 3.15326e-16 -1.59953e-15 2.86123e-15 6.99167e-17 0 0 -2.05552e-15 1.30462e-15 9.06595e-16 2.67219e-15 0 0 -9.96617e-16 6.67814e-16 2.53275e-15 1.20616e-15 0 0 2.82661e-15 -4.70645e-15 6.20535e-15 -1.09098e-15 0 0 -2.66439e-15 2.59447e-15 -6.11669e-17 1.47669e-15 0 0 4.49551e-16 3.40288e-15 -6.31754e-15 4.54855e-15 0 0 8.86445e-16 2.71924e-15 -5.94292e-15 5.32054e-15 0 0 -1.67781e-15 1.93409e-15 -1.31738e-15 6.10335e-15 0 0 3.48396e-15 -6.09422e-15 2.65019e-15 8.18647e-15 0 0 1.80052e-15 -3.42203e-15 -5.20842e-17 1.01843e-14 0 0 -2.09869e-15 3.22167e-15 6.70555e-16 3.68224e-15 0 0 -2.12212e-15 4.41602e-15 3.56505e-16 2.75035e-15 0 0 1.26226e-16 1.28773e-15 4.85586e-17 7.38314e-15 0 0 3.38905e-16 -2.85569e-15 5.65856e-15 2.59301e-15 0 0 -1.92941e-15 1.93043e-15 6.6002e-16 1.70274e-15 0 0 -2.62276e-15 2.8447e-15 2.59761e-15 -1.23021e-15 0 0 -1.82903e-16 -1.5359e-15 5.6438e-15 -4.65243e-15 0 0 4.19682e-15 -3.02837e-15 -2.29893e-15 2.36861e-15 0 0 2.61628e-15 -3.17994e-15 2.0461e-15 5.2258e-16 0 0 1.99638e-15 -2.46961e-15 5.66698e-15 -3.79539e-15 0 0 7.86399e-16 -1.04701e-16 1.77079e-15 -4.59714e-15 0 0 -6.58268e-16 6.5206e-15 -1.11881e-15 -5.87926e-15 0 0 3.07544e-15 5.80143e-15 -6.35122e-15 3.82597e-16 0 0 -3.00507e-16 2.68033e-15 -4.01443e-15 1.85662e-15 0 0 -6.12596e-16 3.10288e-15 -3.22665e-15 5.60729e-15 0 0 1.86396e-15 -1.27038e-15 3.413e-15 2.07549e-15 0 0 8.04017e-16 -3.14757e-15 3.72481e-15 -4.76887e-16 0 0 1.02613e-15 2.85385e-15 -8.7527e-15 6.0502e-15 0 0 8.73147e-16 -1.26723e-15 -1.06006e-15 5.42011e-15 0 0 9.88106e-16 -4.00461e-15 7.12845e-16 7.00261e-15 0 0 -2.61296e-15 1.95423e-15 1.95969e-15 2.99981e-15 0 0 -6.03405e-15 3.33373e-15 7.43185e-16 8.35078e-15 0 0 -1.12807e-15 3.1792e-15 -5.0449e-15 8.5797e-15 0 0 5.40988e-16 2.66191e-15 2.74563e-15 1.68332e-15 0 0 -1.80331e-15 4.7852e-15 3.3472e-15 2.77438e-15 0 0 -1.91718e-15 9.29021e-15 -6.89216e-15 4.29289e-15 0 0 2.96452e-16 6.00486e-15 -7.22454e-15 9.29087e-15 0 0 3.58527e-15 -3.14383e-15 2.2975e-15 9.92198e-15 0 0 1.53787e-15 -6.14198e-15 9.24615e-15 -1.55379e-15 0 0 -1.75749e-15 -3.13289e-15 7.18821e-15 -4.10945e-15 0 0 2.13173e-15 3.68536e-15 2.81492e-15 6.12853e-16 0 0 8.52103e-15 -5.36404e-16 5.74493e-15 -1.17333e-15 0 0 -2.70614e-15 5.52724e-16 -9.39376e-17 3.68135e-15 0 0 -7.41594e-15 8.02248e-15 -3.68057e-15 -4.88369e-15 0 0 3.42613e-15 1.12375e-14 -1.10406e-14 -6.24741e-15 0 0 -5.60089e-17 1.41534e-14 -1.4773e-14 4.25318e-15 0 0 -2.46337e-15 8.80434e-15 5.70378e-16 -2.72478e-15 0 0 1.50789e-15 9.06395e-15 2.52227e-15 -1.28223e-14 0 0 9.01008e-17 9.69563e-15 -2.66705e-15 -1.02634e-14 0 0 3.13087e-15 1.07262e-14 3.67067e-16 -1.20458e-14 0 0 6.28581e-15 8.07413e-15 -8.85443e-16 -7.77275e-15 0 0 1.39743e-15 4.70979e-15 6.45242e-15 -6.95185e-15 0 0 -1.42839e-15 1.12614e-14 1.0953e-14 -1.86612e-14 0 0 1.73279e-16 6.99926e-15 7.44716e-15 -1.24847e-14 0 0 1.79311e-15 -2.38901e-15 6.31917e-15 7.34527e-15 0 0 -3.30295e-16 2.4105e-15 -2.3901e-15 7.35487e-15 0 0 5.99173e-15 4.13745e-15 -3.41836e-15 -4.71189e-15 0 0 2.50765e-15 8.2273e-15 2.79494e-15 -1.14362e-14 0 0 -1.32556e-14 2.0292e-14 1.35518e-15 -1.11882e-14 0 0 1.93135e-15 3.63345e-15 6.23774e-15 -1.38995e-15 0 0 1.25515e-14 -1.62123e-15 2.5147e-15 1.5302e-15 0 0 1.04386e-14 1.7514e-14 -1.3996e-14 4.95468e-16 0 0 1.93696e-15 2.06993e-14 -1.20265e-14 4.01861e-16 0 0 1.06942e-16 1.14682e-14 -5.24957e-15 -1.86186e-15 0 0 7.43487e-15 1.68172e-15 1.97656e-15 -3.25593e-15 0 0 1.4393e-15 8.20861e-15 4.1025e-15 1.53935e-14 0 0 -2.27086e-15 1.9428e-14 -4.21502e-15 1.57667e-14 0 0 5.17743e-15 4.56822e-15 1.37473e-14 -1.76187e-14 0 0 1.15528e-14 5.58467e-15 1.39731e-14 -6.23286e-15 0 0 6.22451e-15 1.80957e-14 7.93641e-17 3.1481e-14 0 0 4.77467e-15 2.16893e-14 3.86143e-15 1.86354e-14 0 0 8.11388e-15 1.87368e-14 -2.48966e-15 1.99716e-14 0 0 1.10414e-14 -1.24245e-15 -1.76733e-15 3.96433e-14 0 0 5.44884e-15 5.46189e-15 1.27424e-14 -5.97496e-15 0 0 -6.63392e-16 1.29222e-14 1.51548e-14 -1.10568e-14 0 0 6.58447e-15 6.28011e-15 9.27784e-15 1.20611e-14 0 0 5.05242e-15 3.83774e-15 1.56997e-14 -4.03664e-15 0 0 4.44785e-15 -1.04979e-16 -7.4068e-16 2.44859e-15 0 0 1.95205e-16 1.24092e-15 -6.26559e-16 9.64539e-15 0 0 -4.87048e-15 1.61152e-15 1.29437e-14 7.0361e-15 0 0 6.16379e-15 -2.04314e-15 6.61544e-16 7.52807e-15 0 0 3.30764e-15 -1.557e-15 4.4436e-15 6.05927e-15 0 0 -5.33613e-15 7.00036e-15 6.92508e-15 -2.96598e-15 0 0 -8.47137e-16 5.74999e-15 4.27719e-15 -2.61318e-15 0 0 -4.46347e-15 3.70514e-15 1.02203e-14 -2.23427e-16 0 0 -4.46413e-15 7.65726e-16 7.90489e-15 -4.63782e-15 0 0 6.84262e-15 5.84896e-16 -3.58231e-15 1.72263e-14 0 0 3.2752e-15 5.22808e-15 -1.84186e-15 3.91645e-15 0 0 -1.714e-15 2.87004e-15 2.07572e-15 -6.13098e-15 0 0 5.68689e-15 3.37265e-14 7.74127e-14 1.63355e-14 0 0 9.78756e-14 1.75287e-13 1.88457e-13 1.14651e-13 0 0 -7.9578e-14 -1.54354e-13 -1.07289e-13 -4.62647e-14 0 0 8.17907e-14 9.37831e-14 1.39782e-13 8.87785e-14 0 0 5.28675e-14 2.04169e-14 1.27422e-14 5.48174e-14 0 0 -6.89358e-14 -1.16147e-13 -1.75969e-13 -5.73908e-14 0 0 7.41008e-14 1.83964e-13 8.63669e-14 1.2148e-13 0 0 -3.9618e-14 -5.6402e-14 -2.09911e-14 -4.78413e-14 0 0 1.2631e-14 1.51941e-14 6.98454e-14 -4.05597e-14 0 0 2.34873e-14 2.83427e-15 1.18065e-15 3.73287e-15 0 0 1.59097e-14 7.87177e-15 6.67011e-15 -9.54468e-15 0 0 -7.03237e-16 1.11945e-14 8.96511e-15 7.99141e-15 0 0 -7.97938e-15 -1.76885e-15 3.74323e-14 -9.58744e-15 0 0 1.21771e-16 -5.44344e-16 2.71507e-14 -1.31541e-14 0 0 9.20585e-15 6.82964e-15 -1.09428e-14 2.33198e-14 0 0 8.93216e-15 5.86609e-15 -4.29503e-15 1.39489e-14 0 0 7.56001e-15 -2.84347e-15 1.4601e-14 -3.49154e-16 0 0 7.17894e-15 5.18319e-16 5.46433e-15 7.46838e-15 0 0 3.88325e-15 8.94704e-17 7.81949e-15 1.35317e-14 0 0 -4.07195e-15 5.86863e-15 5.16224e-15 3.23682e-14 0 0 5.303e-16 3.64778e-15 1.0846e-14 2.03424e-14 0 0 9.1138e-15 -6.28677e-15 2.61041e-14 -8.40327e-15 0 0 2.65154e-15 1.04249e-14 1.97162e-16 1.46381e-14 0 0 -8.55576e-16 8.28152e-15 3.68943e-15 1.69771e-14 0 0 4.15618e-15 1.78639e-14 -5.81793e-15 -5.2057e-15 0 0 9.34255e-16 1.86974e-14 -8.58048e-15 -1.07152e-14 0 0 4.15798e-15 2.05103e-14 -6.15202e-15 -8.29279e-15 0 0 4.4416e-15 3.88823e-14 -2.19002e-14 -1.1365e-14 0 0 3.24189e-15 2.48462e-14 -1.28918e-14 6.23244e-15 0 0 8.37329e-15 1.11683e-14 1.85208e-14 9.89959e-15 0 0 2.53447e-15 6.15538e-15 3.74154e-14 -1.73555e-14 0 0 2.29544e-15 9.0906e-16 3.40172e-14 -3.33614e-14 0 0 3.9332e-15 1.55831e-14 3.34166e-15 -1.67984e-14 0 0 8.5649e-15 2.06971e-15 -6.32753e-16 2.4689e-15 0 0 9.24537e-15 2.64722e-15 1.44108e-14 -2.22291e-14 0 0 -1.75963e-15 1.18475e-14 5.74615e-15 -1.97209e-14 0 0 1.1124e-15 6.38198e-15 3.37981e-15 -9.97394e-15 0 0 9.91297e-15 2.86682e-15 4.5478e-15 -1.28661e-14 0 0 1.35335e-14 -7.9463e-15 6.76563e-15 -4.87903e-15 0 0 1.64208e-14 -2.40433e-16 1.0611e-14 5.29681e-15 0 0 1.61771e-14 2.03352e-14 2.85999e-15 -1.17211e-14 0 0 1.87067e-14 2.41386e-14 -7.28159e-15 -2.08981e-14 0 0 7.32478e-15 2.52357e-14 1.78506e-15 -2.18648e-14 0 0 1.81792e-15 4.0273e-14 -1.4399e-14 -1.81794e-14 0 0 2.10305e-14 1.17694e-14 -1.6371e-14 8.03745e-15 0 0 1.30608e-14 7.57338e-16 1.62755e-14 4.90968e-15 0 0 -5.0267e-16 3.1835e-14 -5.90216e-15 1.30904e-14 0 0 4.53418e-15 5.70015e-14 -3.38207e-14 1.79774e-14 0 0 1.43075e-14 3.66318e-14 -4.75507e-15 -4.04176e-15 0 0 1.5278e-14 1.31107e-14 3.70063e-15 5.43789e-15 0 0 7.43368e-15 2.41579e-14 2.82287e-15 4.46061e-15 0 0 1.0763e-14 1.89797e-14 1.37088e-15 -1.51818e-14 0 0 1.70279e-15 3.09397e-14 -9.73021e-15 -1.79885e-14 0 0 5.89599e-16 1.79064e-14 8.78023e-15 -1.54591e-14 0 0 1.35541e-14 1.46336e-14 -8.5504e-16 -6.42798e-15 0 0 2.05902e-14 3.91288e-14 -8.05089e-15 -4.75645e-14 0 0 3.7207e-14 2.76937e-14 3.04723e-15 -8.25363e-14 0 0 4.08986e-14 1.84724e-14 -5.34248e-15 -6.83133e-14 0 0 2.6879e-14 1.07678e-14 -9.12151e-18 -4.59081e-14 0 0 1.02218e-14 -2.66168e-15 -1.66012e-15 -1.02477e-14 0 0 1.19498e-14 -7.91357e-15 9.97683e-15 -1.46868e-14 0 0 2.31887e-14 1.90627e-14 3.29739e-15 1.33401e-14 0 0 1.81378e-14 4.10869e-14 -2.92076e-14 3.09209e-14 0 0 3.65938e-14 4.645e-14 -4.9793e-14 -2.04728e-14 0 0 4.57542e-14 2.97685e-14 -5.85228e-14 2.37166e-14 0 0 1.70618e-14 1.24549e-14 -5.51204e-14 8.52925e-14 0 0 1.90633e-14 1.33937e-15 -1.52032e-14 3.05379e-14 0 0 1.39586e-14 6.75072e-15 4.18625e-15 5.94125e-15 0 0 2.48715e-15 6.75748e-15 3.6001e-15 1.40675e-14 0 0 1.66765e-14 -1.13321e-14 -5.46291e-15 2.29585e-14 0 0 1.61656e-14 -4.29161e-15 -9.51415e-15 -1.42669e-15 0 0 1.57995e-14 -6.49488e-15 2.05198e-14 -3.19471e-14 0 0 1.74482e-14 4.75128e-16 1.31114e-14 -1.79608e-15 0 0 9.97809e-15 -2.73358e-15 2.25692e-14 -4.70241e-15 0 0 -3.75474e-15 1.69526e-14 -1.10912e-15 1.57556e-14 0 0 -4.93803e-15 5.63309e-14 -3.32326e-14 2.31267e-14 0 0 1.78946e-15 2.91716e-14 -5.6841e-16 -5.86324e-15 0 0 -7.45858e-15 8.80352e-15 3.06333e-15 -9.92261e-15 0 0 -1.4284e-15 6.89963e-15 -1.77918e-15 -9.60378e-15 0 0 1.15383e-14 -5.75954e-15 3.65655e-15 -6.13521e-15 0 0 -6.47021e-15 1.2822e-14 1.30831e-14 -1.89389e-14 0 0 7.24201e-15 2.51683e-14 4.92817e-14 -8.52039e-14 0 0 2.31091e-14 2.14961e-14 4.24602e-14 -7.33466e-14 0 0 5.22136e-15 2.09373e-14 -1.18674e-14 5.79455e-15 0 0 1.53744e-14 -4.12203e-15 1.4576e-14 -1.25234e-14 0 0 5.84368e-15 5.32533e-16 4.35667e-14 -3.32127e-14 0 0 2.5027e-15 1.13378e-14 3.80566e-14 -4.20927e-14 0 0 6.60314e-15 1.24813e-14 7.13741e-14 -1.07348e-13 0 0 -3.4514e-15 2.03021e-14 5.36042e-14 -7.87412e-14 0 0 9.76162e-15 -9.30389e-15 3.29944e-14 -2.24426e-14 0 0 6.12584e-16 -7.70137e-15 4.02291e-14 -3.09141e-14 0 0 9.63451e-15 -1.09159e-14 2.20072e-14 -5.93408e-16 0 0 8.09483e-17 1.35251e-15 -1.05502e-14 2.82423e-14 0 0 -3.9017e-15 9.92703e-15 1.66255e-15 -1.64945e-14 0 0 1.73233e-14 -1.04571e-14 3.23124e-14 -5.06967e-14 0 0 -1.34219e-15 1.86914e-14 -1.46122e-14 -1.49927e-14 0 0 -1.16679e-14 1.64153e-14 -3.07605e-14 -1.26307e-15 0 0 -2.77691e-15 -2.4556e-15 -9.88269e-16 1.50656e-14 0 0 3.64059e-15 1.28325e-14 -1.58978e-14 3.5409e-14 0 0 0 2.43138e-14 -3.62868e-14 3.37792e-14 0
				</DataArray>
				<DataArray Name="VitesseY" type="Float32" format="ascii">