<?xml version="1.0"?>
<VTKFile type="PolyData">
	<PolyData>
		<Piece NumberOfPoints="1206" NumberOfPolys="1000">
			<Points>
				<DataArray type="Float32" NumberOfComponents="3" format="ascii">
 0 0 0 0.02 0 0 0.04 0 0 0.06 0 0 0.08 0 0 0.1 0 0 0 0.005 0 0.02 0.005 0 0.04 0.005 0 0.06 0.005 0 0.08 0.005 0 0.1 0.005 0 0 0.01 0 0.02 0.01 0 0.04 0.01 0 0.06 0.01 0 0.08 0.01 0 0.1 0.01 0 0 0.015 0 0.02 0.015 0 0.04 0.015 0 0.06 0.015 0 0.08 0.015 0 0.1 0.015 0 0 0.02 0 0.02 0.02 0 0.04 0.02 0 0.06 0.02 0 0.08 0.02 0 0.1 0.02 0 0 0.025 0 0.02 0.025 0 0.04 0.025 0 0.06 0.025 0 0.08 0.025 0 0.1 0.025 0 0 0.03 0 0.02 0.03 0 0.04 0.03 0 0.06 0.03 0 0.08 0.03 0 0.1 0.03 0 0 0.035 0 0.02 0.035 0 0.04 0.035 0 0.06 0.035 0 0.08 0.035 0 0.1 0.035 0 0 0.04 0 0.02 0.04 0 0.04 0.04 0 0.06 0.04 0 0.08 0.04 0 0.1 0.04 0 0 0.045 0 0.02 0.045 0 0.04 0.045 0 0.06 0.045 0 0.08 0.045 0 0.1 0.045 0 0 0.05 0 0.02 0.05 0 0.04 0.05 0 0.06 0.05 0 0.08 0.05 0 0.1 0.05 0 0 0.055 0 0.02 0.055 0 0.04 0.055 0 0.06 0.055 0 0.08 0.055 0 0.1 0.055 0 0 0.06 0 0.02 0.06 0 0.04 0.06 0 0.06 0.06 0 0.08 0.06 0 0.1 0.06 0 0 0.065 0 0.02 0.065 0 0.04 0.065 0 0.06 0.065 0 0.08 0.065 0 0.1 0.065 0 0 0.07 0 0.02 0.07 0 0.04 0.07 0 0.06 0.07 0 0.08 0.07 0 0.1 0.07 0 0 0.075 0 0.02 0.075 0 0.04 0.075 0 0.06 0.075 0 0.08 0.075 0 0.1 0.075 0 0 0.08 0 0.02 0.08 0 0.04 0.08 0 0.06 0.08 0 0.08 0.08 0 0.1 0.08 0 0 0.085 0 0.02 0.085 0 0.04 0.085 0 0.06 0.085 0 0.08 0.085 0 0.1 0.085 0 0 0.09 0 0.02 0.09 0 0.04 0.09 0 0.06 0.09 0 0.08 0.09 0 0.1 0.09 0 0 0.095 0 0.02 0.095 0 0.04 0.095 0 0.06 0.095 0 0.08 0.095 0 0.1 0.095 0 0 0.1 0 0.02 0.1 0 0.04 0.1 0 0.06 0.1 0 0.08 0.1 0 0.1 0.1 0 0 0.105 0 0.02 0.105 0 0.04 0.105 0 0.06 0.105 0 0.08 0.105 0 0.1 0.105 0 0 0.11 0 0.02 0.11 0 0.04 0.11 0 0.06 0.11 0 0.08 0.11 0 0.1 0.11 0 0 0.115 0 0.02 0.115 0 0.04 0.115 0 0.06 0.115 0 0.08 0.115 0 0.1 0.115 0 0 0.12 0 0.02 0.12 0 0.04 0.12 0 0.06 0.12 0 0.08 0.12 0 0.1 0.12 0 0 0.125 0 0.02 0.125 0 0.04 0.125 0 0.06 0.125 0 0.08 0.125 0 0.1 0.125 0 0 0.13 0 0.02 0.13 0 0.04 0.13 0 0.06 0.13 0 0.08 0.13 0 0.1 0.13 0 0 0.135 0 0.02 0.135 0 0.04 0.135 0 0.06 0.135 0 0.08 0.135 0 0.1 0.135 0 0 0.14 0 0.02 0.14 0 0.04 0.14 0 0.06 0.14 0 0.08 0.14 0 0.1 0.14 0 0 0.145 0 0.02 0.145 0 0.04 0.145 0 0.06 0.145 0 0.08 0.145 0 0.1 0.145 0 0 0.15 0 0.02 0.15 0 0.04 0.15 0 0.06 0.15 0 0.08 0.15 0 0.1 0.15 0 0 0.155 0 0.02 0.155 0 0.04 0.155 0 0.06 0.155 0 0.08 0.155 0 0.1 0.155 0 0 0.16 0 0.02 0.16 0 0.04 0.16 0 0.06 0.16 0 0.08 0.16 0 0.1 0.16 0 0 0.165 0 0.02 0.165 0 0.04 0.165 0 0.06 0.165 0 0.08 0.165 0 0.1 0.165 0 0 0.17 0 0.02 0.17 0 0.04 0.17 0 0.06 0.17 0 0.08 0.17 0 0.1 0.17 0 0 0.175 0 0.02 0.175 0 0.04 0.175 0 0.06 0.175 0 0.08 0.175 0 0.1 0.175 0 0 0.18 0 0.02 0.18 0 0.04 0.18 0 0.06 0.18 0 0.08 0.18 0 0.1 0.18 0 0 0.185 0 0.02 0.185 0 0.04 0.185 0 0.06 0.185 0 0.08 0.185 0 0.1 0.185 0 0 0.19 0 0.02 0.19 0 0.04 0.19 0 0.06 0.19 0 0.08 0.19 0 0.1 0.19 0 0 0.195 0 0.02 0.195 0 0.04 0.195 0 0.06 0.195 0 0.08 0.195 0 0.1 0.195 0 0 0.2 0 0.02 0.2 0 0.04 0.2 0 0.06 0.2 0 0.08 0.2 0 0.1 0.2 0 0 0.205 0 0.02 0.205 0 0.04 0.205 0 0.06 0.205 0 0.08 0.205 0 0.1 0.205 0 0 0.21 0 0.02 0.21 0 0.04 0.21 0 0.06 0.21 0 0.08 0.21 0 0.1 0.21 0 0 0.215 0 0.02 0.215 0 0.04 0.215 0 0.06 0.215 0 0.08 0.215 0 0.1 0.215 0 0 0.22 0 0.02 0.22 0 0.04 0.22 0 0.06 0.22 0 0.08 0.22 0 0.1 0.22 0 0 0.225 0 0.02 0.225 0 0.04 0.225 0 0.06 0.225 0 0.08 0.225 0 0.1 0.225 0 0 0.23 0 0.02 0.23 0 0.04 0.23 0 0.06 0.23 0 0.08 0.23 0 0.1 0.23 0 0 0.235 0 0.02 0.235 0 0.04 0.235 0 0.06 0.235 0 0.08 0.235 0 0.1 0.235 0 0 0.24 0 0.02 0.24 0 0.04 0.24 0 0.06 0.24 0 0.08 0.24 0 0.1 0.24 0 0 0.245 0 0.02 0.245 0 0.04 0.245 0 0.06 0.245 0 0.08 0.245 0 0.1 0.245 0 0 0.25 0 0.02 0.25 0 0.04 0.25 0 0.06 0.25 0 0.08 0.25 0 0.1 0.25 0 0 0.255 0 0.02 0.255 0 0.04 0.255 0 0.06 0.255 0 0.08 0.255 0 0.1 0.255 0 0 0.26 0 0.02 0.26 0 0.04 0.26 0 0.06 0.26 0 0.08 0.26 0 0.1 0.26 0 0 0.265 0 0.02 0.265 0 0.04 0.265 0 0.06 0.265 0 0.08 0.265 0 0.1 0.265 0 0 0.27 0 0.02 0.27 0 0.04 0.27 0 0.06 0.27 0 0.08 0.27 0 0.1 0.27 0 0 0.275 0 0.02 0.275 0 0.04 0.275 0 0.06 0.275 0 0.08 0.275 0 0.1 0.275 0 0 0.28 0 0.02 0.28 0 0.04 0.28 0 0.06 0.28 0 0.08 0.28 0 0.1 0.28 0 0 0.285 0 0.02 0.285 0 0.04 0.285 0 0.06 0.285 0 0.08 0.285 0 0.1 0.285 0 0 0.29 0 0.02 0.29 0 0.04 0.29 0 0.06 0.29 0 0.08 0.29 0 0.1 0.29 0 0 0.295 0 0.02 0.295 0 0.04 0.295 0 0.06 0.295 0 0.08 0.295 0 0.1 0.295 0 0 0.3 0 0.02 0.3 0 0.04 0.3 0 0.06 0.3 0 0.08 0.3 0 0.1 0.3 0 0 0.305 0 0.02 0.305 0 0.04 0.305 0 0.06 0.305 0 0.08 0.305 0 0.1 0.305 0 0 0.31 0 0.02 0.31 0 0.04 0.31 0 0.06 0.31 0 0.08 0.31 0 0.1 0.31 0 0 0.315 0 0.02 0.315 0 0.04 0.315 0 0.06 0.315 0 0.08 0.315 0 0.1 0.315 0 0 0.32 0 0.02 0.32 0 0.04 0.32 0 0.06 0.32 0 0.08 0.32 0 0.1 0.32 0 0 0.325 0 0.02 0.325 0 0.04 0.325 0 0.06 0.325 0 0.08 0.325 0 0.1 0.325 0 0 0.33 0 0.02 0.33 0 0.04 0.33 0 0.06 0.33 0 0.08 0.33 0 0.1 0.33 0 0 0.335 0 0.02 0.335 0 0.04 0.335 0 0.06 0.335 0 0.08 0.335 0 0.1 0.335 0 0 0.34 0 0.02 0.34 0 0.04 0.34 0 0.06 0.34 0 0.08 0.34 0 0.1 0.34 0 0 0.345 0 0.02 0.345 0 0.04 0.345 0 0.06 0.345 0 0.08 0.345 0 0.1 0.345 0 0 0.35 0 0.02 0.35 0 0.04 0.35 0 0.06 0.35 0 0.08 0.35 0 0.1 0.35 0 0 0.355 0 0.02 0.355 0 0.04 0.355 0 0.06 0.355 0 0.08 0.355 0 0.1 0.355 0 0 0.36 0 0.02 0.36 0 0.04 0.36 0 0.06 0.36 0 0.08 0.36 0 0.1 0.36 0 0 0.365001 0 0.02 0.365001 0 0.04 0.365001 0 0.06 0.365001 0 0.08 0.365001 0 0.1 0.365001 0 0 0.370002 0 0.02 0.370002 0 0.04 0.370002 0 0.06 0.370002 0 0.08 0.370002 0 0.1 0.370002 0 0 0.375009 0 0.02 0.375009 0 0.04 0.375009 0 0.06 0.375009 0 0.08 0.375009 0 0.1 0.375009 0 0 0.380028 0 0.02 0.380028 0 0.04 0.380028 0 0.06 0.380028 0 0.08 0.380028 0 0.1 0.380028 0 0 0.385079 0 0.02 0.385079 0 0.04 0.385079 0 0.06 0.385079 0 0.08 0.385079 0 0.1 0.385079 0 0 0.390192 0 0.02 0.390192 0 0.04 0.390192 0 0.06 0.390192 0 0.08 0.390192 0 0.1 0.390192 0 0 0.395408 0 0.02 0.395408 0 0.04 0.395408 0 0.06 0.395408 0 0.08 0.395408 0 0.1 0.395408 0 0 0.400772 0 0.02 0.400772 0 0.04 0.400772 0 0.06 0.400772 0 0.08 0.400772 0 0.1 0.400772 0 0 0.406321 0 0.02 0.406321 0 0.04 0.406321 0 0.06 0.406321 0 0.08 0.406321 0 0.1 0.406321 0 0 0.412089 0 0.02 0.412089 0 0.04 0.412089 0 0.06 0.412089 0 0.08 0.412089 0 0.1 0.412089 0 0 0.418109 0 0.02 0.418109 0 0.04 0.418109 0 0.06 0.418109 0 0.08 0.418109 0 0.1 0.418109 0 0 0.42441 0 0.02 0.42441 0 0.04 0.42441 0 0.06 0.42441 0 0.08 0.42441 0 0.1 0.42441 0 0 0.431029 0 0.02 0.431029 0 0.04 0.431029 0 0.06 0.431029 0 0.08 0.431029 0 0.1 0.431029 0 0 0.438005 0 0.02 0.438005 0 0.04 0.438005 0 0.06 0.438005 0 0.08 0.438005 0 0.1 0.438005 0 0 0.445385 0 0.02 0.445385 0 0.04 0.445385 0 0.06 0.445385 0 0.08 0.445385 0 0.1 0.445385 0 0 0.453224 0 0.02 0.453224 0 0.04 0.453224 0 0.06 0.453224 0 0.08 0.453224 0 0.1 0.453224 0 0 0.46159 0 0.02 0.46159 0 0.04 0.46159 0 0.06 0.46159 0 0.08 0.46159 0 0.1 0.46159 0 0 0.47056 0 0.02 0.47056 0 0.04 0.47056 0 0.06 0.47056 0 0.08 0.47056 0 0.1 0.47056 0 0 0.480227 0 0.02 0.480227 0 0.04 0.480227 0 0.06 0.480227 0 0.08 0.480227 0 0.1 0.480227 0 0 0.490692 0 0.02 0.490692 0 0.04 0.490692 0 0.06 0.490692 0 0.08 0.490692 0 0.1 0.490692 0 0 0.502027 0 0.02 0.502027 0 0.04 0.502027 0 0.06 0.502027 0 0.08 0.502027 0 0.1 0.502027 0 0 0.514131 0 0.02 0.514131 0 0.04 0.514131 0 0.06 0.514131 0 0.08 0.514131 0 0.1 0.514131 0 0 0.526413 0 0.02 0.526413 0 0.04 0.526413 0 0.06 0.526413 0 0.08 0.526413 0 0.1 0.526413 0 0 0.53849 0 0.02 0.53849 0 0.04 0.53849 0 0.06 0.53849 0 0.08 0.53849 0 0.1 0.53849 0 0 0.550395 0 0.02 0.550395 0 0.04 0.550395 0 0.06 0.550395 0 0.08 0.550395 0 0.1 0.550395 0 0 0.562197 0 0.02 0.562197 0 0.04 0.562197 0 0.06 0.562197 0 0.08 0.562197 0 0.1 0.562197 0 0 0.573961 0 0.02 0.573961 0 0.04 0.573961 0 0.06 0.573961 0 0.08 0.573961 0 0.1 0.573961 0 0 0.585726 0 0.02 0.585726 0 0.04 0.585726 0 0.06 0.585726 0 0.08 0.585726 0 0.1 0.585726 0 0 0.588339 0 0.02 0.588339 0 0.04 0.588339 0 0.06 0.588339 0 0.08 0.588339 0 0.1 0.588339 0 0 0.590879 0 0.02 0.590879 0 0.04 0.590879 0 0.06 0.590879 0 0.08 0.590879 0 0.1 0.590879 0 0 0.593372 0 0.02 0.593372 0 0.04 0.593372 0 0.06 0.593372 0 0.08 0.593372 0 0.1 0.593372 0 0 0.595835 0 0.02 0.595835 0 0.04 0.595835 0 0.06 0.595835 0 0.08 0.595835 0 0.1 0.595835 0 0 0.598276 0 0.02 0.598276 0 0.04 0.598276 0 0.06 0.598276 0 0.08 0.598276 0 0.1 0.598276 0 0 0.600701 0 0.02 0.600701 0 0.04 0.600701 0 0.06 0.600701 0 0.08 0.600701 0 0.1 0.600701 0 0 0.603116 0 0.02 0.603116 0 0.04 0.603116 0 0.06 0.603116 0 0.08 0.603116 0 0.1 0.603116 0 0 0.605529 0 0.02 0.605529 0 0.04 0.605529 0 0.06 0.605529 0 0.08 0.605529 0 0.1 0.605529 0 0 0.607943 0 0.02 0.607943 0 0.04 0.607943 0 0.06 0.607943 0 0.08 0.607943 0 0.1 0.607943 0 0 0.610342 0 0.02 0.610342 0 0.04 0.610342 0 0.06 0.610342 0 0.08 0.610342 0 0.1 0.610342 0 0 0.612731 0 0.02 0.612731 0 0.04 0.612731 0 0.06 0.612731 0 0.08 0.612731 0 0.1 0.612731 0 0 0.615115 0 0.02 0.615115 0 0.04 0.615115 0 0.06 0.615115 0 0.08 0.615115 0 0.1 0.615115 0 0 0.617496 0 0.02 0.617496 0 0.04 0.617496 0 0.06 0.617496 0 0.08 0.617496 0 0.1 0.617496 0 0 0.619877 0 0.02 0.619877 0 0.04 0.619877 0 0.06 0.619877 0 0.08 0.619877 0 0.1 0.619877 0 0 0.622258 0 0.02 0.622258 0 0.04 0.622258 0 0.06 0.622258 0 0.08 0.622258 0 0.1 0.622258 0 0 0.624636 0 0.02 0.624636 0 0.04 0.624636 0 0.06 0.624636 0 0.08 0.624636 0 0.1 0.624636 0 0 0.62701 0 0.02 0.62701 0 0.04 0.62701 0 0.06 0.62701 0 0.08 0.62701 0 0.1 0.62701 0 0 0.629382 0 0.02 0.629382 0 0.04 0.629382 0 0.06 0.629382 0 0.08 0.629382 0 0.1 0.629382 0 0 0.631753 0 0.02 0.631753 0 0.04 0.631753 0 0.06 0.631753 0 0.08 0.631753 0 0.1 0.631753 0 0 0.634124 0 0.02 0.634124 0 0.04 0.634124 0 0.06 0.634124 0 0.08 0.634124 0 0.1 0.634124 0 0 0.636493 0 0.02 0.636493 0 0.04 0.636493 0 0.06 0.636493 0 0.08 0.636493 0 0.1 0.636493 0 0 0.638865 0 0.02 0.638865 0 0.04 0.638865 0 0.06 0.638865 0 0.08 0.638865 0 0.1 0.638865 0 0 0.641239 0 0.02 0.641239 0 0.04 0.641239 0 0.06 0.641239 0 0.08 0.641239 0 0.1 0.641239 0
[...]
			<PointData Scalars="VitesseX">
				<DataArray Name="VitesseX" type="Float32" format="ascii">
 0 -3.25953e-15 5.92142e-16 4.85389e-15 6.01253e-15 0 0 -2.20019e-15 -4.07155e-16 5.03053e-15 6.17856e-15 0 0 -6.28109e-16 -1.57714e-15 5.22928e-15 5.68313e-15 0 0 -1.10526e-15 -3.38119e-16 4.1704e-15 4.79878e-15 0 0 -4.10325e-16 -9.72407e-16 5.16243e-15 3.38902e-15 0 0 4.47823e-16 -5.35569e-16 4.52255e-15 3.51423e-15 0 0 -8.56243e-16 1.76125e-15 3.01986e-15 3.51685e-15 0 0 -7.31224e-16 1.08057e-15 2.38453e-15 3.39345e-15 0 0 6.44224e-16 -2.05874e-16 -4.4343e-16 6.23538e-15 0 0 -1.34609e-15 3.49086e-15 -5.20233e-15 9.76343e-15 0 0 -2.77117e-15 5.07821e-15 -6.66321e-15 1.151e-14 0 0 -1.83348e-15 2.28613e-15 -4.14134e-15 9.37052e-15 0 0 -2.93669e-15 3.73211e-15 -4.72347e-15 7.64132e-15 0 0 -2.25586e-15 3.59581e-15 -2.15366e-15 6.29017e-15 0 0 -3.77806e-15 6.05209e-15 -7.32764e-16 6.00087e-15 0 0 -2.73701e-15 4.88275e-15 -1.09766e-15 8.46383e-15 0 0 1.63359e-15 6.65804e-16 1.222e-15 6.81752e-15 0 0 4.27973e-15 -1.38269e-15 3.84174e-15 3.13643e-15 0 0 2.73996e-15 -7.62893e-16 7.16485e-15 -2.44329e-17 0 0 -1.30465e-15 3.66448e-15 7.31732e-15 -1.44453e-15 0 0 2.05245e-15 2.06566e-15 5.72036e-15 2.32918e-15 0 0 2.24034e-15 2.66562e-15 2.45698e-15 8.14695e-15 0 0 -4.91147e-16 2.78191e-15 2.24744e-15 1.18249e-14 0 0 -3.25302e-15 6.09821e-15 2.93133e-15 5.79138e-15 0 0 -4.79023e-15 9.66115e-15 5.14517e-15 -8.08838e-16 0 0 -4.30594e-15 8.50842e-15 1.1947e-14 -1.82141e-15 0 0 -2.58479e-15 9.69188e-15 1.77108e-14 -9.57092e-15 0 0 2.25042e-15 7.74192e-15 1.79737e-14 -1.36882e-14 0 0 4.94462e-15 3.30198e-15 1.08223e-14 -8.80702e-15 0 0 3.99634e-15 -6.50348e-16 1.04862e-14 -6.85868e-15 0 0 -8.52966e-16 2.27992e-15 3.6487e-15 -3.77907e-15 0 0 1.16492e-15 2.47328e-15 -5.79671e-15 -3.16451e-15 0 0 1.19194e-15 -1.69547e-16 -2.89823e-15 -6.22354e-15 0 0 -7.67218e-15 4.34364e-15 7.21307e-16 -6.49072e-15 0 0 -7.67062e-15 5.41647e-15 5.38376e-15 -1.15718e-14 0 0 -3.21205e-15 3.72635e-15 -4.24656e-15 -3.99274e-15 0 0 -5.35349e-15 2.7424e-15 -1.5377e-14 9.86704e-15 0 0 -6.31617e-15 3.98472e-15 -7.41163e-15 2.43887e-15 0 0 -2.12665e-16 -2.42754e-15 8.84558e-15 -1.1882e-14 0 0 2.0333e-15 -1.06434e-14 7.33298e-15 -1.19916e-15 0 0 -5.20639e-15 -3.02851e-15 -1.95351e-15 1.03653e-14 0 0 -4.59992e-15 -3.06372e-15 9.57886e-15 -6.01809e-15 0 0 1.70275e-15 -9.15166e-15 1.60902e-14 -2.78916e-16 0 0 -5.74839e-15 9.46412e-16 1.36658e-14 5.90576e-15 0 0 -3.25182e-15 -2.8371e-15 1.84176e-14 -1.23291e-14 0 0 8.02799e-15 -1.6402e-14 1.73177e-14 -7.56371e-15 0 0 2.73533e-15 -4.90699e-15 3.97057e-15 5.73769e-15 0 0 -3.06581e-15 1.04091e-14 -1.30131e-14 1.68511e-14 0 0 3.47686e-15 1.69376e-15 -9.46508e-15 2.31099e-14 0 0 4.52857e-15 9.05071e-16 -6.50186e-15 2.49081e-14 0 0 -4.96061e-15 1.026e-14 -1.21843e-14 2.26151e-14 0 0 -1.36947e-14 1.84942e-14 -1.46409e-14 2.43464e-14 0 0 -6.22409e-15 1.2721e-14 -1.44683e-14 3.45389e-14 0 0 7.83918e-15 -1.69391e-14 1.65302e-14 1.08609e-14 0 0 -5.32194e-15 -6.91305e-15 2.55042e-14 -1.14704e-15 0 0 -1.56332e-14 4.6653e-15 8.75885e-15 1.06515e-14 0 0 -8.07896e-15 -5.37984e-15 9.42536e-16 1.40631e-14 0 0 6.92355e-16 -2.68951e-15 -8.7995e-15 4.33238e-15 0 0 -8.39939e-15 9.48574e-15 -1.61008e-14 4.42015e-15 0 0 -7.66685e-15 -5.58304e-15 1.99405e-16 8.66651e-15 0 0 -5.04183e-15 -1.74473e-15 -2.17688e-15 9.27736e-15 0 0 -1.61528e-14 2.36362e-14 -1.18583e-14 2.51422e-14 0 0 6.84714e-16 -3.1377e-15 1.92537e-14 5.10354e-14 0 0 5.77663e-15 -1.555e-14 3.54851e-14 4.52374e-14 0 0 -1.13286e-14 1.09815e-14 3.01311e-14 2.1178e-14 0 0 1.2845e-15 6.27093e-15 2.24167e-14 4.49736e-14 0 0 -6.34426e-15 -2.20324e-15 4.28212e-15 5.63709e-14 0 0 8.21656e-15 -2.07706e-14 1.33338e-14 2.05522e-14 0 0 1.82904e-14 -2.51162e-16 7.72252e-15 -2.59854e-15 0 0 -2.14215e-14 2.76683e-14 -2.92839e-14 1.52417e-14 0 0 -1.47716e-14 -1.8169e-14 -2.24983e-15 -6.07163e-16 0 0 -3.77367e-15 -2.04676e-14 4.96159e-15 -3.59307e-14 0 0 4.41669e-15 -1.44277e-14 -2.34366e-17 -5.91017e-14 0 0 9.04756e-15 -2.23184e-14 2.68055e-16 -4.5191e-14 0 0 1.01359e-14 -1.55631e-14 -1.5906e-14 -2.32013e-14 0 0 8.16565e-15 -9.0169e-15 -2.37099e-14 -1.74061e-14 0 0 -4.98554e-15 1.01107e-15 -2.44194e-14 5.93635e-15 0 0 -5.28512e-15 -1.04923e-14 5.10139e-15 -7.57042e-15 0 0 1.52427e-14 -4.84806e-14 2.21591e-14 -6.17173e-15 0 0 2.95208e-14 -3.25949e-14 -4.17344e-15 9.23404e-15 0 0 -6.04973e-15 8.50098e-15 -1.86968e-14 -7.79332e-15 0 0 4.70098e-15 -1.60719e-14 2.3344e-15 -1.41404e-14 0 0 -1.02646e-15 -2.12274e-14 1.29914e-15 -5.86137e-15 0 0 -2.69152e-14 -1.32959e-14 -6.58066e-15 5.01059e-15 0 0 -4.30849e-15 -1.60391e-14 -3.09877e-15 8.15639e-15 0 0 -1.15422e-14 -1.38062e-14 1.01819e-14 -1.18235e-14 0 0 -2.69028e-14 -1.25091e-14 8.95045e-15 -2.50539e-14 0 0 -9.6861e-15 -8.74644e-15 -2.74722e-14 1.40783e-15 0 0 6.35775e-15 -2.20249e-14 -3.85119e-14 2.59892e-14 0 0 -1.82631e-14 -1.19468e-14 -2.32744e-14 1.94736e-14 0 0 -1.76356e-14 -1.89752e-14 -3.99426e-15 -2.07064e-15 0 0 7.39475e-15 -1.13541e-14 -1.37906e-14 -9.32058e-15 0 0 2.57993e-16 8.30089e-15 -2.86232e-14 -5.95251e-15 0 0 1.39923e-15 -5.72124e-15 -2.39592e-14 -1.60555e-14 0 0 -2.1551e-14 -5.11223e-14 -5.31683e-14 -3.77046e-14 0 0 -8.42261e-14 -1.1994e-13 -1.06943e-13 -7.75384e-14 0 0 -9.97721e-14 -1.42268e-13 -1.35828e-13 -9.37923e-14 0 0 -3.99872e-14 -8.08461e-14 -6.8661e-14 -4.89236e-14 0 0 4.97515e-14 8.67996e-14 7.29768e-14 4.9055e-14 0 0 1.56492e-13 2.53938e-13 2.42036e-13 1.51372e-13 0 0 2.47237e-13 3.5872e-13 3.76756e-13 2.3771e-13 0 0 4.12993e-13 7.40346e-13 7.16514e-13 4.501e-13 0 0 4.23101e-13 7.18027e-13 7.15998e-13 4.75538e-13 0 0 4.2951e-13 7.51045e-13 7.2219e-13 5.1054e-13 0 0 4.43252e-13 7.76537e-13 7.69267e-13 4.84543e-13 0 0 4.67836e-13 7.83577e-13 8.41993e-13 4.6925e-13 0 0 4.66494e-13 7.80449e-13 8.11631e-13 4.92542e-13 0 0 3.95454e-13 6.82379e-13 6.65588e-13 4.60981e-13 0 0 2.1574e-13 4.02866e-13 3.99526e-13 3.09615e-13 0 0 1.84921e-14 5.89297e-14 5.90007e-14 1.17927e-13 0 0 -1.40406e-13 -2.20034e-13 -2.19116e-13 -1.15009e-13 0 0 -2.52982e-13 -4.16047e-13 -3.5915e-13 -2.87582e-13 0 0 -2.74907e-13 -5.00188e-13 -4.21482e-13 -2.99074e-13 0 0 -2.48508e-13 -4.49468e-13 -4.63988e-13 -2.50879e-13 0 0 -2.35491e-13 -3.69683e-13 -4.05718e-13 -2.54546e-13 0 0 -2.25464e-13 -3.0728e-13 -3.32654e-13 -2.34884e-13 0 0 -1.9482e-13 -2.22329e-13 -3.13616e-13 -1.41734e-13 0 0 -1.23133e-13 -2.1049e-13 -2.14705e-13 -1.31566e-13 0 0 -9.60823e-14 -1.88063e-13 -1.21579e-13 -1.18717e-13 0 0 -8.23433e-14 -1.13473e-13 -9.52908e-14 -4.28136e-14 0 0 -3.64268e-14 -1.01318e-13 -6.15466e-14 2.5345e-14 0 0 -1.45823e-14 -1.01919e-13 -3.47046e-14 2.73448e-14 0 0 -2.32922e-14 -8.67921e-14 -2.08083e-14 -2.78269e-15 0 0 -3.4735e-14 -1.07357e-13 -2.43711e-14 -3.6162e-14 0 0 -4.47373e-14 -1.43664e-13 -1.22315e-14 -4.48903e-14 0 0 -5.11919e-14 -1.52121e-13 -2.59082e-14 -4.96238e-14 0 0 -7.13344e-14 -1.57837e-13 -1.19892e-13 -6.20109e-14 0 0 -1.10183e-13 -1.53909e-13 -1.57228e-13 -6.96264e-14 0 0 -1.17482e-13 -2.30107e-13 -5.22434e-14 -1.92261e-13 0 0 -1.14485e-13 -2.62205e-13 -8.79632e-14 -2.17115e-13 0 0 -1.4632e-13 -2.08672e-13 -2.25394e-13 -1.08081e-13 0 0 -1.53918e-13 -1.97993e-13 -2.31346e-13 -1.16602e-13 0 0 -1.07167e-13 -2.01241e-13 -1.8161e-13 -1.54901e-13 0 0 -1.06618e-13 -2.16875e-13 -1.48859e-13 -6.90559e-14 0 0 -8.78758e-14 -1.62833e-13 -1.13825e-13 -6.16402e-14 0 0 -6.47298e-14 -1.39088e-13 -7.79816e-14 -1.03683e-13 0 0 -5.30735e-14 -1.0675e-13 -6.60871e-14 -2.11339e-14 0 0 -3.5605e-14 -4.37191e-14 -5.93552e-14 -4.23665e-15 0 0 -3.20413e-14 -1.06983e-14 -4.67159e-14 -7.6821e-15 0 0 -3.73765e-14 1.53598e-15 -3.66968e-14 -3.09521e-15 0 0 -2.47649e-14 -2.05536e-14 5.93186e-16 -1.05177e-14 0 0 -8.10615e-15 -2.98341e-14 8.32993e-15 -1.96965e-15 0 0 -1.56655e-14 -7.87976e-15 -1.46235e-14 -1.83187e-14 0 0 -1.19009e-14 -9.60426e-15 -2.495e-16 -1.65567e-14 0 0 -1.61491e-14 -7.85946e-15 1.36174e-14 2.38675e-15 0 0 -3.19892e-14 8.71616e-15 9.49692e-15 -1.61104e-14 0 0 -2.71628e-14 1.94807e-15 1.38987e-14 -4.49336e-15 0 0 -2.74054e-14 -9.90405e-16 2.30267e-14 5.15427e-15 0 0 -2.14516e-14 5.46265e-16 2.6097e-14 -1.58488e-14 0 0 -1.36205e-14 4.99975e-15 1.51028e-14 -9.43934e-15 0 0 -2.22076e-15 1.57288e-15 2.31748e-14 -1.04255e-14 0 0 -5.38999e-15 1.01965e-14 2.31542e-14 -1.81522e-14 0 0 -2.10005e-14 3.70285e-14 -5.47817e-15 -1.44366e-14 0 0 -1.69807e-14 2.167e-14 6.54372e-15 -3.70032e-14 0 0 -1.19572e-14 8.46156e-15 2.18851e-14 -4.28616e-14 0 0 2.94593e-15 2.00586e-14 -1.42241e-15 -4.8003e-15 0 0 5.285e-15 3.90457e-14 1.0606e-14 -8.54477e-15 0 0 -2.06207e-15 3.33397e-14 5.02328e-14 -3.09425e-14 0 0 -1.18739e-14 1.08033e-14 7.77265e-14 -3.77195e-14 0 0 -2.74173e-14 2.61651e-14 4.0179e-14 1.32215e-14 0 0 -1.82692e-14 5.58698e-14 -8.73666e-15 3.07957e-14 0 0 7.64402e-15 2.55063e-14 3.37142e-14 -2.67661e-15 0 0 3.23687e-14 -2.0281e-14 7.59181e-14 3.82117e-14 0 0 7.09277e-14 -4.70658e-14 7.04413e-14 7.45763e-14 0 0 5.33738e-14 -8.05066e-15 2.48277e-14 7.53842e-14 0 0 2.90632e-14 4.87287e-14 -5.00959e-15 4.98082e-14 0 0 6.03881e-14 3.09414e-14 -1.88447e-14 8.40078e-14 0 0 8.80446e-14 1.87473e-14 -5.68331e-14 1.30865e-13 0 0 8.70303e-14 -1.38372e-15 -3.73874e-14 1.02306e-13 0 0 4.56738e-14 8.39011e-15 -2.07397e-14 1.04065e-13 0 0 2.22709e-14 3.26436e-14 -2.83855e-14 1.37229e-13 0 0 4.91568e-14 -4.69596e-15 4.64786e-14 1.1943e-13 0 0 8.10807e-14 -3.96248e-14 1.28945e-13 4.79273e-14 0 0 4.66289e-14 -1.79184e-15 9.69051e-14 6.35744e-14 0 0 -9.0831e-15 4.87326e-14 6.71431e-14 1.25389e-13 0 0 -5.72468e-15 4.17294e-14 8.2718e-14 7.28125e-14 0 0 9.84032e-15 3.2637e-14 5.72703e-14 1.57066e-14 0 0 -1.13176e-15 5.98874e-14 -1.48283e-14 3.72559e-14 0 0 1.78295e-15 5.6851e-14 -8.77309e-15 2.00223e-14 0 0 1.51024e-14 2.58679e-14 6.05246e-14 -1.44625e-14 0 0 -1.07487e-14 5.76552e-14 1.33083e-14 2.07745e-14 0 0 -8.24883e-15 7.77186e-14 -2.92244e-14 6.7963e-14 0 0 2.30027e-14 6.469e-14 -9.45887e-15 3.9755e-14 0 0 2.62023e-14 6.33018e-14 3.17688e-14 -4.07661e-14 0 0 -6.26264e-15 8.403e-14 7.61416e-14 -9.75918e-14 0 0 -2.61352e-14 5.8319e-14 1.38059e-13 -1.21917e-13 0 0 -3.20122e-14 4.56094e-14 9.72751e-14 -6.1774e-14 0 0 -2.29496e-14 3.60152e-14 3.07092e-14 4.59722e-15 0 0 -3.32158e-14 9.69042e-14 -1.93129e-14 -2.17278e-14 0 0 -1.65048e-14 1.22331e-13 -5.39103e-14 -3.28509e-14 0 0 3.65056e-14 2.66227e-14 -2.7675e-15 2.35926e-14 0 0 2.53202e-14 -5.0824e-15 5.27543e-14 -3.28038e-14 0 0 -1.89891e-14 5.60149e-14 4.72204e-14 -8.18317e-14 0 0 -1.35805e-14 6.6479e-14 4.8515e-14 -4.69324e-14 0 0 2.2334e-14 2.34869e-14 4.32209e-14 1.8108e-14 0 0 2.72658e-14 2.80166e-14 3.70073e-14 4.45188e-14 0 0 2.89994e-14 3.56773e-14 3.24167e-14 6.89285e-14 0 0 1.456e-14 9.38414e-14 8.27964e-15 6.53955e-14 0 0 5.72236e-14 4.52214e-14 1.14258e-13 -2.70763e-14 0 0 8.08486e-14 1.66919e-14 1.51838e-13 -6.11361e-14 0 0 5.77292e-14 6.14671e-14 1.14082e-13 -7.63338e-14 0
				</DataArray>
				<DataArray Name="VitesseY" type="Float32" format="ascii">