<?xml version="1.0"?>
<VTKFile type="PolyData">
	<PolyData>
		<Piece NumberOfPoints="1206" NumberOfPolys="1000">
			<Points>
				<DataArray type="Float32" NumberOfComponents="3" format="ascii">
 0 0 0 0.02 0 0 0.04 0 0 0.06 0 0 0.08 0 0 0.1 0 0 0 0.005 0 0.02 0.005 0 0.04 0.005 0 0.06 0.005 0 0.08 0.005 0 0.1 0.005 0 0 0.01 0 0.02 0.01 0 0.04 0.01 0 0.06 0.01 0 0.08 0.01 0 0.1 0.01 0 0 0.015 0 0.02 0.015 0 0.04 0.015 0 0.06 0.015 0 0.08 0.015 0 0.1 0.015 0 0 0.02 0 0.02 0.02 0 0.04 0.02 0 0.06 0.02 0 0.08 0.02 0 0.1 0.02 0 0 0.025 0 0.02 0.025 0 0.04 0.025 0 0.06 0.025 0 0.08 0.025 0 0.1 0.025 0 0 0.03 0 0.02 0.03 0 0.04 0.03 0 0.06 0.03 0 0.08 0.03 0 0.1 0.03 0 0 0.035 0 0.02 0.035 0 0.04 0.035 0 0.06 0.035 0 0.08 0.035 0 0.1 0.035 0 0 0.04 0 0.02 0.04 0 0.04 0.04 0 0.06 0.04 0 0.08 0.04 0 0.1 0.04 0 0 0.045 0 0.02 0.045 0 0.04 0.045 0 0.06 0.045 0 0.08 0.045 0 0.1 0.045 0 0 0.05 0 0.02 0.05 0 0.04 0.05 0 0.06 0.05 0 0.08 0.05 0 0.1 0.05 0 0 0.055 0 0.02 0.055 0 0.04 0.055 0 0.06 0.055 0 0.08 0.055 0 0.1 0.055 0 0 0.06 0 0.02 0.06 0 0.04 0.06 0 0.06 0.06 0 0.08 0.06 0 0.1 0.06 0 0 0.065 0 0.02 0.065 0 0.04 0.065 0 0.06 0.065 0 0.08 0.065 0 0.1 0.065 0 0 0.07 0 0.02 0.07 0 0.04 0.07 0 0.06 0.07 0 0.08 0.07 0 0.1 0.07 0 0 0.075 0 0.02 0.075 0 0.04 0.075 0 0.06 0.075 0 0.08 0.075 0 0.1 0.075 0 0 0.08 0 0.02 0.08 0 0.04 0.08 0 0.06 0.08 0 0.08 0.08 0 0.1 0.08 0 0 0.085 0 0.02 0.085 0 0.04 0.085 0 0.06 0.085 0 0.08 0.085 0 0.1 0.085 0 0 0.09 0 0.02 0.09 0 0.04 0.09 0 0.06 0.09 0 0.08 0.09 0 0.1 0.09 0 0 0.095 0 0.02 0.095 0 0.04 0.095 0 0.06 0.095 0 0.08 0.095 0 0.1 0.095 0 0 0.1 0 0.02 0.1 0 0.04 0.1 0 0.06 0.1 0 0.08 0.1 0 0.1 0.1 0 0 0.105 0 0.02 0.105 0 0.04 0.105 0 0.06 0.105 0 0.08 0.105 0 0.1 0.105 0 0 0.11 0 0.02 0.11 0 0.04 0.11 0 0.06 0.11 0 0.08 0.11 0 0.1 0.11 0 0 0.115 0 0.02 0.115 0 0.04 0.115 0 0.06 0.115 0 0.08 0.115 0 0.1 0.115 0 0 0.12 0 0.02 0.12 0 0.04 0.12 0 0.06 0.12 0 0.08 0.12 0 0.1 0.12 0 0 0.125 0 0.02 0.125 0 0.04 0.125 0 0.06 0.125 0 0.08 0.125 0 0.1 0.125 0 0 0.13 0 0.02 0.13 0 0.04 0.13 0 0.06 0.13 0 0.08 0.13 0 0.1 0.13 0 0 0.135 0 0.02 0.135 0 0.04 0.135 0 0.06 0.135 0 0.08 0.135 0 0.1 0.135 0 0 0.14 0 0.02 0.14 0 0.04 0.14 0 0.06 0.14 0 0.08 0.14 0 0.1 0.14 0 0 0.145 0 0.02 0.145 0 0.04 0.145 0 0.06 0.145 0 0.08 0.145 0 0.1 0.145 0 0 0.15 0 0.02 0.15 0 0.04 0.15 0 0.06 0.15 0 0.08 0.15 0 0.1 0.15 0 0 0.155 0 0.02 0.155 0 0.04 0.155 0 0.06 0.155 0 0.08 0.155 0 0.1 0.155 0 0 0.16 0 0.02 0.16 0 0.04 0.16 0 0.06 0.16 0 0.08 0.16 0 0.1 0.16 0 0 0.165 0 0.02 0.165 0 0.04 0.165 0 0.06 0.165 0 0.08 0.165 0 0.1 0.165 0 0 0.17 0 0.02 0.17 0 0.04 0.17 0 0.06 0.17 0 0.08 0.17 0 0.1 0.17 0 0 0.175 0 0.02 0.175 0 0.04 0.175 0 0.06 0.175 0 0.08 0.175 0 0.1 0.175 0 0 0.18 0 0.02 0.18 0 0.04 0.18 0 0.06 0.18 0 0.08 0.18 0 0.1 0.18 0 0 0.185 0 0.02 0.185 0 0.04 0.185 0 0.06 0.185 0 0.08 0.185 0 0.1 0.185 0 0 0.19 0 0.02 0.19 0 0.04 0.19 0 0.06 0.19 0 0.08 0.19 0 0.1 0.19 0 0 0.195 0 0.02 0.195 0 0.04 0.195 0 0.06 0.195 0 0.08 0.195 0 0.1 0.195 0 0 0.2 0 0.02 0.2 0 0.04 0.2 0 0.06 0.2 0 0.08 0.2 0 0.1 0.2 0 0 0.205 0 0.02 0.205 0 0.04 0.205 0 0.06 0.205 0 0.08 0.205 0 0.1 0.205 0 0 0.21 0 0.02 0.21 0 0.04 0.21 0 0.06 0.21 0 0.08 0.21 0 0.1 0.21 0 0 0.215 0 0.02 0.215 0 0.04 0.215 0 0.06 0.215 0 0.08 0.215 0 0.1 0.215 0 0 0.22 0 0.02 0.22 0 0.04 0.22 0 0.06 0.22 0 0.08 0.22 0 0.1 0.22 0 0 0.225 0 0.02 0.225 0 0.04 0.225 0 0.06 0.225 0 0.08 0.225 0 0.1 0.225 0 0 0.23 0 0.02 0.23 0 0.04 0.23 0 0.06 0.23 0 0.08 0.23 0 0.1 0.23 0 0 0.235 0 0.02 0.235 0 0.04 0.235 0 0.06 0.235 0 0.08 0.235 0 0.1 0.235 0 0 0.24 0 0.02 0.24 0 0.04 0.24 0 0.06 0.24 0 0.08 0.24 0 0.1 0.24 0 0 0.245 0 0.02 0.245 0 0.04 0.245 0 0.06 0.245 0 0.08 0.245 0 0.1 0.245 0 0 0.25 0 0.02 0.25 0 0.04 0.25 0 0.06 0.25 0 0.08 0.25 0 0.1 0.25 0 0 0.255 0 0.02 0.255 0 0.04 0.255 0 0.06 0.255 0 0.08 0.255 0 0.1 0.255 0 0 0.26 0 0.02 0.26 0 0.04 0.26 0 0.06 0.26 0 0.08 0.26 0 0.1 0.26 0 0 0.265 0 0.02 0.265 0 0.04 0.265 0 0.06 0.265 0 0.08 0.265 0 0.1 0.265 0 0 0.27 0 0.02 0.27 0 0.04 0.27 0 0.06 0.27 0 0.08 0.27 0 0.1 0.27 0 0 0.275 0 0.02 0.275 0 0.04 0.275 0 0.06 0.275 0 0.08 0.275 0 0.1 0.275 0 0 0.28 0 0.02 0.28 0 0.04 0.28 0 0.06 0.28 0 0.08 0.28 0 0.1 0.28 0 0 0.285 0 0.02 0.285 0 0.04 0.285 0 0.06 0.285 0 0.08 0.285 0 0.1 0.285 0 0 0.29 0 0.02 0.29 0 0.04 0.29 0 0.06 0.29 0 0.08 0.29 0 0.1 0.29 0 0 0.295 0 0.02 0.295 0 0.04 0.295 0 0.06 0.295 0 0.08 0.295 0 0.1 0.295 0 0 0.3 0 0.02 0.3 0 0.04 0.3 0 0.06 0.3 0 0.08 0.3 0 0.1 0.3 0 0 0.305 0 0.02 0.305 0 0.04 0.305 0 0.06 0.305 0 0.08 0.305 0 0.1 0.305 0 0 0.31 0 0.02 0.31 0 0.04 0.31 0 0.06 0.31 0 0.08 0.31 0 0.1 0.31 0 0 0.315 0 0.02 0.315 0 0.04 0.315 0 0.06 0.315 0 0.08 0.315 0 0.1 0.315 0 0 0.32 0 0.02 0.32 0 0.04 0.32 0 0.06 0.32 0 0.08 0.32 0 0.1 0.32 0 0 0.325 0 0.02 0.325 0 0.04 0.325 0 0.06 0.325 0 0.08 0.325 0 0.1 0.325 0 0 0.33 0 0.02 0.33 0 0.04 0.33 0 0.06 0.33 0 0.08 0.33 0 0.1 0.33 0 0 0.335 0 0.02 0.335 0 0.04 0.335 0 0.06 0.335 0 0.08 0.335 0 0.1 0.335 0 0 0.34 0 0.02 0.34 0 0.04 0.34 0 0.06 0.34 0 0.08 0.34 0 0.1 0.34 0 0 0.345 0 0.02 0.345 0 0.04 0.345 0 0.06 0.345 0 0.08 0.345 0 0.1 0.345 0 0 0.35 0 0.02 0.35 0 0.04 0.35 0 0.06 0.35 0 0.08 0.35 0 0.1 0.35 0 0 0.355 0 0.02 0.355 0 0.04 0.355 0 0.06 0.355 0 0.08 0.355 0 0.1 0.355 0 0 0.36 0 0.02 0.36 0 0.04 0.36 0 0.06 0.36 0 0.08 0.36 0 0.1 0.36 0 0 0.365 0 0.02 0.365 0 0.04 0.365 0 0.06 0.365 0 0.08 0.365 0 0.1 0.365 0 0 0.37 0 0.02 0.37 0 0.04 0.37 0 0.06 0.37 0 0.08 0.37 0 0.1 0.37 0 0 0.375 0 0.02 0.375 0 0.04 0.375 0 0.06 0.375 0 0.08 0.375 0 0.1 0.375 0 0 0.38 0 0.02 0.38 0 0.04 0.38 0 0.06 0.38 0 0.08 0.38 0 0.1 0.38 0 0 0.385 0 0.02 0.385 0 0.04 0.385 0 0.06 0.385 0 0.08 0.385 0 0.1 0.385 0 0 0.39 0 0.02 0.39 0 0.04 0.39 0 0.06 0.39 0 0.08 0.39 0 0.1 0.39 0 0 0.395 0 0.02 0.395 0 0.04 0.395 0 0.06 0.395 0 0.08 0.395 0 0.1 0.395 0 0 0.4 0 0.02 0.4 0 0.04 0.4 0 0.06 0.4 0 0.08 0.4 0 0.1 0.4 0 0 0.405 0 0.02 0.405 0 0.04 0.405 0 0.06 0.405 0 0.08 0.405 0 0.1 0.405 0 0 0.41 0 0.02 0.41 0 0.04 0.41 0 0.06 0.41 0 0.08 0.41 0 0.1 0.41 0 0 0.415 0 0.02 0.415 0 0.04 0.415 0 0.06 0.415 0 0.08 0.415 0 0.1 0.415 0 0 0.42 0 0.02 0.42 0 0.04 0.42 0 0.06 0.42 0 0.08 0.42 0 0.1 0.42 0 0 0.425 0 0.02 0.425 0 0.04 0.425 0 0.06 0.425 0 0.08 0.425 0 0.1 0.425 0 0 0.43 0 0.02 0.43 0 0.04 0.43 0 0.06 0.43 0 0.08 0.43 0 0.1 0.43 0 0 0.435 0 0.02 0.435 0 0.04 0.435 0 0.06 0.435 0 0.08 0.435 0 0.1 0.435 0 0 0.44 0 0.02 0.44 0 0.04 0.44 0 0.06 0.44 0 0.08 0.44 0 0.1 0.44 0 0 0.445 0 0.02 0.445 0 0.04 0.445 0 0.06 0.445 0 0.08 0.445 0 0.1 0.445 0 0 0.450002 0 0.02 0.450002 0 0.04 0.450002 0 0.06 0.450002 0 0.08 0.450002 0 0.1 0.450002 0 0 0.455016 0 0.02 0.455016 0 0.04 0.455016 0 0.06 0.455016 0 0.08 0.455016 0 0.1 0.455016 0 0 0.460081 0 0.02 0.460081 0 0.04 0.460081 0 0.06 0.460081 0 0.08 0.460081 0 0.1 0.460081 0 0 0.465309 0 0.02 0.465309 0 0.04 0.465309 0 0.06 0.465309 0 0.08 0.465309 0 0.1 0.465309 0 0 0.470898 0 0.02 0.470898 0 0.04 0.470898 0 0.06 0.470898 0 0.08 0.470898 0 0.1 0.470898 0 0 0.47711 0 0.02 0.47711 0 0.04 0.47711 0 0.06 0.47711 0 0.08 0.47711 0 0.1 0.47711 0 0 0.484257 0 0.02 0.484257 0 0.04 0.484257 0 0.06 0.484257 0 0.08 0.484257 0 0.1 0.484257 0 0 0.492764 0 0.02 0.492764 0 0.04 0.492764 0 0.06 0.492764 0 0.08 0.492764 0 0.1 0.492764 0 0 0.503226 0 0.02 0.503226 0 0.04 0.503226 0 0.06 0.503226 0 0.08 0.503226 0 0.1 0.503226 0 0 0.515733 0 0.02 0.515733 0 0.04 0.515733 0 0.06 0.515733 0 0.08 0.515733 0 0.1 0.515733 0 0 0.528078 0 0.02 0.528078 0 0.04 0.528078 0 0.06 0.528078 0 0.08 0.528078 0 0.1 0.528078 0 0 0.530744 0 0.02 0.530744 0 0.04 0.530744 0 0.06 0.530744 0 0.08 0.530744 0 0.1 0.530744 0 0 0.533344 0 0.02 0.533344 0 0.04 0.533344 0 0.06 0.533344 0 0.08 0.533344 0 0.1 0.533344 0 0 0.535905 0 0.02 0.535905 0 0.04 0.535905 0 0.06 0.535905 0 0.08 0.535905 0 0.1 0.535905 0 0 0.538453 0 0.02 0.538453 0 0.04 0.538453 0 0.06 0.538453 0 0.08 0.538453 0 0.1 0.538453 0 0 0.540935 0 0.02 0.540935 0 0.04 0.540935 0 0.06 0.540935 0 0.08 0.540935 0 0.1 0.540935 0 0 0.543399 0 0.02 0.543399 0 0.04 0.543399 0 0.06 0.543399 0 0.08 0.543399 0 0.1 0.543399 0 0 0.545908 0 0.02 0.545908 0 0.04 0.545908 0 0.06 0.545908 0 0.08 0.545908 0 0.1 0.545908 0 0 0.548564 0 0.02 0.548564 0 0.04 0.548564 0 0.06 0.548564 0 0.08 0.548564 0 0.1 0.548564 0 0 0.551337 0 0.02 0.551337 0 0.04 0.551337 0 0.06 0.551337 0 0.08 0.551337 0 0.1 0.551337 0 0 0.554426 0 0.02 0.554426 0 0.04 0.554426 0 0.06 0.554426 0 0.08 0.554426 0 0.1 0.554426 0 0 0.557831 0 0.02 0.557831 0 0.04 0.557831 0 0.06 0.557831 0 0.08 0.557831 0 0.1 0.557831 0 0 0.561599 0 0.02 0.561599 0 0.04 0.561599 0 0.06 0.561599 0 0.08 0.561599 0 0.1 0.561599 0 0 0.565782 0 0.02 0.565782 0 0.04 0.565782 0 0.06 0.565782 0 0.08 0.565782 0 0.1 0.565782 0 0 0.570317 0 0.02 0.570317 0 0.04 0.570317 0 0.06 0.570317 0 0.08 0.570317 0 0.1 0.570317 0 0 0.575105 0 0.02 0.575105 0 0.04 0.575105 0 0.06 0.575105 0 0.08 0.575105 0 0.1 0.575105 0 0 0.58003 0 0.02 0.58003 0 0.04 0.58003 0 0.06 0.58003 0 0.08 0.58003 0 0.1 0.58003 0 0 0.585008 0 0.02 0.585008 0 0.04 0.585008 0 0.06 0.585008 0 0.08 0.585008 0 0.1 0.585008 0 0 0.590002 0 0.02 0.590002 0 0.04 0.590002 0 0.06 0.590002 0 0.08 0.590002 0 0.1 0.590002 0 0 0.595 0 0.02 0.595 0 0.04 0.595 0 0.06 0.595 0 0.08 0.595 0 0.1 0.595 0 0 0.6 0 0.02 0.6 0 0.04 0.6 0 0.06 0.6 0 0.08 0.6 0 0.1 0.6 0 0 0.605 0 0.02 0.605 0 0.04 0.605 0 0.06 0.605 0 0.08 0.605 0 0.1 0.605 0 0 0.61 0 0.02 0.61 0 0.04 0.61 0 0.06 0.61 0 0.08 0.61 0 0.1 0.61 0 0 0.615 0 0.02 0.615 0 0.04 0.615 0 0.06 0.615 0 0.08 0.615 0 0.1 0.615 0 0 0.62 0 0.02 0.62 0 0.04 0.62 0 0.06 0.62 0 0.08 0.62 0 0.1 0.62 0 0 0.625 0 0.02 0.625 0 0.04 0.625 0 0.06 0.625 0 0.08 0.625 0 0.1 0.625 0 0 0.63 0 0.02 0.63 0 0.04 0.63 0 0.06 0.63 0 0.08 0.63 0 0.1 0.63 0 0 0.635 0 0.02 0.635 0 0.04 0.635 0 0.06 0.635 0 0.08 0.635 0 0.1 0.635 0 0 0.64 0 0.02 0.64 0 0.04 0.64 0 0.06 0.64 0 0.08 0.64 0 0.1 0.64 0 0 0.645 0 0.02 0.645 0 0.04 0.645 0 0.06 0.645 0 0.08 0.645 0 0.1 0.645 0 0 0.65 0 0.02 0.65 0 0.
[...]
			<PointData Scalars="VitesseX">
				<DataArray Name="VitesseX" type="Float32" format="ascii">
 0 2.65477e-16 -8.6994e-16 2.07768e-15 8.41769e-17 0 0 2.00142e-16 -5.82797e-16 1.63207e-15 1.60065e-16 0 0 8.23224e-16 -9.49408e-16 1.9309e-15 -9.8041e-16 0 0 -8.40123e-17 6.4766e-17 1.73523e-15 -1.73969e-15 0 0 -1.96406e-15 1.30778e-15 1.39371e-15 -1.38923e-15 0 0 -2.8178e-15 1.60322e-15 1.27932e-15 -3.50933e-16 0 0 -2.14985e-15 1.15044e-15 4.02785e-16 2.03163e-15 0 0 1.37589e-15 -2.49415e-15 1.95619e-15 2.81108e-15 0 0 1.85617e-15 -1.94431e-15 2.17448e-15 1.91699e-15 0 0 1.0464e-15 3.78652e-17 1.08608e-15 1.59956e-15 0 0 4.12083e-16 6.93708e-16 -1.23803e-16 2.1049e-15 0 0 1.51423e-15 -2.29966e-15 1.85072e-15 8.90952e-16 0 0 1.50889e-15 -2.04778e-15 1.33622e-15 -3.51901e-16 0 0 -3.11859e-15 4.20614e-15 -1.29892e-15 -1.80499e-16 0 0 -1.21774e-15 -2.412e-16 4.54448e-15 -1.13808e-15 0 0 1.2852e-15 -2.97451e-15 2.85357e-15 2.13846e-15 0 0 -1.27554e-15 3.58877e-15 -4.17774e-15 6.17937e-15 0 0 -3.8147e-16 3.83407e-15 -1.83243e-15 6.31278e-15 0 0 -8.07329e-16 3.71073e-15 -1.82149e-15 7.66113e-15 0 0 -1.80445e-15 4.1405e-15 -3.22853e-15 7.0198e-15 0 0 2.02184e-15 3.65055e-17 1.82253e-17 2.14871e-15 0 0 1.61329e-15 1.18782e-15 7.35071e-16 2.55052e-15 0 0 -1.00398e-16 -2.29909e-15 5.47973e-15 1.51931e-15 0 0 -2.63797e-15 2.15241e-16 3.5398e-15 6.11978e-16 0 0 -3.42784e-15 6.80847e-15 -5.16059e-15 5.27342e-15 0 0 -1.82527e-15 5.49658e-15 -6.98465e-15 6.78713e-15 0 0 -6.41806e-15 8.0645e-15 1.17219e-15 -4.19925e-16 0 0 -2.37045e-15 4.4245e-15 1.06829e-14 -9.7362e-15 0 0 2.89717e-15 1.28779e-15 8.40949e-15 -1.26101e-14 0 0 6.49059e-16 1.42016e-14 -8.21625e-15 -6.08417e-15 0 0 5.87237e-15 6.83556e-15 -5.14138e-15 -4.69903e-15 0 0 5.07756e-15 -4.60679e-15 4.89267e-15 -3.9397e-16 0 0 -1.77038e-15 2.0008e-15 2.19511e-15 5.67451e-15 0 0 -1.56951e-15 -9.29933e-16 1.08498e-14 -2.83848e-15 0 0 -1.40459e-16 5.63002e-15 5.07013e-15 -6.23397e-15 0 0 4.20464e-15 1.26031e-14 -1.32152e-14 -2.16386e-15 0 0 5.26574e-15 1.02892e-14 -1.92424e-14 7.23668e-15 0 0 5.29337e-15 6.99086e-16 -8.57324e-15 9.42238e-15 0 0 1.39775e-15 -1.99112e-15 3.57577e-15 4.35608e-15 0 0 -2.73393e-15 4.53267e-15 6.74332e-15 6.78723e-15 0 0 4.79912e-16 2.64465e-15 3.92828e-15 1.61776e-14 0 0 -2.56851e-15 1.45819e-15 2.98407e-16 1.91489e-14 0 0 -5.39945e-16 -1.47253e-15 2.86451e-15 1.52231e-14 0 0 -1.62502e-16 3.0115e-15 6.46681e-15 8.61236e-15 0 0 -8.8713e-16 9.31962e-15 -1.59093e-15 1.26938e-14 0 0 2.62022e-15 -1.06589e-15 4.38875e-15 1.2603e-14 0 0 -2.28241e-15 1.9616e-15 5.04064e-15 9.18639e-15 0 0 -3.31471e-15 5.07591e-15 5.07378e-15 1.34688e-14 0 0 -3.17277e-15 5.41682e-15 5.45885e-15 1.6021e-14 0 0 3.49981e-15 8.33847e-15 -9.69765e-15 2.40592e-14 0 0 6.47667e-15 9.19536e-16 -5.06775e-15 1.90781e-14 0 0 -3.86523e-15 1.14969e-14 -5.8882e-15 4.57744e-15 0 0 4.48124e-15 5.97543e-16 1.07412e-14 -1.69092e-14 0 0 7.47671e-15 -2.30325e-15 1.19796e-14 -1.40974e-14 0 0 5.83788e-16 1.43667e-14 -1.8511e-14 6.28578e-15 0 0 1.81182e-15 1.45735e-14 -1.97491e-14 7.91142e-17 0 0 1.06691e-15 1.17097e-14 -9.49792e-16 -6.30387e-15 0 0 3.22268e-15 3.3532e-15 9.93164e-15 -1.17792e-14 0 0 -2.51361e-16 1.41679e-14 -6.20363e-15 -8.17462e-15 0 0 2.38281e-15 9.89596e-15 1.8457e-16 -7.90861e-16 0 0 3.34966e-15 2.97515e-15 1.15007e-14 -4.47476e-15 0 0 7.2714e-15 7.49482e-15 5.56062e-16 -1.84148e-15 0 0 7.92286e-15 7.7321e-15 -6.62799e-15 7.80623e-16 0 0 -2.79769e-15 7.75735e-15 -8.11324e-15 4.02832e-15 0 0 -7.0665e-16 2.38844e-15 -8.60876e-15 1.649e-14 0 0 -1.2853e-15 3.54174e-15 -1.45127e-15 1.17312e-14 0 0 -1.40303e-15 1.08485e-14 1.54625e-15 -5.89185e-15 0 0 9.24538e-15 6.65962e-15 2.06278e-15 -1.05409e-14 0 0 9.5237e-15 1.53267e-14 -1.36695e-14 8.72258e-15 0 0 6.07779e-15 2.21795e-14 -1.84947e-14 8.29573e-15 0 0 8.66033e-15 -2.20298e-15 5.52563e-15 -1.2916e-14 0 0 2.97862e-15 3.80277e-15 -7.11727e-16 -1.17398e-14 0 0 9.42306e-16 1.08731e-14 -1.36385e-14 4.94995e-16 0 0 -1.49368e-15 1.67885e-15 -4.71425e-15 4.62663e-15 0 0 1.55465e-14 -1.42148e-14 3.8362e-15 3.44914e-15 0 0 1.9569e-14 -1.32513e-14 -8.74777e-16 4.68443e-15 0 0 3.22168e-15 1.0324e-16 -1.22712e-15 6.23301e-16 0 0 8.15698e-15 -4.24893e-16 -2.95448e-16 8.94623e-16 0 0 1.27711e-14 1.23247e-14 -6.48134e-15 -5.37455e-15 0 0 1.37338e-14 2.34043e-14 -7.56225e-15 -1.67908e-15 0 0 1.33553e-14 1.34117e-14 5.69662e-15 7.35404e-15 0 0 7.78495e-15 2.09799e-14 9.71678e-15 9.44196e-15 0 0 1.79594e-14 7.82827e-15 3.34544e-14 1.4165e-14 0 0 1.39377e-14 9.25221e-15 2.6063e-14 3.10842e-14 0 0 -4.03607e-16 4.03995e-14 -9.26639e-15 2.93778e-14 0 0 5.50915e-15 8.76177e-15 1.39379e-14 9.84727e-15 0 0 3.84799e-15 -4.21786e-15 3.07348e-14 1.25035e-14 0 0 -7.01632e-15 2.01238e-14 1.97032e-15 2.77096e-14 0 0 6.30855e-15 6.73298e-15 2.39805e-15 2.51885e-14 0 0 4.77149e-15 7.15537e-15 5.33204e-15 1.2389e-14 0 0 4.46984e-15 2.76487e-15 5.62013e-15 2.40673e-15 0 0 1.32073e-14 -8.50241e-15 1.11347e-14 -1.08379e-14 0 0 -1.1579e-14 8.91333e-15 3.13591e-15 -7.06185e-15 0 0 2.39218e-16 4.86371e-15 5.29824e-15 2.68905e-16 0 0 6.47792e-15 3.17572e-15 2.81865e-16 7.53904e-15 0 0 -6.92831e-15 6.88693e-15 2.66032e-15 2.20463e-15 0 0 -6.02474e-15 6.83972e-16 1.94436e-15 -2.99733e-15 0 0 7.34306e-15 2.6861e-15 -5.39261e-15 8.90276e-15 0 0 5.41796e-15 1.52847e-14 -1.05612e-14 2.52057e-14 0 0 -1.0513e-14 -1.90089e-14 -1.53889e-14 2.27395e-15 0 0 -2.93717e-14 -7.41364e-14 -5.23423e-14 -2.25396e-14 0 0 -1.80553e-13 -2.61908e-13 -2.73128e-13 -1.57074e-13 0 0 -2.56228e-13 -4.54197e-13 -4.19716e-13 -2.50538e-13 0 0 -4.15949e-13 -6.78447e-13 -6.72108e-13 -4.23988e-13 0 0 -6.42827e-13 -9.96712e-13 -9.89269e-13 -6.05131e-13 0 0 -8.63117e-13 -1.36865e-12 -1.29941e-12 -8.14717e-13 0 0 -1.17617e-12 -1.90442e-12 -1.79538e-12 -1.12968e-12 0 0 -1.56276e-12 -2.59807e-12 -2.49688e-12 -1.469e-12 0 0 -2.22509e-12 -3.57897e-12 -3.60497e-12 -2.01445e-12 0 0 -2.56787e-12 -4.07157e-12 -4.14838e-12 -2.33244e-12 0 0 -2.58466e-12 -4.19853e-12 -4.1719e-12 -2.36222e-12 0 0 -1.65271e-12 -2.64699e-12 -2.61229e-12 -1.4736e-12 0 0 -4.28441e-13 -6.85885e-13 -6.54564e-13 -4.11803e-13 0 0 -1.80317e-13 -2.71433e-13 -2.63815e-13 -1.81896e-13 0 0 -3.31018e-14 -2.90591e-14 -4.92062e-14 -1.80316e-14 0 0 6.25522e-15 -5.98155e-15 -1.45247e-14 -1.82204e-15 0 0 -7.46753e-16 1.91237e-14 -1.86883e-15 -9.85259e-15 0 0 3.36176e-15 1.58252e-14 -1.40669e-14 -5.31343e-15 0 0 6.95303e-15 8.07756e-15 -6.87029e-15 8.96156e-15 0 0 4.4674e-15 1.16405e-14 -3.37235e-15 1.91251e-14 0 0 4.48519e-15 1.16304e-14 9.98011e-15 -7.4617e-15 0 0 -1.74226e-15 3.02015e-14 -1.2542e-14 -3.25088e-15 0 0 -2.18045e-15 2.02846e-14 -7.15447e-15 1.14033e-14 0 0 6.4365e-15 -8.83787e-15 4.17582e-14 -1.16134e-14 0 0 4.44058e-15 -1.00022e-14 4.40617e-14 -2.18331e-14 0 0 1.17289e-15 1.17792e-14 -2.47401e-15 1.71326e-14 0 0 1.27262e-14 1.10452e-15 -1.06507e-14 3.71018e-14 0 0 1.89447e-14 -2.09249e-14 5.55738e-15 4.123e-14 0 0 2.08591e-14 -1.82665e-15 6.23332e-15 3.89303e-14 0 0 2.26779e-14 1.36705e-14 2.19563e-14 -1.16203e-14 0 0 2.26741e-14 3.66919e-14 1.13791e-14 -3.06247e-14 0 0 1.04594e-14 4.87722e-14 8.56825e-15 -3.76151e-14 0 0 4.31756e-15 2.81448e-14 -2.01882e-15 -1.42196e-14 0 0 5.44224e-15 1.96195e-14 -7.24612e-15 -1.86929e-15 0 0 1.79838e-14 1.35615e-14 4.39737e-15 -1.70234e-14 0 0 2.57908e-14 1.75412e-14 -9.81893e-15 -5.16961e-15 0 0 9.79309e-15 1.09533e-14 1.57378e-14 -1.65844e-14 0 0 7.69894e-15 2.40477e-14 1.7113e-14 7.09347e-15 0 0 2.66073e-14 2.43434e-14 -7.26028e-15 5.54151e-14 0 0 1.58836e-14 2.69486e-14 -5.95858e-15 4.7725e-14 0 0 1.07275e-14 3.84037e-14 3.3596e-15 1.56921e-14 0 0 2.67259e-14 3.78047e-15 1.48623e-14 2.7017e-14 0 0 2.41478e-14 -1.08095e-15 8.94343e-15 1.29493e-14 0 0 1.08468e-14 3.4551e-14 5.77065e-15 -3.45069e-14 0 0 -8.11448e-15 6.3004e-14 3.11758e-14 -3.40075e-14 0 0 5.09422e-15 6.92398e-14 2.22472e-14 5.66647e-15 0 0 2.65647e-14 5.48896e-14 -2.8407e-14 2.95656e-14 0 0 3.95474e-15 6.31724e-14 -3.38517e-14 1.64027e-14 0 0 -6.6007e-16 4.16569e-14 9.05283e-15 1.73595e-15 0 0 2.51295e-14 2.48008e-15 1.11812e-14 -8.28001e-15 0 0 1.16121e-14 1.22228e-14 -6.0596e-15 -6.75202e-15 0 0 7.98515e-15 2.95963e-14 -1.1622e-14 -8.02376e-16 0 0 1.93719e-14 5.02868e-14 -2.63905e-14 9.11999e-15 0 0 2.1238e-14 3.01155e-14 -3.44971e-15 2.59829e-15 0 0 2.87726e-14 3.49814e-14 -7.23815e-15 -1.55493e-14 0 0 2.61252e-14 4.22536e-14 1.28634e-14 -2.59182e-14 0 0 1.70795e-14 2.09336e-14 3.47874e-14 -4.02674e-15 0 0 1.11995e-14 1.5598e-14 2.41917e-14 1.93958e-14 0 0 1.66336e-14 1.54945e-14 2.77717e-14 2.13398e-14 0 0 1.41788e-14 4.02264e-14 1.55907e-14 3.44677e-14 0 0 9.75481e-15 5.2258e-14 1.17784e-14 4.58789e-14 0 0 4.14145e-14 -1.11615e-14 4.66759e-14 2.69935e-15 0 0 4.07021e-14 -2.16388e-14 3.6793e-14 -5.90416e-14 0 0 2.63236e-14 3.15133e-15 1.67871e-14 -2.07223e-14 0 0 9.82251e-15 4.85658e-15 3.44555e-14 5.02743e-14 0 0 2.57155e-14 -3.07917e-15 7.01813e-14 8.40654e-15 0 0 4.24511e-14 1.53566e-14 2.56485e-14 -1.06771e-14 0 0 4.16987e-14 2.13686e-14 -1.86054e-14 1.12579e-14 0 0 5.52508e-14 -2.27707e-14 9.85316e-15 5.59105e-15 0 0 4.20971e-14 1.04072e-15 -6.41645e-15 -1.4783e-14 0 0 3.32015e-14 1.84589e-14 -4.82847e-15 -4.126e-14 0 0 2.48801e-14 -1.82168e-14 3.05864e-14 -3.42178e-15 0 0 1.51192e-14 -2.76252e-14 4.83801e-14 1.76912e-14 0 0 1.10269e-14 3.07868e-16 3.81712e-14 -7.15025e-15 0 0 9.96988e-15 1.40968e-14 1.17367e-14 9.05166e-15 0 0 4.47646e-15 2.04816e-14 -5.4131e-15 1.21406e-14 0 0 1.00744e-15 1.18893e-14 4.80755e-15 9.55879e-15 0 0 -1.76865e-15 1.19907e-14 -1.2723e-14 7.46325e-14 0 0 2.10037e-14 -1.05713e-14 3.62943e-14 3.67227e-14 0 0 2.97663e-14 8.82311e-15 6.11667e-14 -3.60612e-14 0 0 2.0643e-14 4.99348e-14 2.98248e-14 -6.78458e-14 0 0 2.60422e-14 4.07605e-14 6.19883e-14 -8.99495e-14 0 0 2.22798e-14 2.72673e-14 8.5581e-14 -6.83907e-14 0 0 2.68785e-14 -3.4177e-15 1.09835e-13 -5.53728e-14 0 0 1.9815e-14 2.25716e-14 7.17015e-14 -1.83912e-14 0 0 1.08505e-14 3.94236e-14 1.16324e-14 6.4406e-15 0 0 -8.58798e-15 4.77462e-14 1.6861e-14 -2.35672e-14 0 0 4.76436e-16 4.33933e-14 2.96081e-14 -5.21722e-14 0 0 2.66115e-14 1.44827e-14 2.3933e-16 -1.5424e-14 0 0 1.78556e-14 2.15405e-14 -2.91323e-14 2.19058e-14 0 0 1.29073e-14 1.32047e-14 1.06228e-14 -3.23494e-15 0 0 -2.56548e-16 7.79573e-15 3.78529e-14 -2.20507e-14 0 0 -2.16033e-16 1.459e-14 3.21459e-15 1.10107e-14 0 0 -9.50041e-15 2.45403e-14 -3.55983e-15 3.29954e-14 0 0 3.06815e-15 7.01178e-15 2.02917e-14 -1.91283e-14 0 0 2.3226e-14 -2.92323e-14 3.86884e-14 -3.83456e-14 0 0 9.12757e-16 9.34858e-17 1.29379e-14 2.57996e-15 0 0 -7.38841e-15 1.52365e-14 -1.92103e-14 2.74384e-14 0 0 7.76188e-15 -1.58692e-14 1.65762e-14 8.6666e-15 0 0 1.04831e-14 -1.46108e-14 2.64312e-14 -9.60355e-15 0 0 0 -4.24835e-15 8.0528e-15 -2.78538e-16 0
				</DataArray>
				<DataArray Name="VitesseY" type="Float32" format="ascii">