<?xml version="1.0"?>
<VTKFile type="PolyData">
	<PolyData>
		<Piece NumberOfPoints="1206" NumberOfPolys="1000">
			<Points>
				<DataArray type="Float32" NumberOfComponents="3" format="ascii">
 0 0 0 0.02 0 0 0.04 0 0 0.06 0 0 0.08 0 0 0.1 0 0 0 0.005 0 0.02 0.005 0 0.04 0.005 0 0.06 0.005 0 0.08 0.005 0 0.1 0.005 0 0 0.01 0 0.02 0.01 0 0.04 0.01 0 0.06 0.01 0 0.08 0.01 0 0.1 0.01 0 0 0.015 0 0.02 0.015 0 0.04 0.015 0 0.06 0.015 0 0.08 0.015 0 0.1 0.015 0 0 0.02 0 0.02 0.02 0 0.04 0.02 0 0.06 0.02 0 0.08 0.02 0 0.1 0.02 0 0 0.025 0 0.02 0.025 0 0.04 0.025 0 0.06 0.025 0 0.08 0.025 0 0.1 0.025 0 0 0.03 0 0.02 0.03 0 0.04 0.03 0 0.06 0.03 0 0.08 0.03 0 0.1 0.03 0 0 0.035 0 0.02 0.035 0 0.04 0.035 0 0.06 0.035 0 0.08 0.035 0 0.1 0.035 0 0 0.04 0 0.02 0.04 0 0.04 0.04 0 0.06 0.04 0 0.08 0.04 0 0.1 0.04 0 0 0.045 0 0.02 0.045 0 0.04 0.045 0 0.06 0.045 0 0.08 0.045 0 0.1 0.045 0 0 0.05 0 0.02 0.05 0 0.04 0.05 0 0.06 0.05 0 0.08 0.05 0 0.1 0.05 0 0 0.055 0 0.02 0.055 0 0.04 0.055 0 0.06 0.055 0 0.08 0.055 0 0.1 0.055 0 0 0.06 0 0.02 0.06 0 0.04 0.06 0 0.06 0.06 0 0.08 0.06 0 0.1 0.06 0 0 0.065 0 0.02 0.065 0 0.04 0.065 0 0.06 0.065 0 0.08 0.065 0 0.1 0.065 0 0 0.07 0 0.02 0.07 0 0.04 0.07 0 0.06 0.07 0 0.08 0.07 0 0.1 0.07 0 0 0.075 0 0.02 0.075 0 0.04 0.075 0 0.06 0.075 0 0.08 0.075 0 0.1 0.075 0 0 0.08 0 0.02 0.08 0 0.04 0.08 0 0.06 0.08 0 0.08 0.08 0 0.1 0.08 0 0 0.085 0 0.02 0.085 0 0.04 0.085 0 0.06 0.085 0 0.08 0.085 0 0.1 0.085 0 0 0.09 0 0.02 0.09 0 0.04 0.09 0 0.06 0.09 0 0.08 0.09 0 0.1 0.09 0 0 0.095 0 0.02 0.095 0 0.04 0.095 0 0.06 0.095 0 0.08 0.095 0 0.1 0.095 0 0 0.1 0 0.02 0.1 0 0.04 0.1 0 0.06 0.1 0 0.08 0.1 0 0.1 0.1 0 0 0.105 0 0.02 0.105 0 0.04 0.105 0 0.06 0.105 0 0.08 0.105 0 0.1 0.105 0 0 0.11 0 0.02 0.11 0 0.04 0.11 0 0.06 0.11 0 0.08 0.11 0 0.1 0.11 0 0 0.115 0 0.02 0.115 0 0.04 0.115 0 0.06 0.115 0 0.08 0.115 0 0.1 0.115 0 0 0.12 0 0.02 0.12 0 0.04 0.12 0 0.06 0.12 0 0.08 0.12 0 0.1 0.12 0 0 0.125 0 0.02 0.125 0 0.04 0.125 0 0.06 0.125 0 0.08 0.125 0 0.1 0.125 0 0 0.13 0 0.02 0.13 0 0.04 0.13 0 0.06 0.13 0 0.08 0.13 0 0.1 0.13 0 0 0.135 0 0.02 0.135 0 0.04 0.135 0 0.06 0.135 0 0.08 0.135 0 0.1 0.135 0 0 0.14 0 0.02 0.14 0 0.04 0.14 0 0.06 0.14 0 0.08 0.14 0 0.1 0.14 0 0 0.145 0 0.02 0.145 0 0.04 0.145 0 0.06 0.145 0 0.08 0.145 0 0.1 0.145 0 0 0.15 0 0.02 0.15 0 0.04 0.15 0 0.06 0.15 0 0.08 0.15 0 0.1 0.15 0 0 0.155 0 0.02 0.155 0 0.04 0.155 0 0.06 0.155 0 0.08 0.155 0 0.1 0.155 0 0 0.16 0 0.02 0.16 0 0.04 0.16 0 0.06 0.16 0 0.08 0.16 0 0.1 0.16 0 0 0.165 0 0.02 0.165 0 0.04 0.165 0 0.06 0.165 0 0.08 0.165 0 0.1 0.165 0 0 0.17 0 0.02 0.17 0 0.04 0.17 0 0.06 0.17 0 0.08 0.17 0 0.1 0.17 0 0 0.175 0 0.02 0.175 0 0.04 0.175 0 0.06 0.175 0 0.08 0.175 0 0.1 0.175 0 0 0.18 0 0.02 0.18 0 0.04 0.18 0 0.06 0.18 0 0.08 0.18 0 0.1 0.18 0 0 0.185 0 0.02 0.185 0 0.04 0.185 0 0.06 0.185 0 0.08 0.185 0 0.1 0.185 0 0 0.19 0 0.02 0.19 0 0.04 0.19 0 0.06 0.19 0 0.08 0.19 0 0.1 0.19 0 0 0.195 0 0.02 0.195 0 0.04 0.195 0 0.06 0.195 0 0.08 0.195 0 0.1 0.195 0 0 0.2 0 0.02 0.2 0 0.04 0.2 0 0.06 0.2 0 0.08 0.2 0 0.1 0.2 0 0 0.205 0 0.02 0.205 0 0.04 0.205 0 0.06 0.205 0 0.08 0.205 0 0.1 0.205 0 0 0.21 0 0.02 0.21 0 0.04 0.21 0 0.06 0.21 0 0.08 0.21 0 0.1 0.21 0 0 0.215 0 0.02 0.215 0 0.04 0.215 0 0.06 0.215 0 0.08 0.215 0 0.1 0.215 0 0 0.22 0 0.02 0.22 0 0.04 0.22 0 0.06 0.22 0 0.08 0.22 0 0.1 0.22 0 0 0.225 0 0.02 0.225 0 0.04 0.225 0 0.06 0.225 0 0.08 0.225 0 0.1 0.225 0 0 0.23 0 0.02 0.23 0 0.04 0.23 0 0.06 0.23 0 0.08 0.23 0 0.1 0.23 0 0 0.235 0 0.02 0.235 0 0.04 0.235 0 0.06 0.235 0 0.08 0.235 0 0.1 0.235 0 0 0.24 0 0.02 0.24 0 0.04 0.24 0 0.06 0.24 0 0.08 0.24 0 0.1 0.24 0 0 0.245 0 0.02 0.245 0 0.04 0.245 0 0.06 0.245 0 0.08 0.245 0 0.1 0.245 0 0 0.25 0 0.02 0.25 0 0.04 0.25 0 0.06 0.25 0 0.08 0.25 0 0.1 0.25 0 0 0.255 0 0.02 0.255 0 0.04 0.255 0 0.06 0.255 0 0.08 0.255 0 0.1 0.255 0 0 0.26 0 0.02 0.26 0 0.04 0.26 0 0.06 0.26 0 0.08 0.26 0 0.1 0.26 0 0 0.265 0 0.02 0.265 0 0.04 0.265 0 0.06 0.265 0 0.08 0.265 0 0.1 0.265 0 0 0.27 0 0.02 0.27 0 0.04 0.27 0 0.06 0.27 0 0.08 0.27 0 0.1 0.27 0 0 0.275 0 0.02 0.275 0 0.04 0.275 0 0.06 0.275 0 0.08 0.275 0 0.1 0.275 0 0 0.28 0 0.02 0.28 0 0.04 0.28 0 0.06 0.28 0 0.08 0.28 0 0.1 0.28 0 0 0.285 0 0.02 0.285 0 0.04 0.285 0 0.06 0.285 0 0.08 0.285 0 0.1 0.285 0 0 0.29 0 0.02 0.29 0 0.04 0.29 0 0.06 0.29 0 0.08 0.29 0 0.1 0.29 0 0 0.295 0 0.02 0.295 0 0.04 0.295 0 0.06 0.295 0 0.08 0.295 0 0.1 0.295 0 0 0.3 0 0.02 0.3 0 0.04 0.3 0 0.06 0.3 0 0.08 0.3 0 0.1 0.3 0 0 0.305 0 0.02 0.305 0 0.04 0.305 0 0.06 0.305 0 0.08 0.305 0 0.1 0.305 0 0 0.31 0 0.02 0.31 0 0.04 0.31 0 0.06 0.31 0 0.08 0.31 0 0.1 0.31 0 0 0.315 0 0.02 0.315 0 0.04 0.315 0 0.06 0.315 0 0.08 0.315 0 0.1 0.315 0 0 0.32 0 0.02 0.32 0 0.04 0.32 0 0.06 0.32 0 0.08 0.32 0 0.1 0.32 0 0 0.325 0 0.02 0.325 0 0.04 0.325 0 0.06 0.325 0 0.08 0.325 0 0.1 0.325 0 0 0.330002 0 0.02 0.330002 0 0.04 0.330002 0 0.06 0.330002 0 0.08 0.330002 0 0.1 0.330002 0 0 0.335006 0 0.02 0.335006 0 0.04 0.335006 0 0.06 0.335006 0 0.08 0.335006 0 0.1 0.335006 0 0 0.340017 0 0.02 0.340017 0 0.04 0.340017 0 0.06 0.340017 0 0.08 0.340017 0 0.1 0.340017 0 0 0.345046 0 0.02 0.345046 0 0.04 0.345046 0 0.06 0.345046 0 0.08 0.345046 0 0.1 0.345046 0 0 0.350109 0 0.02 0.350109 0 0.04 0.350109 0 0.06 0.350109 0 0.08 0.350109 0 0.1 0.350109 0 0 0.355231 0 0.02 0.355231 0 0.04 0.355231 0 0.06 0.355231 0 0.08 0.355231 0 0.1 0.355231 0 0 0.360442 0 0.02 0.360442 0 0.04 0.360442 0 0.06 0.360442 0 0.08 0.360442 0 0.1 0.360442 0 0 0.365767 0 0.02 0.365767 0 0.04 0.365767 0 0.06 0.365767 0 0.08 0.365767 0 0.1 0.365767 0 0 0.371232 0 0.02 0.371232 0 0.04 0.371232 0 0.06 0.371232 0 0.08 0.371232 0 0.1 0.371232 0 0 0.376854 0 0.02 0.376854 0 0.04 0.376854 0 0.06 0.376854 0 0.08 0.376854 0 0.1 0.376854 0 0 0.382653 0 0.02 0.382653 0 0.04 0.382653 0 0.06 0.382653 0 0.08 0.382653 0 0.1 0.382653 0 0 0.388643 0 0.02 0.388643 0 0.04 0.388643 0 0.06 0.388643 0 0.08 0.388643 0 0.1 0.388643 0 0 0.394843 0 0.02 0.394843 0 0.04 0.394843 0 0.06 0.394843 0 0.08 0.394843 0 0.1 0.394843 0 0 0.401272 0 0.02 0.401272 0 0.04 0.401272 0 0.06 0.401272 0 0.08 0.401272 0 0.1 0.401272 0 0 0.407949 0 0.02 0.407949 0 0.04 0.407949 0 0.06 0.407949 0 0.08 0.407949 0 0.1 0.407949 0 0 0.414899 0 0.02 0.414899 0 0.04 0.414899 0 0.06 0.414899 0 0.08 0.414899 0 0.1 0.414899 0 0 0.422148 0 0.02 0.422148 0 0.04 0.422148 0 0.06 0.422148 0 0.08 0.422148 0 0.1 0.422148 0 0 0.429725 0 0.02 0.429725 0 0.04 0.429725 0 0.06 0.429725 0 0.08 0.429725 0 0.1 0.429725 0 0 0.437665 0 0.02 0.437665 0 0.04 0.437665 0 0.06 0.437665 0 0.08 0.437665 0 0.1 0.437665 0 0 0.446008 0 0.02 0.446008 0 0.04 0.446008 0 0.06 0.446008 0 0.08 0.446008 0 0.1 0.446008 0 0 0.454798 0 0.02 0.454798 0 0.04 0.454798 0 0.06 0.454798 0 0.08 0.454798 0 0.1 0.454798 0 0 0.46409 0 0.02 0.46409 0 0.04 0.46409 0 0.06 0.46409 0 0.08 0.46409 0 0.1 0.46409 0 0 0.47394 0 0.02 0.47394 0 0.04 0.47394 0 0.06 0.47394 0 0.08 0.47394 0 0.1 0.47394 0 0 0.484412 0 0.02 0.484412 0 0.04 0.484412 0 0.06 0.484412 0 0.08 0.484412 0 0.1 0.484412 0 0 0.495553 0 0.02 0.495553 0 0.04 0.495553 0 0.06 0.495553 0 0.08 0.495553 0 0.1 0.495553 0 0 0.50735 0 0.02 0.50735 0 0.04 0.50735 0 0.06 0.50735 0 0.08 0.50735 0 0.1 0.50735 0 0 0.519562 0 0.02 0.519562 0 0.04 0.519562 0 0.06 0.519562 0 0.08 0.519562 0 0.1 0.519562 0 0 0.531715 0 0.02 0.531715 0 0.04 0.531715 0 0.06 0.531715 0 0.08 0.531715 0 0.1 0.531715 0 0 0.543724 0 0.02 0.543724 0 0.04 0.543724 0 0.06 0.543724 0 0.08 0.543724 0 0.1 0.543724 0 0 0.555605 0 0.02 0.555605 0 0.04 0.555605 0 0.06 0.555605 0 0.08 0.555605 0 0.1 0.555605 0 0 0.567404 0 0.02 0.567404 0 0.04 0.567404 0 0.06 0.567404 0 0.08 0.567404 0 0.1 0.567404 0 0 0.579162 0 0.02 0.579162 0 0.04 0.579162 0 0.06 0.579162 0 0.08 0.579162 0 0.1 0.579162 0 0 0.590906 0 0.02 0.590906 0 0.04 0.590906 0 0.06 0.590906 0 0.08 0.590906 0 0.1 0.590906 0 0 0.602646 0 0.02 0.602646 0 0.04 0.602646 0 0.06 0.602646 0 0.08 0.602646 0 0.1 0.602646 0 0 0.614398 0 0.02 0.614398 0 0.04 0.614398 0 0.06 0.614398 0 0.08 0.614398 0 0.1 0.614398 0 0 0.617009 0 0.02 0.617009 0 0.04 0.617009 0 0.06 0.617009 0 0.08 0.617009 0 0.1 0.617009 0 0 0.619546 0 0.02 0.619546 0 0.04 0.619546 0 0.06 0.619546 0 0.08 0.619546 0 0.1 0.619546 0 0 0.622037 0 0.02 0.622037 0 0.04 0.622037 0 0.06 0.622037 0 0.08 0.622037 0 0.1 0.622037 0 0 0.624498 0 0.02 0.624498 0 0.04 0.624498 0 0.06 0.624498 0 0.08 0.624498 0 0.1 0.624498 0 0 0.626938 0 0.02 0.626938 0 0.04 0.626938 0 0.06 0.626938 0 0.08 0.626938 0 0.1 0.626938 0 0 0.629362 0 0.02 0.629362 0 0.04 0.629362 0 0.06 0.629362 0 0.08 0.629362 0 0.1 0.629362 0 0 0.631777 0 0.02 0.631777 0 0.04 0.631777 0 0.06 0.631777 0 0.08 0.631777 0 0.1 0.631777 0 0 0.634189 0 0.02 0.634189 0 0.04 0.634189 0 0.06 0.634189 0 0.08 0.634189 0 0.1 0.634189 0 0 0.636602 0 0.02 0.636602 0 0.04 0.636602 0 0.06 0.636602 0 0.08 0.636602 0 0.1 0.636602 0 0 0.638999 0 0.02 0.638999 0 0.04 0.638999 0 0.06 0.638999 0 0.08 0.638999 0 0.1 0.638999 0 0 0.641386 0 0.02 0.641386 0 0.04 0.641386 0 0.06 0.641386 0 0.08 0.641386 0 0.1 0.641386 0 0 0.643767 0 0.02 0.643767 0 0.04 0.643767 0 0.06 0.643767 0 0.08 0.643767 0 0.1 0.643767 0 0 0.646145 0 0.02 0.646145 0 0.04 0.646145 0 0.06 0.646145 0 0.08 0.646145 0 0.1 0.646145 0 0 0.648522 0 0.02 0.648522 0 0.04 0.648522 0 0.06 0.648522 0 0.08 0.648522 0 0.1 0.648522 0 0 0.650899 0 0.02 0.650899 0 0.04 0.650899 0 0.06 0.650899 0 0.08 0.650899 0 0.1 0.650899 0 0 0.653272 0 0.02 0.653272 0 0.04 0.653272 0 0.06 0.653272 0 0.08 0.653272 0 0.1 0.653272 0 0 0.655642 0 0.02 0.655642 0 0.04 0.655642 0 0.06 0.655642 0 0.08 0.655642 0 0.1 0.655642 0 0 0.658011 0 0.02 0.658011 0 0.04 0.658011 0 0.06 0.658011 0 0.08 0.658011 0 0.1 0.658011 0 0 0.660382 0 0.02 0.660382 0 0.04 0.660382 0 0.06 0.660382 0 0.08 0.660382 0 0.1 0.660382 0 0 0.662752 0 0.02 0.662752 0 0.04 0.662752 0 0.06 0.662752 0 0.08 0.662752 0 0.1 0.662752 0 0 0.665119 0 0.02 0.665119 0 0.04 0.665119 0 0.06 0.665119 0 0.08 0.665119 0 0.1 0.665119 0 0 0.667486 0 0.02 0.6
[...]
			<PointData Scalars="VitesseX">
				<DataArray Name="VitesseX" type="Float32" format="ascii">
 0 1.96225e-16 3.20875e-17 4.01588e-15 5.9138e-15 0 0 -1.73396e-16 5.30062e-16 3.25809e-15 6.51516e-15 0 0 -6.25954e-16 7.11408e-16 3.04729e-15 6.58676e-15 0 0 -7.28482e-16 2.85344e-16 3.39677e-15 6.88376e-15 0 0 -1.3918e-15 1.32681e-15 2.40678e-15 8.01895e-15 0 0 -2.01482e-15 2.22066e-15 1.01104e-15 8.84105e-15 0 0 -2.676e-15 2.86485e-15 8.70963e-16 9.40172e-15 0 0 -9.87997e-16 7.53161e-16 3.16306e-15 1.12132e-14 0 0 -1.31476e-15 2.62083e-15 1.79883e-15 1.5304e-14 0 0 -7.5148e-16 1.61325e-15 4.88623e-15 1.36154e-14 0 0 5.42212e-16 6.48867e-16 7.0978e-15 1.04803e-14 0 0 -1.2998e-15 5.59611e-15 4.46721e-15 9.59933e-15 0 0 6.17427e-16 5.42224e-15 5.97498e-15 6.70183e-15 0 0 2.574e-15 5.7045e-15 3.17266e-15 7.78614e-15 0 0 3.78355e-15 6.12835e-15 1.55064e-15 9.1345e-15 0 0 3.67834e-15 5.09612e-15 2.81036e-15 1.12212e-14 0 0 3.09335e-15 5.07288e-15 1.91081e-15 1.38978e-14 0 0 3.31684e-15 4.82098e-15 2.75356e-15 9.31071e-15 0 0 2.24e-15 6.77128e-15 1.72362e-15 5.00685e-15 0 0 3.73797e-15 5.4684e-15 3.41515e-15 1.92342e-15 0 0 5.1181e-15 5.7417e-15 1.97213e-15 2.25611e-15 0 0 6.41234e-15 6.94225e-15 -7.0794e-15 1.08042e-14 0 0 6.73739e-15 4.65572e-15 -4.85472e-15 6.94919e-15 0 0 6.51702e-15 3.4471e-15 7.04989e-16 -2.33799e-15 0 0 8.97231e-15 -2.37465e-15 -2.31855e-15 4.24419e-15 0 0 7.81982e-15 -6.7335e-15 -9.20129e-15 1.18766e-14 0 0 6.17118e-15 -9.57704e-15 -9.5467e-15 9.62064e-15 0 0 1.10139e-15 -1.12944e-14 -6.1052e-15 6.83764e-15 0 0 2.77769e-16 -1.0895e-14 -5.16927e-15 6.81829e-15 0 0 -2.29953e-15 -4.83581e-15 -2.69982e-15 3.24938e-15 0 0 -3.09638e-15 -2.41855e-15 -1.7298e-15 1.87508e-15 0 0 9.55747e-15 -7.63941e-15 -3.29505e-15 3.18872e-15 0 0 5.02873e-15 8.58522e-15 -1.77447e-14 6.68916e-15 0 0 -6.6155e-15 1.69423e-14 -1.71496e-14 8.2102e-15 0 0 -2.70316e-15 2.31567e-15 1.75412e-15 6.55344e-16 0 0 7.13544e-15 -1.17951e-14 1.57348e-14 -1.1576e-14 0 0 7.93641e-15 -1.49029e-14 1.36627e-14 -1.07997e-14 0 0 1.4921e-15 -8.05172e-15 4.1093e-15 -4.46632e-15 0 0 -1.53486e-16 -4.03327e-15 4.02718e-15 -1.10134e-14 0 0 1.65623e-15 -5.29458e-16 -5.03488e-15 -9.82166e-15 0 0 -4.30746e-16 -3.66653e-15 -7.33994e-15 6.40078e-16 0 0 -3.46246e-15 -6.1828e-15 -1.60404e-15 7.10225e-15 0 0 -1.96615e-15 -9.32145e-15 -4.56369e-15 1.21585e-14 0 0 -4.4271e-15 -3.30332e-15 -2.09088e-14 2.93218e-14 0 0 -6.56243e-15 2.12333e-15 -2.29878e-14 1.87803e-14 0 0 -6.41346e-15 -6.27223e-15 -7.59425e-15 -8.1192e-15 0 0 -7.63027e-15 -6.11463e-15 -3.04499e-15 -1.88344e-14 0 0 -2.12691e-15 -1.3131e-14 5.02188e-15 -3.13964e-14 0 0 4.18397e-15 -1.99267e-14 2.3899e-14 -4.69655e-14 0 0 -1.37799e-15 -2.67291e-15 7.62605e-15 -2.47084e-14 0 0 -1.31066e-14 1.43062e-14 -1.69778e-14 -2.19079e-15 0 0 3.76116e-15 -1.69028e-14 8.0554e-15 -1.4347e-14 0 0 1.62562e-14 -3.0471e-14 2.49427e-14 -1.97985e-14 0 0 4.76513e-15 2.4533e-15 3.24588e-15 -6.6582e-15 0 0 7.29863e-15 1.4944e-14 -7.8949e-15 1.02788e-15 0 0 1.38063e-14 2.63135e-14 -3.55424e-15 -1.24412e-15 0 0 -9.4213e-16 2.47184e-14 1.52981e-14 9.64158e-15 0 0 -1.1213e-14 1.82494e-15 2.62858e-14 1.72839e-14 0 0 2.24398e-14 -3.59078e-15 1.05057e-14 1.42283e-14 0 0 1.11124e-14 1.6439e-14 6.48176e-15 -8.06381e-15 0 0 -1.23218e-14 -8.27875e-16 2.26667e-14 -1.81263e-14 0 0 -1.45642e-15 -2.48678e-14 2.39888e-14 -2.66209e-14 0 0 3.56256e-15 5.72221e-15 -9.01267e-15 -3.47908e-14 0 0 7.66833e-15 1.00493e-14 -3.21089e-14 -3.94858e-14 0 0 -3.95104e-15 -2.63391e-14 -1.65626e-14 -4.25991e-14 0 0 -2.14635e-14 -2.50395e-14 4.68609e-15 -4.99977e-14 0 0 -9.23241e-15 -2.28786e-16 -2.51622e-14 -5.14962e-14 0 0 -1.41181e-15 -3.74394e-15 -3.50473e-14 -3.86036e-14 0 0 -4.08165e-15 -1.29985e-14 -9.53537e-15 -2.53676e-14 0 0 3.15476e-15 -3.03042e-14 -3.77352e-15 1.55607e-14 0 0 1.48467e-14 -3.58515e-14 -1.43607e-14 1.99491e-14 0 0 -1.78233e-14 -1.21337e-14 -1.31711e-14 1.03351e-14 0 0 -4.82426e-14 -1.75194e-15 -1.38326e-15 5.39277e-15 0 0 -2.38573e-14 5.6347e-15 -2.74043e-14 -2.37594e-15 0 0 -6.45103e-15 -6.12994e-15 -2.63275e-14 6.85651e-15 0 0 1.71548e-14 -2.61409e-14 -1.40655e-14 8.2514e-15 0 0 1.90363e-14 -2.72214e-14 -1.44119e-14 7.66051e-15 0 0 -3.0978e-14 5.63437e-15 -3.02702e-15 -1.50098e-14 0 0 -3.6543e-14 3.51398e-14 -8.39908e-15 -2.38504e-14 0 0 -8.81072e-15 9.55259e-15 -1.58424e-14 5.74071e-15 0 0 -8.79659e-15 -3.05267e-15 1.36097e-15 -1.24334e-14 0 0 -2.09256e-15 6.94808e-15 -2.29013e-14 -1.71995e-15 0 0 -2.69543e-15 3.49412e-15 -1.65962e-14 4.20732e-15 0 0 -3.69851e-15 3.22988e-15 1.89543e-15 -1.50714e-14 0 0 7.67051e-15 4.62681e-15 -1.28733e-14 -2.26569e-15 0 0 3.71495e-15 7.61134e-16 -1.17707e-14 3.12689e-15 0 0 1.28869e-15 -5.60374e-15 -2.25754e-14 2.1945e-14 0 0 5.36453e-15 -1.70443e-14 1.00964e-14 -8.66379e-15 0 0 -2.1071e-14 -3.14115e-15 3.23728e-14 -3.45476e-14 0 0 -3.31719e-15 -5.18036e-16 -4.16104e-15 -1.49317e-14 0 0 -4.13768e-15 -2.46965e-14 -1.7317e-14 2.62537e-16 0 0 -3.32604e-14 -3.00895e-14 -1.23074e-14 2.71764e-15 0 0 -3.49397e-14 -5.29722e-14 -4.65573e-14 -4.79936e-15 0 0 -4.77868e-14 -7.09827e-14 -6.08082e-14 -2.34288e-14 0 0 -1.53968e-14 -3.43728e-14 -2.44694e-14 -2.0263e-14 0 0 4.11643e-14 5.01457e-14 4.62821e-14 3.07803e-14 0 0 1.0478e-13 1.57718e-13 1.63723e-13 9.69176e-14 0 0 1.73018e-13 2.58491e-13 2.68262e-13 1.60631e-13 0 0 2.08535e-13 3.36103e-13 3.32339e-13 2.10496e-13 0 0 2.32126e-13 3.83495e-13 3.99282e-13 2.39585e-13 0 0 2.81592e-13 4.4807e-13 4.72585e-13 2.89025e-13 0 0 5.08242e-13 7.88772e-13 8.06497e-13 5.01206e-13 0 0 5.10247e-13 7.6979e-13 8.52521e-13 4.46514e-13 0 0 5.14146e-13 8.35144e-13 8.47782e-13 4.13866e-13 0 0 5.45701e-13 8.89707e-13 8.47304e-13 4.8387e-13 0 0 5.74904e-13 9.08802e-13 9.36168e-13 4.89538e-13 0 0 5.73477e-13 8.86067e-13 9.77837e-13 4.71082e-13 0 0 5.08744e-13 7.71019e-13 8.17127e-13 4.42265e-13 0 0 3.13347e-13 5.08868e-13 4.92315e-13 3.37636e-13 0 0 7.16228e-14 1.96469e-13 1.38787e-13 1.203e-13 0 0 -1.04153e-13 -8.13976e-14 -1.49408e-13 -1.04134e-13 0 0 -1.83525e-13 -3.20328e-13 -3.01775e-13 -1.95659e-13 0 0 -2.19048e-13 -3.79288e-13 -3.33362e-13 -2.21179e-13 0 0 -1.83762e-13 -3.53825e-13 -3.18537e-13 -2.38226e-13 0 0 -1.5578e-13 -2.78357e-13 -2.99415e-13 -2.26154e-13 0 0 -1.39007e-13 -1.75258e-13 -2.50386e-13 -1.25637e-13 0 0 -8.21837e-14 -1.3326e-13 -1.68498e-13 -2.22845e-14 0 0 -3.46392e-14 -4.3129e-14 -1.23412e-13 5.31147e-14 0 0 2.68178e-14 2.8673e-14 -5.34392e-14 6.57059e-14 0 0 6.00086e-14 1.06997e-13 4.80712e-14 4.85562e-14 0 0 5.68389e-14 2.17489e-13 7.47364e-14 1.48866e-13 0 0 1.08283e-13 2.45795e-13 1.31902e-13 1.50139e-13 0 0 1.59816e-13 2.53279e-13 2.31796e-13 1.36872e-13 0 0 1.59768e-13 2.79838e-13 2.88605e-13 1.43017e-13 0 0 1.83001e-13 3.18185e-13 3.03235e-13 1.08867e-13 0 0 2.12534e-13 3.54442e-13 3.36905e-13 1.99445e-13 0 0 2.09405e-13 3.8427e-13 3.3205e-13 2.48503e-13 0 0 2.18989e-13 4.56108e-13 3.07472e-13 2.93605e-13 0 0 2.54862e-13 4.51096e-13 4.05295e-13 3.02736e-13 0 0 2.8539e-13 4.44916e-13 4.78189e-13 2.80985e-13 0 0 2.67655e-13 5.27625e-13 4.38332e-13 3.64445e-13 0 0 2.80113e-13 5.30146e-13 4.51993e-13 3.88012e-13 0 0 3.09883e-13 5.15074e-13 4.56573e-13 3.60798e-13 0 0 3.4165e-13 5.42412e-13 4.30259e-13 3.28835e-13 0 0 3.71905e-13 5.26013e-13 3.98357e-13 3.62759e-13 0 0 3.60059e-13 5.16865e-13 3.96966e-13 3.60436e-13 0 0 3.48305e-13 5.40353e-13 3.87079e-13 2.72069e-13 0 0 3.38989e-13 5.2298e-13 3.48688e-13 3.3329e-13 0 0 3.35909e-13 4.40409e-13 3.81966e-13 3.04558e-13 0 0 3.28406e-13 3.91342e-13 4.16831e-13 2.75857e-13 0 0 2.79734e-13 3.56583e-13 3.8947e-13 3.0142e-13 0 0 2.26322e-13 3.49345e-13 3.39332e-13 2.88806e-13 0 0 1.69744e-13 3.09138e-13 1.93066e-13 3.13569e-13 0 0 1.33054e-13 1.68036e-13 1.82683e-13 2.00901e-13 0 0 8.00214e-14 5.71183e-14 1.80184e-13 7.96662e-14 0 0 2.65665e-14 1.04461e-14 1.05766e-13 -4.6561e-14 0 0 1.85271e-14 -4.55342e-14 4.79562e-14 -9.57943e-14 0 0 3.75252e-15 -5.59921e-14 -3.93281e-14 -1.04411e-13 0 0 -9.48398e-15 -5.57754e-14 -6.22199e-14 -9.29795e-14 0 0 -9.90755e-15 -6.66394e-14 -9.16288e-14 -3.26751e-14 0 0 -2.28769e-14 -6.01302e-14 -8.70655e-14 -3.37812e-14 0 0 -2.93615e-14 -6.7933e-14 -6.59608e-14 -6.13261e-14 0 0 -2.52113e-14 -8.21496e-14 -6.85392e-14 -4.4571e-14 0 0 -3.19283e-14 -6.82364e-14 -7.40984e-14 -1.46876e-14 0 0 -3.54026e-14 -5.61687e-14 -7.45755e-14 -6.20964e-16 0 0 -2.15296e-14 -6.0853e-14 -6.21879e-14 -6.86223e-15 0 0 -1.74015e-14 -6.35879e-14 -5.23628e-14 -8.81192e-15 0 0 -2.6697e-14 -4.55074e-14 -6.34388e-14 1.41095e-14 0 0 -2.53045e-14 -3.82694e-14 -6.83247e-14 2.3653e-15 0 0 -1.53253e-14 -5.98862e-14 -5.75828e-14 -9.1012e-15 0 0 -1.68899e-14 -6.22576e-14 -3.16058e-14 -1.94042e-14 0 0 -4.91907e-14 -9.81599e-15 -4.12545e-14 -3.78745e-14 0 0 -4.69992e-14 -1.71713e-14 -4.11842e-14 -2.07942e-14 0 0 -5.24199e-14 -2.6126e-14 -2.74607e-14 3.11326e-15 0 0 -6.76062e-14 -1.3049e-14 -1.81049e-14 8.58651e-15 0 0 -3.78254e-14 -3.63657e-14 4.36987e-15 1.8841e-14 0 0 -3.7662e-14 -1.62379e-14 -7.67939e-15 4.1783e-14 0 0 -4.98264e-14 -2.71525e-15 1.21286e-14 1.83396e-14 0 0 -6.48013e-14 2.53482e-14 5.95709e-14 -4.83483e-14 0 0 -5.48454e-14 5.76074e-14 6.64649e-14 -7.97955e-14 0 0 -3.76826e-14 6.3715e-14 8.32479e-14 -9.83182e-14 0 0 -4.73798e-14 7.27231e-14 5.03715e-14 -8.12541e-14 0 0 -2.03481e-14 5.02407e-14 -2.90981e-14 -6.56732e-14 0 0 -3.83286e-16 -2.89233e-15 -5.75246e-15 -5.54685e-14 0 0 -2.64001e-14 1.81142e-14 3.10991e-14 -5.12338e-14 0 0 -1.03109e-14 4.94508e-15 5.72558e-14 -9.04355e-14 0 0 -9.6889e-15 6.37623e-17 4.25703e-14 -7.40982e-14 0 0 2.69021e-14 -5.14744e-15 1.34096e-14 -3.05747e-14 0 0 5.9618e-14 8.49617e-15 -4.84433e-14 5.37915e-15 0 0 1.97066e-15 8.44018e-14 -3.5545e-14 -2.4338e-14 0 0 1.44022e-14 1.51494e-14 9.82694e-14 -6.04642e-14 0 0 7.8344e-14 -7.21533e-14 8.7856e-14 -3.09725e-14 0 0 6.45719e-14 -3.71238e-14 -2.76844e-14 5.34527e-14 0 0 1.07886e-14 -1.73798e-14 -2.66441e-14 6.73237e-14 0 0 3.78719e-15 -1.45097e-14 4.00556e-15 -4.74502e-14 0 0 2.78706e-14 1.34359e-14 -6.90188e-14 -5.49e-14 0 0 5.3193e-14 1.56297e-14 -1.03764e-13 2.04319e-14 0 0 4.22505e-14 2.44672e-14 -8.47968e-14 6.05114e-14 0 0 3.36918e-14 -2.16169e-14 3.52989e-15 1.10793e-14 0 0 -2.80757e-15 -2.08041e-14 4.98919e-14 -3.6598e-14 0 0 -1.11568e-14 -1.7762e-14 6.6197e-14 -4.8118e-14 0 0 -2.69654e-15 3.80972e-15 2.36481e-14 -3.05091e-14 0 0 4.32947e-15 2.56993e-14 -1.99862e-14 -6.15872e-15 0 0 2.24816e-14 9.60735e-15 -2.36832e-14 2.0289e-14 0 0 -8.99734e-15 3.1562e-14 -1.75605e-14 1.20859e-14 0 0 -3.98566e-14 6.26633e-14 2.25473e-14 -5.18784e-14 0 0 -3.97672e-15 4.30477e-14 2.99182e-14 -6.60606e-14 0 0 4.92327e-14 -2.94625e-14 5.49993e-14 -9.35748e-15 0 0 2.03291e-14 1.77006e-14 1.48984e-14 4.60729e-14 0 0 -2.60971e-15 7.508e-14 -5.0947e-14 8.81618e-14 0 0 3.27861e-15 7.04395e-14 -7.20889e-14 1.3577e-13 0
				</DataArray>
				<DataArray Name="VitesseY" type="Float32" format="ascii">