<?xml version="1.0"?>
<VTKFile type="PolyData">
	<PolyData>
		<Piece NumberOfPoints="1206" NumberOfPolys="1000">
			<Points>
				<DataArray type="Float32" NumberOfComponents="3" format="ascii">
 0 0 0 0.02 0 0 0.04 0 0 0.06 0 0 0.08 0 0 0.1 0 0 0 0.005 0 0.02 0.005 0 0.04 0.005 0 0.06 0.005 0 0.08 0.005 0 0.1 0.005 0 0 0.01 0 0.02 0.01 0 0.04 0.01 0 0.06 0.01 0 0.08 0.01 0 0.1 0.01 0 0 0.015 0 0.02 0.015 0 0.04 0.015 0 0.06 0.015 0 0.08 0.015 0 0.1 0.015 0 0 0.02 0 0.02 0.02 0 0.04 0.02 0 0.06 0.02 0 0.08 0.02 0 0.1 0.02 0 0 0.025 0 0.02 0.025 0 0.04 0.025 0 0.06 0.025 0 0.08 0.025 0 0.1 0.025 0 0 0.03 0 0.02 0.03 0 0.04 0.03 0 0.06 0.03 0 0.08 0.03 0 0.1 0.03 0 0 0.035 0 0.02 0.035 0 0.04 0.035 0 0.06 0.035 0 0.08 0.035 0 0.1 0.035 0 0 0.04 0 0.02 0.04 0 0.04 0.04 0 0.06 0.04 0 0.08 0.04 0 0.1 0.04 0 0 0.045 0 0.02 0.045 0 0.04 0.045 0 0.06 0.045 0 0.08 0.045 0 0.1 0.045 0 0 0.05 0 0.02 0.05 0 0.04 0.05 0 0.06 0.05 0 0.08 0.05 0 0.1 0.05 0 0 0.055 0 0.02 0.055 0 0.04 0.055 0 0.06 0.055 0 0.08 0.055 0 0.1 0.055 0 0 0.06 0 0.02 0.06 0 0.04 0.06 0 0.06 0.06 0 0.08 0.06 0 0.1 0.06 0 0 0.065 0 0.02 0.065 0 0.04 0.065 0 0.06 0.065 0 0.08 0.065 0 0.1 0.065 0 0 0.07 0 0.02 0.07 0 0.04 0.07 0 0.06 0.07 0 0.08 0.07 0 0.1 0.07 0 0 0.075 0 0.02 0.075 0 0.04 0.075 0 0.06 0.075 0 0.08 0.075 0 0.1 0.075 0 0 0.08 0 0.02 0.08 0 0.04 0.08 0 0.06 0.08 0 0.08 0.08 0 0.1 0.08 0 0 0.085 0 0.02 0.085 0 0.04 0.085 0 0.06 0.085 0 0.08 0.085 0 0.1 0.085 0 0 0.09 0 0.02 0.09 0 0.04 0.09 0 0.06 0.09 0 0.08 0.09 0 0.1 0.09 0 0 0.095 0 0.02 0.095 0 0.04 0.095 0 0.06 0.095 0 0.08 0.095 0 0.1 0.095 0 0 0.1 0 0.02 0.1 0 0.04 0.1 0 0.06 0.1 0 0.08 0.1 0 0.1 0.1 0 0 0.105 0 0.02 0.105 0 0.04 0.105 0 0.06 0.105 0 0.08 0.105 0 0.1 0.105 0 0 0.11 0 0.02 0.11 0 0.04 0.11 0 0.06 0.11 0 0.08 0.11 0 0.1 0.11 0 0 0.115 0 0.02 0.115 0 0.04 0.115 0 0.06 0.115 0 0.08 0.115 0 0.1 0.115 0 0 0.12 0 0.02 0.12 0 0.04 0.12 0 0.06 0.12 0 0.08 0.12 0 0.1 0.12 0 0 0.125 0 0.02 0.125 0 0.04 0.125 0 0.06 0.125 0 0.08 0.125 0 0.1 0.125 0 0 0.13 0 0.02 0.13 0 0.04 0.13 0 0.06 0.13 0 0.08 0.13 0 0.1 0.13 0 0 0.135 0 0.02 0.135 0 0.04 0.135 0 0.06 0.135 0 0.08 0.135 0 0.1 0.135 0 0 0.14 0 0.02 0.14 0 0.04 0.14 0 0.06 0.14 0 0.08 0.14 0 0.1 0.14 0 0 0.145 0 0.02 0.145 0 0.04 0.145 0 0.06 0.145 0 0.08 0.145 0 0.1 0.145 0 0 0.15 0 0.02 0.15 0 0.04 0.15 0 0.06 0.15 0 0.08 0.15 0 0.1 0.15 0 0 0.155 0 0.02 0.155 0 0.04 0.155 0 0.06 0.155 0 0.08 0.155 0 0.1 0.155 0 0 0.16 0 0.02 0.16 0 0.04 0.16 0 0.06 0.16 0 0.08 0.16 0 0.1 0.16 0 0 0.165 0 0.02 0.165 0 0.04 0.165 0 0.06 0.165 0 0.08 0.165 0 0.1 0.165 0 0 0.17 0 0.02 0.17 0 0.04 0.17 0 0.06 0.17 0 0.08 0.17 0 0.1 0.17 0 0 0.175 0 0.02 0.175 0 0.04 0.175 0 0.06 0.175 0 0.08 0.175 0 0.1 0.175 0 0 0.18 0 0.02 0.18 0 0.04 0.18 0 0.06 0.18 0 0.08 0.18 0 0.1 0.18 0 0 0.185 0 0.02 0.185 0 0.04 0.185 0 0.06 0.185 0 0.08 0.185 0 0.1 0.185 0 0 0.19 0 0.02 0.19 0 0.04 0.19 0 0.06 0.19 0 0.08 0.19 0 0.1 0.19 0 0 0.195 0 0.02 0.195 0 0.04 0.195 0 0.06 0.195 0 0.08 0.195 0 0.1 0.195 0 0 0.2 0 0.02 0.2 0 0.04 0.2 0 0.06 0.2 0 0.08 0.2 0 0.1 0.2 0 0 0.205 0 0.02 0.205 0 0.04 0.205 0 0.06 0.205 0 0.08 0.205 0 0.1 0.205 0 0 0.21 0 0.02 0.21 0 0.04 0.21 0 0.06 0.21 0 0.08 0.21 0 0.1 0.21 0 0 0.215 0 0.02 0.215 0 0.04 0.215 0 0.06 0.215 0 0.08 0.215 0 0.1 0.215 0 0 0.22 0 0.02 0.22 0 0.04 0.22 0 0.06 0.22 0 0.08 0.22 0 0.1 0.22 0 0 0.225 0 0.02 0.225 0 0.04 0.225 0 0.06 0.225 0 0.08 0.225 0 0.1 0.225 0 0 0.23 0 0.02 0.23 0 0.04 0.23 0 0.06 0.23 0 0.08 0.23 0 0.1 0.23 0 0 0.235 0 0.02 0.235 0 0.04 0.235 0 0.06 0.235 0 0.08 0.235 0 0.1 0.235 0 0 0.24 0 0.02 0.24 0 0.04 0.24 0 0.06 0.24 0 0.08 0.24 0 0.1 0.24 0 0 0.245 0 0.02 0.245 0 0.04 0.245 0 0.06 0.245 0 0.08 0.245 0 0.1 0.245 0 0 0.25 0 0.02 0.25 0 0.04 0.25 0 0.06 0.25 0 0.08 0.25 0 0.1 0.25 0 0 0.255 0 0.02 0.255 0 0.04 0.255 0 0.06 0.255 0 0.08 0.255 0 0.1 0.255 0 0 0.26 0 0.02 0.26 0 0.04 0.26 0 0.06 0.26 0 0.08 0.26 0 0.1 0.26 0 0 0.265 0 0.02 0.265 0 0.04 0.265 0 0.06 0.265 0 0.08 0.265 0 0.1 0.265 0 0 0.27 0 0.02 0.27 0 0.04 0.27 0 0.06 0.27 0 0.08 0.27 0 0.1 0.27 0 0 0.275 0 0.02 0.275 0 0.04 0.275 0 0.06 0.275 0 0.08 0.275 0 0.1 0.275 0 0 0.28 0 0.02 0.28 0 0.04 0.28 0 0.06 0.28 0 0.08 0.28 0 0.1 0.28 0 0 0.285 0 0.02 0.285 0 0.04 0.285 0 0.06 0.285 0 0.08 0.285 0 0.1 0.285 0 0 0.29 0 0.02 0.29 0 0.04 0.29 0 0.06 0.29 0 0.08 0.29 0 0.1 0.29 0 0 0.295 0 0.02 0.295 0 0.04 0.295 0 0.06 0.295 0 0.08 0.295 0 0.1 0.295 0 0 0.3 0 0.02 0.3 0 0.04 0.3 0 0.06 0.3 0 0.08 0.3 0 0.1 0.3 0 0 0.305 0 0.02 0.305 0 0.04 0.305 0 0.06 0.305 0 0.08 0.305 0 0.1 0.305 0 0 0.31 0 0.02 0.31 0 0.04 0.31 0 0.06 0.31 0 0.08 0.31 0 0.1 0.31 0 0 0.315 0 0.02 0.315 0 0.04 0.315 0 0.06 0.315 0 0.08 0.315 0 0.1 0.315 0 0 0.32 0 0.02 0.32 0 0.04 0.32 0 0.06 0.32 0 0.08 0.32 0 0.1 0.32 0 0 0.325 0 0.02 0.325 0 0.04 0.325 0 0.06 0.325 0 0.08 0.325 0 0.1 0.325 0 0 0.33 0 0.02 0.33 0 0.04 0.33 0 0.06 0.33 0 0.08 0.33 0 0.1 0.33 0 0 0.335 0 0.02 0.335 0 0.04 0.335 0 0.06 0.335 0 0.08 0.335 0 0.1 0.335 0 0 0.34 0 0.02 0.34 0 0.04 0.34 0 0.06 0.34 0 0.08 0.34 0 0.1 0.34 0 0 0.345 0 0.02 0.345 0 0.04 0.345 0 0.06 0.345 0 0.08 0.345 0 0.1 0.345 0 0 0.35 0 0.02 0.35 0 0.04 0.35 0 0.06 0.35 0 0.08 0.35 0 0.1 0.35 0 0 0.355 0 0.02 0.355 0 0.04 0.355 0 0.06 0.355 0 0.08 0.355 0 0.1 0.355 0 0 0.36 0 0.02 0.36 0 0.04 0.36 0 0.06 0.36 0 0.08 0.36 0 0.1 0.36 0 0 0.365 0 0.02 0.365 0 0.04 0.365 0 0.06 0.365 0 0.08 0.365 0 0.1 0.365 0 0 0.37 0 0.02 0.37 0 0.04 0.37 0 0.06 0.37 0 0.08 0.37 0 0.1 0.37 0 0 0.375 0 0.02 0.375 0 0.04 0.375 0 0.06 0.375 0 0.08 0.375 0 0.1 0.375 0 0 0.38 0 0.02 0.38 0 0.04 0.38 0 0.06 0.38 0 0.08 0.38 0 0.1 0.38 0 0 0.385 0 0.02 0.385 0 0.04 0.385 0 0.06 0.385 0 0.08 0.385 0 0.1 0.385 0 0 0.39 0 0.02 0.39 0 0.04 0.39 0 0.06 0.39 0 0.08 0.39 0 0.1 0.39 0 0 0.395002 0 0.02 0.395002 0 0.04 0.395002 0 0.06 0.395002 0 0.08 0.395002 0 0.1 0.395002 0 0 0.400007 0 0.02 0.400007 0 0.04 0.400007 0 0.06 0.400007 0 0.08 0.400007 0 0.1 0.400007 0 0 0.405027 0 0.02 0.405027 0 0.04 0.405027 0 0.06 0.405027 0 0.08 0.405027 0 0.1 0.405027 0 0 0.410084 0 0.02 0.410084 0 0.04 0.410084 0 0.06 0.410084 0 0.08 0.410084 0 0.1 0.410084 0 0 0.41522 0 0.02 0.41522 0 0.04 0.41522 0 0.06 0.41522 0 0.08 0.41522 0 0.1 0.41522 0 0 0.420495 0 0.02 0.420495 0 0.04 0.420495 0 0.06 0.420495 0 0.08 0.420495 0 0.1 0.420495 0 0 0.425972 0 0.02 0.425972 0 0.04 0.425972 0 0.06 0.425972 0 0.08 0.425972 0 0.1 0.425972 0 0 0.431709 0 0.02 0.431709 0 0.04 0.431709 0 0.06 0.431709 0 0.08 0.431709 0 0.1 0.431709 0 0 0.43776 0 0.02 0.43776 0 0.04 0.43776 0 0.06 0.43776 0 0.08 0.43776 0 0.1 0.43776 0 0 0.444178 0 0.02 0.444178 0 0.04 0.444178 0 0.06 0.444178 0 0.08 0.444178 0 0.1 0.444178 0 0 0.451025 0 0.02 0.451025 0 0.04 0.451025 0 0.06 0.451025 0 0.08 0.451025 0 0.1 0.451025 0 0 0.458372 0 0.02 0.458372 0 0.04 0.458372 0 0.06 0.458372 0 0.08 0.458372 0 0.1 0.458372 0 0 0.466308 0 0.02 0.466308 0 0.04 0.466308 0 0.06 0.466308 0 0.08 0.466308 0 0.1 0.466308 0 0 0.474945 0 0.02 0.474945 0 0.04 0.474945 0 0.06 0.474945 0 0.08 0.474945 0 0.1 0.474945 0 0 0.484418 0 0.02 0.484418 0 0.04 0.484418 0 0.06 0.484418 0 0.08 0.484418 0 0.1 0.484418 0 0 0.494878 0 0.02 0.494878 0 0.04 0.494878 0 0.06 0.494878 0 0.08 0.494878 0 0.1 0.494878 0 0 0.506423 0 0.02 0.506423 0 0.04 0.506423 0 0.06 0.506423 0 0.08 0.506423 0 0.1 0.506423 0 0 0.518756 0 0.02 0.518756 0 0.04 0.518756 0 0.06 0.518756 0 0.08 0.518756 0 0.1 0.518756 0 0 0.530987 0 0.02 0.530987 0 0.04 0.530987 0 0.06 0.530987 0 0.08 0.530987 0 0.1 0.530987 0 0 0.542971 0 0.02 0.542971 0 0.04 0.542971 0 0.06 0.542971 0 0.08 0.542971 0 0.1 0.542971 0 0 0.554798 0 0.02 0.554798 0 0.04 0.554798 0 0.06 0.554798 0 0.08 0.554798 0 0.1 0.554798 0 0 0.566589 0 0.02 0.566589 0 0.04 0.566589 0 0.06 0.566589 0 0.08 0.566589 0 0.1 0.566589 0 0 0.569205 0 0.02 0.569205 0 0.04 0.569205 0 0.06 0.569205 0 0.08 0.569205 0 0.1 0.569205 0 0 0.571747 0 0.02 0.571747 0 0.04 0.571747 0 0.06 0.571747 0 0.08 0.571747 0 0.1 0.571747 0 0 0.574243 0 0.02 0.574243 0 0.04 0.574243 0 0.06 0.574243 0 0.08 0.574243 0 0.1 0.574243 0 0 0.576708 0 0.02 0.576708 0 0.04 0.576708 0 0.06 0.576708 0 0.08 0.576708 0 0.1 0.576708 0 0 0.579152 0 0.02 0.579152 0 0.04 0.579152 0 0.06 0.579152 0 0.08 0.579152 0 0.1 0.579152 0 0 0.58158 0 0.02 0.58158 0 0.04 0.58158 0 0.06 0.58158 0 0.08 0.58158 0 0.1 0.58158 0 0 0.584 0 0.02 0.584 0 0.04 0.584 0 0.06 0.584 0 0.08 0.584 0 0.1 0.584 0 0 0.586417 0 0.02 0.586417 0 0.04 0.586417 0 0.06 0.586417 0 0.08 0.586417 0 0.1 0.586417 0 0 0.588835 0 0.02 0.588835 0 0.04 0.588835 0 0.06 0.588835 0 0.08 0.588835 0 0.1 0.588835 0 0 0.591239 0 0.02 0.591239 0 0.04 0.591239 0 0.06 0.591239 0 0.08 0.591239 0 0.1 0.591239 0 0 0.593632 0 0.02 0.593632 0 0.04 0.593632 0 0.06 0.593632 0 0.08 0.593632 0 0.1 0.593632 0 0 0.596022 0 0.02 0.596022 0 0.04 0.596022 0 0.06 0.596022 0 0.08 0.596022 0 0.1 0.596022 0 0 0.598409 0 0.02 0.598409 0 0.04 0.598409 0 0.06 0.598409 0 0.08 0.598409 0 0.1 0.598409 0 0 0.600798 0 0.02 0.600798 0 0.04 0.600798 0 0.06 0.600798 0 0.08 0.600798 0 0.1 0.600798 0 0 0.603185 0 0.02 0.603185 0 0.04 0.603185 0 0.06 0.603185 0 0.08 0.603185 0 0.1 0.603185 0 0 0.605568 0 0.02 0.605568 0 0.04 0.605568 0 0.06 0.605568 0 0.08 0.605568 0 0.1 0.605568 0 0 0.607945 0 0.02 0.607945 0 0.04 0.607945 0 0.06 0.607945 0 0.08 0.607945 0 0.1 0.607945 0 0 0.610328 0 0.02 0.610328 0 0.04 0.610328 0 0.06 0.610328 0 0.08 0.610328 0 0.1 0.610328 0 0 0.612742 0 0.02 0.612742 0 0.04 0.612742 0 0.06 0.612742 0 0.08 0.612742 0 0.1 0.612742 0 0 0.615196 0 0.02 0.615196 0 0.04 0.615196 0 0.06 0.615196 0 0.08 0.615196 0 0.1 0.615196 0 0 0.617724 0 0.02 0.617724 0 0.04 0.617724 0 0.06 0.617724 0 0.08 0.617724 0 0.1 0.617724 0 0 0.620334 0 0.02 0.620334 0 0.04 0.620334 0 0.06 0.620334 0 0.08 0.620334 0 0.1 0.620334 0 0 0.623097 0 0.02 0.623097 0 0.04 0.623097 0 0.06 0.623097 0 0.08 0.623097 0 0.1 0.623097 0 0 0.62604 0 0.02 0.62604 0 0.04 0.62604 0 0.06 0.62604 0 0.08 0.62604 0 0.1 0.62604 0 0 0.629249 0 0.02 0.629249 0 0.04 0.629249 0 
[...]
			<PointData Scalars="VitesseX">
				<DataArray Name="VitesseX" type="Float32" format="ascii">
 0 -1.72462e-15 -1.64975e-15 5.08098e-15 2.80407e-15 0 0 -1.94593e-15 -1.05475e-15 4.36899e-15 3.04357e-15 0 0 -2.19834e-15 2.36576e-16 3.44535e-15 2.7157e-15 0 0 -1.65815e-15 2.22741e-16 3.7806e-15 1.63267e-15 0 0 -1.44668e-15 -1.50424e-16 3.29627e-15 3.20516e-15 0 0 -1.03832e-16 -2.24794e-15 4.90843e-15 4.02178e-15 0 0 9.39953e-16 -3.30287e-15 6.81971e-15 2.229e-15 0 0 -5.5228e-17 7.00872e-16 2.55612e-15 3.04121e-15 0 0 6.85057e-16 1.77512e-16 2.76346e-15 2.31054e-15 0 0 3.43285e-15 -3.57291e-15 5.62852e-15 1.23414e-15 0 0 2.91475e-15 -1.23902e-15 1.26894e-15 4.06496e-15 0 0 3.63807e-16 2.31255e-15 -4.06347e-15 9.65012e-15 0 0 -9.39323e-16 4.02898e-15 -5.5408e-15 1.19074e-14 0 0 6.86606e-16 -1.70984e-16 8.65182e-17 7.37878e-15 0 0 7.91377e-16 1.99101e-15 -2.52971e-15 7.73945e-15 0 0 -9.86962e-16 5.45455e-15 -4.59717e-15 8.1628e-15 0 0 9.97462e-16 7.50274e-17 1.13312e-15 6.10168e-15 0 0 -4.7604e-16 9.56105e-16 3.35618e-16 5.42341e-15 0 0 5.37618e-16 -4.40864e-18 -1.09199e-15 8.40266e-15 0 0 5.35455e-16 1.38146e-15 -1.29497e-15 7.84284e-15 0 0 -3.02884e-15 5.83757e-15 1.95359e-15 1.30561e-15 0 0 -3.90494e-15 8.69543e-15 1.29368e-15 -4.54746e-16 0 0 -2.23328e-15 8.54828e-15 -1.03413e-15 6.51854e-15 0 0 2.34654e-15 1.32775e-15 4.43133e-15 7.66178e-15 0 0 3.22021e-15 -2.39363e-15 7.17546e-15 3.2802e-15 0 0 3.58344e-15 8.78598e-17 -1.99576e-15 1.1404e-14 0 0 7.10008e-15 -6.47358e-15 -4.6192e-15 1.51667e-14 0 0 -2.47455e-16 -8.27373e-16 -8.26728e-16 7.53783e-15 0 0 -8.49052e-15 1.24467e-14 5.78392e-16 1.18056e-15 0 0 -2.7803e-15 9.6236e-15 -6.34534e-16 9.60469e-16 0 0 3.1139e-15 1.06144e-15 -2.02316e-15 4.14295e-15 0 0 2.28536e-15 -7.55087e-15 8.01486e-15 4.58642e-15 0 0 -1.75572e-15 1.76326e-15 6.59981e-15 1.23642e-15 0 0 -5.23404e-15 1.29704e-14 -8.24306e-15 4.99498e-15 0 0 -1.76098e-15 5.50196e-15 -5.50956e-15 1.17825e-14 0 0 2.32363e-15 4.62258e-15 -4.26109e-15 1.00282e-14 0 0 6.38188e-17 7.6413e-15 -6.82916e-15 7.45138e-15 0 0 -4.2013e-16 6.47165e-16 -5.0457e-15 1.33076e-14 0 0 4.47612e-17 -4.11654e-15 -1.78228e-16 4.85429e-15 0 0 6.7525e-16 2.82019e-16 -3.17821e-15 -8.82358e-15 0 0 8.66974e-15 9.97069e-17 -1.19856e-14 3.84352e-15 0 0 1.06547e-14 5.83159e-15 -1.72307e-14 1.32031e-14 0 0 7.40632e-15 1.07839e-14 -1.64834e-14 9.05184e-15 0 0 1.02479e-14 2.56548e-15 -3.81034e-15 1.01982e-15 0 0 5.79209e-15 7.79773e-15 -3.79756e-15 5.29342e-15 0 0 -2.24176e-15 1.92411e-14 -7.89574e-15 7.42744e-15 0 0 1.01234e-15 1.46668e-14 1.43497e-15 -3.23004e-15 0 0 7.0963e-15 5.86319e-15 1.07038e-14 -6.05843e-15 0 0 3.29394e-15 8.72427e-15 1.02576e-14 -7.44837e-15 0 0 -3.08006e-17 1.11642e-14 1.40546e-14 -1.02653e-14 0 0 6.71875e-15 3.10343e-18 1.11437e-14 5.00414e-15 0 0 1.49267e-14 -5.6873e-15 7.89279e-15 5.60213e-15 0 0 5.78048e-15 1.01783e-14 -6.05095e-16 -2.80311e-15 0 0 -1.04373e-14 1.45169e-14 -3.38681e-15 -2.19372e-15 0 0 1.84553e-15 -8.73966e-15 1.10469e-14 -3.69516e-15 0 0 9.45677e-15 -1.54488e-14 -2.2113e-15 1.89328e-14 0 0 2.07578e-15 -1.10276e-14 -6.37318e-15 3.09598e-14 0 0 -6.9123e-15 5.01411e-15 -2.40367e-15 1.28995e-14 0 0 5.72303e-15 -2.39518e-15 1.32475e-15 5.53762e-15 0 0 8.09453e-15 -2.16898e-15 -2.54366e-15 1.82201e-14 0 0 3.3235e-15 6.44718e-16 2.9019e-15 7.20433e-15 0 0 2.02147e-14 -2.7418e-14 2.28013e-14 -5.76215e-15 0 0 9.02559e-15 -6.45124e-15 2.50413e-15 5.94794e-17 0 0 6.76092e-15 1.50466e-14 -2.16133e-14 6.42809e-15 0 0 1.8215e-14 2.63545e-15 -1.51541e-14 -7.6298e-16 0 0 4.81717e-15 -5.68198e-15 -3.41069e-15 -2.28612e-15 0 0 1.80534e-15 -1.32469e-14 2.15937e-14 -1.81544e-14 0 0 4.10126e-15 -4.82606e-15 2.24723e-14 -1.84159e-14 0 0 7.29256e-15 2.07912e-14 1.77029e-14 -1.44552e-14 0 0 1.29766e-14 3.21994e-15 5.31257e-14 9.62771e-15 0 0 3.54818e-16 3.68718e-15 3.32071e-14 2.92839e-14 0 0 2.2935e-15 8.52294e-15 2.1334e-14 2.95106e-15 0 0 1.52573e-15 2.00238e-14 2.51245e-14 5.8171e-15 0 0 -2.00664e-15 1.44251e-14 1.85979e-14 1.5121e-14 0 0 -2.12025e-14 -8.2512e-15 2.2534e-14 8.44463e-15 0 0 -2.74158e-14 5.85623e-15 2.34584e-14 -2.17004e-14 0 0 -2.38508e-17 -1.73016e-14 1.65718e-14 -2.93811e-14 0 0 -4.88807e-15 -1.18375e-14 -1.19237e-14 -9.7744e-15 0 0 -2.12084e-14 2.18733e-14 -3.57233e-14 6.44742e-15 0 0 -2.61416e-14 4.54838e-15 -2.35258e-14 5.62493e-16 0 0 -2.40258e-14 -1.1244e-14 5.89605e-15 -1.78703e-14 0 0 -5.21948e-15 -2.14933e-15 -1.3998e-14 1.15061e-14 0 0 -2.47667e-15 -1.17908e-14 -2.02492e-14 1.18156e-14 0 0 -1.35496e-14 -7.39889e-15 -2.03614e-14 3.67837e-15 0 0 -1.7541e-14 1.43405e-14 -4.07088e-14 1.81026e-14 0 0 -8.34006e-16 2.38236e-16 -2.9967e-14 4.61253e-15 0 0 1.54315e-14 -2.4879e-14 -1.3533e-14 1.41673e-14 0 0 -9.80125e-15 -2.76222e-15 -8.73144e-15 4.26965e-15 0 0 -1.4499e-14 2.41753e-15 3.8556e-16 -2.18066e-14 0 0 7.79606e-15 -1.8616e-14 -2.98474e-15 -1.46005e-14 0 0 1.21644e-14 3.73062e-15 -1.68354e-14 -1.78749e-14 0 0 -4.4351e-15 3.34016e-15 -1.78363e-15 -2.75614e-14 0 0 -5.13044e-15 1.34592e-15 1.36389e-14 -2.11503e-14 0 0 3.23143e-15 7.70912e-17 1.25668e-14 1.25274e-14 0 0 1.32286e-14 2.79664e-15 1.08482e-14 3.86439e-15 0 0 9.74975e-16 -4.75019e-15 -2.60815e-14 -1.53492e-14 0 0 -7.23007e-14 -1.17248e-13 -1.15053e-13 -7.29345e-14 0 0 -1.59802e-13 -2.49826e-13 -2.40462e-13 -1.77016e-13 0 0 -1.78425e-13 -2.7169e-13 -2.73454e-13 -1.84886e-13 0 0 -7.42958e-14 -1.1738e-13 -1.20153e-13 -9.09435e-14 0 0 3.26643e-14 2.54209e-14 2.25174e-14 1.1427e-15 0 0 1.43553e-13 1.83413e-13 2.60562e-13 7.28126e-14 0 0 1.62617e-13 2.32108e-13 2.45866e-13 9.73111e-14 0 0 1.96898e-13 2.60042e-13 2.55968e-13 1.46433e-13 0 0 2.32646e-13 3.04314e-13 3.08697e-13 1.62149e-13 0 0 2.55817e-13 3.478e-13 3.51402e-13 1.79965e-13 0 0 2.47123e-13 3.80072e-13 3.30794e-13 2.16616e-13 0 0 1.88307e-13 2.82983e-13 2.16835e-13 1.56691e-13 0 0 2.04944e-14 -3.45371e-14 -6.80895e-14 2.55627e-14 0 0 -2.16679e-13 -3.62808e-13 -3.99371e-13 -2.32373e-13 0 0 -4.13286e-13 -6.6393e-13 -6.76553e-13 -4.62992e-13 0 0 -5.43346e-13 -8.67796e-13 -8.92795e-13 -5.40823e-13 0 0 -6.00923e-13 -9.62845e-13 -9.73719e-13 -5.75262e-13 0 0 -5.95819e-13 -1.01939e-12 -9.65427e-13 -6.0301e-13 0 0 -6.1917e-13 -9.9114e-13 -9.23178e-13 -6.60601e-13 0 0 -6.27527e-13 -9.42727e-13 -9.15431e-13 -6.64894e-13 0 0 -6.12702e-13 -9.12108e-13 -9.49606e-13 -5.70685e-13 0 0 -5.61167e-13 -9.27687e-13 -8.9182e-13 -5.90712e-13 0 0 -5.23897e-13 -9.38306e-13 -8.77512e-13 -5.63071e-13 0 0 -5.4393e-13 -8.94943e-13 -8.69957e-13 -4.99592e-13 0 0 -5.41755e-13 -8.47653e-13 -8.36111e-13 -5.01824e-13 0 0 -5.07353e-13 -8.43704e-13 -8.47119e-13 -4.68721e-13 0 0 -4.84513e-13 -7.99118e-13 -7.71975e-13 -4.84308e-13 0 0 -4.8314e-13 -7.59781e-13 -7.1654e-13 -4.6888e-13 0 0 -4.13698e-13 -6.9957e-13 -6.57498e-13 -3.82671e-13 0 0 -3.83758e-13 -5.8152e-13 -5.77294e-13 -3.63474e-13 0 0 -3.36959e-13 -4.26789e-13 -4.72812e-13 -3.16301e-13 0 0 -2.19753e-13 -3.64451e-13 -3.50547e-13 -2.02362e-13 0 0 -1.28115e-13 -2.63159e-13 -2.23731e-13 -1.20445e-13 0 0 -8.91143e-14 -1.11221e-13 -1.50033e-13 -6.69394e-14 0 0 -4.60375e-14 -3.7474e-14 -7.24119e-14 -2.23344e-14 0 0 -2.35789e-14 -1.74577e-14 -1.48555e-14 -8.51175e-15 0 0 -1.04285e-14 -1.367e-14 1.2432e-14 7.09886e-15 0 0 -8.75312e-16 6.24135e-16 -7.03667e-15 1.97516e-14 0 0 -2.53923e-15 1.76303e-14 -1.56704e-14 6.98519e-15 0 0 -9.15032e-15 1.28284e-14 1.39194e-14 -5.3787e-15 0 0 -1.35438e-14 4.55533e-15 3.09738e-14 -1.28387e-14 0 0 -4.55955e-15 -1.2293e-14 5.04303e-14 -1.00175e-14 0 0 -2.7726e-15 -2.41112e-14 6.6746e-14 -9.22652e-15 0 0 8.18106e-15 -3.997e-14 7.65525e-14 -2.92625e-14 0 0 -7.35064e-15 -1.98291e-14 4.66936e-14 -5.73865e-15 0 0 -2.5773e-14 2.17591e-15 3.31769e-14 3.0814e-15 0 0 -7.01865e-15 -2.50639e-14 7.34981e-14 -2.60143e-14 0 0 -1.29034e-14 -9.3117e-15 6.63918e-14 -1.57576e-14 0 0 -1.65877e-14 2.18065e-14 3.0986e-14 3.19713e-14 0 0 -8.52058e-16 3.53853e-14 3.45969e-14 4.56884e-14 0 0 8.9012e-15 3.79562e-14 5.51126e-14 3.55649e-14 0 0 1.82725e-14 4.46838e-14 3.05431e-14 6.35772e-14 0 0 3.509e-15 7.03476e-14 2.21589e-14 5.07948e-14 0 0 4.37782e-15 5.02763e-14 6.50509e-14 6.26821e-14 0 0 9.53564e-15 5.26502e-14 5.109e-14 1.12241e-13 0 0 -7.28649e-15 5.00895e-14 6.60455e-14 9.62467e-14 0 0 6.23358e-15 2.13145e-14 9.48062e-14 8.03742e-14 0 0 3.66114e-15 5.89938e-14 4.68699e-14 1.08901e-13 0 0 1.32386e-14 4.93691e-14 3.36521e-14 1.09769e-13 0 0 3.4766e-14 -5.54931e-15 8.02016e-14 4.14243e-14 0 0 6.35613e-15 3.88516e-14 8.16633e-14 -5.23099e-14 0 0 1.26083e-14 5.18784e-14 5.20887e-14 -5.45566e-14 0 0 3.78401e-14 2.77906e-14 -8.16676e-15 3.97866e-14 0 0 4.77873e-14 4.9513e-14 -4.6248e-14 4.43743e-14 0 0 4.16512e-14 6.90865e-14 -1.32473e-14 -3.75616e-14 0 0 1.70812e-14 5.49959e-14 3.50871e-14 -5.27014e-14 0 0 -1.94531e-14 8.25093e-14 5.97006e-14 -4.98032e-14 0 0 -8.09978e-14 1.73253e-13 1.01199e-14 -2.9272e-14 0 0 -4.55513e-14 1.14676e-13 3.35685e-14 -9.63399e-15 0 0 5.4696e-15 1.39506e-14 1.03855e-13 5.02689e-16 0 0 -2.2821e-14 5.16802e-14 8.64901e-14 -2.6648e-14 0 0 -4.57877e-14 8.83444e-14 1.15401e-13 -9.56769e-14 0 0 -4.46061e-15 5.6088e-14 1.19849e-13 -6.13301e-14 0 0 3.21705e-14 5.2392e-14 1.01102e-13 -5.22485e-14 0 0 -1.58071e-14 1.08082e-13 1.28511e-13 -9.89832e-14 0 0 -1.74856e-14 9.8685e-14 1.08873e-13 -9.14813e-14 0 0 4.21583e-14 2.62214e-14 9.47571e-14 -7.89567e-14 0 0 7.313e-14 -1.17347e-14 1.09814e-13 -9.68229e-14 0 0 4.26699e-14 2.52339e-14 8.13587e-14 -9.30759e-14 0 0 6.82544e-15 4.02998e-14 3.34555e-14 -3.61044e-14 0 0 -6.44961e-15 2.06554e-14 3.70256e-14 1.2077e-14 0 0 -6.31099e-15 3.43913e-14 5.46255e-14 2.32757e-14 0 0 1.246e-14 2.38778e-14 6.51607e-14 6.77552e-14 0 0 1.15164e-14 4.28977e-14 3.58386e-14 1.07174e-13 0 0 9.37705e-15 1.78266e-14 3.84998e-14 9.59609e-14 0 0 -2.20679e-14 -2.34965e-14 8.53579e-14 5.08002e-14 0 0 -6.07556e-15 -5.51079e-14 1.3693e-13 2.76886e-14 0 0 1.94004e-14 -6.12125e-14 1.50474e-13 8.25038e-14 0 0 -5.72531e-15 -1.56252e-15 7.0475e-14 1.37154e-13 0 0 -8.19178e-15 2.74265e-14 4.79371e-14 6.44151e-14 0 0 -1.37197e-14 2.73926e-14 7.69546e-14 -2.24416e-14 0 0 -2.1467e-15 1.26184e-14 5.05662e-14 -3.40507e-15 0 0 3.28489e-14 -1.65449e-14 7.31686e-14 2.21594e-14 0 0 -6.68508e-15 1.80451e-14 8.20957e-14 2.93436e-14 0 0 -2.64225e-14 2.02784e-14 8.65763e-14 3.39097e-14 0 0 -4.69038e-16 3.69005e-14 2.51449e-14 1.15203e-13 0 0 2.15447e-14 4.66672e-14 -1.51576e-14 1.58298e-13 0 0 3.87324e-14 2.44669e-14 5.22604e-14 1.20571e-13 0 0 1.11857e-14 4.9815e-14 7.46607e-14 4.98089e-14 0 0 1.84074e-14 2.78472e-14 8.36804e-14 -1.07326e-14 0 0 6.34988e-14 6.9232e-15 6.74701e-14 -7.21937e-15 0 0 7.61512e-14 -9.59664e-16 7.97984e-14 -9.06817e-15 0 0 1.45154e-14 5.62301e-14 2.74746e-14 3.18665e-14 0 0 -1.60316e-14 8.45907e-14 -4.9365e-14 8.5349e-14 0 0 -4.62627e-15 6.13e-14 -5.12789e-14 1.03871e-13 0
				</DataArray>
				<DataArray Name="VitesseY" type="Float32" format="ascii">