<?xml version="1.0"?>
<VTKFile type="PolyData">
	<PolyData>
		<Piece NumberOfPoints="1206" NumberOfPolys="1000">
			<Points>
				<DataArray type="Float32" NumberOfComponents="3" format="ascii">
 0 0 0 0.02 0 0 0.04 0 0 0.06 0 0 0.08 0 0 0.1 0 0 0 0.005 0 0.02 0.005 0 0.04 0.005 0 0.06 0.005 0 0.08 0.005 0 0.1 0.005 0 0 0.01 0 0.02 0.01 0 0.04 0.01 0 0.06 0.01 0 0.08 0.01 0 0.1 0.01 0 0 0.015 0 0.02 0.015 0 0.04 0.015 0 0.06 0.015 0 0.08 0.015 0 0.1 0.015 0 0 0.02 0 0.02 0.02 0 0.04 0.02 0 0.06 0.02 0 0.08 0.02 0 0.1 0.02 0 0 0.025 0 0.02 0.025 0 0.04 0.025 0 0.06 0.025 0 0.08 0.025 0 0.1 0.025 0 0 0.03 0 0.02 0.03 0 0.04 0.03 0 0.06 0.03 0 0.08 0.03 0 0.1 0.03 0 0 0.035 0 0.02 0.035 0 0.04 0.035 0 0.06 0.035 0 0.08 0.035 0 0.1 0.035 0 0 0.04 0 0.02 0.04 0 0.04 0.04 0 0.06 0.04 0 0.08 0.04 0 0.1 0.04 0 0 0.045 0 0.02 0.045 0 0.04 0.045 0 0.06 0.045 0 0.08 0.045 0 0.1 0.045 0 0 0.05 0 0.02 0.05 0 0.04 0.05 0 0.06 0.05 0 0.08 0.05 0 0.1 0.05 0 0 0.055 0 0.02 0.055 0 0.04 0.055 0 0.06 0.055 0 0.08 0.055 0 0.1 0.055 0 0 0.06 0 0.02 0.06 0 0.04 0.06 0 0.06 0.06 0 0.08 0.06 0 0.1 0.06 0 0 0.065 0 0.02 0.065 0 0.04 0.065 0 0.06 0.065 0 0.08 0.065 0 0.1 0.065 0 0 0.07 0 0.02 0.07 0 0.04 0.07 0 0.06 0.07 0 0.08 0.07 0 0.1 0.07 0 0 0.075 0 0.02 0.075 0 0.04 0.075 0 0.06 0.075 0 0.08 0.075 0 0.1 0.075 0 0 0.08 0 0.02 0.08 0 0.04 0.08 0 0.06 0.08 0 0.08 0.08 0 0.1 0.08 0 0 0.085 0 0.02 0.085 0 0.04 0.085 0 0.06 0.085 0 0.08 0.085 0 0.1 0.085 0 0 0.09 0 0.02 0.09 0 0.04 0.09 0 0.06 0.09 0 0.08 0.09 0 0.1 0.09 0 0 0.095 0 0.02 0.095 0 0.04 0.095 0 0.06 0.095 0 0.08 0.095 0 0.1 0.095 0 0 0.1 0 0.02 0.1 0 0.04 0.1 0 0.06 0.1 0 0.08 0.1 0 0.1 0.1 0 0 0.105 0 0.02 0.105 0 0.04 0.105 0 0.06 0.105 0 0.08 0.105 0 0.1 0.105 0 0 0.11 0 0.02 0.11 0 0.04 0.11 0 0.06 0.11 0 0.08 0.11 0 0.1 0.11 0 0 0.115 0 0.02 0.115 0 0.04 0.115 0 0.06 0.115 0 0.08 0.115 0 0.1 0.115 0 0 0.12 0 0.02 0.12 0 0.04 0.12 0 0.06 0.12 0 0.08 0.12 0 0.1 0.12 0 0 0.125 0 0.02 0.125 0 0.04 0.125 0 0.06 0.125 0 0.08 0.125 0 0.1 0.125 0 0 0.13 0 0.02 0.13 0 0.04 0.13 0 0.06 0.13 0 0.08 0.13 0 0.1 0.13 0 0 0.135 0 0.02 0.135 0 0.04 0.135 0 0.06 0.135 0 0.08 0.135 0 0.1 0.135 0 0 0.14 0 0.02 0.14 0 0.04 0.14 0 0.06 0.14 0 0.08 0.14 0 0.1 0.14 0 0 0.145 0 0.02 0.145 0 0.04 0.145 0 0.06 0.145 0 0.08 0.145 0 0.1 0.145 0 0 0.15 0 0.02 0.15 0 0.04 0.15 0 0.06 0.15 0 0.08 0.15 0 0.1 0.15 0 0 0.155 0 0.02 0.155 0 0.04 0.155 0 0.06 0.155 0 0.08 0.155 0 0.1 0.155 0 0 0.16 0 0.02 0.16 0 0.04 0.16 0 0.06 0.16 0 0.08 0.16 0 0.1 0.16 0 0 0.165 0 0.02 0.165 0 0.04 0.165 0 0.06 0.165 0 0.08 0.165 0 0.1 0.165 0 0 0.17 0 0.02 0.17 0 0.04 0.17 0 0.06 0.17 0 0.08 0.17 0 0.1 0.17 0 0 0.175 0 0.02 0.175 0 0.04 0.175 0 0.06 0.175 0 0.08 0.175 0 0.1 0.175 0 0 0.18 0 0.02 0.18 0 0.04 0.18 0 0.06 0.18 0 0.08 0.18 0 0.1 0.18 0 0 0.185 0 0.02 0.185 0 0.04 0.185 0 0.06 0.185 0 0.08 0.185 0 0.1 0.185 0 0 0.19 0 0.02 0.19 0 0.04 0.19 0 0.06 0.19 0 0.08 0.19 0 0.1 0.19 0 0 0.195 0 0.02 0.195 0 0.04 0.195 0 0.06 0.195 0 0.08 0.195 0 0.1 0.195 0 0 0.2 0 0.02 0.2 0 0.04 0.2 0 0.06 0.2 0 0.08 0.2 0 0.1 0.2 0 0 0.205 0 0.02 0.205 0 0.04 0.205 0 0.06 0.205 0 0.08 0.205 0 0.1 0.205 0 0 0.21 0 0.02 0.21 0 0.04 0.21 0 0.06 0.21 0 0.08 0.21 0 0.1 0.21 0 0 0.215 0 0.02 0.215 0 0.04 0.215 0 0.06 0.215 0 0.08 0.215 0 0.1 0.215 0 0 0.22 0 0.02 0.22 0 0.04 0.22 0 0.06 0.22 0 0.08 0.22 0 0.1 0.22 0 0 0.225 0 0.02 0.225 0 0.04 0.225 0 0.06 0.225 0 0.08 0.225 0 0.1 0.225 0 0 0.23 0 0.02 0.23 0 0.04 0.23 0 0.06 0.23 0 0.08 0.23 0 0.1 0.23 0 0 0.235 0 0.02 0.235 0 0.04 0.235 0 0.06 0.235 0 0.08 0.235 0 0.1 0.235 0 0 0.24 0 0.02 0.24 0 0.04 0.24 0 0.06 0.24 0 0.08 0.24 0 0.1 0.24 0 0 0.245 0 0.02 0.245 0 0.04 0.245 0 0.06 0.245 0 0.08 0.245 0 0.1 0.245 0 0 0.25 0 0.02 0.25 0 0.04 0.25 0 0.06 0.25 0 0.08 0.25 0 0.1 0.25 0 0 0.255 0 0.02 0.255 0 0.04 0.255 0 0.06 0.255 0 0.08 0.255 0 0.1 0.255 0 0 0.26 0 0.02 0.26 0 0.04 0.26 0 0.06 0.26 0 0.08 0.26 0 0.1 0.26 0 0 0.265 0 0.02 0.265 0 0.04 0.265 0 0.06 0.265 0 0.08 0.265 0 0.1 0.265 0 0 0.27 0 0.02 0.27 0 0.04 0.27 0 0.06 0.27 0 0.08 0.27 0 0.1 0.27 0 0 0.275 0 0.02 0.275 0 0.04 0.275 0 0.06 0.275 0 0.08 0.275 0 0.1 0.275 0 0 0.28 0 0.02 0.28 0 0.04 0.28 0 0.06 0.28 0 0.08 0.28 0 0.1 0.28 0 0 0.285 0 0.02 0.285 0 0.04 0.285 0 0.06 0.285 0 0.08 0.285 0 0.1 0.285 0 0 0.29 0 0.02 0.29 0 0.04 0.29 0 0.06 0.29 0 0.08 0.29 0 0.1 0.29 0 0 0.295 0 0.02 0.295 0 0.04 0.295 0 0.06 0.295 0 0.08 0.295 0 0.1 0.295 0 0 0.3 0 0.02 0.3 0 0.04 0.3 0 0.06 0.3 0 0.08 0.3 0 0.1 0.3 0 0 0.305 0 0.02 0.305 0 0.04 0.305 0 0.06 0.305 0 0.08 0.305 0 0.1 0.305 0 0 0.31 0 0.02 0.31 0 0.04 0.31 0 0.06 0.31 0 0.08 0.31 0 0.1 0.31 0 0 0.315 0 0.02 0.315 0 0.04 0.315 0 0.06 0.315 0 0.08 0.315 0 0.1 0.315 0 0 0.32 0 0.02 0.32 0 0.04 0.32 0 0.06 0.32 0 0.08 0.32 0 0.1 0.32 0 0 0.325 0 0.02 0.325 0 0.04 0.325 0 0.06 0.325 0 0.08 0.325 0 0.1 0.325 0 0 0.33 0 0.02 0.33 0 0.04 0.33 0 0.06 0.33 0 0.08 0.33 0 0.1 0.33 0 0 0.335 0 0.02 0.335 0 0.04 0.335 0 0.06 0.335 0 0.08 0.335 0 0.1 0.335 0 0 0.34 0 0.02 0.34 0 0.04 0.34 0 0.06 0.34 0 0.08 0.34 0 0.1 0.34 0 0 0.345 0 0.02 0.345 0 0.04 0.345 0 0.06 0.345 0 0.08 0.345 0 0.1 0.345 0 0 0.35 0 0.02 0.35 0 0.04 0.35 0 0.06 0.35 0 0.08 0.35 0 0.1 0.35 0 0 0.355 0 0.02 0.355 0 0.04 0.355 0 0.06 0.355 0 0.08 0.355 0 0.1 0.355 0 0 0.36 0 0.02 0.36 0 0.04 0.36 0 0.06 0.36 0 0.08 0.36 0 0.1 0.36 0 0 0.365 0 0.02 0.365 0 0.04 0.365 0 0.06 0.365 0 0.08 0.365 0 0.1 0.365 0 0 0.37 0 0.02 0.37 0 0.04 0.37 0 0.06 0.37 0 0.08 0.37 0 0.1 0.37 0 0 0.375 0 0.02 0.375 0 0.04 0.375 0 0.06 0.375 0 0.08 0.375 0 0.1 0.375 0 0 0.38 0 0.02 0.38 0 0.04 0.38 0 0.06 0.38 0 0.08 0.38 0 0.1 0.38 0 0 0.385 0 0.02 0.385 0 0.04 0.385 0 0.06 0.385 0 0.08 0.385 0 0.1 0.385 0 0 0.39 0 0.02 0.39 0 0.04 0.39 0 0.06 0.39 0 0.08 0.39 0 0.1 0.39 0 0 0.395 0 0.02 0.395 0 0.04 0.395 0 0.06 0.395 0 0.08 0.395 0 0.1 0.395 0 0 0.4 0 0.02 0.4 0 0.04 0.4 0 0.06 0.4 0 0.08 0.4 0 0.1 0.4 0 0 0.405 0 0.02 0.405 0 0.04 0.405 0 0.06 0.405 0 0.08 0.405 0 0.1 0.405 0 0 0.41 0 0.02 0.41 0 0.04 0.41 0 0.06 0.41 0 0.08 0.41 0 0.1 0.41 0 0 0.415 0 0.02 0.415 0 0.04 0.415 0 0.06 0.415 0 0.08 0.415 0 0.1 0.415 0 0 0.42 0 0.02 0.42 0 0.04 0.42 0 0.06 0.42 0 0.08 0.42 0 0.1 0.42 0 0 0.425 0 0.02 0.425 0 0.04 0.425 0 0.06 0.425 0 0.08 0.425 0 0.1 0.425 0 0 0.43 0 0.02 0.43 0 0.04 0.43 0 0.06 0.43 0 0.08 0.43 0 0.1 0.43 0 0 0.435002 0 0.02 0.435002 0 0.04 0.435002 0 0.06 0.435002 0 0.08 0.435002 0 0.1 0.435002 0 0 0.440009 0 0.02 0.440009 0 0.04 0.440009 0 0.06 0.440009 0 0.08 0.440009 0 0.1 0.440009 0 0 0.445043 0 0.02 0.445043 0 0.04 0.445043 0 0.06 0.445043 0 0.08 0.445043 0 0.1 0.445043 0 0 0.45016 0 0.02 0.45016 0 0.04 0.45016 0 0.06 0.45016 0 0.08 0.45016 0 0.1 0.45016 0 0 0.455468 0 0.02 0.455468 0 0.04 0.455468 0 0.06 0.455468 0 0.08 0.455468 0 0.1 0.455468 0 0 0.461116 0 0.02 0.461116 0 0.04 0.461116 0 0.06 0.461116 0 0.08 0.461116 0 0.1 0.461116 0 0 0.467264 0 0.02 0.467264 0 0.04 0.467264 0 0.06 0.467264 0 0.08 0.467264 0 0.1 0.467264 0 0 0.474086 0 0.02 0.474086 0 0.04 0.474086 0 0.06 0.474086 0 0.08 0.474086 0 0.1 0.474086 0 0 0.481798 0 0.02 0.481798 0 0.04 0.481798 0 0.06 0.481798 0 0.08 0.481798 0 0.1 0.481798 0 0 0.490693 0 0.02 0.490693 0 0.04 0.490693 0 0.06 0.490693 0 0.08 0.490693 0 0.1 0.490693 0 0 0.501152 0 0.02 0.501152 0 0.04 0.501152 0 0.06 0.501152 0 0.08 0.501152 0 0.1 0.501152 0 0 0.513308 0 0.02 0.513308 0 0.04 0.513308 0 0.06 0.513308 0 0.08 0.513308 0 0.1 0.513308 0 0 0.525764 0 0.02 0.525764 0 0.04 0.525764 0 0.06 0.525764 0 0.08 0.525764 0 0.1 0.525764 0 0 0.537783 0 0.02 0.537783 0 0.04 0.537783 0 0.06 0.537783 0 0.08 0.537783 0 0.1 0.537783 0 0 0.540422 0 0.02 0.540422 0 0.04 0.540422 0 0.06 0.540422 0 0.08 0.540422 0 0.1 0.540422 0 0 0.542986 0 0.02 0.542986 0 0.04 0.542986 0 0.06 0.542986 0 0.08 0.542986 0 0.1 0.542986 0 0 0.545504 0 0.02 0.545504 0 0.04 0.545504 0 0.06 0.545504 0 0.08 0.545504 0 0.1 0.545504 0 0 0.547992 0 0.02 0.547992 0 0.04 0.547992 0 0.06 0.547992 0 0.08 0.547992 0 0.1 0.547992 0 0 0.55046 0 0.02 0.55046 0 0.04 0.55046 0 0.06 0.55046 0 0.08 0.55046 0 0.1 0.55046 0 0 0.552912 0 0.02 0.552912 0 0.04 0.552912 0 0.06 0.552912 0 0.08 0.552912 0 0.1 0.552912 0 0 0.555356 0 0.02 0.555356 0 0.04 0.555356 0 0.06 0.555356 0 0.08 0.555356 0 0.1 0.555356 0 0 0.557802 0 0.02 0.557802 0 0.04 0.557802 0 0.06 0.557802 0 0.08 0.557802 0 0.1 0.557802 0 0 0.560274 0 0.02 0.560274 0 0.04 0.560274 0 0.06 0.560274 0 0.08 0.560274 0 0.1 0.560274 0 0 0.562788 0 0.02 0.562788 0 0.04 0.562788 0 0.06 0.562788 0 0.08 0.562788 0 0.1 0.562788 0 0 0.565362 0 0.02 0.565362 0 0.04 0.565362 0 0.06 0.565362 0 0.08 0.565362 0 0.1 0.565362 0 0 0.568075 0 0.02 0.568075 0 0.04 0.568075 0 0.06 0.568075 0 0.08 0.568075 0 0.1 0.568075 0 0 0.570969 0 0.02 0.570969 0 0.04 0.570969 0 0.06 0.570969 0 0.08 0.570969 0 0.1 0.570969 0 0 0.574138 0 0.02 0.574138 0 0.04 0.574138 0 0.06 0.574138 0 0.08 0.574138 0 0.1 0.574138 0 0 0.577631 0 0.02 0.577631 0 0.04 0.577631 0 0.06 0.577631 0 0.08 0.577631 0 0.1 0.577631 0 0 0.5815 0 0.02 0.5815 0 0.04 0.5815 0 0.06 0.5815 0 0.08 0.5815 0 0.1 0.5815 0 0 0.585745 0 0.02 0.585745 0 0.04 0.585745 0 0.06 0.585745 0 0.08 0.585745 0 0.1 0.585745 0 0 0.590314 0 0.02 0.590314 0 0.04 0.590314 0 0.06 0.590314 0 0.08 0.590314 0 0.1 0.590314 0 0 0.595112 0 0.02 0.595112 0 0.04 0.595112 0 0.06 0.595112 0 0.08 0.595112 0 0.1 0.595112 0 0 0.600035 0 0.02 0.600035 0 0.04 0.600035 0 0.06 0.600035 0 0.08 0.600035 0 0.1 0.600035 0 0 0.60501 0 0.02 0.60501 0 0.04 0.60501 0 0.06 0.60501 0 0.08 0.60501 0 0.1 0.60501 0 0 0.610003 0 0.02 0.610003 0 0.04 0.610003 0 0.06 0.610003 0 0.08 0.610003 0 0.1 0.610003 0 0 0.615001 0 0.02 0.615001 0 0.04 0.615001 0 0.06 0.615001 0 0.08 0.615001 0 0.1 0.615001 0 0 0.62 0 0.02 0.62 0 0.04 0.62 0 0.06 0.62 0 0.08 0.62 0 0.1 0.62 0 0 0.625 0 0.02 0.625 0 0.04 0.625 0 0.06 0.625 0 0.08 0.625 0 0.1 0.625 0 0 0.63 0 0.02 0.63 0 0.04 0.63 0 0.06 0.63 0 0.08 0.63 0 0.1 0.63 0 0 0.635 0 0.02 0.635 0 0.04 0.635 0 0.06 0.635 0 0.08 0.635 0 0.1 0.635 0 0 0.64 0 0.02 0
[...]
			<PointData Scalars="VitesseX">
				<DataArray Name="VitesseX" type="Float32" format="ascii">
 0 6.26322e-16 -6.94326e-16 1.90689e-15 -8.94764e-16 0 0 4.9237e-16 -6.30301e-16 2.33783e-15 -1.23977e-15 0 0 -2.88545e-16 -3.36211e-16 3.01416e-15 -1.40823e-15 0 0 -1.48665e-15 6.81282e-16 2.41229e-15 1.14814e-16 0 0 -2.10026e-15 4.50586e-16 2.34513e-15 5.8342e-16 0 0 -2.86787e-15 7.76002e-16 1.43247e-15 2.2377e-15 0 0 -2.10715e-15 6.13769e-16 4.65893e-16 4.18035e-15 0 0 1.12881e-15 -2.76016e-15 2.83899e-15 1.84968e-15 0 0 2.22665e-15 -2.43146e-15 3.03237e-15 8.20579e-16 0 0 1.17296e-15 -1.02429e-15 2.35035e-15 1.97364e-15 0 0 1.93536e-16 3.97118e-16 2.49693e-16 2.40102e-15 0 0 1.2315e-15 -1.11184e-15 3.23263e-15 -9.05109e-16 0 0 5.88224e-17 6.27932e-17 4.31934e-15 -1.23181e-15 0 0 -4.01101e-16 3.11651e-15 -9.49697e-16 2.00941e-15 0 0 1.3486e-15 -1.47987e-15 1.46835e-15 3.39942e-15 0 0 6.6082e-17 -8.30537e-16 -5.38825e-16 8.07103e-15 0 0 -5.88204e-16 3.46395e-15 -4.56629e-15 1.17444e-14 0 0 -1.35562e-15 3.99657e-15 -9.58845e-16 1.03925e-14 0 0 -2.19055e-15 4.03942e-15 -4.5602e-16 9.88189e-15 0 0 -1.68843e-15 6.78359e-15 -3.70336e-15 4.39091e-15 0 0 -2.82852e-15 7.86845e-15 -2.33952e-16 -4.44139e-15 0 0 -1.02549e-15 1.33737e-15 6.02395e-15 -4.85158e-15 0 0 2.4807e-15 -3.11106e-15 3.02399e-15 1.43127e-15 0 0 -3.3324e-16 -8.23783e-16 -1.19053e-15 6.98133e-15 0 0 -2.94123e-15 4.28566e-15 -6.42952e-15 9.4003e-15 0 0 -1.85217e-15 5.77825e-15 -5.44095e-15 7.97747e-15 0 0 -4.55773e-15 6.07589e-15 -4.77882e-16 2.65516e-15 0 0 -9.47577e-16 2.4205e-15 -5.08687e-15 5.21785e-15 0 0 5.21996e-15 -3.23342e-15 -4.82173e-15 1.11815e-14 0 0 -1.58763e-15 4.0456e-15 1.41769e-15 7.95655e-15 0 0 -7.09262e-16 6.86999e-15 -2.31849e-15 1.21149e-14 0 0 4.87404e-15 3.03999e-15 -3.1708e-15 1.02534e-14 0 0 5.35272e-15 3.88164e-15 -3.47456e-15 4.40228e-15 0 0 5.49748e-15 1.40201e-15 -1.58158e-15 6.97175e-16 0 0 3.2193e-16 5.00506e-16 4.18956e-15 -5.99744e-15 0 0 4.83136e-15 -3.34051e-15 5.98603e-15 -6.60042e-15 0 0 6.95366e-15 -6.5138e-15 9.60628e-15 -5.39416e-16 0 0 3.44396e-15 8.43003e-16 2.0043e-15 1.18439e-14 0 0 5.77074e-15 1.57994e-15 4.75427e-15 1.66285e-14 0 0 1.83178e-15 -2.09735e-15 1.42296e-14 1.96899e-14 0 0 -2.47567e-15 3.37432e-15 1.33435e-14 7.2446e-15 0 0 2.48852e-15 1.72764e-15 1.55035e-14 4.95598e-15 0 0 7.62535e-15 -1.38391e-15 1.07783e-14 2.22144e-14 0 0 1.07254e-14 1.22784e-15 -1.28598e-15 2.69064e-14 0 0 5.37339e-15 -3.50431e-15 9.6823e-15 1.1171e-14 0 0 2.46345e-15 -7.29819e-15 2.60887e-14 -1.19327e-14 0 0 3.80225e-15 -3.56834e-15 2.35531e-14 -1.69308e-14 0 0 4.01276e-15 -4.86808e-15 1.65986e-14 -2.22281e-15 0 0 5.18021e-15 -3.08657e-15 9.33931e-15 1.11839e-14 0 0 9.72509e-16 1.22994e-14 -4.413e-15 1.69386e-14 0 0 -1.39949e-15 1.38025e-14 -1.13804e-14 2.10499e-14 0 0 -6.56597e-15 1.79188e-14 -1.53121e-14 1.78612e-14 0 0 9.25261e-15 6.9421e-15 -1.38179e-15 7.75473e-15 0 0 1.34547e-14 -2.68137e-15 1.11329e-14 -1.29744e-14 0 0 4.89008e-16 1.21937e-14 8.1735e-16 -1.73254e-14 0 0 3.45432e-15 6.27977e-15 3.53792e-15 -9.0578e-15 0 0 7.39782e-15 -1.94083e-15 3.19276e-15 -6.46287e-15 0 0 1.76157e-14 -1.46759e-14 2.05472e-14 -1.56248e-14 0 0 7.21414e-15 -3.06947e-17 1.15232e-14 -7.74824e-15 0 0 -4.3297e-15 2.11453e-14 -1.73865e-14 1.26639e-14 0 0 2.08282e-15 6.08232e-15 2.8214e-15 4.85655e-15 0 0 -7.68294e-16 4.27582e-15 -9.73429e-16 1.14727e-14 0 0 1.73182e-15 -3.23646e-15 -1.15994e-15 1.00486e-14 0 0 6.28066e-15 -1.09851e-14 7.6342e-15 2.0533e-15 0 0 2.69844e-15 4.33592e-15 -1.05556e-14 9.72373e-15 0 0 7.35968e-15 -6.29748e-15 6.70606e-15 -6.17643e-15 0 0 6.50195e-15 1.89881e-16 4.29008e-15 -2.54637e-15 0 0 8.83455e-15 3.75502e-15 1.00006e-14 -7.18881e-15 0 0 7.06603e-15 7.11915e-15 1.7748e-14 -2.43946e-14 0 0 6.30275e-15 8.78939e-15 -4.49481e-15 -7.89e-15 0 0 1.80198e-14 -2.06325e-14 1.09657e-14 -1.16353e-14 0 0 7.14631e-16 -2.5601e-15 3.20834e-15 -5.19868e-15 0 0 5.16358e-16 3.06577e-15 -2.52819e-15 -2.78077e-16 0 0 1.06655e-14 -1.34403e-14 6.39912e-15 -6.4663e-15 0 0 1.10543e-14 -2.38003e-14 2.24625e-14 -1.15769e-14 0 0 2.23205e-15 -1.08686e-14 2.26336e-14 -4.90459e-15 0 0 -2.53577e-16 1.47539e-15 2.94257e-15 8.75151e-15 0 0 1.93016e-14 -9.65208e-15 1.21872e-14 1.11034e-14 0 0 2.35493e-14 -3.8491e-15 5.11195e-14 1.86071e-14 0 0 1.09711e-14 1.14049e-14 3.94656e-14 2.70256e-14 0 0 -1.08793e-15 1.74383e-14 1.01525e-14 2.28194e-14 0 0 9.45308e-15 -6.19766e-15 1.89978e-14 1.25648e-14 0 0 1.38255e-14 -7.68628e-15 4.71493e-17 4.48881e-15 0 0 4.60856e-15 1.01837e-14 5.70368e-15 -2.73028e-14 0 0 -5.27068e-15 1.89698e-14 1.81952e-14 -3.51721e-14 0 0 9.6756e-15 9.56399e-15 1.60774e-14 -2.28631e-14 0 0 2.57939e-14 -2.52221e-15 1.03164e-14 -3.79481e-15 0 0 4.31842e-15 6.87301e-15 3.14996e-15 1.73658e-14 0 0 -7.35871e-15 7.77817e-15 7.14167e-15 2.58939e-14 0 0 -1.44402e-16 7.87654e-15 8.54953e-15 3.08525e-14 0 0 6.80006e-15 5.44119e-15 1.20307e-14 7.0655e-15 0 0 4.68825e-15 1.33639e-15 1.10826e-14 -1.23762e-16 0 0 7.60286e-15 1.62317e-14 -7.18583e-15 4.54576e-15 0 0 -1.26976e-15 1.11282e-14 -9.87636e-15 9.0699e-15 0 0 3.54343e-16 -6.8311e-15 8.31754e-16 7.5953e-15 0 0 3.47436e-16 -3.92918e-15 3.4541e-15 -3.10433e-15 0 0 5.97277e-15 -2.82699e-16 -1.36575e-15 4.33826e-15 0 0 1.57181e-14 6.07486e-15 -9.05322e-15 1.4556e-14 0 0 -3.41489e-14 -3.20046e-14 -6.01573e-14 -2.16542e-14 0 0 -1.87206e-13 -2.86959e-13 -3.04452e-13 -1.91498e-13 0 0 -3.75751e-13 -6.41906e-13 -6.38118e-13 -3.798e-13 0 0 -1.08971e-12 -1.77762e-12 -1.71678e-12 -1.03545e-12 0 0 -1.08552e-12 -1.71231e-12 -1.70392e-12 -1.03431e-12 0 0 -9.80214e-13 -1.56697e-12 -1.57878e-12 -9.37607e-13 0 0 -8.3665e-13 -1.38099e-12 -1.37469e-12 -8.14489e-13 0 0 -7.08489e-13 -1.13813e-12 -1.15283e-12 -6.90544e-13 0 0 -6.06682e-13 -9.61566e-13 -9.92183e-13 -5.55418e-13 0 0 -6.12834e-13 -9.35235e-13 -9.69069e-13 -5.64477e-13 0 0 -7.68834e-13 -1.14952e-12 -1.1887e-12 -7.28517e-13 0 0 -9.65535e-13 -1.54625e-12 -1.51596e-12 -9.05922e-13 0 0 -1.18993e-12 -1.91987e-12 -1.85874e-12 -1.16625e-12 0 0 -1.34485e-12 -2.09801e-12 -2.10229e-12 -1.27179e-12 0 0 -1.39653e-12 -2.19262e-12 -2.25408e-12 -1.27556e-12 0 0 -1.3143e-12 -2.08691e-12 -2.13105e-12 -1.32001e-12 0 0 -1.17604e-12 -1.87587e-12 -1.85189e-12 -1.18804e-12 0 0 -9.19483e-13 -1.53466e-12 -1.47119e-12 -8.90493e-13 0 0 -6.60589e-13 -1.05719e-12 -1.02445e-12 -6.27886e-13 0 0 -3.89213e-13 -6.07339e-13 -5.7909e-13 -3.53938e-13 0 0 -1.57768e-13 -2.75361e-13 -2.62495e-13 -1.62194e-13 0 0 -5.22769e-14 -7.16108e-14 -1.00286e-13 -5.84286e-14 0 0 -3.95785e-15 -1.91232e-14 -9.46543e-15 -2.60277e-14 0 0 -5.7635e-15 2.24889e-14 3.03557e-16 -2.40063e-14 0 0 -8.45457e-15 2.79916e-14 -1.01353e-14 7.42751e-15 0 0 5.41538e-15 4.69842e-15 1.23182e-14 2.27063e-14 0 0 -1.73145e-15 8.07625e-15 1.31057e-14 1.21696e-14 0 0 -1.32757e-15 -8.16872e-15 2.95285e-14 2.67509e-16 0 0 -1.81599e-15 -3.92721e-15 2.60537e-14 -1.94256e-15 0 0 -5.75954e-15 1.58473e-14 8.26144e-15 6.45126e-16 0 0 1.85157e-14 -1.58603e-14 2.67336e-14 -5.14636e-15 0 0 1.12941e-14 6.94434e-15 7.43975e-16 1.90108e-14 0 0 1.61942e-15 2.40186e-14 3.71204e-15 1.23515e-14 0 0 2.15118e-14 -5.11779e-15 2.48611e-14 -1.02003e-14 0 0 1.07889e-14 2.81837e-14 -1.9763e-15 1.20609e-14 0 0 1.25365e-14 3.74183e-14 -4.0376e-15 2.90549e-14 0 0 2.0475e-14 2.26664e-14 8.95374e-15 3.88763e-14 0 0 2.11636e-14 1.63069e-14 1.8327e-14 4.64606e-14 0 0 1.6446e-14 4.18432e-14 -7.47067e-15 5.07383e-14 0 0 1.36968e-14 5.06156e-14 -1.34504e-14 5.82245e-14 0 0 2.52786e-14 2.9024e-14 4.03946e-14 1.64991e-14 0 0 1.1019e-14 5.35839e-14 2.61593e-14 -2.07764e-14 0 0 2.6646e-14 2.36063e-14 1.4275e-14 8.96011e-16 0 0 4.28941e-14 6.47379e-15 4.28969e-14 -3.30033e-15 0 0 1.27143e-14 4.48666e-14 1.24694e-14 4.25046e-14 0 0 1.58912e-15 4.1282e-14 2.08896e-14 6.93279e-14 0 0 3.2908e-14 8.28e-15 3.80012e-14 2.63796e-14 0 0 2.68978e-14 4.32243e-14 5.67955e-17 2.56568e-16 0 0 1.51568e-14 7.7514e-14 1.26565e-14 -2.79139e-14 0 0 3.08129e-14 4.86774e-14 3.02883e-14 -2.00508e-14 0 0 3.24892e-14 1.10024e-14 3.42891e-14 -9.21336e-16 0 0 2.68077e-14 1.42158e-14 1.54313e-14 2.67794e-15 0 0 3.12467e-14 1.45771e-14 -7.08201e-15 9.3648e-15 0 0 3.62765e-14 -1.25532e-14 1.41055e-14 4.61506e-15 0 0 1.71312e-14 4.46559e-14 -9.53254e-15 1.28855e-14 0 0 2.40965e-14 5.9431e-14 1.07955e-14 -1.31073e-14 0 0 3.4231e-14 3.92644e-14 5.16487e-14 -1.70106e-14 0 0 3.57597e-14 3.14631e-14 4.45651e-14 5.16076e-15 0 0 1.74928e-14 1.72637e-14 6.73324e-14 -3.81746e-15 0 0 9.93328e-15 2.54978e-15 1.02572e-13 8.82944e-15 0 0 2.58681e-14 -2.09431e-14 1.12011e-13 1.0771e-14 0 0 4.99821e-14 -3.15693e-14 7.01614e-14 5.46973e-14 0 0 5.53451e-14 -1.46433e-14 4.14238e-14 6.69373e-14 0 0 2.85781e-14 2.6806e-14 5.17885e-14 1.51084e-14 0 0 3.31018e-14 1.2066e-15 7.07063e-14 3.68051e-14 0 0 4.35413e-14 -2.67159e-14 8.65471e-14 4.83646e-14 0 0 2.6526e-14 1.82749e-15 3.90101e-14 7.63767e-14 0 0 2.49742e-14 9.11026e-15 -2.39215e-14 1.25749e-13 0 0 2.96767e-14 -5.20763e-15 9.25122e-15 6.2203e-14 0 0 2.22295e-14 1.64433e-14 3.58901e-14 4.11455e-16 0 0 4.15049e-14 2.65654e-14 1.10327e-14 -1.09576e-14 0 0 4.8488e-14 6.03388e-15 -1.38811e-14 -6.55437e-15 0 0 3.27694e-14 -7.49834e-15 7.70124e-15 1.43768e-15 0 0 2.30445e-14 -1.9267e-14 3.28769e-14 2.13153e-14 0 0 3.14625e-14 -2.48224e-14 -7.50457e-15 7.29303e-14 0 0 3.66363e-14 -1.61419e-14 9.28496e-16 8.16703e-14 0 0 9.3449e-15 3.6829e-14 2.31101e-14 -2.21494e-15 0 0 4.1095e-14 7.05854e-15 2.74087e-14 -1.71698e-14 0 0 7.43086e-14 -3.19299e-14 2.9274e-14 1.67048e-14 0 0 3.46363e-14 2.62181e-14 1.45317e-14 -1.85822e-14 0 0 3.71042e-14 4.03181e-14 -2.83518e-15 -2.12561e-14 0 0 5.08805e-14 2.42786e-14 2.37468e-14 -6.50882e-15 0 0 1.84799e-14 5.07131e-14 4.9626e-14 -1.2066e-14 0 0 1.71189e-14 4.26694e-14 4.71326e-14 -1.81631e-14 0 0 3.44112e-14 9.61645e-15 1.40912e-14 3.54884e-14 0 0 4.42666e-14 -2.14163e-16 -2.08155e-14 8.0965e-14 0 0 5.39588e-14 4.39354e-16 3.76869e-14 -4.88052e-16 0 0 5.24663e-14 4.61737e-14 3.59928e-14 -2.31403e-14 0 0 4.98744e-14 4.50983e-14 2.56922e-14 -2.56259e-14 0 0 4.66859e-14 2.80551e-14 3.23286e-15 -6.19972e-15 0 0 3.5014e-14 5.06769e-14 -7.60011e-14 5.46999e-14 0 0 1.0517e-14 4.98256e-14 -9.532e-15 -1.58034e-14 0 0 1.43727e-14 3.46911e-14 3.13365e-14 -4.47493e-14 0 0 5.8166e-14 -1.26153e-14 2.00085e-14 -1.16561e-14 0 0 4.4821e-14 -8.37478e-15 2.67279e-14 5.40366e-15 0 0 5.63646e-15 2.21111e-14 3.47954e-14 -6.64321e-15 0 0 4.70556e-15 1.4284e-14 6.96905e-14 -3.06088e-14 0 0 -4.28322e-16 1.41375e-14 4.27949e-14 -5.73736e-16 0 0 1.40735e-14 -1.6629e-14 1.39048e-14 4.20223e-14 0 0 6.22659e-15 2.04459e-14 -1.32924e-14 1.5205e-14 0 0 -6.11093e-15 9.56081e-15 3.90622e-14 -4.83998e-14 0 0 2.77053e-15 -2.5182e-14 7.65077e-14 -6.35494e-14 0 0 -1.59482e-15 1.1199e-14 3.52698e-14 -5.73846e-14 0
				</DataArray>
				<DataArray Name="VitesseY" type="Float32" format="ascii">