<?xml version="1.0"?>
<VTKFile type="PolyData">
	<PolyData>
		<Piece NumberOfPoints="1206" NumberOfPolys="1000">
			<Points>
				<DataArray type="Float32" NumberOfComponents="3" format="ascii">
 0 0 0 0.02 0 0 0.04 0 0 0.06 0 0 0.08 0 0 0.1 0 0 0 0.005 0 0.02 0.005 0 0.04 0.005 0 0.06 0.005 0 0.08 0.005 0 0.1 0.005 0 0 0.01 0 0.02 0.01 0 0.04 0.01 0 0.06 0.01 0 0.08 0.01 0 0.1 0.01 0 0 0.015 0 0.02 0.015 0 0.04 0.015 0 0.06 0.015 0 0.08 0.015 0 0.1 0.015 0 0 0.02 0 0.02 0.02 0 0.04 0.02 0 0.06 0.02 0 0.08 0.02 0 0.1 0.02 0 0 0.025 0 0.02 0.025 0 0.04 0.025 0 0.06 0.025 0 0.08 0.025 0 0.1 0.025 0 0 0.03 0 0.02 0.03 0 0.04 0.03 0 0.06 0.03 0 0.08 0.03 0 0.1 0.03 0 0 0.035 0 0.02 0.035 0 0.04 0.035 0 0.06 0.035 0 0.08 0.035 0 0.1 0.035 0 0 0.04 0 0.02 0.04 0 0.04 0.04 0 0.06 0.04 0 0.08 0.04 0 0.1 0.04 0 0 0.045 0 0.02 0.045 0 0.04 0.045 0 0.06 0.045 0 0.08 0.045 0 0.1 0.045 0 0 0.05 0 0.02 0.05 0 0.04 0.05 0 0.06 0.05 0 0.08 0.05 0 0.1 0.05 0 0 0.055 0 0.02 0.055 0 0.04 0.055 0 0.06 0.055 0 0.08 0.055 0 0.1 0.055 0 0 0.06 0 0.02 0.06 0 0.04 0.06 0 0.06 0.06 0 0.08 0.06 0 0.1 0.06 0 0 0.065 0 0.02 0.065 0 0.04 0.065 0 0.06 0.065 0 0.08 0.065 0 0.1 0.065 0 0 0.07 0 0.02 0.07 0 0.04 0.07 0 0.06 0.07 0 0.08 0.07 0 0.1 0.07 0 0 0.075 0 0.02 0.075 0 0.04 0.075 0 0.06 0.075 0 0.08 0.075 0 0.1 0.075 0 0 0.08 0 0.02 0.08 0 0.04 0.08 0 0.06 0.08 0 0.08 0.08 0 0.1 0.08 0 0 0.085 0 0.02 0.085 0 0.04 0.085 0 0.06 0.085 0 0.08 0.085 0 0.1 0.085 0 0 0.09 0 0.02 0.09 0 0.04 0.09 0 0.06 0.09 0 0.08 0.09 0 0.1 0.09 0 0 0.095 0 0.02 0.095 0 0.04 0.095 0 0.06 0.095 0 0.08 0.095 0 0.1 0.095 0 0 0.1 0 0.02 0.1 0 0.04 0.1 0 0.06 0.1 0 0.08 0.1 0 0.1 0.1 0 0 0.105 0 0.02 0.105 0 0.04 0.105 0 0.06 0.105 0 0.08 0.105 0 0.1 0.105 0 0 0.11 0 0.02 0.11 0 0.04 0.11 0 0.06 0.11 0 0.08 0.11 0 0.1 0.11 0 0 0.115 0 0.02 0.115 0 0.04 0.115 0 0.06 0.115 0 0.08 0.115 0 0.1 0.115 0 0 0.12 0 0.02 0.12 0 0.04 0.12 0 0.06 0.12 0 0.08 0.12 0 0.1 0.12 0 0 0.125 0 0.02 0.125 0 0.04 0.125 0 0.06 0.125 0 0.08 0.125 0 0.1 0.125 0 0 0.13 0 0.02 0.13 0 0.04 0.13 0 0.06 0.13 0 0.08 0.13 0 0.1 0.13 0 0 0.135 0 0.02 0.135 0 0.04 0.135 0 0.06 0.135 0 0.08 0.135 0 0.1 0.135 0 0 0.14 0 0.02 0.14 0 0.04 0.14 0 0.06 0.14 0 0.08 0.14 0 0.1 0.14 0 0 0.145 0 0.02 0.145 0 0.04 0.145 0 0.06 0.145 0 0.08 0.145 0 0.1 0.145 0 0 0.15 0 0.02 0.15 0 0.04 0.15 0 0.06 0.15 0 0.08 0.15 0 0.1 0.15 0 0 0.155 0 0.02 0.155 0 0.04 0.155 0 0.06 0.155 0 0.08 0.155 0 0.1 0.155 0 0 0.16 0 0.02 0.16 0 0.04 0.16 0 0.06 0.16 0 0.08 0.16 0 0.1 0.16 0 0 0.165 0 0.02 0.165 0 0.04 0.165 0 0.06 0.165 0 0.08 0.165 0 0.1 0.165 0 0 0.17 0 0.02 0.17 0 0.04 0.17 0 0.06 0.17 0 0.08 0.17 0 0.1 0.17 0 0 0.175 0 0.02 0.175 0 0.04 0.175 0 0.06 0.175 0 0.08 0.175 0 0.1 0.175 0 0 0.18 0 0.02 0.18 0 0.04 0.18 0 0.06 0.18 0 0.08 0.18 0 0.1 0.18 0 0 0.185 0 0.02 0.185 0 0.04 0.185 0 0.06 0.185 0 0.08 0.185 0 0.1 0.185 0 0 0.19 0 0.02 0.19 0 0.04 0.19 0 0.06 0.19 0 0.08 0.19 0 0.1 0.19 0 0 0.195 0 0.02 0.195 0 0.04 0.195 0 0.06 0.195 0 0.08 0.195 0 0.1 0.195 0 0 0.2 0 0.02 0.2 0 0.04 0.2 0 0.06 0.2 0 0.08 0.2 0 0.1 0.2 0 0 0.205 0 0.02 0.205 0 0.04 0.205 0 0.06 0.205 0 0.08 0.205 0 0.1 0.205 0 0 0.21 0 0.02 0.21 0 0.04 0.21 0 0.06 0.21 0 0.08 0.21 0 0.1 0.21 0 0 0.215 0 0.02 0.215 0 0.04 0.215 0 0.06 0.215 0 0.08 0.215 0 0.1 0.215 0 0 0.22 0 0.02 0.22 0 0.04 0.22 0 0.06 0.22 0 0.08 0.22 0 0.1 0.22 0 0 0.225 0 0.02 0.225 0 0.04 0.225 0 0.06 0.225 0 0.08 0.225 0 0.1 0.225 0 0 0.23 0 0.02 0.23 0 0.04 0.23 0 0.06 0.23 0 0.08 0.23 0 0.1 0.23 0 0 0.235 0 0.02 0.235 0 0.04 0.235 0 0.06 0.235 0 0.08 0.235 0 0.1 0.235 0 0 0.24 0 0.02 0.24 0 0.04 0.24 0 0.06 0.24 0 0.08 0.24 0 0.1 0.24 0 0 0.245 0 0.02 0.245 0 0.04 0.245 0 0.06 0.245 0 0.08 0.245 0 0.1 0.245 0 0 0.25 0 0.02 0.25 0 0.04 0.25 0 0.06 0.25 0 0.08 0.25 0 0.1 0.25 0 0 0.255 0 0.02 0.255 0 0.04 0.255 0 0.06 0.255 0 0.08 0.255 0 0.1 0.255 0 0 0.26 0 0.02 0.26 0 0.04 0.26 0 0.06 0.26 0 0.08 0.26 0 0.1 0.26 0 0 0.265 0 0.02 0.265 0 0.04 0.265 0 0.06 0.265 0 0.08 0.265 0 0.1 0.265 0 0 0.27 0 0.02 0.27 0 0.04 0.27 0 0.06 0.27 0 0.08 0.27 0 0.1 0.27 0 0 0.275001 0 0.02 0.275001 0 0.04 0.275001 0 0.06 0.275001 0 0.08 0.275001 0 0.1 0.275001 0 0 0.280002 0 0.02 0.280002 0 0.04 0.280002 0 0.06 0.280002 0 0.08 0.280002 0 0.1 0.280002 0 0 0.285006 0 0.02 0.285006 0 0.04 0.285006 0 0.06 0.285006 0 0.08 0.285006 0 0.1 0.285006 0 0 0.290017 0 0.02 0.290017 0 0.04 0.290017 0 0.06 0.290017 0 0.08 0.290017 0 0.1 0.290017 0 0 0.295041 0 0.02 0.295041 0 0.04 0.295041 0 0.06 0.295041 0 0.08 0.295041 0 0.1 0.295041 0 0 0.300092 0 0.02 0.300092 0 0.04 0.300092 0 0.06 0.300092 0 0.08 0.300092 0 0.1 0.300092 0 0 0.305184 0 0.02 0.305184 0 0.04 0.305184 0 0.06 0.305184 0 0.08 0.305184 0 0.1 0.305184 0 0 0.310338 0 0.02 0.310338 0 0.04 0.310338 0 0.06 0.310338 0 0.08 0.310338 0 0.1 0.310338 0 0 0.315571 0 0.02 0.315571 0 0.04 0.315571 0 0.06 0.315571 0 0.08 0.315571 0 0.1 0.315571 0 0 0.320899 0 0.02 0.320899 0 0.04 0.320899 0 0.06 0.320899 0 0.08 0.320899 0 0.1 0.320899 0 0 0.326336 0 0.02 0.326336 0 0.04 0.326336 0 0.06 0.326336 0 0.08 0.326336 0 0.1 0.326336 0 0 0.331892 0 0.02 0.331892 0 0.04 0.331892 0 0.06 0.331892 0 0.08 0.331892 0 0.1 0.331892 0 0 0.337576 0 0.02 0.337576 0 0.04 0.337576 0 0.06 0.337576 0 0.08 0.337576 0 0.1 0.337576 0 0 0.343398 0 0.02 0.343398 0 0.04 0.343398 0 0.06 0.343398 0 0.08 0.343398 0 0.1 0.343398 0 0 0.349366 0 0.02 0.349366 0 0.04 0.349366 0 0.06 0.349366 0 0.08 0.349366 0 0.1 0.349366 0 0 0.355491 0 0.02 0.355491 0 0.04 0.355491 0 0.06 0.355491 0 0.08 0.355491 0 0.1 0.355491 0 0 0.361782 0 0.02 0.361782 0 0.04 0.361782 0 0.06 0.361782 0 0.08 0.361782 0 0.1 0.361782 0 0 0.36825 0 0.02 0.36825 0 0.04 0.36825 0 0.06 0.36825 0 0.08 0.36825 0 0.1 0.36825 0 0 0.374907 0 0.02 0.374907 0 0.04 0.374907 0 0.06 0.374907 0 0.08 0.374907 0 0.1 0.374907 0 0 0.381766 0 0.02 0.381766 0 0.04 0.381766 0 0.06 0.381766 0 0.08 0.381766 0 0.1 0.381766 0 0 0.388841 0 0.02 0.388841 0 0.04 0.388841 0 0.06 0.388841 0 0.08 0.388841 0 0.1 0.388841 0 0 0.396149 0 0.02 0.396149 0 0.04 0.396149 0 0.06 0.396149 0 0.08 0.396149 0 0.1 0.396149 0 0 0.403707 0 0.02 0.403707 0 0.04 0.403707 0 0.06 0.403707 0 0.08 0.403707 0 0.1 0.403707 0 0 0.411534 0 0.02 0.411534 0 0.04 0.411534 0 0.06 0.411534 0 0.08 0.411534 0 0.1 0.411534 0 0 0.419651 0 0.02 0.419651 0 0.04 0.419651 0 0.06 0.419651 0 0.08 0.419651 0 0.1 0.419651 0 0 0.428084 0 0.02 0.428084 0 0.04 0.428084 0 0.06 0.428084 0 0.08 0.428084 0 0.1 0.428084 0 0 0.43686 0 0.02 0.43686 0 0.04 0.43686 0 0.06 0.43686 0 0.08 0.43686 0 0.1 0.43686 0 0 0.446008 0 0.02 0.446008 0 0.04 0.446008 0 0.06 0.446008 0 0.08 0.446008 0 0.1 0.446008 0 0 0.455562 0 0.02 0.455562 0 0.04 0.455562 0 0.06 0.455562 0 0.08 0.455562 0 0.1 0.455562 0 0 0.46556 0 0.02 0.46556 0 0.04 0.46556 0 0.06 0.46556 0 0.08 0.46556 0 0.1 0.46556 0 0 0.476037 0 0.02 0.476037 0 0.04 0.476037 0 0.06 0.476037 0 0.08 0.476037 0 0.1 0.476037 0 0 0.487028 0 0.02 0.487028 0 0.04 0.487028 0 0.06 0.487028 0 0.08 0.487028 0 0.1 0.487028 0 0 0.498542 0 0.02 0.498542 0 0.04 0.498542 0 0.06 0.498542 0 0.08 0.498542 0 0.1 0.498542 0 0 0.510514 0 0.02 0.510514 0 0.04 0.510514 0 0.06 0.510514 0 0.08 0.510514 0 0.1 0.510514 0 0 0.522681 0 0.02 0.522681 0 0.04 0.522681 0 0.06 0.522681 0 0.08 0.522681 0 0.1 0.522681 0 0 0.534761 0 0.02 0.534761 0 0.04 0.534761 0 0.06 0.534761 0 0.08 0.534761 0 0.1 0.534761 0 0 0.546738 0 0.02 0.546738 0 0.04 0.546738 0 0.06 0.546738 0 0.08 0.546738 0 0.1 0.546738 0 0 0.558616 0 0.02 0.558616 0 0.04 0.558616 0 0.06 0.558616 0 0.08 0.558616 0 0.1 0.558616 0 0 0.570422 0 0.02 0.570422 0 0.04 0.570422 0 0.06 0.570422 0 0.08 0.570422 0 0.1 0.570422 0 0 0.582186 0 0.02 0.582186 0 0.04 0.582186 0 0.06 0.582186 0 0.08 0.582186 0 0.1 0.582186 0 0 0.593929 0 0.02 0.593929 0 0.04 0.593929 0 0.06 0.593929 0 0.08 0.593929 0 0.1 0.593929 0 0 0.605664 0 0.02 0.605664 0 0.04 0.605664 0 0.06 0.605664 0 0.08 0.605664 0 0.1 0.605664 0 0 0.617396 0 0.02 0.617396 0 0.04 0.617396 0 0.06 0.617396 0 0.08 0.617396 0 0.1 0.617396 0 0 0.629126 0 0.02 0.629126 0 0.04 0.629126 0 0.06 0.629126 0 0.08 0.629126 0 0.1 0.629126 0 0 0.640858 0 0.02 0.640858 0 0.04 0.640858 0 0.06 0.640858 0 0.08 0.640858 0 0.1 0.640858 0 0 0.652604 0 0.02 0.652604 0 0.04 0.652604 0 0.06 0.652604 0 0.08 0.652604 0 0.1 0.652604 0 0 0.655214 0 0.02 0.655214 0 0.04 0.655214 0 0.06 0.655214 0 0.08 0.655214 0 0.1 0.655214 0 0 0.657751 0 0.02 0.657751 0 0.04 0.657751 0 0.06 0.657751 0 0.08 0.657751 0 0.1 0.657751 0 0 0.660242 0 0.02 0.660242 0 0.04 0.660242 0 0.06 0.660242 0 0.08 0.660242 0 0.1 0.660242 0 0 0.662702 0 0.02 0.662702 0 0.04 0.662702 0 0.06 0.662702 0 0.08 0.662702 0 0.1 0.662702 0 0 0.665141 0 0.02 0.665141 0 0.04 0.665141 0 0.06 0.665141 0 0.08 0.665141 0 0.1 0.665141 0 0 0.667564 0 0.02 0.667564 0 0.04 0.667564 0 0.06 0.667564 0 0.08 0.667564 0 0.1 0.667564 0 0 0.669977 0 0.02 0.669977 0 0.04 0.669977 0 0.06 0.669977 0 0.08 0.669977 0 0.1 0.669977 0 0 0.672388 0 0.02 0.672388 0 0.04 0.672388 0 0.06 0.672388 0 0.08 0.672388 0 0.1 0.672388 0 0 0.674799 0 0.02 0.674799 0 0.04 0.674799 0 0.06 0.674799 0 0.08 0.674799 0 0.1 0.674799 0 0 0.677195 0 0.02 0.677195 0 0.04 0.677195 0 0.06 0.677195 0 0.08 0.677195 0 0.1 0.677195 0 0 0.679581 0 0.02 0.679581 0 0.04 0.679581 0 0.06 0.679581 0 0.08 0.679581 0 0.1 0.679581 0 0 0.681962 0 0.02 0.681962 0 0.04 0.681962 0 0.06 0.681962 0 0.08 0.681962 0 0.1 0.681962 0 0 0.684339 0 0.02 0.684339 0 0.04 0.684339 0 0.06 0.684339 0 0.08 0.684339 0 0.1 0.684339 0 0 0.686717 0 0.02 0.686717 0 0.04 0.686717 0 0.06 0.686717 0 0.08 0.686717 0 0.1 0.686717 0 0 0.689093 0 0.02 0.689093 0 0.04 0.689093 0 0.06 0.689093 0 0.08 0.689093 0 0.1 0.689093 0 0 0.691466 0 0.02 0.691466 0 0.04 0.691466 0 0.06 0.691466 0 0.08 0.691466 0 0.1 0.691466 0 0 0.693836 0 0.02 0.693836 0 0.04 0.693836 0 0.06 0.693836 0 0.08 0.693836 0 0.1 0.693836 0 0 0.696204 0 0.02 0.696204 0 0.04 0.696204 0 0.06 0.696204 0 0.08 0.696204 0 0.1 0.696204 0 0 0.698572 0 0.02 0.698572 0 0.04 0.698572 0 0.06 0.698572 0 0.
[...]
			<PointData Scalars="VitesseX">
				<DataArray Name="VitesseX" type="Float32" format="ascii">
 0 4.21931e-15 3.56122e-15 5.079e-15 1.11375e-14 0 0 3.56279e-15 5.37659e-15 3.10529e-15 1.14918e-14 0 0 3.2795e-15 7.0921e-15 1.24516e-15 1.14272e-14 0 0 3.96473e-15 5.77023e-15 3.20823e-15 8.57198e-15 0 0 4.03585e-15 4.50145e-15 5.40099e-15 5.23201e-15 0 0 5.18259e-15 2.89458e-15 6.68535e-15 4.09596e-15 0 0 4.23173e-15 2.7202e-15 5.0252e-15 6.44548e-15 0 0 2.95523e-15 2.66268e-15 3.40884e-15 8.39031e-15 0 0 1.50724e-15 3.39547e-15 2.32708e-15 7.08284e-15 0 0 -2.84917e-16 4.38267e-15 -2.91365e-15 1.00074e-14 0 0 9.43376e-16 3.09087e-15 -5.7206e-15 7.74429e-15 0 0 -5.44576e-16 5.34564e-15 -4.57533e-15 -1.19644e-15 0 0 -2.84529e-16 4.76538e-15 -1.74327e-15 -7.87889e-15 0 0 -6.64597e-16 2.47821e-15 4.50995e-15 -1.56146e-14 0 0 -4.41055e-15 6.1913e-15 2.04752e-15 -1.66873e-14 0 0 -5.05057e-15 5.67996e-15 -1.64553e-15 -1.50603e-14 0 0 -3.2358e-15 -1.88555e-15 3.84702e-15 -1.33232e-14 0 0 -3.95774e-15 -7.8083e-15 7.95088e-15 -1.10914e-14 0 0 -6.59594e-15 -9.15162e-15 3.24941e-15 -5.31458e-15 0 0 -6.21318e-15 -8.56541e-15 -4.2e-15 2.42842e-15 0 0 -2.01039e-15 -1.08591e-14 -2.88473e-15 6.37092e-15 0 0 9.48386e-16 -1.0402e-14 4.86379e-15 -2.28626e-15 0 0 -2.45194e-15 -1.79453e-15 7.50768e-15 -1.34823e-14 0 0 -1.57012e-15 1.46821e-15 2.3277e-15 -1.29167e-14 0 0 -1.23427e-15 3.32455e-15 -1.7588e-15 -1.23163e-14 0 0 -3.03445e-15 4.27075e-15 1.47641e-15 -9.45286e-15 0 0 -6.10851e-16 -5.91708e-15 1.12636e-14 -9.64303e-15 0 0 -2.6831e-15 -5.60689e-15 1.87699e-15 -4.13887e-15 0 0 -2.57476e-15 -1.91798e-15 -4.039e-15 -1.83004e-15 0 0 -1.04286e-15 -2.93326e-15 2.23613e-15 -7.19284e-15 0 0 2.0222e-15 -8.7255e-15 5.39208e-15 8.02104e-16 0 0 5.41493e-16 -5.63233e-15 1.95954e-15 1.12603e-14 0 0 -2.69076e-15 3.91553e-15 -5.36049e-15 1.3007e-14 0 0 6.09481e-16 -2.17164e-15 -1.2653e-16 1.17637e-14 0 0 -2.08602e-15 -9.66618e-16 3.68361e-16 4.15719e-15 0 0 -1.04483e-15 7.55241e-15 -9.55563e-15 -2.1054e-15 0 0 3.68949e-15 5.41613e-15 -1.38097e-14 4.42529e-15 0 0 1.93726e-15 -3.56838e-15 -3.50279e-15 3.28237e-15 0 0 1.77352e-15 -6.42728e-15 2.47162e-15 -3.2206e-15 0 0 6.37571e-15 -1.10779e-15 -9.00715e-16 -1.30774e-14 0 0 3.31305e-15 4.35539e-15 -8.62209e-15 -1.09731e-14 0 0 4.21666e-15 5.66195e-15 -1.65741e-14 1.33218e-14 0 0 1.23546e-14 5.76412e-15 -5.7593e-15 1.36333e-14 0 0 1.71253e-14 2.68768e-15 1.95265e-14 -8.88648e-15 0 0 1.6637e-14 -6.19038e-15 1.99662e-14 -6.0229e-15 0 0 6.48073e-15 5.30515e-15 -5.25606e-15 3.72047e-15 0 0 1.54604e-14 2.51819e-14 -2.29217e-14 -1.08182e-14 0 0 1.22632e-14 1.70037e-14 -5.33504e-15 -2.09178e-14 0 0 -9.68053e-15 -3.95601e-15 5.83801e-15 -1.08131e-14 0 0 -1.25089e-14 -1.48404e-14 -4.97458e-15 2.56323e-15 0 0 -1.73219e-14 -1.17378e-14 -1.16812e-14 7.72395e-15 0 0 1.17778e-14 -1.91904e-14 -1.92373e-14 -6.72178e-15 0 0 2.27007e-14 -2.22993e-14 -2.56311e-14 -3.58137e-14 0 0 -2.19428e-14 -5.24422e-15 -4.55573e-14 -2.794e-14 0 0 -3.88175e-14 2.08196e-14 -5.38239e-14 -1.69662e-14 0 0 -1.7234e-14 3.41653e-15 -3.23494e-14 -4.21665e-14 0 0 1.24661e-14 -3.87688e-14 -2.9728e-14 -3.49991e-14 0 0 -8.00877e-15 -3.7283e-14 -2.36474e-14 -8.8674e-15 0 0 -2.53471e-14 -2.34731e-14 1.31042e-14 -2.18973e-14 0 0 -2.14487e-14 -6.71288e-15 5.99917e-15 -1.00959e-14 0 0 -9.64324e-15 -1.02668e-14 -3.9683e-17 2.28046e-14 0 0 -8.07566e-15 -3.85993e-14 3.14658e-14 1.86667e-14 0 0 -2.22997e-14 -3.23281e-14 -2.70154e-15 3.6456e-14 0 0 -2.77686e-14 -1.9119e-15 -3.6454e-14 3.64294e-14 0 0 -3.22869e-14 4.10663e-15 -1.33592e-14 1.52301e-14 0 0 -2.74051e-15 -9.03027e-15 -1.96287e-14 2.49248e-14 0 0 -1.80673e-14 -4.10201e-16 -2.09627e-16 -1.51293e-15 0 0 -2.46502e-14 2.632e-14 1.79767e-15 -1.57899e-14 0 0 1.49534e-14 7.02488e-15 1.55902e-14 -8.07381e-15 0 0 2.93074e-14 -2.36348e-14 3.88776e-14 -8.13383e-15 0 0 1.46112e-14 -5.94885e-15 -9.14157e-15 1.69598e-14 0 0 -3.31587e-15 2.26212e-14 -3.4554e-14 3.93602e-14 0 0 -1.13035e-14 3.97494e-14 -3.13652e-14 1.99162e-14 0 0 2.724e-15 2.47302e-14 -1.40469e-14 -5.71065e-15 0 0 2.03195e-14 2.7161e-15 -1.41891e-14 1.77942e-14 0 0 2.02617e-14 -4.54838e-15 -2.40476e-14 3.54942e-14 0 0 1.76853e-14 -1.40728e-14 -5.20531e-15 1.84969e-14 0 0 -4.62021e-15 1.53552e-14 3.71705e-16 -1.48465e-14 0 0 -1.56657e-14 2.03414e-14 4.87318e-15 -1.15563e-14 0 0 2.2695e-14 -2.78531e-14 1.13886e-14 8.75572e-15 0 0 4.77551e-16 -9.54433e-15 1.06882e-14 3.7954e-15 0 0 -8.96032e-15 -1.04913e-14 1.26603e-14 1.19262e-14 0 0 -1.1532e-15 -6.10446e-15 -3.55301e-15 1.98401e-14 0 0 2.14297e-15 8.13589e-15 9.93807e-15 1.03893e-14 0 0 1.25693e-14 -1.50145e-14 2.66366e-14 -1.17747e-14 0 0 2.25025e-16 -7.71338e-15 1.9397e-14 -1.99956e-14 0 0 5.95813e-16 2.62376e-15 1.54073e-14 -1.74261e-14 0 0 -9.84729e-15 2.15367e-14 -1.93787e-14 -3.0328e-15 0 0 1.16698e-14 -6.07383e-16 -3.73851e-14 3.40122e-14 0 0 1.47268e-14 -4.12286e-15 -1.14232e-14 8.50446e-15 0 0 1.17327e-14 2.28787e-14 7.45781e-15 -7.19213e-15 0 0 3.66116e-14 4.15053e-14 3.48088e-14 2.14428e-14 0 0 5.84038e-14 8.92905e-14 8.53388e-14 4.5456e-14 0 0 8.4465e-14 1.38687e-13 1.33247e-13 7.46962e-14 0 0 1.07067e-13 1.7111e-13 1.60072e-13 9.87477e-14 0 0 1.09414e-13 1.67208e-13 1.78342e-13 1.18344e-13 0 0 1.04022e-13 1.51602e-13 1.66209e-13 1.08434e-13 0 0 9.19e-14 1.4037e-13 1.35611e-13 8.99643e-14 0 0 7.10134e-14 1.27421e-13 1.29753e-13 7.12551e-14 0 0 6.60489e-14 1.11084e-13 1.32752e-13 7.17848e-14 0 0 8.37892e-14 1.25106e-13 1.3903e-13 1.06022e-13 0 0 1.5434e-13 2.89855e-13 2.30014e-13 2.08755e-13 0 0 1.71798e-13 2.84118e-13 2.44855e-13 2.08802e-13 0 0 1.94713e-13 2.95904e-13 2.84475e-13 1.55514e-13 0 0 2.17905e-13 2.9666e-13 3.19704e-13 1.8193e-13 0 0 2.16185e-13 3.1302e-13 3.42426e-13 2.4487e-13 0 0 2.17709e-13 3.01677e-13 3.52506e-13 2.21664e-13 0 0 1.56491e-13 1.78077e-13 2.78666e-13 1.40394e-13 0 0 -3.88019e-14 -6.51902e-14 -3.23544e-14 1.10279e-14 0 0 -2.7709e-13 -3.34345e-13 -3.98915e-13 -2.07515e-13 0 0 -4.40856e-13 -6.54347e-13 -6.12304e-13 -4.29503e-13 0 0 -5.28322e-13 -8.80875e-13 -7.54531e-13 -4.93942e-13 0 0 -5.67809e-13 -9.14174e-13 -8.56807e-13 -4.91951e-13 0 0 -5.40791e-13 -8.70848e-13 -8.45843e-13 -5.02879e-13 0 0 -4.96753e-13 -8.07847e-13 -7.99998e-13 -5.09693e-13 0 0 -4.68457e-13 -7.45954e-13 -7.20373e-13 -4.55141e-13 0 0 -4.19986e-13 -6.57955e-13 -6.40467e-13 -3.78262e-13 0 0 -3.60905e-13 -5.62503e-13 -5.89943e-13 -3.55842e-13 0 0 -3.41918e-13 -4.77101e-13 -5.34469e-13 -2.97946e-13 0 0 -2.96555e-13 -4.02418e-13 -5.03193e-13 -2.52014e-13 0 0 -2.14147e-13 -3.93213e-13 -3.74212e-13 -2.77794e-13 0 0 -1.59001e-13 -3.78835e-13 -2.48403e-13 -2.51271e-13 0 0 -1.2117e-13 -3.20316e-13 -2.32929e-13 -2.03576e-13 0 0 -1.06025e-13 -2.44245e-13 -2.30388e-13 -1.99349e-13 0 0 -1.21221e-13 -1.97502e-13 -1.98746e-13 -1.56876e-13 0 0 -1.26975e-13 -1.44877e-13 -1.53029e-13 -1.21986e-13 0 0 -1.03449e-13 -1.19745e-13 -9.50009e-14 -1.18723e-13 0 0 -6.12557e-14 -1.27096e-13 -4.24937e-14 -8.27708e-14 0 0 -4.84938e-14 -7.34731e-14 -5.54666e-14 -7.03407e-14 0 0 -5.75849e-14 -2.35972e-14 -9.4352e-14 -1.18675e-14 0 0 -5.20832e-14 1.50453e-14 -8.97733e-14 2.46306e-14 0 0 9.8046e-15 -1.69725e-14 -2.9169e-14 8.60571e-16 0 0 7.46239e-14 -5.09412e-14 5.85844e-14 3.79251e-14 0 0 8.12904e-14 8.6761e-15 4.57866e-14 1.19726e-14 0 0 9.29001e-14 3.21729e-14 4.67693e-14 4.54851e-14 0 0 8.84102e-14 6.91134e-14 9.76524e-14 8.99364e-14 0 0 7.79045e-14 1.39508e-13 1.14651e-13 2.97194e-14 0 0 8.94987e-14 1.75688e-13 1.27817e-13 8.44514e-14 0 0 1.1532e-13 1.80212e-13 1.35591e-13 2.00717e-13 0 0 1.18217e-13 2.03821e-13 1.73685e-13 2.21638e-13 0 0 1.00929e-13 2.71551e-13 1.92131e-13 2.42458e-13 0 0 1.02975e-13 3.03823e-13 2.12996e-13 1.8901e-13 0 0 1.57021e-13 2.86387e-13 2.74872e-13 1.46801e-13 0 0 2.30814e-13 2.50251e-13 3.61708e-13 2.05249e-13 0 0 2.08805e-13 3.38928e-13 3.42797e-13 2.63434e-13 0 0 1.76811e-13 4.35259e-13 3.35225e-13 2.55859e-13 0 0 2.14568e-13 4.0411e-13 4.17869e-13 1.59814e-13 0 0 2.62084e-13 3.86944e-13 4.60692e-13 8.43036e-14 0 0 2.99665e-13 3.9563e-13 4.66504e-13 1.49222e-13 0 0 2.80665e-13 4.67096e-13 4.67597e-13 2.06309e-13 0 0 2.5817e-13 5.25185e-13 4.78293e-13 2.74439e-13 0 0 2.9188e-13 4.73171e-13 4.77308e-13 3.65303e-13 0 0 2.98743e-13 4.41393e-13 4.42661e-13 3.48612e-13 0 0 2.52415e-13 4.86977e-13 4.31641e-13 2.28581e-13 0 0 2.40692e-13 4.68492e-13 4.05128e-13 2.54129e-13 0 0 1.92401e-13 4.37591e-13 4.13517e-13 1.54111e-13 0 0 1.78476e-13 3.99899e-13 3.56476e-13 3.6163e-14 0 0 1.64214e-13 3.08025e-13 2.56115e-13 2.12703e-13 0 0 1.34198e-13 2.40372e-13 1.98208e-13 2.21305e-13 0 0 1.26808e-13 9.82079e-14 1.12653e-13 9.57273e-14 0 0 5.32426e-14 4.51293e-14 5.85782e-14 6.13598e-14 0 0 6.60867e-15 1.98732e-14 -2.15906e-14 5.03505e-14 0 0 -2.40661e-15 -2.31256e-14 -7.9525e-14 1.80259e-14 0 0 -1.86128e-14 -3.97961e-14 -1.02113e-13 -6.29198e-14 0 0 -3.29771e-14 -6.59827e-14 -8.45113e-14 -8.77179e-14 0 0 -3.80477e-14 -7.39953e-14 -9.33253e-14 -6.09904e-14 0 0 -1.30545e-14 -9.61434e-14 -9.78389e-14 -6.00317e-14 0 0 -7.62752e-15 -1.2072e-13 -9.92295e-14 -7.83604e-14 0 0 -1.4064e-14 -1.12429e-13 -1.16874e-13 -6.97757e-14 0 0 -9.19774e-15 -1.10471e-13 -1.41762e-13 -2.74192e-15 0 0 -7.45942e-15 -1.28425e-13 -1.38146e-13 5.21058e-15 0 0 -1.92678e-14 -1.24612e-13 -1.34077e-13 2.81446e-15 0 0 -3.63205e-14 -8.85178e-14 -1.60747e-13 -2.55951e-15 0 0 -4.44233e-14 -8.94367e-14 -1.48644e-13 -1.6062e-16 0 0 -4.6658e-14 -1.07505e-13 -1.02985e-13 -1.91128e-14 0 0 -5.73439e-14 -9.33097e-14 -8.03416e-14 -6.20416e-14 0 0 -4.66664e-14 -1.07484e-13 -6.30489e-14 -3.10033e-14 0 0 -3.37854e-14 -1.21254e-13 -3.99536e-14 -4.05268e-14 0 0 -4.6344e-14 -9.5277e-14 -2.11168e-14 -8.03412e-14 0 0 -7.13421e-14 -5.25424e-14 -1.56581e-14 -7.54583e-14 0 0 -8.95685e-14 -1.71997e-14 -5.66736e-14 -9.87041e-15 0 0 -5.7592e-14 -3.887e-14 -2.3924e-14 -2.65824e-14 0 0 -4.98346e-14 -1.23666e-14 -7.87606e-15 -5.71762e-14 0 0 -3.0802e-14 -2.17433e-15 -3.39871e-14 -1.75305e-14 0 0 -6.30547e-15 -3.67921e-14 -4.63563e-15 1.48616e-14 0 0 -2.08453e-14 1.41544e-14 6.60475e-15 1.76078e-14 0 0 3.30361e-14 -1.43221e-14 8.22638e-14 -6.45376e-14 0 0 4.725e-14 -5.12538e-14 5.12635e-14 -5.11471e-14 0 0 -2.36105e-14 1.86435e-14 -6.07954e-14 9.45724e-15 0 0 -7.114e-14 3.28562e-14 -4.56963e-14 1.80287e-14 0 0 -7.16925e-14 -1.52136e-14 -1.01518e-14 3.76303e-14 0 0 -2.23188e-14 -7.19388e-14 3.62236e-14 -2.06275e-15 0 0 1.96457e-14 -1.05178e-13 4.65796e-14 -2.4033e-14 0 0 2.81578e-14 -9.72488e-14 -3.08158e-14 1.03285e-14 0 0 -2.04658e-15 -5.56545e-14 -6.26382e-14 1.15347e-14 0 0 -5.17162e-14 -2.24082e-15 -7.64796e-14 2.32988e-15 0 0 -7.68117e-14 8.35928e-15 -1.15168e-13 -1.94103e-14 0 0 -5.99992e-14 -3.44401e-14 -8.63822e-14 -6.68254e-14 0 0 -6.31322e-14 -6.12753e-14 -7.43618e-14 -8.59186e-14 0 0 -4.0816e-14 -1.02524e-13 -9.43379e-14 -6.24813e-14 0 0 1.13852e-14 -1.53278e-13 -9.04292e-14 -4.51755e-14 0
				</DataArray>
				<DataArray Name="VitesseY" type="Float32" format="ascii">