<?xml version="1.0"?>
<VTKFile type="PolyData">
	<PolyData>
		<Piece NumberOfPoints="1206" NumberOfPolys="1000">
			<Points>
				<DataArray type="Float32" NumberOfComponents="3" format="ascii">
 0 0 0 0.02 0 0 0.04 0 0 0.06 0 0 0.08 0 0 0.1 0 0 0 0.005 0 0.02 0.005 0 0.04 0.005 0 0.06 0.005 0 0.08 0.005 0 0.1 0.005 0 0 0.01 0 0.02 0.01 0 0.04 0.01 0 0.06 0.01 0 0.08 0.01 0 0.1 0.01 0 0 0.015 0 0.02 0.015 0 0.04 0.015 0 0.06 0.015 0 0.08 0.015 0 0.1 0.015 0 0 0.02 0 0.02 0.02 0 0.04 0.02 0 0.06 0.02 0 0.08 0.02 0 0.1 0.02 0 0 0.025 0 0.02 0.025 0 0.04 0.025 0 0.06 0.025 0 0.08 0.025 0 0.1 0.025 0 0 0.03 0 0.02 0.03 0 0.04 0.03 0 0.06 0.03 0 0.08 0.03 0 0.1 0.03 0 0 0.035 0 0.02 0.035 0 0.04 0.035 0 0.06 0.035 0 0.08 0.035 0 0.1 0.035 0 0 0.04 0 0.02 0.04 0 0.04 0.04 0 0.06 0.04 0 0.08 0.04 0 0.1 0.04 0 0 0.045 0 0.02 0.045 0 0.04 0.045 0 0.06 0.045 0 0.08 0.045 0 0.1 0.045 0 0 0.05 0 0.02 0.05 0 0.04 0.05 0 0.06 0.05 0 0.08 0.05 0 0.1 0.05 0 0 0.055 0 0.02 0.055 0 0.04 0.055 0 0.06 0.055 0 0.08 0.055 0 0.1 0.055 0 0 0.06 0 0.02 0.06 0 0.04 0.06 0 0.06 0.06 0 0.08 0.06 0 0.1 0.06 0 0 0.065 0 0.02 0.065 0 0.04 0.065 0 0.06 0.065 0 0.08 0.065 0 0.1 0.065 0 0 0.07 0 0.02 0.07 0 0.04 0.07 0 0.06 0.07 0 0.08 0.07 0 0.1 0.07 0 0 0.075 0 0.02 0.075 0 0.04 0.075 0 0.06 0.075 0 0.08 0.075 0 0.1 0.075 0 0 0.08 0 0.02 0.08 0 0.04 0.08 0 0.06 0.08 0 0.08 0.08 0 0.1 0.08 0 0 0.085 0 0.02 0.085 0 0.04 0.085 0 0.06 0.085 0 0.08 0.085 0 0.1 0.085 0 0 0.09 0 0.02 0.09 0 0.04 0.09 0 0.06 0.09 0 0.08 0.09 0 0.1 0.09 0 0 0.095 0 0.02 0.095 0 0.04 0.095 0 0.06 0.095 0 0.08 0.095 0 0.1 0.095 0 0 0.1 0 0.02 0.1 0 0.04 0.1 0 0.06 0.1 0 0.08 0.1 0 0.1 0.1 0 0 0.105 0 0.02 0.105 0 0.04 0.105 0 0.06 0.105 0 0.08 0.105 0 0.1 0.105 0 0 0.11 0 0.02 0.11 0 0.04 0.11 0 0.06 0.11 0 0.08 0.11 0 0.1 0.11 0 0 0.115 0 0.02 0.115 0 0.04 0.115 0 0.06 0.115 0 0.08 0.115 0 0.1 0.115 0 0 0.12 0 0.02 0.12 0 0.04 0.12 0 0.06 0.12 0 0.08 0.12 0 0.1 0.12 0 0 0.125 0 0.02 0.125 0 0.04 0.125 0 0.06 0.125 0 0.08 0.125 0 0.1 0.125 0 0 0.13 0 0.02 0.13 0 0.04 0.13 0 0.06 0.13 0 0.08 0.13 0 0.1 0.13 0 0 0.135 0 0.02 0.135 0 0.04 0.135 0 0.06 0.135 0 0.08 0.135 0 0.1 0.135 0 0 0.14 0 0.02 0.14 0 0.04 0.14 0 0.06 0.14 0 0.08 0.14 0 0.1 0.14 0 0 0.145 0 0.02 0.145 0 0.04 0.145 0 0.06 0.145 0 0.08 0.145 0 0.1 0.145 0 0 0.15 0 0.02 0.15 0 0.04 0.15 0 0.06 0.15 0 0.08 0.15 0 0.1 0.15 0 0 0.155 0 0.02 0.155 0 0.04 0.155 0 0.06 0.155 0 0.08 0.155 0 0.1 0.155 0 0 0.16 0 0.02 0.16 0 0.04 0.16 0 0.06 0.16 0 0.08 0.16 0 0.1 0.16 0 0 0.165 0 0.02 0.165 0 0.04 0.165 0 0.06 0.165 0 0.08 0.165 0 0.1 0.165 0 0 0.17 0 0.02 0.17 0 0.04 0.17 0 0.06 0.17 0 0.08 0.17 0 0.1 0.17 0 0 0.175 0 0.02 0.175 0 0.04 0.175 0 0.06 0.175 0 0.08 0.175 0 0.1 0.175 0 0 0.18 0 0.02 0.18 0 0.04 0.18 0 0.06 0.18 0 0.08 0.18 0 0.1 0.18 0 0 0.185 0 0.02 0.185 0 0.04 0.185 0 0.06 0.185 0 0.08 0.185 0 0.1 0.185 0 0 0.19 0 0.02 0.19 0 0.04 0.19 0 0.06 0.19 0 0.08 0.19 0 0.1 0.19 0 0 0.195 0 0.02 0.195 0 0.04 0.195 0 0.06 0.195 0 0.08 0.195 0 0.1 0.195 0 0 0.2 0 0.02 0.2 0 0.04 0.2 0 0.06 0.2 0 0.08 0.2 0 0.1 0.2 0 0 0.205 0 0.02 0.205 0 0.04 0.205 0 0.06 0.205 0 0.08 0.205 0 0.1 0.205 0 0 0.21 0 0.02 0.21 0 0.04 0.21 0 0.06 0.21 0 0.08 0.21 0 0.1 0.21 0 0 0.215 0 0.02 0.215 0 0.04 0.215 0 0.06 0.215 0 0.08 0.215 0 0.1 0.215 0 0 0.22 0 0.02 0.22 0 0.04 0.22 0 0.06 0.22 0 0.08 0.22 0 0.1 0.22 0 0 0.225 0 0.02 0.225 0 0.04 0.225 0 0.06 0.225 0 0.08 0.225 0 0.1 0.225 0 0 0.23 0 0.02 0.23 0 0.04 0.23 0 0.06 0.23 0 0.08 0.23 0 0.1 0.23 0 0 0.235 0 0.02 0.235 0 0.04 0.235 0 0.06 0.235 0 0.08 0.235 0 0.1 0.235 0 0 0.24 0 0.02 0.24 0 0.04 0.24 0 0.06 0.24 0 0.08 0.24 0 0.1 0.24 0 0 0.245 0 0.02 0.245 0 0.04 0.245 0 0.06 0.245 0 0.08 0.245 0 0.1 0.245 0 0 0.25 0 0.02 0.25 0 0.04 0.25 0 0.06 0.25 0 0.08 0.25 0 0.1 0.25 0 0 0.255 0 0.02 0.255 0 0.04 0.255 0 0.06 0.255 0 0.08 0.255 0 0.1 0.255 0 0 0.26 0 0.02 0.26 0 0.04 0.26 0 0.06 0.26 0 0.08 0.26 0 0.1 0.26 0 0 0.265 0 0.02 0.265 0 0.04 0.265 0 0.06 0.265 0 0.08 0.265 0 0.1 0.265 0 0 0.27 0 0.02 0.27 0 0.04 0.27 0 0.06 0.27 0 0.08 0.27 0 0.1 0.27 0 0 0.275 0 0.02 0.275 0 0.04 0.275 0 0.06 0.275 0 0.08 0.275 0 0.1 0.275 0 0 0.28 0 0.02 0.28 0 0.04 0.28 0 0.06 0.28 0 0.08 0.28 0 0.1 0.28 0 0 0.285 0 0.02 0.285 0 0.04 0.285 0 0.06 0.285 0 0.08 0.285 0 0.1 0.285 0 0 0.29 0 0.02 0.29 0 0.04 0.29 0 0.06 0.29 0 0.08 0.29 0 0.1 0.29 0 0 0.295 0 0.02 0.295 0 0.04 0.295 0 0.06 0.295 0 0.08 0.295 0 0.1 0.295 0 0 0.3 0 0.02 0.3 0 0.04 0.3 0 0.06 0.3 0 0.08 0.3 0 0.1 0.3 0 0 0.305 0 0.02 0.305 0 0.04 0.305 0 0.06 0.305 0 0.08 0.305 0 0.1 0.305 0 0 0.31 0 0.02 0.31 0 0.04 0.31 0 0.06 0.31 0 0.08 0.31 0 0.1 0.31 0 0 0.315001 0 0.02 0.315001 0 0.04 0.315001 0 0.06 0.315001 0 0.08 0.315001 0 0.1 0.315001 0 0 0.320003 0 0.02 0.320003 0 0.04 0.320003 0 0.06 0.320003 0 0.08 0.320003 0 0.1 0.320003 0 0 0.32501 0 0.02 0.32501 0 0.04 0.32501 0 0.06 0.32501 0 0.08 0.32501 0 0.1 0.32501 0 0 0.330028 0 0.02 0.330028 0 0.04 0.330028 0 0.06 0.330028 0 0.08 0.330028 0 0.1 0.330028 0 0 0.335069 0 0.02 0.335069 0 0.04 0.335069 0 0.06 0.335069 0 0.08 0.335069 0 0.1 0.335069 0 0 0.340152 0 0.02 0.340152 0 0.04 0.340152 0 0.06 0.340152 0 0.08 0.340152 0 0.1 0.340152 0 0 0.345302 0 0.02 0.345302 0 0.04 0.345302 0 0.06 0.345302 0 0.08 0.345302 0 0.1 0.345302 0 0 0.350545 0 0.02 0.350545 0 0.04 0.350545 0 0.06 0.350545 0 0.08 0.350545 0 0.1 0.350545 0 0 0.355902 0 0.02 0.355902 0 0.04 0.355902 0 0.06 0.355902 0 0.08 0.355902 0 0.1 0.355902 0 0 0.361393 0 0.02 0.361393 0 0.04 0.361393 0 0.06 0.361393 0 0.08 0.361393 0 0.1 0.361393 0 0 0.367034 0 0.02 0.367034 0 0.04 0.367034 0 0.06 0.367034 0 0.08 0.367034 0 0.1 0.367034 0 0 0.372839 0 0.02 0.372839 0 0.04 0.372839 0 0.06 0.372839 0 0.08 0.372839 0 0.1 0.372839 0 0 0.378823 0 0.02 0.378823 0 0.04 0.378823 0 0.06 0.378823 0 0.08 0.378823 0 0.1 0.378823 0 0 0.385 0 0.02 0.385 0 0.04 0.385 0 0.06 0.385 0 0.08 0.385 0 0.1 0.385 0 0 0.391385 0 0.02 0.391385 0 0.04 0.391385 0 0.06 0.391385 0 0.08 0.391385 0 0.1 0.391385 0 0 0.397997 0 0.02 0.397997 0 0.04 0.397997 0 0.06 0.397997 0 0.08 0.397997 0 0.1 0.397997 0 0 0.404855 0 0.02 0.404855 0 0.04 0.404855 0 0.06 0.404855 0 0.08 0.404855 0 0.1 0.404855 0 0 0.411979 0 0.02 0.411979 0 0.04 0.411979 0 0.06 0.411979 0 0.08 0.411979 0 0.1 0.411979 0 0 0.419394 0 0.02 0.419394 0 0.04 0.419394 0 0.06 0.419394 0 0.08 0.419394 0 0.1 0.419394 0 0 0.427128 0 0.02 0.427128 0 0.04 0.427128 0 0.06 0.427128 0 0.08 0.427128 0 0.1 0.427128 0 0 0.435213 0 0.02 0.435213 0 0.04 0.435213 0 0.06 0.435213 0 0.08 0.435213 0 0.1 0.435213 0 0 0.443683 0 0.02 0.443683 0 0.04 0.443683 0 0.06 0.443683 0 0.08 0.443683 0 0.1 0.443683 0 0 0.45258 0 0.02 0.45258 0 0.04 0.45258 0 0.06 0.45258 0 0.08 0.45258 0 0.1 0.45258 0 0 0.46195 0 0.02 0.46195 0 0.04 0.46195 0 0.06 0.46195 0 0.08 0.46195 0 0.1 0.46195 0 0 0.471845 0 0.02 0.471845 0 0.04 0.471845 0 0.06 0.471845 0 0.08 0.471845 0 0.1 0.471845 0 0 0.482318 0 0.02 0.482318 0 0.04 0.482318 0 0.06 0.482318 0 0.08 0.482318 0 0.1 0.482318 0 0 0.493413 0 0.02 0.493413 0 0.04 0.493413 0 0.06 0.493413 0 0.08 0.493413 0 0.1 0.493413 0 0 0.505127 0 0.02 0.505127 0 0.04 0.505127 0 0.06 0.505127 0 0.08 0.505127 0 0.1 0.505127 0 0 0.517286 0 0.02 0.517286 0 0.04 0.517286 0 0.06 0.517286 0 0.08 0.517286 0 0.1 0.517286 0 0 0.529453 0 0.02 0.529453 0 0.04 0.529453 0 0.06 0.529453 0 0.08 0.529453 0 0.1 0.529453 0 0 0.541487 0 0.02 0.541487 0 0.04 0.541487 0 0.06 0.541487 0 0.08 0.541487 0 0.1 0.541487 0 0 0.553395 0 0.02 0.553395 0 0.04 0.553395 0 0.06 0.553395 0 0.08 0.553395 0 0.1 0.553395 0 0 0.565212 0 0.02 0.565212 0 0.04 0.565212 0 0.06 0.565212 0 0.08 0.565212 0 0.1 0.565212 0 0 0.57698 0 0.02 0.57698 0 0.04 0.57698 0 0.06 0.57698 0 0.08 0.57698 0 0.1 0.57698 0 0 0.588725 0 0.02 0.588725 0 0.04 0.588725 0 0.06 0.588725 0 0.08 0.588725 0 0.1 0.588725 0 0 0.600464 0 0.02 0.600464 0 0.04 0.600464 0 0.06 0.600464 0 0.08 0.600464 0 0.1 0.600464 0 0 0.612201 0 0.02 0.612201 0 0.04 0.612201 0 0.06 0.612201 0 0.08 0.612201 0 0.1 0.612201 0 0 0.62395 0 0.02 0.62395 0 0.04 0.62395 0 0.06 0.62395 0 0.08 0.62395 0 0.1 0.62395 0 0 0.626561 0 0.02 0.626561 0 0.04 0.626561 0 0.06 0.626561 0 0.08 0.626561 0 0.1 0.626561 0 0 0.629098 0 0.02 0.629098 0 0.04 0.629098 0 0.06 0.629098 0 0.08 0.629098 0 0.1 0.629098 0 0 0.631589 0 0.02 0.631589 0 0.04 0.631589 0 0.06 0.631589 0 0.08 0.631589 0 0.1 0.631589 0 0 0.63405 0 0.02 0.63405 0 0.04 0.63405 0 0.06 0.63405 0 0.08 0.63405 0 0.1 0.63405 0 0 0.63649 0 0.02 0.63649 0 0.04 0.63649 0 0.06 0.63649 0 0.08 0.63649 0 0.1 0.63649 0 0 0.638913 0 0.02 0.638913 0 0.04 0.638913 0 0.06 0.638913 0 0.08 0.638913 0 0.1 0.638913 0 0 0.641327 0 0.02 0.641327 0 0.04 0.641327 0 0.06 0.641327 0 0.08 0.641327 0 0.1 0.641327 0 0 0.643738 0 0.02 0.643738 0 0.04 0.643738 0 0.06 0.643738 0 0.08 0.643738 0 0.1 0.643738 0 0 0.64615 0 0.02 0.64615 0 0.04 0.64615 0 0.06 0.64615 0 0.08 0.64615 0 0.1 0.64615 0 0 0.648547 0 0.02 0.648547 0 0.04 0.648547 0 0.06 0.648547 0 0.08 0.648547 0 0.1 0.648547 0 0 0.650932 0 0.02 0.650932 0 0.04 0.650932 0 0.06 0.650932 0 0.08 0.650932 0 0.1 0.650932 0 0 0.653313 0 0.02 0.653313 0 0.04 0.653313 0 0.06 0.653313 0 0.08 0.653313 0 0.1 0.653313 0 0 0.655691 0 0.02 0.655691 0 0.04 0.655691 0 0.06 0.655691 0 0.08 0.655691 0 0.1 0.655691 0 0 0.65807 0 0.02 0.65807 0 0.04 0.65807 0 0.06 0.65807 0 0.08 0.65807 0 0.1 0.65807 0 0 0.660448 0 0.02 0.660448 0 0.04 0.660448 0 0.06 0.660448 0 0.08 0.660448 0 0.1 0.660448 0 0 0.662822 0 0.02 0.662822 0 0.04 0.662822 0 0.06 0.662822 0 0.08 0.662822 0 0.1 0.662822 0 0 0.665194 0 0.02 0.665194 0 0.04 0.665194 0 0.06 0.665194 0 0.08 0.665194 0 0.1 0.665194 0 0 0.667563 0 0.02 0.667563 0 0.04 0.667563 0 0.06 0.667563 0 0.08 0.667563 0 0.1 0.667563 0 0 0.669932 0 0.02 0.669932 0 0.04 0.669932 0 0.06 0.669932 0 0.08 0.669932 0 0.1 0.669932 0 0 0.6723 0 0.02 0.6723 0 0.04 0.6723 0 0.06 0.6723 0 0.08 0.6723 0 0.1 0.6723 0 0 0.674665 0 0.02 0.674665 0 0.04 0.674665 0 0.06 0.674665 0 0.08 0.674665 0 0.1 0.674665 0 0 0.677029 0 0.02 0.677029 
[...]
			<PointData Scalars="VitesseX">
				<DataArray Name="VitesseX" type="Float32" format="ascii">
 0 -1.944e-16 -1.27949e-16 2.67463e-15 6.80325e-15 0 0 -1.54577e-16 -8.17516e-17 3.00871e-15 6.63273e-15 0 0 3.69399e-16 -1.35782e-16 3.17671e-15 6.66674e-15 0 0 -3.04985e-16 1.80068e-15 1.59637e-15 7.85108e-15 0 0 -1.92131e-15 3.66341e-15 1.33102e-15 9.61447e-15 0 0 -2.31136e-15 4.05347e-15 9.99461e-16 1.17144e-14 0 0 -9.13838e-16 3.65754e-15 1.16562e-15 1.17999e-14 0 0 -5.43289e-16 5.44035e-15 3.96302e-15 7.11452e-15 0 0 -3.23035e-17 5.02062e-15 8.36711e-15 1.23388e-15 0 0 2.10733e-15 2.71151e-15 1.04926e-14 7.02839e-16 0 0 1.00095e-15 6.11438e-15 7.27999e-15 2.74286e-15 0 0 9.68542e-16 7.01706e-15 5.18159e-15 5.81418e-15 0 0 2.55647e-15 5.38928e-15 4.0814e-15 1.27894e-14 0 0 2.70078e-15 4.22707e-15 5.79136e-15 1.39425e-14 0 0 4.44445e-15 1.97092e-15 9.57374e-15 1.11688e-14 0 0 7.26667e-15 6.56092e-16 7.20547e-15 1.01841e-14 0 0 4.78995e-15 4.81929e-15 -3.63021e-16 1.03317e-14 0 0 3.40152e-15 7.74322e-15 -5.20199e-15 7.50121e-15 0 0 4.98581e-15 3.90041e-15 -2.25044e-15 1.28263e-15 0 0 5.34357e-15 1.05232e-15 -2.19472e-16 -2.35576e-15 0 0 5.35289e-15 4.45689e-15 -2.67817e-15 -5.45073e-15 0 0 -1.08496e-18 1.27342e-14 -4.88551e-15 -8.87876e-15 0 0 3.05045e-15 5.49368e-15 -2.5009e-15 -7.8805e-15 0 0 6.75892e-15 -6.6012e-15 4.54415e-16 4.583e-15 0 0 9.50504e-16 -1.13962e-15 -4.62315e-15 1.26286e-14 0 0 -2.04113e-15 3.50906e-16 -7.39209e-15 1.28223e-14 0 0 -4.91896e-15 -4.09258e-15 -5.7002e-15 1.34056e-14 0 0 3.40097e-15 -1.49709e-14 -1.96646e-15 8.67908e-15 0 0 6.14844e-15 -1.55536e-14 5.24777e-16 -5.61689e-16 0 0 1.20268e-15 -4.55177e-15 -5.78556e-15 -7.57873e-16 0 0 -1.1316e-16 3.38899e-15 -7.3555e-15 1.57606e-15 0 0 -5.88608e-16 -9.61407e-16 8.56075e-15 -6.38778e-15 0 0 -3.59515e-15 -2.85759e-15 9.04551e-15 -4.97921e-16 0 0 -1.20539e-14 8.50396e-15 -3.6745e-15 5.52448e-15 0 0 -7.00289e-15 -8.4753e-16 1.35072e-15 -5.77707e-16 0 0 2.89738e-15 -1.0718e-14 4.06222e-15 1.21845e-15 0 0 5.60479e-15 -8.09705e-15 -1.28413e-15 -2.53634e-15 0 0 -6.45932e-15 4.12501e-15 -5.37663e-15 -1.0187e-14 0 0 -3.38956e-15 4.65651e-15 -1.04957e-14 -2.04481e-15 0 0 6.9921e-15 -4.4883e-15 -2.66068e-15 4.28458e-15 0 0 2.91142e-15 1.12152e-15 -4.03723e-15 1.19947e-14 0 0 7.67035e-16 3.94497e-16 -1.23541e-14 1.93879e-14 0 0 9.20004e-16 -1.06748e-14 -4.75664e-15 9.13908e-15 0 0 -5.50701e-15 4.59534e-15 -2.8781e-14 9.48501e-15 0 0 -5.3252e-15 9.85821e-15 -2.93107e-14 1.47343e-15 0 0 9.34107e-15 -1.62714e-14 1.81781e-17 -8.49294e-15 0 0 3.40107e-15 -1.37384e-14 5.4115e-15 -1.104e-14 0 0 -8.41407e-15 1.94576e-15 -3.49292e-15 -9.51153e-15 0 0 -9.16227e-16 -5.51217e-15 1.2572e-15 -1.76969e-14 0 0 -1.01868e-14 -2.55143e-16 2.06773e-14 -2.01228e-14 0 0 -1.12767e-14 7.52976e-15 1.10924e-14 1.25155e-14 0 0 1.74746e-14 -2.86043e-16 7.80624e-15 1.53581e-14 0 0 2.80952e-14 -9.43747e-16 6.17573e-15 1.41628e-14 0 0 1.72249e-14 -6.89991e-15 1.93394e-14 1.48283e-14 0 0 6.38209e-15 -2.4009e-14 5.0104e-14 4.39418e-15 0 0 -1.91613e-14 -2.21826e-14 2.25923e-14 2.84589e-14 0 0 -1.31682e-14 -1.26793e-15 -1.87305e-14 3.20845e-14 0 0 2.24184e-14 -5.73765e-16 -1.50175e-14 -6.5044e-15 0 0 -7.03963e-15 9.3954e-15 -1.55534e-14 -1.93144e-14 0 0 -7.19112e-15 -5.09945e-16 -1.81004e-14 -1.47939e-14 0 0 2.6767e-14 -1.0378e-14 -2.31191e-14 -2.01149e-14 0 0 2.21425e-14 -3.46633e-15 -4.14072e-14 -1.58079e-14 0 0 -4.04756e-15 -1.48569e-14 -2.46247e-14 -3.02729e-14 0 0 -2.10409e-14 -2.19198e-14 5.05565e-15 -4.37143e-14 0 0 4.72719e-15 -1.48653e-14 -7.42267e-16 -5.57622e-14 0 0 3.23967e-14 -2.61402e-14 -1.04607e-14 -5.73382e-14 0 0 7.67875e-15 -5.722e-15 -2.9027e-14 -7.29459e-15 0 0 3.90761e-15 -1.20537e-14 -1.65379e-14 6.87541e-15 0 0 4.82174e-15 -2.16049e-14 -1.80644e-14 2.83232e-15 0 0 -2.89351e-14 1.73776e-14 -4.36179e-14 5.96265e-15 0 0 -2.38046e-14 -2.30261e-14 1.13238e-14 -3.39536e-15 0 0 -6.57941e-15 -4.13621e-14 2.39021e-14 -1.70542e-14 0 0 7.53395e-16 -1.90618e-14 1.2348e-14 -3.47252e-14 0 0 -1.95831e-14 -2.01948e-15 1.79278e-14 -2.67368e-14 0 0 -8.95394e-15 -9.29158e-15 8.34652e-15 -1.59776e-14 0 0 -5.80851e-15 -1.94514e-14 1.31207e-14 -3.70477e-15 0 0 -3.21192e-14 -9.74071e-16 1.07913e-14 -5.3576e-15 0 0 -6.10603e-15 -6.81654e-15 9.41929e-15 -1.01047e-14 0 0 6.52187e-15 -1.93014e-14 4.0644e-15 9.58803e-15 0 0 -1.98789e-14 1.58006e-14 -1.08603e-14 7.23054e-15 0 0 -2.09479e-14 1.35929e-14 -6.37272e-15 -7.00913e-15 0 0 2.37002e-15 -3.97903e-15 -1.78346e-14 2.19029e-15 0 0 1.09104e-14 -5.66314e-15 -1.49353e-14 -2.02284e-14 0 0 -5.2432e-15 2.7658e-15 -6.63673e-15 -7.39401e-15 0 0 -1.50723e-14 1.42794e-14 -3.5185e-14 3.03794e-14 0 0 1.58408e-14 1.00046e-14 -2.59356e-14 9.65728e-16 0 0 1.85573e-14 6.44805e-15 4.94408e-15 2.53571e-15 0 0 1.29553e-14 -5.95887e-15 8.08694e-15 -1.64107e-15 0 0 2.65951e-16 8.62025e-15 1.47578e-14 -2.999e-14 0 0 -1.12889e-14 -9.96607e-15 7.8846e-15 -1.4855e-14 0 0 -2.34068e-14 -2.37586e-14 -1.38487e-14 -9.06247e-15 0 0 -2.74665e-14 -3.25867e-14 -2.27654e-14 -3.3303e-14 0 0 -2.24285e-14 -5.80837e-14 -2.92382e-14 -3.13734e-14 0 0 -3.33422e-14 -2.39448e-14 -1.1272e-14 6.01844e-15 0 0 2.00075e-14 4.12208e-14 5.22727e-14 4.07741e-14 0 0 8.77205e-14 1.30841e-13 1.34159e-13 8.54121e-14 0 0 1.39593e-13 2.19379e-13 2.21463e-13 1.33099e-13 0 0 1.81629e-13 2.7557e-13 2.89965e-13 1.79813e-13 0 0 1.95534e-13 3.11263e-13 3.2788e-13 1.96483e-13 0 0 2.16124e-13 3.57737e-13 3.64805e-13 1.94204e-13 0 0 2.70754e-13 4.37328e-13 4.24189e-13 2.38566e-13 0 0 5.01252e-13 7.78232e-13 7.89874e-13 4.31895e-13 0 0 4.84225e-13 7.67203e-13 7.63021e-13 4.62345e-13 0 0 4.6781e-13 7.59874e-13 7.48699e-13 4.16256e-13 0 0 4.877e-13 7.36633e-13 7.55883e-13 3.83993e-13 0 0 4.67644e-13 7.79647e-13 7.23027e-13 4.84662e-13 0 0 4.34917e-13 8.18817e-13 6.36121e-13 5.44392e-13 0 0 4.00577e-13 6.81953e-13 5.61602e-13 4.01383e-13 0 0 2.23568e-13 3.70391e-13 3.60501e-13 2.01963e-13 0 0 1.44729e-14 2.70725e-14 2.24704e-14 5.037e-14 0 0 -1.38377e-13 -2.62454e-13 -2.45339e-13 -1.37207e-13 0 0 -2.4128e-13 -4.47946e-13 -3.53296e-13 -2.9909e-13 0 0 -2.81291e-13 -5.13138e-13 -3.83696e-13 -3.13215e-13 0 0 -2.70387e-13 -4.56071e-13 -4.30847e-13 -2.5479e-13 0 0 -2.00174e-13 -3.97691e-13 -3.96896e-13 -2.26282e-13 0 0 -1.6902e-13 -3.19591e-13 -2.99789e-13 -1.99862e-13 0 0 -1.8129e-13 -1.88228e-13 -2.83731e-13 -2.00471e-13 0 0 -1.00941e-13 -1.65381e-13 -1.60675e-13 -2.01269e-13 0 0 -3.38067e-14 -1.12564e-13 -8.23803e-14 -7.96575e-14 0 0 -1.97643e-14 1.53802e-16 -8.67252e-14 -2.24891e-14 0 0 1.64056e-14 5.89928e-14 -1.50416e-14 2.48018e-14 0 0 5.25586e-14 1.27049e-13 5.74962e-14 6.97617e-14 0 0 8.92859e-14 1.55241e-13 1.23966e-13 7.4242e-14 0 0 1.11046e-13 1.83056e-13 1.78306e-13 1.10004e-13 0 0 1.21482e-13 2.34653e-13 2.19014e-13 1.8538e-13 0 0 1.3338e-13 2.80806e-13 2.662e-13 2.4198e-13 0 0 1.72568e-13 2.70437e-13 3.98271e-13 2.34545e-13 0 0 2.06484e-13 2.49077e-13 4.86719e-13 2.15522e-13 0 0 2.14589e-13 2.85956e-13 5.03928e-13 2.05461e-13 0 0 2.31778e-13 3.74592e-13 4.68019e-13 2.43986e-13 0 0 2.53704e-13 4.50549e-13 4.71149e-13 2.97965e-13 0 0 2.73336e-13 4.6334e-13 5.12225e-13 3.49718e-13 0 0 2.69746e-13 5.01035e-13 5.05677e-13 3.62868e-13 0 0 2.91317e-13 5.37874e-13 4.71587e-13 4.13797e-13 0 0 3.00633e-13 5.72371e-13 4.77475e-13 4.6084e-13 0 0 3.11079e-13 5.95513e-13 5.20476e-13 4.30139e-13 0 0 3.57112e-13 5.80741e-13 5.68713e-13 3.74799e-13 0 0 3.59521e-13 5.81289e-13 6.15306e-13 3.6604e-13 0 0 3.52615e-13 6.05023e-13 5.80429e-13 4.59567e-13 0 0 3.81006e-13 5.84341e-13 6.07211e-13 4.36662e-13 0 0 3.67447e-13 5.71524e-13 6.03604e-13 4.5045e-13 0 0 3.60909e-13 5.93478e-13 5.64712e-13 4.0929e-13 0 0 4.02866e-13 5.45609e-13 5.55096e-13 2.72327e-13 0 0 3.6907e-13 5.25448e-13 5.09329e-13 3.03151e-13 0 0 3.27401e-13 5.34092e-13 4.34201e-13 3.7519e-13 0 0 2.94214e-13 4.67945e-13 3.92612e-13 3.21321e-13 0 0 2.28804e-13 3.47597e-13 3.35529e-13 2.61997e-13 0 0 1.75186e-13 2.3965e-13 2.60223e-13 2.21022e-13 0 0 8.62371e-14 1.16486e-13 1.8924e-13 6.41833e-14 0 0 3.31501e-14 5.65193e-14 1.10597e-13 -1.88421e-14 0 0 -3.13704e-15 2.69711e-15 1.67604e-14 -1.05977e-14 0 0 -2.17633e-14 -3.65276e-14 -5.11591e-14 8.67507e-16 0 0 -3.30226e-14 -5.66358e-14 -7.48159e-14 -7.78476e-15 0 0 -4.11188e-14 -7.47763e-14 -5.51561e-14 -1.15687e-14 0 0 -4.5497e-14 -5.04741e-14 -6.979e-14 -1.63001e-14 0 0 -3.0671e-14 -5.74133e-14 -6.01812e-14 -4.3667e-14 0 0 -1.19411e-14 -9.26455e-14 -3.08208e-14 -5.80879e-14 0 0 -3.32911e-14 -7.06793e-14 -2.96179e-14 -6.86745e-14 0 0 -3.53953e-14 -5.79146e-14 -6.57045e-14 -5.85647e-14 0 0 -3.17871e-14 -5.6143e-14 -8.26823e-14 -5.8595e-14 0 0 -5.88099e-14 -3.21122e-14 -7.62327e-14 -6.94788e-14 0 0 -6.51698e-14 -3.48034e-14 -5.00146e-14 -6.79208e-14 0 0 -6.54848e-14 -4.73971e-14 -2.21761e-14 -9.28448e-14 0 0 -7.07453e-14 -5.01099e-14 -2.59866e-14 -6.99662e-14 0 0 -5.53645e-14 -8.1336e-14 -5.8361e-15 -4.16565e-14 0 0 -6.86564e-14 -4.72979e-14 -1.98764e-14 -2.43886e-14 0 0 -9.35979e-14 2.00282e-15 -4.65921e-14 -1.1052e-14 0 0 -8.87921e-14 -2.21391e-15 -2.98212e-14 -2.36324e-14 0 0 -8.22291e-14 6.99156e-15 -1.19294e-14 -5.32957e-14 0 0 -8.07639e-14 2.27126e-14 1.64009e-15 -1.13366e-13 0 0 -1.06674e-13 7.69147e-14 -2.07893e-14 -1.62585e-13 0 0 -7.55234e-14 6.53584e-14 1.06304e-15 -1.7624e-13 0 0 -1.09334e-14 -1.98755e-14 8.06147e-14 -1.49939e-13 0 0 -1.44027e-14 -1.53459e-14 6.48393e-14 -1.00418e-13 0 0 -1.79139e-14 2.85124e-14 -2.36891e-14 -1.20577e-14 0 0 8.56869e-15 3.16544e-14 -7.35313e-14 3.16345e-14 0 0 2.49786e-14 -1.53853e-15 -8.56964e-14 3.43175e-14 0 0 -6.14954e-15 9.88199e-15 -7.85064e-14 1.97997e-14 0 0 -2.55435e-14 2.14115e-14 -8.99426e-15 -4.81157e-14 0 0 8.14819e-16 -2.93944e-14 4.16891e-14 -5.05697e-14 0 0 9.09571e-15 -6.41854e-14 4.15228e-14 -5.60564e-15 0 0 2.8478e-15 -4.71599e-14 2.18892e-14 2.2954e-14 0 0 -5.28751e-15 5.9906e-15 -4.59975e-14 9.22441e-14 0 0 6.74311e-15 4.54153e-15 -4.78575e-14 8.97199e-14 0 0 -1.5317e-15 -1.26547e-14 -1.9395e-14 7.05702e-14 0 0 -6.19076e-14 2.84685e-14 4.03644e-15 4.54505e-14 0 0 -7.67102e-14 7.93975e-14 -1.3248e-14 3.74273e-15 0 0 -1.59835e-15 3.10113e-14 -1.2661e-14 -3.12821e-14 0 0 5.50031e-14 -6.70104e-14 4.74306e-14 -4.12717e-14 0 0 2.29076e-14 -3.33916e-14 8.69469e-15 2.70203e-14 0 0 9.29439e-15 -1.66696e-14 2.12461e-15 4.65329e-14 0 0 -1.8154e-14 7.15104e-15 -1.18691e-15 5.30583e-14 0 0 -4.50158e-14 7.54389e-14 -5.15175e-14 4.14012e-14 0 0 -3.06793e-14 7.76438e-14 -4.61775e-14 -3.15662e-14 0 0 6.43805e-15 1.7441e-14 -2.0019e-14 -2.13212e-14 0 0 3.1072e-14 -5.39543e-14 3.37603e-14 3.56905e-14 0 0 1.36394e-15 -5.9101e-14 6.83227e-14 3.27447e-14 0 0 4.58304e-17 -3.69556e-14 2.58319e-14 1.17303e-14 0 0 -2.63195e-15 -8.32276e-15 -1.37096e-14 -1.3005e-14 0 0 -1.95673e-14 3.94039e-15 -4.60966e-14 -3.40637e-14 0 0 -2.51452e-14 7.49642e-15 -6.78736e-14 -4.88911e-14 0
				</DataArray>
				<DataArray Name="VitesseY" type="Float32" format="ascii">