<?xml version="1.0"?>
<VTKFile type="PolyData">
	<PolyData>
		<Piece NumberOfPoints="1206" NumberOfPolys="1000">
			<Points>
				<DataArray type="Float32" NumberOfComponents="3" format="ascii">
 0 0 0 0.02 0 0 0.04 0 0 0.06 0 0 0.08 0 0 0.1 0 0 0 0.005 0 0.02 0.005 0 0.04 0.005 0 0.06 0.005 0 0.08 0.005 0 0.1 0.005 0 0 0.01 0 0.02 0.01 0 0.04 0.01 0 0.06 0.01 0 0.08 0.01 0 0.1 0.01 0 0 0.015 0 0.02 0.015 0 0.04 0.015 0 0.06 0.015 0 0.08 0.015 0 0.1 0.015 0 0 0.02 0 0.02 0.02 0 0.04 0.02 0 0.06 0.02 0 0.08 0.02 0 0.1 0.02 0 0 0.025 0 0.02 0.025 0 0.04 0.025 0 0.06 0.025 0 0.08 0.025 0 0.1 0.025 0 0 0.03 0 0.02 0.03 0 0.04 0.03 0 0.06 0.03 0 0.08 0.03 0 0.1 0.03 0 0 0.035 0 0.02 0.035 0 0.04 0.035 0 0.06 0.035 0 0.08 0.035 0 0.1 0.035 0 0 0.04 0 0.02 0.04 0 0.04 0.04 0 0.06 0.04 0 0.08 0.04 0 0.1 0.04 0 0 0.045 0 0.02 0.045 0 0.04 0.045 0 0.06 0.045 0 0.08 0.045 0 0.1 0.045 0 0 0.05 0 0.02 0.05 0 0.04 0.05 0 0.06 0.05 0 0.08 0.05 0 0.1 0.05 0 0 0.055 0 0.02 0.055 0 0.04 0.055 0 0.06 0.055 0 0.08 0.055 0 0.1 0.055 0 0 0.06 0 0.02 0.06 0 0.04 0.06 0 0.06 0.06 0 0.08 0.06 0 0.1 0.06 0 0 0.065 0 0.02 0.065 0 0.04 0.065 0 0.06 0.065 0 0.08 0.065 0 0.1 0.065 0 0 0.07 0 0.02 0.07 0 0.04 0.07 0 0.06 0.07 0 0.08 0.07 0 0.1 0.07 0 0 0.075 0 0.02 0.075 0 0.04 0.075 0 0.06 0.075 0 0.08 0.075 0 0.1 0.075 0 0 0.08 0 0.02 0.08 0 0.04 0.08 0 0.06 0.08 0 0.08 0.08 0 0.1 0.08 0 0 0.085 0 0.02 0.085 0 0.04 0.085 0 0.06 0.085 0 0.08 0.085 0 0.1 0.085 0 0 0.09 0 0.02 0.09 0 0.04 0.09 0 0.06 0.09 0 0.08 0.09 0 0.1 0.09 0 0 0.095 0 0.02 0.095 0 0.04 0.095 0 0.06 0.095 0 0.08 0.095 0 0.1 0.095 0 0 0.1 0 0.02 0.1 0 0.04 0.1 0 0.06 0.1 0 0.08 0.1 0 0.1 0.1 0 0 0.105 0 0.02 0.105 0 0.04 0.105 0 0.06 0.105 0 0.08 0.105 0 0.1 0.105 0 0 0.11 0 0.02 0.11 0 0.04 0.11 0 0.06 0.11 0 0.08 0.11 0 0.1 0.11 0 0 0.115 0 0.02 0.115 0 0.04 0.115 0 0.06 0.115 0 0.08 0.115 0 0.1 0.115 0 0 0.12 0 0.02 0.12 0 0.04 0.12 0 0.06 0.12 0 0.08 0.12 0 0.1 0.12 0 0 0.125 0 0.02 0.125 0 0.04 0.125 0 0.06 0.125 0 0.08 0.125 0 0.1 0.125 0 0 0.13 0 0.02 0.13 0 0.04 0.13 0 0.06 0.13 0 0.08 0.13 0 0.1 0.13 0 0 0.135 0 0.02 0.135 0 0.04 0.135 0 0.06 0.135 0 0.08 0.135 0 0.1 0.135 0 0 0.14 0 0.02 0.14 0 0.04 0.14 0 0.06 0.14 0 0.08 0.14 0 0.1 0.14 0 0 0.145 0 0.02 0.145 0 0.04 0.145 0 0.06 0.145 0 0.08 0.145 0 0.1 0.145 0 0 0.15 0 0.02 0.15 0 0.04 0.15 0 0.06 0.15 0 0.08 0.15 0 0.1 0.15 0 0 0.155 0 0.02 0.155 0 0.04 0.155 0 0.06 0.155 0 0.08 0.155 0 0.1 0.155 0 0 0.16 0 0.02 0.16 0 0.04 0.16 0 0.06 0.16 0 0.08 0.16 0 0.1 0.16 0 0 0.165 0 0.02 0.165 0 0.04 0.165 0 0.06 0.165 0 0.08 0.165 0 0.1 0.165 0 0 0.17 0 0.02 0.17 0 0.04 0.17 0 0.06 0.17 0 0.08 0.17 0 0.1 0.17 0 0 0.175 0 0.02 0.175 0 0.04 0.175 0 0.06 0.175 0 0.08 0.175 0 0.1 0.175 0 0 0.18 0 0.02 0.18 0 0.04 0.18 0 0.06 0.18 0 0.08 0.18 0 0.1 0.18 0 0 0.185 0 0.02 0.185 0 0.04 0.185 0 0.06 0.185 0 0.08 0.185 0 0.1 0.185 0 0 0.19 0 0.02 0.19 0 0.04 0.19 0 0.06 0.19 0 0.08 0.19 0 0.1 0.19 0 0 0.195 0 0.02 0.195 0 0.04 0.195 0 0.06 0.195 0 0.08 0.195 0 0.1 0.195 0 0 0.2 0 0.02 0.2 0 0.04 0.2 0 0.06 0.2 0 0.08 0.2 0 0.1 0.2 0 0 0.205 0 0.02 0.205 0 0.04 0.205 0 0.06 0.205 0 0.08 0.205 0 0.1 0.205 0 0 0.21 0 0.02 0.21 0 0.04 0.21 0 0.06 0.21 0 0.08 0.21 0 0.1 0.21 0 0 0.215 0 0.02 0.215 0 0.04 0.215 0 0.06 0.215 0 0.08 0.215 0 0.1 0.215 0 0 0.22 0 0.02 0.22 0 0.04 0.22 0 0.06 0.22 0 0.08 0.22 0 0.1 0.22 0 0 0.225 0 0.02 0.225 0 0.04 0.225 0 0.06 0.225 0 0.08 0.225 0 0.1 0.225 0 0 0.23 0 0.02 0.23 0 0.04 0.23 0 0.06 0.23 0 0.08 0.23 0 0.1 0.23 0 0 0.235 0 0.02 0.235 0 0.04 0.235 0 0.06 0.235 0 0.08 0.235 0 0.1 0.235 0 0 0.24 0 0.02 0.24 0 0.04 0.24 0 0.06 0.24 0 0.08 0.24 0 0.1 0.24 0 0 0.245 0 0.02 0.245 0 0.04 0.245 0 0.06 0.245 0 0.08 0.245 0 0.1 0.245 0 0 0.25 0 0.02 0.25 0 0.04 0.25 0 0.06 0.25 0 0.08 0.25 0 0.1 0.25 0 0 0.255 0 0.02 0.255 0 0.04 0.255 0 0.06 0.255 0 0.08 0.255 0 0.1 0.255 0 0 0.26 0 0.02 0.26 0 0.04 0.26 0 0.06 0.26 0 0.08 0.26 0 0.1 0.26 0 0 0.265 0 0.02 0.265 0 0.04 0.265 0 0.06 0.265 0 0.08 0.265 0 0.1 0.265 0 0 0.27 0 0.02 0.27 0 0.04 0.27 0 0.06 0.27 0 0.08 0.27 0 0.1 0.27 0 0 0.275 0 0.02 0.275 0 0.04 0.275 0 0.06 0.275 0 0.08 0.275 0 0.1 0.275 0 0 0.28 0 0.02 0.28 0 0.04 0.28 0 0.06 0.28 0 0.08 0.28 0 0.1 0.28 0 0 0.285 0 0.02 0.285 0 0.04 0.285 0 0.06 0.285 0 0.08 0.285 0 0.1 0.285 0 0 0.29 0 0.02 0.29 0 0.04 0.29 0 0.06 0.29 0 0.08 0.29 0 0.1 0.29 0 0 0.295 0 0.02 0.295 0 0.04 0.295 0 0.06 0.295 0 0.08 0.295 0 0.1 0.295 0 0 0.3 0 0.02 0.3 0 0.04 0.3 0 0.06 0.3 0 0.08 0.3 0 0.1 0.3 0 0 0.305 0 0.02 0.305 0 0.04 0.305 0 0.06 0.305 0 0.08 0.305 0 0.1 0.305 0 0 0.31 0 0.02 0.31 0 0.04 0.31 0 0.06 0.31 0 0.08 0.31 0 0.1 0.31 0 0 0.315 0 0.02 0.315 0 0.04 0.315 0 0.06 0.315 0 0.08 0.315 0 0.1 0.315 0 0 0.32 0 0.02 0.32 0 0.04 0.32 0 0.06 0.32 0 0.08 0.32 0 0.1 0.32 0 0 0.325 0 0.02 0.325 0 0.04 0.325 0 0.06 0.325 0 0.08 0.325 0 0.1 0.325 0 0 0.33 0 0.02 0.33 0 0.04 0.33 0 0.06 0.33 0 0.08 0.33 0 0.1 0.33 0 0 0.335 0 0.02 0.335 0 0.04 0.335 0 0.06 0.335 0 0.08 0.335 0 0.1 0.335 0 0 0.34 0 0.02 0.34 0 0.04 0.34 0 0.06 0.34 0 0.08 0.34 0 0.1 0.34 0 0 0.345 0 0.02 0.345 0 0.04 0.345 0 0.06 0.345 0 0.08 0.345 0 0.1 0.345 0 0 0.35 0 0.02 0.35 0 0.04 0.35 0 0.06 0.35 0 0.08 0.35 0 0.1 0.35 0 0 0.355 0 0.02 0.355 0 0.04 0.355 0 0.06 0.355 0 0.08 0.355 0 0.1 0.355 0 0 0.36 0 0.02 0.36 0 0.04 0.36 0 0.06 0.36 0 0.08 0.36 0 0.1 0.36 0 0 0.365 0 0.02 0.365 0 0.04 0.365 0 0.06 0.365 0 0.08 0.365 0 0.1 0.365 0 0 0.37 0 0.02 0.37 0 0.04 0.37 0 0.06 0.37 0 0.08 0.37 0 0.1 0.37 0 0 0.375 0 0.02 0.375 0 0.04 0.375 0 0.06 0.375 0 0.08 0.375 0 0.1 0.375 0 0 0.380001 0 0.02 0.380001 0 0.04 0.380001 0 0.06 0.380001 0 0.08 0.380001 0 0.1 0.380001 0 0 0.385004 0 0.02 0.385004 0 0.04 0.385004 0 0.06 0.385004 0 0.08 0.385004 0 0.1 0.385004 0 0 0.390015 0 0.02 0.390015 0 0.04 0.390015 0 0.06 0.390015 0 0.08 0.390015 0 0.1 0.390015 0 0 0.395048 0 0.02 0.395048 0 0.04 0.395048 0 0.06 0.395048 0 0.08 0.395048 0 0.1 0.395048 0 0 0.400132 0 0.02 0.400132 0 0.04 0.400132 0 0.06 0.400132 0 0.08 0.400132 0 0.1 0.400132 0 0 0.405308 0 0.02 0.405308 0 0.04 0.405308 0 0.06 0.405308 0 0.08 0.405308 0 0.1 0.405308 0 0 0.410629 0 0.02 0.410629 0 0.04 0.410629 0 0.06 0.410629 0 0.08 0.410629 0 0.1 0.410629 0 0 0.416145 0 0.02 0.416145 0 0.04 0.416145 0 0.06 0.416145 0 0.08 0.416145 0 0.1 0.416145 0 0 0.4219 0 0.02 0.4219 0 0.04 0.4219 0 0.06 0.4219 0 0.08 0.4219 0 0.1 0.4219 0 0 0.427933 0 0.02 0.427933 0 0.04 0.427933 0 0.06 0.427933 0 0.08 0.427933 0 0.1 0.427933 0 0 0.434286 0 0.02 0.434286 0 0.04 0.434286 0 0.06 0.434286 0 0.08 0.434286 0 0.1 0.434286 0 0 0.441003 0 0.02 0.441003 0 0.04 0.441003 0 0.06 0.441003 0 0.08 0.441003 0 0.1 0.441003 0 0 0.448137 0 0.02 0.448137 0 0.04 0.448137 0 0.06 0.448137 0 0.08 0.448137 0 0.1 0.448137 0 0 0.455751 0 0.02 0.455751 0 0.04 0.455751 0 0.06 0.455751 0 0.08 0.455751 0 0.1 0.455751 0 0 0.463922 0 0.02 0.463922 0 0.04 0.463922 0 0.06 0.463922 0 0.08 0.463922 0 0.1 0.463922 0 0 0.472742 0 0.02 0.472742 0 0.04 0.472742 0 0.06 0.472742 0 0.08 0.472742 0 0.1 0.472742 0 0 0.482323 0 0.02 0.482323 0 0.04 0.482323 0 0.06 0.482323 0 0.08 0.482323 0 0.1 0.482323 0 0 0.492785 0 0.02 0.492785 0 0.04 0.492785 0 0.06 0.492785 0 0.08 0.492785 0 0.1 0.492785 0 0 0.504213 0 0.02 0.504213 0 0.04 0.504213 0 0.06 0.504213 0 0.08 0.504213 0 0.1 0.504213 0 0 0.516434 0 0.02 0.516434 0 0.04 0.516434 0 0.06 0.516434 0 0.08 0.516434 0 0.1 0.516434 0 0 0.528701 0 0.02 0.528701 0 0.04 0.528701 0 0.06 0.528701 0 0.08 0.528701 0 0.1 0.528701 0 0 0.540737 0 0.02 0.540737 0 0.04 0.540737 0 0.06 0.540737 0 0.08 0.540737 0 0.1 0.540737 0 0 0.552601 0 0.02 0.552601 0 0.04 0.552601 0 0.06 0.552601 0 0.08 0.552601 0 0.1 0.552601 0 0 0.564387 0 0.02 0.564387 0 0.04 0.564387 0 0.06 0.564387 0 0.08 0.564387 0 0.1 0.564387 0 0 0.576161 0 0.02 0.576161 0 0.04 0.576161 0 0.06 0.576161 0 0.08 0.576161 0 0.1 0.576161 0 0 0.578775 0 0.02 0.578775 0 0.04 0.578775 0 0.06 0.578775 0 0.08 0.578775 0 0.1 0.578775 0 0 0.581315 0 0.02 0.581315 0 0.04 0.581315 0 0.06 0.581315 0 0.08 0.581315 0 0.1 0.581315 0 0 0.583809 0 0.02 0.583809 0 0.04 0.583809 0 0.06 0.583809 0 0.08 0.583809 0 0.1 0.583809 0 0 0.586274 0 0.02 0.586274 0 0.04 0.586274 0 0.06 0.586274 0 0.08 0.586274 0 0.1 0.586274 0 0 0.588717 0 0.02 0.588717 0 0.04 0.588717 0 0.06 0.588717 0 0.08 0.588717 0 0.1 0.588717 0 0 0.591144 0 0.02 0.591144 0 0.04 0.591144 0 0.06 0.591144 0 0.08 0.591144 0 0.1 0.591144 0 0 0.593562 0 0.02 0.593562 0 0.04 0.593562 0 0.06 0.593562 0 0.08 0.593562 0 0.1 0.593562 0 0 0.595977 0 0.02 0.595977 0 0.04 0.595977 0 0.06 0.595977 0 0.08 0.595977 0 0.1 0.595977 0 0 0.598392 0 0.02 0.598392 0 0.04 0.598392 0 0.06 0.598392 0 0.08 0.598392 0 0.1 0.598392 0 0 0.600793 0 0.02 0.600793 0 0.04 0.600793 0 0.06 0.600793 0 0.08 0.600793 0 0.1 0.600793 0 0 0.603181 0 0.02 0.603181 0 0.04 0.603181 0 0.06 0.603181 0 0.08 0.603181 0 0.1 0.603181 0 0 0.605565 0 0.02 0.605565 0 0.04 0.605565 0 0.06 0.605565 0 0.08 0.605565 0 0.1 0.605565 0 0 0.607946 0 0.02 0.607946 0 0.04 0.607946 0 0.06 0.607946 0 0.08 0.607946 0 0.1 0.607946 0 0 0.610328 0 0.02 0.610328 0 0.04 0.610328 0 0.06 0.610328 0 0.08 0.610328 0 0.1 0.610328 0 0 0.612711 0 0.02 0.612711 0 0.04 0.612711 0 0.06 0.612711 0 0.08 0.612711 0 0.1 0.612711 0 0 0.615092 0 0.02 0.615092 0 0.04 0.615092 0 0.06 0.615092 0 0.08 0.615092 0 0.1 0.615092 0 0 0.61747 0 0.02 0.61747 0 0.04 0.61747 0 0.06 0.61747 0 0.08 0.61747 0 0.1 0.61747 0 0 0.619843 0 0.02 0.619843 0 0.04 0.619843 0 0.06 0.619843 0 0.08 0.619843 0 0.1 0.619843 0 0 0.622219 0 0.02 0.622219 0 0.04 0.622219 0 0.06 0.622219 0 0.08 0.622219 0 0.1 0.622219 0 0 0.624597 0 0.02 0.624597 0 0.04 0.624597 0 0.06 0.624597 0 0.08 0.624597 0 0.1 0.624597 0 0 0.62698 0 0.02 0.62698 0 0.04 0.62698 0 0.06 0.62698 0 0.08 0.62698 0 0.1 0.62698 0 0 0.629375 0 0.02 0.629375 0 0.04 0.629375 0 0.06 0.629375 0 0.08 0.629375 0 0.1 0.629375 0 0 0.631798 0 0.02 0.631798 0 0.04 0.631798 0 0.06 0.631798 0 0.08 0.631798 0 0.1 0.631798 0 0 0.63426 0 0.02 0.63426 0 0.04 0.63426 0 0.06 0.6342
[...]
			<PointData Scalars="VitesseX">
				<DataArray Name="VitesseX" type="Float32" format="ascii">
 0 -9.61179e-16 -1.53681e-15 3.30448e-15 5.17427e-15 0 0 -1.77863e-15 -9.55849e-16 4.12387e-15 4.48073e-15 0 0 -3.02065e-15 -5.26717e-16 6.07458e-15 3.16086e-15 0 0 -2.66898e-15 -4.8879e-16 6.14145e-15 3.45147e-15 0 0 -9.11949e-16 -4.80362e-16 5.46394e-15 3.33966e-15 0 0 8.55184e-16 -1.40928e-15 5.60128e-15 1.95305e-15 0 0 1.65165e-15 -9.20979e-16 3.8183e-15 2.52541e-15 0 0 -5.52289e-16 1.49267e-15 3.40184e-15 1.85111e-15 0 0 -1.06787e-15 8.65647e-16 3.50095e-15 1.4881e-15 0 0 1.74117e-15 -3.68877e-16 -1.06253e-15 5.88751e-15 0 0 5.6341e-16 1.61399e-15 -5.43384e-15 1.05586e-14 0 0 1.75415e-17 1.21696e-15 -3.78066e-15 9.87175e-15 0 0 -1.72144e-15 3.93e-15 -4.85529e-15 8.54086e-15 0 0 -1.73775e-15 2.6492e-15 -2.06666e-15 6.63892e-15 0 0 -1.23244e-15 4.47194e-15 -2.27758e-15 6.8086e-15 0 0 -1.62551e-15 6.17087e-15 -4.05074e-15 7.28645e-15 0 0 1.70892e-15 -3.96144e-16 8.7081e-17 6.54415e-15 0 0 2.04016e-15 1.59716e-17 1.79935e-16 8.04628e-15 0 0 1.64721e-15 -5.17991e-17 3.78293e-15 5.56426e-15 0 0 -1.0951e-15 4.30515e-15 3.31882e-15 4.73248e-15 0 0 1.16466e-15 2.52271e-15 4.24404e-15 5.03033e-15 0 0 3.4886e-15 -3.05205e-15 8.20717e-15 3.3934e-15 0 0 -2.5373e-15 5.05436e-15 5.00929e-15 1.89007e-15 0 0 -8.41605e-16 4.80758e-15 4.1966e-15 5.58508e-15 0 0 4.27824e-15 -7.09766e-16 6.00267e-15 7.64156e-15 0 0 -1.46097e-15 7.96415e-15 1.71906e-16 5.43391e-15 0 0 1.63784e-16 8.15522e-15 -4.87634e-16 3.00783e-16 0 0 3.10717e-15 3.53358e-15 2.57876e-15 -1.38946e-15 0 0 -1.64942e-15 5.92374e-15 1.41995e-15 1.72939e-15 0 0 1.87227e-15 4.00583e-15 3.70121e-15 1.32855e-15 0 0 1.06393e-15 2.26109e-15 1.30889e-14 -1.0046e-14 0 0 2.86731e-15 -3.8944e-15 1.69938e-14 -1.64614e-14 0 0 -2.80879e-15 6.31715e-15 1.08703e-15 -6.58368e-15 0 0 -1.1317e-14 2.17326e-14 -1.51371e-14 1.09274e-15 0 0 -2.61727e-16 4.58167e-15 -6.23481e-15 -3.12383e-15 0 0 4.33541e-15 -1.36647e-14 9.1866e-15 -9.94629e-15 0 0 -5.42421e-15 -2.01376e-15 -1.51092e-16 -2.21303e-15 0 0 -2.73161e-15 4.24939e-15 -1.55765e-14 1.0953e-14 0 0 3.88501e-15 -7.36492e-16 -1.27028e-14 1.55943e-14 0 0 1.77571e-16 1.81328e-15 -5.08255e-15 1.81976e-14 0 0 1.51493e-15 -2.72772e-15 -4.09183e-15 3.55926e-14 0 0 -2.37788e-15 3.40774e-15 -1.02643e-14 4.10693e-14 0 0 2.20666e-15 -9.31266e-16 -2.66099e-15 1.32939e-14 0 0 1.18095e-14 -1.05875e-14 -2.46036e-16 -3.67729e-15 0 0 4.9108e-16 1.7769e-15 -2.71056e-15 -6.4203e-15 0 0 3.09207e-15 -5.58347e-15 1.44845e-14 -1.83687e-14 0 0 5.55305e-15 -3.54217e-15 1.67522e-14 -2.26937e-14 0 0 -3.73235e-15 1.59214e-14 -1.2579e-15 -1.06777e-14 0 0 5.22855e-15 5.06778e-15 6.38831e-15 -8.24551e-15 0 0 1.07564e-14 -7.02743e-16 9.78203e-15 4.97922e-16 0 0 2.23484e-16 1.94486e-14 -1.23794e-15 6.66888e-15 0 0 -4.22613e-15 2.73311e-14 8.57078e-16 1.07579e-14 0 0 -1.85737e-15 5.32189e-15 1.19772e-14 2.0803e-14 0 0 -5.97943e-15 -1.04469e-14 5.7532e-15 2.99876e-14 0 0 -2.00469e-16 -1.66934e-14 -5.33683e-15 2.1177e-14 0 0 -2.15998e-16 -5.40611e-15 -1.82433e-15 -8.9278e-15 0 0 5.27418e-15 -8.10845e-15 9.38307e-15 -1.39367e-14 0 0 1.69767e-14 -3.15644e-14 9.86233e-15 1.532e-14 0 0 3.1045e-15 -2.31308e-14 6.78769e-15 2.30715e-14 0 0 -1.08489e-14 -5.54658e-15 1.53011e-14 1.58552e-15 0 0 -6.32353e-15 -1.99215e-15 1.24407e-14 -1.90476e-15 0 0 1.27998e-14 -1.10429e-14 9.1704e-15 -2.68555e-15 0 0 4.72186e-15 -2.24202e-15 -5.73897e-16 3.63536e-15 0 0 -4.59766e-15 -5.10364e-15 9.37335e-15 3.57298e-15 0 0 1.33637e-14 -2.48645e-14 3.30422e-14 5.95041e-16 0 0 1.25724e-14 -8.12127e-15 3.72965e-14 -7.14805e-15 0 0 5.27714e-16 2.6369e-14 1.58779e-14 1.2498e-14 0 0 5.54907e-15 2.12178e-14 1.69254e-14 3.43057e-14 0 0 9.20198e-15 -5.40776e-15 1.14485e-14 5.78042e-14 0 0 9.44477e-15 1.8909e-14 -1.83922e-14 3.94595e-14 0 0 9.1067e-15 1.62173e-14 1.56693e-14 -1.91649e-14 0 0 -5.08145e-15 -9.94488e-15 5.18281e-14 -3.51329e-14 0 0 -1.73591e-14 -2.2816e-14 4.03439e-14 -4.00151e-14 0 0 -2.20178e-14 -1.70574e-14 2.12173e-14 -4.80115e-14 0 0 6.28158e-16 -1.03398e-14 1.10726e-14 -4.47373e-14 0 0 1.32446e-14 -2.10251e-14 -1.00297e-14 -1.43949e-14 0 0 7.22029e-15 -1.08664e-14 -1.53793e-14 -6.08283e-15 0 0 8.79441e-15 -1.77188e-14 4.81205e-15 -8.66236e-15 0 0 -5.88088e-15 -1.08768e-14 1.68178e-14 -2.28199e-14 0 0 -2.53321e-14 6.47463e-15 -2.01355e-15 -6.42913e-15 0 0 -2.25767e-15 -1.21711e-14 -3.00354e-14 4.11739e-14 0 0 -3.28299e-15 -3.27547e-14 -7.50427e-15 1.36274e-14 0 0 -9.26913e-15 -2.32816e-14 -4.14411e-15 -2.60119e-15 0 0 -7.37878e-15 -8.42618e-16 -2.55016e-14 5.11038e-15 0 0 -2.87888e-14 1.2409e-14 -3.8267e-14 4.87432e-15 0 0 -1.47772e-14 -8.55155e-15 -1.13402e-14 -2.28075e-15 0 0 6.80096e-15 -2.42194e-14 1.05253e-14 -1.38561e-14 0 0 -1.98227e-15 -8.353e-15 -1.80392e-14 1.50258e-14 0 0 -1.33763e-14 -9.07294e-15 -1.51622e-14 1.20039e-14 0 0 -2.3928e-15 -1.66995e-14 -2.06623e-14 -1.40506e-15 0 0 -1.28021e-14 -1.7969e-14 -1.57616e-14 -1.2197e-14 0 0 4.95346e-15 -2.16774e-16 -1.60398e-15 -3.35874e-14 0 0 6.64024e-15 1.49278e-14 -7.46985e-15 -2.23565e-14 0 0 -3.26689e-15 -3.98131e-15 -9.87863e-16 9.05189e-15 0 0 4.75956e-15 -1.13482e-14 -6.88446e-15 2.25826e-15 0 0 -4.71829e-14 -6.40233e-14 -6.96645e-14 -4.9104e-14 0 0 -1.1129e-13 -1.71219e-13 -1.60937e-13 -1.21328e-13 0 0 -1.26697e-13 -2.0854e-13 -1.94079e-13 -1.34519e-13 0 0 -6.4391e-14 -1.04129e-13 -1.03977e-13 -6.52122e-14 0 0 5.72553e-14 9.96812e-14 9.02381e-14 3.97054e-14 0 0 1.50852e-13 2.33197e-13 2.36566e-13 1.33862e-13 0 0 3.31589e-13 4.86359e-13 5.45569e-13 2.76628e-13 0 0 3.33208e-13 5.37913e-13 5.18273e-13 3.06374e-13 0 0 3.50599e-13 5.39818e-13 5.77975e-13 2.97304e-13 0 0 3.71712e-13 5.67337e-13 5.70279e-13 3.5769e-13 0 0 3.80942e-13 6.10636e-13 5.78467e-13 4.12299e-13 0 0 3.8099e-13 6.24982e-13 5.87545e-13 3.92976e-13 0 0 2.93651e-13 5.44693e-13 4.72514e-13 3.37177e-13 0 0 1.07474e-13 2.65466e-13 2.18322e-13 1.62306e-13 0 0 -9.65302e-14 -7.0178e-14 -1.08511e-13 -5.5408e-14 0 0 -2.80206e-13 -3.87184e-13 -3.57037e-13 -2.3366e-13 0 0 -3.86917e-13 -5.74571e-13 -5.50372e-13 -3.29765e-13 0 0 -4.23427e-13 -6.26284e-13 -6.51357e-13 -3.48452e-13 0 0 -4.04172e-13 -6.57024e-13 -6.39644e-13 -3.56802e-13 0 0 -3.53483e-13 -6.61859e-13 -5.838e-13 -3.85228e-13 0 0 -3.09277e-13 -6.68098e-13 -4.91566e-13 -4.2986e-13 0 0 -3.07327e-13 -6.26817e-13 -5.04164e-13 -3.91469e-13 0 0 -3.47133e-13 -4.85127e-13 -5.70023e-13 -3.32221e-13 0 0 -3.6254e-13 -4.18708e-13 -5.46676e-13 -3.3638e-13 0 0 -3.2551e-13 -4.57147e-13 -5.11133e-13 -3.27312e-13 0 0 -3.0588e-13 -4.54536e-13 -4.72678e-13 -3.17316e-13 0 0 -2.93548e-13 -4.63833e-13 -4.36912e-13 -3.13047e-13 0 0 -2.88835e-13 -4.38679e-13 -4.71539e-13 -3.0497e-13 0 0 -2.85429e-13 -4.11167e-13 -4.86166e-13 -2.52627e-13 0 0 -2.92737e-13 -4.33576e-13 -5.19024e-13 -2.24559e-13 0 0 -3.09208e-13 -4.20507e-13 -4.77743e-13 -2.31717e-13 0 0 -3.1311e-13 -4.24928e-13 -4.75799e-13 -2.38779e-13 0 0 -2.75404e-13 -4.23681e-13 -3.9101e-13 -1.52193e-13 0 0 -2.32558e-13 -4.26507e-13 -3.15057e-13 -9.24122e-14 0 0 -2.22801e-13 -3.74652e-13 -3.13625e-13 -1.07397e-13 0 0 -2.09595e-13 -3.1604e-13 -2.13361e-13 -1.58657e-13 0 0 -1.43389e-13 -2.16143e-13 -1.75223e-13 -2.22984e-13 0 0 -9.0328e-14 -1.14649e-13 -1.08138e-13 -1.73523e-13 0 0 -4.98503e-14 -6.99308e-14 -6.62504e-14 -5.75291e-14 0 0 -2.29063e-14 -1.67171e-14 -4.29584e-14 -3.15031e-14 0 0 -2.13293e-14 -1.37662e-14 -1.97254e-15 -1.90693e-14 0 0 -2.18415e-14 -2.19618e-14 1.72408e-14 1.99687e-14 0 0 -2.65524e-14 3.00848e-15 3.37457e-15 -6.12788e-15 0 0 -1.97636e-14 8.2012e-16 1.21292e-14 -3.63505e-14 0 0 -1.44032e-14 -1.96324e-14 3.59149e-14 -4.11143e-14 0 0 -1.55812e-14 -1.955e-14 2.58174e-14 -2.47734e-14 0 0 -1.75246e-14 -2.42783e-14 3.67535e-14 -2.36312e-14 0 0 -1.27784e-14 -2.23009e-14 3.50133e-14 -2.84807e-14 0 0 -1.17253e-14 -2.78612e-14 4.99789e-14 -1.50118e-14 0 0 -2.42018e-14 -4.10727e-15 4.819e-14 8.34539e-15 0 0 -3.26011e-14 4.92749e-14 7.5272e-15 9.91044e-15 0 0 -1.11799e-14 3.52272e-14 1.94132e-14 5.81149e-15 0 0 -1.27326e-14 3.64553e-14 6.30458e-15 4.60645e-14 0 0 -2.82092e-14 3.76638e-14 1.98348e-14 8.48491e-14 0 0 -1.31902e-14 1.29496e-14 5.4874e-14 6.1954e-14 0 0 -1.03637e-14 3.30336e-14 2.88086e-14 7.31629e-14 0 0 -6.44638e-15 5.11991e-14 2.12981e-14 7.16173e-14 0 0 -1.04953e-14 8.15147e-14 8.85302e-15 4.20605e-14 0 0 -1.19062e-14 9.28788e-14 4.94238e-15 8.23299e-14 0 0 -1.20836e-14 9.45464e-14 3.54641e-14 5.60266e-14 0 0 3.95704e-15 5.05006e-14 9.75837e-14 -4.04692e-14 0 0 3.30136e-14 -2.18949e-14 1.09202e-13 -5.65724e-14 0 0 3.77502e-14 -1.27043e-14 6.13747e-14 -5.66614e-14 0 0 4.93432e-15 5.48217e-14 2.51923e-14 -8.72861e-14 0 0 6.34876e-15 7.96031e-14 -3.15882e-14 -4.87985e-14 0 0 3.01824e-14 4.5482e-14 -3.59392e-14 3.37382e-14 0 0 2.62324e-14 4.04302e-14 1.86939e-14 -1.50514e-14 0 0 3.6353e-14 2.57942e-14 7.1338e-14 -1.00215e-13 0 0 -2.81404e-15 4.05039e-14 1.20638e-13 -9.41207e-14 0 0 -2.59633e-14 6.75584e-14 8.9807e-14 -9.03099e-15 0 0 3.89545e-14 2.42748e-14 2.06307e-14 9.73643e-14 0 0 2.19039e-14 4.59941e-14 -4.47451e-14 1.56732e-13 0 0 1.0883e-14 6.15076e-14 -1.65021e-14 1.43812e-13 0 0 3.50758e-14 5.08798e-14 4.2459e-14 8.01006e-14 0 0 1.14346e-14 9.28751e-14 -7.73388e-15 6.52137e-14 0 0 -6.04664e-15 1.28831e-13 -1.39213e-14 5.06307e-14 0 0 -1.18232e-14 1.044e-13 9.01244e-14 -3.80403e-14 0 0 4.62785e-14 -2.36966e-14 1.96688e-13 -3.94529e-14 0 0 5.22475e-14 -4.03483e-14 1.54536e-13 1.95633e-14 0 0 -1.58615e-14 5.26502e-14 6.06281e-14 4.7457e-14 0 0 -3.87442e-14 8.62429e-14 7.17372e-14 2.22109e-14 0 0 -8.42607e-15 7.52087e-14 7.57684e-14 1.9091e-14 0 0 8.17795e-15 6.17121e-14 2.59908e-14 4.87698e-14 0 0 7.27702e-15 4.13959e-14 1.95953e-14 2.52444e-14 0 0 1.53115e-15 3.58551e-14 4.94414e-14 1.93078e-14 0 0 -1.02813e-14 7.01703e-14 3.91344e-14 2.01772e-14 0 0 1.57742e-14 2.18657e-14 5.53029e-14 4.41787e-14 0 0 5.17635e-15 -3.10719e-14 1.28652e-13 4.42308e-15 0 0 -2.23586e-14 -2.95516e-14 1.72732e-13 -8.50879e-14 0 0 -6.15233e-14 3.4181e-14 1.25565e-13 -1.10662e-13 0 0 -6.03734e-14 7.15864e-14 5.76081e-14 -5.6912e-14 0 0 2.66177e-15 2.14854e-14 7.91025e-14 -3.55413e-14 0 0 1.42197e-14 1.00143e-14 1.21767e-13 -7.30957e-14 0 0 -2.03866e-14 3.68172e-14 6.4253e-14 -2.53046e-14 0 0 -5.29392e-14 9.14391e-14 -2.50646e-14 5.48149e-14 0 0 -5.60964e-15 6.78567e-14 -8.27247e-15 1.85307e-14 0 0 2.31983e-14 5.57226e-14 -1.22466e-14 5.29388e-15 0 0 -1.23502e-14 1.03276e-13 -2.95197e-14 5.52276e-14 0 0 -4.86856e-14 1.20644e-13 -8.71782e-15 1.2203e-13 0 0 2.79092e-15 2.27712e-14 7.09535e-14 1.07906e-13 0 0 7.412e-14 -6.4384e-14 1.55616e-13 3.71861e-14 0 0 6.99798e-14 -1.40115e-14 1.02389e-13 4.87393e-14 0 0 6.63368e-14 2.23213e-14 2.32676e-14 7.3018e-14 0 0 4.41384e-14 4.17518e-14 2.90784e-14 4.76364e-14 0 0 1.51707e-14 6.33565e-14 5.99687e-14 -2.61121e-14 0 0 1.1194e-14 6.99453e-14 6.67034e-14 -6.31811e-14 0
				</DataArray>
				<DataArray Name="VitesseY" type="Float32" format="ascii">