<?xml version="1.0"?>
<VTKFile type="PolyData">
	<PolyData>
		<Piece NumberOfPoints="1206" NumberOfPolys="1000">
			<Points>
				<DataArray type="Float32" NumberOfComponents="3" format="ascii">
 0 0 0 0.02 0 0 0.04 0 0 0.06 0 0 0.08 0 0 0.1 0 0 0 0.005 0 0.02 0.005 0 0.04 0.005 0 0.06 0.005 0 0.08 0.005 0 0.1 0.005 0 0 0.01 0 0.02 0.01 0 0.04 0.01 0 0.06 0.01 0 0.08 0.01 0 0.1 0.01 0 0 0.015 0 0.02 0.015 0 0.04 0.015 0 0.06 0.015 0 0.08 0.015 0 0.1 0.015 0 0 0.02 0 0.02 0.02 0 0.04 0.02 0 0.06 0.02 0 0.08 0.02 0 0.1 0.02 0 0 0.025 0 0.02 0.025 0 0.04 0.025 0 0.06 0.025 0 0.08 0.025 0 0.1 0.025 0 0 0.03 0 0.02 0.03 0 0.04 0.03 0 0.06 0.03 0 0.08 0.03 0 0.1 0.03 0 0 0.035 0 0.02 0.035 0 0.04 0.035 0 0.06 0.035 0 0.08 0.035 0 0.1 0.035 0 0 0.04 0 0.02 0.04 0 0.04 0.04 0 0.06 0.04 0 0.08 0.04 0 0.1 0.04 0 0 0.045 0 0.02 0.045 0 0.04 0.045 0 0.06 0.045 0 0.08 0.045 0 0.1 0.045 0 0 0.05 0 0.02 0.05 0 0.04 0.05 0 0.06 0.05 0 0.08 0.05 0 0.1 0.05 0 0 0.055 0 0.02 0.055 0 0.04 0.055 0 0.06 0.055 0 0.08 0.055 0 0.1 0.055 0 0 0.06 0 0.02 0.06 0 0.04 0.06 0 0.06 0.06 0 0.08 0.06 0 0.1 0.06 0 0 0.065 0 0.02 0.065 0 0.04 0.065 0 0.06 0.065 0 0.08 0.065 0 0.1 0.065 0 0 0.07 0 0.02 0.07 0 0.04 0.07 0 0.06 0.07 0 0.08 0.07 0 0.1 0.07 0 0 0.075 0 0.02 0.075 0 0.04 0.075 0 0.06 0.075 0 0.08 0.075 0 0.1 0.075 0 0 0.08 0 0.02 0.08 0 0.04 0.08 0 0.06 0.08 0 0.08 0.08 0 0.1 0.08 0 0 0.085 0 0.02 0.085 0 0.04 0.085 0 0.06 0.085 0 0.08 0.085 0 0.1 0.085 0 0 0.09 0 0.02 0.09 0 0.04 0.09 0 0.06 0.09 0 0.08 0.09 0 0.1 0.09 0 0 0.095 0 0.02 0.095 0 0.04 0.095 0 0.06 0.095 0 0.08 0.095 0 0.1 0.095 0 0 0.1 0 0.02 0.1 0 0.04 0.1 0 0.06 0.1 0 0.08 0.1 0 0.1 0.1 0 0 0.105 0 0.02 0.105 0 0.04 0.105 0 0.06 0.105 0 0.08 0.105 0 0.1 0.105 0 0 0.11 0 0.02 0.11 0 0.04 0.11 0 0.06 0.11 0 0.08 0.11 0 0.1 0.11 0 0 0.115 0 0.02 0.115 0 0.04 0.115 0 0.06 0.115 0 0.08 0.115 0 0.1 0.115 0 0 0.12 0 0.02 0.12 0 0.04 0.12 0 0.06 0.12 0 0.08 0.12 0 0.1 0.12 0 0 0.125 0 0.02 0.125 0 0.04 0.125 0 0.06 0.125 0 0.08 0.125 0 0.1 0.125 0 0 0.13 0 0.02 0.13 0 0.04 0.13 0 0.06 0.13 0 0.08 0.13 0 0.1 0.13 0 0 0.135 0 0.02 0.135 0 0.04 0.135 0 0.06 0.135 0 0.08 0.135 0 0.1 0.135 0 0 0.14 0 0.02 0.14 0 0.04 0.14 0 0.06 0.14 0 0.08 0.14 0 0.1 0.14 0 0 0.145 0 0.02 0.145 0 0.04 0.145 0 0.06 0.145 0 0.08 0.145 0 0.1 0.145 0 0 0.15 0 0.02 0.15 0 0.04 0.15 0 0.06 0.15 0 0.08 0.15 0 0.1 0.15 0 0 0.155 0 0.02 0.155 0 0.04 0.155 0 0.06 0.155 0 0.08 0.155 0 0.1 0.155 0 0 0.16 0 0.02 0.16 0 0.04 0.16 0 0.06 0.16 0 0.08 0.16 0 0.1 0.16 0 0 0.165 0 0.02 0.165 0 0.04 0.165 0 0.06 0.165 0 0.08 0.165 0 0.1 0.165 0 0 0.17 0 0.02 0.17 0 0.04 0.17 0 0.06 0.17 0 0.08 0.17 0 0.1 0.17 0 0 0.175 0 0.02 0.175 0 0.04 0.175 0 0.06 0.175 0 0.08 0.175 0 0.1 0.175 0 0 0.18 0 0.02 0.18 0 0.04 0.18 0 0.06 0.18 0 0.08 0.18 0 0.1 0.18 0 0 0.185 0 0.02 0.185 0 0.04 0.185 0 0.06 0.185 0 0.08 0.185 0 0.1 0.185 0 0 0.19 0 0.02 0.19 0 0.04 0.19 0 0.06 0.19 0 0.08 0.19 0 0.1 0.19 0 0 0.195 0 0.02 0.195 0 0.04 0.195 0 0.06 0.195 0 0.08 0.195 0 0.1 0.195 0 0 0.2 0 0.02 0.2 0 0.04 0.2 0 0.06 0.2 0 0.08 0.2 0 0.1 0.2 0 0 0.205 0 0.02 0.205 0 0.04 0.205 0 0.06 0.205 0 0.08 0.205 0 0.1 0.205 0 0 0.21 0 0.02 0.21 0 0.04 0.21 0 0.06 0.21 0 0.08 0.21 0 0.1 0.21 0 0 0.215 0 0.02 0.215 0 0.04 0.215 0 0.06 0.215 0 0.08 0.215 0 0.1 0.215 0 0 0.22 0 0.02 0.22 0 0.04 0.22 0 0.06 0.22 0 0.08 0.22 0 0.1 0.22 0 0 0.225 0 0.02 0.225 0 0.04 0.225 0 0.06 0.225 0 0.08 0.225 0 0.1 0.225 0 0 0.23 0 0.02 0.23 0 0.04 0.23 0 0.06 0.23 0 0.08 0.23 0 0.1 0.23 0 0 0.235 0 0.02 0.235 0 0.04 0.235 0 0.06 0.235 0 0.08 0.235 0 0.1 0.235 0 0 0.24 0 0.02 0.24 0 0.04 0.24 0 0.06 0.24 0 0.08 0.24 0 0.1 0.24 0 0 0.245 0 0.02 0.245 0 0.04 0.245 0 0.06 0.245 0 0.08 0.245 0 0.1 0.245 0 0 0.25 0 0.02 0.25 0 0.04 0.25 0 0.06 0.25 0 0.08 0.25 0 0.1 0.25 0 0 0.255 0 0.02 0.255 0 0.04 0.255 0 0.06 0.255 0 0.08 0.255 0 0.1 0.255 0 0 0.26 0 0.02 0.26 0 0.04 0.26 0 0.06 0.26 0 0.08 0.26 0 0.1 0.26 0 0 0.265 0 0.02 0.265 0 0.04 0.265 0 0.06 0.265 0 0.08 0.265 0 0.1 0.265 0 0 0.27 0 0.02 0.27 0 0.04 0.27 0 0.06 0.27 0 0.08 0.27 0 0.1 0.27 0 0 0.275 0 0.02 0.275 0 0.04 0.275 0 0.06 0.275 0 0.08 0.275 0 0.1 0.275 0 0 0.28 0 0.02 0.28 0 0.04 0.28 0 0.06 0.28 0 0.08 0.28 0 0.1 0.28 0 0 0.285 0 0.02 0.285 0 0.04 0.285 0 0.06 0.285 0 0.08 0.285 0 0.1 0.285 0 0 0.290001 0 0.02 0.290001 0 0.04 0.290001 0 0.06 0.290001 0 0.08 0.290001 0 0.1 0.290001 0 0 0.295004 0 0.02 0.295004 0 0.04 0.295004 0 0.06 0.295004 0 0.08 0.295004 0 0.1 0.295004 0 0 0.30001 0 0.02 0.30001 0 0.04 0.30001 0 0.06 0.30001 0 0.08 0.30001 0 0.1 0.30001 0 0 0.305027 0 0.02 0.305027 0 0.04 0.305027 0 0.06 0.305027 0 0.08 0.305027 0 0.1 0.305027 0 0 0.310064 0 0.02 0.310064 0 0.04 0.310064 0 0.06 0.310064 0 0.08 0.310064 0 0.1 0.310064 0 0 0.315138 0 0.02 0.315138 0 0.04 0.315138 0 0.06 0.315138 0 0.08 0.315138 0 0.1 0.315138 0 0 0.320267 0 0.02 0.320267 0 0.04 0.320267 0 0.06 0.320267 0 0.08 0.320267 0 0.1 0.320267 0 0 0.325473 0 0.02 0.325473 0 0.04 0.325473 0 0.06 0.325473 0 0.08 0.325473 0 0.1 0.325473 0 0 0.330774 0 0.02 0.330774 0 0.04 0.330774 0 0.06 0.330774 0 0.08 0.330774 0 0.1 0.330774 0 0 0.336187 0 0.02 0.336187 0 0.04 0.336187 0 0.06 0.336187 0 0.08 0.336187 0 0.1 0.336187 0 0 0.341724 0 0.02 0.341724 0 0.04 0.341724 0 0.06 0.341724 0 0.08 0.341724 0 0.1 0.341724 0 0 0.347395 0 0.02 0.347395 0 0.04 0.347395 0 0.06 0.347395 0 0.08 0.347395 0 0.1 0.347395 0 0 0.353212 0 0.02 0.353212 0 0.04 0.353212 0 0.06 0.353212 0 0.08 0.353212 0 0.1 0.353212 0 0 0.359185 0 0.02 0.359185 0 0.04 0.359185 0 0.06 0.359185 0 0.08 0.359185 0 0.1 0.359185 0 0 0.365324 0 0.02 0.365324 0 0.04 0.365324 0 0.06 0.365324 0 0.08 0.365324 0 0.1 0.365324 0 0 0.371642 0 0.02 0.371642 0 0.04 0.371642 0 0.06 0.371642 0 0.08 0.371642 0 0.1 0.371642 0 0 0.378151 0 0.02 0.378151 0 0.04 0.378151 0 0.06 0.378151 0 0.08 0.378151 0 0.1 0.378151 0 0 0.384865 0 0.02 0.384865 0 0.04 0.384865 0 0.06 0.384865 0 0.08 0.384865 0 0.1 0.384865 0 0 0.391799 0 0.02 0.391799 0 0.04 0.391799 0 0.06 0.391799 0 0.08 0.391799 0 0.1 0.391799 0 0 0.398969 0 0.02 0.398969 0 0.04 0.398969 0 0.06 0.398969 0 0.08 0.398969 0 0.1 0.398969 0 0 0.406396 0 0.02 0.406396 0 0.04 0.406396 0 0.06 0.406396 0 0.08 0.406396 0 0.1 0.406396 0 0 0.414098 0 0.02 0.414098 0 0.04 0.414098 0 0.06 0.414098 0 0.08 0.414098 0 0.1 0.414098 0 0 0.4221 0 0.02 0.4221 0 0.04 0.4221 0 0.06 0.4221 0 0.08 0.4221 0 0.1 0.4221 0 0 0.430429 0 0.02 0.430429 0 0.04 0.430429 0 0.06 0.430429 0 0.08 0.430429 0 0.1 0.430429 0 0 0.439113 0 0.02 0.439113 0 0.04 0.439113 0 0.06 0.439113 0 0.08 0.439113 0 0.1 0.439113 0 0 0.448187 0 0.02 0.448187 0 0.04 0.448187 0 0.06 0.448187 0 0.08 0.448187 0 0.1 0.448187 0 0 0.457687 0 0.02 0.457687 0 0.04 0.457687 0 0.06 0.457687 0 0.08 0.457687 0 0.1 0.457687 0 0 0.467655 0 0.02 0.467655 0 0.04 0.467655 0 0.06 0.467655 0 0.08 0.467655 0 0.1 0.467655 0 0 0.478131 0 0.02 0.478131 0 0.04 0.478131 0 0.06 0.478131 0 0.08 0.478131 0 0.1 0.478131 0 0 0.489152 0 0.02 0.489152 0 0.04 0.489152 0 0.06 0.489152 0 0.08 0.489152 0 0.1 0.489152 0 0 0.500725 0 0.02 0.500725 0 0.04 0.500725 0 0.06 0.500725 0 0.08 0.500725 0 0.1 0.500725 0 0 0.512762 0 0.02 0.512762 0 0.04 0.512762 0 0.06 0.512762 0 0.08 0.512762 0 0.1 0.512762 0 0 0.524936 0 0.02 0.524936 0 0.04 0.524936 0 0.06 0.524936 0 0.08 0.524936 0 0.1 0.524936 0 0 0.537005 0 0.02 0.537005 0 0.04 0.537005 0 0.06 0.537005 0 0.08 0.537005 0 0.1 0.537005 0 0 0.548961 0 0.02 0.548961 0 0.04 0.548961 0 0.06 0.548961 0 0.08 0.548961 0 0.1 0.548961 0 0 0.560819 0 0.02 0.560819 0 0.04 0.560819 0 0.06 0.560819 0 0.08 0.560819 0 0.1 0.560819 0 0 0.572611 0 0.02 0.572611 0 0.04 0.572611 0 0.06 0.572611 0 0.08 0.572611 0 0.1 0.572611 0 0 0.584367 0 0.02 0.584367 0 0.04 0.584367 0 0.06 0.584367 0 0.08 0.584367 0 0.1 0.584367 0 0 0.596107 0 0.02 0.596107 0 0.04 0.596107 0 0.06 0.596107 0 0.08 0.596107 0 0.1 0.596107 0 0 0.607841 0 0.02 0.607841 0 0.04 0.607841 0 0.06 0.607841 0 0.08 0.607841 0 0.1 0.607841 0 0 0.619574 0 0.02 0.619574 0 0.04 0.619574 0 0.06 0.619574 0 0.08 0.619574 0 0.1 0.619574 0 0 0.631307 0 0.02 0.631307 0 0.04 0.631307 0 0.06 0.631307 0 0.08 0.631307 0 0.1 0.631307 0 0 0.643053 0 0.02 0.643053 0 0.04 0.643053 0 0.06 0.643053 0 0.08 0.643053 0 0.1 0.643053 0 0 0.645663 0 0.02 0.645663 0 0.04 0.645663 0 0.06 0.645663 0 0.08 0.645663 0 0.1 0.645663 0 0 0.648199 0 0.02 0.648199 0 0.04 0.648199 0 0.06 0.648199 0 0.08 0.648199 0 0.1 0.648199 0 0 0.650691 0 0.02 0.650691 0 0.04 0.650691 0 0.06 0.650691 0 0.08 0.650691 0 0.1 0.650691 0 0 0.653151 0 0.02 0.653151 0 0.04 0.653151 0 0.06 0.653151 0 0.08 0.653151 0 0.1 0.653151 0 0 0.655591 0 0.02 0.655591 0 0.04 0.655591 0 0.06 0.655591 0 0.08 0.655591 0 0.1 0.655591 0 0 0.658014 0 0.02 0.658014 0 0.04 0.658014 0 0.06 0.658014 0 0.08 0.658014 0 0.1 0.658014 0 0 0.660428 0 0.02 0.660428 0 0.04 0.660428 0 0.06 0.660428 0 0.08 0.660428 0 0.1 0.660428 0 0 0.662839 0 0.02 0.662839 0 0.04 0.662839 0 0.06 0.662839 0 0.08 0.662839 0 0.1 0.662839 0 0 0.665251 0 0.02 0.665251 0 0.04 0.665251 0 0.06 0.665251 0 0.08 0.665251 0 0.1 0.665251 0 0 0.667648 0 0.02 0.667648 0 0.04 0.667648 0 0.06 0.667648 0 0.08 0.667648 0 0.1 0.667648 0 0 0.670033 0 0.02 0.670033 0 0.04 0.670033 0 0.06 0.670033 0 0.08 0.670033 0 0.1 0.670033 0 0 0.672413 0 0.02 0.672413 0 0.04 0.672413 0 0.06 0.672413 0 0.08 0.672413 0 0.1 0.672413 0 0 0.67479 0 0.02 0.67479 0 0.04 0.67479 0 0.06 0.67479 0 0.08 0.67479 0 0.1 0.67479 0 0 0.677167 0 0.02 0.677167 0 0.04 0.677167 0 0.06 0.677167 0 0.08 0.677167 0 0.1 0.677167 0 0 0.679543 0 0.02 0.679543 0 0.04 0.679543 0 0.06 0.679543 0 0.08 0.679543 0 0.1 0.679543 0 0 0.681916 0 0.02 0.681916 0 0.04 0.681916 0 0.06 0.681916 0 0.08 0.681916 0 0.1 0.681916 0 0 0.684287 0 0.02 0.684287 0 0.04 0.684287 0 0.06 0.684287 0 0.08 0.684287 0 0.1 0.684287 0 0 0.686655 0 0.02 0.686655 0 0.04 0.686655 0 0.06 0.686655 0 0.08 0.686655 0 0.1 0.686655 0 0 0.689024 0 0.02 0.689024 0 0.04 0.689024 0 0.06 0.689024 0 0.08 0.689024 0 0.1 0.689024 0 0 0.691392 0 0.02 0.691392 0 0.04 0.6
[...]
			<PointData Scalars="VitesseX">
				<DataArray Name="VitesseX" type="Float32" format="ascii">
 0 2.37476e-15 1.66964e-15 4.35906e-15 1.18242e-14 0 0 2.06882e-15 2.0522e-15 4.10515e-15 1.12704e-14 0 0 8.25769e-16 4.3605e-15 1.83339e-15 1.10437e-14 0 0 1.07572e-15 5.61723e-15 -3.20892e-16 1.13787e-14 0 0 2.16779e-15 6.36969e-15 -3.51551e-18 9.85511e-15 0 0 2.94265e-15 5.55829e-15 3.75131e-15 4.98981e-15 0 0 5.02462e-15 3.47997e-15 6.52115e-15 1.43884e-15 0 0 5.32002e-15 4.39394e-15 6.00085e-15 1.6427e-15 0 0 3.37054e-15 5.37174e-15 5.35952e-15 1.98377e-15 0 0 3.64421e-15 4.53783e-15 4.75164e-15 3.42893e-15 0 0 3.63032e-15 4.22546e-15 3.40505e-15 4.6789e-15 0 0 2.74889e-15 5.97687e-15 -1.00094e-15 3.19796e-15 0 0 3.42319e-15 4.35601e-15 -2.90684e-16 -2.20164e-15 0 0 3.01528e-15 2.45323e-16 5.73803e-15 -7.1658e-15 0 0 1.2598e-16 3.80308e-15 3.13673e-15 -5.92169e-15 0 0 3.4957e-18 5.6209e-15 -1.78712e-15 -4.40532e-15 0 0 -2.26498e-16 9.61323e-16 9.3893e-16 -6.02517e-15 0 0 -3.21481e-15 6.38677e-16 -1.52605e-15 -3.93674e-15 0 0 -7.92524e-16 -4.6478e-15 -7.78765e-16 -2.38388e-15 0 0 -3.43442e-15 -4.2639e-15 -2.7643e-16 -3.18376e-16 0 0 -3.84914e-15 -6.07544e-15 1.07945e-16 7.88912e-16 0 0 3.083e-15 -1.56761e-14 2.97042e-15 -2.78306e-17 0 0 -1.8893e-15 -6.64318e-15 -4.37274e-15 3.22131e-15 0 0 -9.92917e-15 5.76376e-15 -4.04087e-15 6.98714e-16 0 0 -6.225e-15 6.31249e-15 -2.29152e-15 -4.05663e-15 0 0 -7.53266e-16 6.20042e-15 -6.36284e-15 -1.01415e-14 0 0 -5.82904e-15 9.24768e-15 -6.91343e-15 -1.3718e-14 0 0 -1.31686e-14 1.50707e-14 -5.33649e-15 -6.83423e-15 0 0 -4.71616e-15 8.27202e-15 4.79836e-15 -6.84888e-15 0 0 6.78996e-16 1.335e-15 6.09225e-15 -6.43301e-15 0 0 -4.39642e-15 3.2458e-15 -3.44685e-15 -4.04129e-16 0 0 -3.34771e-15 -9.36125e-16 -5.71578e-15 2.38706e-15 0 0 6.6307e-15 -1.23317e-14 -3.84427e-15 1.14417e-15 0 0 1.43835e-14 -1.7511e-14 -2.33694e-15 3.88475e-16 0 0 3.09111e-15 -2.0481e-15 -5.75098e-15 4.01307e-15 0 0 -5.96438e-15 6.79286e-15 -5.84691e-15 8.33653e-15 0 0 -1.01299e-14 5.90791e-15 5.5969e-16 4.39421e-15 0 0 -1.20362e-15 -6.2479e-15 1.16452e-14 -1.29143e-14 0 0 5.8042e-15 -8.81785e-15 8.16182e-15 -1.77757e-14 0 0 -2.20753e-16 -1.66905e-16 -6.78004e-15 -1.02535e-14 0 0 4.58229e-15 -4.47058e-15 -2.64707e-15 -1.3507e-14 0 0 -1.52154e-15 5.49978e-15 -2.4583e-15 -1.824e-14 0 0 -6.19798e-15 1.2018e-14 -6.07876e-15 -1.96798e-14 0 0 1.47974e-14 -1.07456e-14 1.44684e-14 -2.01662e-14 0 0 1.12409e-14 1.3127e-15 1.13238e-14 -8.65247e-15 0 0 6.27649e-16 2.39423e-14 3.79268e-15 4.20998e-15 0 0 -2.18341e-16 1.05392e-14 8.80159e-15 1.69247e-14 0 0 1.05933e-14 2.16213e-15 -1.86533e-14 2.78466e-14 0 0 2.4342e-14 2.00358e-14 -4.43544e-14 3.08023e-14 0 0 6.19891e-15 1.415e-14 -2.24235e-14 2.38116e-14 0 0 5.43895e-15 -1.79107e-14 9.03601e-15 9.79597e-15 0 0 -2.28083e-14 -4.45684e-15 -3.16633e-15 7.54826e-15 0 0 -3.91379e-14 1.17682e-14 -1.82804e-14 6.2403e-15 0 0 -4.01684e-15 5.66749e-15 -1.85864e-14 -1.27024e-14 0 0 4.66526e-15 -4.96682e-16 -4.50723e-14 -1.96214e-14 0 0 1.42342e-15 -2.79762e-14 -3.43101e-14 -1.91887e-14 0 0 -4.11787e-15 -3.12151e-14 1.5235e-15 -3.76784e-14 0 0 -5.724e-15 -6.21733e-15 -3.18372e-14 -2.18597e-14 0 0 -5.24456e-15 -3.39323e-14 -3.50973e-14 1.51769e-15 0 0 -1.83898e-14 -4.01849e-14 -1.88829e-14 1.40241e-15 0 0 -3.03361e-14 -7.58209e-15 -2.6917e-14 -3.90518e-15 0 0 -9.12122e-15 -7.54586e-15 -3.53941e-14 -2.30855e-15 0 0 6.79318e-15 -9.98845e-15 -2.59743e-14 7.73472e-15 0 0 9.08965e-15 -1.99633e-14 -1.6246e-14 4.24798e-14 0 0 1.3958e-14 -2.36923e-14 -3.47292e-14 5.36147e-14 0 0 -2.8345e-14 9.79413e-15 -2.65869e-14 2.70191e-14 0 0 -1.20044e-14 -1.31999e-14 8.51069e-15 1.25296e-14 0 0 -9.46485e-15 -1.06488e-14 1.9774e-15 1.40066e-14 0 0 -1.6988e-14 1.46035e-14 -9.39617e-15 -1.64619e-14 0 0 1.68177e-14 9.07386e-16 7.16016e-15 -4.41701e-14 0 0 7.05215e-15 1.52965e-14 -1.22071e-14 1.14231e-15 0 0 -1.53876e-15 8.14957e-15 -4.36959e-15 -1.04546e-14 0 0 7.56534e-15 -1.22926e-15 -2.05776e-15 -1.49766e-14 0 0 1.49692e-14 -1.95501e-14 4.90467e-15 4.64569e-15 0 0 -9.33381e-15 -1.97003e-15 2.09609e-14 -1.99169e-14 0 0 -2.65834e-14 2.78476e-14 8.46407e-15 -6.77675e-15 0 0 -2.37747e-16 3.16425e-15 -2.57028e-15 1.92219e-14 0 0 7.81162e-15 -1.3727e-14 9.85837e-15 8.28987e-15 0 0 8.29707e-15 -1.97923e-14 1.65896e-14 -9.73404e-15 0 0 1.27212e-14 -2.39893e-14 2.48179e-15 1.3112e-14 0 0 1.20197e-15 -8.36316e-15 -8.1374e-15 1.05265e-14 0 0 -2.30217e-15 -1.18041e-14 2.19105e-14 -1.50665e-14 0 0 -2.50336e-15 -2.63654e-14 1.97737e-14 8.49192e-15 0 0 6.85398e-15 -1.01988e-14 -1.47297e-14 1.20173e-14 0 0 7.44928e-15 1.32578e-14 -1.06166e-14 -4.62075e-15 0 0 1.99215e-15 -5.61075e-15 1.73366e-14 -3.44757e-15 0 0 1.05183e-14 1.06999e-15 2.82447e-14 -3.54473e-14 0 0 1.03331e-14 3.3049e-14 -9.1615e-15 -1.24505e-14 0 0 1.78126e-14 2.42532e-15 -3.52636e-14 3.32156e-14 0 0 -4.20532e-15 -1.90725e-14 -7.99089e-15 6.00311e-15 0 0 -2.06557e-14 -1.35802e-15 -8.26724e-16 -1.8208e-14 0 0 7.53775e-15 1.13762e-14 8.43748e-15 -2.68141e-14 0 0 2.4356e-14 3.51684e-14 5.54663e-14 7.31034e-15 0 0 5.31874e-14 1.00353e-13 9.15088e-14 7.26376e-14 0 0 9.65837e-14 1.63538e-13 1.51494e-13 1.02081e-13 0 0 1.20132e-13 1.90228e-13 1.9554e-13 1.38983e-13 0 0 1.34156e-13 2.06864e-13 2.09479e-13 1.45333e-13 0 0 1.32452e-13 2.13622e-13 2.06499e-13 1.32676e-13 0 0 1.17168e-13 2.15333e-13 2.02593e-13 1.24894e-13 0 0 1.22613e-13 2.08256e-13 2.07329e-13 1.04664e-13 0 0 1.52819e-13 2.20873e-13 2.21052e-13 1.31434e-13 0 0 2.79208e-13 4.05746e-13 3.89431e-13 2.63197e-13 0 0 2.66953e-13 4.23232e-13 3.58023e-13 3.15549e-13 0 0 2.63254e-13 4.17622e-13 3.83411e-13 3.17436e-13 0 0 2.77398e-13 4.21541e-13 4.3568e-13 2.78593e-13 0 0 2.89014e-13 4.45004e-13 4.72851e-13 2.59227e-13 0 0 2.91409e-13 4.28025e-13 4.83857e-13 2.62873e-13 0 0 2.25221e-13 3.37867e-13 3.5495e-13 2.3016e-13 0 0 6.8203e-14 6.00338e-14 7.74241e-14 5.50851e-14 0 0 -1.53076e-13 -2.69446e-13 -2.19553e-13 -1.49044e-13 0 0 -3.29946e-13 -5.17131e-13 -5.47921e-13 -3.13027e-13 0 0 -4.25214e-13 -6.89445e-13 -7.27052e-13 -4.29865e-13 0 0 -4.68496e-13 -7.43352e-13 -7.50917e-13 -4.2186e-13 0 0 -4.54575e-13 -7.04774e-13 -7.77529e-13 -3.71332e-13 0 0 -4.1562e-13 -6.58693e-13 -7.02025e-13 -3.45193e-13 0 0 -3.67018e-13 -6.02348e-13 -5.96346e-13 -3.09182e-13 0 0 -3.47005e-13 -5.24059e-13 -5.0652e-13 -2.73635e-13 0 0 -2.97024e-13 -4.71942e-13 -3.93265e-13 -2.88231e-13 0 0 -2.3608e-13 -4.10713e-13 -3.5298e-13 -2.57689e-13 0 0 -1.90216e-13 -3.43883e-13 -3.30041e-13 -1.6001e-13 0 0 -1.61128e-13 -2.53412e-13 -2.44597e-13 -1.42882e-13 0 0 -1.19999e-13 -1.89892e-13 -1.6443e-13 -1.60404e-13 0 0 -6.55448e-14 -1.64802e-13 -1.15146e-13 -1.30192e-13 0 0 -2.94357e-14 -1.28494e-13 -5.91625e-14 -6.91086e-14 0 0 -2.2039e-14 -7.32993e-14 -1.59624e-14 -1.45824e-14 0 0 -2.40162e-14 -2.02172e-14 2.80501e-15 2.52672e-14 0 0 -7.70228e-15 4.09625e-14 -1.87817e-15 1.02617e-13 0 0 1.56944e-14 1.22219e-13 2.64617e-14 1.40804e-13 0 0 6.13252e-14 1.34398e-13 1.01734e-13 1.72738e-13 0 0 8.78089e-14 1.67387e-13 1.25664e-13 8.96438e-14 0 0 9.56132e-14 1.6204e-13 2.27756e-13 5.70175e-14 0 0 1.11135e-13 1.56487e-13 2.91156e-13 1.10172e-13 0 0 1.26614e-13 1.86135e-13 3.20982e-13 6.87726e-14 0 0 1.69685e-13 1.50594e-13 3.68877e-13 8.87869e-14 0 0 2.02548e-13 1.76302e-13 3.5864e-13 1.20939e-13 0 0 1.94096e-13 2.68937e-13 3.3654e-13 1.15105e-13 0 0 1.93978e-13 3.31575e-13 2.97585e-13 1.51108e-13 0 0 2.20097e-13 3.69662e-13 3.06764e-13 1.72189e-13 0 0 2.33395e-13 4.08655e-13 3.25694e-13 2.01954e-13 0 0 2.33123e-13 4.1615e-13 3.61511e-13 2.085e-13 0 0 2.51745e-13 4.27802e-13 3.89202e-13 2.01804e-13 0 0 2.56628e-13 4.98864e-13 3.85732e-13 2.47137e-13 0 0 2.47104e-13 5.53072e-13 4.12059e-13 3.18336e-13 0 0 2.35066e-13 5.89356e-13 4.5942e-13 3.85856e-13 0 0 2.6584e-13 5.62928e-13 5.49974e-13 4.1008e-13 0 0 3.11827e-13 5.10962e-13 6.3653e-13 3.92862e-13 0 0 3.38487e-13 5.50415e-13 5.83066e-13 4.38469e-13 0 0 3.2938e-13 6.0182e-13 5.53619e-13 4.32444e-13 0 0 3.19781e-13 5.98488e-13 5.57432e-13 4.39187e-13 0 0 3.48088e-13 5.09347e-13 5.9247e-13 3.84911e-13 0 0 3.63936e-13 5.18966e-13 5.31981e-13 2.53559e-13 0 0 3.06917e-13 5.5459e-13 4.12856e-13 3.07496e-13 0 0 2.69162e-13 4.41121e-13 3.67353e-13 2.72372e-13 0 0 2.42084e-13 3.70262e-13 3.89625e-13 1.98426e-13 0 0 1.79902e-13 2.70796e-13 3.33806e-13 1.34087e-13 0 0 1.47211e-13 1.95914e-13 2.16071e-13 8.19086e-14 0 0 6.58238e-14 1.43745e-13 7.91952e-14 1.06286e-13 0 0 2.96573e-15 5.55056e-14 2.84694e-15 2.8836e-14 0 0 -2.40346e-14 -3.8367e-15 1.60242e-14 -4.36267e-14 0 0 -3.50541e-14 -4.51696e-14 -1.99352e-14 -9.74777e-14 0 0 -2.23049e-14 -8.05966e-14 -3.68914e-14 -9.9624e-14 0 0 -2.50081e-14 -9.10356e-14 -5.19197e-14 -6.52111e-14 0 0 -2.57597e-14 -8.10334e-14 -8.91942e-14 -5.20257e-14 0 0 -2.6227e-14 -7.52171e-14 -1.18022e-13 -2.04458e-14 0 0 -5.25982e-14 -7.2774e-14 -9.71198e-14 -3.38616e-14 0 0 -4.40831e-14 -8.26258e-14 -7.70953e-14 -8.3109e-14 0 0 -3.79737e-14 -7.38329e-14 -1.07066e-13 -9.0305e-14 0 0 -4.59645e-14 -6.08138e-14 -1.44382e-13 -3.57171e-14 0 0 -2.79383e-14 -8.6911e-14 -1.16784e-13 -4.77988e-14 0 0 -1.55392e-14 -1.19904e-13 -8.82809e-14 -6.59081e-14 0 0 -6.51157e-15 -1.07851e-13 -1.08037e-13 -3.77998e-14 0 0 -1.6906e-14 -9.36674e-14 -1.21352e-13 -3.95168e-14 0 0 -3.23497e-14 -6.13229e-14 -1.3594e-13 -4.85979e-14 0 0 -1.66233e-14 -5.31644e-14 -1.31055e-13 -4.41334e-14 0 0 -8.9101e-15 -7.58938e-14 -8.62555e-14 -7.47454e-14 0 0 -3.2798e-14 -5.33095e-14 -8.99608e-14 -6.39412e-14 0 0 -5.10419e-14 -3.90659e-14 -9.93828e-14 4.45014e-15 0 0 -3.02858e-14 -6.09564e-14 -6.82487e-14 2.70335e-14 0 0 -2.90008e-14 -5.02562e-14 -7.79344e-14 3.54947e-14 0 0 -3.36115e-14 -5.74676e-14 -5.82481e-14 3.49711e-14 0 0 -5.78355e-14 -1.66902e-14 -8.00907e-14 7.48914e-14 0 0 -8.11197e-14 3.81086e-14 -4.82998e-14 7.3675e-14 0 0 -4.1435e-14 -1.41484e-14 6.23478e-14 -3.82749e-14 0 0 -4.77414e-14 -1.46791e-14 8.36171e-14 -1.41982e-13 0 0 -3.13746e-14 -3.69905e-14 8.31915e-14 -9.77667e-14 0 0 3.3475e-15 -6.73017e-14 4.86902e-14 -1.59879e-14 0 0 8.83188e-16 -6.56246e-14 4.61733e-14 -1.0088e-14 0 0 -2.94703e-14 -3.44831e-14 5.56663e-14 -3.61801e-14 0 0 -7.41144e-14 4.78972e-14 -1.67887e-14 -2.09044e-14 0 0 -4.71829e-14 2.66156e-14 -1.16679e-14 -2.43845e-14 0 0 -4.08802e-14 1.67157e-14 -1.0875e-14 4.44109e-15 0 0 -2.13816e-14 -1.33467e-14 7.77952e-15 3.45843e-14 0 0 7.05072e-15 -6.01109e-14 3.51353e-14 4.21286e-14 0 0 -1.81991e-14 -4.41224e-14 -5.82379e-15 3.39242e-14 0 0 7.52294e-16 -6.82153e-14 -3.13934e-14 -7.12638e-15 0 0 1.08548e-14 -9.47293e-14 -4.53333e-14 -2.39905e-14 0 0 -2.71366e-14 -4.46612e-14 -1.00234e-13 -2.08771e-14 0 0 -4.00234e-14 -1.28668e-14 -1.34471e-13 -2.43943e-14 0 0 -3.68085e-14 -5.90953e-14 -8.5914e-14 -7.25845e-14 0 0 -3.77174e-14 -1.09376e-13 -3.9423e-14 -1.17819e-13 0 0 -3.45713e-14 -1.45424e-13 3.90545e-15 -1.5292e-13 0
				</DataArray>
				<DataArray Name="VitesseY" type="Float32" format="ascii">