<?xml version="1.0"?>
<VTKFile type="PolyData">
	<PolyData>
		<Piece NumberOfPoints="1206" NumberOfPolys="1000">
			<Points>
				<DataArray type="Float32" NumberOfComponents="3" format="ascii">
 0 0 0 0.02 0 0 0.04 0 0 0.06 0 0 0.08 0 0 0.1 0 0 0 0.005 0 0.02 0.005 0 0.04 0.005 0 0.06 0.005 0 0.08 0.005 0 0.1 0.005 0 0 0.01 0 0.02 0.01 0 0.04 0.01 0 0.06 0.01 0 0.08 0.01 0 0.1 0.01 0 0 0.015 0 0.02 0.015 0 0.04 0.015 0 0.06 0.015 0 0.08 0.015 0 0.1 0.015 0 0 0.02 0 0.02 0.02 0 0.04 0.02 0 0.06 0.02 0 0.08 0.02 0 0.1 0.02 0 0 0.025 0 0.02 0.025 0 0.04 0.025 0 0.06 0.025 0 0.08 0.025 0 0.1 0.025 0 0 0.03 0 0.02 0.03 0 0.04 0.03 0 0.06 0.03 0 0.08 0.03 0 0.1 0.03 0 0 0.035 0 0.02 0.035 0 0.04 0.035 0 0.06 0.035 0 0.08 0.035 0 0.1 0.035 0 0 0.04 0 0.02 0.04 0 0.04 0.04 0 0.06 0.04 0 0.08 0.04 0 0.1 0.04 0 0 0.045 0 0.02 0.045 0 0.04 0.045 0 0.06 0.045 0 0.08 0.045 0 0.1 0.045 0 0 0.05 0 0.02 0.05 0 0.04 0.05 0 0.06 0.05 0 0.08 0.05 0 0.1 0.05 0 0 0.055 0 0.02 0.055 0 0.04 0.055 0 0.06 0.055 0 0.08 0.055 0 0.1 0.055 0 0 0.06 0 0.02 0.06 0 0.04 0.06 0 0.06 0.06 0 0.08 0.06 0 0.1 0.06 0 0 0.065 0 0.02 0.065 0 0.04 0.065 0 0.06 0.065 0 0.08 0.065 0 0.1 0.065 0 0 0.07 0 0.02 0.07 0 0.04 0.07 0 0.06 0.07 0 0.08 0.07 0 0.1 0.07 0 0 0.075 0 0.02 0.075 0 0.04 0.075 0 0.06 0.075 0 0.08 0.075 0 0.1 0.075 0 0 0.08 0 0.02 0.08 0 0.04 0.08 0 0.06 0.08 0 0.08 0.08 0 0.1 0.08 0 0 0.085 0 0.02 0.085 0 0.04 0.085 0 0.06 0.085 0 0.08 0.085 0 0.1 0.085 0 0 0.09 0 0.02 0.09 0 0.04 0.09 0 0.06 0.09 0 0.08 0.09 0 0.1 0.09 0 0 0.095 0 0.02 0.095 0 0.04 0.095 0 0.06 0.095 0 0.08 0.095 0 0.1 0.095 0 0 0.1 0 0.02 0.1 0 0.04 0.1 0 0.06 0.1 0 0.08 0.1 0 0.1 0.1 0 0 0.105 0 0.02 0.105 0 0.04 0.105 0 0.06 0.105 0 0.08 0.105 0 0.1 0.105 0 0 0.11 0 0.02 0.11 0 0.04 0.11 0 0.06 0.11 0 0.08 0.11 0 0.1 0.11 0 0 0.115 0 0.02 0.115 0 0.04 0.115 0 0.06 0.115 0 0.08 0.115 0 0.1 0.115 0 0 0.12 0 0.02 0.12 0 0.04 0.12 0 0.06 0.12 0 0.08 0.12 0 0.1 0.12 0 0 0.125 0 0.02 0.125 0 0.04 0.125 0 0.06 0.125 0 0.08 0.125 0 0.1 0.125 0 0 0.13 0 0.02 0.13 0 0.04 0.13 0 0.06 0.13 0 0.08 0.13 0 0.1 0.13 0 0 0.135 0 0.02 0.135 0 0.04 0.135 0 0.06 0.135 0 0.08 0.135 0 0.1 0.135 0 0 0.14 0 0.02 0.14 0 0.04 0.14 0 0.06 0.14 0 0.08 0.14 0 0.1 0.14 0 0 0.145 0 0.02 0.145 0 0.04 0.145 0 0.06 0.145 0 0.08 0.145 0 0.1 0.145 0 0 0.15 0 0.02 0.15 0 0.04 0.15 0 0.06 0.15 0 0.08 0.15 0 0.1 0.15 0 0 0.155 0 0.02 0.155 0 0.04 0.155 0 0.06 0.155 0 0.08 0.155 0 0.1 0.155 0 0 0.16 0 0.02 0.16 0 0.04 0.16 0 0.06 0.16 0 0.08 0.16 0 0.1 0.16 0 0 0.165 0 0.02 0.165 0 0.04 0.165 0 0.06 0.165 0 0.08 0.165 0 0.1 0.165 0 0 0.17 0 0.02 0.17 0 0.04 0.17 0 0.06 0.17 0 0.08 0.17 0 0.1 0.17 0 0 0.175 0 0.02 0.175 0 0.04 0.175 0 0.06 0.175 0 0.08 0.175 0 0.1 0.175 0 0 0.18 0 0.02 0.18 0 0.04 0.18 0 0.06 0.18 0 0.08 0.18 0 0.1 0.18 0 0 0.185 0 0.02 0.185 0 0.04 0.185 0 0.06 0.185 0 0.08 0.185 0 0.1 0.185 0 0 0.19 0 0.02 0.19 0 0.04 0.19 0 0.06 0.19 0 0.08 0.19 0 0.1 0.19 0 0 0.195 0 0.02 0.195 0 0.04 0.195 0 0.06 0.195 0 0.08 0.195 0 0.1 0.195 0 0 0.2 0 0.02 0.2 0 0.04 0.2 0 0.06 0.2 0 0.08 0.2 0 0.1 0.2 0 0 0.205 0 0.02 0.205 0 0.04 0.205 0 0.06 0.205 0 0.08 0.205 0 0.1 0.205 0 0 0.21 0 0.02 0.21 0 0.04 0.21 0 0.06 0.21 0 0.08 0.21 0 0.1 0.21 0 0 0.215 0 0.02 0.215 0 0.04 0.215 0 0.06 0.215 0 0.08 0.215 0 0.1 0.215 0 0 0.22 0 0.02 0.22 0 0.04 0.22 0 0.06 0.22 0 0.08 0.22 0 0.1 0.22 0 0 0.225 0 0.02 0.225 0 0.04 0.225 0 0.06 0.225 0 0.08 0.225 0 0.1 0.225 0 0 0.23 0 0.02 0.23 0 0.04 0.23 0 0.06 0.23 0 0.08 0.23 0 0.1 0.23 0 0 0.235 0 0.02 0.235 0 0.04 0.235 0 0.06 0.235 0 0.08 0.235 0 0.1 0.235 0 0 0.24 0 0.02 0.24 0 0.04 0.24 0 0.06 0.24 0 0.08 0.24 0 0.1 0.24 0 0 0.245 0 0.02 0.245 0 0.04 0.245 0 0.06 0.245 0 0.08 0.245 0 0.1 0.245 0 0 0.25 0 0.02 0.25 0 0.04 0.25 0 0.06 0.25 0 0.08 0.25 0 0.1 0.25 0 0 0.255 0 0.02 0.255 0 0.04 0.255 0 0.06 0.255 0 0.08 0.255 0 0.1 0.255 0 0 0.26 0 0.02 0.26 0 0.04 0.26 0 0.06 0.26 0 0.08 0.26 0 0.1 0.26 0 0 0.265001 0 0.02 0.265001 0 0.04 0.265001 0 0.06 0.265001 0 0.08 0.265001 0 0.1 0.265001 0 0 0.270004 0 0.02 0.270004 0 0.04 0.270004 0 0.06 0.270004 0 0.08 0.270004 0 0.1 0.270004 0 0 0.275011 0 0.02 0.275011 0 0.04 0.275011 0 0.06 0.275011 0 0.08 0.275011 0 0.1 0.275011 0 0 0.280026 0 0.02 0.280026 0 0.04 0.280026 0 0.06 0.280026 0 0.08 0.280026 0 0.1 0.280026 0 0 0.28506 0 0.02 0.28506 0 0.04 0.28506 0 0.06 0.28506 0 0.08 0.28506 0 0.1 0.28506 0 0 0.290125 0 0.02 0.290125 0 0.04 0.290125 0 0.06 0.290125 0 0.08 0.290125 0 0.1 0.290125 0 0 0.295238 0 0.02 0.295238 0 0.04 0.295238 0 0.06 0.295238 0 0.08 0.295238 0 0.1 0.295238 0 0 0.300417 0 0.02 0.300417 0 0.04 0.300417 0 0.06 0.300417 0 0.08 0.300417 0 0.1 0.300417 0 0 0.305676 0 0.02 0.305676 0 0.04 0.305676 0 0.06 0.305676 0 0.08 0.305676 0 0.1 0.305676 0 0 0.31103 0 0.02 0.31103 0 0.04 0.31103 0 0.06 0.31103 0 0.08 0.31103 0 0.1 0.31103 0 0 0.316489 0 0.02 0.316489 0 0.04 0.316489 0 0.06 0.316489 0 0.08 0.316489 0 0.1 0.316489 0 0 0.322062 0 0.02 0.322062 0 0.04 0.322062 0 0.06 0.322062 0 0.08 0.322062 0 0.1 0.322062 0 0 0.327758 0 0.02 0.327758 0 0.04 0.327758 0 0.06 0.327758 0 0.08 0.327758 0 0.1 0.327758 0 0 0.333584 0 0.02 0.333584 0 0.04 0.333584 0 0.06 0.333584 0 0.08 0.333584 0 0.1 0.333584 0 0 0.339548 0 0.02 0.339548 0 0.04 0.339548 0 0.06 0.339548 0 0.08 0.339548 0 0.1 0.339548 0 0 0.345659 0 0.02 0.345659 0 0.04 0.345659 0 0.06 0.345659 0 0.08 0.345659 0 0.1 0.345659 0 0 0.351926 0 0.02 0.351926 0 0.04 0.351926 0 0.06 0.351926 0 0.08 0.351926 0 0.1 0.351926 0 0 0.358358 0 0.02 0.358358 0 0.04 0.358358 0 0.06 0.358358 0 0.08 0.358358 0 0.1 0.358358 0 0 0.364966 0 0.02 0.364966 0 0.04 0.364966 0 0.06 0.364966 0 0.08 0.364966 0 0.1 0.364966 0 0 0.37176 0 0.02 0.37176 0 0.04 0.37176 0 0.06 0.37176 0 0.08 0.37176 0 0.1 0.37176 0 0 0.378754 0 0.02 0.378754 0 0.04 0.378754 0 0.06 0.378754 0 0.08 0.378754 0 0.1 0.378754 0 0 0.385961 0 0.02 0.385961 0 0.04 0.385961 0 0.06 0.385961 0 0.08 0.385961 0 0.1 0.385961 0 0 0.393395 0 0.02 0.393395 0 0.04 0.393395 0 0.06 0.393395 0 0.08 0.393395 0 0.1 0.393395 0 0 0.401073 0 0.02 0.401073 0 0.04 0.401073 0 0.06 0.401073 0 0.08 0.401073 0 0.1 0.401073 0 0 0.409013 0 0.02 0.409013 0 0.04 0.409013 0 0.06 0.409013 0 0.08 0.409013 0 0.1 0.409013 0 0 0.417236 0 0.02 0.417236 0 0.04 0.417236 0 0.06 0.417236 0 0.08 0.417236 0 0.1 0.417236 0 0 0.425764 0 0.02 0.425764 0 0.04 0.425764 0 0.06 0.425764 0 0.08 0.425764 0 0.1 0.425764 0 0 0.434621 0 0.02 0.434621 0 0.04 0.434621 0 0.06 0.434621 0 0.08 0.434621 0 0.1 0.434621 0 0 0.443836 0 0.02 0.443836 0 0.04 0.443836 0 0.06 0.443836 0 0.08 0.443836 0 0.1 0.443836 0 0 0.453439 0 0.02 0.453439 0 0.04 0.453439 0 0.06 0.453439 0 0.08 0.453439 0 0.1 0.453439 0 0 0.463464 0 0.02 0.463464 0 0.04 0.463464 0 0.06 0.463464 0 0.08 0.463464 0 0.1 0.463464 0 0 0.473943 0 0.02 0.473943 0 0.04 0.473943 0 0.06 0.473943 0 0.08 0.473943 0 0.1 0.473943 0 0 0.484906 0 0.02 0.484906 0 0.04 0.484906 0 0.06 0.484906 0 0.08 0.484906 0 0.1 0.484906 0 0 0.496366 0 0.02 0.496366 0 0.04 0.496366 0 0.06 0.496366 0 0.08 0.496366 0 0.1 0.496366 0 0 0.508276 0 0.02 0.508276 0 0.04 0.508276 0 0.06 0.508276 0 0.08 0.508276 0 0.1 0.508276 0 0 0.520425 0 0.02 0.520425 0 0.04 0.520425 0 0.06 0.520425 0 0.08 0.520425 0 0.1 0.520425 0 0 0.532516 0 0.02 0.532516 0 0.04 0.532516 0 0.06 0.532516 0 0.08 0.532516 0 0.1 0.532516 0 0 0.544511 0 0.02 0.544511 0 0.04 0.544511 0 0.06 0.544511 0 0.08 0.544511 0 0.1 0.544511 0 0 0.556408 0 0.02 0.556408 0 0.04 0.556408 0 0.06 0.556408 0 0.08 0.556408 0 0.1 0.556408 0 0 0.568229 0 0.02 0.568229 0 0.04 0.568229 0 0.06 0.568229 0 0.08 0.568229 0 0.1 0.568229 0 0 0.580002 0 0.02 0.580002 0 0.04 0.580002 0 0.06 0.580002 0 0.08 0.580002 0 0.1 0.580002 0 0 0.59175 0 0.02 0.59175 0 0.04 0.59175 0 0.06 0.59175 0 0.08 0.59175 0 0.1 0.59175 0 0 0.603486 0 0.02 0.603486 0 0.04 0.603486 0 0.06 0.603486 0 0.08 0.603486 0 0.1 0.603486 0 0 0.615218 0 0.02 0.615218 0 0.04 0.615218 0 0.06 0.615218 0 0.08 0.615218 0 0.1 0.615218 0 0 0.626947 0 0.02 0.626947 0 0.04 0.626947 0 0.06 0.626947 0 0.08 0.626947 0 0.1 0.626947 0 0 0.638676 0 0.02 0.638676 0 0.04 0.638676 0 0.06 0.638676 0 0.08 0.638676 0 0.1 0.638676 0 0 0.650408 0 0.02 0.650408 0 0.04 0.650408 0 0.06 0.650408 0 0.08 0.650408 0 0.1 0.650408 0 0 0.662154 0 0.02 0.662154 0 0.04 0.662154 0 0.06 0.662154 0 0.08 0.662154 0 0.1 0.662154 0 0 0.664763 0 0.02 0.664763 0 0.04 0.664763 0 0.06 0.664763 0 0.08 0.664763 0 0.1 0.664763 0 0 0.667299 0 0.02 0.667299 0 0.04 0.667299 0 0.06 0.667299 0 0.08 0.667299 0 0.1 0.667299 0 0 0.669789 0 0.02 0.669789 0 0.04 0.669789 0 0.06 0.669789 0 0.08 0.669789 0 0.1 0.669789 0 0 0.672249 0 0.02 0.672249 0 0.04 0.672249 0 0.06 0.672249 0 0.08 0.672249 0 0.1 0.672249 0 0 0.674688 0 0.02 0.674688 0 0.04 0.674688 0 0.06 0.674688 0 0.08 0.674688 0 0.1 0.674688 0 0 0.677111 0 0.02 0.677111 0 0.04 0.677111 0 0.06 0.677111 0 0.08 0.677111 0 0.1 0.677111 0 0 0.679524 0 0.02 0.679524 0 0.04 0.679524 0 0.06 0.679524 0 0.08 0.679524 0 0.1 0.679524 0 0 0.681936 0 0.02 0.681936 0 0.04 0.681936 0 0.06 0.681936 0 0.08 0.681936 0 0.1 0.681936 0 0 0.684347 0 0.02 0.684347 0 0.04 0.684347 0 0.06 0.684347 0 0.08 0.684347 0 0.1 0.684347 0 0 0.686744 0 0.02 0.686744 0 0.04 0.686744 0 0.06 0.686744 0 0.08 0.686744 0 0.1 0.686744 0 0 0.689129 0 0.02 0.689129 0 0.04 0.689129 0 0.06 0.689129 0 0.08 0.689129 0 0.1 0.689129 0 0 0.69151 0 0.02 0.69151 0 0.04 0.69151 0 0.06 0.69151 0 0.08 0.69151 0 0.1 0.69151 0 0 0.693887 0 0.02 0.693887 0 0.04 0.693887 0 0.06 0.693887 0 0.08 0.693887 0 0.1 0.693887 0 0 0.696264 0 0.02 0.696264 0 0.04 0.696264 0 0.06 0.696264 0 0.08 0.696264 0 0.1 0.696264 0 0 0.69864 0 0.02 0.69864 0 0.04 0.69864 0 0.06 0.69864 0 0.08 0.69864 0 0.1 0.69864 0 0 0.701013 0 0.02 0.701013 0 0.04 0.701013 0 0.06 0.701013 0 0.08 0.701013 0 0.1 0.701013 0 0 0.703384 0 0.02 0.703384 0 0.04 0.703384 0 0.06 0.703384 0 0.08 0.703384 0 0.1 0.703384 0 0 0.705753 0 0.02 0.705753 0 0.04 0.705753 0 0.06 0.705753 0 0.08 0.705753 0 0.1 0.705753 0 0 0.708121 0 0.02 0.708121 0 0.04 0.708
[...]
			<PointData Scalars="VitesseX">
				<DataArray Name="VitesseX" type="Float32" format="ascii">
 0 4.20046e-15 7.14583e-15 3.00452e-15 9.36403e-15 0 0 4.05904e-15 7.24896e-15 2.83257e-15 1.00003e-14 0 0 3.85569e-15 6.38428e-15 3.82323e-15 9.13805e-15 0 0 2.61899e-15 6.34431e-15 4.09009e-15 8.66357e-15 0 0 2.32333e-15 3.78166e-15 6.34169e-15 7.19365e-15 0 0 1.00301e-15 2.02416e-15 5.40798e-15 7.78661e-15 0 0 -1.71013e-15 3.51066e-15 1.10851e-15 1.02377e-14 0 0 -1.39641e-15 2.06069e-15 7.24644e-16 7.92214e-15 0 0 -2.40774e-16 8.31856e-16 -2.46193e-15 5.23524e-15 0 0 -1.62596e-15 3.97588e-15 -5.50052e-15 1.82268e-15 0 0 -3.43828e-15 6.11035e-15 -5.71032e-15 1.5412e-15 0 0 -1.94636e-15 1.6633e-15 -1.83227e-15 -1.82443e-15 0 0 -3.31675e-15 3.817e-15 -1.64425e-15 -8.40376e-15 0 0 -3.34408e-15 3.71561e-15 -3.34362e-15 -9.22898e-15 0 0 -1.45178e-15 -6.39585e-16 -2.41642e-15 -8.23582e-15 0 0 -4.4365e-15 7.19523e-17 -5.47672e-15 -5.90307e-15 0 0 -5.88162e-15 -3.16148e-15 -3.23967e-15 -8.10799e-15 0 0 -3.83369e-15 -8.11739e-15 2.64517e-15 -9.91846e-15 0 0 -9.57665e-15 1.16196e-15 -3.63294e-15 -8.45268e-16 0 0 -8.92479e-15 3.42552e-15 -2.33434e-15 -1.27566e-15 0 0 -3.58633e-15 -1.22246e-15 4.07033e-15 -1.03847e-14 0 0 -9.19655e-15 7.78976e-15 -6.45191e-15 -4.79135e-15 0 0 -4.65995e-15 3.50999e-15 -5.69551e-15 -3.87464e-15 0 0 1.59096e-15 -7.23472e-15 6.77612e-15 -1.28271e-14 0 0 -4.93242e-15 -3.75511e-16 2.3599e-15 -6.06912e-15 0 0 -5.94544e-15 -3.49198e-15 6.39488e-15 -3.1563e-15 0 0 5.82137e-15 -1.81822e-14 1.44014e-14 -9.60764e-15 0 0 7.51547e-15 -1.16227e-14 5.53372e-15 -7.80092e-15 0 0 -1.08065e-15 -4.77855e-15 2.20914e-15 7.41659e-16 0 0 9.64699e-16 -7.71016e-15 1.15503e-15 8.9828e-15 0 0 6.05926e-15 -1.07751e-14 2.95679e-15 1.14091e-14 0 0 -1.7932e-15 -6.28453e-15 5.1203e-15 1.44833e-14 0 0 -7.56021e-15 2.76035e-15 -2.24992e-15 2.16992e-14 0 0 -3.08177e-15 8.33255e-15 -1.17419e-15 1.1143e-14 0 0 4.03693e-15 2.56878e-15 4.77158e-15 -2.77569e-15 0 0 4.89426e-15 1.17576e-15 -5.5752e-15 4.41368e-15 0 0 7.25845e-15 8.21958e-16 -8.76599e-15 5.17526e-15 0 0 6.96323e-15 8.47548e-15 -1.83818e-14 1.2729e-14 0 0 -3.42955e-16 1.24756e-14 -1.22393e-14 7.27366e-15 0 0 -8.98656e-15 1.14978e-14 9.65566e-15 9.78189e-15 0 0 -1.06299e-15 9.54003e-15 1.56332e-14 1.25781e-14 0 0 1.2119e-14 1.52492e-15 2.09408e-14 -1.4497e-14 0 0 7.13917e-15 -3.50175e-15 1.35459e-14 -1.54022e-15 0 0 -3.07248e-15 -1.95692e-15 -2.19762e-14 3.24958e-14 0 0 1.23822e-14 -3.18174e-15 -2.74357e-14 1.4231e-14 0 0 2.33556e-14 -4.88879e-15 -1.45764e-14 -1.06162e-14 0 0 -1.36734e-14 -3.64922e-15 -3.20369e-15 -1.22748e-14 0 0 -2.32379e-14 -1.42242e-14 1.89209e-14 -3.08209e-14 0 0 -1.08152e-14 -2.11713e-14 2.49531e-14 -4.85348e-14 0 0 -4.15362e-15 -9.81946e-15 3.4606e-15 -4.63857e-14 0 0 6.12753e-15 3.0544e-15 -4.65201e-14 -3.81846e-14 0 0 7.15759e-15 -2.78085e-14 -2.69735e-14 -4.57262e-14 0 0 9.21996e-15 -4.79759e-14 -4.52561e-15 -3.25554e-14 0 0 2.38026e-15 -1.65537e-14 -4.16661e-14 -2.23428e-14 0 0 -1.8174e-14 -9.73628e-15 -3.65246e-14 -2.92092e-14 0 0 -2.98448e-14 -1.65051e-14 -2.01398e-14 -8.2195e-15 0 0 -4.09093e-14 5.20085e-15 -1.47427e-14 9.22461e-15 0 0 -1.34561e-14 -6.04372e-15 8.71207e-15 -1.74522e-14 0 0 6.45866e-15 -1.02284e-14 7.58143e-15 -2.09698e-14 0 0 -1.19995e-14 -1.34957e-15 6.66592e-15 1.72839e-15 0 0 -2.00543e-14 -2.76562e-14 2.22016e-14 3.75759e-15 0 0 -3.12639e-15 -4.20188e-14 2.52827e-14 1.21308e-14 0 0 -2.24607e-14 -7.02578e-15 1.47276e-14 1.67082e-14 0 0 -5.65659e-14 1.30731e-14 1.39173e-14 -2.08916e-15 0 0 -2.91024e-14 -8.02414e-15 1.8677e-14 -1.75712e-14 0 0 -1.16378e-14 -1.353e-14 3.12389e-14 -3.21389e-14 0 0 3.75596e-15 2.75261e-14 -1.10696e-14 -1.13642e-14 0 0 8.61635e-15 2.47839e-14 -9.82678e-15 1.0722e-15 0 0 6.32234e-15 -2.57629e-14 2.46794e-14 9.94243e-15 0 0 1.42997e-14 -2.68179e-14 1.378e-14 3.20068e-14 0 0 1.27659e-14 -2.28005e-15 2.14999e-14 1.81038e-14 0 0 6.45984e-15 2.75204e-14 -2.50465e-14 3.57178e-14 0 0 -9.87739e-15 3.53482e-14 -3.179e-14 3.98647e-14 0 0 -3.4767e-15 3.18239e-14 -1.42841e-14 1.58581e-14 0 0 3.29761e-14 5.91833e-15 -3.77791e-14 3.51471e-14 0 0 4.67384e-14 -2.32382e-14 -3.33796e-14 3.99356e-14 0 0 2.14017e-14 -2.50929e-15 6.37121e-16 -1.67465e-14 0 0 -7.1893e-15 2.42615e-14 -3.02014e-15 -9.74654e-15 0 0 -1.46895e-14 3.20275e-14 -2.2777e-14 1.22326e-14 0 0 3.81372e-15 6.39408e-16 1.57592e-14 -1.19367e-14 0 0 -6.34877e-15 -3.83001e-15 2.28865e-14 7.92552e-15 0 0 -4.30964e-16 2.56543e-15 -1.36527e-14 2.74164e-14 0 0 -2.42584e-15 3.12796e-14 -1.34579e-14 1.06585e-14 0 0 -7.68864e-15 1.25708e-14 2.62115e-14 3.08331e-16 0 0 4.23651e-15 -2.97119e-14 4.92036e-14 -7.4058e-15 0 0 -1.06531e-15 5.88167e-15 7.27121e-15 -1.76766e-14 0 0 -6.51774e-15 -2.25124e-15 -1.1352e-14 9.06026e-15 0 0 -1.99183e-14 -4.47692e-15 -1.65412e-14 1.29275e-14 0 0 4.6008e-15 -2.14399e-15 -1.30419e-14 4.99417e-15 0 0 2.71847e-14 1.17441e-14 1.6838e-14 2.56878e-15 0 0 2.98197e-14 5.16613e-14 2.4755e-14 2.41315e-14 0 0 5.18543e-14 8.06347e-14 5.85831e-14 5.55275e-14 0 0 8.32058e-14 1.23923e-13 1.04627e-13 5.96198e-14 0 0 9.30013e-14 1.4265e-13 1.43457e-13 7.63e-14 0 0 8.93994e-14 1.46032e-13 1.45517e-13 8.4571e-14 0 0 7.56355e-14 1.3789e-13 1.2119e-13 7.37672e-14 0 0 6.00461e-14 9.94044e-14 1.01548e-13 6.10964e-14 0 0 4.66166e-14 6.11884e-14 6.62336e-14 5.04196e-14 0 0 2.08644e-14 4.82086e-14 4.30593e-14 2.76296e-14 0 0 1.8647e-14 4.6141e-14 5.55745e-14 1.4659e-14 0 0 4.33462e-14 5.42174e-14 8.05907e-14 3.11863e-14 0 0 8.25223e-14 1.34683e-13 2.18494e-13 3.45684e-14 0 0 9.96781e-14 1.56923e-13 2.15578e-13 3.33419e-14 0 0 1.00864e-13 1.93579e-13 2.14865e-13 1.07115e-13 0 0 9.12619e-14 2.31795e-13 2.0676e-13 1.85905e-13 0 0 1.12834e-13 2.64066e-13 2.3674e-13 1.95211e-13 0 0 1.28445e-13 2.51106e-13 2.6314e-13 1.69046e-13 0 0 3.52425e-14 1.75711e-13 1.65756e-13 1.44528e-13 0 0 -1.012e-13 -1.33263e-13 -1.03076e-13 -5.91779e-14 0 0 -2.68133e-13 -5.19052e-13 -4.07093e-13 -3.56175e-13 0 0 -4.88699e-13 -7.41124e-13 -7.2779e-13 -4.72677e-13 0 0 -5.94097e-13 -9.13089e-13 -9.08888e-13 -5.89657e-13 0 0 -6.11689e-13 -9.99398e-13 -9.40049e-13 -6.89683e-13 0 0 -5.98408e-13 -9.66798e-13 -9.68684e-13 -6.4048e-13 0 0 -5.45334e-13 -9.36676e-13 -8.92072e-13 -6.27503e-13 0 0 -5.21302e-13 -8.41636e-13 -8.25798e-13 -6.20223e-13 0 0 -5.08094e-13 -7.22591e-13 -7.5458e-13 -5.51929e-13 0 0 -4.56093e-13 -6.58084e-13 -6.91091e-13 -4.76556e-13 0 0 -3.91475e-13 -6.15774e-13 -6.48232e-13 -4.19902e-13 0 0 -3.35114e-13 -5.65965e-13 -5.68443e-13 -3.85573e-13 0 0 -2.96305e-13 -4.88678e-13 -5.57319e-13 -3.55095e-13 0 0 -2.61939e-13 -4.30066e-13 -5.02446e-13 -3.26056e-13 0 0 -2.56138e-13 -3.91207e-13 -4.23613e-13 -2.86547e-13 0 0 -2.48181e-13 -3.43602e-13 -4.26102e-13 -2.38715e-13 0 0 -2.23282e-13 -3.10072e-13 -3.74875e-13 -2.37094e-13 0 0 -2.03393e-13 -3.119e-13 -3.16395e-13 -2.77747e-13 0 0 -1.84236e-13 -3.07055e-13 -2.8413e-13 -2.83143e-13 0 0 -1.44694e-13 -2.92262e-13 -2.17595e-13 -2.7123e-13 0 0 -1.01376e-13 -2.78188e-13 -2.14663e-13 -1.75471e-13 0 0 -7.82562e-14 -2.39967e-13 -2.32379e-13 -8.74383e-14 0 0 -8.1202e-14 -1.93755e-13 -1.99172e-13 -1.08562e-13 0 0 -9.44823e-14 -1.20111e-13 -2.2786e-13 -7.82756e-14 0 0 -1.01088e-13 -7.02821e-14 -2.29854e-13 -2.54105e-14 0 0 -1.05835e-13 -4.93332e-14 -1.85011e-13 6.91508e-15 0 0 -8.44648e-14 -4.04051e-14 -1.79397e-13 3.42293e-14 0 0 -4.2678e-14 -2.55151e-14 -1.86602e-13 5.337e-14 0 0 -3.29837e-14 -3.77092e-14 -1.29139e-13 1.14482e-13 0 0 -1.74311e-14 -4.12521e-14 -5.54205e-14 2.90328e-14 0 0 1.3186e-14 -3.56437e-15 -9.47163e-14 1.25238e-14 0 0 9.3453e-15 2.37491e-14 -6.84003e-14 3.5344e-14 0 0 2.83875e-14 3.09483e-14 2.59214e-14 -5.1338e-14 0 0 8.29498e-14 -2.83848e-15 7.32777e-14 -5.71537e-14 0 0 8.29608e-14 6.64709e-14 6.92252e-14 -7.6338e-14 0 0 7.53447e-14 1.27665e-13 9.91638e-14 2.84483e-15 0 0 1.02952e-13 1.25522e-13 1.80538e-13 5.04817e-14 0 0 1.20341e-13 1.52248e-13 2.20371e-13 2.85093e-14 0 0 1.16698e-13 2.07453e-13 2.44103e-13 8.46375e-14 0 0 9.73075e-14 2.77234e-13 2.59526e-13 1.05516e-13 0 0 1.22004e-13 2.76621e-13 3.00574e-13 1.35247e-13 0 0 1.30706e-13 2.90859e-13 3.83819e-13 9.62267e-14 0 0 1.59151e-13 3.32535e-13 4.07469e-13 1.09664e-13 0 0 2.02413e-13 3.2141e-13 4.23855e-13 1.63266e-13 0 0 2.2522e-13 3.47507e-13 3.99325e-13 2.43137e-13 0 0 2.64044e-13 3.74914e-13 3.70722e-13 3.63336e-13 0 0 2.73026e-13 4.07291e-13 3.71884e-13 3.61674e-13 0 0 2.57688e-13 4.54064e-13 3.18549e-13 3.66088e-13 0 0 2.77935e-13 4.5663e-13 3.04164e-13 4.79253e-13 0 0 2.82335e-13 4.81584e-13 2.74062e-13 5.74534e-13 0 0 2.92242e-13 4.68578e-13 3.9224e-13 4.46966e-13 0 0 2.89652e-13 3.97095e-13 4.80962e-13 3.1811e-13 0 0 2.62505e-13 3.51093e-13 3.11724e-13 4.25935e-13 0 0 2.00587e-13 2.93218e-13 2.56457e-13 3.50679e-13 0 0 9.56295e-14 2.11025e-13 1.85417e-13 1.2724e-13 0 0 5.00386e-14 1.50754e-13 5.28819e-14 7.70025e-14 0 0 3.01704e-14 4.49075e-14 -9.35293e-15 5.79854e-14 0 0 1.6796e-14 -3.43351e-14 -3.75785e-14 -6.38821e-15 0 0 -1.4607e-14 -4.97925e-14 -6.89028e-14 -1.03385e-14 0 0 -3.48167e-14 -6.40401e-14 -1.02055e-13 -3.43052e-14 0 0 -3.79015e-14 -8.10422e-14 -1.03878e-13 -5.63309e-14 0 0 -2.86029e-14 -1.13951e-13 -1.12688e-13 -1.85377e-14 0 0 -2.84592e-14 -1.18591e-13 -1.12149e-13 -1.03016e-14 0 0 -4.15146e-14 -1.06402e-13 -8.74525e-14 -3.99038e-14 0 0 -5.11995e-14 -1.16929e-13 -8.82132e-14 -6.05912e-14 0 0 -6.50585e-14 -1.17159e-13 -8.94841e-14 -3.40596e-14 0 0 -7.40235e-14 -1.06643e-13 -8.29191e-14 -2.02077e-14 0 0 -6.58445e-14 -1.15877e-13 -5.68977e-14 -5.41687e-14 0 0 -5.31516e-14 -1.2201e-13 -3.39694e-14 -6.53008e-14 0 0 -6.08831e-14 -8.96302e-14 -5.54235e-14 -6.27975e-14 0 0 -5.82792e-14 -8.6477e-14 -4.23875e-14 -7.10983e-14 0 0 -4.92411e-14 -9.56662e-14 -1.82497e-14 -8.48606e-14 0 0 -3.99852e-14 -8.27966e-14 -1.4921e-14 -1.05203e-13 0 0 -3.45139e-14 -6.29884e-14 -2.98685e-14 -8.5141e-14 0 0 -3.2952e-14 -4.01336e-14 -7.90798e-14 -2.67122e-14 0 0 -1.26375e-14 -4.98696e-14 -7.46441e-14 -1.86057e-14 0 0 -1.52302e-14 -4.35181e-14 -5.24085e-14 -5.76369e-14 0 0 -2.87198e-14 -1.17486e-14 -5.98223e-14 -7.01155e-14 0 0 -1.61167e-14 5.24921e-15 -7.7362e-14 -3.67396e-14 0 0 -1.11729e-14 1.18563e-14 -6.8229e-14 3.03571e-14 0 0 -1.25269e-14 1.31996e-14 -4.27517e-14 5.91795e-14 0 0 -2.98706e-15 3.94265e-14 -9.46404e-14 6.1213e-14 0 0 7.55805e-15 2.42902e-14 -6.73125e-14 1.3984e-14 0 0 -7.31599e-15 -2.928e-14 -2.83168e-14 -3.65158e-14 0 0 4.71667e-15 -9.90669e-14 -7.03567e-15 -8.23928e-14 0 0 1.39067e-14 -8.50027e-14 -3.10641e-14 -8.68418e-14 0 0 -2.94255e-14 -9.24188e-15 -9.27441e-14 -6.10299e-14 0 0 -6.87261e-14 3.09661e-14 -1.31183e-13 -1.25042e-14 0 0 -4.77326e-14 -3.50994e-14 -8.78746e-14 -2.63553e-14 0 0 -1.60183e-14 -1.14926e-13 -4.23081e-14 -4.20212e-14 0 0 -2.98824e-14 -9.19268e-14 -9.96601e-14 2.67021e-14 0 0 -3.75092e-14 -6.47983e-14 -1.38086e-13 3.82879e-14 0 0 -3.979e-14 -4.01136e-14 -1.71207e-13 3.56325e-14 0
				</DataArray>
				<DataArray Name="VitesseY" type="Float32" format="ascii">