<?xml version="1.0"?>
<VTKFile type="PolyData">
	<PolyData>
		<Piece NumberOfPoints="1206" NumberOfPolys="1000">
			<Points>
				<DataArray type="Float32" NumberOfComponents="3" format="ascii">
 0 0 0 0.005 0 0 0.01 0 0 0.015 0 0 0.02 0 0 0.025 0 0 0.03 0 0 0.035 0 0 0.04 0 0 0.045 0 0 0.05 0 0 0.055 0 0 0.06 0 0 0.065 0 0 0.07 0 0 0.075 0 0 0.08 0 0 0.085 0 0 0.09 0 0 0.095 0 0 0.1 0 0 0.105 0 0 0.11 0 0 0.115 0 0 0.12 0 0 0.125 0 0 0.13 0 0 0.135 0 0 0.14 0 0 0.145 0 0 0.15 0 0 0.155 0 0 0.16 0 0 0.165 0 0 0.17 0 0 0.175 0 0 0.18 0 0 0.185 0 0 0.19 0 0 0.195 0 0 0.2 0 0 0.205 0 0 0.21 0 0 0.215 0 0 0.22 0 0 0.225 0 0 0.23 0 0 0.235 0 0 0.24 0 0 0.245 0 0 0.25 0 0 0.255 0 0 0.26 0 0 0.265 0 0 0.27 0 0 0.275 0 0 0.28 0 0 0.285 0 0 0.29 0 0 0.295 0 0 0.3 0 0 0.305 0 0 0.31 0 0 0.315 0 0 0.32 0 0 0.325 0 0 0.33 0 0 0.335 0 0 0.34 0 0 0.345 0 0 0.35 0 0 0.355 0 0 0.36 0 0 0.365 0 0 0.37 0 0 0.375 0 0 0.38 0 0 0.385 0 0 0.39 0 0 0.395002 0 0 0.400007 0 0 0.405027 0 0 0.410084 0 0 0.41522 0 0 0.420495 0 0 0.425972 0 0 0.431709 0 0 0.43776 0 0 0.444178 0 0 0.451025 0 0 0.458372 0 0 0.466308 0 0 0.474945 0 0 0.484418 0 0 0.494878 0 0 0.506423 0 0 0.518756 0 0 0.530987 0 0 0.542971 0 0 0.554798 0 0 0.566589 0 0 0.569205 0 0 0.571747 0 0 0.574243 0 0 0.576708 0 0 0.579152 0 0 0.58158 0 0 0.584 0 0 0.586417 0 0 0.588835 0 0 0.591239 0 0 0.593632 0 0 0.596022 0 0 0.598409 0 0 0.600798 0 0 0.603185 0 0 0.605568 0 0 0.607945 0 0 0.610328 0 0 0.612742 0 0 0.615196 0 0 0.617724 0 0 0.620334 0 0 0.623097 0 0 0.62604 0 0 0.629249 0 0 0.632767 0 0 0.636639 0 0 0.640865 0 0 0.645401 0 0 0.650163 0 0 0.65506 0 0 0.660021 0 0 0.665007 0 0 0.670002 0 0 0.675001 0 0 0.68 0 0 0.685 0 0 0.69 0 0 0.695 0 0 0.7 0 0 0.705 0 0 0.71 0 0 0.715 0 0 0.72 0 0 0.725 0 0 0.73 0 0 0.735 0 0 0.74 0 0 0.745 0 0 0.75 0 0 0.755 0 0 0.76 0 0 0.765 0 0 0.77 0 0 0.775 0 0 0.78 0 0 0.785 0 0 0.79 0 0 0.795 0 0 0.8 0 0 0.805 0 0 0.81 0 0 0.815 0 0 0.82 0 0 0.825 0 0 0.83 0 0 0.835 0 0 0.84 0 0 0.845 0 0 0.85 0 0 0.855 0 0 0.86 0 0 0.865 0 0 0.87 0 0 0.875 0 0 0.88 0 0 0.885 0 0 0.89 0 0 0.895 0 0 0.9 0 0 0.905 0 0 0.91 0 0 0.915 0 0 0.92 0 0 0.925 0 0 0.93 0 0 0.935 0 0 0.94 0 0 0.945 0 0 0.95 0 0 0.955 0 0 0.96 0 0 0.965 0 0 0.97 0 0 0.975 0 0 0.98 0 0 0.985 0 0 0.99 0 0 0.995 0 0 1 0 0 0 0.02 0 0.005 0.02 0 0.01 0.02 0 0.015 0.02 0 0.02 0.02 0 0.025 0.02 0 0.03 0.02 0 0.035 0.02 0 0.04 0.02 0 0.045 0.02 0 0.05 0.02 0 0.055 0.02 0 0.06 0.02 0 0.065 0.02 0 0.07 0.02 0 0.075 0.02 0 0.08 0.02 0 0.085 0.02 0 0.09 0.02 0 0.095 0.02 0 0.1 0.02 0 0.105 0.02 0 0.11 0.02 0 0.115 0.02 0 0.12 0.02 0 0.125 0.02 0 0.13 0.02 0 0.135 0.02 0 0.14 0.02 0 0.145 0.02 0 0.15 0.02 0 0.155 0.02 0 0.16 0.02 0 0.165 0.02 0 0.17 0.02 0 0.175 0.02 0 0.18 0.02 0 0.185 0.02 0 0.19 0.02 0 0.195 0.02 0 0.2 0.02 0 0.205 0.02 0 0.21 0.02 0 0.215 0.02 0 0.22 0.02 0 0.225 0.02 0 0.23 0.02 0 0.235 0.02 0 0.24 0.02 0 0.245 0.02 0 0.25 0.02 0 0.255 0.02 0 0.26 0.02 0 0.265 0.02 0 0.27 0.02 0 0.275 0.02 0 0.28 0.02 0 0.285 0.02 0 0.29 0.02 0 0.295 0.02 0 0.3 0.02 0 0.305 0.02 0 0.31 0.02 0 0.315 0.02 0 0.32 0.02 0 0.325 0.02 0 0.33 0.02 0 0.335 0.02 0 0.34 0.02 0 0.345 0.02 0 0.35 0.02 0 0.355 0.02 0 0.36 0.02 0 0.365 0.02 0 0.37 0.02 0 0.375 0.02 0 0.38 0.02 0 0.385 0.02 0 0.39 0.02 0 0.395002 0.02 0 0.400007 0.02 0 0.405027 0.02 0 0.410084 0.02 0 0.41522 0.02 0 0.420495 0.02 0 0.425972 0.02 0 0.431709 0.02 0 0.43776 0.02 0 0.444178 0.02 0 0.451025 0.02 0 0.458372 0.02 0 0.466308 0.02 0 0.474945 0.02 0 0.484418 0.02 0 0.494878 0.02 0 0.506423 0.02 0 0.518756 0.02 0 0.530987 0.02 0 0.542971 0.02 0 0.554798 0.02 0 0.566589 0.02 0 0.569205 0.02 0 0.571747 0.02 0 0.574243 0.02 0 0.576708 0.02 0 0.579152 0.02 0 0.58158 0.02 0 0.584 0.02 0 0.586417 0.02 0 0.588835 0.02 0 0.591239 0.02 0 0.593632 0.02 0 0.596022 0.02 0 0.598409 0.02 0 0.600798 0.02 0 0.603185 0.02 0 0.605568 0.02 0 0.607945 0.02 0 0.610328 0.02 0 0.612742 0.02 0 0.615196 0.02 0 0.617724 0.02 0 0.620334 0.02 0 0.623097 0.02 0 0.62604 0.02 0 0.629249 0.02 0 0.632767 0.02 0 0.636639 0.02 0 0.640865 0.02 0 0.645401 0.02 0 0.650163 0.02 0 0.65506 0.02 0 0.660021 0.02 0 0.665007 0.02 0 0.670002 0.02 0 0.675001 0.02 0 0.68 0.02 0 0.685 0.02 0 0.69 0.02 0 0.695 0.02 0 0.7 0.02 0 0.705 0.02 0 0.71 0.02 0 0.715 0.02 0 0.72 0.02 0 0.725 0.02 0 0.73 0.02 0 0.735 0.02 0 0.74 0.02 0 0.745 0.02 0 0.75 0.02 0 0.755 0.02 0 0.76 0.02 0 0.765 0.02 0 0.77 0.02 0 0.775 0.02 0 0.78 0.02 0 0.785 0.02 0 0.79 0.02 0 0.795 0.02 0 0.8 0.02 0 0.805 0.02 0 0.81 0.02 0 0.815 0.02 0 0.82 0.02 0 0.825 0.02 0 0.83 0.02 0 0.835 0.02 0 0.84 0.02 0 0.845 0.02 0 0.85 0.02 0 0.855 0.02 0 0.86 0.02 0 0.865 0.02 0 0.87 0.02 0 0.875 0.02 0 0.88 0.02 0 0.885 0.02 0 0.89 0.02 0 0.895 0.02 0 0.9 0.02 0 0.905 0.02 0 0.91 0.02 0 0.915 0.02 0 0.92 0.02 0 0.925 0.02 0 0.93 0.02 0 0.935 0.02 0 0.94 0.02 0 0.945 0.02 0 0.95 0.02 0 0.955 0.02 0 0.96 0.02 0 0.965 0.02 0 0.97 0.02 0 0.975 0.02 0 0.98 0.02 0 0.985 0.02 0 0.99 0.02 0 0.995 0.02 0 1 0.02 0 0 0.04 0 0.005 0.04 0 0.01 0.04 0 0.015 0.04 0 0.02 0.04 0 0.025 0.04 0 0.03 0.04 0 0.035 0.04 0 0.04 0.04 0 0.045 0.04 0 0.05 0.04 0 0.055 0.04 0 0.06 0.04 0 0.065 0.04 0 0.07 0.04 0 0.075 0.04 0 0.08 0.04 0 0.085 0.04 0 0.09 0.04 0 0.095 0.04 0 0.1 0.04 0 0.105 0.04 0 0.11 0.04 0 0.115 0.04 0 0.12 0.04 0 0.125 0.04 0 0.13 0.04 0 0.135 0.04 0 0.14 0.04 0 0.145 0.04 0 0.15 0.04 0 0.155 0.04 0 0.16 0.04 0 0.165 0.04 0 0.17 0.04 0 0.175 0.04 0 0.18 0.04 0 0.185 0.04 0 0.19 0.04 0 0.195 0.04 0 0.2 0.04 0 0.205 0.04 0 0.21 0.04 0 0.215 0.04 0 0.22 0.04 0 0.225 0.04 0 0.23 0.04 0 0.235 0.04 0 0.24 0.04 0 0.245 0.04 0 0.25 0.04 0 0.255 0.04 0 0.26 0.04 0 0.265 0.04 0 0.27 0.04 0 0.275 0.04 0 0.28 0.04 0 0.285 0.04 0 0.29 0.04 0 0.295 0.04 0 0.3 0.04 0 0.305 0.04 0 0.31 0.04 0 0.315 0.04 0 0.32 0.04 0 0.325 0.04 0 0.33 0.04 0 0.335 0.04 0 0.34 0.04 0 0.345 0.04 0 0.35 0.04 0 0.355 0.04 0 0.36 0.04 0 0.365 0.04 0 0.37 0.04 0 0.375 0.04 0 0.38 0.04 0 0.385 0.04 0 0.39 0.04 0 0.395002 0.04 0 0.400007 0.04 0 0.405027 0.04 0 0.410084 0.04 0 0.41522 0.04 0 0.420495 0.04 0 0.425972 0.04 0 0.431709 0.04 0 0.43776 0.04 0 0.444178 0.04 0 0.451025 0.04 0 0.458372 0.04 0 0.466308 0.04 0 0.474945 0.04 0 0.484418 0.04 0 0.494878 0.04 0 0.506423 0.04 0 0.518756 0.04 0 0.530987 0.04 0 0.542971 0.04 0 0.554798 0.04 0 0.566589 0.04 0 0.569205 0.04 0 0.571747 0.04 0 0.574243 0.04 0 0.576708 0.04 0 0.579152 0.04 0 0.58158 0.04 0 0.584 0.04 0 0.586417 0.04 0 0.588835 0.04 0 0.591239 0.04 0 0.593632 0.04 0 0.596022 0.04 0 0.598409 0.04 0 0.600798 0.04 0 0.603185 0.04 0 0.605568 0.04 0 0.607945 0.04 0 0.610328 0.04 0 0.612742 0.04 0 0.615196 0.04 0 0.617724 0.04 0 0.620334 0.04 0 0.623097 0.04 0 0.62604 0.04 0 0.629249 0.04 0 0.632767 0.04 0 0.636639 0.04 0 0.640865 0.04 0 0.645401 0.04 0 0.650163 0.04 0 0.65506 0.04 0 0.660021 0.04 0 0.665007 0.04 0 0.670002 0.04 0 0.675001 0.04 0 0.68 0.04 0 0.685 0.04 0 0.69 0.04 0 0.695 0.04 0 0.7 0.04 0 0.705 0.04 0 0.71 0.04 0 0.715 0.04 0 0.72 0.04 0 0.725 0.04 0 0.73 0.04 0 0.735 0.04 0 0.74 0.04 0 0.745 0.04 0 0.75 0.04 0 0.755 0.04 0 0.76 0.04 0 0.765 0.04 0 0.77 0.04 0 0.775 0.04 0 0.78 0.04 0 0.785 0.04 0 0.79 0.04 0 0.795 0.04 0 0.8 0.04 0 0.805 0.04 0 0.81 0.04 0 0.815 0.04 0 0.82 0.04 0 0.825 0.04 0 0.83 0.04 0 0.835 0.04 0 0.84 0.04 0 0.845 0.04 0 0.85 0.04 0 0.855 0.04 0 0.86 0.04 0 0.865 0.04 0 0.87 0.04 0 0.875 0.04 0 0.88 0.04 0 0.885 0.04 0 0.89 0.04 0 0.895 0.04 0 0.9 0.04 0 0.905 0.04 0 0.91 0.04 0 0.915 0.04 0 0.92 0.04 0 0.925 0.04 0 0.93 0.04 0 0.935 0.04 0 0.94 0.04 0 0.945 0.04 0 0.95 0.04 0 0.955 0.04 0 0.96 0.04 0 0.965 0.04 0 0.97 0.04 0 0.975 0.04 0 0.98 0.04 0 0.985 0.04 0 0.99 0.04 0 0.995 0.04 0 1 0.04 0 0 0.06 0 0.005 0.06 0 0.01 0.06 0 0.015 0.06 0 0.02 0.06 0 0.025 0.06 0 0.03 0.06 0 0.035 0.06 0 0.04 0.06 0 0.045 0.06 0 0.05 0.06 0 0.055 0.06 0 0.06 0.06 0 0.065 0.06 0 0.07 0.06 0 0.075 0.06 0 0.08 0.06 0 0.085 0.06 0 0.09 0.06 0 0.095 0.06 0 0.1 0.06 0 0.105 0.06 0 0.11 0.06 0 0.115 0.06 0 0.12 0.06 0 0.125 0.06 0 0.13 0.06 0 0.135 0.06 0 0.14 0.06 0 0.145 0.06 0 0.15 0.06 0 0.155 0.06 0 0.16 0.06 0 0.165 0.06 0 0.17 0.06 0 0.175 0.06 0 0.18 0.06 0 0.185 0.06 0 0.19 0.06 0 0.195 0.06 0 0.2 0.06 0 0.205 0.06 0 0.21 0.06 0 0.215 0.06 0 0.22 0.06 0 0.225 0.06 0 0.23 0.06 0 0.235 0.06 0 0.24 0.06 0 0.245 0.06 0 0.25 0.06 0 0.255 0.06 0 0.26 0.06 0 0.265 0.06 0 0.27 0.06 0 0.275 0.06 0 0.28 0.06 0 0.285 0.06 0 0.29 0.06 0 0.295 0.06 0 0.3 0.06 0 0.305 0.06 0 0.31 0.06 0 0.315 0.06 0 0.32 0.06 0 0.325 0.06 0 0.33 0.06 0 0.335 0.06 0 0.34 0.06 0 0.345 0.06 0 0.35 0.06 0 0.355 0.06 0 0.36 0.06 0 0.365 0.06 0 0.37 0.06 0 0.375 0.06 0 0.38 0.06 0 0.385 0.06 0 0.39 0.06 0 0.395002 0.06 0 0.400007 0.06 0 0.405027 0.06 0 0.410084 0.06 0 0.41522 0.06 0 0.420495 0.06 0 0.425972 0.06 0 0.431709 0.06 0 0.43776 0.06 0 0.444178 0.06 0 0.451025 0.06 0 0.458372 0.06 0 0.466308 0.06 0 0.474945 0.06 0 0.484418 0.06 0 0.494878 0.06 0 0.506423 0.06 0 0.518756 0.06 0 0.530987 0.06 0 0.542971 0.06 0 0.554798 0.06 0 0.566589 0.06 0 0.569205 0.06 0 0.571747 0.06 0 0.574243 0.06 0 0.576708 0.06 0 0.579152 0.06 0 0.58158 0.06 0 0.584 0.06 0 0.586417 0.06 0 0.588835 0.06 0 0.591239 0.06 0 0.593632 0.06 0 0.596022 0.06 0 0.598409 0.06 0 0.600798 0.06 0 0.603185 0.06 0 0.605568 0.06 0 0.607945 0.06 0 0.610328 0.06 0 0.612742 0.06 0 0.615196 0.06 0 0.617724 0.06 0 0.620334 0.06 0 0.623097 0.06 0 0.62604 0.06 0 0.629249 0.06 0 0.632767 0.06 0 0.636639 0.06 0 0.640865 0.06 0 0.645401 0.06 0 0.650163 0.06 0 0.65506 0.06 0 0.660021 0.06 0 0.665007 0.06 0 0.670002 0.06 0 0.675001 0.06 0 0.68 0.06 0 0.685 0.06 0 0.69 0.06 0 0.695 0.06 0 0.7 0.06 0 0.705 0.06 0 0.71 0.06 0 0.715 0.06 0 0.72 0.06 0 0.725 0.06 0 0.73 0.06 0 0.735 0.06 0 0.74 0.06 0 0.745 0.06 0 0.75 0.06 0 0.755 0.06 0 0.76 0.06 0 0.765 0.06 0 0.77 0.06 0 0.775 0.06 0 0.78 0.06 0 0.785 0.06 0 0.79 0.06 0 0.795 0.06 0 0.8 0.06 0 0.805 0.06 0 0.81 0.06 0 0.815 0.06 0 0.82 0.06 0 0.825 0.06 0 0.83 0.06 0 0.835 0.06 0 0.84 0.06 0 0.845 0.06 0 0.85 0.06 0 0.855 0.06 0 0.
[...]
			<PointData Scalars="VitesseX">
				<DataArray Name="VitesseX" type="Float32" format="ascii">
 0 -1.65389e-15 -9.35498e-16 -7.47171e-16 -3.55571e-15 -7.10959e-16 -2.98691e-15 3.7139e-15 6.76081e-15 4.86066e-16 -5.94432e-15 3.85745e-15 -2.24502e-15 -7.94053e-15 6.80937e-15 4.53136e-15 -3.44212e-15 3.91039e-15 -4.38955e-15 1.15484e-14 -1.61899e-14 1.03434e-14 -1.90508e-15 4.65579e-16 8.76742e-15 1.42178e-14 -2.30983e-15 2.25483e-14 -2.11546e-14 2.40405e-14 -2.7937e-14 -5.0042e-15 1.34512e-14 -5.09167e-16 -1.20976e-14 1.71296e-14 -1.72034e-14 1.61287e-14 4.39184e-15 2.32277e-14 -1.61162e-14 -2.05212e-14 -1.10384e-14 1.00453e-14 -1.81904e-14 2.53461e-14 -7.30337e-15 5.24962e-15 1.05023e-14 -2.01226e-14 5.39772e-14 -3.08251e-14 1.58553e-14 -1.73315e-14 2.74205e-14 -2.71257e-14 2.97798e-14 1.3e-15 4.06941e-14 3.48288e-14 -2.82131e-14 3.16304e-14 1.74999e-14 -3.94292e-14 -2.62071e-14 6.33862e-14 -6.2568e-14 8.55101e-14 7.1108e-14 1.05011e-12 1.15178e-11 1.24409e-10 1.23131e-09 1.11161e-08 9.10915e-08 6.73518e-07 4.46112e-06 2.62432e-05 0.000135668 0.00060835 0.00232916 0.00748496 0.0199156 0.0437879 0.0808614 0.129527 0.186846 0.250684 0.320142 0.395127 0.475946 0.563077 0.65691 0.757098 0.860239 0.950861 0.97544 0.950309 0.935521 0.929671 0.927917 0.927341 0.926798 0.926354 0.92605 0.925902 0.92589 0.926141 0.925841 0.92567 0.925458 0.925316 0.925315 0.925215 0.924587 0.920591 0.920362 0.915805 0.91257 0.90857 0.876548 0.869321 0.798961 0.765649 0.662587 0.573803 0.447833 0.323824 0.20528 0.111743 0.0513455 0.0204378 0.0074126 0.00255144 0.000850387 0.000276489 8.78675e-05 2.72955e-05 8.28377e-06 2.45446e-06 7.09602e-07 2.00071e-07 5.4991e-08 1.47302e-08 3.84454e-09 9.77547e-10 2.42111e-10 5.83877e-11 1.37406e-11 3.11156e-12 8.5252e-13 9.53153e-14 4.08198e-14 9.26017e-14 6.72482e-14 -8.05082e-14 5.88037e-14 -2.16455e-14 -3.16283e-14 6.25987e-14 -4.76577e-14 5.02042e-14 1.30142e-14 -1.52774e-14 -9.72394e-14 -2.21103e-14 1.17744e-13 -2.34989e-13 1.5187e-13 1.71346e-14 1.90889e-14 -5.53833e-14 2.47575e-14 -5.87669e-14 -1.20131e-13 8.38972e-14 -1.38411e-14 5.39333e-14 -4.9711e-14 1.13616e-14 3.23849e-14 5.16253e-14 -8.59864e-14 9.85509e-15 6.98209e-15 -1.267e-13 2.86424e-14 -5.81092e-14 -1.83838e-14 -7.77262e-14 4.52524e-15 -1.62591e-14 -7.05784e-14 1.98266e-14 -1.09003e-13 3.29613e-14 -1.25413e-13 -4.30087e-14 5.2174e-14 -1.16097e-13 0 0 -6.07221e-16 8.1086e-16 1.48656e-17 -8.65071e-16 7.08336e-16 -1.89018e-15 -3.00533e-15 3.84849e-15 5.10011e-15 -5.55286e-15 -1.65943e-15 3.14017e-15 5.37753e-15 -1.33786e-14 1.40802e-14 1.91149e-15 -8.11774e-15 2.60136e-15 -3.36204e-15 9.01917e-15 -2.12345e-15 -4.2879e-15 9.47535e-15 -2.12422e-16 2.45239e-14 -4.56489e-15 -9.19954e-15 -3.20228e-15 2.03952e-14 -1.70843e-14 4.84024e-15 -8.09537e-15 6.03065e-15 1.79138e-14 -1.12586e-14 8.04578e-15 5.51163e-15 1.1444e-14 1.58109e-14 -1.21112e-14 -6.40512e-15 1.80014e-14 -2.87538e-14 2.10663e-14 -1.50753e-14 9.71654e-15 -1.97591e-14 -6.02066e-16 2.86461e-14 8.76151e-15 -1.69591e-14 -1.09684e-16 -5.03502e-15 -1.43929e-15 2.28894e-14 -1.62198e-14 1.56817e-14 3.09467e-14 2.50813e-14 4.56434e-15 2.44676e-14 1.42234e-14 2.9802e-15 -5.96625e-15 -4.00713e-14 2.83123e-14 9.41012e-15 1.11461e-13 1.0088e-12 1.15115e-11 1.24443e-10 1.23139e-09 1.11159e-08 9.10915e-08 6.73518e-07 4.46112e-06 2.62432e-05 0.000135668 0.00060835 0.00232916 0.00748496 0.0199156 0.0437879 0.0808614 0.129527 0.186846 0.250684 0.320142 0.395127 0.475946 0.563077 0.65691 0.757098 0.860239 0.950861 0.97544 0.950309 0.935521 0.929671 0.927917 0.927341 0.926798 0.926354 0.92605 0.925902 0.92589 0.926141 0.925841 0.92567 0.925458 0.925316 0.925315 0.925215 0.924587 0.920591 0.920362 0.915805 0.91257 0.90857 0.876548 0.869321 0.798961 0.765649 0.662587 0.573803 0.447833 0.323824 0.20528 0.111743 0.0513455 0.0204378 0.0074126 0.00255144 0.000850387 0.000276489 8.78675e-05 2.72955e-05 8.28377e-06 2.45446e-06 7.09602e-07 2.00071e-07 5.4991e-08 1.47302e-08 3.84451e-09 9.77567e-10 2.4212e-10 5.84908e-11 1.36875e-11 3.18311e-12 6.7785e-13 2.09359e-13 3.91616e-14 3.93378e-14 -6.91486e-15 9.7579e-14 -5.40623e-15 1.64974e-14 -1.12429e-14 -8.36538e-14 2.37568e-14 1.56142e-14 8.45937e-14 -1.04657e-13 1.72753e-14 -2.48239e-14 1.83865e-14 8.42605e-14 -1.18844e-13 1.99556e-14 5.40908e-14 -9.73577e-14 -1.68163e-15 2.80329e-14 4.19497e-14 -1.30992e-14 -6.9848e-14 3.99082e-14 1.04846e-14 -6.04036e-14 -1.1751e-14 -3.77228e-14 5.96011e-14 -1.54519e-14 -1.10579e-13 -3.64875e-14 -6.55148e-14 -4.40117e-14 1.58176e-14 2.88298e-14 -1.07005e-13 4.82423e-14 -4.42213e-14 -9.67428e-14 1.14719e-15 -8.1904e-14 1.9757e-14 1.26577e-14 -1.0114e-13 -2.39395e-14 0 0 1.60052e-15 1.2576e-15 1.71397e-15 1.05143e-15 1.03662e-15 -1.89379e-15 -1.48029e-16 3.3848e-15 -2.57321e-15 6.91251e-15 -6.1618e-15 5.77288e-15 4.48745e-15 -8.03461e-16 -2.99339e-15 4.83577e-15 -4.01021e-15 4.3336e-15 -9.24191e-15 7.25441e-15 -9.64611e-15 7.59601e-15 1.44801e-14 1.62495e-14 6.4055e-15 -1.33033e-14 -2.47354e-14 1.38143e-14 1.48483e-14 1.34472e-14 -2.35697e-14 1.32315e-14 5.57994e-15 1.60391e-14 3.72469e-15 1.03888e-14 6.29084e-16 1.13207e-14 1.13918e-14 4.18766e-15 -1.29746e-14 4.76786e-15 -1.00777e-14 1.98177e-14 -2.59362e-14 3.60149e-14 -2.07742e-14 -2.00844e-15 1.92185e-14 -2.97592e-14 -4.64842e-14 2.18917e-14 2.65567e-14 2.08632e-14 2.46242e-16 -5.55665e-14 4.35418e-14 1.84543e-15 3.42108e-14 9.92999e-15 5.20167e-14 -1.81211e-14 3.74548e-14 1.23373e-14 -1.80991e-14 3.62121e-14 3.42183e-14 1.23219e-13 9.36247e-13 1.15238e-11 1.24418e-10 1.23136e-09 1.11159e-08 9.10915e-08 6.73518e-07 4.46112e-06 2.62432e-05 0.000135668 0.00060835 0.00232916 0.00748496 0.0199156 0.0437879 0.0808614 0.129527 0.186846 0.250684 0.320142 0.395127 0.475946 0.563077 0.65691 0.757098 0.860239 0.950861 0.97544 0.950309 0.935521 0.929671 0.927917 0.927341 0.926798 0.926354 0.92605 0.925902 0.92589 0.926141 0.925841 0.92567 0.925458 0.925316 0.925315 0.925215 0.924587 0.920591 0.920362 0.915805 0.91257 0.90857 0.876548 0.869321 0.798961 0.765649 0.662587 0.573803 0.447833 0.323824 0.20528 0.111743 0.0513455 0.0204378 0.0074126 0.00255144 0.000850387 0.000276489 8.78675e-05 2.72955e-05 8.28377e-06 2.45446e-06 7.09602e-07 2.00071e-07 5.4991e-08 1.47302e-08 3.84458e-09 9.77513e-10 2.42208e-10 5.84857e-11 1.37762e-11 3.08533e-12 7.50913e-13 1.25415e-13 6.72959e-14 -7.3417e-14 5.28472e-14 4.91523e-14 1.64004e-13 1.88663e-14 -6.35148e-14 -1.85011e-13 2.16285e-13 8.23542e-15 -3.53612e-14 1.76374e-14 1.61734e-13 -1.28541e-13 -3.48921e-14 1.39899e-13 -1.92303e-13 -2.02629e-14 3.16159e-14 6.43721e-15 4.82655e-14 6.17856e-14 1.00105e-13 -8.3194e-14 -1.07296e-13 -4.97992e-14 -6.65997e-14 -1.46809e-14 -2.68104e-14 -1.1934e-13 3.21515e-14 -1.47232e-13 3.55513e-14 -6.49483e-14 1.12413e-14 -1.56138e-13 1.2158e-14 1.35651e-13 -2.87182e-14 4.25794e-14 -1.62845e-13 -4.67308e-14 -2.65714e-14 6.36582e-14 4.9792e-14 -5.71338e-14 -1.56593e-13 1.02851e-13 0 0 2.00559e-15 -1.38137e-15 2.96885e-15 -1.54728e-15 4.50932e-15 3.93461e-16 4.05045e-15 1.87202e-15 -6.2438e-15 1.63632e-15 -4.11219e-15 -2.32634e-15 9.14385e-15 -1.7809e-15 -4.03229e-15 1.15907e-14 1.31839e-15 -6.31338e-15 -2.00286e-15 -8.26382e-15 8.55035e-15 9.89022e-16 1.67601e-14 1.59951e-14 -1.66844e-14 -1.18698e-14 2.27522e-14 1.52348e-14 -7.88469e-15 7.03775e-15 -3.4872e-14 4.34626e-14 2.46211e-14 1.53985e-14 6.79711e-15 3.20087e-15 -1.26786e-14 6.99455e-15 1.38331e-14 -6.37261e-15 -2.66907e-14 -3.47481e-14 3.75938e-14 -9.79098e-15 -2.63082e-14 4.07595e-14 6.89659e-15 3.22703e-14 -1.34267e-14 -4.96944e-14 2.3592e-14 -2.13024e-14 3.72477e-14 2.53511e-15 -1.44768e-14 2.1241e-14 4.4265e-14 6.29207e-15 -5.6632e-15 7.39923e-15 4.91854e-15 2.0652e-14 1.70596e-14 6.37094e-14 8.91719e-14 -4.12529e-14 1.0647e-13 1.81406e-13 8.38505e-13 1.14664e-11 1.24412e-10 1.23123e-09 1.1116e-08 9.10915e-08 6.73518e-07 4.46112e-06 2.62432e-05 0.000135668 0.00060835 0.00232916 0.00748496 0.0199156 0.0437879 0.0808614 0.129527 0.186846 0.250684 0.320142 0.395127 0.475946 0.563077 0.65691 0.757098 0.860239 0.950861 0.97544 0.950309 0.935521 0.929671 0.927917 0.927341 0.926798 0.926354 0.92605 0.925902 0.92589 0.926141 0.925841 0.92567 0.925458 0.925316 0.925315 0.925215 0.924587 0.920591 0.920362 0.915805 0.91257 0.90857 0.876548 0.869321 0.798961 0.765649 0.662587 0.573803 0.447833 0.323824 0.20528 0.111743 0.0513455 0.0204378 0.0074126 0.00255144 0.000850387 0.000276489 8.78675e-05 2.72955e-05 8.28377e-06 2.45446e-06 7.09602e-07 2.00071e-07 5.4991e-08 1.47302e-08 3.84459e-09 9.77623e-10 2.42158e-10 5.84715e-11 1.37859e-11 3.1681e-12 6.90319e-13 -3.76438e-15 1.22562e-13 8.01326e-14 7.31973e-14 -9.53034e-14 1.46915e-13 -9.66167e-14 1.11819e-13 -1.60449e-14 9.38653e-15 8.28836e-16 -5.29861e-14 1.1982e-13 1.68633e-13 -1.26338e-13 6.59622e-14 -1.22391e-13 -2.19381e-14 -2.14889e-14 1.5247e-13 -2.7408e-14 1.48961e-13 -1.51101e-13 1.0479e-14 -1.77453e-13 -7.42652e-14 -1.19098e-14 -9.5954e-14 1.04963e-13 -3.47224e-14 -1.89369e-13 7.17487e-14 -9.4184e-14 9.93302e-14 -1.38641e-13 -1.50534e-13 -1.04067e-13 1.38468e-13 -6.04593e-14 1.99845e-14 1.75606e-13 -2.84524e-13 9.17037e-14 -9.73571e-14 8.50412e-14 -7.77918e-14 -8.74674e-14 -5.13776e-14 8.67614e-14 0 0 1.2044e-15 -6.91236e-16 4.59964e-16 -8.21388e-16 -4.93044e-16 4.94466e-15 2.24819e-15 9.06367e-17 6.39879e-16 -1.17381e-14 2.74515e-15 -5.942e-15 1.87128e-14 -2.43161e-14 9.46012e-15 1.10363e-14 -1.31676e-14 -3.9341e-15 -1.42653e-14 6.60614e-15 9.62088e-15 2.08727e-14 6.85099e-15 -1.3213e-14 -1.32469e-15 7.24198e-15 7.70256e-15 1.65251e-14 -1.7803e-14 8.41743e-15 3.57636e-15 3.31119e-14 4.48739e-14 9.59293e-15 -3.03205e-14 -1.63848e-15 -4.63615e-15 -1.19818e-17 3.06181e-14 -2.9301e-14 -2.68868e-14 -2.3213e-14 6.37627e-15 -5.8263e-15 -2.49274e-15 1.96634e-14 2.58211e-14 4.32811e-16 2.68714e-14 1.17018e-14 1.74088e-14 -7.1877e-14 3.93681e-14 -8.64256e-15 3.40097e-14 3.40707e-14 3.5478e-14 -1.53971e-15 -3.54316e-14 6.23574e-14 -2.67478e-14 5.13601e-14 -1.27741e-14 4.21618e-14 6.5632e-14 2.77154e-14 1.03356e-13 1.80812e-13 8.19076e-13 1.14895e-11 1.24397e-10 1.23124e-09 1.11159e-08 9.10915e-08 6.73518e-07 4.46112e-06 2.62432e-05 0.000135668 0.00060835 0.00232916 0.00748496 0.0199156 0.0437879 0.0808614 0.129527 0.186846 0.250684 0.320142 0.395127 0.475946 0.563077 0.65691 0.757098 0.860239 0.950861 0.97544 0.950309 0.935521 0.929671 0.927917 0.927341 0.926798 0.926354 0.92605 0.925902 0.92589 0.926141 0.925841 0.92567 0.925458 0.925316 0.925315 0.925215 0.924587 0.920591 0.920362 0.915805 0.91257 0.90857 0.876548 0.869321 0.798961 0.765649 0.662587 0.573803 0.447833 0.323824 0.20528 0.111743 0.0513455 0.0204378 0.0074126 0.00255144 0.000850387 0.000276489 8.78675e-05 2.72955e-05 8.28377e-06 2.45446e-06 7.09602e-07 2.00071e-07 5.49909e-08 1.47303e-08 3.84451e-09 9.77635e-10 2.42123e-10 5.86135e-11 1.37459e-11 3.46249e-12 3.66868e-13 7.69769e-14 1.31262e-13 1.54821e-13 6.77091e-15 -4.76779e-14 1.55952e-15 -8.81159e-14 2.79031e-13 1.18035e-13 -9.53124e-14 -1.57129e-13 6.78397e-14 -1.36709e-13 -8.73027e-14 -1.13184e-13 4.66488e-14 -3.1008e-14 3.83076e-14 7.32819e-14 3.21303e-13 -3.38854e-13 1.57568e-13 1.90342e-14 -8.63554e-14 -1.59814e-13 -7.57237e-15 3.77606e-14 -1.0604e-13 2.22435e-14 -1.13947e-13 -2.5997e-14 1.58301e-13 7.20565e-14 -1.9454e-13 -1.17942e-13 -2.39262e-13 9.71333e-15 5.7103e-14 -5.97072e-14 -4.24965e-14 1.31204e-13 -1.08358e-13 2.33342e-14 -3.97765e-14 1.58923e-14 -5.22932e-14 -3.41308e-14 1.15027e-14 1.8488e-14 0 0 1.15922e-15 1.33824e-15 -2.36674e-15 1.72909e-15 -1.00591e-14 6.10824e-15 5.82399e-15 2.27067e-15 -1.09323e-15 -7.76242e-15 8.56739e-15 -4.21093e-15 9.41726e-15 -1.31107e-14 -2.63107e-15 1.29754e-15 -1.68465e-14 3.8335e-15 -2.47362e-14 1.00205e-14 -2.56083e-15 6.163e-14 -9.34328e-15 -1.67248e-14 8.70058e-15 1.8437e-14 -3.86227e-14 1.54591e-14 -6.8898e-15 3.58854e-14 1.50727e-14 3.54036e-14 3.9095e-14 -2.74584e-14 -2.71389e-14 -2.2196e-14 2.24485e-14 -9.86781e-15 4.79594e-14 -2.93754e-14 -3.40524e-14 -1.44354e-14 -1.50376e-14 -1.27583e-14 5.12553e-14 3.10122e-15 4.10684e-14 -5.59855e-14 4.16185e-14 9.9728e-14 -1.02242e-13 -4.12909e-14 5.00929e-14 4.96701e-14 2.45609e-14 -2.32541e-14 3.94464e-14 -3.3172e-14 -6.44907e-15 9.24345e-14 2.33959e-14 1.42271e-14 -3.01476e-14 -3.26951e-14 6.02508e-14 9.11683e-14 1.28897e-13 9.3436e-14 8.66149e-13 1.15887e-11 1.24329e-10 1.23126e-09 1.11159e-08 9.10915e-08 6.73518e-07 4.46112e-06 2.62432e-05 0.000135668 0.00060835 0.00232916 0.00748496 0.0199156 0.0437879 0.0808614 0.129527 0.186846 0.250684 0.320142 0.395127 0.475946 0.563077 0.65691 0.757098 0.860239 0.950861 0.97544 0.950309 0.935521 0.929671 0.927917 0.927341 0.926798 0.926354 0.92605 0.925902 0.92589 0.926141 0.925841 0.92567 0.925458 0.925316 0.925315 0.925215 0.924587 0.920591 0.920362 0.915805 0.91257 0.90857 0.876548 0.869321 0.798961 0.765649 0.662587 0.573803 0.447833 0.323824 0.20528 0.111743 0.0513455 0.0204378 0.0074126 0.00255144 0.000850387 0.000276489 8.78675e-05 2.72955e-05 8.28377e-06 2.45446e-06 7.09602e-07 2.00071e-07 5.49909e-08 1.47304e-08 3.84451e-09 9.77463e-10 2.42217e-10 5.86615e-11 1.38379e-11 3.50493e-12 3.51946e-13 8.8777e-14 1.14366e-13 1.63764e-14 5.3691e-14 -8.26242e-14 1.06373e-13 -2.4173e-16 1.98276e-13 1.28386e-13 1.27984e-13 -2.80515e-13 1.5046e-14 -2.83654e-13 -3.20425e-13 -2.02916e-13 -2.67599e-14 5.93778e-14 1.25851e-13 1.26254e-13 3.11505e-13 -4.70827e-13 1.41743e-13 3.48632e-13 -1.97313e-13 -2.04324e-14 4.50131e-14 -2.58602e-14 -2.2398e-13 -6.25808e-14 -1.56303e-13 2.14993e-13 3.20478e-14 7.87683e-14 -2.88008e-13 -1.4223e-13 4.344e-15 -5.48199e-14 -1.88814e-13 1.36613e-13 3.53202e-14 -1.16511e-13 4.48346e-14 -1.64943e-14 -4.89615e-14 1.85836e-13 -1.42907e-14 -7.57007e-14 6.66318e-14 -4.43349e-17 0
				</DataArray>
				<DataArray Name="VitesseY" type="Float32" format="ascii">