<?xml version="1.0"?>
<VTKFile type="PolyData">
	<PolyData>
		<Piece NumberOfPoints="1206" NumberOfPolys="1000">
			<Points>
				<DataArray type="Float32" NumberOfComponents="3" format="ascii">
 0 0 0 0.005 0 0 0.01 0 0 0.015 0 0 0.02 0 0 0.025 0 0 0.03 0 0 0.035 0 0 0.04 0 0 0.045 0 0 0.05 0 0 0.055 0 0 0.06 0 0 0.065 0 0 0.07 0 0 0.075 0 0 0.08 0 0 0.085 0 0 0.09 0 0 0.095 0 0 0.1 0 0 0.105 0 0 0.11 0 0 0.115 0 0 0.12 0 0 0.125 0 0 0.13 0 0 0.135 0 0 0.14 0 0 0.145 0 0 0.15 0 0 0.155 0 0 0.16 0 0 0.165 0 0 0.17 0 0 0.175 0 0 0.18 0 0 0.185 0 0 0.19 0 0 0.195 0 0 0.2 0 0 0.205 0 0 0.21 0 0 0.215 0 0 0.22 0 0 0.225 0 0 0.23 0 0 0.235 0 0 0.24 0 0 0.245 0 0 0.25 0 0 0.255 0 0 0.26 0 0 0.265 0 0 0.27 0 0 0.275 0 0 0.28 0 0 0.285 0 0 0.29 0 0 0.295 0 0 0.3 0 0 0.305 0 0 0.31 0 0 0.315 0 0 0.32 0 0 0.325 0 0 0.33 0 0 0.335 0 0 0.34 0 0 0.345 0 0 0.35 0 0 0.355 0 0 0.36 0 0 0.365 0 0 0.37 0 0 0.375 0 0 0.380001 0 0 0.385004 0 0 0.390015 0 0 0.395048 0 0 0.400132 0 0 0.405308 0 0 0.410629 0 0 0.416145 0 0 0.4219 0 0 0.427933 0 0 0.434286 0 0 0.441003 0 0 0.448137 0 0 0.455751 0 0 0.463922 0 0 0.472742 0 0 0.482323 0 0 0.492785 0 0 0.504213 0 0 0.516434 0 0 0.528701 0 0 0.540737 0 0 0.552601 0 0 0.564387 0 0 0.576161 0 0 0.578775 0 0 0.581315 0 0 0.583809 0 0 0.586274 0 0 0.588717 0 0 0.591144 0 0 0.593562 0 0 0.595977 0 0 0.598392 0 0 0.600793 0 0 0.603181 0 0 0.605565 0 0 0.607946 0 0 0.610328 0 0 0.612711 0 0 0.615092 0 0 0.61747 0 0 0.619843 0 0 0.622219 0 0 0.624597 0 0 0.62698 0 0 0.629375 0 0 0.631798 0 0 0.63426 0 0 0.636807 0 0 0.639484 0 0 0.642311 0 0 0.645357 0 0 0.648672 0 0 0.652322 0 0 0.656326 0 0 0.660673 0 0 0.665301 0 0 0.67012 0 0 0.675044 0 0 0.680015 0 0 0.685005 0 0 0.690002 0 0 0.695001 0 0 0.7 0 0 0.705 0 0 0.71 0 0 0.715 0 0 0.72 0 0 0.725 0 0 0.73 0 0 0.735 0 0 0.74 0 0 0.745 0 0 0.75 0 0 0.755 0 0 0.76 0 0 0.765 0 0 0.77 0 0 0.775 0 0 0.78 0 0 0.785 0 0 0.79 0 0 0.795 0 0 0.8 0 0 0.805 0 0 0.81 0 0 0.815 0 0 0.82 0 0 0.825 0 0 0.83 0 0 0.835 0 0 0.84 0 0 0.845 0 0 0.85 0 0 0.855 0 0 0.86 0 0 0.865 0 0 0.87 0 0 0.875 0 0 0.88 0 0 0.885 0 0 0.89 0 0 0.895 0 0 0.9 0 0 0.905 0 0 0.91 0 0 0.915 0 0 0.92 0 0 0.925 0 0 0.93 0 0 0.935 0 0 0.94 0 0 0.945 0 0 0.95 0 0 0.955 0 0 0.96 0 0 0.965 0 0 0.97 0 0 0.975 0 0 0.98 0 0 0.985 0 0 0.99 0 0 0.995 0 0 1 0 0 0 0.02 0 0.005 0.02 0 0.01 0.02 0 0.015 0.02 0 0.02 0.02 0 0.025 0.02 0 0.03 0.02 0 0.035 0.02 0 0.04 0.02 0 0.045 0.02 0 0.05 0.02 0 0.055 0.02 0 0.06 0.02 0 0.065 0.02 0 0.07 0.02 0 0.075 0.02 0 0.08 0.02 0 0.085 0.02 0 0.09 0.02 0 0.095 0.02 0 0.1 0.02 0 0.105 0.02 0 0.11 0.02 0 0.115 0.02 0 0.12 0.02 0 0.125 0.02 0 0.13 0.02 0 0.135 0.02 0 0.14 0.02 0 0.145 0.02 0 0.15 0.02 0 0.155 0.02 0 0.16 0.02 0 0.165 0.02 0 0.17 0.02 0 0.175 0.02 0 0.18 0.02 0 0.185 0.02 0 0.19 0.02 0 0.195 0.02 0 0.2 0.02 0 0.205 0.02 0 0.21 0.02 0 0.215 0.02 0 0.22 0.02 0 0.225 0.02 0 0.23 0.02 0 0.235 0.02 0 0.24 0.02 0 0.245 0.02 0 0.25 0.02 0 0.255 0.02 0 0.26 0.02 0 0.265 0.02 0 0.27 0.02 0 0.275 0.02 0 0.28 0.02 0 0.285 0.02 0 0.29 0.02 0 0.295 0.02 0 0.3 0.02 0 0.305 0.02 0 0.31 0.02 0 0.315 0.02 0 0.32 0.02 0 0.325 0.02 0 0.33 0.02 0 0.335 0.02 0 0.34 0.02 0 0.345 0.02 0 0.35 0.02 0 0.355 0.02 0 0.36 0.02 0 0.365 0.02 0 0.37 0.02 0 0.375 0.02 0 0.380001 0.02 0 0.385004 0.02 0 0.390015 0.02 0 0.395048 0.02 0 0.400132 0.02 0 0.405308 0.02 0 0.410629 0.02 0 0.416145 0.02 0 0.4219 0.02 0 0.427933 0.02 0 0.434286 0.02 0 0.441003 0.02 0 0.448137 0.02 0 0.455751 0.02 0 0.463922 0.02 0 0.472742 0.02 0 0.482323 0.02 0 0.492785 0.02 0 0.504213 0.02 0 0.516434 0.02 0 0.528701 0.02 0 0.540737 0.02 0 0.552601 0.02 0 0.564387 0.02 0 0.576161 0.02 0 0.578775 0.02 0 0.581315 0.02 0 0.583809 0.02 0 0.586274 0.02 0 0.588717 0.02 0 0.591144 0.02 0 0.593562 0.02 0 0.595977 0.02 0 0.598392 0.02 0 0.600793 0.02 0 0.603181 0.02 0 0.605565 0.02 0 0.607946 0.02 0 0.610328 0.02 0 0.612711 0.02 0 0.615092 0.02 0 0.61747 0.02 0 0.619843 0.02 0 0.622219 0.02 0 0.624597 0.02 0 0.62698 0.02 0 0.629375 0.02 0 0.631798 0.02 0 0.63426 0.02 0 0.636807 0.02 0 0.639484 0.02 0 0.642311 0.02 0 0.645357 0.02 0 0.648672 0.02 0 0.652322 0.02 0 0.656326 0.02 0 0.660673 0.02 0 0.665301 0.02 0 0.67012 0.02 0 0.675044 0.02 0 0.680015 0.02 0 0.685005 0.02 0 0.690002 0.02 0 0.695001 0.02 0 0.7 0.02 0 0.705 0.02 0 0.71 0.02 0 0.715 0.02 0 0.72 0.02 0 0.725 0.02 0 0.73 0.02 0 0.735 0.02 0 0.74 0.02 0 0.745 0.02 0 0.75 0.02 0 0.755 0.02 0 0.76 0.02 0 0.765 0.02 0 0.77 0.02 0 0.775 0.02 0 0.78 0.02 0 0.785 0.02 0 0.79 0.02 0 0.795 0.02 0 0.8 0.02 0 0.805 0.02 0 0.81 0.02 0 0.815 0.02 0 0.82 0.02 0 0.825 0.02 0 0.83 0.02 0 0.835 0.02 0 0.84 0.02 0 0.845 0.02 0 0.85 0.02 0 0.855 0.02 0 0.86 0.02 0 0.865 0.02 0 0.87 0.02 0 0.875 0.02 0 0.88 0.02 0 0.885 0.02 0 0.89 0.02 0 0.895 0.02 0 0.9 0.02 0 0.905 0.02 0 0.91 0.02 0 0.915 0.02 0 0.92 0.02 0 0.925 0.02 0 0.93 0.02 0 0.935 0.02 0 0.94 0.02 0 0.945 0.02 0 0.95 0.02 0 0.955 0.02 0 0.96 0.02 0 0.965 0.02 0 0.97 0.02 0 0.975 0.02 0 0.98 0.02 0 0.985 0.02 0 0.99 0.02 0 0.995 0.02 0 1 0.02 0 0 0.04 0 0.005 0.04 0 0.01 0.04 0 0.015 0.04 0 0.02 0.04 0 0.025 0.04 0 0.03 0.04 0 0.035 0.04 0 0.04 0.04 0 0.045 0.04 0 0.05 0.04 0 0.055 0.04 0 0.06 0.04 0 0.065 0.04 0 0.07 0.04 0 0.075 0.04 0 0.08 0.04 0 0.085 0.04 0 0.09 0.04 0 0.095 0.04 0 0.1 0.04 0 0.105 0.04 0 0.11 0.04 0 0.115 0.04 0 0.12 0.04 0 0.125 0.04 0 0.13 0.04 0 0.135 0.04 0 0.14 0.04 0 0.145 0.04 0 0.15 0.04 0 0.155 0.04 0 0.16 0.04 0 0.165 0.04 0 0.17 0.04 0 0.175 0.04 0 0.18 0.04 0 0.185 0.04 0 0.19 0.04 0 0.195 0.04 0 0.2 0.04 0 0.205 0.04 0 0.21 0.04 0 0.215 0.04 0 0.22 0.04 0 0.225 0.04 0 0.23 0.04 0 0.235 0.04 0 0.24 0.04 0 0.245 0.04 0 0.25 0.04 0 0.255 0.04 0 0.26 0.04 0 0.265 0.04 0 0.27 0.04 0 0.275 0.04 0 0.28 0.04 0 0.285 0.04 0 0.29 0.04 0 0.295 0.04 0 0.3 0.04 0 0.305 0.04 0 0.31 0.04 0 0.315 0.04 0 0.32 0.04 0 0.325 0.04 0 0.33 0.04 0 0.335 0.04 0 0.34 0.04 0 0.345 0.04 0 0.35 0.04 0 0.355 0.04 0 0.36 0.04 0 0.365 0.04 0 0.37 0.04 0 0.375 0.04 0 0.380001 0.04 0 0.385004 0.04 0 0.390015 0.04 0 0.395048 0.04 0 0.400132 0.04 0 0.405308 0.04 0 0.410629 0.04 0 0.416145 0.04 0 0.4219 0.04 0 0.427933 0.04 0 0.434286 0.04 0 0.441003 0.04 0 0.448137 0.04 0 0.455751 0.04 0 0.463922 0.04 0 0.472742 0.04 0 0.482323 0.04 0 0.492785 0.04 0 0.504213 0.04 0 0.516434 0.04 0 0.528701 0.04 0 0.540737 0.04 0 0.552601 0.04 0 0.564387 0.04 0 0.576161 0.04 0 0.578775 0.04 0 0.581315 0.04 0 0.583809 0.04 0 0.586274 0.04 0 0.588717 0.04 0 0.591144 0.04 0 0.593562 0.04 0 0.595977 0.04 0 0.598392 0.04 0 0.600793 0.04 0 0.603181 0.04 0 0.605565 0.04 0 0.607946 0.04 0 0.610328 0.04 0 0.612711 0.04 0 0.615092 0.04 0 0.61747 0.04 0 0.619843 0.04 0 0.622219 0.04 0 0.624597 0.04 0 0.62698 0.04 0 0.629375 0.04 0 0.631798 0.04 0 0.63426 0.04 0 0.636807 0.04 0 0.639484 0.04 0 0.642311 0.04 0 0.645357 0.04 0 0.648672 0.04 0 0.652322 0.04 0 0.656326 0.04 0 0.660673 0.04 0 0.665301 0.04 0 0.67012 0.04 0 0.675044 0.04 0 0.680015 0.04 0 0.685005 0.04 0 0.690002 0.04 0 0.695001 0.04 0 0.7 0.04 0 0.705 0.04 0 0.71 0.04 0 0.715 0.04 0 0.72 0.04 0 0.725 0.04 0 0.73 0.04 0 0.735 0.04 0 0.74 0.04 0 0.745 0.04 0 0.75 0.04 0 0.755 0.04 0 0.76 0.04 0 0.765 0.04 0 0.77 0.04 0 0.775 0.04 0 0.78 0.04 0 0.785 0.04 0 0.79 0.04 0 0.795 0.04 0 0.8 0.04 0 0.805 0.04 0 0.81 0.04 0 0.815 0.04 0 0.82 0.04 0 0.825 0.04 0 0.83 0.04 0 0.835 0.04 0 0.84 0.04 0 0.845 0.04 0 0.85 0.04 0 0.855 0.04 0 0.86 0.04 0 0.865 0.04 0 0.87 0.04 0 0.875 0.04 0 0.88 0.04 0 0.885 0.04 0 0.89 0.04 0 0.895 0.04 0 0.9 0.04 0 0.905 0.04 0 0.91 0.04 0 0.915 0.04 0 0.92 0.04 0 0.925 0.04 0 0.93 0.04 0 0.935 0.04 0 0.94 0.04 0 0.945 0.04 0 0.95 0.04 0 0.955 0.04 0 0.96 0.04 0 0.965 0.04 0 0.97 0.04 0 0.975 0.04 0 0.98 0.04 0 0.985 0.04 0 0.99 0.04 0 0.995 0.04 0 1 0.04 0 0 0.06 0 0.005 0.06 0 0.01 0.06 0 0.015 0.06 0 0.02 0.06 0 0.025 0.06 0 0.03 0.06 0 0.035 0.06 0 0.04 0.06 0 0.045 0.06 0 0.05 0.06 0 0.055 0.06 0 0.06 0.06 0 0.065 0.06 0 0.07 0.06 0 0.075 0.06 0 0.08 0.06 0 0.085 0.06 0 0.09 0.06 0 0.095 0.06 0 0.1 0.06 0 0.105 0.06 0 0.11 0.06 0 0.115 0.06 0 0.12 0.06 0 0.125 0.06 0 0.13 0.06 0 0.135 0.06 0 0.14 0.06 0 0.145 0.06 0 0.15 0.06 0 0.155 0.06 0 0.16 0.06 0 0.165 0.06 0 0.17 0.06 0 0.175 0.06 0 0.18 0.06 0 0.185 0.06 0 0.19 0.06 0 0.195 0.06 0 0.2 0.06 0 0.205 0.06 0 0.21 0.06 0 0.215 0.06 0 0.22 0.06 0 0.225 0.06 0 0.23 0.06 0 0.235 0.06 0 0.24 0.06 0 0.245 0.06 0 0.25 0.06 0 0.255 0.06 0 0.26 0.06 0 0.265 0.06 0 0.27 0.06 0 0.275 0.06 0 0.28 0.06 0 0.285 0.06 0 0.29 0.06 0 0.295 0.06 0 0.3 0.06 0 0.305 0.06 0 0.31 0.06 0 0.315 0.06 0 0.32 0.06 0 0.325 0.06 0 0.33 0.06 0 0.335 0.06 0 0.34 0.06 0 0.345 0.06 0 0.35 0.06 0 0.355 0.06 0 0.36 0.06 0 0.365 0.06 0 0.37 0.06 0 0.375 0.06 0 0.380001 0.06 0 0.385004 0.06 0 0.390015 0.06 0 0.395048 0.06 0 0.400132 0.06 0 0.405308 0.06 0 0.410629 0.06 0 0.416145 0.06 0 0.4219 0.06 0 0.427933 0.06 0 0.434286 0.06 0 0.441003 0.06 0 0.448137 0.06 0 0.455751 0.06 0 0.463922 0.06 0 0.472742 0.06 0 0.482323 0.06 0 0.492785 0.06 0 0.504213 0.06 0 0.516434 0.06 0 0.528701 0.06 0 0.540737 0.06 0 0.552601 0.06 0 0.564387 0.06 0 0.576161 0.06 0 0.578775 0.06 0 0.581315 0.06 0 0.583809 0.06 0 0.586274 0.06 0 0.588717 0.06 0 0.591144 0.06 0 0.593562 0.06 0 0.595977 0.06 0 0.598392 0.06 0 0.600793 0.06 0 0.603181 0.06 0 0.605565 0.06 0 0.607946 0.06 0 0.610328 0.06 0 0.612711 0.06 0 0.615092 0.06 0 0.61747 0.06 0 0.619843 0.06 0 0.622219 0.06 0 0.624597 0.06 0 0.62698 0.06 0 0.629375 0.06 0 0.631798 0.06 0 0.63426 0.06 0 0.636807 0.06 0 0.639484 0.06 0 0.642311 0.06 0 0.645357 0.06 0 0.648672 0.06 0 0.652322 0.06 0 0.656326 0.06 0 0.660673 0.06 0 0.665301 0.06 0 0.67012 0.06 0 0.675044 0.06 0 0.680015 0.06 0 0.685005 0.06 0 0.690002 0.06 0 0.695001 0.06 0 0.7 0.06 0 0.705 0.06 0 0.71 0.06 0 0.715 0.06 0 0.72 0.06 0 0.725 0.06 0 0.73 0.06 0 0.735 0.06 0 0.74 0.06 0 0.745 0.06 0 0.75 0.06 0 0.755 0.06 0 0.76 0.06 0 0.765 0.06 0 0.77 0.06 0 0.775 0.06 0 0.78 0.06 0 0.785 0.06 0 0.79 0.06 0 0.795 0.06 0 0.8 0.06 0 0.805 0.06 0 0.81 0.06 0 0.815 0
[...]
			<PointData Scalars="VitesseX">
				<DataArray Name="VitesseX" type="Float32" format="ascii">
 0 1.55774e-16 -1.35032e-15 -4.59253e-15 -2.55668e-15 3.24731e-15 -2.55342e-15 6.88022e-15 5.32837e-15 5.294e-17 -2.98497e-15 -6.73558e-15 3.27725e-15 8.61807e-16 3.64121e-16 -1.08702e-14 1.59341e-14 6.32405e-15 -5.91565e-15 1.93491e-15 -1.90408e-15 -7.99498e-15 2.45019e-14 -5.869e-15 6.69687e-15 -1.04354e-14 2.9278e-14 -1.21478e-14 3.47707e-15 1.13732e-14 -1.28421e-15 -2.00662e-14 1.4509e-14 -4.18284e-15 7.06781e-15 1.66216e-14 -9.51483e-15 -5.52646e-15 3.54733e-14 2.36778e-14 -1.80357e-14 1.25008e-14 -1.34533e-14 6.15015e-15 -1.90205e-14 -2.33459e-14 1.41837e-14 1.16623e-14 -7.36373e-15 -1.35294e-14 -6.0957e-15 3.93147e-14 -2.59709e-14 1.78565e-14 -1.15374e-14 2.22162e-14 -6.57401e-15 1.69618e-14 3.2569e-14 3.46221e-14 4.50688e-14 -1.93135e-14 2.03476e-14 1.21497e-14 9.58653e-15 1.02702e-13 1.13493e-12 1.1692e-11 1.14851e-10 1.03498e-09 8.5752e-09 6.50015e-08 4.48476e-07 2.79918e-06 1.56905e-05 7.82948e-05 0.00034406 0.0013142 0.00429899 0.0118769 0.0275129 0.0537741 0.0906373 0.135991 0.187524 0.24382 0.304321 0.368976 0.437988 0.511694 0.590468 0.674564 0.763631 0.85513 0.938535 0.975929 0.954753 0.939777 0.931353 0.928398 0.927107 0.927113 0.927174 0.927188 0.92714 0.92701 0.926776 0.926427 0.925984 0.925488 0.925017 0.924654 0.924447 0.924422 0.925145 0.925469 0.924953 0.922726 0.923341 0.921359 0.924188 0.927172 0.913031 0.881944 0.884764 0.831659 0.788902 0.714487 0.641332 0.519377 0.405075 0.276474 0.167194 0.0860628 0.0378622 0.0147658 0.00536227 0.00187331 0.000638856 0.000213742 7.0229e-05 2.26528e-05 7.16773e-06 2.22306e-06 6.75345e-07 2.00836e-07 5.84366e-08 1.66294e-08 4.62675e-09 1.25822e-09 3.34399e-10 8.68919e-11 2.20556e-11 5.45495e-12 1.37201e-12 3.58333e-13 1.62147e-14 -6.62312e-14 1.29169e-13 -6.55761e-14 1.68241e-13 -9.08809e-14 -1.55713e-13 1.6188e-14 1.6614e-13 -8.91753e-14 -3.38545e-14 1.02051e-13 -3.64684e-14 -4.64345e-14 -2.08174e-14 9.52487e-14 -5.60308e-15 -5.23669e-14 9.79461e-14 -7.24554e-14 5.06076e-14 -2.92228e-14 -7.11935e-14 -2.7147e-14 -1.48092e-14 3.65997e-14 -8.19465e-14 -1.17255e-13 5.96521e-14 -6.20349e-14 5.08257e-14 -9.35957e-14 -9.64285e-14 -6.72716e-14 8.79197e-14 -8.0056e-14 -1.01319e-13 9.94027e-14 -6.81477e-14 -1.65583e-13 1.01186e-13 -1.19768e-13 -1.20679e-13 1.74503e-13 0 0 4.10329e-16 -2.91593e-16 -8.33459e-16 1.97201e-15 1.10134e-18 -1.49424e-15 1.26369e-15 -2.15484e-15 3.98866e-15 -3.19684e-15 4.40934e-15 -6.74588e-15 8.43166e-15 -8.1577e-15 6.4078e-15 1.0111e-14 -1.15766e-14 6.85252e-15 -9.62142e-15 9.49039e-15 7.04807e-15 -2.54536e-15 1.17372e-14 -6.21542e-15 8.22234e-15 -4.49187e-15 2.35427e-14 6.19648e-16 -1.40011e-14 1.81021e-14 -1.22796e-14 -5.43137e-15 2.14511e-14 1.24271e-15 2.11321e-14 -1.07677e-14 9.88916e-15 9.14301e-15 8.34519e-15 1.96173e-14 -5.6474e-15 -1.69498e-14 2.48931e-14 -2.61193e-14 -8.85201e-15 -1.14932e-14 1.25771e-14 6.59893e-15 5.34144e-15 -1.66958e-14 1.67821e-14 -2.32951e-14 1.09654e-14 -3.52904e-14 2.46376e-14 4.29444e-14 -1.17368e-14 4.69485e-14 1.46236e-14 4.6745e-14 -3.97344e-14 2.3483e-14 4.73019e-14 2.60823e-14 1.32328e-13 1.09572e-12 1.17028e-11 1.14816e-10 1.03504e-09 8.57515e-09 6.50015e-08 4.48476e-07 2.79918e-06 1.56905e-05 7.82948e-05 0.00034406 0.0013142 0.00429899 0.0118769 0.0275129 0.0537741 0.0906373 0.135991 0.187524 0.24382 0.304321 0.368976 0.437988 0.511694 0.590468 0.674564 0.763631 0.85513 0.938535 0.975929 0.954753 0.939777 0.931353 0.928398 0.927107 0.927113 0.927174 0.927188 0.92714 0.92701 0.926776 0.926427 0.925984 0.925488 0.925017 0.924654 0.924447 0.924422 0.925145 0.925469 0.924953 0.922726 0.923341 0.921359 0.924188 0.927172 0.913031 0.881944 0.884764 0.831659 0.788902 0.714487 0.641332 0.519377 0.405075 0.276474 0.167194 0.0860628 0.0378622 0.0147658 0.00536227 0.00187331 0.000638856 0.000213742 7.0229e-05 2.26528e-05 7.16773e-06 2.22306e-06 6.75345e-07 2.00836e-07 5.84366e-08 1.66293e-08 4.62672e-09 1.25831e-09 3.34384e-10 8.68741e-11 2.20985e-11 5.51183e-12 1.35673e-12 3.18983e-13 -2.75848e-14 4.71742e-14 1.09694e-13 2.8902e-15 -7.22032e-14 4.44582e-15 1.85851e-14 -5.19706e-14 -1.62902e-14 1.16067e-13 6.94343e-15 -6.20863e-14 1.12211e-13 -1.08549e-13 -2.84867e-14 8.38013e-14 -4.89891e-14 1.15863e-14 3.32343e-14 -7.38324e-14 1.05521e-13 -8.17222e-14 -7.49438e-14 -1.1642e-13 -5.8642e-14 1.42283e-14 -3.41387e-14 -3.66993e-15 -4.45327e-15 -6.5506e-14 -1.14256e-15 -2.83655e-14 3.26487e-15 -1.30658e-13 -2.61528e-14 9.27749e-14 -5.34831e-14 -3.28134e-14 -2.0002e-14 -8.31196e-14 -7.45172e-14 -4.42276e-14 8.36442e-14 -7.95446e-14 0 0 4.87813e-16 7.39839e-16 2.562e-15 2.99333e-15 -2.54528e-15 1.19772e-15 -1.45827e-15 1.81117e-15 -8.01627e-16 5.94164e-15 1.10424e-15 -3.17049e-15 8.66235e-15 -1.18092e-14 9.7648e-15 4.01677e-15 -1.05514e-14 8.88583e-15 -7.21702e-15 9.69608e-15 1.06073e-14 1.07734e-14 -1.3639e-15 6.68872e-17 2.05064e-14 -1.16719e-14 -9.92789e-15 2.04783e-14 -2.10498e-14 2.92916e-14 2.31133e-14 -9.82857e-15 1.40579e-14 1.51851e-14 1.17755e-14 -8.78618e-15 2.29153e-15 5.2838e-15 -1.4494e-14 -4.96828e-15 7.13434e-15 2.04455e-14 -4.79527e-15 -3.01487e-15 1.8388e-14 -2.5467e-14 -2.1339e-14 2.18332e-14 -4.66936e-15 -2.0893e-15 -1.83724e-14 -2.59082e-14 1.0167e-14 2.83285e-16 4.57199e-14 5.97668e-14 -5.37921e-14 2.81258e-14 7.43628e-14 1.88732e-14 1.50843e-14 3.74226e-14 -1.50606e-14 5.17149e-14 1.39241e-13 1.06912e-12 1.17363e-11 1.14774e-10 1.03506e-09 8.57505e-09 6.50016e-08 4.48476e-07 2.79918e-06 1.56905e-05 7.82948e-05 0.00034406 0.0013142 0.00429899 0.0118769 0.0275129 0.0537741 0.0906373 0.135991 0.187524 0.24382 0.304321 0.368976 0.437988 0.511694 0.590468 0.674564 0.763631 0.85513 0.938535 0.975929 0.954753 0.939777 0.931353 0.928398 0.927107 0.927113 0.927174 0.927188 0.92714 0.92701 0.926776 0.926427 0.925984 0.925488 0.925017 0.924654 0.924447 0.924422 0.925145 0.925469 0.924953 0.922726 0.923341 0.921359 0.924188 0.927172 0.913031 0.881944 0.884764 0.831659 0.788902 0.714487 0.641332 0.519377 0.405075 0.276474 0.167194 0.0860628 0.0378622 0.0147658 0.00536227 0.00187331 0.000638856 0.000213742 7.0229e-05 2.26528e-05 7.16773e-06 2.22306e-06 6.75345e-07 2.00836e-07 5.84366e-08 1.66294e-08 4.62672e-09 1.25824e-09 3.3442e-10 8.69341e-11 2.21325e-11 5.50808e-12 1.36333e-12 3.84497e-13 -4.22034e-14 9.42257e-14 -5.28944e-14 6.24321e-14 -6.05231e-14 1.02374e-13 1.40161e-14 4.53155e-14 2.28856e-14 -5.34875e-14 9.98884e-14 -1.50367e-13 2.01808e-13 -4.10793e-14 -8.44135e-14 -2.29885e-14 -9.22649e-15 1.25984e-14 -6.92412e-14 -6.86032e-15 3.42935e-14 -1.23881e-13 2.13476e-14 -1.66145e-13 -1.13592e-13 -4.84595e-14 1.979e-14 1.08071e-13 -1.5833e-13 1.02578e-15 1.42106e-14 -7.30372e-14 -5.53959e-14 -5.96274e-15 3.56598e-15 2.02195e-14 7.36024e-15 -5.23487e-14 -1.19369e-13 7.1785e-15 2.59657e-14 -1.09197e-13 1.75236e-13 -1.02578e-13 0 0 -5.95637e-16 3.24792e-16 3.58267e-16 4.0975e-15 -2.48308e-15 5.52895e-15 -2.64908e-15 4.84045e-15 -2.44599e-17 3.20139e-15 -4.03749e-15 -1.61913e-15 -4.07916e-15 8.99312e-15 -1.38685e-15 6.6635e-17 1.06111e-14 -5.08089e-15 5.06524e-15 -1.00057e-14 1.04566e-14 1.62349e-14 4.11266e-15 1.00206e-14 3.0927e-15 -7.80934e-16 -3.44829e-14 3.22244e-14 1.77037e-15 3.34007e-14 2.16624e-14 7.74198e-15 3.42309e-15 -1.35886e-14 1.57285e-14 -5.49913e-16 8.88023e-15 -5.66357e-15 -4.2751e-14 -3.01846e-14 -2.61353e-15 6.44142e-14 -1.28761e-14 1.28526e-16 2.67077e-14 -4.06286e-14 -1.88214e-14 -1.23507e-14 -1.11633e-16 2.08141e-14 -3.68243e-15 -4.82463e-15 3.86718e-14 -8.68615e-15 2.94279e-14 5.46318e-14 1.41938e-14 -1.24468e-14 5.27483e-14 4.36688e-14 6.17883e-14 3.79178e-14 -1.91262e-14 4.11966e-14 1.64728e-13 1.0954e-12 1.16529e-11 1.14747e-10 1.03505e-09 8.57511e-09 6.50015e-08 4.48476e-07 2.79918e-06 1.56905e-05 7.82948e-05 0.00034406 0.0013142 0.00429899 0.0118769 0.0275129 0.0537741 0.0906373 0.135991 0.187524 0.24382 0.304321 0.368976 0.437988 0.511694 0.590468 0.674564 0.763631 0.85513 0.938535 0.975929 0.954753 0.939777 0.931353 0.928398 0.927107 0.927113 0.927174 0.927188 0.92714 0.92701 0.926776 0.926427 0.925984 0.925488 0.925017 0.924654 0.924447 0.924422 0.925145 0.925469 0.924953 0.922726 0.923341 0.921359 0.924188 0.927172 0.913031 0.881944 0.884764 0.831659 0.788902 0.714487 0.641332 0.519377 0.405075 0.276474 0.167194 0.0860628 0.0378622 0.0147658 0.00536227 0.00187331 0.000638856 0.000213742 7.0229e-05 2.26528e-05 7.16773e-06 2.22306e-06 6.75345e-07 2.00836e-07 5.84367e-08 1.66294e-08 4.62676e-09 1.25823e-09 3.34521e-10 8.68985e-11 2.20798e-11 5.46966e-12 1.45177e-12 4.11263e-13 4.68335e-14 7.39437e-14 -1.12305e-13 -1.26809e-13 1.11275e-13 7.60742e-14 -9.99908e-14 1.76305e-13 8.98775e-14 -1.8552e-13 -8.70996e-14 2.5996e-13 -1.30585e-13 1.07365e-13 -1.08413e-14 -8.96697e-14 1.61662e-14 -1.95458e-13 2.94556e-14 -1.59705e-14 -4.30968e-14 -3.15519e-15 -6.38652e-15 -3.5946e-14 -1.57535e-13 1.30573e-13 -7.81815e-14 2.75047e-15 7.45831e-14 -5.85663e-14 2.71676e-14 -2.5071e-13 -2.58148e-13 6.99139e-14 1.5431e-14 -5.71773e-14 1.96335e-14 2.38341e-14 -7.90115e-14 -7.88229e-14 9.93595e-14 -5.92458e-15 -1.38125e-15 -1.69789e-14 0 0 -1.31118e-15 -1.35245e-16 1.67427e-16 3.45665e-15 -1.05674e-15 1.02766e-14 -8.0784e-15 -4.06612e-15 4.67364e-15 -1.72994e-15 6.40898e-15 -1.33372e-14 -6.68914e-15 2.68548e-15 1.0268e-16 -1.15418e-14 1.07219e-14 1.07605e-15 1.78132e-14 -1.40454e-14 2.52652e-14 -5.30341e-15 1.26602e-14 2.72279e-15 2.29007e-15 -2.13544e-14 1.03084e-14 3.53171e-14 2.10874e-14 1.49602e-14 7.97226e-15 -1.4337e-15 2.14949e-14 -1.39844e-14 -2.852e-14 2.14332e-14 -6.27101e-15 -3.12354e-14 -2.73924e-14 4.37513e-15 4.75338e-15 -2.04944e-15 2.83766e-14 4.1552e-15 -9.91172e-15 6.55562e-15 6.87808e-15 -9.27874e-15 1.27817e-14 -1.90411e-14 3.14774e-14 2.03343e-14 1.27862e-14 2.36344e-14 -2.57592e-14 6.43728e-14 3.69254e-14 1.27888e-14 5.95486e-15 5.83511e-15 9.79923e-15 6.18401e-14 6.80161e-14 7.28671e-14 1.63983e-13 1.07958e-12 1.15257e-11 1.14855e-10 1.035e-09 8.57516e-09 6.50014e-08 4.48476e-07 2.79918e-06 1.56905e-05 7.82948e-05 0.00034406 0.0013142 0.00429899 0.0118769 0.0275129 0.0537741 0.0906373 0.135991 0.187524 0.24382 0.304321 0.368976 0.437988 0.511694 0.590468 0.674564 0.763631 0.85513 0.938535 0.975929 0.954753 0.939777 0.931353 0.928398 0.927107 0.927113 0.927174 0.927188 0.92714 0.92701 0.926776 0.926427 0.925984 0.925488 0.925017 0.924654 0.924447 0.924422 0.925145 0.925469 0.924953 0.922726 0.923341 0.921359 0.924188 0.927172 0.913031 0.881944 0.884764 0.831659 0.788902 0.714487 0.641332 0.519377 0.405075 0.276474 0.167194 0.0860628 0.0378622 0.0147658 0.00536227 0.00187331 0.000638856 0.000213742 7.0229e-05 2.26528e-05 7.16773e-06 2.22306e-06 6.75345e-07 2.00836e-07 5.84365e-08 1.66294e-08 4.62675e-09 1.25834e-09 3.34529e-10 8.68637e-11 2.21205e-11 5.52466e-12 1.44659e-12 2.05557e-13 -5.79076e-15 2.90569e-13 -9.66448e-15 -1.21353e-13 -2.88586e-14 8.91478e-14 -3.1122e-13 9.16232e-14 -4.38099e-14 9.65307e-14 -3.24347e-13 3.15346e-13 -4.59013e-14 -1.20539e-14 -2.69107e-14 -5.55085e-14 6.55536e-14 -2.06992e-13 1.37827e-13 3.70256e-14 1.34363e-13 -5.84663e-14 -8.92661e-14 -6.59687e-14 -1.30802e-13 2.19279e-13 -1.09197e-13 -1.41391e-13 1.47918e-13 -5.69057e-14 -5.67608e-14 -2.93773e-13 -2.61535e-13 2.71668e-14 2.14404e-14 5.51887e-15 3.62792e-14 3.68643e-14 6.36213e-14 -1.39532e-13 -2.27064e-14 1.65615e-13 -5.71673e-14 -1.10239e-13 0 0 -1.12036e-15 -2.07527e-16 1.8167e-15 -1.79574e-15 1.00721e-15 1.23257e-14 -9.42235e-15 -4.55275e-15 -1.31431e-16 5.42932e-15 7.54716e-15 -1.30081e-14 -3.89679e-15 -1.95541e-14 -1.1771e-15 -1.94712e-14 8.59597e-15 1.04649e-14 3.22397e-14 -9.57213e-15 2.87404e-14 8.06282e-15 -1.49759e-14 4.66588e-15 1.25275e-14 -2.62291e-14 1.04933e-14 4.93798e-14 3.59097e-14 -1.57864e-14 2.33392e-14 -1.26367e-14 1.71744e-14 3.41609e-14 -9.05886e-14 3.84144e-14 -5.10242e-14 -2.33888e-14 8.71673e-15 1.91262e-15 5.27981e-14 -7.15899e-14 2.92788e-14 3.52417e-14 -4.21047e-14 8.06046e-14 -4.77076e-15 2.92489e-14 -7.76433e-15 -5.65929e-14 3.93254e-14 1.91208e-14 -3.55114e-14 1.24251e-13 -4.59934e-14 4.65529e-14 -2.16856e-14 4.53948e-14 6.05136e-14 -8.63423e-14 -1.36541e-14 9.60715e-14 6.17093e-14 1.24193e-13 1.15037e-13 1.05011e-12 1.15047e-11 1.14983e-10 1.03492e-09 8.57509e-09 6.50015e-08 4.48476e-07 2.79918e-06 1.56905e-05 7.82948e-05 0.00034406 0.0013142 0.00429899 0.0118769 0.0275129 0.0537741 0.0906373 0.135991 0.187524 0.24382 0.304321 0.368976 0.437988 0.511694 0.590468 0.674564 0.763631 0.85513 0.938535 0.975929 0.954753 0.939777 0.931353 0.928398 0.927107 0.927113 0.927174 0.927188 0.92714 0.92701 0.926776 0.926427 0.925984 0.925488 0.925017 0.924654 0.924447 0.924422 0.925145 0.925469 0.924953 0.922726 0.923341 0.921359 0.924188 0.927172 0.913031 0.881944 0.884764 0.831659 0.788902 0.714487 0.641332 0.519377 0.405075 0.276474 0.167194 0.0860628 0.0378622 0.0147658 0.00536227 0.00187331 0.000638856 0.000213742 7.0229e-05 2.26528e-05 7.16773e-06 2.22306e-06 6.75345e-07 2.00837e-07 5.84365e-08 1.66295e-08 4.62671e-09 1.25831e-09 3.34487e-10 8.69422e-11 2.2205e-11 5.55746e-12 1.3745e-12 7.73952e-14 -1.18753e-13 4.60636e-13 9.24193e-15 6.49475e-14 -8.86076e-14 1.30945e-13 -5.8717e-13 4.14897e-14 -2.31149e-14 1.36135e-13 -3.21723e-13 3.65836e-14 3.12557e-13 -1.50318e-13 -1.64999e-13 -5.00754e-14 1.72385e-13 -7.40142e-14 1.09651e-13 1.67837e-13 2.63307e-13 -2.23882e-13 -4.43169e-14 -1.86591e-13 -7.14013e-14 8.8343e-14 -3.62913e-14 -1.82027e-13 -1.00923e-13 7.44182e-14 -8.66426e-14 -2.68988e-13 -2.20755e-13 9.57412e-14 1.58353e-13 -1.00047e-13 5.39889e-14 8.68432e-14 1.85693e-14 -1.06338e-13 5.83577e-14 9.36651e-14 -4.96151e-14 -5.91603e-14 0
				</DataArray>
				<DataArray Name="VitesseY" type="Float32" format="ascii">