<?xml version="1.0"?>
<VTKFile type="PolyData">
	<PolyData>
		<Piece NumberOfPoints="1206" NumberOfPolys="1000">
			<Points>
				<DataArray type="Float32" NumberOfComponents="3" format="ascii">
 0 0 0 0.005 0 0 0.01 0 0 0.015 0 0 0.02 0 0 0.025 0 0 0.03 0 0 0.035 0 0 0.04 0 0 0.045 0 0 0.05 0 0 0.055 0 0 0.06 0 0 0.065 0 0 0.07 0 0 0.075 0 0 0.08 0 0 0.085 0 0 0.09 0 0 0.095 0 0 0.1 0 0 0.105 0 0 0.11 0 0 0.115 0 0 0.12 0 0 0.125 0 0 0.13 0 0 0.135 0 0 0.14 0 0 0.145 0 0 0.15 0 0 0.155 0 0 0.16 0 0 0.165 0 0 0.17 0 0 0.175 0 0 0.18 0 0 0.185 0 0 0.19 0 0 0.195 0 0 0.2 0 0 0.205 0 0 0.21 0 0 0.215 0 0 0.22 0 0 0.225 0 0 0.23 0 0 0.235 0 0 0.24 0 0 0.245 0 0 0.25 0 0 0.255 0 0 0.26 0 0 0.265 0 0 0.27 0 0 0.275 0 0 0.28 0 0 0.285 0 0 0.29 0 0 0.295 0 0 0.3 0 0 0.305 0 0 0.31 0 0 0.315 0 0 0.32 0 0 0.325 0 0 0.33 0 0 0.335 0 0 0.34 0 0 0.345 0 0 0.35 0 0 0.355 0 0 0.36 0 0 0.365 0 0 0.37 0 0 0.375 0 0 0.38 0 0 0.385 0 0 0.39 0 0 0.395 0 0 0.4 0 0 0.405 0 0 0.41 0 0 0.415 0 0 0.42 0 0 0.425 0 0 0.43 0 0 0.435 0 0 0.44 0 0 0.445 0 0 0.450002 0 0 0.455016 0 0 0.460081 0 0 0.465309 0 0 0.470898 0 0 0.47711 0 0 0.484257 0 0 0.492764 0 0 0.503226 0 0 0.515733 0 0 0.528078 0 0 0.530744 0 0 0.533344 0 0 0.535905 0 0 0.538453 0 0 0.540935 0 0 0.543399 0 0 0.545908 0 0 0.548564 0 0 0.551337 0 0 0.554426 0 0 0.557831 0 0 0.561599 0 0 0.565782 0 0 0.570317 0 0 0.575105 0 0 0.58003 0 0 0.585008 0 0 0.590002 0 0 0.595 0 0 0.6 0 0 0.605 0 0 0.61 0 0 0.615 0 0 0.62 0 0 0.625 0 0 0.63 0 0 0.635 0 0 0.64 0 0 0.645 0 0 0.65 0 0 0.655 0 0 0.66 0 0 0.665 0 0 0.67 0 0 0.675 0 0 0.68 0 0 0.685 0 0 0.69 0 0 0.695 0 0 0.7 0 0 0.705 0 0 0.71 0 0 0.715 0 0 0.72 0 0 0.725 0 0 0.73 0 0 0.735 0 0 0.74 0 0 0.745 0 0 0.75 0 0 0.755 0 0 0.76 0 0 0.765 0 0 0.77 0 0 0.775 0 0 0.78 0 0 0.785 0 0 0.79 0 0 0.795 0 0 0.8 0 0 0.805 0 0 0.81 0 0 0.815 0 0 0.82 0 0 0.825 0 0 0.83 0 0 0.835 0 0 0.84 0 0 0.845 0 0 0.85 0 0 0.855 0 0 0.86 0 0 0.865 0 0 0.87 0 0 0.875 0 0 0.88 0 0 0.885 0 0 0.89 0 0 0.895 0 0 0.9 0 0 0.905 0 0 0.91 0 0 0.915 0 0 0.92 0 0 0.925 0 0 0.93 0 0 0.935 0 0 0.94 0 0 0.945 0 0 0.95 0 0 0.955 0 0 0.96 0 0 0.965 0 0 0.97 0 0 0.975 0 0 0.98 0 0 0.985 0 0 0.99 0 0 0.995 0 0 1 0 0 0 0.02 0 0.005 0.02 0 0.01 0.02 0 0.015 0.02 0 0.02 0.02 0 0.025 0.02 0 0.03 0.02 0 0.035 0.02 0 0.04 0.02 0 0.045 0.02 0 0.05 0.02 0 0.055 0.02 0 0.06 0.02 0 0.065 0.02 0 0.07 0.02 0 0.075 0.02 0 0.08 0.02 0 0.085 0.02 0 0.09 0.02 0 0.095 0.02 0 0.1 0.02 0 0.105 0.02 0 0.11 0.02 0 0.115 0.02 0 0.12 0.02 0 0.125 0.02 0 0.13 0.02 0 0.135 0.02 0 0.14 0.02 0 0.145 0.02 0 0.15 0.02 0 0.155 0.02 0 0.16 0.02 0 0.165 0.02 0 0.17 0.02 0 0.175 0.02 0 0.18 0.02 0 0.185 0.02 0 0.19 0.02 0 0.195 0.02 0 0.2 0.02 0 0.205 0.02 0 0.21 0.02 0 0.215 0.02 0 0.22 0.02 0 0.225 0.02 0 0.23 0.02 0 0.235 0.02 0 0.24 0.02 0 0.245 0.02 0 0.25 0.02 0 0.255 0.02 0 0.26 0.02 0 0.265 0.02 0 0.27 0.02 0 0.275 0.02 0 0.28 0.02 0 0.285 0.02 0 0.29 0.02 0 0.295 0.02 0 0.3 0.02 0 0.305 0.02 0 0.31 0.02 0 0.315 0.02 0 0.32 0.02 0 0.325 0.02 0 0.33 0.02 0 0.335 0.02 0 0.34 0.02 0 0.345 0.02 0 0.35 0.02 0 0.355 0.02 0 0.36 0.02 0 0.365 0.02 0 0.37 0.02 0 0.375 0.02 0 0.38 0.02 0 0.385 0.02 0 0.39 0.02 0 0.395 0.02 0 0.4 0.02 0 0.405 0.02 0 0.41 0.02 0 0.415 0.02 0 0.42 0.02 0 0.425 0.02 0 0.43 0.02 0 0.435 0.02 0 0.44 0.02 0 0.445 0.02 0 0.450002 0.02 0 0.455016 0.02 0 0.460081 0.02 0 0.465309 0.02 0 0.470898 0.02 0 0.47711 0.02 0 0.484257 0.02 0 0.492764 0.02 0 0.503226 0.02 0 0.515733 0.02 0 0.528078 0.02 0 0.530744 0.02 0 0.533344 0.02 0 0.535905 0.02 0 0.538453 0.02 0 0.540935 0.02 0 0.543399 0.02 0 0.545908 0.02 0 0.548564 0.02 0 0.551337 0.02 0 0.554426 0.02 0 0.557831 0.02 0 0.561599 0.02 0 0.565782 0.02 0 0.570317 0.02 0 0.575105 0.02 0 0.58003 0.02 0 0.585008 0.02 0 0.590002 0.02 0 0.595 0.02 0 0.6 0.02 0 0.605 0.02 0 0.61 0.02 0 0.615 0.02 0 0.62 0.02 0 0.625 0.02 0 0.63 0.02 0 0.635 0.02 0 0.64 0.02 0 0.645 0.02 0 0.65 0.02 0 0.655 0.02 0 0.66 0.02 0 0.665 0.02 0 0.67 0.02 0 0.675 0.02 0 0.68 0.02 0 0.685 0.02 0 0.69 0.02 0 0.695 0.02 0 0.7 0.02 0 0.705 0.02 0 0.71 0.02 0 0.715 0.02 0 0.72 0.02 0 0.725 0.02 0 0.73 0.02 0 0.735 0.02 0 0.74 0.02 0 0.745 0.02 0 0.75 0.02 0 0.755 0.02 0 0.76 0.02 0 0.765 0.02 0 0.77 0.02 0 0.775 0.02 0 0.78 0.02 0 0.785 0.02 0 0.79 0.02 0 0.795 0.02 0 0.8 0.02 0 0.805 0.02 0 0.81 0.02 0 0.815 0.02 0 0.82 0.02 0 0.825 0.02 0 0.83 0.02 0 0.835 0.02 0 0.84 0.02 0 0.845 0.02 0 0.85 0.02 0 0.855 0.02 0 0.86 0.02 0 0.865 0.02 0 0.87 0.02 0 0.875 0.02 0 0.88 0.02 0 0.885 0.02 0 0.89 0.02 0 0.895 0.02 0 0.9 0.02 0 0.905 0.02 0 0.91 0.02 0 0.915 0.02 0 0.92 0.02 0 0.925 0.02 0 0.93 0.02 0 0.935 0.02 0 0.94 0.02 0 0.945 0.02 0 0.95 0.02 0 0.955 0.02 0 0.96 0.02 0 0.965 0.02 0 0.97 0.02 0 0.975 0.02 0 0.98 0.02 0 0.985 0.02 0 0.99 0.02 0 0.995 0.02 0 1 0.02 0 0 0.04 0 0.005 0.04 0 0.01 0.04 0 0.015 0.04 0 0.02 0.04 0 0.025 0.04 0 0.03 0.04 0 0.035 0.04 0 0.04 0.04 0 0.045 0.04 0 0.05 0.04 0 0.055 0.04 0 0.06 0.04 0 0.065 0.04 0 0.07 0.04 0 0.075 0.04 0 0.08 0.04 0 0.085 0.04 0 0.09 0.04 0 0.095 0.04 0 0.1 0.04 0 0.105 0.04 0 0.11 0.04 0 0.115 0.04 0 0.12 0.04 0 0.125 0.04 0 0.13 0.04 0 0.135 0.04 0 0.14 0.04 0 0.145 0.04 0 0.15 0.04 0 0.155 0.04 0 0.16 0.04 0 0.165 0.04 0 0.17 0.04 0 0.175 0.04 0 0.18 0.04 0 0.185 0.04 0 0.19 0.04 0 0.195 0.04 0 0.2 0.04 0 0.205 0.04 0 0.21 0.04 0 0.215 0.04 0 0.22 0.04 0 0.225 0.04 0 0.23 0.04 0 0.235 0.04 0 0.24 0.04 0 0.245 0.04 0 0.25 0.04 0 0.255 0.04 0 0.26 0.04 0 0.265 0.04 0 0.27 0.04 0 0.275 0.04 0 0.28 0.04 0 0.285 0.04 0 0.29 0.04 0 0.295 0.04 0 0.3 0.04 0 0.305 0.04 0 0.31 0.04 0 0.315 0.04 0 0.32 0.04 0 0.325 0.04 0 0.33 0.04 0 0.335 0.04 0 0.34 0.04 0 0.345 0.04 0 0.35 0.04 0 0.355 0.04 0 0.36 0.04 0 0.365 0.04 0 0.37 0.04 0 0.375 0.04 0 0.38 0.04 0 0.385 0.04 0 0.39 0.04 0 0.395 0.04 0 0.4 0.04 0 0.405 0.04 0 0.41 0.04 0 0.415 0.04 0 0.42 0.04 0 0.425 0.04 0 0.43 0.04 0 0.435 0.04 0 0.44 0.04 0 0.445 0.04 0 0.450002 0.04 0 0.455016 0.04 0 0.460081 0.04 0 0.465309 0.04 0 0.470898 0.04 0 0.47711 0.04 0 0.484257 0.04 0 0.492764 0.04 0 0.503226 0.04 0 0.515733 0.04 0 0.528078 0.04 0 0.530744 0.04 0 0.533344 0.04 0 0.535905 0.04 0 0.538453 0.04 0 0.540935 0.04 0 0.543399 0.04 0 0.545908 0.04 0 0.548564 0.04 0 0.551337 0.04 0 0.554426 0.04 0 0.557831 0.04 0 0.561599 0.04 0 0.565782 0.04 0 0.570317 0.04 0 0.575105 0.04 0 0.58003 0.04 0 0.585008 0.04 0 0.590002 0.04 0 0.595 0.04 0 0.6 0.04 0 0.605 0.04 0 0.61 0.04 0 0.615 0.04 0 0.62 0.04 0 0.625 0.04 0 0.63 0.04 0 0.635 0.04 0 0.64 0.04 0 0.645 0.04 0 0.65 0.04 0 0.655 0.04 0 0.66 0.04 0 0.665 0.04 0 0.67 0.04 0 0.675 0.04 0 0.68 0.04 0 0.685 0.04 0 0.69 0.04 0 0.695 0.04 0 0.7 0.04 0 0.705 0.04 0 0.71 0.04 0 0.715 0.04 0 0.72 0.04 0 0.725 0.04 0 0.73 0.04 0 0.735 0.04 0 0.74 0.04 0 0.745 0.04 0 0.75 0.04 0 0.755 0.04 0 0.76 0.04 0 0.765 0.04 0 0.77 0.04 0 0.775 0.04 0 0.78 0.04 0 0.785 0.04 0 0.79 0.04 0 0.795 0.04 0 0.8 0.04 0 0.805 0.04 0 0.81 0.04 0 0.815 0.04 0 0.82 0.04 0 0.825 0.04 0 0.83 0.04 0 0.835 0.04 0 0.84 0.04 0 0.845 0.04 0 0.85 0.04 0 0.855 0.04 0 0.86 0.04 0 0.865 0.04 0 0.87 0.04 0 0.875 0.04 0 0.88 0.04 0 0.885 0.04 0 0.89 0.04 0 0.895 0.04 0 0.9 0.04 0 0.905 0.04 0 0.91 0.04 0 0.915 0.04 0 0.92 0.04 0 0.925 0.04 0 0.93 0.04 0 0.935 0.04 0 0.94 0.04 0 0.945 0.04 0 0.95 0.04 0 0.955 0.04 0 0.96 0.04 0 0.965 0.04 0 0.97 0.04 0 0.975 0.04 0 0.98 0.04 0 0.985 0.04 0 0.99 0.04 0 0.995 0.04 0 1 0.04 0 0 0.06 0 0.005 0.06 0 0.01 0.06 0 0.015 0.06 0 0.02 0.06 0 0.025 0.06 0 0.03 0.06 0 0.035 0.06 0 0.04 0.06 0 0.045 0.06 0 0.05 0.06 0 0.055 0.06 0 0.06 0.06 0 0.065 0.06 0 0.07 0.06 0 0.075 0.06 0 0.08 0.06 0 0.085 0.06 0 0.09 0.06 0 0.095 0.06 0 0.1 0.06 0 0.105 0.06 0 0.11 0.06 0 0.115 0.06 0 0.12 0.06 0 0.125 0.06 0 0.13 0.06 0 0.135 0.06 0 0.14 0.06 0 0.145 0.06 0 0.15 0.06 0 0.155 0.06 0 0.16 0.06 0 0.165 0.06 0 0.17 0.06 0 0.175 0.06 0 0.18 0.06 0 0.185 0.06 0 0.19 0.06 0 0.195 0.06 0 0.2 0.06 0 0.205 0.06 0 0.21 0.06 0 0.215 0.06 0 0.22 0.06 0 0.225 0.06 0 0.23 0.06 0 0.235 0.06 0 0.24 0.06 0 0.245 0.06 0 0.25 0.06 0 0.255 0.06 0 0.26 0.06 0 0.265 0.06 0 0.27 0.06 0 0.275 0.06 0 0.28 0.06 0 0.285 0.06 0 0.29 0.06 0 0.295 0.06 0 0.3 0.06 0 0.305 0.06 0 0.31 0.06 0 0.315 0.06 0 0.32 0.06 0 0.325 0.06 0 0.33 0.06 0 0.335 0.06 0 0.34 0.06 0 0.345 0.06 0 0.35 0.06 0 0.355 0.06 0 0.36 0.06 0 0.365 0.06 0 0.37 0.06 0 0.375 0.06 0 0.38 0.06 0 0.385 0.06 0 0.39 0.06 0 0.395 0.06 0 0.4 0.06 0 0.405 0.06 0 0.41 0.06 0 0.415 0.06 0 0.42 0.06 0 0.425 0.06 0 0.43 0.06 0 0.435 0.06 0 0.44 0.06 0 0.445 0.06 0 0.450002 0.06 0 0.455016 0.06 0 0.460081 0.06 0 0.465309 0.06 0 0.470898 0.06 0 0.47711 0.06 0 0.484257 0.06 0 0.492764 0.06 0 0.503226 0.06 0 0.515733 0.06 0 0.528078 0.06 0 0.530744 0.06 0 0.533344 0.06 0 0.535905 0.06 0 0.538453 0.06 0 0.540935 0.06 0 0.543399 0.06 0 0.545908 0.06 0 0.548564 0.06 0 0.551337 0.06 0 0.554426 0.06 0 0.557831 0.06 0 0.561599 0.06 0 0.565782 0.06 0 0.570317 0.06 0 0.575105 0.06 0 0.58003 0.06 0 0.585008 0.06 0 0.590002 0.06 0 0.595 0.06 0 0.6 0.06 0 0.605 0.06 0 0.61 0.06 0 0.615 0.06 0 0.62 0.06 0 0.625 0.06 0 0.63 0.06 0 0.635 0.06 0 0.64 0.06 0 0.645 0.06 0 0.65 0.06 0 0.655 0.06 0 0.66 0.06 0 0.665 0.06 0 0.67 0.06 0 0.675 0.06 0 0.68 0.06 0 0.685 0.06 0 0.69 0.06 0 0.695 0.06 0 0.7 0.06 0 0.705 0.06 0 0.71 0.06 0 0.715 0.06 0 0.72 0.06 0 0.725 0.06 0 0.73 0.06 0 0.735 0.06 0 0.74 0.06 0 0.745 0.06 0 0.75 0.06 0 0.755 0.06 0 0.76 0.06 0 0.765 0.06 0 0.77 0.06 0 0.775 0.06 0 0.78 0.06 0 0.785 0.06 0 0.79 0.06 0 0.795 0.06 0 0.8 0.06 0 0.805 0.06 0 0.81 0.06 0 0.815 0.06 0 0.82 0.06 0 0.825 0.06 0 0.83 0.06 0 0.835 0.06 0 0.84 0.06 0 0.845 0.06 0 0.85 0.06 0 0.855 0.06 0 0.86 0.06 0 0.865 0.06 0 0.87 0.06 0 0.875 0.06 0 0.88 0.06 0 0.885 0.06 0 0.89 0.06 0 0.895 0.06 0 0.9 0.06 0 0.905 0.06 0 0.91 0.06 0 0.915 0.06 0 0.92 0.06 0 0.925 0.06 0 0.93 0.06 0 0.935 0.06 0 0.94 0.06 0 0.945 0.06 0 0.95 0.06 0 0.955 0.06 0 0.96 0.06 0 0.965 0.06 0 0.97 0.06 0 0.975 0.06 0 0.98 0.06 0 0.985 0.06 0 0.99 0.06 0 0.995 0.06 0 1 0.06 0 0 0.08 0 0.005 0
[...]
			<PointData Scalars="VitesseX">
				<DataArray Name="VitesseX" type="Float32" format="ascii">
 0 4.23632e-16 -1.8853e-15 1.19268e-15 6.93419e-16 1.32543e-15 -1.27894e-15 -5.16393e-15 4.54387e-15 -6.03101e-15 6.34224e-15 -1.15268e-14 8.19692e-15 5.36522e-15 -7.74333e-16 2.71947e-15 -6.09367e-15 -6.89437e-15 1.11967e-14 -4.32864e-15 -4.15322e-15 7.56271e-15 -1.77464e-16 9.67833e-16 -6.96522e-15 -3.28027e-16 1.28476e-14 -2.45434e-14 2.04646e-14 -7.53502e-15 2.70725e-15 -3.68974e-15 2.09826e-14 -1.28658e-14 -1.8901e-14 1.47025e-14 -2.97898e-15 6.54431e-15 -1.26638e-14 -4.81132e-16 5.28225e-15 2.25707e-14 -2.64031e-14 1.18992e-14 -4.552e-15 1.40012e-14 -1.26967e-14 -5.57474e-15 8.9602e-15 -2.63305e-14 4.4314e-14 0 -4.08437e-14 2.90948e-14 2.21866e-15 -5.80035e-15 -2.98786e-14 3.72694e-14 -1.00022e-14 -4.30855e-14 4.24952e-14 -2.27356e-14 2.8375e-14 1.2893e-14 0 2.67634e-15 -1.06178e-14 -2.24642e-14 8.03641e-15 3.64191e-14 1.82819e-14 2.10852e-14 -4.99309e-14 3.79579e-14 1.41429e-14 -2.80162e-14 1.71332e-14 6.10473e-15 -3.8289e-14 1.1523e-14 -5.79352e-15 -3.49983e-15 6.40348e-13 1.60229e-11 3.5098e-10 6.66607e-09 1.08461e-07 1.49208e-06 1.707e-05 0.000158973 0.00117163 0.00658885 0.0271989 0.0809196 0.178955 0.317452 0.489763 0.6936 0.910971 0.989343 0.927642 0.921604 0.91712 0.915474 0.915863 0.927506 0.920933 0.857534 0.902989 0.724268 0.628516 0.549501 0.369163 0.230176 0.114466 0.044892 0.014099 0.00383496 0.000955726 0.000223318 4.92776e-05 1.0292e-05 2.03678e-06 3.82266e-07 6.80991e-08 1.15248e-08 1.85443e-09 2.83843e-10 4.13498e-11 5.77502e-12 7.1351e-13 1.60243e-13 -4.59688e-14 7.08337e-14 -9.00369e-14 5.05249e-14 -6.52613e-14 5.22404e-14 -6.86423e-14 8.36063e-14 -6.4387e-14 6.92869e-14 -8.58207e-14 8.213e-14 -8.25074e-15 1.44435e-14 -5.29046e-14 3.09521e-14 -1.88928e-14 5.84569e-14 -2.55578e-14 1.36939e-14 -5.22047e-14 4.10947e-14 3.2958e-14 1.54339e-14 1.09903e-13 -7.81923e-14 5.6218e-14 -8.77598e-14 7.70312e-14 -6.32423e-14 -8.49016e-15 6.19494e-14 -5.6037e-14 -1.15604e-13 7.20758e-14 2.96593e-14 -5.48321e-14 4.68805e-14 3.89245e-15 -2.72232e-15 -6.46081e-14 6.90992e-14 -7.87563e-14 -3.42719e-14 1.77454e-14 4.74664e-14 7.20614e-15 -8.44458e-14 1.19493e-14 5.24654e-15 6.68546e-14 -1.5478e-14 -7.23761e-14 1.20486e-13 -3.281e-14 -7.7562e-14 4.84277e-14 -8.20254e-14 5.00591e-14 4.97806e-15 -8.38218e-14 5.42423e-14 -3.10461e-14 3.12634e-14 -1.406e-14 6.16776e-14 -9.94732e-14 0 0 0 5.95907e-16 1.03015e-15 -1.91607e-15 -8.39253e-16 -2.47267e-15 8.87432e-16 6.37639e-15 -6.20577e-15 -1.09204e-15 -1.49295e-15 7.94455e-15 -6.90627e-15 1.91454e-16 7.36353e-15 1.24079e-15 -1.04127e-14 -4.40123e-16 1.14125e-15 4.08582e-15 5.68615e-15 -3.82924e-15 3.96987e-15 -1.44139e-14 4.30621e-15 3.46778e-15 -9.2832e-15 5.25654e-15 1.07525e-14 -6.69146e-15 2.22141e-14 -2.29352e-14 1.8832e-15 3.43498e-15 -2.53904e-15 6.09957e-15 -1.91152e-14 2.26177e-14 -2.19596e-14 3.89254e-15 9.47343e-16 9.07561e-15 -3.31151e-16 -6.73016e-15 1.18334e-14 6.64812e-15 -2.281e-14 5.29279e-15 -4.15831e-15 1.14836e-14 1.84073e-14 -1.93899e-14 1.06401e-14 -6.47816e-15 1.15119e-14 -1.01814e-14 -2.84771e-14 4.4491e-14 -3.07885e-14 -5.0146e-15 -4.22804e-15 1.61456e-14 1.84002e-14 -6.90762e-15 1.40524e-14 3.07671e-15 -1.01075e-14 5.26222e-15 -1.47255e-14 2.53306e-14 3.98633e-14 -2.09702e-14 -9.70095e-15 1.24367e-14 4.3353e-14 -1.63681e-14 1.02992e-14 2.84013e-15 -4.05593e-14 6.52176e-15 2.08136e-14 -4.62564e-14 7.0792e-13 1.59423e-11 3.50999e-10 6.66608e-09 1.08461e-07 1.49208e-06 1.707e-05 0.000158973 0.00117163 0.00658885 0.0271989 0.0809196 0.178955 0.317452 0.489763 0.6936 0.910971 0.989343 0.927642 0.921604 0.91712 0.915474 0.915863 0.927506 0.920933 0.857534 0.902989 0.724268 0.628516 0.549501 0.369163 0.230176 0.114466 0.044892 0.014099 0.00383496 0.000955726 0.000223318 4.92776e-05 1.0292e-05 2.03678e-06 3.82266e-07 6.8099e-08 1.15248e-08 1.8544e-09 2.83839e-10 4.13624e-11 5.72052e-12 8.6304e-13 6.04241e-14 -2.02803e-14 -9.57588e-15 -2.13674e-15 -2.00871e-14 -6.74554e-15 1.4517e-14 -2.15235e-14 3.5362e-14 -3.47657e-14 4.90449e-14 -3.66209e-15 3.74917e-14 -7.16488e-14 3.21309e-14 4.22817e-14 -5.33614e-14 7.05055e-15 5.96875e-14 -8.28219e-15 3.24348e-14 -5.78708e-14 3.38432e-14 -6.81287e-15 6.22726e-14 -3.53335e-14 8.54125e-14 -4.18974e-15 -3.81444e-14 -4.4584e-14 5.08194e-14 -8.15928e-14 9.70945e-14 -1.25064e-13 5.46147e-14 -4.88163e-14 1.35033e-13 -4.76227e-14 -5.95898e-14 -3.4628e-14 3.22334e-14 -5.84347e-15 -4.62669e-14 1.28732e-14 -5.6443e-14 5.55165e-14 1.86941e-14 -6.58894e-15 -3.6144e-14 -2.19194e-14 1.27113e-14 3.76723e-14 2.0712e-14 -1.10746e-13 1.14436e-13 -9.92636e-14 5.76312e-15 4.20924e-14 -9.13946e-14 -1.40127e-14 3.79394e-14 -3.52451e-14 1.01013e-14 2.47175e-14 -9.88941e-16 -4.80985e-14 7.57589e-14 -4.89385e-14 -4.19963e-14 0 0 1.20103e-15 1.17936e-15 -8.83901e-18 -3.02527e-15 3.35902e-16 -4.90283e-16 1.19764e-15 -6.64068e-15 2.90449e-15 1.45251e-15 4.28993e-15 -2.03366e-15 -1.04208e-15 -2.70689e-15 1.00289e-14 4.16271e-15 -7.23579e-15 -3.80778e-15 -8.75071e-16 1.24948e-14 -7.36236e-15 -9.15056e-15 -1.98734e-15 1.16565e-14 -9.5151e-17 -1.43188e-14 5.11151e-15 8.10274e-15 2.05837e-14 -9.83069e-15 2.58126e-16 -2.46934e-14 2.05793e-14 6.81249e-15 -1.22781e-14 7.98474e-16 2.466e-15 -1.5013e-14 2.4218e-15 1.68743e-14 -9.69075e-15 -1.28821e-14 9.70406e-15 6.5705e-15 -1.19234e-14 2.19747e-14 -3.16908e-14 2.66408e-14 2.31063e-14 -1.0309e-14 8.33199e-15 -2.79391e-14 3.44159e-14 1.03717e-14 -3.3018e-15 -4.97914e-14 4.10022e-14 7.19563e-15 -4.67374e-14 1.36198e-14 2.66615e-14 -3.32967e-15 -2.19821e-14 2.57108e-14 -1.08534e-14 3.5288e-14 2.09403e-15 -3.28103e-14 8.13244e-15 5.46519e-14 -3.98147e-14 3.3544e-14 -8.50664e-15 2.60199e-14 -1.26309e-14 4.89958e-14 -2.02535e-14 -1.76915e-14 1.82487e-14 8.43483e-16 -2.3321e-14 6.57929e-13 1.60092e-11 3.51013e-10 6.66596e-09 1.08461e-07 1.49208e-06 1.707e-05 0.000158973 0.00117163 0.00658885 0.0271989 0.0809196 0.178955 0.317452 0.489763 0.6936 0.910971 0.989343 0.927642 0.921604 0.91712 0.915474 0.915863 0.927506 0.920933 0.857534 0.902989 0.724268 0.628516 0.549501 0.369163 0.230176 0.114466 0.044892 0.014099 0.00383496 0.000955726 0.000223318 4.92776e-05 1.0292e-05 2.03678e-06 3.82266e-07 6.8099e-08 1.15249e-08 1.85439e-09 2.83852e-10 4.14111e-11 5.73127e-12 8.72258e-13 5.95248e-14 -2.64646e-14 -4.81778e-14 5.35998e-14 -3.7193e-14 2.90622e-14 -3.03736e-14 -1.29332e-14 9.58994e-15 -4.4236e-14 2.78947e-14 8.72394e-14 -4.41117e-14 -5.37141e-14 8.22799e-14 1.78123e-14 -5.15941e-14 -6.00584e-14 1.3435e-13 -2.87026e-14 -2.91785e-14 -1.63687e-14 7.04928e-14 8.94342e-15 9.03213e-14 -3.48564e-14 -1.83346e-14 -2.12448e-14 3.87323e-14 5.2398e-14 -1.09329e-13 1.5365e-16 -9.49811e-14 -4.89765e-14 1.38104e-13 2.3423e-14 1.13115e-14 4.59386e-15 -2.86845e-14 -1.05686e-13 -8.09414e-14 1.36911e-14 4.4391e-14 2.33544e-15 -5.94769e-14 2.26316e-14 4.4072e-14 5.26507e-14 5.16545e-15 -5.40414e-14 3.18897e-14 -3.63736e-14 1.03307e-13 -8.65596e-14 4.96225e-15 -6.21277e-14 4.8805e-14 -2.74186e-14 -1.01788e-14 -7.70678e-14 7.93199e-15 4.12929e-14 -4.31373e-14 -1.045e-14 -5.98462e-14 5.19222e-14 -8.87894e-15 -2.71357e-14 -4.22968e-14 0 0 -2.97045e-16 -7.57352e-16 1.31853e-15 1.46808e-16 3.27297e-15 -3.39779e-15 -4.96109e-15 -3.6485e-15 1.44276e-15 5.45159e-15 -3.67905e-15 6.27139e-15 6.95817e-16 -7.25709e-16 -2.62444e-15 1.12337e-14 -7.98935e-15 3.08832e-15 -4.38297e-15 -4.56092e-15 7.54337e-15 -5.2026e-15 1.11485e-14 -1.11595e-14 -6.48284e-15 2.0066e-14 -1.81067e-14 1.26031e-14 1.28637e-14 -5.039e-15 -1.46823e-14 1.13881e-14 1.08164e-14 -2.57133e-14 7.7931e-15 2.47124e-15 6.27255e-16 -7.98378e-15 -2.30842e-15 1.66368e-14 -7.88003e-15 -8.26485e-16 2.23997e-15 -2.84806e-14 2.09832e-14 1.60173e-14 -8.8078e-15 1.64591e-14 -1.10368e-14 1.2678e-14 2.63655e-14 -2.24064e-14 2.02404e-14 -3.13816e-14 3.43266e-14 -2.36775e-14 2.49878e-14 1.59632e-15 -4.14133e-14 2.78226e-14 9.21209e-15 -6.08865e-15 -1.96736e-14 -6.61289e-15 3.90233e-14 3.5784e-14 -2.15439e-15 -4.38555e-14 5.56971e-14 2.75794e-14 -4.29191e-14 2.23907e-14 -2.06097e-14 4.6149e-14 -8.1011e-15 -1.28797e-14 1.5287e-14 6.64587e-15 4.85559e-14 -3.53327e-14 3.21125e-14 6.45542e-13 1.60092e-11 3.51e-10 6.66592e-09 1.08461e-07 1.49208e-06 1.707e-05 0.000158973 0.00117163 0.00658885 0.0271989 0.0809196 0.178955 0.317452 0.489763 0.6936 0.910971 0.989343 0.927642 0.921604 0.91712 0.915474 0.915863 0.927506 0.920933 0.857534 0.902989 0.724268 0.628516 0.549501 0.369163 0.230176 0.114466 0.044892 0.014099 0.00383496 0.000955726 0.000223318 4.92776e-05 1.0292e-05 2.03678e-06 3.82266e-07 6.8099e-08 1.15249e-08 1.85439e-09 2.8385e-10 4.15673e-11 5.66063e-12 7.79943e-13 3.66802e-14 1.02295e-14 -1.05356e-17 -4.06266e-14 4.80186e-14 5.07372e-14 -2.83699e-14 -6.30212e-14 1.70955e-14 4.12972e-14 1.139e-14 -1.98404e-14 -8.37402e-14 4.98401e-14 2.36369e-14 1.39406e-14 6.43113e-14 -1.56847e-13 2.69505e-14 7.1e-14 -2.99255e-14 -1.65835e-14 1.02929e-13 8.17737e-14 1.04115e-13 -3.26793e-14 -1.60419e-13 2.51677e-14 8.07187e-14 1.94171e-13 -2.86387e-13 1.04041e-13 -2.03254e-13 -1.91435e-14 1.08271e-13 4.17137e-14 -1.55168e-13 7.60892e-14 -7.93341e-15 -5.17439e-14 -6.08542e-14 3.56223e-15 1.31591e-13 -7.84268e-14 -6.44125e-14 -9.97423e-14 4.50809e-14 2.46677e-13 -1.22072e-13 6.50132e-14 -4.94906e-14 -7.79771e-14 1.98329e-13 1.34971e-14 6.12355e-16 1.43526e-14 -2.3549e-14 -1.42961e-13 -1.09267e-14 -4.01959e-14 2.28033e-14 -8.38008e-14 -4.79818e-14 -3.7862e-14 4.10911e-14 3.26238e-14 -1.16058e-13 6.12343e-14 -7.44254e-14 0 0 -1.6343e-15 -7.48132e-17 -1.38687e-16 1.43301e-15 4.72422e-15 1.68486e-15 -1.07435e-15 -5.47081e-15 -5.61333e-16 2.64986e-15 6.18279e-15 -2.45445e-15 -7.0178e-15 1.04264e-14 -1.22409e-14 7.43573e-15 7.89975e-15 -3.31696e-15 1.06587e-14 -4.61217e-15 -1.25331e-15 7.99494e-15 -1.05341e-14 -1.49157e-14 -3.23944e-15 1.93344e-14 -1.78464e-14 1.74611e-14 -6.11359e-15 1.9401e-14 -1.41991e-14 -6.39267e-15 7.80961e-15 -1.10953e-14 5.71098e-15 -1.90325e-14 2.11084e-14 -1.13868e-14 5.3571e-15 -5.33447e-15 2.20194e-14 1.52894e-14 1.52744e-14 -6.0096e-15 1.97638e-14 -1.83035e-15 1.33331e-14 -1.47116e-14 -1.86253e-14 3.80837e-15 -2.60494e-14 1.05797e-14 3.45512e-15 -5.50261e-14 2.81922e-14 3.21222e-14 -9.18751e-15 -1.94837e-14 1.56333e-16 -8.121e-15 3.28791e-14 -5.43145e-15 3.17835e-14 -3.34203e-14 3.20959e-14 8.00804e-15 2.32395e-14 -3.89643e-14 5.43189e-14 -7.67474e-15 -5.77898e-15 -2.28228e-14 6.81627e-15 6.65212e-14 -1.62836e-14 -1.14132e-14 7.93364e-15 5.05105e-14 2.15674e-14 -3.14559e-14 3.23312e-14 7.87731e-13 1.59221e-11 3.50921e-10 6.66602e-09 1.08461e-07 1.49208e-06 1.707e-05 0.000158973 0.00117163 0.00658885 0.0271989 0.0809196 0.178955 0.317452 0.489763 0.6936 0.910971 0.989343 0.927642 0.921604 0.91712 0.915474 0.915863 0.927506 0.920933 0.857534 0.902989 0.724268 0.628516 0.549501 0.369163 0.230176 0.114466 0.044892 0.014099 0.00383496 0.000955726 0.000223318 4.92776e-05 1.0292e-05 2.03678e-06 3.82266e-07 6.80991e-08 1.15248e-08 1.85437e-09 2.83919e-10 4.15983e-11 5.581e-12 8.13456e-13 -2.52119e-14 4.25033e-14 -3.54484e-14 7.66836e-15 4.27547e-15 4.19503e-14 3.84301e-14 -4.26348e-14 9.70685e-14 1.80619e-14 -4.16979e-14 -5.94925e-14 -3.77737e-14 7.66694e-15 5.27918e-14 4.05802e-14 3.49523e-14 -1.50101e-14 -9.27578e-14 1.91288e-14 1.6538e-14 2.69507e-14 4.37734e-15 1.0003e-13 1.20654e-13 -4.83564e-14 -3.67567e-14 1.03719e-15 8.1635e-14 1.95412e-13 -8.15546e-14 -2.26456e-13 1.44831e-13 -7.95658e-14 -7.80203e-14 -1.36953e-13 5.04784e-14 1.34833e-13 -6.81905e-14 -6.66785e-15 6.54234e-15 -1.5815e-15 1.62927e-14 -1.51137e-13 -9.03047e-14 -1.20755e-13 1.73281e-13 1.13556e-13 -7.24957e-14 4.96435e-14 -8.85186e-15 -7.44626e-14 1.34045e-13 -1.4931e-15 1.03082e-13 -2.88884e-14 -2.33771e-14 -1.03379e-13 -1.40585e-13 4.51817e-14 -1.65111e-14 -7.06339e-14 -7.48992e-14 -2.92279e-14 7.22854e-14 -4.90427e-16 -4.49333e-14 5.78545e-14 -1.10759e-13 0 0 -1.04062e-15 -2.21808e-16 2.09269e-15 -1.10621e-15 9.84508e-15 6.13092e-15 -7.74795e-15 2.94133e-17 -2.04614e-15 6.62969e-15 8.87665e-16 4.90449e-16 -1.25291e-14 1.389e-15 1.06271e-15 1.54613e-14 1.12925e-14 -1.15119e-14 1.58329e-14 9.36167e-15 -1.70969e-14 -2.32372e-17 -1.75442e-14 2.23126e-16 -9.67082e-16 1.31324e-15 -2.43128e-14 2.4881e-14 9.06078e-15 -1.25025e-14 4.36634e-14 -6.77322e-14 1.54093e-14 2.90382e-14 -2.6217e-14 -6.15911e-15 7.20316e-15 -5.57675e-15 1.19084e-14 -6.80633e-15 4.48369e-14 -1.92732e-14 7.08364e-14 2.98641e-14 -2.55806e-14 4.11772e-14 -3.52601e-14 8.21693e-15 -1.82621e-14 -3.08578e-14 -4.93858e-14 -5.20303e-14 7.73123e-14 -4.73508e-14 -4.30982e-15 3.90923e-14 -3.8059e-14 2.38061e-14 -4.33918e-14 6.30362e-15 4.56302e-14 -1.37704e-14 8.56582e-14 -3.02982e-14 -3.90386e-14 2.46215e-14 2.19871e-14 -1.83508e-14 -7.33668e-16 -2.2649e-14 5.76765e-14 -5.38681e-14 5.09232e-14 2.0221e-14 -3.69069e-14 9.74593e-14 -5.47893e-14 9.51758e-14 -1.9e-14 -3.798e-14 4.28082e-14 8.24742e-13 1.59827e-11 3.50851e-10 6.66602e-09 1.08461e-07 1.49208e-06 1.707e-05 0.000158973 0.00117163 0.00658885 0.0271989 0.0809196 0.178955 0.317452 0.489763 0.6936 0.910971 0.989343 0.927642 0.921604 0.91712 0.915474 0.915863 0.927506 0.920933 0.857534 0.902989 0.724268 0.628516 0.549501 0.369163 0.230176 0.114466 0.044892 0.014099 0.00383496 0.000955726 0.000223318 4.92776e-05 1.0292e-05 2.03678e-06 3.82266e-07 6.80991e-08 1.15246e-08 1.85436e-09 2.84008e-10 4.15092e-11 5.63727e-12 7.98845e-13 3.43545e-14 6.17928e-15 -7.68644e-14 1.18192e-13 -7.11469e-14 -1.1211e-14 9.60904e-14 -1.06468e-14 1.92015e-13 -1.29632e-13 -7.89693e-14 1.69879e-14 1.09549e-14 -5.68858e-14 1.72835e-13 -4.86631e-14 -2.41918e-14 1.30597e-13 -3.16218e-14 -1.70317e-13 -1.69262e-14 1.1767e-13 -8.27474e-14 1.00964e-13 1.04494e-13 7.93253e-14 -3.84131e-14 -2.6072e-14 6.78262e-14 2.73252e-13 2.59827e-14 -5.05833e-13 3.7408e-13 -2.47502e-14 -3.20927e-13 -1.40251e-13 1.93888e-13 1.67478e-13 -1.18086e-14 -4.82221e-14 -9.41547e-14 -3.57033e-14 1.97053e-14 -2.45113e-13 -9.15986e-14 -8.96288e-14 3.54637e-13 -1.40618e-13 9.74888e-14 -8.30413e-14 1.24776e-13 -7.44746e-14 2.09279e-14 -5.3987e-14 1.06413e-13 -4.49226e-14 8.94075e-15 -1.16983e-14 -1.79452e-13 9.42855e-14 -1.33485e-13 9.5787e-14 -1.05976e-13 -8.41539e-14 -2.44874e-14 1.19695e-13 3.49256e-14 -6.2817e-14 -7.36428e-14 0
				</DataArray>
				<DataArray Name="VitesseY" type="Float32" format="ascii">