<?xml version="1.0"?>
<VTKFile type="PolyData">
	<PolyData>
		<Piece NumberOfPoints="1206" NumberOfPolys="1000">
			<Points>
				<DataArray type="Float32" NumberOfComponents="3" format="ascii">
 0 0 0 0.005 0 0 0.01 0 0 0.015 0 0 0.02 0 0 0.025 0 0 0.03 0 0 0.035 0 0 0.04 0 0 0.045 0 0 0.05 0 0 0.055 0 0 0.06 0 0 0.065 0 0 0.07 0 0 0.075 0 0 0.08 0 0 0.085 0 0 0.09 0 0 0.095 0 0 0.1 0 0 0.105 0 0 0.11 0 0 0.115 0 0 0.12 0 0 0.125 0 0 0.13 0 0 0.135 0 0 0.14 0 0 0.145 0 0 0.15 0 0 0.155 0 0 0.16 0 0 0.165 0 0 0.17 0 0 0.175 0 0 0.18 0 0 0.185 0 0 0.19 0 0 0.195 0 0 0.2 0 0 0.205 0 0 0.21 0 0 0.215 0 0 0.22 0 0 0.225 0 0 0.23 0 0 0.235 0 0 0.24 0 0 0.245 0 0 0.25 0 0 0.255 0 0 0.26 0 0 0.265 0 0 0.27 0 0 0.275 0 0 0.28 0 0 0.285 0 0 0.29 0 0 0.295 0 0 0.3 0 0 0.305 0 0 0.31 0 0 0.315 0 0 0.32 0 0 0.325 0 0 0.33 0 0 0.335 0 0 0.34 0 0 0.345 0 0 0.35 0 0 0.355 0 0 0.36 0 0 0.365 0 0 0.37 0 0 0.375 0 0 0.38 0 0 0.385 0 0 0.39 0 0 0.395 0 0 0.4 0 0 0.405 0 0 0.41 0 0 0.415 0 0 0.42 0 0 0.425 0 0 0.43 0 0 0.435002 0 0 0.440009 0 0 0.445043 0 0 0.45016 0 0 0.455468 0 0 0.461116 0 0 0.467264 0 0 0.474086 0 0 0.481798 0 0 0.490693 0 0 0.501152 0 0 0.513308 0 0 0.525764 0 0 0.537783 0 0 0.540422 0 0 0.542986 0 0 0.545504 0 0 0.547992 0 0 0.55046 0 0 0.552912 0 0 0.555356 0 0 0.557802 0 0 0.560274 0 0 0.562788 0 0 0.565362 0 0 0.568075 0 0 0.570969 0 0 0.574138 0 0 0.577631 0 0 0.5815 0 0 0.585745 0 0 0.590314 0 0 0.595112 0 0 0.600035 0 0 0.60501 0 0 0.610003 0 0 0.615001 0 0 0.62 0 0 0.625 0 0 0.63 0 0 0.635 0 0 0.64 0 0 0.645 0 0 0.65 0 0 0.655 0 0 0.66 0 0 0.665 0 0 0.67 0 0 0.675 0 0 0.68 0 0 0.685 0 0 0.69 0 0 0.695 0 0 0.7 0 0 0.705 0 0 0.71 0 0 0.715 0 0 0.72 0 0 0.725 0 0 0.73 0 0 0.735 0 0 0.74 0 0 0.745 0 0 0.75 0 0 0.755 0 0 0.76 0 0 0.765 0 0 0.77 0 0 0.775 0 0 0.78 0 0 0.785 0 0 0.79 0 0 0.795 0 0 0.8 0 0 0.805 0 0 0.81 0 0 0.815 0 0 0.82 0 0 0.825 0 0 0.83 0 0 0.835 0 0 0.84 0 0 0.845 0 0 0.85 0 0 0.855 0 0 0.86 0 0 0.865 0 0 0.87 0 0 0.875 0 0 0.88 0 0 0.885 0 0 0.89 0 0 0.895 0 0 0.9 0 0 0.905 0 0 0.91 0 0 0.915 0 0 0.92 0 0 0.925 0 0 0.93 0 0 0.935 0 0 0.94 0 0 0.945 0 0 0.95 0 0 0.955 0 0 0.96 0 0 0.965 0 0 0.97 0 0 0.975 0 0 0.98 0 0 0.985 0 0 0.99 0 0 0.995 0 0 1 0 0 0 0.02 0 0.005 0.02 0 0.01 0.02 0 0.015 0.02 0 0.02 0.02 0 0.025 0.02 0 0.03 0.02 0 0.035 0.02 0 0.04 0.02 0 0.045 0.02 0 0.05 0.02 0 0.055 0.02 0 0.06 0.02 0 0.065 0.02 0 0.07 0.02 0 0.075 0.02 0 0.08 0.02 0 0.085 0.02 0 0.09 0.02 0 0.095 0.02 0 0.1 0.02 0 0.105 0.02 0 0.11 0.02 0 0.115 0.02 0 0.12 0.02 0 0.125 0.02 0 0.13 0.02 0 0.135 0.02 0 0.14 0.02 0 0.145 0.02 0 0.15 0.02 0 0.155 0.02 0 0.16 0.02 0 0.165 0.02 0 0.17 0.02 0 0.175 0.02 0 0.18 0.02 0 0.185 0.02 0 0.19 0.02 0 0.195 0.02 0 0.2 0.02 0 0.205 0.02 0 0.21 0.02 0 0.215 0.02 0 0.22 0.02 0 0.225 0.02 0 0.23 0.02 0 0.235 0.02 0 0.24 0.02 0 0.245 0.02 0 0.25 0.02 0 0.255 0.02 0 0.26 0.02 0 0.265 0.02 0 0.27 0.02 0 0.275 0.02 0 0.28 0.02 0 0.285 0.02 0 0.29 0.02 0 0.295 0.02 0 0.3 0.02 0 0.305 0.02 0 0.31 0.02 0 0.315 0.02 0 0.32 0.02 0 0.325 0.02 0 0.33 0.02 0 0.335 0.02 0 0.34 0.02 0 0.345 0.02 0 0.35 0.02 0 0.355 0.02 0 0.36 0.02 0 0.365 0.02 0 0.37 0.02 0 0.375 0.02 0 0.38 0.02 0 0.385 0.02 0 0.39 0.02 0 0.395 0.02 0 0.4 0.02 0 0.405 0.02 0 0.41 0.02 0 0.415 0.02 0 0.42 0.02 0 0.425 0.02 0 0.43 0.02 0 0.435002 0.02 0 0.440009 0.02 0 0.445043 0.02 0 0.45016 0.02 0 0.455468 0.02 0 0.461116 0.02 0 0.467264 0.02 0 0.474086 0.02 0 0.481798 0.02 0 0.490693 0.02 0 0.501152 0.02 0 0.513308 0.02 0 0.525764 0.02 0 0.537783 0.02 0 0.540422 0.02 0 0.542986 0.02 0 0.545504 0.02 0 0.547992 0.02 0 0.55046 0.02 0 0.552912 0.02 0 0.555356 0.02 0 0.557802 0.02 0 0.560274 0.02 0 0.562788 0.02 0 0.565362 0.02 0 0.568075 0.02 0 0.570969 0.02 0 0.574138 0.02 0 0.577631 0.02 0 0.5815 0.02 0 0.585745 0.02 0 0.590314 0.02 0 0.595112 0.02 0 0.600035 0.02 0 0.60501 0.02 0 0.610003 0.02 0 0.615001 0.02 0 0.62 0.02 0 0.625 0.02 0 0.63 0.02 0 0.635 0.02 0 0.64 0.02 0 0.645 0.02 0 0.65 0.02 0 0.655 0.02 0 0.66 0.02 0 0.665 0.02 0 0.67 0.02 0 0.675 0.02 0 0.68 0.02 0 0.685 0.02 0 0.69 0.02 0 0.695 0.02 0 0.7 0.02 0 0.705 0.02 0 0.71 0.02 0 0.715 0.02 0 0.72 0.02 0 0.725 0.02 0 0.73 0.02 0 0.735 0.02 0 0.74 0.02 0 0.745 0.02 0 0.75 0.02 0 0.755 0.02 0 0.76 0.02 0 0.765 0.02 0 0.77 0.02 0 0.775 0.02 0 0.78 0.02 0 0.785 0.02 0 0.79 0.02 0 0.795 0.02 0 0.8 0.02 0 0.805 0.02 0 0.81 0.02 0 0.815 0.02 0 0.82 0.02 0 0.825 0.02 0 0.83 0.02 0 0.835 0.02 0 0.84 0.02 0 0.845 0.02 0 0.85 0.02 0 0.855 0.02 0 0.86 0.02 0 0.865 0.02 0 0.87 0.02 0 0.875 0.02 0 0.88 0.02 0 0.885 0.02 0 0.89 0.02 0 0.895 0.02 0 0.9 0.02 0 0.905 0.02 0 0.91 0.02 0 0.915 0.02 0 0.92 0.02 0 0.925 0.02 0 0.93 0.02 0 0.935 0.02 0 0.94 0.02 0 0.945 0.02 0 0.95 0.02 0 0.955 0.02 0 0.96 0.02 0 0.965 0.02 0 0.97 0.02 0 0.975 0.02 0 0.98 0.02 0 0.985 0.02 0 0.99 0.02 0 0.995 0.02 0 1 0.02 0 0 0.04 0 0.005 0.04 0 0.01 0.04 0 0.015 0.04 0 0.02 0.04 0 0.025 0.04 0 0.03 0.04 0 0.035 0.04 0 0.04 0.04 0 0.045 0.04 0 0.05 0.04 0 0.055 0.04 0 0.06 0.04 0 0.065 0.04 0 0.07 0.04 0 0.075 0.04 0 0.08 0.04 0 0.085 0.04 0 0.09 0.04 0 0.095 0.04 0 0.1 0.04 0 0.105 0.04 0 0.11 0.04 0 0.115 0.04 0 0.12 0.04 0 0.125 0.04 0 0.13 0.04 0 0.135 0.04 0 0.14 0.04 0 0.145 0.04 0 0.15 0.04 0 0.155 0.04 0 0.16 0.04 0 0.165 0.04 0 0.17 0.04 0 0.175 0.04 0 0.18 0.04 0 0.185 0.04 0 0.19 0.04 0 0.195 0.04 0 0.2 0.04 0 0.205 0.04 0 0.21 0.04 0 0.215 0.04 0 0.22 0.04 0 0.225 0.04 0 0.23 0.04 0 0.235 0.04 0 0.24 0.04 0 0.245 0.04 0 0.25 0.04 0 0.255 0.04 0 0.26 0.04 0 0.265 0.04 0 0.27 0.04 0 0.275 0.04 0 0.28 0.04 0 0.285 0.04 0 0.29 0.04 0 0.295 0.04 0 0.3 0.04 0 0.305 0.04 0 0.31 0.04 0 0.315 0.04 0 0.32 0.04 0 0.325 0.04 0 0.33 0.04 0 0.335 0.04 0 0.34 0.04 0 0.345 0.04 0 0.35 0.04 0 0.355 0.04 0 0.36 0.04 0 0.365 0.04 0 0.37 0.04 0 0.375 0.04 0 0.38 0.04 0 0.385 0.04 0 0.39 0.04 0 0.395 0.04 0 0.4 0.04 0 0.405 0.04 0 0.41 0.04 0 0.415 0.04 0 0.42 0.04 0 0.425 0.04 0 0.43 0.04 0 0.435002 0.04 0 0.440009 0.04 0 0.445043 0.04 0 0.45016 0.04 0 0.455468 0.04 0 0.461116 0.04 0 0.467264 0.04 0 0.474086 0.04 0 0.481798 0.04 0 0.490693 0.04 0 0.501152 0.04 0 0.513308 0.04 0 0.525764 0.04 0 0.537783 0.04 0 0.540422 0.04 0 0.542986 0.04 0 0.545504 0.04 0 0.547992 0.04 0 0.55046 0.04 0 0.552912 0.04 0 0.555356 0.04 0 0.557802 0.04 0 0.560274 0.04 0 0.562788 0.04 0 0.565362 0.04 0 0.568075 0.04 0 0.570969 0.04 0 0.574138 0.04 0 0.577631 0.04 0 0.5815 0.04 0 0.585745 0.04 0 0.590314 0.04 0 0.595112 0.04 0 0.600035 0.04 0 0.60501 0.04 0 0.610003 0.04 0 0.615001 0.04 0 0.62 0.04 0 0.625 0.04 0 0.63 0.04 0 0.635 0.04 0 0.64 0.04 0 0.645 0.04 0 0.65 0.04 0 0.655 0.04 0 0.66 0.04 0 0.665 0.04 0 0.67 0.04 0 0.675 0.04 0 0.68 0.04 0 0.685 0.04 0 0.69 0.04 0 0.695 0.04 0 0.7 0.04 0 0.705 0.04 0 0.71 0.04 0 0.715 0.04 0 0.72 0.04 0 0.725 0.04 0 0.73 0.04 0 0.735 0.04 0 0.74 0.04 0 0.745 0.04 0 0.75 0.04 0 0.755 0.04 0 0.76 0.04 0 0.765 0.04 0 0.77 0.04 0 0.775 0.04 0 0.78 0.04 0 0.785 0.04 0 0.79 0.04 0 0.795 0.04 0 0.8 0.04 0 0.805 0.04 0 0.81 0.04 0 0.815 0.04 0 0.82 0.04 0 0.825 0.04 0 0.83 0.04 0 0.835 0.04 0 0.84 0.04 0 0.845 0.04 0 0.85 0.04 0 0.855 0.04 0 0.86 0.04 0 0.865 0.04 0 0.87 0.04 0 0.875 0.04 0 0.88 0.04 0 0.885 0.04 0 0.89 0.04 0 0.895 0.04 0 0.9 0.04 0 0.905 0.04 0 0.91 0.04 0 0.915 0.04 0 0.92 0.04 0 0.925 0.04 0 0.93 0.04 0 0.935 0.04 0 0.94 0.04 0 0.945 0.04 0 0.95 0.04 0 0.955 0.04 0 0.96 0.04 0 0.965 0.04 0 0.97 0.04 0 0.975 0.04 0 0.98 0.04 0 0.985 0.04 0 0.99 0.04 0 0.995 0.04 0 1 0.04 0 0 0.06 0 0.005 0.06 0 0.01 0.06 0 0.015 0.06 0 0.02 0.06 0 0.025 0.06 0 0.03 0.06 0 0.035 0.06 0 0.04 0.06 0 0.045 0.06 0 0.05 0.06 0 0.055 0.06 0 0.06 0.06 0 0.065 0.06 0 0.07 0.06 0 0.075 0.06 0 0.08 0.06 0 0.085 0.06 0 0.09 0.06 0 0.095 0.06 0 0.1 0.06 0 0.105 0.06 0 0.11 0.06 0 0.115 0.06 0 0.12 0.06 0 0.125 0.06 0 0.13 0.06 0 0.135 0.06 0 0.14 0.06 0 0.145 0.06 0 0.15 0.06 0 0.155 0.06 0 0.16 0.06 0 0.165 0.06 0 0.17 0.06 0 0.175 0.06 0 0.18 0.06 0 0.185 0.06 0 0.19 0.06 0 0.195 0.06 0 0.2 0.06 0 0.205 0.06 0 0.21 0.06 0 0.215 0.06 0 0.22 0.06 0 0.225 0.06 0 0.23 0.06 0 0.235 0.06 0 0.24 0.06 0 0.245 0.06 0 0.25 0.06 0 0.255 0.06 0 0.26 0.06 0 0.265 0.06 0 0.27 0.06 0 0.275 0.06 0 0.28 0.06 0 0.285 0.06 0 0.29 0.06 0 0.295 0.06 0 0.3 0.06 0 0.305 0.06 0 0.31 0.06 0 0.315 0.06 0 0.32 0.06 0 0.325 0.06 0 0.33 0.06 0 0.335 0.06 0 0.34 0.06 0 0.345 0.06 0 0.35 0.06 0 0.355 0.06 0 0.36 0.06 0 0.365 0.06 0 0.37 0.06 0 0.375 0.06 0 0.38 0.06 0 0.385 0.06 0 0.39 0.06 0 0.395 0.06 0 0.4 0.06 0 0.405 0.06 0 0.41 0.06 0 0.415 0.06 0 0.42 0.06 0 0.425 0.06 0 0.43 0.06 0 0.435002 0.06 0 0.440009 0.06 0 0.445043 0.06 0 0.45016 0.06 0 0.455468 0.06 0 0.461116 0.06 0 0.467264 0.06 0 0.474086 0.06 0 0.481798 0.06 0 0.490693 0.06 0 0.501152 0.06 0 0.513308 0.06 0 0.525764 0.06 0 0.537783 0.06 0 0.540422 0.06 0 0.542986 0.06 0 0.545504 0.06 0 0.547992 0.06 0 0.55046 0.06 0 0.552912 0.06 0 0.555356 0.06 0 0.557802 0.06 0 0.560274 0.06 0 0.562788 0.06 0 0.565362 0.06 0 0.568075 0.06 0 0.570969 0.06 0 0.574138 0.06 0 0.577631 0.06 0 0.5815 0.06 0 0.585745 0.06 0 0.590314 0.06 0 0.595112 0.06 0 0.600035 0.06 0 0.60501 0.06 0 0.610003 0.06 0 0.615001 0.06 0 0.62 0.06 0 0.625 0.06 0 0.63 0.06 0 0.635 0.06 0 0.64 0.06 0 0.645 0.06 0 0.65 0.06 0 0.655 0.06 0 0.66 0.06 0 0.665 0.06 0 0.67 0.06 0 0.675 0.06 0 0.68 0.06 0 0.685 0.06 0 0.69 0.06 0 0.695 0.06 0 0.7 0.06 0 0.705 0.06 0 0.71 0.06 0 0.715 0.06 0 0.72 0.06 0 0.725 0.06 0 0.73 0.06 0 0.735 0.06 0 0.74 0.06 0 0.745 0.06 0 0.75 0.06 0 0.755 0.06 0 0.76 0.06 0 0.765 0.06 0 0.77 0.06 0 0.775 0.06 0 0.78 0.06 0 0.785 0.06 0 0.79 0.06 0 0.795 0.06 0 0.8 0.06 0 0.805 0.06 0 0.81 0.06 0 0.815 0.06 0 0.82 0.06 0 0.825 0.06 0 0.83 0.06 0 0.835 0.06 0 0.84 0.06 0 0.845 0.06 0 0.85 0.06 0 0.855 0.06 0 0.86 0.06 0 0.865 0.06 0 0.87 0.06 0 0.875 0.06 0 0.88 0.06 0 0.885 0.06 0 0.89 0.06 0 0.895 0.06 0 0.9 0.06 0 0.905 0.06 0 0.91 0.06 0 0.915 0.06 0 0.92 0.06 0 0.925 0.06 0 0.93 0.06 0 0.935 0.06 0 0.94 0.06 0 0.945 0.06 0 0.95 0.06 0 0.955 0.06 0 0.96 0.06 0 0.965 0.06 0 
[...]
			<PointData Scalars="VitesseX">
				<DataArray Name="VitesseX" type="Float32" format="ascii">
 0 -7.94509e-16 1.72618e-15 2.08847e-15 -2.15982e-15 2.04848e-15 -2.53181e-15 -3.51257e-15 5.306e-15 -9.02965e-15 -3.91728e-15 2.82832e-15 2.80107e-15 3.78856e-15 1.20254e-14 -3.50211e-15 -1.07895e-14 -2.19852e-15 9.39064e-15 -1.11918e-14 9.03846e-16 1.11749e-14 -8.13092e-15 8.93138e-15 -3.17917e-15 -1.42211e-14 2.46013e-14 -1.70917e-14 4.74045e-15 9.56424e-15 -2.42974e-14 2.72882e-14 -7.38291e-15 -2.49153e-15 9.40832e-15 -2.51621e-14 2.56153e-14 -2.4334e-14 7.89589e-15 3.11323e-15 1.75681e-15 -9.05455e-15 2.19385e-14 -1.62562e-14 1.41987e-14 -2.3594e-14 2.7025e-14 -1.81191e-14 1.40127e-14 -2.6057e-14 4.87313e-14 2.31762e-15 -4.20001e-14 4.39867e-14 -4.67126e-14 2.93383e-14 6.10591e-15 -3.80039e-14 1.78171e-14 -2.31257e-14 1.74995e-14 1.66121e-14 2.34704e-14 -1.23294e-14 4.51776e-15 9.24757e-15 2.8451e-14 -3.63248e-14 2.34224e-14 2.25957e-14 -4.63848e-14 6.12287e-14 -2.63098e-14 4.05632e-14 6.18313e-15 -2.25271e-14 5.85202e-15 1.98877e-14 1.51206e-13 2.8288e-12 5.25054e-11 8.39809e-10 1.18752e-08 1.46896e-07 1.57308e-06 1.43973e-05 0.000110804 0.000702272 0.00356949 0.0141235 0.0425838 0.0985144 0.182748 0.289706 0.415282 0.558901 0.720486 0.889619 0.99183 0.947517 0.932162 0.929912 0.926968 0.923329 0.919361 0.915214 0.913592 0.912771 0.913229 0.898432 0.892324 0.835145 0.800785 0.69886 0.602994 0.468488 0.332601 0.203604 0.103662 0.0426741 0.0146249 0.00445 0.00126069 0.000339447 8.74349e-05 2.15772e-05 5.10212e-06 1.15586e-06 2.50879e-07 5.2178e-08 1.04012e-08 1.98792e-09 3.64413e-10 6.41119e-11 1.08602e-11 1.73368e-12 2.50427e-13 6.01137e-14 -6.77794e-14 2.79841e-14 3.40616e-14 1.66935e-14 -3.43577e-14 1.05917e-15 6.05106e-15 1.22569e-14 -8.69652e-14 5.98277e-14 2.45384e-15 9.00564e-14 -1.36118e-14 -3.50616e-15 -1.08724e-14 4.42009e-14 5.59696e-14 1.07363e-14 -4.76372e-14 -1.98658e-15 1.42427e-14 5.31087e-14 -1.55662e-14 3.41672e-14 4.19733e-14 -9.69746e-14 9.72192e-14 -4.58542e-14 -6.17031e-14 -1.06396e-13 1.6332e-14 1.06088e-13 -1.17584e-13 4.06381e-14 3.19553e-14 -2.434e-14 -8.08156e-14 8.96619e-14 -8.96141e-14 8.95055e-14 -8.54132e-14 6.06141e-14 -1.5692e-14 3.80079e-14 -1.39165e-14 -5.52211e-14 4.44892e-14 -5.26358e-14 -7.01289e-15 -2.92323e-14 -2.99132e-14 -5.33657e-14 2.39434e-14 -2.95424e-14 -1.08858e-14 -6.50302e-14 8.12541e-14 -2.07071e-14 -2.48861e-14 9.34368e-14 -6.32619e-14 -5.71444e-14 0 0 -4.40737e-16 1.00175e-16 -1.27066e-15 -7.44551e-16 -2.73151e-15 3.32435e-15 9.64212e-16 1.26832e-15 -6.00677e-15 6.51641e-16 -4.358e-16 -4.10497e-15 1.02267e-14 4.95386e-15 -3.4142e-15 -3.05683e-15 -8.54048e-15 5.52334e-15 -2.6523e-15 7.64353e-16 1.23628e-14 -2.68713e-15 -2.2063e-15 -9.10147e-15 -1.21341e-14 2.53484e-14 -2.4849e-15 1.4155e-14 -1.86212e-14 2.4366e-14 -2.36985e-14 1.23703e-14 -1.2553e-16 -1.5104e-14 2.12817e-14 -1.99983e-14 9.51301e-15 -2.30346e-14 1.53192e-14 -1.68167e-14 1.21476e-14 2.39732e-15 -1.6241e-15 9.03762e-15 -6.62638e-15 8.78171e-15 9.76713e-15 -2.51594e-14 -3.27888e-16 3.34168e-14 -1.61723e-14 4.84297e-14 -3.88562e-14 -9.0477e-15 4.27503e-14 -7.58407e-16 -1.46391e-14 -4.01359e-14 2.88298e-14 -1.57071e-14 3.53835e-14 -2.06518e-14 4.34545e-15 1.37464e-14 1.98191e-14 -3.69105e-15 1.63692e-14 -1.69044e-14 4.37406e-14 3.84473e-15 -4.41834e-14 2.30423e-14 -5.79939e-17 3.11629e-14 2.73332e-15 -2.74299e-15 1.58436e-14 1.62502e-13 2.85175e-12 5.24638e-11 8.39839e-10 1.18752e-08 1.46895e-07 1.57308e-06 1.43973e-05 0.000110804 0.000702272 0.00356949 0.0141235 0.0425838 0.0985144 0.182748 0.289706 0.415282 0.558901 0.720486 0.889619 0.99183 0.947517 0.932162 0.929912 0.926968 0.923329 0.919361 0.915214 0.913592 0.912771 0.913229 0.898432 0.892324 0.835145 0.800785 0.69886 0.602994 0.468488 0.332601 0.203604 0.103662 0.0426741 0.0146249 0.00445 0.00126069 0.000339447 8.74349e-05 2.15772e-05 5.10212e-06 1.15586e-06 2.50879e-07 5.2178e-08 1.04012e-08 1.98795e-09 3.64426e-10 6.41196e-11 1.07804e-11 1.8094e-12 2.43308e-13 -1.18989e-14 -4.50474e-15 -5.44313e-16 2.32223e-14 4.42415e-14 -2.94283e-14 1.72284e-14 5.547e-14 -8.3477e-14 4.15072e-14 -4.5948e-14 1.26898e-13 -8.09544e-14 3.44744e-14 4.99143e-14 -1.50923e-14 3.6263e-14 7.77318e-14 -7.2093e-14 -4.35503e-14 1.22775e-14 5.08898e-14 6.53995e-14 2.1511e-14 -6.3651e-14 6.1056e-15 -2.07724e-14 -8.49326e-15 4.36628e-14 -8.04341e-14 -7.74672e-14 7.40834e-14 -2.35135e-14 8.78685e-16 -3.78149e-14 2.43973e-14 -4.86865e-14 -4.45556e-14 5.30771e-14 -7.10409e-14 9.62681e-14 -5.58994e-14 -1.39056e-14 7.58213e-14 8.53266e-14 -5.96978e-14 -8.32748e-14 7.12346e-14 -5.26999e-14 2.2827e-14 -9.97493e-14 -3.24188e-14 -2.00616e-14 2.94065e-14 -5.62833e-14 -3.88583e-14 -2.18554e-14 -2.37814e-15 5.62885e-14 -1.95259e-14 -5.70125e-14 8.04539e-14 -9.59116e-14 0 0 -6.04834e-16 -9.85721e-16 -1.0657e-15 -2.19958e-15 -1.23488e-16 -7.18583e-17 1.53933e-15 -2.09315e-15 -2.01313e-15 6.70325e-15 2.20329e-16 -4.46695e-15 1.06461e-14 -9.23759e-15 1.10335e-14 3.1248e-15 -4.46907e-15 -9.15448e-15 1.16211e-14 6.25829e-16 -3.01188e-15 -6.44614e-15 -6.55673e-15 -1.35707e-15 -7.35714e-16 3.05255e-15 1.55712e-14 2.20557e-14 -1.40864e-14 1.82178e-14 -2.32986e-14 -4.4214e-15 -8.36136e-15 1.67411e-14 9.14142e-15 -2.45151e-14 1.33162e-14 -1.13906e-14 -2.40304e-15 -1.27073e-14 -2.26503e-15 1.24239e-14 -1.0409e-14 1.14005e-14 -1.00246e-15 -1.85752e-14 2.32144e-14 2.14778e-14 -1.63921e-14 3.35028e-14 4.57662e-15 2.94297e-14 -3.12856e-14 2.05804e-15 2.07759e-14 3.14631e-15 -2.9959e-14 1.60352e-14 -1.29308e-14 1.73616e-14 -3.04114e-14 -9.74396e-15 4.10111e-15 4.69526e-14 1.1704e-14 5.08017e-16 7.24099e-14 -4.48501e-14 3.77983e-14 -3.86709e-14 -4.71929e-14 3.6693e-14 -1.77771e-14 1.44538e-14 4.13672e-14 5.57459e-14 -1.2693e-14 1.71873e-13 2.8459e-12 5.24187e-11 8.39832e-10 1.18753e-08 1.46895e-07 1.57308e-06 1.43973e-05 0.000110804 0.000702272 0.00356949 0.0141235 0.0425838 0.0985144 0.182748 0.289706 0.415282 0.558901 0.720486 0.889619 0.99183 0.947517 0.932162 0.929912 0.926968 0.923329 0.919361 0.915214 0.913592 0.912771 0.913229 0.898432 0.892324 0.835145 0.800785 0.69886 0.602994 0.468488 0.332601 0.203604 0.103662 0.0426741 0.0146249 0.00445 0.00126069 0.000339447 8.74349e-05 2.15772e-05 5.10212e-06 1.15586e-06 2.50879e-07 5.21779e-08 1.04013e-08 1.98798e-09 3.64425e-10 6.40851e-11 1.08331e-11 1.86041e-12 1.89158e-13 -6.05109e-14 5.28322e-14 -2.94697e-14 4.59338e-14 -4.52999e-15 -1.38297e-14 3.63718e-14 1.00924e-13 -9.26156e-14 5.85803e-14 -7.47864e-14 9.21005e-14 -1.56599e-13 4.85639e-14 1.48072e-13 7.73311e-14 8.88116e-15 -5.83792e-14 -6.79375e-14 -5.22061e-14 3.83282e-14 1.5248e-15 1.29384e-13 -3.07957e-14 2.24497e-14 -1.40348e-13 -4.52808e-14 2.66066e-14 -3.31559e-14 -1.82852e-14 1.11597e-13 2.46288e-14 -3.43128e-14 2.96501e-14 -5.23035e-14 -3.9969e-14 2.71355e-15 -4.91655e-14 -3.35346e-14 -4.81707e-14 1.23552e-13 1.49992e-14 -5.10527e-14 -3.42849e-14 1.05064e-13 4.65614e-14 -2.21712e-14 5.43475e-14 -3.03075e-14 -4.74069e-14 -1.2369e-13 -1.98045e-15 8.00922e-15 -4.40928e-14 -3.16374e-14 1.89844e-14 -9.28631e-14 -6.94938e-14 9.77887e-14 -8.85986e-14 -1.13102e-14 -2.28229e-14 6.03318e-15 0 0 1.78504e-16 -1.21185e-15 2.36911e-15 -2.50113e-15 -6.11276e-16 -3.34024e-15 -3.22003e-15 4.27808e-15 4.28947e-15 -4.12469e-15 -2.81841e-15 2.16255e-15 1.06304e-14 -1.09089e-14 9.15216e-15 6.96057e-15 -6.80898e-15 7.75875e-15 1.2561e-15 1.18406e-15 -8.994e-15 -1.29916e-14 -8.34145e-15 6.8312e-15 4.65793e-15 9.72132e-15 -4.83359e-15 1.98327e-14 1.24751e-14 -1.49909e-14 -2.02689e-15 -2.11196e-14 7.14639e-15 3.3998e-14 -2.46814e-14 -1.01335e-15 -9.60663e-15 2.97429e-14 -6.61798e-15 -1.32105e-14 -3.74473e-15 1.60518e-15 1.71067e-14 1.46942e-14 -2.23537e-14 1.71852e-14 1.22113e-15 3.77801e-14 -2.40923e-14 5.73011e-15 8.37674e-15 2.40395e-14 -1.67827e-14 2.99633e-14 -4.97776e-14 2.13024e-14 -2.11278e-14 2.19174e-14 -4.10054e-14 2.46542e-14 -2.67733e-14 -2.74782e-14 2.59272e-14 4.26413e-14 1.02591e-14 4.40909e-14 2.78053e-14 1.23753e-14 -1.91776e-14 -4.48441e-14 -1.62414e-14 3.49548e-14 4.20507e-14 -3.20326e-14 8.31994e-14 1.69528e-14 5.96059e-14 1.80529e-13 2.77888e-12 5.2392e-11 8.39838e-10 1.18752e-08 1.46895e-07 1.57308e-06 1.43973e-05 0.000110804 0.000702272 0.00356949 0.0141235 0.0425838 0.0985144 0.182748 0.289706 0.415282 0.558901 0.720486 0.889619 0.99183 0.947517 0.932162 0.929912 0.926968 0.923329 0.919361 0.915214 0.913592 0.912771 0.913229 0.898432 0.892324 0.835145 0.800785 0.69886 0.602994 0.468488 0.332601 0.203604 0.103662 0.0426741 0.0146249 0.00445 0.00126069 0.000339447 8.74349e-05 2.15772e-05 5.10212e-06 1.15586e-06 2.50879e-07 5.2178e-08 1.04013e-08 1.988e-09 3.64439e-10 6.40776e-11 1.09238e-11 1.76364e-12 1.33411e-13 6.70552e-14 2.58895e-14 9.85306e-14 -8.40274e-14 -8.30491e-14 7.7723e-14 -1.16465e-14 6.3204e-14 3.82321e-14 -1.54532e-14 -9.93878e-14 1.54977e-14 8.84987e-15 6.37754e-14 6.48594e-14 1.26942e-13 3.12722e-14 -2.50816e-14 -1.41183e-13 -5.64438e-14 6.44934e-14 1.12703e-13 -2.40012e-14 -9.72753e-14 1.18585e-13 -1.46993e-13 9.60098e-14 3.14181e-14 -2.32394e-13 7.09233e-14 9.83563e-14 -5.12865e-14 1.46526e-13 4.97338e-14 -6.32337e-14 -1.76074e-13 -5.07259e-14 2.03168e-14 -1.40372e-14 2.85717e-14 1.00737e-13 -1.01644e-13 6.60142e-14 -2.02874e-13 1.78601e-13 -3.40929e-14 -4.77185e-14 1.00845e-13 -9.82304e-15 -5.55457e-15 -2.77491e-13 1.6436e-13 -1.81798e-14 -2.73881e-14 -1.0897e-13 1.74532e-14 -2.0238e-15 -1.09699e-13 1.95808e-14 -3.82271e-14 1.0331e-13 -9.36881e-14 2.21264e-14 0 0 1.54053e-15 -1.46901e-15 3.64694e-15 8.01703e-16 -3.87226e-15 -1.58303e-15 1.89952e-16 6.73907e-15 3.30029e-15 -5.06669e-15 -4.88273e-15 1.76439e-15 2.9149e-15 1.10993e-15 2.8234e-15 7.08475e-15 -4.3862e-15 7.89142e-15 -8.15631e-15 -3.37748e-15 3.95412e-15 -6.24368e-16 -1.25703e-14 -4.44548e-15 1.61628e-14 2.13359e-15 -5.80055e-15 1.32249e-14 1.24202e-14 -9.30918e-15 -4.25357e-15 -1.27658e-14 2.04807e-14 -7.70604e-15 -7.27852e-16 -1.64384e-14 2.04503e-14 1.58752e-14 1.20735e-14 2.66066e-15 1.26604e-14 2.52619e-14 -7.76398e-15 -1.366e-14 -5.04405e-15 4.06532e-14 1.91128e-15 -2.41568e-14 7.49551e-15 -2.1044e-14 -1.88126e-14 7.93853e-14 -1.15228e-13 6.26349e-14 -3.77799e-14 1.20615e-14 2.38651e-14 -3.93109e-14 -1.66988e-15 -4.39538e-15 1.37673e-14 -3.43876e-14 3.24779e-14 1.73445e-14 1.99277e-14 2.22326e-14 2.92129e-14 2.36644e-14 6.50396e-16 -2.13234e-14 -2.90672e-14 3.40919e-14 3.08866e-14 9.2011e-14 2.11987e-14 -2.31085e-14 1.55099e-13 4.86287e-14 2.87201e-12 5.22957e-11 8.39933e-10 1.18751e-08 1.46895e-07 1.57308e-06 1.43973e-05 0.000110804 0.000702272 0.00356949 0.0141235 0.0425838 0.0985144 0.182748 0.289706 0.415282 0.558901 0.720486 0.889619 0.99183 0.947517 0.932162 0.929912 0.926968 0.923329 0.919361 0.915214 0.913592 0.912771 0.913229 0.898432 0.892324 0.835145 0.800785 0.69886 0.602994 0.468488 0.332601 0.203604 0.103662 0.0426741 0.0146249 0.00445 0.00126069 0.000339447 8.74349e-05 2.15772e-05 5.10212e-06 1.15586e-06 2.50879e-07 5.21779e-08 1.04012e-08 1.98794e-09 3.6451e-10 6.41337e-11 1.08483e-11 1.71225e-12 2.04062e-13 9.51249e-14 3.50792e-14 8.18849e-14 -9.00982e-14 -6.29798e-14 9.47597e-14 -6.73683e-14 3.32117e-14 9.77205e-14 1.51695e-13 -1.1168e-13 -6.28518e-14 -3.45713e-14 6.14063e-14 7.95236e-14 -1.94552e-14 3.77748e-14 1.83737e-13 -1.33605e-13 -6.41973e-14 5.85753e-14 1.94811e-13 -1.71632e-13 -5.21602e-14 -1.69331e-14 8.3035e-14 1.16954e-13 9.1158e-16 -4.98683e-14 3.66287e-13 -2.40094e-13 -6.61486e-14 9.00224e-15 -1.1137e-13 -1.37161e-14 -2.2316e-13 -1.04586e-13 2.37302e-13 -9.24831e-14 5.9866e-14 7.12144e-14 -2.14152e-13 1.17635e-13 -9.92797e-14 8.12735e-14 1.06779e-13 -2.02662e-13 3.42692e-14 -1.03281e-14 6.39117e-14 -2.6133e-13 1.62781e-13 7.67599e-14 -9.84726e-14 -1.0115e-13 5.75811e-14 -3.69045e-14 -8.80095e-14 -1.18452e-13 5.0352e-14 -6.17862e-14 5.7875e-14 -9.50437e-14 0 0 1.60135e-15 -9.59932e-16 5.05405e-15 1.53579e-15 7.42559e-16 -5.80979e-15 4.45763e-15 3.50502e-15 -3.02073e-15 6.30196e-15 1.19416e-17 1.28078e-15 -1.08037e-14 7.68021e-15 1.27358e-14 1.82211e-15 1.07898e-14 -1.96997e-14 -1.46977e-15 -8.49628e-15 6.32185e-15 9.08549e-15 -8.2271e-15 -1.02437e-14 3.15854e-14 -3.51659e-14 1.70864e-14 7.32624e-15 1.85238e-14 -2.52302e-14 2.36347e-14 -2.42586e-14 7.70535e-15 -1.03096e-14 -1.5355e-15 -1.42684e-14 4.33863e-14 3.44842e-15 5.05156e-15 4.1718e-14 -5.06955e-15 8.93052e-14 -8.35675e-14 -3.77838e-14 2.22731e-14 1.9247e-14 1.01557e-14 -1.65868e-14 4.99011e-15 -4.64483e-15 -1.05634e-14 3.06915e-14 -1.37762e-13 4.08422e-14 9.38503e-15 -4.56647e-15 2.1342e-14 7.70264e-15 -2.7976e-14 2.55379e-14 -3.38964e-14 3.14674e-14 2.835e-16 2.03364e-14 1.23548e-14 -6.86738e-15 7.8572e-14 -9.89066e-15 5.03671e-14 -8.43747e-14 2.9558e-14 -7.34239e-16 -1.72031e-14 2.20852e-13 -6.92606e-14 4.27073e-14 1.53802e-13 -9.38523e-14 3.00336e-12 5.22227e-11 8.39987e-10 1.18751e-08 1.46895e-07 1.57308e-06 1.43973e-05 0.000110804 0.000702272 0.00356949 0.0141235 0.0425838 0.0985144 0.182748 0.289706 0.415282 0.558901 0.720486 0.889619 0.99183 0.947517 0.932162 0.929912 0.926968 0.923329 0.919361 0.915214 0.913592 0.912771 0.913229 0.898432 0.892324 0.835145 0.800785 0.69886 0.602994 0.468488 0.332601 0.203604 0.103662 0.0426741 0.0146249 0.00445 0.00126069 0.000339447 8.74349e-05 2.15772e-05 5.10212e-06 1.15586e-06 2.50879e-07 5.21778e-08 1.04013e-08 1.98786e-09 3.64552e-10 6.41553e-11 1.08148e-11 1.73272e-12 2.83421e-13 1.92124e-14 6.5392e-14 -6.31698e-14 6.7604e-14 -4.04908e-14 3.11277e-14 -7.19227e-14 3.68732e-14 1.12683e-13 2.81378e-13 -2.23562e-14 -2.23862e-13 -1.48043e-13 9.80493e-15 2.21855e-13 -1.19e-13 2.53817e-15 2.01327e-13 3.38609e-14 -8.07861e-14 3.81511e-14 7.97715e-14 -1.14052e-13 -2.99845e-14 -6.4695e-14 2.09374e-13 -1.0399e-13 1.06306e-13 1.65842e-13 6.5389e-13 -4.04845e-13 -1.12063e-13 -1.90525e-13 -3.82418e-13 1.1063e-13 -1.90978e-13 -2.94111e-14 3.44112e-13 -2.39909e-13 1.92119e-14 8.51577e-14 -1.68578e-13 8.98194e-14 -2.86078e-14 -1.17162e-13 4.80079e-13 -2.43079e-13 -1.22156e-13 -8.7359e-15 -8.41276e-15 -4.46026e-14 2.75576e-14 1.92018e-13 -2.65719e-13 3.55699e-14 1.85159e-13 -2.76846e-13 -9.60092e-15 -2.14103e-13 1.39736e-14 -1.45057e-13 3.31589e-14 -8.82746e-14 0
				</DataArray>
				<DataArray Name="VitesseY" type="Float32" format="ascii">