<?xml version="1.0"?>
<VTKFile type="PolyData">
	<PolyData>
		<Piece NumberOfPoints="1206" NumberOfPolys="1000">
			<Points>
				<DataArray type="Float32" NumberOfComponents="3" format="ascii">
 0 0 0 0.005 0 0 0.01 0 0 0.015 0 0 0.02 0 0 0.025 0 0 0.03 0 0 0.035 0 0 0.04 0 0 0.045 0 0 0.05 0 0 0.055 0 0 0.06 0 0 0.065 0 0 0.07 0 0 0.075 0 0 0.08 0 0 0.085 0 0 0.09 0 0 0.095 0 0 0.1 0 0 0.105 0 0 0.11 0 0 0.115 0 0 0.12 0 0 0.125 0 0 0.13 0 0 0.135 0 0 0.14 0 0 0.145 0 0 0.15 0 0 0.155 0 0 0.16 0 0 0.165 0 0 0.17 0 0 0.175 0 0 0.18 0 0 0.185 0 0 0.19 0 0 0.195 0 0 0.2 0 0 0.205 0 0 0.21 0 0 0.215 0 0 0.22 0 0 0.225 0 0 0.23 0 0 0.235 0 0 0.24 0 0 0.245 0 0 0.25 0 0 0.255 0 0 0.26 0 0 0.265 0 0 0.27 0 0 0.275 0 0 0.28 0 0 0.285 0 0 0.29 0 0 0.295 0 0 0.3 0 0 0.305 0 0 0.31 0 0 0.315 0 0 0.32 0 0 0.325 0 0 0.33 0 0 0.335 0 0 0.34 0 0 0.345 0 0 0.35 0 0 0.355001 0 0 0.360005 0 0 0.365016 0 0 0.370047 0 0 0.375119 0 0 0.380264 0 0 0.385519 0 0 0.39092 0 0 0.396498 0 0 0.402278 0 0 0.408286 0 0 0.414547 0 0 0.421088 0 0 0.427942 0 0 0.435145 0 0 0.442737 0 0 0.450769 0 0 0.459298 0 0 0.468393 0 0 0.478132 0 0 0.488599 0 0 0.499858 0 0 0.51185 0 0 0.524127 0 0 0.536236 0 0 0.54818 0 0 0.560006 0 0 0.571776 0 0 0.583528 0 0 0.595287 0 0 0.597898 0 0 0.600436 0 0 0.602928 0 0 0.60539 0 0 0.607831 0 0 0.610257 0 0 0.612673 0 0 0.615086 0 0 0.6175 0 0 0.619898 0 0 0.622286 0 0 0.624668 0 0 0.627047 0 0 0.629425 0 0 0.631803 0 0 0.634177 0 0 0.63655 0 0 0.638921 0 0 0.641293 0 0 0.643664 0 0 0.646034 0 0 0.648403 0 0 0.650772 0 0 0.653141 0 0 0.655508 0 0 0.657871 0 0 0.660237 0 0 0.662601 0 0 0.664992 0 0 0.667397 0 0 0.669882 0 0 0.672388 0 0 0.675032 0 0 0.677828 0 0 0.680804 0 0 0.68406 0 0 0.687627 0 0 0.691549 0 0 0.695816 0 0 0.70038 0 0 0.705158 0 0 0.710061 0 0 0.715022 0 0 0.720008 0 0 0.725003 0 0 0.730001 0 0 0.735 0 0 0.74 0 0 0.745 0 0 0.75 0 0 0.755 0 0 0.76 0 0 0.765 0 0 0.77 0 0 0.775 0 0 0.78 0 0 0.785 0 0 0.79 0 0 0.795 0 0 0.8 0 0 0.805 0 0 0.81 0 0 0.815 0 0 0.82 0 0 0.825 0 0 0.83 0 0 0.835 0 0 0.84 0 0 0.845 0 0 0.85 0 0 0.855 0 0 0.86 0 0 0.865 0 0 0.87 0 0 0.875 0 0 0.88 0 0 0.885 0 0 0.89 0 0 0.895 0 0 0.9 0 0 0.905 0 0 0.91 0 0 0.915 0 0 0.92 0 0 0.925 0 0 0.93 0 0 0.935 0 0 0.94 0 0 0.945 0 0 0.95 0 0 0.955 0 0 0.96 0 0 0.965 0 0 0.97 0 0 0.975 0 0 0.98 0 0 0.985 0 0 0.99 0 0 0.995 0 0 1 0 0 0 0.02 0 0.005 0.02 0 0.01 0.02 0 0.015 0.02 0 0.02 0.02 0 0.025 0.02 0 0.03 0.02 0 0.035 0.02 0 0.04 0.02 0 0.045 0.02 0 0.05 0.02 0 0.055 0.02 0 0.06 0.02 0 0.065 0.02 0 0.07 0.02 0 0.075 0.02 0 0.08 0.02 0 0.085 0.02 0 0.09 0.02 0 0.095 0.02 0 0.1 0.02 0 0.105 0.02 0 0.11 0.02 0 0.115 0.02 0 0.12 0.02 0 0.125 0.02 0 0.13 0.02 0 0.135 0.02 0 0.14 0.02 0 0.145 0.02 0 0.15 0.02 0 0.155 0.02 0 0.16 0.02 0 0.165 0.02 0 0.17 0.02 0 0.175 0.02 0 0.18 0.02 0 0.185 0.02 0 0.19 0.02 0 0.195 0.02 0 0.2 0.02 0 0.205 0.02 0 0.21 0.02 0 0.215 0.02 0 0.22 0.02 0 0.225 0.02 0 0.23 0.02 0 0.235 0.02 0 0.24 0.02 0 0.245 0.02 0 0.25 0.02 0 0.255 0.02 0 0.26 0.02 0 0.265 0.02 0 0.27 0.02 0 0.275 0.02 0 0.28 0.02 0 0.285 0.02 0 0.29 0.02 0 0.295 0.02 0 0.3 0.02 0 0.305 0.02 0 0.31 0.02 0 0.315 0.02 0 0.32 0.02 0 0.325 0.02 0 0.33 0.02 0 0.335 0.02 0 0.34 0.02 0 0.345 0.02 0 0.35 0.02 0 0.355001 0.02 0 0.360005 0.02 0 0.365016 0.02 0 0.370047 0.02 0 0.375119 0.02 0 0.380264 0.02 0 0.385519 0.02 0 0.39092 0.02 0 0.396498 0.02 0 0.402278 0.02 0 0.408286 0.02 0 0.414547 0.02 0 0.421088 0.02 0 0.427942 0.02 0 0.435145 0.02 0 0.442737 0.02 0 0.450769 0.02 0 0.459298 0.02 0 0.468393 0.02 0 0.478132 0.02 0 0.488599 0.02 0 0.499858 0.02 0 0.51185 0.02 0 0.524127 0.02 0 0.536236 0.02 0 0.54818 0.02 0 0.560006 0.02 0 0.571776 0.02 0 0.583528 0.02 0 0.595287 0.02 0 0.597898 0.02 0 0.600436 0.02 0 0.602928 0.02 0 0.60539 0.02 0 0.607831 0.02 0 0.610257 0.02 0 0.612673 0.02 0 0.615086 0.02 0 0.6175 0.02 0 0.619898 0.02 0 0.622286 0.02 0 0.624668 0.02 0 0.627047 0.02 0 0.629425 0.02 0 0.631803 0.02 0 0.634177 0.02 0 0.63655 0.02 0 0.638921 0.02 0 0.641293 0.02 0 0.643664 0.02 0 0.646034 0.02 0 0.648403 0.02 0 0.650772 0.02 0 0.653141 0.02 0 0.655508 0.02 0 0.657871 0.02 0 0.660237 0.02 0 0.662601 0.02 0 0.664992 0.02 0 0.667397 0.02 0 0.669882 0.02 0 0.672388 0.02 0 0.675032 0.02 0 0.677828 0.02 0 0.680804 0.02 0 0.68406 0.02 0 0.687627 0.02 0 0.691549 0.02 0 0.695816 0.02 0 0.70038 0.02 0 0.705158 0.02 0 0.710061 0.02 0 0.715022 0.02 0 0.720008 0.02 0 0.725003 0.02 0 0.730001 0.02 0 0.735 0.02 0 0.74 0.02 0 0.745 0.02 0 0.75 0.02 0 0.755 0.02 0 0.76 0.02 0 0.765 0.02 0 0.77 0.02 0 0.775 0.02 0 0.78 0.02 0 0.785 0.02 0 0.79 0.02 0 0.795 0.02 0 0.8 0.02 0 0.805 0.02 0 0.81 0.02 0 0.815 0.02 0 0.82 0.02 0 0.825 0.02 0 0.83 0.02 0 0.835 0.02 0 0.84 0.02 0 0.845 0.02 0 0.85 0.02 0 0.855 0.02 0 0.86 0.02 0 0.865 0.02 0 0.87 0.02 0 0.875 0.02 0 0.88 0.02 0 0.885 0.02 0 0.89 0.02 0 0.895 0.02 0 0.9 0.02 0 0.905 0.02 0 0.91 0.02 0 0.915 0.02 0 0.92 0.02 0 0.925 0.02 0 0.93 0.02 0 0.935 0.02 0 0.94 0.02 0 0.945 0.02 0 0.95 0.02 0 0.955 0.02 0 0.96 0.02 0 0.965 0.02 0 0.97 0.02 0 0.975 0.02 0 0.98 0.02 0 0.985 0.02 0 0.99 0.02 0 0.995 0.02 0 1 0.02 0 0 0.04 0 0.005 0.04 0 0.01 0.04 0 0.015 0.04 0 0.02 0.04 0 0.025 0.04 0 0.03 0.04 0 0.035 0.04 0 0.04 0.04 0 0.045 0.04 0 0.05 0.04 0 0.055 0.04 0 0.06 0.04 0 0.065 0.04 0 0.07 0.04 0 0.075 0.04 0 0.08 0.04 0 0.085 0.04 0 0.09 0.04 0 0.095 0.04 0 0.1 0.04 0 0.105 0.04 0 0.11 0.04 0 0.115 0.04 0 0.12 0.04 0 0.125 0.04 0 0.13 0.04 0 0.135 0.04 0 0.14 0.04 0 0.145 0.04 0 0.15 0.04 0 0.155 0.04 0 0.16 0.04 0 0.165 0.04 0 0.17 0.04 0 0.175 0.04 0 0.18 0.04 0 0.185 0.04 0 0.19 0.04 0 0.195 0.04 0 0.2 0.04 0 0.205 0.04 0 0.21 0.04 0 0.215 0.04 0 0.22 0.04 0 0.225 0.04 0 0.23 0.04 0 0.235 0.04 0 0.24 0.04 0 0.245 0.04 0 0.25 0.04 0 0.255 0.04 0 0.26 0.04 0 0.265 0.04 0 0.27 0.04 0 0.275 0.04 0 0.28 0.04 0 0.285 0.04 0 0.29 0.04 0 0.295 0.04 0 0.3 0.04 0 0.305 0.04 0 0.31 0.04 0 0.315 0.04 0 0.32 0.04 0 0.325 0.04 0 0.33 0.04 0 0.335 0.04 0 0.34 0.04 0 0.345 0.04 0 0.35 0.04 0 0.355001 0.04 0 0.360005 0.04 0 0.365016 0.04 0 0.370047 0.04 0 0.375119 0.04 0 0.380264 0.04 0 0.385519 0.04 0 0.39092 0.04 0 0.396498 0.04 0 0.402278 0.04 0 0.408286 0.04 0 0.414547 0.04 0 0.421088 0.04 0 0.427942 0.04 0 0.435145 0.04 0 0.442737 0.04 0 0.450769 0.04 0 0.459298 0.04 0 0.468393 0.04 0 0.478132 0.04 0 0.488599 0.04 0 0.499858 0.04 0 0.51185 0.04 0 0.524127 0.04 0 0.536236 0.04 0 0.54818 0.04 0 0.560006 0.04 0 0.571776 0.04 0 0.583528 0.04 0 0.595287 0.04 0 0.597898 0.04 0 0.600436 0.04 0 0.602928 0.04 0 0.60539 0.04 0 0.607831 0.04 0 0.610257 0.04 0 0.612673 0.04 0 0.615086 0.04 0 0.6175 0.04 0 0.619898 0.04 0 0.622286 0.04 0 0.624668 0.04 0 0.627047 0.04 0 0.629425 0.04 0 0.631803 0.04 0 0.634177 0.04 0 0.63655 0.04 0 0.638921 0.04 0 0.641293 0.04 0 0.643664 0.04 0 0.646034 0.04 0 0.648403 0.04 0 0.650772 0.04 0 0.653141 0.04 0 0.655508 0.04 0 0.657871 0.04 0 0.660237 0.04 0 0.662601 0.04 0 0.664992 0.04 0 0.667397 0.04 0 0.669882 0.04 0 0.672388 0.04 0 0.675032 0.04 0 0.677828 0.04 0 0.680804 0.04 0 0.68406 0.04 0 0.687627 0.04 0 0.691549 0.04 0 0.695816 0.04 0 0.70038 0.04 0 0.705158 0.04 0 0.710061 0.04 0 0.715022 0.04 0 0.720008 0.04 0 0.725003 0.04 0 0.730001 0.04 0 0.735 0.04 0 0.74 0.04 0 0.745 0.04 0 0.75 0.04 0 0.755 0.04 0 0.76 0.04 0 0.765 0.04 0 0.77 0.04 0 0.775 0.04 0 0.78 0.04 0 0.785 0.04 0 0.79 0.04 0 0.795 0.04 0 0.8 0.04 0 0.805 0.04 0 0.81 0.04 0 0.815 0.04 0 0.82 0.04 0 0.825 0.04 0 0.83 0.04 0 0.835 0.04 0 0.84 0.04 0 0.845 0.04 0 0.85 0.04 0 0.855 0.04 0 0.86 0.04 0 0.865 0.04 0 0.87 0.04 0 0.875 0.04 0 0.88 0.04 0 0.885 0.04 0 0.89 0.04 0 0.895 0.04 0 0.9 0.04 0 0.905 0.04 0 0.91 0.04 0 0.915 0.04 0 0.92 0.04 0 0.925 0.04 0 0.93 0.04 0 0.935 0.04 0 0.94 0.04 0 0.945 0.04 0 0.95 0.04 0 0.955 0.04 0 0.96 0.04 0 0.965 0.04 0 0.97 0.04 0 0.975 0.04 0 0.98 0.04 0 0.985 0.04 0 0.99 0.04 0 0.995 0.04 0 1 0.04 0 0 0.06 0 0.005 0.06 0 0.01 0.06 0 0.015 0.06 0 0.02 0.06 0 0.025 0.06 0 0.03 0.06 0 0.035 0.06 0 0.04 0.06 0 0.045 0.06 0 0.05 0.06 0 0.055 0.06 0 0.06 0.06 0 0.065 0.06 0 0.07 0.06 0 0.075 0.06 0 0.08 0.06 0 0.085 0.06 0 0.09 0.06 0 0.095 0.06 0 0.1 0.06 0 0.105 0.06 0 0.11 0.06 0 0.115 0.06 0 0.12 0.06 0 0.125 0.06 0 0.13 0.06 0 0.135 0.06 0 0.14 0.06 0 0.145 0.06 0 0.15 0.06 0 0.155 0.06 0 0.16 0.06 0 0.165 0.06 0 0.17 0.06 0 0.175 0.06 0 0.18 0.06 0 0.185 0.06 0 0.19 0.06 0 0.195 0.06 0 0.2 0.06 0 0.205 0.06 0 0.21 0.06 0 0.215 0.06 0 0.22 0.06 0 0.225 0.06 0 0.23 0.06 0 0.235 0.06 0 0.24 0.06 0 0.245 0.06 0 0.25 0.06 0 0.255 0.06 0 0.26 0.06 0 0.265 0.06 0 0.27 0.06 0 0.275 0.06 0 0.28 0.06 0 0.285 0.06 0 0.29 0.06 0 0.295 0.06 0 0.3 0.06 0 0.305 0.06 0 0.31 0.06 0 0.315 0.06 0 0.32 0.06 0 0.325 0.06 0 0.33 0.06 0 0.335 0.06 0 0.34 0.06 0 0.345 0.06 0 0.35 0.06 0 0.355001 0.06 0 0.360005 0.06 0 0.365016 0.06 0 0.370047 0.06 0 0.375119 0.06 0 0.380264 0.06 0 0.385519 0.06 0 0.39092 0.06 0 0.396498 0.06 0 0.402278 0.06 0 0.408286 0.06 0 0.414547 0.06 0 0.421088 0.06 0 0.427942 0.06 0 0.435145 0.06 0 0.442737 0.06 0 0.450769 0.06 0 0.459298 0.06 0 0.468393 0.06 0 0.478132 0.06 0 0.488599 0.06 0 0.499858 0.06 0 0.51185 0.06 0 0.524127 0.06 0 0.536236 0.06 0 0.54818 0.06 0 0.560006 0.06 0 0.571776 0.06 0 0.583528 0.06 0 0.595287 0.06 0 0.597898 0.06 0 0.600436 0.06 0 0.602928 0.06 0 0.60539 0.06 0 0.607831 0.06 0 0.610257 0.06 0 0.612673 0.06 0 0.615086 0.06 0 0.6175 0.06 0 0.619898 0.06 0 0.622286 0.06 0 0.624668 0.06 0 0.627047 0.06 0 0.629425 0.06 0 0.631803 0.06 0 0.634177 0.06 0 0.63655 0.06 0 0.638921 0.06 0 0.641293 0.06 0 0.643664 0.06 0 0.646034 0.06 0 0.648403 0.06 0 0.650772 0.06 0 0.653141 0.06 0 0.655508 0.06 0 0.657871 0.06 0 0.660237 0.06 0 0.662601 0.06 0 0.664992 0.06 0 0.667397 0.06 0 0.669882 0.06 0 0.672388 0.06 0 0.675032 0.06 0 0.677828 0.06 0 0.680804 0.06 0 0.68406 0.06 0 0.687627 0.06 0 0.691549 0.06 0 0.695816 0.06 0 0.70038 0.06 0 0.705158 0.06 0 0.710061 0.06 0 0.715022 0.06 0 0.720008 0.06 0 0.725003 0.06 0 0.730001 0.06 0 0.735 0.06 0 0.74 0.06 0 0.745 0.06 0 0.75 0.0
[...]
			<PointData Scalars="VitesseX">
				<DataArray Name="VitesseX" type="Float32" format="ascii">
 0 5.5093e-16 1.77614e-15 -8.994e-16 2.09522e-15 2.55025e-15 1.68605e-15 -1.97338e-15 3.54281e-16 4.00788e-15 -4.65925e-15 2.36226e-15 -3.40787e-15 9.67601e-15 -5.11983e-15 1.32429e-14 -1.03835e-14 4.61264e-15 1.21868e-14 2.33145e-15 1.04725e-14 7.48801e-15 -9.14514e-15 1.63707e-16 3.82912e-15 3.99717e-15 -2.51236e-14 2.08509e-14 6.28724e-15 9.03674e-15 2.43331e-14 1.71045e-14 2.53498e-14 9.66409e-15 -2.06716e-14 9.28804e-15 -7.3195e-15 2.57407e-14 -1.26444e-14 1.62162e-14 1.6196e-14 1.28212e-14 -2.65876e-14 -1.28386e-15 3.00848e-14 -1.35084e-14 7.55469e-16 6.22789e-15 -2.21863e-14 1.41266e-14 -3.71774e-14 -2.88019e-14 1.56578e-14 2.34472e-14 2.89608e-15 2.2145e-14 4.89038e-14 7.11575e-14 5.80861e-14 1.07835e-13 1.01614e-12 9.05383e-12 7.67304e-11 6.01424e-10 4.38644e-09 2.96354e-08 1.84723e-07 1.05739e-06 5.52855e-06 2.62348e-05 0.000112124 0.000427616 0.00143938 0.00422528 0.0107013 0.023265 0.0436435 0.0718588 0.106477 0.14576 0.188481 0.234017 0.282143 0.332848 0.386231 0.442459 0.501744 0.56432 0.630402 0.700087 0.773078 0.847853 0.918943 0.968107 0.961681 0.947447 0.936148 0.930436 0.92821 0.927317 0.926694 0.926651 0.926631 0.92663 0.926698 0.926809 0.926739 0.926625 0.926509 0.926343 0.926153 0.925946 0.925755 0.925608 0.925533 0.92552 0.925746 0.925986 0.925836 0.92552 0.925384 0.925391 0.925919 0.924728 0.924199 0.921807 0.922301 0.91883 0.920175 0.920705 0.896616 0.897088 0.834177 0.780606 0.759356 0.643616 0.555108 0.427428 0.305269 0.191172 0.103254 0.0476416 0.0193772 0.00730286 0.00264831 0.00094129 0.000330174 0.000114508 3.92624e-05 1.33003e-05 4.44734e-06 1.46658e-06 4.76565e-07 1.52484e-07 4.80105e-08 1.48666e-08 4.52533e-09 1.35354e-09 3.97723e-10 1.14656e-10 3.25424e-11 9.07752e-12 2.64928e-12 6.4118e-13 2.06588e-13 5.66626e-14 2.38124e-14 1.42326e-14 4.31133e-14 1.0298e-14 -7.89684e-14 2.10435e-14 3.28767e-14 -1.10587e-13 2.37383e-13 -2.33749e-13 1.02639e-13 -9.63547e-14 -1.42194e-13 -1.88573e-13 -5.7941e-14 -4.24795e-14 1.35641e-13 -1.09038e-13 7.98093e-14 -1.41729e-13 -7.02909e-14 -7.13232e-14 1.55497e-13 -9.58642e-14 -1.50486e-13 7.03002e-14 -1.16591e-13 -8.66838e-14 5.82358e-14 7.66733e-15 -9.70674e-14 9.30153e-14 1.22151e-14 -1.00771e-13 0 0 8.15338e-16 6.02986e-16 1.45525e-15 2.08541e-15 -8.84575e-16 8.32715e-16 4.63325e-16 9.42744e-16 -4.47968e-16 -3.58222e-15 6.99503e-16 6.1294e-15 -5.28453e-15 1.0465e-14 -1.19398e-14 1.29618e-14 6.03892e-15 3.79113e-15 3.48233e-15 2.61546e-15 2.34706e-15 7.62588e-15 3.9276e-15 2.97661e-15 5.12668e-15 -1.18326e-14 -9.84423e-15 2.45923e-14 1.82363e-14 2.60024e-14 -8.85059e-17 2.51591e-14 7.64417e-15 -1.07211e-14 -9.18353e-15 1.83267e-14 -1.37735e-14 3.28455e-14 2.79075e-15 -2.60875e-14 8.76912e-15 2.18294e-14 -5.11105e-16 -2.05876e-14 1.77494e-15 1.91667e-14 7.22893e-15 -2.31511e-14 -2.88015e-14 6.79624e-16 -2.36897e-14 3.46481e-14 4.34787e-14 3.00312e-15 3.47094e-14 3.4806e-14 4.62503e-14 7.26875e-14 1.30665e-13 9.92259e-13 9.08353e-12 7.67055e-11 6.01368e-10 4.38644e-09 2.96354e-08 1.84723e-07 1.05739e-06 5.52855e-06 2.62348e-05 0.000112124 0.000427616 0.00143938 0.00422528 0.0107013 0.023265 0.0436435 0.0718588 0.106477 0.14576 0.188481 0.234017 0.282143 0.332848 0.386231 0.442459 0.501744 0.56432 0.630402 0.700087 0.773078 0.847853 0.918943 0.968107 0.961681 0.947447 0.936148 0.930436 0.92821 0.927317 0.926694 0.926651 0.926631 0.92663 0.926698 0.926809 0.926739 0.926625 0.926509 0.926343 0.926153 0.925946 0.925755 0.925608 0.925533 0.92552 0.925746 0.925986 0.925836 0.92552 0.925384 0.925391 0.925919 0.924728 0.924199 0.921807 0.922301 0.91883 0.920175 0.920705 0.896616 0.897088 0.834177 0.780606 0.759356 0.643616 0.555108 0.427428 0.305269 0.191172 0.103254 0.0476416 0.0193772 0.00730286 0.00264831 0.00094129 0.000330174 0.000114508 3.92624e-05 1.33003e-05 4.44734e-06 1.46658e-06 4.76565e-07 1.52484e-07 4.80105e-08 1.48666e-08 4.52535e-09 1.35349e-09 3.97692e-10 1.14834e-10 3.25297e-11 9.11204e-12 2.52707e-12 7.90329e-13 1.72233e-13 -9.09929e-14 1.86598e-13 -9.8229e-14 2.74473e-14 6.97566e-14 -8.13984e-14 9.98502e-14 -4.82992e-14 -1.2347e-13 -6.48997e-14 1.10241e-13 -1.35001e-13 -5.5716e-14 -4.14885e-14 -2.09083e-14 -8.82033e-14 7.66421e-15 -6.33478e-14 6.2184e-14 -5.97058e-14 -4.55813e-14 -2.41075e-14 -9.03173e-14 -8.04056e-14 1.50377e-14 -5.31766e-14 -6.11925e-14 -1.3733e-13 4.55607e-14 -4.47197e-14 7.57131e-14 -6.69531e-14 -5.21929e-14 1.09059e-13 -4.47723e-14 0 0 -4.44377e-16 1.22029e-15 1.5819e-15 -1.37651e-15 1.3921e-15 3.78004e-16 2.99699e-15 2.02686e-15 4.69909e-15 -5.25636e-15 -4.58373e-16 7.1411e-15 8.01004e-15 -6.08389e-16 -1.19534e-14 1.0618e-14 1.05173e-14 -6.27767e-15 5.69941e-15 1.13244e-14 -7.02559e-16 -1.04192e-14 1.7676e-14 -1.46232e-14 2.9349e-14 2.10657e-15 6.81275e-15 9.63602e-15 2.37039e-14 1.16342e-14 -2.42597e-14 1.52146e-14 2.41087e-14 -1.85071e-14 1.47892e-15 1.04168e-14 -1.11792e-14 2.22699e-14 2.35857e-14 -2.50551e-14 -5.99963e-15 3.29689e-14 -4.23097e-15 -4.95286e-14 -2.27167e-14 1.55076e-14 2.35906e-14 -2.05552e-14 -8.60188e-15 -5.21892e-15 4.63973e-14 4.98601e-14 1.29852e-14 1.91221e-14 4.13698e-14 1.40827e-14 9.13462e-14 8.40508e-14 8.18051e-14 9.98865e-13 9.08864e-12 7.65763e-11 6.01409e-10 4.38644e-09 2.96354e-08 1.84723e-07 1.05739e-06 5.52855e-06 2.62348e-05 0.000112124 0.000427616 0.00143938 0.00422528 0.0107013 0.023265 0.0436435 0.0718588 0.106477 0.14576 0.188481 0.234017 0.282143 0.332848 0.386231 0.442459 0.501744 0.56432 0.630402 0.700087 0.773078 0.847853 0.918943 0.968107 0.961681 0.947447 0.936148 0.930436 0.92821 0.927317 0.926694 0.926651 0.926631 0.92663 0.926698 0.926809 0.926739 0.926625 0.926509 0.926343 0.926153 0.925946 0.925755 0.925608 0.925533 0.92552 0.925746 0.925986 0.925836 0.92552 0.925384 0.925391 0.925919 0.924728 0.924199 0.921807 0.922301 0.91883 0.920175 0.920705 0.896616 0.897088 0.834177 0.780606 0.759356 0.643616 0.555108 0.427428 0.305269 0.191172 0.103254 0.0476416 0.0193772 0.00730286 0.00264831 0.00094129 0.000330174 0.000114508 3.92624e-05 1.33003e-05 4.44734e-06 1.46658e-06 4.76565e-07 1.52484e-07 4.80105e-08 1.48667e-08 4.52537e-09 1.3535e-09 3.9775e-10 1.14856e-10 3.25023e-11 9.03388e-12 2.50613e-12 6.62509e-13 2.66617e-13 -7.11296e-14 2.44062e-14 1.77441e-13 -1.43262e-13 4.70424e-14 7.51211e-14 -4.2555e-14 -8.36018e-14 -1.48141e-13 -4.08512e-14 1.27428e-13 -2.1689e-13 -3.23301e-16 6.57203e-14 1.20065e-13 -2.81174e-14 -2.99027e-14 -1.42721e-13 1.42419e-13 -9.03804e-14 -9.77821e-15 -7.48983e-14 -7.02136e-14 -6.98491e-14 -2.73621e-14 -5.06083e-14 -6.39676e-14 -1.11216e-13 -3.5598e-14 1.37384e-14 -2.16041e-14 -6.37729e-14 1.32506e-14 1.76424e-14 2.41813e-15 0 0 -5.95573e-16 7.95702e-16 -6.49629e-17 -1.94957e-15 2.44331e-15 -1.15051e-15 5.02755e-15 3.19452e-16 1.60608e-15 4.22696e-15 8.91145e-15 6.78432e-15 1.37381e-14 -1.34816e-15 -1.7224e-14 -2.47729e-15 6.22503e-15 -7.93808e-15 7.5138e-15 8.8509e-15 1.24327e-14 -1.48831e-14 1.51304e-14 1.38883e-14 8.36887e-15 1.88858e-14 1.79914e-14 1.21182e-14 -2.52077e-14 1.21815e-14 -1.53119e-15 -1.01337e-14 2.40023e-14 -3.05318e-14 1.81082e-14 -1.63755e-14 1.62633e-15 1.08212e-14 2.92078e-14 -9.74713e-15 2.33909e-14 -5.98292e-15 -5.61908e-14 1.86562e-14 -3.19342e-14 6.06353e-15 2.30547e-14 -1.89288e-14 5.19379e-14 -1.0509e-14 4.42562e-14 4.30566e-14 -1.19373e-14 2.72159e-14 3.86669e-14 4.88728e-14 4.83779e-14 1.19923e-13 1.42112e-13 1.02247e-12 8.98906e-12 7.65294e-11 6.01398e-10 4.38647e-09 2.96354e-08 1.84723e-07 1.05739e-06 5.52855e-06 2.62348e-05 0.000112124 0.000427616 0.00143938 0.00422528 0.0107013 0.023265 0.0436435 0.0718588 0.106477 0.14576 0.188481 0.234017 0.282143 0.332848 0.386231 0.442459 0.501744 0.56432 0.630402 0.700087 0.773078 0.847853 0.918943 0.968107 0.961681 0.947447 0.936148 0.930436 0.92821 0.927317 0.926694 0.926651 0.926631 0.92663 0.926698 0.926809 0.926739 0.926625 0.926509 0.926343 0.926153 0.925946 0.925755 0.925608 0.925533 0.92552 0.925746 0.925986 0.925836 0.92552 0.925384 0.925391 0.925919 0.924728 0.924199 0.921807 0.922301 0.91883 0.920175 0.920705 0.896616 0.897088 0.834177 0.780606 0.759356 0.643616 0.555108 0.427428 0.305269 0.191172 0.103254 0.0476416 0.0193772 0.00730286 0.00264831 0.00094129 0.000330174 0.000114508 3.92624e-05 1.33003e-05 4.44734e-06 1.46658e-06 4.76565e-07 1.52484e-07 4.80106e-08 1.48667e-08 4.52531e-09 1.35359e-09 3.97834e-10 1.14774e-10 3.25481e-11 9.01721e-12 2.56687e-12 4.65788e-13 3.85256e-13 4.6045e-14 -3.37947e-13 1.61389e-13 -8.73427e-14 1.69198e-14 4.13647e-14 -1.84529e-13 7.48706e-14 -1.26522e-14 2.02952e-13 -1.97855e-13 5.30667e-14 3.62477e-14 4.12248e-14 -2.88381e-14 1.26561e-13 -2.09649e-13 4.14603e-14 -1.69766e-13 -2.87742e-14 -1.2163e-13 3.48028e-14 -6.20983e-14 -2.7247e-14 1.08084e-13 2.6451e-14 -2.13925e-13 8.57065e-15 -8.78142e-14 -1.24797e-14 -2.81324e-14 3.22927e-14 -2.70138e-14 2.57905e-14 -9.33373e-14 0 0 -4.16023e-16 -2.47054e-15 6.85652e-16 6.96882e-16 1.95778e-16 -3.65785e-15 5.48697e-15 -7.78151e-16 -5.31828e-15 -3.07724e-15 5.02241e-15 4.46667e-15 -1.08952e-15 1.75015e-14 -1.07385e-14 9.78577e-15 -5.74275e-15 -1.64097e-15 2.22146e-15 1.13603e-14 6.01506e-15 4.52038e-15 1.94301e-14 2.80168e-14 6.2261e-15 1.89136e-14 -1.6551e-14 2.39557e-14 -2.27417e-14 -8.26851e-15 1.67392e-14 -1.37274e-14 -1.09147e-14 -1.64151e-14 3.65919e-16 6.39292e-15 -1.37301e-14 1.53215e-14 3.27329e-14 -2.11411e-14 1.73325e-14 -1.35923e-14 -4.8729e-14 1.85991e-14 -1.01532e-14 -4.21696e-15 2.26615e-14 1.26037e-14 6.15547e-14 4.08315e-14 -1.78707e-14 3.45623e-15 2.77417e-14 1.75985e-14 7.51808e-14 2.86971e-14 -2.8712e-15 1.13e-13 2.98502e-13 1.02122e-12 8.94446e-12 7.65061e-11 6.01343e-10 4.38645e-09 2.96354e-08 1.84722e-07 1.05739e-06 5.52855e-06 2.62348e-05 0.000112124 0.000427616 0.00143938 0.00422528 0.0107013 0.023265 0.0436435 0.0718588 0.106477 0.14576 0.188481 0.234017 0.282143 0.332848 0.386231 0.442459 0.501744 0.56432 0.630402 0.700087 0.773078 0.847853 0.918943 0.968107 0.961681 0.947447 0.936148 0.930436 0.92821 0.927317 0.926694 0.926651 0.926631 0.92663 0.926698 0.926809 0.926739 0.926625 0.926509 0.926343 0.926153 0.925946 0.925755 0.925608 0.925533 0.92552 0.925746 0.925986 0.925836 0.92552 0.925384 0.925391 0.925919 0.924728 0.924199 0.921807 0.922301 0.91883 0.920175 0.920705 0.896616 0.897088 0.834177 0.780606 0.759356 0.643616 0.555108 0.427428 0.305269 0.191172 0.103254 0.0476416 0.0193772 0.00730286 0.00264831 0.00094129 0.000330174 0.000114508 3.92624e-05 1.33003e-05 4.44734e-06 1.46658e-06 4.76565e-07 1.52484e-07 4.80105e-08 1.48667e-08 4.52533e-09 1.35352e-09 3.97693e-10 1.14807e-10 3.27188e-11 9.14882e-12 2.61272e-12 6.6145e-13 1.93393e-13 2.45541e-14 -1.20544e-13 -1.77219e-13 -3.91644e-14 1.82022e-13 -1.52244e-13 -5.02982e-14 1.2479e-13 -1.28567e-13 1.44419e-13 -7.11802e-14 5.66643e-14 -3.44278e-14 1.82038e-14 -1.19516e-13 1.31724e-13 -2.89354e-14 -3.32592e-14 -3.07929e-13 -1.42995e-13 -2.85438e-13 1.26443e-13 8.06205e-14 1.59064e-14 -7.33889e-15 2.74742e-13 -2.92075e-13 7.33507e-14 -2.02904e-13 -9.05451e-14 1.81739e-13 -2.54445e-14 -8.23788e-14 1.31857e-14 -3.89379e-14 0 0 -1.6094e-15 -3.52172e-15 8.55149e-16 4.6428e-16 2.60854e-15 -4.23805e-15 4.01279e-15 3.27309e-16 4.53273e-16 -2.26159e-14 -7.73157e-15 -6.01978e-15 6.60998e-15 1.04329e-14 2.61867e-14 9.45506e-15 -1.03662e-14 4.64343e-15 -3.81907e-15 3.29091e-14 -1.14465e-14 -6.42845e-15 3.62599e-14 -3.11357e-15 4.81563e-14 2.81039e-15 -1.49199e-14 4.95796e-17 2.49041e-14 -4.53034e-14 5.30289e-15 -1.72643e-15 -2.72408e-14 -8.01019e-15 -4.87169e-15 2.23975e-14 2.16393e-16 -2.47949e-14 6.48562e-14 -4.52714e-15 -2.88332e-14 -1.95274e-14 6.19997e-15 -2.79114e-14 -1.89296e-14 -2.71237e-14 3.81648e-14 4.60706e-14 7.37594e-14 5.37065e-14 -1.28815e-14 -3.3119e-14 4.18184e-14 1.58995e-14 1.08493e-13 -3.28944e-14 5.88511e-14 6.6968e-14 3.22894e-13 1.02686e-12 8.97486e-12 7.64255e-11 6.01396e-10 4.3864e-09 2.96355e-08 1.84722e-07 1.05739e-06 5.52855e-06 2.62348e-05 0.000112124 0.000427616 0.00143938 0.00422528 0.0107013 0.023265 0.0436435 0.0718588 0.106477 0.14576 0.188481 0.234017 0.282143 0.332848 0.386231 0.442459 0.501744 0.56432 0.630402 0.700087 0.773078 0.847853 0.918943 0.968107 0.961681 0.947447 0.936148 0.930436 0.92821 0.927317 0.926694 0.926651 0.926631 0.92663 0.926698 0.926809 0.926739 0.926625 0.926509 0.926343 0.926153 0.925946 0.925755 0.925608 0.925533 0.92552 0.925746 0.925986 0.925836 0.92552 0.925384 0.925391 0.925919 0.924728 0.924199 0.921807 0.922301 0.91883 0.920175 0.920705 0.896616 0.897088 0.834177 0.780606 0.759356 0.643616 0.555108 0.427428 0.305269 0.191172 0.103254 0.0476416 0.0193772 0.00730286 0.00264831 0.00094129 0.000330174 0.000114508 3.92624e-05 1.33003e-05 4.44734e-06 1.46658e-06 4.76565e-07 1.52484e-07 4.80105e-08 1.48667e-08 4.52542e-09 1.35343e-09 3.97555e-10 1.14766e-10 3.28292e-11 9.18428e-12 2.69932e-12 7.76863e-13 1.13611e-14 5.40274e-14 1.35271e-13 -1.11132e-13 -2.01484e-13 2.95108e-13 -1.53392e-13 4.62793e-15 6.19487e-14 -3.92286e-13 1.68477e-13 5.45019e-14 -5.36907e-14 -1.2679e-13 2.63285e-14 -8.76669e-14 7.23436e-14 2.43278e-13 -1.72791e-13 -2.25164e-13 -2.09849e-13 -3.97802e-13 1.1072e-14 2.54379e-13 2.62574e-13 -4.12261e-13 3.50491e-13 -9.18417e-14 6.52251e-14 -4.78957e-13 1.91883e-14 2.32617e-13 -2.05957e-13 1.13673e-13 -1.96282e-13 1.01201e-13 0
				</DataArray>
				<DataArray Name="VitesseY" type="Float32" format="ascii">