<?xml version="1.0"?>
<VTKFile type="PolyData">
	<PolyData>
		<Piece NumberOfPoints="1206" NumberOfPolys="1000">
			<Points>
				<DataArray type="Float32" NumberOfComponents="3" format="ascii">
 0 0 0 0.005 0 0 0.01 0 0 0.015 0 0 0.02 0 0 0.025 0 0 0.03 0 0 0.035 0 0 0.04 0 0 0.045 0 0 0.05 0 0 0.055 0 0 0.06 0 0 0.065 0 0 0.07 0 0 0.075 0 0 0.08 0 0 0.085 0 0 0.09 0 0 0.095 0 0 0.1 0 0 0.105 0 0 0.11 0 0 0.115 0 0 0.12 0 0 0.125 0 0 0.13 0 0 0.135 0 0 0.14 0 0 0.145 0 0 0.15 0 0 0.155 0 0 0.16 0 0 0.165 0 0 0.17 0 0 0.175 0 0 0.18 0 0 0.185 0 0 0.19 0 0 0.195 0 0 0.2 0 0 0.205 0 0 0.21 0 0 0.215 0 0 0.22 0 0 0.225 0 0 0.23 0 0 0.235 0 0 0.24 0 0 0.245 0 0 0.25 0 0 0.255 0 0 0.26 0 0 0.265 0 0 0.27 0 0 0.275 0 0 0.28 0 0 0.285 0 0 0.290001 0 0 0.295004 0 0 0.30001 0 0 0.305027 0 0 0.310064 0 0 0.315138 0 0 0.320267 0 0 0.325473 0 0 0.330774 0 0 0.336187 0 0 0.341724 0 0 0.347395 0 0 0.353212 0 0 0.359185 0 0 0.365324 0 0 0.371642 0 0 0.378151 0 0 0.384865 0 0 0.391799 0 0 0.398969 0 0 0.406396 0 0 0.414098 0 0 0.4221 0 0 0.430429 0 0 0.439113 0 0 0.448187 0 0 0.457687 0 0 0.467655 0 0 0.478131 0 0 0.489152 0 0 0.500725 0 0 0.512762 0 0 0.524936 0 0 0.537005 0 0 0.548961 0 0 0.560819 0 0 0.572611 0 0 0.584367 0 0 0.596107 0 0 0.607841 0 0 0.619574 0 0 0.631307 0 0 0.643053 0 0 0.645663 0 0 0.648199 0 0 0.650691 0 0 0.653151 0 0 0.655591 0 0 0.658014 0 0 0.660428 0 0 0.662839 0 0 0.665251 0 0 0.667648 0 0 0.670033 0 0 0.672413 0 0 0.67479 0 0 0.677167 0 0 0.679543 0 0 0.681916 0 0 0.684287 0 0 0.686655 0 0 0.689024 0 0 0.691392 0 0 0.693758 0 0 0.696122 0 0 0.698486 0 0 0.700849 0 0 0.703213 0 0 0.705574 0 0 0.707937 0 0 0.7103 0 0 0.712663 0 0 0.715028 0 0 0.717391 0 0 0.719752 0 0 0.722113 0 0 0.724473 0 0 0.726834 0 0 0.729195 0 0 0.731558 0 0 0.733922 0 0 0.736287 0 0 0.738651 0 0 0.741012 0 0 0.743371 0 0 0.74573 0 0 0.748091 0 0 0.750454 0 0 0.752824 0 0 0.755209 0 0 0.75761 0 0 0.760062 0 0 0.762582 0 0 0.765213 0 0 0.767981 0 0 0.770959 0 0 0.774181 0 0 0.777729 0 0 0.781624 0 0 0.785867 0 0 0.790411 0 0 0.795174 0 0 0.800068 0 0 0.805025 0 0 0.810009 0 0 0.815003 0 0 0.820001 0 0 0.825 0 0 0.83 0 0 0.835 0 0 0.84 0 0 0.845 0 0 0.85 0 0 0.855 0 0 0.86 0 0 0.865 0 0 0.87 0 0 0.875 0 0 0.88 0 0 0.885 0 0 0.89 0 0 0.895 0 0 0.9 0 0 0.905 0 0 0.91 0 0 0.915 0 0 0.92 0 0 0.925 0 0 0.93 0 0 0.935 0 0 0.94 0 0 0.945 0 0 0.95 0 0 0.955 0 0 0.96 0 0 0.965 0 0 0.97 0 0 0.975 0 0 0.98 0 0 0.985 0 0 0.99 0 0 0.995 0 0 1 0 0 0 0.02 0 0.005 0.02 0 0.01 0.02 0 0.015 0.02 0 0.02 0.02 0 0.025 0.02 0 0.03 0.02 0 0.035 0.02 0 0.04 0.02 0 0.045 0.02 0 0.05 0.02 0 0.055 0.02 0 0.06 0.02 0 0.065 0.02 0 0.07 0.02 0 0.075 0.02 0 0.08 0.02 0 0.085 0.02 0 0.09 0.02 0 0.095 0.02 0 0.1 0.02 0 0.105 0.02 0 0.11 0.02 0 0.115 0.02 0 0.12 0.02 0 0.125 0.02 0 0.13 0.02 0 0.135 0.02 0 0.14 0.02 0 0.145 0.02 0 0.15 0.02 0 0.155 0.02 0 0.16 0.02 0 0.165 0.02 0 0.17 0.02 0 0.175 0.02 0 0.18 0.02 0 0.185 0.02 0 0.19 0.02 0 0.195 0.02 0 0.2 0.02 0 0.205 0.02 0 0.21 0.02 0 0.215 0.02 0 0.22 0.02 0 0.225 0.02 0 0.23 0.02 0 0.235 0.02 0 0.24 0.02 0 0.245 0.02 0 0.25 0.02 0 0.255 0.02 0 0.26 0.02 0 0.265 0.02 0 0.27 0.02 0 0.275 0.02 0 0.28 0.02 0 0.285 0.02 0 0.290001 0.02 0 0.295004 0.02 0 0.30001 0.02 0 0.305027 0.02 0 0.310064 0.02 0 0.315138 0.02 0 0.320267 0.02 0 0.325473 0.02 0 0.330774 0.02 0 0.336187 0.02 0 0.341724 0.02 0 0.347395 0.02 0 0.353212 0.02 0 0.359185 0.02 0 0.365324 0.02 0 0.371642 0.02 0 0.378151 0.02 0 0.384865 0.02 0 0.391799 0.02 0 0.398969 0.02 0 0.406396 0.02 0 0.414098 0.02 0 0.4221 0.02 0 0.430429 0.02 0 0.439113 0.02 0 0.448187 0.02 0 0.457687 0.02 0 0.467655 0.02 0 0.478131 0.02 0 0.489152 0.02 0 0.500725 0.02 0 0.512762 0.02 0 0.524936 0.02 0 0.537005 0.02 0 0.548961 0.02 0 0.560819 0.02 0 0.572611 0.02 0 0.584367 0.02 0 0.596107 0.02 0 0.607841 0.02 0 0.619574 0.02 0 0.631307 0.02 0 0.643053 0.02 0 0.645663 0.02 0 0.648199 0.02 0 0.650691 0.02 0 0.653151 0.02 0 0.655591 0.02 0 0.658014 0.02 0 0.660428 0.02 0 0.662839 0.02 0 0.665251 0.02 0 0.667648 0.02 0 0.670033 0.02 0 0.672413 0.02 0 0.67479 0.02 0 0.677167 0.02 0 0.679543 0.02 0 0.681916 0.02 0 0.684287 0.02 0 0.686655 0.02 0 0.689024 0.02 0 0.691392 0.02 0 0.693758 0.02 0 0.696122 0.02 0 0.698486 0.02 0 0.700849 0.02 0 0.703213 0.02 0 0.705574 0.02 0 0.707937 0.02 0 0.7103 0.02 0 0.712663 0.02 0 0.715028 0.02 0 0.717391 0.02 0 0.719752 0.02 0 0.722113 0.02 0 0.724473 0.02 0 0.726834 0.02 0 0.729195 0.02 0 0.731558 0.02 0 0.733922 0.02 0 0.736287 0.02 0 0.738651 0.02 0 0.741012 0.02 0 0.743371 0.02 0 0.74573 0.02 0 0.748091 0.02 0 0.750454 0.02 0 0.752824 0.02 0 0.755209 0.02 0 0.75761 0.02 0 0.760062 0.02 0 0.762582 0.02 0 0.765213 0.02 0 0.767981 0.02 0 0.770959 0.02 0 0.774181 0.02 0 0.777729 0.02 0 0.781624 0.02 0 0.785867 0.02 0 0.790411 0.02 0 0.795174 0.02 0 0.800068 0.02 0 0.805025 0.02 0 0.810009 0.02 0 0.815003 0.02 0 0.820001 0.02 0 0.825 0.02 0 0.83 0.02 0 0.835 0.02 0 0.84 0.02 0 0.845 0.02 0 0.85 0.02 0 0.855 0.02 0 0.86 0.02 0 0.865 0.02 0 0.87 0.02 0 0.875 0.02 0 0.88 0.02 0 0.885 0.02 0 0.89 0.02 0 0.895 0.02 0 0.9 0.02 0 0.905 0.02 0 0.91 0.02 0 0.915 0.02 0 0.92 0.02 0 0.925 0.02 0 0.93 0.02 0 0.935 0.02 0 0.94 0.02 0 0.945 0.02 0 0.95 0.02 0 0.955 0.02 0 0.96 0.02 0 0.965 0.02 0 0.97 0.02 0 0.975 0.02 0 0.98 0.02 0 0.985 0.02 0 0.99 0.02 0 0.995 0.02 0 1 0.02 0 0 0.04 0 0.005 0.04 0 0.01 0.04 0 0.015 0.04 0 0.02 0.04 0 0.025 0.04 0 0.03 0.04 0 0.035 0.04 0 0.04 0.04 0 0.045 0.04 0 0.05 0.04 0 0.055 0.04 0 0.06 0.04 0 0.065 0.04 0 0.07 0.04 0 0.075 0.04 0 0.08 0.04 0 0.085 0.04 0 0.09 0.04 0 0.095 0.04 0 0.1 0.04 0 0.105 0.04 0 0.11 0.04 0 0.115 0.04 0 0.12 0.04 0 0.125 0.04 0 0.13 0.04 0 0.135 0.04 0 0.14 0.04 0 0.145 0.04 0 0.15 0.04 0 0.155 0.04 0 0.16 0.04 0 0.165 0.04 0 0.17 0.04 0 0.175 0.04 0 0.18 0.04 0 0.185 0.04 0 0.19 0.04 0 0.195 0.04 0 0.2 0.04 0 0.205 0.04 0 0.21 0.04 0 0.215 0.04 0 0.22 0.04 0 0.225 0.04 0 0.23 0.04 0 0.235 0.04 0 0.24 0.04 0 0.245 0.04 0 0.25 0.04 0 0.255 0.04 0 0.26 0.04 0 0.265 0.04 0 0.27 0.04 0 0.275 0.04 0 0.28 0.04 0 0.285 0.04 0 0.290001 0.04 0 0.295004 0.04 0 0.30001 0.04 0 0.305027 0.04 0 0.310064 0.04 0 0.315138 0.04 0 0.320267 0.04 0 0.325473 0.04 0 0.330774 0.04 0 0.336187 0.04 0 0.341724 0.04 0 0.347395 0.04 0 0.353212 0.04 0 0.359185 0.04 0 0.365324 0.04 0 0.371642 0.04 0 0.378151 0.04 0 0.384865 0.04 0 0.391799 0.04 0 0.398969 0.04 0 0.406396 0.04 0 0.414098 0.04 0 0.4221 0.04 0 0.430429 0.04 0 0.439113 0.04 0 0.448187 0.04 0 0.457687 0.04 0 0.467655 0.04 0 0.478131 0.04 0 0.489152 0.04 0 0.500725 0.04 0 0.512762 0.04 0 0.524936 0.04 0 0.537005 0.04 0 0.548961 0.04 0 0.560819 0.04 0 0.572611 0.04 0 0.584367 0.04 0 0.596107 0.04 0 0.607841 0.04 0 0.619574 0.04 0 0.631307 0.04 0 0.643053 0.04 0 0.645663 0.04 0 0.648199 0.04 0 0.650691 0.04 0 0.653151 0.04 0 0.655591 0.04 0 0.658014 0.04 0 0.660428 0.04 0 0.662839 0.04 0 0.665251 0.04 0 0.667648 0.04 0 0.670033 0.04 0 0.672413 0.04 0 0.67479 0.04 0 0.677167 0.04 0 0.679543 0.04 0 0.681916 0.04 0 0.684287 0.04 0 0.686655 0.04 0 0.689024 0.04 0 0.691392 0.04 0 0.693758 0.04 0 0.696122 0.04 0 0.698486 0.04 0 0.700849 0.04 0 0.703213 0.04 0 0.705574 0.04 0 0.707937 0.04 0 0.7103 0.04 0 0.712663 0.04 0 0.715028 0.04 0 0.717391 0.04 0 0.719752 0.04 0 0.722113 0.04 0 0.724473 0.04 0 0.726834 0.04 0 0.729195 0.04 0 0.731558 0.04 0 0.733922 0.04 0 0.736287 0.04 0 0.738651 0.04 0 0.741012 0.04 0 0.743371 0.04 0 0.74573 0.04 0 0.748091 0.04 0 0.750454 0.04 0 0.752824 0.04 0 0.755209 0.04 0 0.75761 0.04 0 0.760062 0.04 0 0.762582 0.04 0 0.765213 0.04 0 0.767981 0.04 0 0.770959 0.04 0 0.774181 0.04 0 0.777729 0.04 0 0.781624 0.04 0 0.785867 0.04 0 0.790411 0.04 0 0.795174 0.04 0 0.800068 0.04 0 0.805025 0.04 0 0.810009 0.04 0 0.815003 0.04 0 0.820001 0.04 0 0.825 0.04 0 0.83 0.04 0 0.835 0.04 0 0.84 0.04 0 0.845 0.04 0 0.85 0.04 0 0.855 0.04 0 0.86 0.04 0 0.865 0.04 0 0.87 0.04 0 0.875 0.04 0 0.88 0.04 0 0.885 0.04 0 0.89 0.04 0 0.895 0.04 0 0.9 0.04 0 0.905 0.04 0 0.91 0.04 0 0.915 0.04 0 0.92 0.04 0 0.925 0.04 0 0.93 0.04 0 0.935 0.04 0 0.94 0.04 0 0.945 0.04 0 0.95 0.04 0 0.955 0.04 0 0.96 0.04 0 0.965 0.04 0 0.97 0.04 0 0.975 0.04 0 0.98 0.04 0 0.985 0.04 0 0.99 0.04 0 0.995 0.04 0 1 0.04 0 0 0.06 0 0.005 0.06 0 0.01 0.06 0 0.015 0.06 0 0.02 0.06 0 0.025 0.06 0 0.03 0.06 0 0.035 0.06 0 0.04 0.06 0 0.045 0.06 0 0.05 0.06 0 0.055 0.06 0 0.06 0.06 0 0.065 0.06 0 0.07 0.06 0 0.075 0.06 0 0.08 0.06 0 0.085 0.06 0 0.09 0.06 0 0.095 0.06 0 0.1 0.06 0 0.105 0.06 0 0.11 0.06 0 0.115 0.06 0 0.12 0.06 0 0.125 0.06 0 0.13 0.06 0 0.135 0.06 0 0.14 0.06 0 0.145 0.06 0 0.15 0.06 0 0.155 0.06 0 0.16 0.06 0 0.165 0.06 0 0.17 0.06 0 0.175 0.06 0 0.18 0.06 0 0.185 0.06 0 0.19 0.06 0 0.195 0.06 0 0.2 0.06 0 0.205 0.06 0 0.21 0.06 0 0.215 0.06 0 0.22 0.06 0 0.225 0.06 0 0.23 0.06 0 0.235 0.06 0 0.24 0.06 0 0.245 0.06 0 0.25 0.06 0 0.255 0.06 0 0.26 0.06 0 0.265 0.06 0 0.27 0.06 0 0.275 0.06 0 0.28 0.06 0 0.285 0.06 0 0.290001 0.06 0 0.295004 0.06 0 0.30001 0.06 0 0.305027 0.06 0 0.310064 0.06 0 0.315138 0.06 0 0.320267 0.06 0 0.325473 0.06 0 0.330774 0.06 0 0.336187 0.06 0 0.341724 0.06 0 0.347395 0.06 0 0.353212 0.06 0 0.359185 0.06 0 0.365324 0.06 0 0.371642 0.06 0 0.378151 0.06 0 0.384865 0.06 0 0.391799 0.06 0 0.398969 0.06 0 0.406396 0.06 0 0.414098 0.06 0 0.4221 0.06 0 0.430429 0.06 0 0.439113 0.06 0 0.448187 0.06 0 0.457687 0.06 0 0.467655 0.06 0 0.478131 0.06 0 0.489152 0.06 0 0.500725 0.06 0 0.512762 0.06 0 0.524936 0.06 0 0.537005 0.06 0 0.548961 0.06 0 0.560819 0.06 0 0.572611 0.06 0 0.584367 0.06 0 0.596107 0.06 0 0.607841 0.06 0 0.619574 0.06 0 0.631307 0.06 0 0.643053 0.06 0 0.645663 0.06 0 0.648199 0.06 0 0.650691 0.06 0 0.653151 0.06 0 0.655591 0.06 0 0.658014 0.06 0 0.660428 0.06 0 0.662839 0.06 0 0.665251 0.06 0 0.667648 0.06 0 0.670033 0.06 0 0.672413 0.06 0 0.67479 0.06 0 0.677167 0.06 0 0.679543 0.06 0 0.681916 0.06 0 0.684287 0.06 0 0.686655 0.06 0 0.689024 0.06 0 0.691392 0.06 0 0.693758 0.06 0 0.696122 0.06 0 0.698486 0.06 0 0.700849 0.06 0 0.703213 0
[...]
			<PointData Scalars="VitesseX">
				<DataArray Name="VitesseX" type="Float32" format="ascii">
 0 5.71342e-18 -1.12393e-15 -4.46466e-16 2.11422e-15 4.41208e-16 8.20304e-16 2.73359e-15 3.83513e-15 7.4902e-15 8.87503e-15 2.83579e-15 1.36416e-14 1.24234e-14 8.04642e-15 1.11828e-14 1.1685e-14 -1.42268e-14 2.01825e-14 1.03781e-15 9.83929e-15 1.63272e-14 4.86406e-15 2.58741e-15 1.19582e-14 2.13534e-14 9.63961e-15 1.58754e-14 -1.34724e-14 -3.22945e-15 -1.6185e-14 1.53516e-14 -8.3099e-15 -1.12168e-14 -1.24241e-14 2.45174e-14 -3.15582e-15 2.2091e-14 -8.24804e-15 -1.58997e-15 5.96535e-14 1.06492e-14 5.11655e-14 8.31929e-14 3.36493e-14 3.70011e-13 2.07542e-12 1.38034e-11 8.87298e-11 5.37181e-10 3.07284e-09 1.65626e-08 8.38928e-08 3.98152e-07 1.76451e-06 7.27372e-06 2.7763e-05 9.75939e-05 0.000313961 0.000917583 0.00241691 0.00569419 0.011938 0.0222702 0.0372215 0.056492 0.0792214 0.104476 0.131558 0.160055 0.189754 0.220564 0.252455 0.285434 0.319528 0.354782 0.39125 0.428999 0.468104 0.508649 0.550721 0.594412 0.639803 0.686955 0.735861 0.786358 0.837893 0.888884 0.934839 0.963153 0.957317 0.948161 0.939306 0.933151 0.929678 0.928043 0.927336 0.927005 0.926805 0.926634 0.926472 0.926507 0.926648 0.926846 0.926763 0.926728 0.926644 0.926549 0.926447 0.926354 0.926273 0.926207 0.926162 0.926139 0.926133 0.926197 0.926451 0.926531 0.926494 0.926396 0.926321 0.926232 0.926135 0.926055 0.926 0.925982 0.926104 0.926785 0.927047 0.92686 0.926444 0.926121 0.925782 0.925448 0.925248 0.925161 0.925475 0.927068 0.92634 0.925573 0.924356 0.923495 0.923078 0.924523 0.925686 0.92661 0.921696 0.923835 0.901003 0.865641 0.857507 0.808634 0.72439 0.679768 0.551302 0.440208 0.312558 0.198707 0.108841 0.0511362 0.0211781 0.00812866 0.00300941 0.00109729 0.00039743 0.000143414 5.16003e-05 1.85103e-05 6.61758e-06 2.35652e-06 8.35334e-07 2.94566e-07 1.03264e-07 3.59649e-08 1.24362e-08 4.26681e-09 1.45173e-09 4.89578e-10 1.63512e-10 5.41388e-11 1.77403e-11 5.66405e-12 1.87277e-12 5.78717e-13 1.05064e-13 6.01417e-14 1.53014e-13 -1.18264e-13 -1.2436e-13 -1.50653e-14 5.93815e-14 -5.34399e-14 4.6496e-14 -1.39296e-13 1.99938e-14 -7.07287e-14 -6.98679e-14 3.87178e-14 -2.86738e-14 -7.549e-14 0 0 1.75672e-16 -1.08196e-15 -1.74449e-15 -2.08405e-15 2.34182e-15 -1.06769e-15 6.53488e-15 7.21819e-15 4.55916e-15 4.95825e-15 7.3701e-15 1.02684e-15 1.37519e-14 1.05086e-14 1.24408e-14 3.33289e-15 1.09157e-14 5.83278e-15 9.19683e-15 -3.95222e-15 1.20647e-14 1.28282e-14 1.21965e-14 1.1766e-14 -2.10923e-14 2.53594e-14 8.91478e-15 -5.92944e-15 -5.56636e-15 1.95586e-14 -7.69884e-15 -1.18436e-14 4.0173e-15 -1.88009e-14 1.83712e-14 1.30782e-14 1.09238e-14 3.98926e-16 -1.44774e-14 3.17743e-14 7.66716e-14 4.83523e-14 3.18201e-14 1.06509e-13 3.6424e-13 2.0529e-12 1.38197e-11 8.8669e-11 5.37166e-10 3.0728e-09 1.65626e-08 8.38928e-08 3.98152e-07 1.76451e-06 7.27372e-06 2.7763e-05 9.75939e-05 0.000313961 0.000917583 0.00241691 0.00569419 0.011938 0.0222702 0.0372215 0.056492 0.0792214 0.104476 0.131558 0.160055 0.189754 0.220564 0.252455 0.285434 0.319528 0.354782 0.39125 0.428999 0.468104 0.508649 0.550721 0.594412 0.639803 0.686955 0.735861 0.786358 0.837893 0.888884 0.934839 0.963153 0.957317 0.948161 0.939306 0.933151 0.929678 0.928043 0.927336 0.927005 0.926805 0.926634 0.926472 0.926507 0.926648 0.926846 0.926763 0.926728 0.926644 0.926549 0.926447 0.926354 0.926273 0.926207 0.926162 0.926139 0.926133 0.926197 0.926451 0.926531 0.926494 0.926396 0.926321 0.926232 0.926135 0.926055 0.926 0.925982 0.926104 0.926785 0.927047 0.92686 0.926444 0.926121 0.925782 0.925448 0.925248 0.925161 0.925475 0.927068 0.92634 0.925573 0.924356 0.923495 0.923078 0.924523 0.925686 0.92661 0.921696 0.923835 0.901003 0.865641 0.857507 0.808634 0.72439 0.679768 0.551302 0.440208 0.312558 0.198707 0.108841 0.0511362 0.0211781 0.00812866 0.00300941 0.00109729 0.00039743 0.000143414 5.16003e-05 1.85103e-05 6.61758e-06 2.35652e-06 8.35334e-07 2.94566e-07 1.03264e-07 3.59649e-08 1.24361e-08 4.26687e-09 1.45173e-09 4.89578e-10 1.63518e-10 5.40255e-11 1.77506e-11 5.73987e-12 1.81823e-12 6.31773e-13 1.48646e-13 8.85103e-14 -2.33157e-15 -7.18633e-14 3.71045e-14 -1.20631e-13 -6.10978e-15 1.40927e-15 -7.27923e-14 5.64948e-14 -3.34468e-14 -2.78545e-14 -5.44324e-14 6.67183e-14 -8.85361e-14 7.92484e-14 0 0 4.50906e-16 1.26667e-15 1.80762e-15 -2.68165e-15 1.56727e-15 -8.36051e-16 6.87809e-15 6.73823e-15 5.34726e-15 2.1858e-15 9.53231e-15 6.44594e-16 6.03549e-15 1.04627e-14 1.34914e-14 1.17924e-14 6.78697e-15 5.11532e-15 8.61766e-15 -5.81002e-15 1.06843e-14 9.48516e-15 2.10922e-15 6.5958e-15 -2.14071e-14 5.58396e-15 -2.94121e-15 -1.28577e-14 9.01713e-15 2.70661e-14 2.24553e-14 -1.34279e-14 -1.93207e-14 3.44065e-15 1.86728e-14 1.29882e-14 1.71913e-14 1.84656e-14 -3.01004e-15 4.21918e-16 8.9569e-14 7.74505e-14 4.49261e-14 1.09923e-13 3.34985e-13 2.01542e-12 1.38388e-11 8.86495e-11 5.37172e-10 3.07275e-09 1.65625e-08 8.38929e-08 3.98152e-07 1.76451e-06 7.27372e-06 2.7763e-05 9.75939e-05 0.000313961 0.000917583 0.00241691 0.00569419 0.011938 0.0222702 0.0372215 0.056492 0.0792214 0.104476 0.131558 0.160055 0.189754 0.220564 0.252455 0.285434 0.319528 0.354782 0.39125 0.428999 0.468104 0.508649 0.550721 0.594412 0.639803 0.686955 0.735861 0.786358 0.837893 0.888884 0.934839 0.963153 0.957317 0.948161 0.939306 0.933151 0.929678 0.928043 0.927336 0.927005 0.926805 0.926634 0.926472 0.926507 0.926648 0.926846 0.926763 0.926728 0.926644 0.926549 0.926447 0.926354 0.926273 0.926207 0.926162 0.926139 0.926133 0.926197 0.926451 0.926531 0.926494 0.926396 0.926321 0.926232 0.926135 0.926055 0.926 0.925982 0.926104 0.926785 0.927047 0.92686 0.926444 0.926121 0.925782 0.925448 0.925248 0.925161 0.925475 0.927068 0.92634 0.925573 0.924356 0.923495 0.923078 0.924523 0.925686 0.92661 0.921696 0.923835 0.901003 0.865641 0.857507 0.808634 0.72439 0.679768 0.551302 0.440208 0.312558 0.198707 0.108841 0.0511362 0.0211781 0.00812866 0.00300941 0.00109729 0.00039743 0.000143414 5.16003e-05 1.85103e-05 6.61758e-06 2.35652e-06 8.35334e-07 2.94566e-07 1.03264e-07 3.59648e-08 1.24361e-08 4.26679e-09 1.45176e-09 4.89586e-10 1.63593e-10 5.39788e-11 1.77143e-11 5.83489e-12 1.82863e-12 6.51271e-13 1.16634e-13 -4.66709e-14 -4.48397e-14 1.71068e-14 6.19522e-15 -1.08046e-13 8.39994e-14 -6.19672e-14 -1.37933e-13 1.28718e-13 1.11678e-13 -1.01637e-13 -1.27353e-14 -1.3718e-15 4.70801e-14 3.28675e-14 0 0 4.04019e-16 1.77223e-15 7.17246e-15 3.0332e-15 2.32857e-15 3.21533e-15 6.15944e-15 4.81783e-15 9.68713e-15 8.90989e-15 7.28795e-15 6.47585e-15 -8.01313e-16 5.28547e-15 3.94348e-15 4.99159e-15 1.07127e-14 1.26994e-14 -8.02058e-15 2.42766e-15 1.98028e-15 -9.09741e-15 -1.24355e-15 1.12554e-14 -5.01657e-16 -7.36225e-15 -1.41073e-14 -9.86837e-15 2.84824e-16 -1.1203e-15 4.17749e-14 1.71757e-14 -6.88436e-15 2.77905e-15 1.4362e-14 4.12601e-14 2.20596e-14 6.23906e-15 5.25529e-14 -1.17485e-14 3.52544e-14 8.34666e-14 4.13833e-14 1.45974e-13 2.717e-13 2.05229e-12 1.37955e-11 8.86661e-11 5.37176e-10 3.07274e-09 1.65624e-08 8.38929e-08 3.98152e-07 1.76451e-06 7.27372e-06 2.7763e-05 9.75939e-05 0.000313961 0.000917583 0.00241691 0.00569419 0.011938 0.0222702 0.0372215 0.056492 0.0792214 0.104476 0.131558 0.160055 0.189754 0.220564 0.252455 0.285434 0.319528 0.354782 0.39125 0.428999 0.468104 0.508649 0.550721 0.594412 0.639803 0.686955 0.735861 0.786358 0.837893 0.888884 0.934839 0.963153 0.957317 0.948161 0.939306 0.933151 0.929678 0.928043 0.927336 0.927005 0.926805 0.926634 0.926472 0.926507 0.926648 0.926846 0.926763 0.926728 0.926644 0.926549 0.926447 0.926354 0.926273 0.926207 0.926162 0.926139 0.926133 0.926197 0.926451 0.926531 0.926494 0.926396 0.926321 0.926232 0.926135 0.926055 0.926 0.925982 0.926104 0.926785 0.927047 0.92686 0.926444 0.926121 0.925782 0.925448 0.925248 0.925161 0.925475 0.927068 0.92634 0.925573 0.924356 0.923495 0.923078 0.924523 0.925686 0.92661 0.921696 0.923835 0.901003 0.865641 0.857507 0.808634 0.72439 0.679768 0.551302 0.440208 0.312558 0.198707 0.108841 0.0511362 0.0211781 0.00812866 0.00300941 0.00109729 0.00039743 0.000143414 5.16003e-05 1.85103e-05 6.61758e-06 2.35652e-06 8.35334e-07 2.94566e-07 1.03264e-07 3.59648e-08 1.24362e-08 4.26687e-09 1.45171e-09 4.89551e-10 1.63696e-10 5.40851e-11 1.78482e-11 5.79273e-12 1.82689e-12 4.53781e-13 3.9429e-14 7.07068e-14 -2.81897e-14 -1.68922e-13 -1.36002e-13 9.38761e-14 2.21867e-13 -1.96026e-13 2.14001e-13 -2.00184e-13 1.43771e-13 2.10634e-14 -2.06946e-14 8.33562e-14 1.70446e-14 -1.13088e-13 0 0 1.21368e-16 -5.98585e-16 6.01927e-16 5.61062e-15 9.88775e-15 1.01839e-14 9.24728e-15 1.41851e-15 1.42012e-14 5.64492e-15 2.4398e-15 3.56569e-15 -7.55187e-15 3.24631e-15 5.58699e-15 -1.34507e-14 2.35248e-14 -2.07268e-14 -1.45943e-15 -6.27082e-15 -3.38441e-15 -9.78623e-15 3.98294e-15 -2.34886e-16 -1.41554e-14 -3.81392e-15 9.84887e-15 9.67988e-16 -6.88825e-15 1.1002e-14 2.16666e-15 2.48486e-14 2.49834e-14 1.72689e-15 3.40027e-14 7.64366e-14 -5.48346e-16 -1.65068e-14 5.41493e-14 5.19638e-14 -9.01243e-15 8.04768e-14 2.51764e-14 2.29324e-13 3.07158e-13 1.98614e-12 1.3757e-11 8.85738e-11 5.37193e-10 3.07277e-09 1.65624e-08 8.38928e-08 3.98152e-07 1.76451e-06 7.27372e-06 2.7763e-05 9.75939e-05 0.000313961 0.000917583 0.00241691 0.00569419 0.011938 0.0222702 0.0372215 0.056492 0.0792214 0.104476 0.131558 0.160055 0.189754 0.220564 0.252455 0.285434 0.319528 0.354782 0.39125 0.428999 0.468104 0.508649 0.550721 0.594412 0.639803 0.686955 0.735861 0.786358 0.837893 0.888884 0.934839 0.963153 0.957317 0.948161 0.939306 0.933151 0.929678 0.928043 0.927336 0.927005 0.926805 0.926634 0.926472 0.926507 0.926648 0.926846 0.926763 0.926728 0.926644 0.926549 0.926447 0.926354 0.926273 0.926207 0.926162 0.926139 0.926133 0.926197 0.926451 0.926531 0.926494 0.926396 0.926321 0.926232 0.926135 0.926055 0.926 0.925982 0.926104 0.926785 0.927047 0.92686 0.926444 0.926121 0.925782 0.925448 0.925248 0.925161 0.925475 0.927068 0.92634 0.925573 0.924356 0.923495 0.923078 0.924523 0.925686 0.92661 0.921696 0.923835 0.901003 0.865641 0.857507 0.808634 0.72439 0.679768 0.551302 0.440208 0.312558 0.198707 0.108841 0.0511362 0.0211781 0.00812866 0.00300941 0.00109729 0.00039743 0.000143414 5.16003e-05 1.85103e-05 6.61758e-06 2.35652e-06 8.35334e-07 2.94566e-07 1.03265e-07 3.59648e-08 1.24362e-08 4.26691e-09 1.45174e-09 4.89625e-10 1.63554e-10 5.43246e-11 1.79248e-11 5.97439e-12 1.72609e-12 2.65066e-13 -2.34336e-14 2.01219e-13 -1.03401e-13 -2.57613e-13 -4.81581e-14 4.37523e-14 1.47057e-13 -5.38898e-14 2.57363e-13 -4.26573e-14 7.47203e-14 -3.24209e-14 -1.76946e-14 1.65056e-13 -1.4556e-13 8.74923e-14 0 0 -9.12256e-18 -1.16831e-15 -6.4833e-15 6.07386e-15 1.40104e-14 1.52208e-14 9.59569e-15 -3.92344e-15 1.80945e-14 -3.19981e-15 -2.5361e-15 7.05682e-15 -1.65105e-14 3.87626e-15 1.65709e-14 -8.2805e-15 3.13997e-15 -4.8105e-14 1.30018e-14 -1.12733e-14 2.837e-15 -3.19958e-15 -7.13408e-15 -2.13629e-14 -6.58371e-15 -2.28146e-14 4.00757e-14 -5.65613e-15 1.15914e-14 2.30746e-14 -3.55651e-15 3.86746e-15 5.8427e-15 2.99546e-14 6.44019e-14 6.70173e-14 -1.05899e-14 -1.76064e-14 2.45375e-14 1.24373e-13 -5.20895e-14 1.03382e-13 7.69912e-14 2.07178e-13 3.82417e-13 1.86814e-12 1.37647e-11 8.85061e-11 5.37227e-10 3.07279e-09 1.65624e-08 8.38928e-08 3.98152e-07 1.76451e-06 7.27372e-06 2.7763e-05 9.75939e-05 0.000313961 0.000917583 0.00241691 0.00569419 0.011938 0.0222702 0.0372215 0.056492 0.0792214 0.104476 0.131558 0.160055 0.189754 0.220564 0.252455 0.285434 0.319528 0.354782 0.39125 0.428999 0.468104 0.508649 0.550721 0.594412 0.639803 0.686955 0.735861 0.786358 0.837893 0.888884 0.934839 0.963153 0.957317 0.948161 0.939306 0.933151 0.929678 0.928043 0.927336 0.927005 0.926805 0.926634 0.926472 0.926507 0.926648 0.926846 0.926763 0.926728 0.926644 0.926549 0.926447 0.926354 0.926273 0.926207 0.926162 0.926139 0.926133 0.926197 0.926451 0.926531 0.926494 0.926396 0.926321 0.926232 0.926135 0.926055 0.926 0.925982 0.926104 0.926785 0.927047 0.92686 0.926444 0.926121 0.925782 0.925448 0.925248 0.925161 0.925475 0.927068 0.92634 0.925573 0.924356 0.923495 0.923078 0.924523 0.925686 0.92661 0.921696 0.923835 0.901003 0.865641 0.857507 0.808634 0.72439 0.679768 0.551302 0.440208 0.312558 0.198707 0.108841 0.0511362 0.0211781 0.00812866 0.00300941 0.00109729 0.00039743 0.000143414 5.16003e-05 1.85103e-05 6.61758e-06 2.35652e-06 8.35334e-07 2.94566e-07 1.03264e-07 3.5965e-08 1.24362e-08 4.26675e-09 1.45185e-09 4.89741e-10 1.63378e-10 5.45252e-11 1.7821e-11 6.21719e-12 1.69186e-12 2.4018e-13 -8.4178e-14 5.09283e-14 -8.27043e-14 -1.17308e-13 -1.10598e-14 -9.13463e-14 8.94082e-14 1.03619e-13 2.96586e-15 3.20843e-13 1.72648e-13 -3.25441e-13 1.92238e-14 6.62673e-14 -8.32918e-14 2.31362e-13 0
				</DataArray>
				<DataArray Name="VitesseY" type="Float32" format="ascii">