<?xml version="1.0"?>
<VTKFile type="PolyData">
	<PolyData>
		<Piece NumberOfPoints="1206" NumberOfPolys="1000">
			<Points>
				<DataArray type="Float32" NumberOfComponents="3" format="ascii">
 0 0 0 0.005 0 0 0.01 0 0 0.015 0 0 0.02 0 0 0.025 0 0 0.03 0 0 0.035 0 0 0.04 0 0 0.045 0 0 0.05 0 0 0.055 0 0 0.06 0 0 0.065 0 0 0.07 0 0 0.075 0 0 0.08 0 0 0.085 0 0 0.09 0 0 0.095 0 0 0.1 0 0 0.105 0 0 0.11 0 0 0.115 0 0 0.12 0 0 0.125 0 0 0.13 0 0 0.135 0 0 0.14 0 0 0.145 0 0 0.15 0 0 0.155 0 0 0.16 0 0 0.165 0 0 0.17 0 0 0.175 0 0 0.18 0 0 0.185 0 0 0.19 0 0 0.195 0 0 0.2 0 0 0.205 0 0 0.21 0 0 0.215 0 0 0.22 0 0 0.225 0 0 0.23 0 0 0.235 0 0 0.240001 0 0 0.245004 0 0 0.25001 0 0 0.255025 0 0 0.260056 0 0 0.265115 0 0 0.270215 0 0 0.275371 0 0 0.280598 0 0 0.285906 0 0 0.291306 0 0 0.296804 0 0 0.302407 0 0 0.308123 0 0 0.313956 0 0 0.319914 0 0 0.326002 0 0 0.332229 0 0 0.338602 0 0 0.345128 0 0 0.351817 0 0 0.358677 0 0 0.36572 0 0 0.372955 0 0 0.380396 0 0 0.388055 0 0 0.395947 0 0 0.404088 0 0 0.412496 0 0 0.421189 0 0 0.430189 0 0 0.43952 0 0 0.449207 0 0 0.459277 0 0 0.469759 0 0 0.480677 0 0 0.492044 0 0 0.503838 0 0 0.515928 0 0 0.528034 0 0 0.540056 0 0 0.551988 0 0 0.56384 0 0 0.575636 0 0 0.587395 0 0 0.599137 0 0 0.61087 0 0 0.622599 0 0 0.634326 0 0 0.646054 0 0 0.657782 0 0 0.669512 0 0 0.681256 0 0 0.683866 0 0 0.686402 0 0 0.688893 0 0 0.691353 0 0 0.693792 0 0 0.696215 0 0 0.698629 0 0 0.70104 0 0 0.703452 0 0 0.705849 0 0 0.708234 0 0 0.710615 0 0 0.712992 0 0 0.715369 0 0 0.717745 0 0 0.720117 0 0 0.722487 0 0 0.724855 0 0 0.727222 0 0 0.72959 0 0 0.731955 0 0 0.734318 0 0 0.736681 0 0 0.739044 0 0 0.741408 0 0 0.743769 0 0 0.746131 0 0 0.748491 0 0 0.750852 0 0 0.753214 0 0 0.755575 0 0 0.757935 0 0 0.760294 0 0 0.762654 0 0 0.765015 0 0 0.767374 0 0 0.769734 0 0 0.772094 0 0 0.774455 0 0 0.776817 0 0 0.779178 0 0 0.781538 0 0 0.783897 0 0 0.786257 0 0 0.788617 0 0 0.790978 0 0 0.79334 0 0 0.7957 0 0 0.79806 0 0 0.800422 0 0 0.802783 0 0 0.805146 0 0 0.807509 0 0 0.809871 0 0 0.812235 0 0 0.814601 0 0 0.816966 0 0 0.819329 0 0 0.821689 0 0 0.824047 0 0 0.826414 0 0 0.828804 0 0 0.83124 0 0 0.833722 0 0 0.836303 0 0 0.838992 0 0 0.841869 0 0 0.844967 0 0 0.848363 0 0 0.852093 0 0 0.856177 0 0 0.86059 0 0 0.865262 0 0 0.870106 0 0 0.87504 0 0 0.880015 0 0 0.885005 0 0 0.890002 0 0 0.895001 0 0 0.9 0 0 0.905 0 0 0.91 0 0 0.915 0 0 0.92 0 0 0.925 0 0 0.93 0 0 0.935 0 0 0.94 0 0 0.945 0 0 0.95 0 0 0.955 0 0 0.96 0 0 0.965 0 0 0.97 0 0 0.975 0 0 0.98 0 0 0.985 0 0 0.99 0 0 0.995 0 0 1 0 0 0 0.02 0 0.005 0.02 0 0.01 0.02 0 0.015 0.02 0 0.02 0.02 0 0.025 0.02 0 0.03 0.02 0 0.035 0.02 0 0.04 0.02 0 0.045 0.02 0 0.05 0.02 0 0.055 0.02 0 0.06 0.02 0 0.065 0.02 0 0.07 0.02 0 0.075 0.02 0 0.08 0.02 0 0.085 0.02 0 0.09 0.02 0 0.095 0.02 0 0.1 0.02 0 0.105 0.02 0 0.11 0.02 0 0.115 0.02 0 0.12 0.02 0 0.125 0.02 0 0.13 0.02 0 0.135 0.02 0 0.14 0.02 0 0.145 0.02 0 0.15 0.02 0 0.155 0.02 0 0.16 0.02 0 0.165 0.02 0 0.17 0.02 0 0.175 0.02 0 0.18 0.02 0 0.185 0.02 0 0.19 0.02 0 0.195 0.02 0 0.2 0.02 0 0.205 0.02 0 0.21 0.02 0 0.215 0.02 0 0.22 0.02 0 0.225 0.02 0 0.23 0.02 0 0.235 0.02 0 0.240001 0.02 0 0.245004 0.02 0 0.25001 0.02 0 0.255025 0.02 0 0.260056 0.02 0 0.265115 0.02 0 0.270215 0.02 0 0.275371 0.02 0 0.280598 0.02 0 0.285906 0.02 0 0.291306 0.02 0 0.296804 0.02 0 0.302407 0.02 0 0.308123 0.02 0 0.313956 0.02 0 0.319914 0.02 0 0.326002 0.02 0 0.332229 0.02 0 0.338602 0.02 0 0.345128 0.02 0 0.351817 0.02 0 0.358677 0.02 0 0.36572 0.02 0 0.372955 0.02 0 0.380396 0.02 0 0.388055 0.02 0 0.395947 0.02 0 0.404088 0.02 0 0.412496 0.02 0 0.421189 0.02 0 0.430189 0.02 0 0.43952 0.02 0 0.449207 0.02 0 0.459277 0.02 0 0.469759 0.02 0 0.480677 0.02 0 0.492044 0.02 0 0.503838 0.02 0 0.515928 0.02 0 0.528034 0.02 0 0.540056 0.02 0 0.551988 0.02 0 0.56384 0.02 0 0.575636 0.02 0 0.587395 0.02 0 0.599137 0.02 0 0.61087 0.02 0 0.622599 0.02 0 0.634326 0.02 0 0.646054 0.02 0 0.657782 0.02 0 0.669512 0.02 0 0.681256 0.02 0 0.683866 0.02 0 0.686402 0.02 0 0.688893 0.02 0 0.691353 0.02 0 0.693792 0.02 0 0.696215 0.02 0 0.698629 0.02 0 0.70104 0.02 0 0.703452 0.02 0 0.705849 0.02 0 0.708234 0.02 0 0.710615 0.02 0 0.712992 0.02 0 0.715369 0.02 0 0.717745 0.02 0 0.720117 0.02 0 0.722487 0.02 0 0.724855 0.02 0 0.727222 0.02 0 0.72959 0.02 0 0.731955 0.02 0 0.734318 0.02 0 0.736681 0.02 0 0.739044 0.02 0 0.741408 0.02 0 0.743769 0.02 0 0.746131 0.02 0 0.748491 0.02 0 0.750852 0.02 0 0.753214 0.02 0 0.755575 0.02 0 0.757935 0.02 0 0.760294 0.02 0 0.762654 0.02 0 0.765015 0.02 0 0.767374 0.02 0 0.769734 0.02 0 0.772094 0.02 0 0.774455 0.02 0 0.776817 0.02 0 0.779178 0.02 0 0.781538 0.02 0 0.783897 0.02 0 0.786257 0.02 0 0.788617 0.02 0 0.790978 0.02 0 0.79334 0.02 0 0.7957 0.02 0 0.79806 0.02 0 0.800422 0.02 0 0.802783 0.02 0 0.805146 0.02 0 0.807509 0.02 0 0.809871 0.02 0 0.812235 0.02 0 0.814601 0.02 0 0.816966 0.02 0 0.819329 0.02 0 0.821689 0.02 0 0.824047 0.02 0 0.826414 0.02 0 0.828804 0.02 0 0.83124 0.02 0 0.833722 0.02 0 0.836303 0.02 0 0.838992 0.02 0 0.841869 0.02 0 0.844967 0.02 0 0.848363 0.02 0 0.852093 0.02 0 0.856177 0.02 0 0.86059 0.02 0 0.865262 0.02 0 0.870106 0.02 0 0.87504 0.02 0 0.880015 0.02 0 0.885005 0.02 0 0.890002 0.02 0 0.895001 0.02 0 0.9 0.02 0 0.905 0.02 0 0.91 0.02 0 0.915 0.02 0 0.92 0.02 0 0.925 0.02 0 0.93 0.02 0 0.935 0.02 0 0.94 0.02 0 0.945 0.02 0 0.95 0.02 0 0.955 0.02 0 0.96 0.02 0 0.965 0.02 0 0.97 0.02 0 0.975 0.02 0 0.98 0.02 0 0.985 0.02 0 0.99 0.02 0 0.995 0.02 0 1 0.02 0 0 0.04 0 0.005 0.04 0 0.01 0.04 0 0.015 0.04 0 0.02 0.04 0 0.025 0.04 0 0.03 0.04 0 0.035 0.04 0 0.04 0.04 0 0.045 0.04 0 0.05 0.04 0 0.055 0.04 0 0.06 0.04 0 0.065 0.04 0 0.07 0.04 0 0.075 0.04 0 0.08 0.04 0 0.085 0.04 0 0.09 0.04 0 0.095 0.04 0 0.1 0.04 0 0.105 0.04 0 0.11 0.04 0 0.115 0.04 0 0.12 0.04 0 0.125 0.04 0 0.13 0.04 0 0.135 0.04 0 0.14 0.04 0 0.145 0.04 0 0.15 0.04 0 0.155 0.04 0 0.16 0.04 0 0.165 0.04 0 0.17 0.04 0 0.175 0.04 0 0.18 0.04 0 0.185 0.04 0 0.19 0.04 0 0.195 0.04 0 0.2 0.04 0 0.205 0.04 0 0.21 0.04 0 0.215 0.04 0 0.22 0.04 0 0.225 0.04 0 0.23 0.04 0 0.235 0.04 0 0.240001 0.04 0 0.245004 0.04 0 0.25001 0.04 0 0.255025 0.04 0 0.260056 0.04 0 0.265115 0.04 0 0.270215 0.04 0 0.275371 0.04 0 0.280598 0.04 0 0.285906 0.04 0 0.291306 0.04 0 0.296804 0.04 0 0.302407 0.04 0 0.308123 0.04 0 0.313956 0.04 0 0.319914 0.04 0 0.326002 0.04 0 0.332229 0.04 0 0.338602 0.04 0 0.345128 0.04 0 0.351817 0.04 0 0.358677 0.04 0 0.36572 0.04 0 0.372955 0.04 0 0.380396 0.04 0 0.388055 0.04 0 0.395947 0.04 0 0.404088 0.04 0 0.412496 0.04 0 0.421189 0.04 0 0.430189 0.04 0 0.43952 0.04 0 0.449207 0.04 0 0.459277 0.04 0 0.469759 0.04 0 0.480677 0.04 0 0.492044 0.04 0 0.503838 0.04 0 0.515928 0.04 0 0.528034 0.04 0 0.540056 0.04 0 0.551988 0.04 0 0.56384 0.04 0 0.575636 0.04 0 0.587395 0.04 0 0.599137 0.04 0 0.61087 0.04 0 0.622599 0.04 0 0.634326 0.04 0 0.646054 0.04 0 0.657782 0.04 0 0.669512 0.04 0 0.681256 0.04 0 0.683866 0.04 0 0.686402 0.04 0 0.688893 0.04 0 0.691353 0.04 0 0.693792 0.04 0 0.696215 0.04 0 0.698629 0.04 0 0.70104 0.04 0 0.703452 0.04 0 0.705849 0.04 0 0.708234 0.04 0 0.710615 0.04 0 0.712992 0.04 0 0.715369 0.04 0 0.717745 0.04 0 0.720117 0.04 0 0.722487 0.04 0 0.724855 0.04 0 0.727222 0.04 0 0.72959 0.04 0 0.731955 0.04 0 0.734318 0.04 0 0.736681 0.04 0 0.739044 0.04 0 0.741408 0.04 0 0.743769 0.04 0 0.746131 0.04 0 0.748491 0.04 0 0.750852 0.04 0 0.753214 0.04 0 0.755575 0.04 0 0.757935 0.04 0 0.760294 0.04 0 0.762654 0.04 0 0.765015 0.04 0 0.767374 0.04 0 0.769734 0.04 0 0.772094 0.04 0 0.774455 0.04 0 0.776817 0.04 0 0.779178 0.04 0 0.781538 0.04 0 0.783897 0.04 0 0.786257 0.04 0 0.788617 0.04 0 0.790978 0.04 0 0.79334 0.04 0 0.7957 0.04 0 0.79806 0.04 0 0.800422 0.04 0 0.802783 0.04 0 0.805146 0.04 0 0.807509 0.04 0 0.809871 0.04 0 0.812235 0.04 0 0.814601 0.04 0 0.816966 0.04 0 0.819329 0.04 0 0.821689 0.04 0 0.824047 0.04 0 0.826414 0.04 0 0.828804 0.04 0 0.83124 0.04 0 0.833722 0.04 0 0.836303 0.04 0 0.838992 0.04 0 0.841869 0.04 0 0.844967 0.04 0 0.848363 0.04 0 0.852093 0.04 0 0.856177 0.04 0 0.86059 0.04 0 0.865262 0.04 0 0.870106 0.04 0 0.87504 0.04 0 0.880015 0.04 0 0.885005 0.04 0 0.890002 0.04 0 0.895001 0.04 0 0.9 0.04 0 0.905 0.04 0 0.91 0.04 0 0.915 0.04 0 0.92 0.04 0 0.925 0.04 0 0.93 0.04 0 0.935 0.04 0 0.94 0.04 0 0.945 0.04 0 0.95 0.04 0 0.955 0.04 0 0.96 0.04 0 0.965 0.04 0 0.97 0.04 0 0.975 0.04 0 0.98 0.04 0 0.985 0.04 0 0.99 0.04 0 0.995 0.04 0 1 0.04 0 0 0.06 0 0.005 0.06 0 0.01 0.06 0 0.015 0.06 0 0.02 0.06 0 0.025 0.06 0 0.03 0.06 0 0.035 0.06 0 0.04 0.06 0 0.045 0.06 0 0.05 0.06 0 0.055 0.06 0 0.06 0.06 0 0.065 0.06 0 0.07 0.06 0 0.075 0.06 0 0.08 0.06 0 0.085 0.06 0 0.09 0.06 0 0.095 0.06 0 0.1 0.06 0 0.105 0.06 0 0.11 0.06 0 0.115 0.06 0 0.12 0.06 0 0.125 0.06 0 0.13 0.06 0 0.135 0.06 0 0.14 0.06 0 0.145 0.06 0 0.15 0.06 0 0.155 0.06 0 0.16 0.06 0 0.165 0.06 0 0.17 0.06 0 0.175 0.06 0 0.18 0.06 0 0.185 0.06 0 0.19 0.06 0 0.195 0.06 0 0.2 0.06 0 0.205 0.06 0 0.21 0.06 0 0.215 0.06 0 0.22 0.06 0 0.225 0.06 0 0.23 0.06 0 0.235 0.06 0 0.240001 0.06 0 0.245004 0.06 0 0.25001 0.06 0 0.255025 0.06 0 0.260056 0.06 0 0.265115 0.06 0 0.270215 0.06 0 0.275371 0.06 0 0.280598 0.06 0 0.285906 0.06 0 0.291306 0.06 0 0.296804 0.06 0 0.302407 0.06 0 0.308123 0.06 0 0.313956 0.06 0 0.319914 0.06 0 0.326002 0.06 0 0.332229 0.06 0 0.338602 0.06 0 0.345128 0.06 0 0.351817 0.06 0 0.358677 0.06 0 0.36572 0.06 0 0.372955 0.06 0 0.380396 0.06 0 0.388055 0.06 0 0.395947 0.06 0 0.404088 0.06 0 0.412496 0.06 0 0.421189 0.06 0 0.430189 0.06 0 0.43952 0.06 0 0.449207 0.06 0 0.459277 0.06 0 0.469759 0.06 0 0.480677 0.06 0 0.492044 0.06 0 0.503838 0.06 0 0.515928 0.06 0 0.528034 0.06 0 0.540056 0.06 0 0.551988 0.06 0 0.56384 0.06 0 0.575636 0.06 0 0.587395 0.06 0 0.599137 0.06 0 0.61087 0.06 0 0.622599 0.06 0 0.634326 0.06 0 0.646054 0.06 0 0.657782 0.06 0 0.669512 0.06 0 0.681256 0.06 0 0.683866 0.06 0 0.686402 0.06 0 0.688893 0.06 0 0.691353 0.06 0 0.693792 0.06 0 0.696215 0.06 0 0.698629 0.06 0 0.701
[...]
			<PointData Scalars="VitesseX">
				<DataArray Name="VitesseX" type="Float32" format="ascii">
 0 -1.35142e-15 3.27879e-15 2.4531e-15 7.57346e-15 3.24223e-15 5.92185e-15 5.49943e-15 8.96869e-17 5.32654e-15 3.6764e-15 4.78066e-15 8.72745e-15 8.71711e-15 8.28827e-15 1.25958e-14 5.90388e-15 -6.21501e-15 1.43523e-14 -6.95982e-15 -5.87902e-15 1.1181e-14 -8.18898e-15 -8.2695e-15 8.99929e-15 -1.54123e-14 1.96859e-14 -4.59857e-15 1.66937e-14 -1.69145e-14 4.32786e-14 6.5989e-14 6.06173e-14 1.63191e-13 4.25424e-13 2.61257e-12 1.49718e-11 8.33021e-11 4.41803e-10 2.23048e-09 1.07016e-08 4.86823e-08 2.09512e-07 8.50826e-07 3.25086e-06 1.16473e-05 3.89789e-05 0.000121296 0.000349131 0.000923977 0.00223417 0.00490688 0.00975053 0.0175268 0.0286384 0.0429603 0.0599563 0.0789634 0.0994226 0.120958 0.143351 0.166485 0.190304 0.214781 0.239912 0.265702 0.292165 0.319321 0.347196 0.375818 0.405223 0.435446 0.46653 0.498518 0.531459 0.565401 0.600395 0.63649 0.673726 0.712125 0.751673 0.792267 0.833616 0.874979 0.914466 0.947116 0.960341 0.953007 0.945801 0.938842 0.933569 0.93023 0.928415 0.927534 0.927118 0.926907 0.926788 0.926715 0.926656 0.926618 0.926662 0.926642 0.926623 0.926615 0.92662 0.92669 0.9268 0.926799 0.926784 0.926755 0.926719 0.926675 0.926631 0.926584 0.926539 0.926498 0.926462 0.926432 0.926409 0.926393 0.926384 0.926381 0.926402 0.926477 0.926513 0.926493 0.926453 0.926415 0.926367 0.926308 0.926247 0.926182 0.926119 0.926061 0.926014 0.925983 0.925976 0.926005 0.926272 0.926513 0.926406 0.926394 0.926373 0.926325 0.926269 0.92621 0.926161 0.926142 0.926176 0.926535 0.926275 0.926001 0.925586 0.925295 0.925224 0.926479 0.926789 0.926131 0.923415 0.923464 0.919735 0.920467 0.905869 0.902365 0.854731 0.843981 0.761554 0.711284 0.601345 0.496469 0.370107 0.250001 0.146922 0.0739985 0.0322684 0.0127441 0.00478118 0.00175475 0.000638527 0.00023159 8.38792e-05 3.03549e-05 1.09766e-05 3.96558e-06 1.431e-06 5.15627e-07 1.85457e-07 6.65572e-08 2.38244e-08 8.50238e-09 3.02377e-09 1.07116e-09 3.77718e-10 1.327e-10 4.63561e-11 1.60375e-11 5.65119e-12 1.97948e-12 7.39611e-13 4.0355e-14 0 0 8.33709e-16 1.76854e-15 1.61273e-15 4.45787e-15 3.0366e-15 5.36965e-15 6.45217e-15 8.00729e-15 4.1227e-15 -4.83958e-15 4.61829e-15 4.9919e-15 1.29591e-14 1.11283e-14 6.96327e-16 1.21001e-14 2.18366e-15 -6.56451e-15 1.13195e-14 1.62575e-14 -1.34536e-14 2.99242e-15 -1.74849e-14 9.65833e-16 -1.58303e-15 1.67447e-14 1.90943e-14 1.6251e-14 2.12408e-14 4.14644e-14 4.37757e-14 5.34762e-14 1.60971e-13 4.25073e-13 2.59056e-12 1.49456e-11 8.33204e-11 4.41741e-10 2.23056e-09 1.07014e-08 4.86824e-08 2.09512e-07 8.50826e-07 3.25086e-06 1.16473e-05 3.89789e-05 0.000121296 0.000349131 0.000923977 0.00223417 0.00490688 0.00975053 0.0175268 0.0286384 0.0429603 0.0599563 0.0789634 0.0994226 0.120958 0.143351 0.166485 0.190304 0.214781 0.239912 0.265702 0.292165 0.319321 0.347196 0.375818 0.405223 0.435446 0.46653 0.498518 0.531459 0.565401 0.600395 0.63649 0.673726 0.712125 0.751673 0.792267 0.833616 0.874979 0.914466 0.947116 0.960341 0.953007 0.945801 0.938842 0.933569 0.93023 0.928415 0.927534 0.927118 0.926907 0.926788 0.926715 0.926656 0.926618 0.926662 0.926642 0.926623 0.926615 0.92662 0.92669 0.9268 0.926799 0.926784 0.926755 0.926719 0.926675 0.926631 0.926584 0.926539 0.926498 0.926462 0.926432 0.926409 0.926393 0.926384 0.926381 0.926402 0.926477 0.926513 0.926493 0.926453 0.926415 0.926367 0.926308 0.926247 0.926182 0.926119 0.926061 0.926014 0.925983 0.925976 0.926005 0.926272 0.926513 0.926406 0.926394 0.926373 0.926325 0.926269 0.92621 0.926161 0.926142 0.926176 0.926535 0.926275 0.926001 0.925586 0.925295 0.925224 0.926479 0.926789 0.926131 0.923415 0.923464 0.919735 0.920467 0.905869 0.902365 0.854731 0.843981 0.761554 0.711284 0.601345 0.496469 0.370107 0.250001 0.146922 0.0739985 0.0322684 0.0127441 0.00478118 0.00175475 0.000638527 0.00023159 8.38792e-05 3.03549e-05 1.09766e-05 3.96558e-06 1.431e-06 5.15627e-07 1.85457e-07 6.65573e-08 2.38244e-08 8.5023e-09 3.02374e-09 1.0712e-09 3.77836e-10 1.32631e-10 4.63133e-11 1.61369e-11 5.65516e-12 1.93322e-12 5.95139e-13 1.43996e-13 0 0 6.88375e-16 4.9452e-16 2.86695e-15 3.27602e-15 5.56658e-15 3.60331e-16 4.70607e-15 3.70576e-15 3.62741e-15 1.17532e-15 -7.95962e-16 8.61612e-15 9.36477e-15 -3.71872e-16 7.48888e-15 -6.40366e-15 6.30123e-15 6.11628e-15 5.4175e-15 1.33387e-14 -3.08171e-14 2.24206e-14 7.92984e-15 9.45686e-15 2.12506e-14 1.67001e-14 -5.56598e-15 1.75697e-14 6.31481e-14 4.35751e-14 6.37566e-14 9.16202e-14 1.04566e-13 4.04298e-13 2.59136e-12 1.49271e-11 8.32379e-11 4.41712e-10 2.23061e-09 1.07014e-08 4.86824e-08 2.09512e-07 8.50826e-07 3.25086e-06 1.16473e-05 3.89789e-05 0.000121296 0.000349131 0.000923977 0.00223417 0.00490688 0.00975053 0.0175268 0.0286384 0.0429603 0.0599563 0.0789634 0.0994226 0.120958 0.143351 0.166485 0.190304 0.214781 0.239912 0.265702 0.292165 0.319321 0.347196 0.375818 0.405223 0.435446 0.46653 0.498518 0.531459 0.565401 0.600395 0.63649 0.673726 0.712125 0.751673 0.792267 0.833616 0.874979 0.914466 0.947116 0.960341 0.953007 0.945801 0.938842 0.933569 0.93023 0.928415 0.927534 0.927118 0.926907 0.926788 0.926715 0.926656 0.926618 0.926662 0.926642 0.926623 0.926615 0.92662 0.92669 0.9268 0.926799 0.926784 0.926755 0.926719 0.926675 0.926631 0.926584 0.926539 0.926498 0.926462 0.926432 0.926409 0.926393 0.926384 0.926381 0.926402 0.926477 0.926513 0.926493 0.926453 0.926415 0.926367 0.926308 0.926247 0.926182 0.926119 0.926061 0.926014 0.925983 0.925976 0.926005 0.926272 0.926513 0.926406 0.926394 0.926373 0.926325 0.926269 0.92621 0.926161 0.926142 0.926176 0.926535 0.926275 0.926001 0.925586 0.925295 0.925224 0.926479 0.926789 0.926131 0.923415 0.923464 0.919735 0.920467 0.905869 0.902365 0.854731 0.843981 0.761554 0.711284 0.601345 0.496469 0.370107 0.250001 0.146922 0.0739985 0.0322684 0.0127441 0.00478118 0.00175475 0.000638527 0.00023159 8.38792e-05 3.03549e-05 1.09766e-05 3.96558e-06 1.431e-06 5.15627e-07 1.85457e-07 6.65573e-08 2.38245e-08 8.50229e-09 3.02372e-09 1.0712e-09 3.77868e-10 1.32717e-10 4.6302e-11 1.61452e-11 5.58927e-12 1.88633e-12 6.35837e-13 1.53495e-13 0 0 -6.21081e-16 1.31074e-15 3.17209e-15 -5.98091e-15 2.38811e-16 -2.41047e-16 2.37762e-15 2.6955e-15 3.17608e-15 5.66749e-15 1.04393e-15 -1.49967e-15 6.70127e-15 -9.79708e-15 1.51311e-14 -5.61537e-15 1.52839e-16 6.73106e-16 1.39995e-14 6.96237e-15 5.89943e-15 2.41761e-14 3.35125e-14 4.84596e-15 6.94769e-15 2.57543e-14 5.327e-15 -1.60162e-15 6.21881e-14 2.69138e-14 8.41461e-14 1.07011e-13 1.00047e-13 4.02242e-13 2.58893e-12 1.49673e-11 8.31432e-11 4.41736e-10 2.23054e-09 1.07015e-08 4.86824e-08 2.09512e-07 8.50826e-07 3.25086e-06 1.16473e-05 3.89789e-05 0.000121296 0.000349131 0.000923977 0.00223417 0.00490688 0.00975053 0.0175268 0.0286384 0.0429603 0.0599563 0.0789634 0.0994226 0.120958 0.143351 0.166485 0.190304 0.214781 0.239912 0.265702 0.292165 0.319321 0.347196 0.375818 0.405223 0.435446 0.46653 0.498518 0.531459 0.565401 0.600395 0.63649 0.673726 0.712125 0.751673 0.792267 0.833616 0.874979 0.914466 0.947116 0.960341 0.953007 0.945801 0.938842 0.933569 0.93023 0.928415 0.927534 0.927118 0.926907 0.926788 0.926715 0.926656 0.926618 0.926662 0.926642 0.926623 0.926615 0.92662 0.92669 0.9268 0.926799 0.926784 0.926755 0.926719 0.926675 0.926631 0.926584 0.926539 0.926498 0.926462 0.926432 0.926409 0.926393 0.926384 0.926381 0.926402 0.926477 0.926513 0.926493 0.926453 0.926415 0.926367 0.926308 0.926247 0.926182 0.926119 0.926061 0.926014 0.925983 0.925976 0.926005 0.926272 0.926513 0.926406 0.926394 0.926373 0.926325 0.926269 0.92621 0.926161 0.926142 0.926176 0.926535 0.926275 0.926001 0.925586 0.925295 0.925224 0.926479 0.926789 0.926131 0.923415 0.923464 0.919735 0.920467 0.905869 0.902365 0.854731 0.843981 0.761554 0.711284 0.601345 0.496469 0.370107 0.250001 0.146922 0.0739985 0.0322684 0.0127441 0.00478118 0.00175475 0.000638527 0.00023159 8.38792e-05 3.03549e-05 1.09766e-05 3.96558e-06 1.431e-06 5.15627e-07 1.85457e-07 6.65574e-08 2.38246e-08 8.50225e-09 3.0238e-09 1.07119e-09 3.77744e-10 1.32811e-10 4.6388e-11 1.60422e-11 5.56631e-12 1.98668e-12 6.12663e-13 -3.56249e-14 0 0 -2.75086e-15 -3.10473e-15 -4.90378e-15 -8.53718e-15 -1.07438e-14 -5.08594e-15 -8.66766e-15 5.7899e-15 -3.77004e-15 -6.1668e-16 3.12303e-15 -9.91534e-16 -2.0885e-15 -7.39223e-15 8.24352e-16 2.15503e-14 7.67432e-15 -2.40935e-14 1.69845e-14 3.60313e-14 1.40917e-14 3.28408e-14 7.31784e-15 3.43896e-14 1.03467e-14 3.7458e-14 2.54115e-14 6.62524e-15 1.48864e-14 6.04793e-15 8.53391e-14 8.7381e-14 1.81258e-13 4.13867e-13 2.53113e-12 1.50253e-11 8.31273e-11 4.41631e-10 2.23054e-09 1.07015e-08 4.86823e-08 2.09512e-07 8.50826e-07 3.25086e-06 1.16473e-05 3.89789e-05 0.000121296 0.000349131 0.000923977 0.00223417 0.00490688 0.00975053 0.0175268 0.0286384 0.0429603 0.0599563 0.0789634 0.0994226 0.120958 0.143351 0.166485 0.190304 0.214781 0.239912 0.265702 0.292165 0.319321 0.347196 0.375818 0.405223 0.435446 0.46653 0.498518 0.531459 0.565401 0.600395 0.63649 0.673726 0.712125 0.751673 0.792267 0.833616 0.874979 0.914466 0.947116 0.960341 0.953007 0.945801 0.938842 0.933569 0.93023 0.928415 0.927534 0.927118 0.926907 0.926788 0.926715 0.926656 0.926618 0.926662 0.926642 0.926623 0.926615 0.92662 0.92669 0.9268 0.926799 0.926784 0.926755 0.926719 0.926675 0.926631 0.926584 0.926539 0.926498 0.926462 0.926432 0.926409 0.926393 0.926384 0.926381 0.926402 0.926477 0.926513 0.926493 0.926453 0.926415 0.926367 0.926308 0.926247 0.926182 0.926119 0.926061 0.926014 0.925983 0.925976 0.926005 0.926272 0.926513 0.926406 0.926394 0.926373 0.926325 0.926269 0.92621 0.926161 0.926142 0.926176 0.926535 0.926275 0.926001 0.925586 0.925295 0.925224 0.926479 0.926789 0.926131 0.923415 0.923464 0.919735 0.920467 0.905869 0.902365 0.854731 0.843981 0.761554 0.711284 0.601345 0.496469 0.370107 0.250001 0.146922 0.0739985 0.0322684 0.0127441 0.00478118 0.00175475 0.000638527 0.00023159 8.38792e-05 3.03549e-05 1.09766e-05 3.96558e-06 1.431e-06 5.15627e-07 1.85456e-07 6.65575e-08 2.38245e-08 8.50224e-09 3.02387e-09 1.07127e-09 3.77946e-10 1.32617e-10 4.63779e-11 1.62354e-11 5.52254e-12 2.0418e-12 2.48131e-13 1.27869e-13 0 0 -5.90165e-15 -8.10019e-15 -1.11902e-14 9.72204e-17 -1.3663e-14 -1.37866e-14 -2.00833e-14 -2.32459e-15 -9.55627e-15 3.13786e-15 -1.88965e-15 1.69922e-14 -1.60511e-14 -9.90242e-15 -2.43261e-15 2.32277e-14 1.70631e-14 -9.81923e-15 -1.27937e-14 4.64213e-14 -7.16141e-15 4.79969e-14 -9.8295e-15 8.50686e-14 3.70531e-14 4.30039e-14 -1.375e-14 3.5785e-14 -2.77032e-14 5.76823e-15 1.08337e-13 9.76447e-14 2.12803e-13 4.07125e-13 2.49857e-12 1.50509e-11 8.31052e-11 4.41533e-10 2.23057e-09 1.07015e-08 4.86823e-08 2.09512e-07 8.50826e-07 3.25086e-06 1.16473e-05 3.89789e-05 0.000121296 0.000349131 0.000923977 0.00223417 0.00490688 0.00975053 0.0175268 0.0286384 0.0429603 0.0599563 0.0789634 0.0994226 0.120958 0.143351 0.166485 0.190304 0.214781 0.239912 0.265702 0.292165 0.319321 0.347196 0.375818 0.405223 0.435446 0.46653 0.498518 0.531459 0.565401 0.600395 0.63649 0.673726 0.712125 0.751673 0.792267 0.833616 0.874979 0.914466 0.947116 0.960341 0.953007 0.945801 0.938842 0.933569 0.93023 0.928415 0.927534 0.927118 0.926907 0.926788 0.926715 0.926656 0.926618 0.926662 0.926642 0.926623 0.926615 0.92662 0.92669 0.9268 0.926799 0.926784 0.926755 0.926719 0.926675 0.926631 0.926584 0.926539 0.926498 0.926462 0.926432 0.926409 0.926393 0.926384 0.926381 0.926402 0.926477 0.926513 0.926493 0.926453 0.926415 0.926367 0.926308 0.926247 0.926182 0.926119 0.926061 0.926014 0.925983 0.925976 0.926005 0.926272 0.926513 0.926406 0.926394 0.926373 0.926325 0.926269 0.92621 0.926161 0.926142 0.926176 0.926535 0.926275 0.926001 0.925586 0.925295 0.925224 0.926479 0.926789 0.926131 0.923415 0.923464 0.919735 0.920467 0.905869 0.902365 0.854731 0.843981 0.761554 0.711284 0.601345 0.496469 0.370107 0.250001 0.146922 0.0739985 0.0322684 0.0127441 0.00478118 0.00175475 0.000638527 0.00023159 8.38792e-05 3.03549e-05 1.09766e-05 3.96558e-06 1.431e-06 5.15627e-07 1.85456e-07 6.65575e-08 2.38244e-08 8.50235e-09 3.02386e-09 1.0713e-09 3.78186e-10 1.32485e-10 4.63135e-11 1.64398e-11 5.43132e-12 1.99612e-12 9.1376e-14 3.85096e-13 0
				</DataArray>
				<DataArray Name="VitesseY" type="Float32" format="ascii">