<?xml version="1.0"?>
<VTKFile type="PolyData">
	<PolyData>
		<Piece NumberOfPoints="1206" NumberOfPolys="1000">
			<Points>
				<DataArray type="Float32" NumberOfComponents="3" format="ascii">
 0 0 0 0.005 0 0 0.01 0 0 0.015 0 0 0.02 0 0 0.025 0 0 0.03 0 0 0.035 0 0 0.04 0 0 0.045 0 0 0.05 0 0 0.055 0 0 0.06 0 0 0.065 0 0 0.07 0 0 0.075 0 0 0.08 0 0 0.085 0 0 0.09 0 0 0.095 0 0 0.1 0 0 0.105 0 0 0.11 0 0 0.115 0 0 0.12 0 0 0.125 0 0 0.13 0 0 0.135 0 0 0.14 0 0 0.145 0 0 0.15 0 0 0.155 0 0 0.16 0 0 0.165 0 0 0.17 0 0 0.175 0 0 0.18 0 0 0.185 0 0 0.19 0 0 0.195 0 0 0.2 0 0 0.205 0 0 0.21 0 0 0.215 0 0 0.22 0 0 0.225 0 0 0.23 0 0 0.235 0 0 0.24 0 0 0.245 0 0 0.25 0 0 0.255 0 0 0.26 0 0 0.265 0 0 0.27 0 0 0.275 0 0 0.28 0 0 0.285 0 0 0.29 0 0 0.295 0 0 0.300001 0 0 0.305002 0 0 0.310006 0 0 0.315017 0 0 0.320044 0 0 0.3251 0 0 0.330205 0 0 0.335383 0 0 0.340656 0 0 0.346042 0 0 0.351557 0 0 0.357214 0 0 0.363026 0 0 0.369004 0 0 0.375161 0 0 0.38151 0 0 0.388066 0 0 0.394846 0 0 0.401867 0 0 0.409149 0 0 0.416715 0 0 0.42459 0 0 0.432803 0 0 0.441387 0 0 0.450377 0 0 0.459817 0 0 0.46975 0 0 0.480225 0 0 0.49128 0 0 0.50292 0 0 0.51502 0 0 0.527194 0 0 0.539248 0 0 0.551181 0 0 0.563018 0 0 0.574797 0 0 0.586547 0 0 0.598285 0 0 0.61002 0 0 0.621755 0 0 0.633503 0 0 0.636113 0 0 0.63865 0 0 0.64114 0 0 0.643601 0 0 0.64604 0 0 0.648463 0 0 0.650876 0 0 0.653288 0 0 0.655701 0 0 0.658098 0 0 0.660485 0 0 0.662866 0 0 0.665244 0 0 0.667621 0 0 0.669998 0 0 0.672371 0 0 0.674741 0 0 0.677108 0 0 0.679476 0 0 0.681844 0 0 0.68421 0 0 0.686574 0 0 0.688939 0 0 0.691303 0 0 0.693668 0 0 0.69603 0 0 0.698393 0 0 0.700754 0 0 0.703116 0 0 0.705478 0 0 0.70784 0 0 0.710201 0 0 0.712566 0 0 0.71493 0 0 0.717296 0 0 0.71966 0 0 0.722025 0 0 0.724387 0 0 0.72675 0 0 0.729112 0 0 0.731471 0 0 0.733834 0 0 0.736211 0 0 0.73861 0 0 0.74103 0 0 0.743522 0 0 0.746108 0 0 0.748822 0 0 0.751711 0 0 0.75484 0 0 0.758251 0 0 0.76201 0 0 0.76612 0 0 0.770556 0 0 0.775245 0 0 0.780098 0 0 0.785037 0 0 0.790014 0 0 0.795005 0 0 0.800002 0 0 0.805001 0 0 0.81 0 0 0.815 0 0 0.82 0 0 0.825 0 0 0.83 0 0 0.835 0 0 0.84 0 0 0.845 0 0 0.85 0 0 0.855 0 0 0.86 0 0 0.865 0 0 0.87 0 0 0.875 0 0 0.88 0 0 0.885 0 0 0.89 0 0 0.895 0 0 0.9 0 0 0.905 0 0 0.91 0 0 0.915 0 0 0.92 0 0 0.925 0 0 0.93 0 0 0.935 0 0 0.94 0 0 0.945 0 0 0.95 0 0 0.955 0 0 0.96 0 0 0.965 0 0 0.97 0 0 0.975 0 0 0.98 0 0 0.985 0 0 0.99 0 0 0.995 0 0 1 0 0 0 0.02 0 0.005 0.02 0 0.01 0.02 0 0.015 0.02 0 0.02 0.02 0 0.025 0.02 0 0.03 0.02 0 0.035 0.02 0 0.04 0.02 0 0.045 0.02 0 0.05 0.02 0 0.055 0.02 0 0.06 0.02 0 0.065 0.02 0 0.07 0.02 0 0.075 0.02 0 0.08 0.02 0 0.085 0.02 0 0.09 0.02 0 0.095 0.02 0 0.1 0.02 0 0.105 0.02 0 0.11 0.02 0 0.115 0.02 0 0.12 0.02 0 0.125 0.02 0 0.13 0.02 0 0.135 0.02 0 0.14 0.02 0 0.145 0.02 0 0.15 0.02 0 0.155 0.02 0 0.16 0.02 0 0.165 0.02 0 0.17 0.02 0 0.175 0.02 0 0.18 0.02 0 0.185 0.02 0 0.19 0.02 0 0.195 0.02 0 0.2 0.02 0 0.205 0.02 0 0.21 0.02 0 0.215 0.02 0 0.22 0.02 0 0.225 0.02 0 0.23 0.02 0 0.235 0.02 0 0.24 0.02 0 0.245 0.02 0 0.25 0.02 0 0.255 0.02 0 0.26 0.02 0 0.265 0.02 0 0.27 0.02 0 0.275 0.02 0 0.28 0.02 0 0.285 0.02 0 0.29 0.02 0 0.295 0.02 0 0.300001 0.02 0 0.305002 0.02 0 0.310006 0.02 0 0.315017 0.02 0 0.320044 0.02 0 0.3251 0.02 0 0.330205 0.02 0 0.335383 0.02 0 0.340656 0.02 0 0.346042 0.02 0 0.351557 0.02 0 0.357214 0.02 0 0.363026 0.02 0 0.369004 0.02 0 0.375161 0.02 0 0.38151 0.02 0 0.388066 0.02 0 0.394846 0.02 0 0.401867 0.02 0 0.409149 0.02 0 0.416715 0.02 0 0.42459 0.02 0 0.432803 0.02 0 0.441387 0.02 0 0.450377 0.02 0 0.459817 0.02 0 0.46975 0.02 0 0.480225 0.02 0 0.49128 0.02 0 0.50292 0.02 0 0.51502 0.02 0 0.527194 0.02 0 0.539248 0.02 0 0.551181 0.02 0 0.563018 0.02 0 0.574797 0.02 0 0.586547 0.02 0 0.598285 0.02 0 0.61002 0.02 0 0.621755 0.02 0 0.633503 0.02 0 0.636113 0.02 0 0.63865 0.02 0 0.64114 0.02 0 0.643601 0.02 0 0.64604 0.02 0 0.648463 0.02 0 0.650876 0.02 0 0.653288 0.02 0 0.655701 0.02 0 0.658098 0.02 0 0.660485 0.02 0 0.662866 0.02 0 0.665244 0.02 0 0.667621 0.02 0 0.669998 0.02 0 0.672371 0.02 0 0.674741 0.02 0 0.677108 0.02 0 0.679476 0.02 0 0.681844 0.02 0 0.68421 0.02 0 0.686574 0.02 0 0.688939 0.02 0 0.691303 0.02 0 0.693668 0.02 0 0.69603 0.02 0 0.698393 0.02 0 0.700754 0.02 0 0.703116 0.02 0 0.705478 0.02 0 0.70784 0.02 0 0.710201 0.02 0 0.712566 0.02 0 0.71493 0.02 0 0.717296 0.02 0 0.71966 0.02 0 0.722025 0.02 0 0.724387 0.02 0 0.72675 0.02 0 0.729112 0.02 0 0.731471 0.02 0 0.733834 0.02 0 0.736211 0.02 0 0.73861 0.02 0 0.74103 0.02 0 0.743522 0.02 0 0.746108 0.02 0 0.748822 0.02 0 0.751711 0.02 0 0.75484 0.02 0 0.758251 0.02 0 0.76201 0.02 0 0.76612 0.02 0 0.770556 0.02 0 0.775245 0.02 0 0.780098 0.02 0 0.785037 0.02 0 0.790014 0.02 0 0.795005 0.02 0 0.800002 0.02 0 0.805001 0.02 0 0.81 0.02 0 0.815 0.02 0 0.82 0.02 0 0.825 0.02 0 0.83 0.02 0 0.835 0.02 0 0.84 0.02 0 0.845 0.02 0 0.85 0.02 0 0.855 0.02 0 0.86 0.02 0 0.865 0.02 0 0.87 0.02 0 0.875 0.02 0 0.88 0.02 0 0.885 0.02 0 0.89 0.02 0 0.895 0.02 0 0.9 0.02 0 0.905 0.02 0 0.91 0.02 0 0.915 0.02 0 0.92 0.02 0 0.925 0.02 0 0.93 0.02 0 0.935 0.02 0 0.94 0.02 0 0.945 0.02 0 0.95 0.02 0 0.955 0.02 0 0.96 0.02 0 0.965 0.02 0 0.97 0.02 0 0.975 0.02 0 0.98 0.02 0 0.985 0.02 0 0.99 0.02 0 0.995 0.02 0 1 0.02 0 0 0.04 0 0.005 0.04 0 0.01 0.04 0 0.015 0.04 0 0.02 0.04 0 0.025 0.04 0 0.03 0.04 0 0.035 0.04 0 0.04 0.04 0 0.045 0.04 0 0.05 0.04 0 0.055 0.04 0 0.06 0.04 0 0.065 0.04 0 0.07 0.04 0 0.075 0.04 0 0.08 0.04 0 0.085 0.04 0 0.09 0.04 0 0.095 0.04 0 0.1 0.04 0 0.105 0.04 0 0.11 0.04 0 0.115 0.04 0 0.12 0.04 0 0.125 0.04 0 0.13 0.04 0 0.135 0.04 0 0.14 0.04 0 0.145 0.04 0 0.15 0.04 0 0.155 0.04 0 0.16 0.04 0 0.165 0.04 0 0.17 0.04 0 0.175 0.04 0 0.18 0.04 0 0.185 0.04 0 0.19 0.04 0 0.195 0.04 0 0.2 0.04 0 0.205 0.04 0 0.21 0.04 0 0.215 0.04 0 0.22 0.04 0 0.225 0.04 0 0.23 0.04 0 0.235 0.04 0 0.24 0.04 0 0.245 0.04 0 0.25 0.04 0 0.255 0.04 0 0.26 0.04 0 0.265 0.04 0 0.27 0.04 0 0.275 0.04 0 0.28 0.04 0 0.285 0.04 0 0.29 0.04 0 0.295 0.04 0 0.300001 0.04 0 0.305002 0.04 0 0.310006 0.04 0 0.315017 0.04 0 0.320044 0.04 0 0.3251 0.04 0 0.330205 0.04 0 0.335383 0.04 0 0.340656 0.04 0 0.346042 0.04 0 0.351557 0.04 0 0.357214 0.04 0 0.363026 0.04 0 0.369004 0.04 0 0.375161 0.04 0 0.38151 0.04 0 0.388066 0.04 0 0.394846 0.04 0 0.401867 0.04 0 0.409149 0.04 0 0.416715 0.04 0 0.42459 0.04 0 0.432803 0.04 0 0.441387 0.04 0 0.450377 0.04 0 0.459817 0.04 0 0.46975 0.04 0 0.480225 0.04 0 0.49128 0.04 0 0.50292 0.04 0 0.51502 0.04 0 0.527194 0.04 0 0.539248 0.04 0 0.551181 0.04 0 0.563018 0.04 0 0.574797 0.04 0 0.586547 0.04 0 0.598285 0.04 0 0.61002 0.04 0 0.621755 0.04 0 0.633503 0.04 0 0.636113 0.04 0 0.63865 0.04 0 0.64114 0.04 0 0.643601 0.04 0 0.64604 0.04 0 0.648463 0.04 0 0.650876 0.04 0 0.653288 0.04 0 0.655701 0.04 0 0.658098 0.04 0 0.660485 0.04 0 0.662866 0.04 0 0.665244 0.04 0 0.667621 0.04 0 0.669998 0.04 0 0.672371 0.04 0 0.674741 0.04 0 0.677108 0.04 0 0.679476 0.04 0 0.681844 0.04 0 0.68421 0.04 0 0.686574 0.04 0 0.688939 0.04 0 0.691303 0.04 0 0.693668 0.04 0 0.69603 0.04 0 0.698393 0.04 0 0.700754 0.04 0 0.703116 0.04 0 0.705478 0.04 0 0.70784 0.04 0 0.710201 0.04 0 0.712566 0.04 0 0.71493 0.04 0 0.717296 0.04 0 0.71966 0.04 0 0.722025 0.04 0 0.724387 0.04 0 0.72675 0.04 0 0.729112 0.04 0 0.731471 0.04 0 0.733834 0.04 0 0.736211 0.04 0 0.73861 0.04 0 0.74103 0.04 0 0.743522 0.04 0 0.746108 0.04 0 0.748822 0.04 0 0.751711 0.04 0 0.75484 0.04 0 0.758251 0.04 0 0.76201 0.04 0 0.76612 0.04 0 0.770556 0.04 0 0.775245 0.04 0 0.780098 0.04 0 0.785037 0.04 0 0.790014 0.04 0 0.795005 0.04 0 0.800002 0.04 0 0.805001 0.04 0 0.81 0.04 0 0.815 0.04 0 0.82 0.04 0 0.825 0.04 0 0.83 0.04 0 0.835 0.04 0 0.84 0.04 0 0.845 0.04 0 0.85 0.04 0 0.855 0.04 0 0.86 0.04 0 0.865 0.04 0 0.87 0.04 0 0.875 0.04 0 0.88 0.04 0 0.885 0.04 0 0.89 0.04 0 0.895 0.04 0 0.9 0.04 0 0.905 0.04 0 0.91 0.04 0 0.915 0.04 0 0.92 0.04 0 0.925 0.04 0 0.93 0.04 0 0.935 0.04 0 0.94 0.04 0 0.945 0.04 0 0.95 0.04 0 0.955 0.04 0 0.96 0.04 0 0.965 0.04 0 0.97 0.04 0 0.975 0.04 0 0.98 0.04 0 0.985 0.04 0 0.99 0.04 0 0.995 0.04 0 1 0.04 0 0 0.06 0 0.005 0.06 0 0.01 0.06 0 0.015 0.06 0 0.02 0.06 0 0.025 0.06 0 0.03 0.06 0 0.035 0.06 0 0.04 0.06 0 0.045 0.06 0 0.05 0.06 0 0.055 0.06 0 0.06 0.06 0 0.065 0.06 0 0.07 0.06 0 0.075 0.06 0 0.08 0.06 0 0.085 0.06 0 0.09 0.06 0 0.095 0.06 0 0.1 0.06 0 0.105 0.06 0 0.11 0.06 0 0.115 0.06 0 0.12 0.06 0 0.125 0.06 0 0.13 0.06 0 0.135 0.06 0 0.14 0.06 0 0.145 0.06 0 0.15 0.06 0 0.155 0.06 0 0.16 0.06 0 0.165 0.06 0 0.17 0.06 0 0.175 0.06 0 0.18 0.06 0 0.185 0.06 0 0.19 0.06 0 0.195 0.06 0 0.2 0.06 0 0.205 0.06 0 0.21 0.06 0 0.215 0.06 0 0.22 0.06 0 0.225 0.06 0 0.23 0.06 0 0.235 0.06 0 0.24 0.06 0 0.245 0.06 0 0.25 0.06 0 0.255 0.06 0 0.26 0.06 0 0.265 0.06 0 0.27 0.06 0 0.275 0.06 0 0.28 0.06 0 0.285 0.06 0 0.29 0.06 0 0.295 0.06 0 0.300001 0.06 0 0.305002 0.06 0 0.310006 0.06 0 0.315017 0.06 0 0.320044 0.06 0 0.3251 0.06 0 0.330205 0.06 0 0.335383 0.06 0 0.340656 0.06 0 0.346042 0.06 0 0.351557 0.06 0 0.357214 0.06 0 0.363026 0.06 0 0.369004 0.06 0 0.375161 0.06 0 0.38151 0.06 0 0.388066 0.06 0 0.394846 0.06 0 0.401867 0.06 0 0.409149 0.06 0 0.416715 0.06 0 0.42459 0.06 0 0.432803 0.06 0 0.441387 0.06 0 0.450377 0.06 0 0.459817 0.06 0 0.46975 0.06 0 0.480225 0.06 0 0.49128 0.06 0 0.50292 0.06 0 0.51502 0.06 0 0.527194 0.06 0 0.539248 0.06 0 0.551181 0.06 0 0.563018 0.06 0 0.574797 0.06 0 0.586547 0.06 0 0.598285 0.06 0 0.61002 0.06 0 0.621755 0.06 0 0.633503 0.06 0 0.636113 0.06 0 0.63865 0.06 0 0.64114 0.06 0 0.643601 0.06 0 0.64604 0.06 0 0.648463 0.06 0 0.650876 0.06 0 0.653288 0.06 0 0.655701 0.06 0 0.658098 0.06 0 0.660485 0.06 0 0.662866 0.06 0 0.665244 0.06 0 0.667621 0.06 0 0.669998 0.06 0 0.672371 0.06 0 0.674741 0.06 0 0.677108 0.06 0 0.679476 0.06 0 0.681844 0.06 0 0.68421 0.06 0 0.686574 0.06 0 0.688939 0.06 0 0.691303 0.06 0 0.693668 0.06 0 0.69603 0.06 0 0.698393 0.06 0 0.700754 0.06 0 0.703116 0.06 0 0.705478 0.06 0 0.70784 0.06 0 0.710201 0.06 0
[...]
			<PointData Scalars="VitesseX">
				<DataArray Name="VitesseX" type="Float32" format="ascii">
 0 6.08078e-16 8.89913e-16 -1.91407e-15 -4.65047e-16 3.13278e-15 -1.53214e-15 5.48124e-15 4.30597e-15 6.38939e-16 5.41408e-15 -2.68408e-15 3.29301e-15 1.40046e-14 9.4749e-15 1.34811e-14 1.09688e-14 1.32326e-14 -1.07014e-14 9.03654e-15 8.76751e-15 6.0669e-15 1.3315e-14 1.14545e-14 9.85034e-15 2.04494e-14 1.71864e-14 9.94461e-15 -1.19268e-14 -9.89966e-15 1.34701e-14 -3.36348e-15 1.36755e-14 7.35298e-16 1.01455e-14 -1.4112e-14 2.13886e-14 -1.01324e-14 2.67082e-15 3.35012e-14 9.44468e-15 -3.13905e-14 4.94482e-14 -3.14531e-14 4.8776e-14 -8.40673e-15 9.20416e-14 1.19885e-13 5.02967e-13 2.8967e-12 2.04372e-11 1.3498e-10 8.40896e-10 4.931e-09 2.71563e-08 1.40051e-07 6.74138e-07 3.01722e-06 1.25012e-05 4.77017e-05 0.000166608 0.000528813 0.00151278 0.00386725 0.0087709 0.0175922 0.0313177 0.0500471 0.0730384 0.099228 0.127715 0.15793 0.189574 0.222515 0.256709 0.292162 0.328909 0.367004 0.406519 0.447535 0.490148 0.534461 0.58058 0.628607 0.678617 0.730611 0.784405 0.839336 0.893441 0.94097 0.965394 0.955936 0.94618 0.93744 0.931835 0.928966 0.927717 0.927183 0.926911 0.926733 0.926561 0.926489 0.926422 0.926367 0.926328 0.926309 0.926315 0.92647 0.926774 0.926763 0.9267 0.926601 0.926461 0.926335 0.926204 0.92608 0.925978 0.925904 0.925863 0.925849 0.925924 0.926226 0.926352 0.926358 0.92647 0.92627 0.926137 0.925886 0.925645 0.925422 0.925329 0.925371 0.926301 0.927132 0.926913 0.926477 0.92597 0.925111 0.923964 0.923027 0.922707 0.923653 0.926238 0.918399 0.919577 0.888664 0.841084 0.839195 0.766939 0.678998 0.613113 0.482036 0.362853 0.240832 0.14009 0.0696666 0.0300925 0.0118149 0.00441617 0.00161509 0.000584951 0.000210745 7.56273e-05 2.70339e-05 9.62188e-06 3.40768e-06 1.20004e-06 4.19906e-07 1.45885e-07 5.02881e-08 1.71878e-08 5.82092e-09 1.95243e-09 6.48002e-10 2.129e-10 6.91466e-11 2.21856e-11 7.13521e-12 2.17755e-12 6.85155e-13 2.062e-13 -4.13931e-14 -8.75781e-14 -9.90749e-14 2.13232e-14 4.84734e-14 -1.09808e-13 -1.2063e-13 2.18289e-14 1.05095e-13 -3.28938e-14 1.53351e-14 -1.72233e-13 3.07532e-14 -5.62958e-15 -9.168e-14 -7.62017e-14 1.13599e-13 7.65524e-14 -8.74401e-14 0 0 5.61364e-16 9.22341e-16 1.11647e-15 -3.96638e-15 -2.015e-15 2.49922e-15 2.61023e-15 5.88297e-15 4.36132e-15 1.10913e-15 7.44739e-16 6.66354e-15 2.17387e-15 1.31749e-14 1.49159e-14 1.19796e-14 9.68192e-15 -5.5232e-15 1.09456e-14 1.11068e-14 1.64307e-14 -3.48338e-15 7.55803e-15 8.39906e-15 2.51808e-16 5.69932e-15 2.74818e-14 -2.18504e-15 -1.07295e-14 1.85957e-14 -1.72896e-14 4.47373e-15 -6.62726e-15 3.06897e-14 -2.73782e-14 1.0839e-14 2.50798e-14 2.29042e-14 -9.26996e-15 -1.64469e-14 -7.27168e-15 2.73504e-14 2.33282e-14 3.81792e-14 4.05115e-14 8.79005e-14 1.48397e-13 4.58627e-13 2.84076e-12 2.04695e-11 1.35004e-10 8.40832e-10 4.93099e-09 2.71562e-08 1.40051e-07 6.74138e-07 3.01722e-06 1.25012e-05 4.77017e-05 0.000166608 0.000528813 0.00151278 0.00386725 0.0087709 0.0175922 0.0313177 0.0500471 0.0730384 0.099228 0.127715 0.15793 0.189574 0.222515 0.256709 0.292162 0.328909 0.367004 0.406519 0.447535 0.490148 0.534461 0.58058 0.628607 0.678617 0.730611 0.784405 0.839336 0.893441 0.94097 0.965394 0.955936 0.94618 0.93744 0.931835 0.928966 0.927717 0.927183 0.926911 0.926733 0.926561 0.926489 0.926422 0.926367 0.926328 0.926309 0.926315 0.92647 0.926774 0.926763 0.9267 0.926601 0.926461 0.926335 0.926204 0.92608 0.925978 0.925904 0.925863 0.925849 0.925924 0.926226 0.926352 0.926358 0.92647 0.92627 0.926137 0.925886 0.925645 0.925422 0.925329 0.925371 0.926301 0.927132 0.926913 0.926477 0.92597 0.925111 0.923964 0.923027 0.922707 0.923653 0.926238 0.918399 0.919577 0.888664 0.841084 0.839195 0.766939 0.678998 0.613113 0.482036 0.362853 0.240832 0.14009 0.0696666 0.0300925 0.0118149 0.00441617 0.00161509 0.000584951 0.000210745 7.56273e-05 2.70339e-05 9.62188e-06 3.40768e-06 1.20004e-06 4.19906e-07 1.45885e-07 5.02882e-08 1.71878e-08 5.82105e-09 1.95233e-09 6.48032e-10 2.12863e-10 6.9121e-11 2.22306e-11 7.11675e-12 2.24545e-12 5.78979e-13 1.13265e-13 1.15317e-13 -9.25614e-14 -5.7122e-14 8.25218e-15 -1.00726e-13 -9.03738e-14 4.83519e-14 8.19519e-14 -3.27548e-15 -8.70488e-14 -9.82245e-14 1.5443e-13 -7.29331e-14 -9.23675e-14 -3.04315e-14 2.9806e-15 -2.18878e-14 1.59742e-14 5.73882e-14 0 0 6.29233e-16 3.06394e-15 4.81897e-15 3.00292e-15 -2.70516e-15 1.19683e-15 1.94655e-15 -1.58981e-15 4.89594e-15 6.50403e-15 6.10186e-15 5.18433e-15 1.39698e-14 -7.97328e-15 1.09611e-14 1.02664e-14 1.19556e-14 5.56602e-15 4.34403e-15 2.357e-14 2.44662e-14 -1.60236e-14 -2.29992e-15 1.84993e-15 -8.67601e-15 -2.06249e-14 1.90087e-14 1.85638e-14 -1.86645e-14 3.87036e-15 5.47905e-15 7.45847e-15 1.18029e-14 -5.91363e-15 5.95995e-15 -5.37686e-15 1.30963e-14 1.68699e-14 4.76021e-15 -1.4397e-15 -7.44692e-15 2.3766e-14 3.06805e-14 6.49436e-14 9.39201e-14 9.57264e-14 1.13768e-13 4.13379e-13 2.86771e-12 2.04411e-11 1.3499e-10 8.40787e-10 4.93092e-09 2.71562e-08 1.40051e-07 6.74138e-07 3.01722e-06 1.25012e-05 4.77017e-05 0.000166608 0.000528813 0.00151278 0.00386725 0.0087709 0.0175922 0.0313177 0.0500471 0.0730384 0.099228 0.127715 0.15793 0.189574 0.222515 0.256709 0.292162 0.328909 0.367004 0.406519 0.447535 0.490148 0.534461 0.58058 0.628607 0.678617 0.730611 0.784405 0.839336 0.893441 0.94097 0.965394 0.955936 0.94618 0.93744 0.931835 0.928966 0.927717 0.927183 0.926911 0.926733 0.926561 0.926489 0.926422 0.926367 0.926328 0.926309 0.926315 0.92647 0.926774 0.926763 0.9267 0.926601 0.926461 0.926335 0.926204 0.92608 0.925978 0.925904 0.925863 0.925849 0.925924 0.926226 0.926352 0.926358 0.92647 0.92627 0.926137 0.925886 0.925645 0.925422 0.925329 0.925371 0.926301 0.927132 0.926913 0.926477 0.92597 0.925111 0.923964 0.923027 0.922707 0.923653 0.926238 0.918399 0.919577 0.888664 0.841084 0.839195 0.766939 0.678998 0.613113 0.482036 0.362853 0.240832 0.14009 0.0696666 0.0300925 0.0118149 0.00441617 0.00161509 0.000584951 0.000210745 7.56273e-05 2.70339e-05 9.62188e-06 3.40768e-06 1.20004e-06 4.19906e-07 1.45885e-07 5.02882e-08 1.71879e-08 5.82106e-09 1.95229e-09 6.48105e-10 2.1286e-10 6.91174e-11 2.22128e-11 7.1113e-12 2.26799e-12 6.74145e-13 4.67342e-14 3.66712e-14 -8.10475e-14 4.94094e-14 -1.55503e-13 -1.00505e-13 5.30532e-14 -4.88525e-14 6.73259e-14 -6.86495e-15 -4.14545e-14 -1.49366e-13 2.38376e-13 -7.81953e-14 -3.96699e-14 7.31054e-15 1.87777e-14 -5.15046e-14 1.92412e-14 1.57839e-14 0 0 2.40791e-15 3.65433e-15 3.32427e-15 3.93675e-15 2.88296e-15 6.07693e-15 2.10459e-15 -7.39212e-15 7.81906e-15 8.79432e-15 7.37381e-15 -2.34334e-15 2.52889e-14 -8.96079e-15 2.95141e-15 7.1007e-15 1.17286e-14 -1.8159e-15 2.00539e-14 2.09106e-14 -1.13045e-14 4.00639e-15 1.04783e-15 -1.65896e-14 -2.22049e-15 -1.79437e-14 6.27042e-16 1.37693e-14 -9.78635e-15 -3.89364e-15 2.67855e-14 1.9792e-14 1.33247e-14 -2.34154e-14 -1.78093e-15 -9.12633e-15 1.04319e-14 3.58828e-14 2.99127e-14 3.12397e-14 -8.22065e-15 3.08073e-14 2.66147e-14 4.34226e-14 9.21239e-14 7.39617e-14 1.13428e-13 3.67295e-13 2.88878e-12 2.04562e-11 1.3501e-10 8.40748e-10 4.93082e-09 2.71562e-08 1.40051e-07 6.74138e-07 3.01722e-06 1.25012e-05 4.77017e-05 0.000166608 0.000528813 0.00151278 0.00386725 0.0087709 0.0175922 0.0313177 0.0500471 0.0730384 0.099228 0.127715 0.15793 0.189574 0.222515 0.256709 0.292162 0.328909 0.367004 0.406519 0.447535 0.490148 0.534461 0.58058 0.628607 0.678617 0.730611 0.784405 0.839336 0.893441 0.94097 0.965394 0.955936 0.94618 0.93744 0.931835 0.928966 0.927717 0.927183 0.926911 0.926733 0.926561 0.926489 0.926422 0.926367 0.926328 0.926309 0.926315 0.92647 0.926774 0.926763 0.9267 0.926601 0.926461 0.926335 0.926204 0.92608 0.925978 0.925904 0.925863 0.925849 0.925924 0.926226 0.926352 0.926358 0.92647 0.92627 0.926137 0.925886 0.925645 0.925422 0.925329 0.925371 0.926301 0.927132 0.926913 0.926477 0.92597 0.925111 0.923964 0.923027 0.922707 0.923653 0.926238 0.918399 0.919577 0.888664 0.841084 0.839195 0.766939 0.678998 0.613113 0.482036 0.362853 0.240832 0.14009 0.0696666 0.0300925 0.0118149 0.00441617 0.00161509 0.000584951 0.000210745 7.56273e-05 2.70339e-05 9.62188e-06 3.40768e-06 1.20004e-06 4.19906e-07 1.45885e-07 5.02881e-08 1.71879e-08 5.82103e-09 1.95231e-09 6.48183e-10 2.12964e-10 6.91582e-11 2.21648e-11 7.09524e-12 2.30322e-12 7.79156e-13 -1.87935e-14 -4.95356e-14 -4.56658e-14 1.00152e-14 -1.25655e-14 -2.06735e-13 -4.13155e-14 6.4824e-14 4.65957e-14 -2.05043e-14 -6.9333e-14 1.52762e-13 -1.86685e-13 -1.49533e-14 -1.29417e-13 6.05324e-14 7.13371e-14 4.7717e-15 3.04501e-14 -7.17924e-14 0 0 2.34111e-16 -1.12517e-15 -1.79816e-15 -2.19829e-15 -1.52028e-15 1.21236e-14 3.29874e-15 2.59681e-15 1.6422e-14 1.0241e-14 -7.10097e-15 1.39874e-14 1.11337e-14 1.29307e-14 -6.64301e-15 -2.85349e-15 -8.25681e-15 -9.52273e-15 2.20691e-14 3.55664e-15 -2.10242e-14 -1.72912e-15 5.79419e-15 -1.5045e-14 1.26177e-14 1.38354e-14 -1.83595e-14 -2.67141e-14 1.66747e-14 -6.77568e-15 4.41798e-15 2.35315e-14 7.15794e-15 -1.36369e-14 -1.79976e-14 8.69956e-15 1.90759e-14 8.80857e-14 5.1065e-14 -3.66481e-14 5.44831e-14 7.31393e-15 4.82233e-14 -1.29485e-14 7.46369e-14 7.62454e-14 1.73625e-13 4.2255e-13 2.85373e-12 2.04292e-11 1.35054e-10 8.40713e-10 4.93077e-09 2.71561e-08 1.40051e-07 6.74138e-07 3.01722e-06 1.25012e-05 4.77017e-05 0.000166608 0.000528813 0.00151278 0.00386725 0.0087709 0.0175922 0.0313177 0.0500471 0.0730384 0.099228 0.127715 0.15793 0.189574 0.222515 0.256709 0.292162 0.328909 0.367004 0.406519 0.447535 0.490148 0.534461 0.58058 0.628607 0.678617 0.730611 0.784405 0.839336 0.893441 0.94097 0.965394 0.955936 0.94618 0.93744 0.931835 0.928966 0.927717 0.927183 0.926911 0.926733 0.926561 0.926489 0.926422 0.926367 0.926328 0.926309 0.926315 0.92647 0.926774 0.926763 0.9267 0.926601 0.926461 0.926335 0.926204 0.92608 0.925978 0.925904 0.925863 0.925849 0.925924 0.926226 0.926352 0.926358 0.92647 0.92627 0.926137 0.925886 0.925645 0.925422 0.925329 0.925371 0.926301 0.927132 0.926913 0.926477 0.92597 0.925111 0.923964 0.923027 0.922707 0.923653 0.926238 0.918399 0.919577 0.888664 0.841084 0.839195 0.766939 0.678998 0.613113 0.482036 0.362853 0.240832 0.14009 0.0696666 0.0300925 0.0118149 0.00441617 0.00161509 0.000584951 0.000210745 7.56273e-05 2.70339e-05 9.62188e-06 3.40768e-06 1.20004e-06 4.19906e-07 1.45885e-07 5.02881e-08 1.71879e-08 5.82123e-09 1.95238e-09 6.4814e-10 2.13046e-10 6.90969e-11 2.22348e-11 7.14866e-12 2.28238e-12 5.05069e-13 -1.2015e-13 1.09456e-13 1.34299e-13 -1.21014e-14 -2.67634e-14 -2.93171e-13 -1.85989e-13 2.51479e-13 7.63949e-14 -5.27543e-14 6.49265e-14 3.54814e-14 -1.55457e-13 -2.00531e-14 -1.46207e-13 2.28173e-13 4.67255e-14 -1.04686e-13 4.84508e-14 8.69996e-14 0 0 -3.60379e-15 -4.38588e-15 -4.75392e-15 1.20349e-15 -7.05401e-15 7.95646e-15 6.54218e-15 9.33828e-15 1.89142e-14 1.90973e-14 -2.09194e-14 3.29961e-14 9.28607e-15 1.09614e-14 -1.36174e-14 -1.23661e-14 -2.21909e-14 -3.9366e-15 -1.36101e-16 -1.01402e-15 2.6984e-15 -2.32364e-14 1.23133e-15 -1.58557e-16 3.22701e-14 2.80962e-14 -4.49745e-14 -5.13959e-14 2.71524e-14 -2.17447e-14 -2.56117e-15 2.71239e-14 2.5262e-14 -4.3504e-14 2.01308e-14 2.46087e-14 -1.68114e-14 9.50079e-14 1.03866e-13 -9.63165e-14 9.36664e-14 -4.70724e-15 2.64687e-14 -1.04373e-14 6.34366e-14 1.12261e-13 1.71023e-13 5.22981e-13 2.88052e-12 2.03263e-11 1.3504e-10 8.40736e-10 4.93076e-09 2.71561e-08 1.40051e-07 6.74138e-07 3.01722e-06 1.25012e-05 4.77017e-05 0.000166608 0.000528813 0.00151278 0.00386725 0.0087709 0.0175922 0.0313177 0.0500471 0.0730384 0.099228 0.127715 0.15793 0.189574 0.222515 0.256709 0.292162 0.328909 0.367004 0.406519 0.447535 0.490148 0.534461 0.58058 0.628607 0.678617 0.730611 0.784405 0.839336 0.893441 0.94097 0.965394 0.955936 0.94618 0.93744 0.931835 0.928966 0.927717 0.927183 0.926911 0.926733 0.926561 0.926489 0.926422 0.926367 0.926328 0.926309 0.926315 0.92647 0.926774 0.926763 0.9267 0.926601 0.926461 0.926335 0.926204 0.92608 0.925978 0.925904 0.925863 0.925849 0.925924 0.926226 0.926352 0.926358 0.92647 0.92627 0.926137 0.925886 0.925645 0.925422 0.925329 0.925371 0.926301 0.927132 0.926913 0.926477 0.92597 0.925111 0.923964 0.923027 0.922707 0.923653 0.926238 0.918399 0.919577 0.888664 0.841084 0.839195 0.766939 0.678998 0.613113 0.482036 0.362853 0.240832 0.14009 0.0696666 0.0300925 0.0118149 0.00441617 0.00161509 0.000584951 0.000210745 7.56273e-05 2.70339e-05 9.62188e-06 3.40768e-06 1.20004e-06 4.19906e-07 1.45885e-07 5.02881e-08 1.7188e-08 5.82132e-09 1.95249e-09 6.48059e-10 2.13056e-10 6.90174e-11 2.22904e-11 7.23161e-12 2.18149e-12 3.27949e-13 -1.29542e-13 1.19005e-13 2.9519e-13 6.96337e-14 -3.34038e-13 -1.23908e-13 -1.12731e-13 5.85913e-14 5.1625e-14 3.23455e-14 3.26242e-13 -3.22043e-13 5.80489e-14 1.05175e-14 6.65982e-14 3.18982e-13 -9.3945e-14 -1.64068e-13 1.18577e-13 1.45445e-13 0
				</DataArray>
				<DataArray Name="VitesseY" type="Float32" format="ascii">