<?xml version="1.0"?>
<VTKFile type="PolyData">
	<PolyData>
		<Piece NumberOfPoints="1206" NumberOfPolys="1000">
			<Points>
				<DataArray type="Float32" NumberOfComponents="3" format="ascii">
 0 0 0 0.005 0 0 0.01 0 0 0.015 0 0 0.02 0 0 0.025 0 0 0.03 0 0 0.035 0 0 0.04 0 0 0.045 0 0 0.05 0 0 0.055 0 0 0.06 0 0 0.065 0 0 0.07 0 0 0.075 0 0 0.08 0 0 0.085 0 0 0.09 0 0 0.095 0 0 0.1 0 0 0.105 0 0 0.11 0 0 0.115 0 0 0.12 0 0 0.125 0 0 0.13 0 0 0.135 0 0 0.14 0 0 0.145 0 0 0.15 0 0 0.155 0 0 0.16 0 0 0.165 0 0 0.17 0 0 0.175 0 0 0.18 0 0 0.185 0 0 0.19 0 0 0.195 0 0 0.2 0 0 0.205 0 0 0.21 0 0 0.215 0 0 0.22 0 0 0.225 0 0 0.23 0 0 0.235 0 0 0.24 0 0 0.245 0 0 0.25 0 0 0.255 0 0 0.26 0 0 0.265 0 0 0.27 0 0 0.275 0 0 0.28 0 0 0.285 0 0 0.29 0 0 0.295 0 0 0.3 0 0 0.305 0 0 0.31 0 0 0.315 0 0 0.32 0 0 0.325 0 0 0.33 0 0 0.335 0 0 0.34 0 0 0.345 0 0 0.35 0 0 0.355 0 0 0.36 0 0 0.365 0 0 0.37 0 0 0.375 0 0 0.38 0 0 0.385 0 0 0.39 0 0 0.395 0 0 0.4 0 0 0.405 0 0 0.41 0 0 0.415 0 0 0.42 0 0 0.425 0 0 0.43 0 0 0.435 0 0 0.44 0 0 0.445 0 0 0.45 0 0 0.455 0 0 0.46 0 0 0.465 0 0 0.47 0 0 0.475 0 0 0.480005 0 0 0.485059 0 0 0.490463 0 0 0.497282 0 0 0.508351 0 0 0.511047 0 0 0.514004 0 0 0.517349 0 0 0.521162 0 0 0.525449 0 0 0.530124 0 0 0.535024 0 0 0.540004 0 0 0.545001 0 0 0.55 0 0 0.555 0 0 0.56 0 0 0.565 0 0 0.57 0 0 0.575 0 0 0.58 0 0 0.585 0 0 0.59 0 0 0.595 0 0 0.6 0 0 0.605 0 0 0.61 0 0 0.615 0 0 0.62 0 0 0.625 0 0 0.63 0 0 0.635 0 0 0.64 0 0 0.645 0 0 0.65 0 0 0.655 0 0 0.66 0 0 0.665 0 0 0.67 0 0 0.675 0 0 0.68 0 0 0.685 0 0 0.69 0 0 0.695 0 0 0.7 0 0 0.705 0 0 0.71 0 0 0.715 0 0 0.72 0 0 0.725 0 0 0.73 0 0 0.735 0 0 0.74 0 0 0.745 0 0 0.75 0 0 0.755 0 0 0.76 0 0 0.765 0 0 0.77 0 0 0.775 0 0 0.78 0 0 0.785 0 0 0.79 0 0 0.795 0 0 0.8 0 0 0.805 0 0 0.81 0 0 0.815 0 0 0.82 0 0 0.825 0 0 0.83 0 0 0.835 0 0 0.84 0 0 0.845 0 0 0.85 0 0 0.855 0 0 0.86 0 0 0.865 0 0 0.87 0 0 0.875 0 0 0.88 0 0 0.885 0 0 0.89 0 0 0.895 0 0 0.9 0 0 0.905 0 0 0.91 0 0 0.915 0 0 0.92 0 0 0.925 0 0 0.93 0 0 0.935 0 0 0.94 0 0 0.945 0 0 0.95 0 0 0.955 0 0 0.96 0 0 0.965 0 0 0.97 0 0 0.975 0 0 0.98 0 0 0.985 0 0 0.99 0 0 0.995 0 0 1 0 0 0 0.02 0 0.005 0.02 0 0.01 0.02 0 0.015 0.02 0 0.02 0.02 0 0.025 0.02 0 0.03 0.02 0 0.035 0.02 0 0.04 0.02 0 0.045 0.02 0 0.05 0.02 0 0.055 0.02 0 0.06 0.02 0 0.065 0.02 0 0.07 0.02 0 0.075 0.02 0 0.08 0.02 0 0.085 0.02 0 0.09 0.02 0 0.095 0.02 0 0.1 0.02 0 0.105 0.02 0 0.11 0.02 0 0.115 0.02 0 0.12 0.02 0 0.125 0.02 0 0.13 0.02 0 0.135 0.02 0 0.14 0.02 0 0.145 0.02 0 0.15 0.02 0 0.155 0.02 0 0.16 0.02 0 0.165 0.02 0 0.17 0.02 0 0.175 0.02 0 0.18 0.02 0 0.185 0.02 0 0.19 0.02 0 0.195 0.02 0 0.2 0.02 0 0.205 0.02 0 0.21 0.02 0 0.215 0.02 0 0.22 0.02 0 0.225 0.02 0 0.23 0.02 0 0.235 0.02 0 0.24 0.02 0 0.245 0.02 0 0.25 0.02 0 0.255 0.02 0 0.26 0.02 0 0.265 0.02 0 0.27 0.02 0 0.275 0.02 0 0.28 0.02 0 0.285 0.02 0 0.29 0.02 0 0.295 0.02 0 0.3 0.02 0 0.305 0.02 0 0.31 0.02 0 0.315 0.02 0 0.32 0.02 0 0.325 0.02 0 0.33 0.02 0 0.335 0.02 0 0.34 0.02 0 0.345 0.02 0 0.35 0.02 0 0.355 0.02 0 0.36 0.02 0 0.365 0.02 0 0.37 0.02 0 0.375 0.02 0 0.38 0.02 0 0.385 0.02 0 0.39 0.02 0 0.395 0.02 0 0.4 0.02 0 0.405 0.02 0 0.41 0.02 0 0.415 0.02 0 0.42 0.02 0 0.425 0.02 0 0.43 0.02 0 0.435 0.02 0 0.44 0.02 0 0.445 0.02 0 0.45 0.02 0 0.455 0.02 0 0.46 0.02 0 0.465 0.02 0 0.47 0.02 0 0.475 0.02 0 0.480005 0.02 0 0.485059 0.02 0 0.490463 0.02 0 0.497282 0.02 0 0.508351 0.02 0 0.511047 0.02 0 0.514004 0.02 0 0.517349 0.02 0 0.521162 0.02 0 0.525449 0.02 0 0.530124 0.02 0 0.535024 0.02 0 0.540004 0.02 0 0.545001 0.02 0 0.55 0.02 0 0.555 0.02 0 0.56 0.02 0 0.565 0.02 0 0.57 0.02 0 0.575 0.02 0 0.58 0.02 0 0.585 0.02 0 0.59 0.02 0 0.595 0.02 0 0.6 0.02 0 0.605 0.02 0 0.61 0.02 0 0.615 0.02 0 0.62 0.02 0 0.625 0.02 0 0.63 0.02 0 0.635 0.02 0 0.64 0.02 0 0.645 0.02 0 0.65 0.02 0 0.655 0.02 0 0.66 0.02 0 0.665 0.02 0 0.67 0.02 0 0.675 0.02 0 0.68 0.02 0 0.685 0.02 0 0.69 0.02 0 0.695 0.02 0 0.7 0.02 0 0.705 0.02 0 0.71 0.02 0 0.715 0.02 0 0.72 0.02 0 0.725 0.02 0 0.73 0.02 0 0.735 0.02 0 0.74 0.02 0 0.745 0.02 0 0.75 0.02 0 0.755 0.02 0 0.76 0.02 0 0.765 0.02 0 0.77 0.02 0 0.775 0.02 0 0.78 0.02 0 0.785 0.02 0 0.79 0.02 0 0.795 0.02 0 0.8 0.02 0 0.805 0.02 0 0.81 0.02 0 0.815 0.02 0 0.82 0.02 0 0.825 0.02 0 0.83 0.02 0 0.835 0.02 0 0.84 0.02 0 0.845 0.02 0 0.85 0.02 0 0.855 0.02 0 0.86 0.02 0 0.865 0.02 0 0.87 0.02 0 0.875 0.02 0 0.88 0.02 0 0.885 0.02 0 0.89 0.02 0 0.895 0.02 0 0.9 0.02 0 0.905 0.02 0 0.91 0.02 0 0.915 0.02 0 0.92 0.02 0 0.925 0.02 0 0.93 0.02 0 0.935 0.02 0 0.94 0.02 0 0.945 0.02 0 0.95 0.02 0 0.955 0.02 0 0.96 0.02 0 0.965 0.02 0 0.97 0.02 0 0.975 0.02 0 0.98 0.02 0 0.985 0.02 0 0.99 0.02 0 0.995 0.02 0 1 0.02 0 0 0.04 0 0.005 0.04 0 0.01 0.04 0 0.015 0.04 0 0.02 0.04 0 0.025 0.04 0 0.03 0.04 0 0.035 0.04 0 0.04 0.04 0 0.045 0.04 0 0.05 0.04 0 0.055 0.04 0 0.06 0.04 0 0.065 0.04 0 0.07 0.04 0 0.075 0.04 0 0.08 0.04 0 0.085 0.04 0 0.09 0.04 0 0.095 0.04 0 0.1 0.04 0 0.105 0.04 0 0.11 0.04 0 0.115 0.04 0 0.12 0.04 0 0.125 0.04 0 0.13 0.04 0 0.135 0.04 0 0.14 0.04 0 0.145 0.04 0 0.15 0.04 0 0.155 0.04 0 0.16 0.04 0 0.165 0.04 0 0.17 0.04 0 0.175 0.04 0 0.18 0.04 0 0.185 0.04 0 0.19 0.04 0 0.195 0.04 0 0.2 0.04 0 0.205 0.04 0 0.21 0.04 0 0.215 0.04 0 0.22 0.04 0 0.225 0.04 0 0.23 0.04 0 0.235 0.04 0 0.24 0.04 0 0.245 0.04 0 0.25 0.04 0 0.255 0.04 0 0.26 0.04 0 0.265 0.04 0 0.27 0.04 0 0.275 0.04 0 0.28 0.04 0 0.285 0.04 0 0.29 0.04 0 0.295 0.04 0 0.3 0.04 0 0.305 0.04 0 0.31 0.04 0 0.315 0.04 0 0.32 0.04 0 0.325 0.04 0 0.33 0.04 0 0.335 0.04 0 0.34 0.04 0 0.345 0.04 0 0.35 0.04 0 0.355 0.04 0 0.36 0.04 0 0.365 0.04 0 0.37 0.04 0 0.375 0.04 0 0.38 0.04 0 0.385 0.04 0 0.39 0.04 0 0.395 0.04 0 0.4 0.04 0 0.405 0.04 0 0.41 0.04 0 0.415 0.04 0 0.42 0.04 0 0.425 0.04 0 0.43 0.04 0 0.435 0.04 0 0.44 0.04 0 0.445 0.04 0 0.45 0.04 0 0.455 0.04 0 0.46 0.04 0 0.465 0.04 0 0.47 0.04 0 0.475 0.04 0 0.480005 0.04 0 0.485059 0.04 0 0.490463 0.04 0 0.497282 0.04 0 0.508351 0.04 0 0.511047 0.04 0 0.514004 0.04 0 0.517349 0.04 0 0.521162 0.04 0 0.525449 0.04 0 0.530124 0.04 0 0.535024 0.04 0 0.540004 0.04 0 0.545001 0.04 0 0.55 0.04 0 0.555 0.04 0 0.56 0.04 0 0.565 0.04 0 0.57 0.04 0 0.575 0.04 0 0.58 0.04 0 0.585 0.04 0 0.59 0.04 0 0.595 0.04 0 0.6 0.04 0 0.605 0.04 0 0.61 0.04 0 0.615 0.04 0 0.62 0.04 0 0.625 0.04 0 0.63 0.04 0 0.635 0.04 0 0.64 0.04 0 0.645 0.04 0 0.65 0.04 0 0.655 0.04 0 0.66 0.04 0 0.665 0.04 0 0.67 0.04 0 0.675 0.04 0 0.68 0.04 0 0.685 0.04 0 0.69 0.04 0 0.695 0.04 0 0.7 0.04 0 0.705 0.04 0 0.71 0.04 0 0.715 0.04 0 0.72 0.04 0 0.725 0.04 0 0.73 0.04 0 0.735 0.04 0 0.74 0.04 0 0.745 0.04 0 0.75 0.04 0 0.755 0.04 0 0.76 0.04 0 0.765 0.04 0 0.77 0.04 0 0.775 0.04 0 0.78 0.04 0 0.785 0.04 0 0.79 0.04 0 0.795 0.04 0 0.8 0.04 0 0.805 0.04 0 0.81 0.04 0 0.815 0.04 0 0.82 0.04 0 0.825 0.04 0 0.83 0.04 0 0.835 0.04 0 0.84 0.04 0 0.845 0.04 0 0.85 0.04 0 0.855 0.04 0 0.86 0.04 0 0.865 0.04 0 0.87 0.04 0 0.875 0.04 0 0.88 0.04 0 0.885 0.04 0 0.89 0.04 0 0.895 0.04 0 0.9 0.04 0 0.905 0.04 0 0.91 0.04 0 0.915 0.04 0 0.92 0.04 0 0.925 0.04 0 0.93 0.04 0 0.935 0.04 0 0.94 0.04 0 0.945 0.04 0 0.95 0.04 0 0.955 0.04 0 0.96 0.04 0 0.965 0.04 0 0.97 0.04 0 0.975 0.04 0 0.98 0.04 0 0.985 0.04 0 0.99 0.04 0 0.995 0.04 0 1 0.04 0 0 0.06 0 0.005 0.06 0 0.01 0.06 0 0.015 0.06 0 0.02 0.06 0 0.025 0.06 0 0.03 0.06 0 0.035 0.06 0 0.04 0.06 0 0.045 0.06 0 0.05 0.06 0 0.055 0.06 0 0.06 0.06 0 0.065 0.06 0 0.07 0.06 0 0.075 0.06 0 0.08 0.06 0 0.085 0.06 0 0.09 0.06 0 0.095 0.06 0 0.1 0.06 0 0.105 0.06 0 0.11 0.06 0 0.115 0.06 0 0.12 0.06 0 0.125 0.06 0 0.13 0.06 0 0.135 0.06 0 0.14 0.06 0 0.145 0.06 0 0.15 0.06 0 0.155 0.06 0 0.16 0.06 0 0.165 0.06 0 0.17 0.06 0 0.175 0.06 0 0.18 0.06 0 0.185 0.06 0 0.19 0.06 0 0.195 0.06 0 0.2 0.06 0 0.205 0.06 0 0.21 0.06 0 0.215 0.06 0 0.22 0.06 0 0.225 0.06 0 0.23 0.06 0 0.235 0.06 0 0.24 0.06 0 0.245 0.06 0 0.25 0.06 0 0.255 0.06 0 0.26 0.06 0 0.265 0.06 0 0.27 0.06 0 0.275 0.06 0 0.28 0.06 0 0.285 0.06 0 0.29 0.06 0 0.295 0.06 0 0.3 0.06 0 0.305 0.06 0 0.31 0.06 0 0.315 0.06 0 0.32 0.06 0 0.325 0.06 0 0.33 0.06 0 0.335 0.06 0 0.34 0.06 0 0.345 0.06 0 0.35 0.06 0 0.355 0.06 0 0.36 0.06 0 0.365 0.06 0 0.37 0.06 0 0.375 0.06 0 0.38 0.06 0 0.385 0.06 0 0.39 0.06 0 0.395 0.06 0 0.4 0.06 0 0.405 0.06 0 0.41 0.06 0 0.415 0.06 0 0.42 0.06 0 0.425 0.06 0 0.43 0.06 0 0.435 0.06 0 0.44 0.06 0 0.445 0.06 0 0.45 0.06 0 0.455 0.06 0 0.46 0.06 0 0.465 0.06 0 0.47 0.06 0 0.475 0.06 0 0.480005 0.06 0 0.485059 0.06 0 0.490463 0.06 0 0.497282 0.06 0 0.508351 0.06 0 0.511047 0.06 0 0.514004 0.06 0 0.517349 0.06 0 0.521162 0.06 0 0.525449 0.06 0 0.530124 0.06 0 0.535024 0.06 0 0.540004 0.06 0 0.545001 0.06 0 0.55 0.06 0 0.555 0.06 0 0.56 0.06 0 0.565 0.06 0 0.57 0.06 0 0.575 0.06 0 0.58 0.06 0 0.585 0.06 0 0.59 0.06 0 0.595 0.06 0 0.6 0.06 0 0.605 0.06 0 0.61 0.06 0 0.615 0.06 0 0.62 0.06 0 0.625 0.06 0 0.63 0.06 0 0.635 0.06 0 0.64 0.06 0 0.645 0.06 0 0.65 0.06 0 0.655 0.06 0 0.66 0.06 0 0.665 0.06 0 0.67 0.06 0 0.675 0.06 0 0.68 0.06 0 0.685 0.06 0 0.69 0.06 0 0.695 0.06 0 0.7 0.06 0 0.705 0.06 0 0.71 0.06 0 0.715 0.06 0 0.72 0.06 0 0.725 0.06 0 0.73 0.06 0 0.735 0.06 0 0.74 0.06 0 0.745 0.06 0 0.75 0.06 0 0.755 0.06 0 0.76 0.06 0 0.765 0.06 0 0.77 0.06 0 0.775 0.06 0 0.78 0.06 0 0.785 0.06 0 0.79 0.06 0 0.795 0.06 0 0.8 0.06 0 0.805 0.06 0 0.81 0.06 0 0.815 0.06 0 0.82 0.06 0 0.825 0.06 0 0.83 0.06 0 0.835 0.06 0 0.84 0.06 0 0.845 0.06 0 0.85 0.06 0 0.855 0.06 0 0.86 0.06 0 0.865 0.06 0 0.87 0.06 0 0.875 0.06 0 0.88 0.06 0 0.885 0.06 0 0.89 0.06 0 0.895 0.06 0 0.9 0.06 0 0.905 0.06 0 0.91 0.06 0 0.915 0.06 0 0.92 0.06 0 0.925 0.06 0 0.93 0.06 0 0.935 0.06 0 0.94 0.06 0 0.945 0.06 0 0.95 0.06 0 0.955 0.06 0 0.96 0.06 0 0.965 0.06 0 0.97 0.06 0 0.975 0.06 0 0.98 0.06 0 0.985 0.06 0 0.99 0.06 0 0.995 0.06 0 1 0.06 0 0 0.08 0 0.005 0.08 0 0.01 0.08 0 0.015 0.08 0 0.02 0.08 0 0.025 0.08 0 0.03 0.08 0 0.035 0.08 0 0.04 0.08 0 0.045 0.08 0 0.05 0.08 0 0.055 0.08 0 0.06 0.08 0 0.065 0.08 0 0.07 0.08 0 0.075 0.08 0 0.08 0.08 0 0.085 0.08 
[...]
			<PointData Scalars="VitesseX">
				<DataArray Name="VitesseX" type="Float32" format="ascii">
 0 -3.43845e-16 -6.6957e-16 1.1372e-15 -4.67629e-16 -8.3103e-16 2.40838e-15 -3.64042e-15 0 4.81383e-15 -1.37538e-15 -3.87399e-15 4.38572e-15 -5.1172e-16 -6.1892e-15 6.1892e-15 0 -6.1892e-15 6.1892e-15 0 -6.1892e-15 1.16907e-14 -1.16907e-14 0 1.16907e-14 0 -1.16907e-14 1.16907e-14 -2.37253e-14 2.37253e-14 -1.16907e-14 1.16907e-14 0 -1.16907e-14 1.16907e-14 -2.37253e-14 2.37253e-14 -1.16907e-14 1.16907e-14 -1.16907e-14 1.16907e-14 -2.37253e-14 2.37253e-14 0 0 -2.37253e-14 2.37253e-14 -2.37253e-14 2.37253e-14 0 0 0 -2.37253e-14 2.37253e-14 0 0 0 -4.81383e-14 4.81383e-14 0 0 -2.37253e-14 2.37253e-14 0 0 0 -2.37253e-14 2.37253e-14 0 0 -4.81383e-14 4.81383e-14 0 0 -2.37253e-14 2.37253e-14 0 0 0 -2.37253e-14 4.81383e-14 -4.81383e-14 0 0 4.81383e-14 -4.81383e-14 0 4.81383e-14 -4.81383e-14 5.27229e-14 7.84101e-13 6.5381e-11 4.12049e-09 2.00799e-07 7.30372e-06 0.000188755 0.00322143 0.032659 0.178936 0.558839 1.07872 0.989439 0.842057 0.646297 0.425879 0.221471 0.0793746 0.0181861 0.0030806 0.000448524 5.89909e-05 7.08963e-06 7.8158e-07 7.92368e-08 7.4033e-09 6.38782e-10 5.09617e-11 3.75542e-12 2.53415e-13 3.76101e-14 -3.85106e-14 3.85106e-14 -3.85106e-14 0 3.85106e-14 -3.85106e-14 3.85106e-14 -3.85106e-14 0 3.85106e-14 -3.85106e-14 3.85106e-14 -3.85106e-14 0 3.85106e-14 -3.85106e-14 3.85106e-14 -3.85106e-14 0 3.50357e-14 -5.32634e-14 3.96175e-14 1.61875e-14 -3.28002e-14 4.30983e-16 2.99762e-14 -3.51567e-14 3.85106e-14 -2.5876e-14 -1.10788e-14 3.19143e-14 -3.34992e-14 3.85106e-14 -3.85106e-14 3.85106e-14 -4.81383e-14 4.54696e-14 1.14477e-14 -3.99185e-14 1.46056e-14 -1.65903e-14 3.95505e-14 -2.1494e-14 -1.82162e-14 -5.18051e-15 4.12178e-14 -4.6315e-14 5.08318e-15 0 7.70212e-14 -6.33655e-14 -1.35947e-14 0 0 5.6555e-14 -5.0953e-14 -4.2064e-16 -5.19689e-15 0 7.70212e-14 -7.52037e-14 -1.80109e-15 0 7.16071e-15 6.26998e-14 -6.98605e-14 5.84771e-14 -5.84771e-14 0 7.70212e-14 -6.99905e-14 -7.63707e-14 1.10177e-13 -4.27024e-14 1.86659e-15 0 -3.64429e-15 8.06335e-14 -7.70048e-14 0 0 0 3.43845e-16 -8.35701e-16 1.8749e-15 -1.55497e-15 -6.99381e-16 3.3205e-15 -4.05381e-15 -1.14615e-16 4.12614e-15 -6.87689e-16 -4.68359e-15 7.38086e-15 -4.63481e-15 -3.68872e-15 5.62627e-15 -3.81456e-16 -4.90275e-15 3.34666e-15 1.93754e-15 -5.4984e-15 8.96647e-15 -9.65728e-15 0 1.16907e-14 0 -1.16907e-14 1.1265e-14 -2.28657e-14 2.32914e-14 -1.16907e-14 1.16907e-14 0 -1.16907e-14 1.16907e-14 -2.37253e-14 2.37253e-14 -1.16907e-14 1.16907e-14 -1.16907e-14 1.16907e-14 -2.23277e-14 1.82448e-14 4.08287e-15 0 -2.37253e-14 2.37253e-14 -2.37253e-14 2.37253e-14 0 0 0 -2.37253e-14 2.37253e-14 -5.64889e-16 1.14615e-15 -5.81262e-16 -4.81383e-14 4.81383e-14 0 0 -2.37253e-14 2.37253e-14 0 0 0 -2.37253e-14 2.37253e-14 1.94562e-15 5.78009e-15 -5.13729e-14 4.36472e-14 0 1.97302e-15 -1.83802e-14 1.27562e-14 3.651e-15 0 0 -2.37253e-14 4.59005e-14 -3.6126e-14 -1.47031e-14 4.34732e-15 4.98575e-14 -4.21848e-14 -4.96024e-15 4.60071e-14 -4.81383e-14 5.21416e-14 7.82038e-13 6.53855e-11 4.12049e-09 2.00799e-07 7.30372e-06 0.000188755 0.00322143 0.032659 0.178936 0.558839 1.07872 0.989439 0.842057 0.646297 0.425879 0.221471 0.0793746 0.0181861 0.0030806 0.000448524 5.89909e-05 7.08963e-06 7.8158e-07 7.92368e-08 7.40329e-09 6.38751e-10 5.09989e-11 3.73636e-12 2.40498e-13 3.67364e-14 -3.85106e-14 3.85106e-14 -4.01633e-14 4.11258e-15 4.28859e-14 -4.53606e-14 3.85106e-14 -3.51272e-14 7.43297e-15 2.76891e-14 -3.85106e-14 3.85106e-14 -2.98371e-14 2.44226e-15 2.73792e-14 -3.85106e-14 3.66686e-14 -3.48429e-14 -1.83384e-15 3.84801e-14 -3.70635e-14 2.49135e-14 9.55483e-15 -2.12136e-14 4.41159e-14 -2.59207e-14 -3.10394e-14 3.66768e-14 -1.92067e-14 9.59843e-15 1.37975e-14 -4.0097e-14 3.40701e-14 -3.32151e-14 4.11244e-14 -4.93917e-14 4.3301e-14 4.15907e-14 -4.48466e-14 -1.75744e-14 5.87137e-14 -2.77043e-14 -6.57229e-15 -4.45143e-14 2.69822e-14 7.27069e-14 -9.64804e-14 -8.19979e-16 0 6.58794e-14 -3.74211e-14 -1.4817e-14 -1.36934e-14 0 5.61155e-14 -3.08782e-14 -2.11886e-14 -4.03179e-15 1.04792e-14 5.60304e-14 -5.28478e-14 1.14085e-14 -2.32416e-14 -1.85801e-15 6.49761e-14 -5.67489e-14 3.94788e-14 -4.76608e-14 3.54988e-15 6.62567e-14 -4.80384e-14 -6.66723e-14 9.14008e-14 -3.28474e-14 -1.36289e-14 0 -5.71274e-15 5.77615e-14 -5.20319e-14 -8.18679e-18 0 0 5.15767e-16 7.87062e-16 -1.68441e-15 2.96042e-15 -1.65925e-15 1.95648e-15 -8.11911e-15 5.93074e-15 4.46998e-15 -5.84536e-15 3.09877e-15 -6.67464e-15 1.31042e-14 -1.75319e-14 8.00362e-15 1.24469e-14 -1.92821e-14 1.34084e-14 -6.57325e-15 -8.70761e-15 1.5565e-14 -4.10664e-15 0 -6.01728e-15 0 6.86559e-15 1.50995e-14 -3.28344e-14 1.08693e-14 6.01728e-15 -6.01728e-15 2.2923e-14 -1.57709e-14 -7.15213e-15 -1.18626e-14 1.35468e-14 2.63205e-14 -2.74397e-14 5.45239e-15 -6.01728e-15 -1.10463e-14 3.15974e-14 -2.00632e-14 1.12728e-15 1.05912e-14 -1.22065e-14 1.22065e-14 -1.22065e-14 0 0 0 3.28684e-14 -5.10879e-14 5.95995e-14 -1.84571e-14 -3.86084e-14 1.45392e-14 -1.34013e-14 3.11365e-14 -8.702e-15 -1.97497e-14 3.1761e-14 -1.44747e-14 1.44747e-14 -9.66515e-17 -3.16644e-14 3.07214e-14 -3.13774e-14 5.89332e-14 -3.59158e-14 -2.06831e-14 4.18297e-14 -1.9648e-14 6.7745e-14 -4.2328e-14 -5.39012e-14 3.64676e-14 -3.11738e-14 5.03318e-14 2.76823e-15 -3.14857e-14 1.93946e-14 -6.04242e-14 5.03166e-14 1.8099e-14 -3.39022e-14 3.83916e-15 -1.30758e-14 2.3779e-14 8.44104e-13 6.5337e-11 4.12049e-09 2.00799e-07 7.30372e-06 0.000188755 0.00322143 0.032659 0.178936 0.558839 1.07872 0.989439 0.842057 0.646297 0.425879 0.221471 0.0793746 0.0181861 0.0030806 0.000448524 5.89909e-05 7.08963e-06 7.8158e-07 7.92369e-08 7.40325e-09 6.38732e-10 5.10287e-11 3.7231e-12 2.61913e-13 -2.21981e-14 2.26722e-14 -1.92397e-14 -4.55115e-14 9.75509e-14 -4.75878e-14 1.47586e-14 1.16899e-14 -2.69266e-14 4.3391e-14 -5.05139e-14 1.87816e-14 -1.56675e-14 3.14815e-14 6.49331e-15 -4.16224e-14 1.56675e-14 -1.20794e-14 -2.95863e-14 5.13513e-14 -2.00949e-14 1.32439e-14 5.83787e-14 -1.01407e-13 1.25225e-13 -9.9195e-15 -1.00137e-13 6.2917e-14 -7.49509e-14 5.48785e-14 6.05061e-14 -3.202e-14 1.3085e-14 -9.90047e-14 6.8119e-14 -1.76837e-14 -3.71136e-15 -5.21633e-15 4.48335e-14 3.22782e-14 -8.34814e-15 6.06629e-15 -2.22512e-14 -3.04598e-14 7.2845e-14 -5.11988e-14 1.22941e-13 -1.63742e-13 -4.42379e-14 4.19486e-14 -1.94517e-14 2.07146e-14 1.1981e-14 -8.58952e-14 9.44678e-14 -3.25359e-14 2.99052e-14 -7.16938e-15 -7.9254e-14 5.12426e-14 -2.64701e-14 5.75787e-14 5.38972e-14 -1.34398e-13 8.33753e-14 -5.55884e-14 3.60095e-14 4.00517e-14 -1.11115e-13 7.72013e-14 -3.8707e-14 6.79421e-14 -3.34195e-14 -6.76024e-14 1.05217e-13 -5.65068e-14 1.94124e-14 -9.10369e-16 -7.10252e-14 7.5585e-14 -4.78665e-18 0 0 3.27379e-16 -9.68402e-16 -6.76064e-16 8.75001e-16 1.52998e-16 3.83474e-15 -5.63679e-15 1.99991e-16 3.31682e-15 -5.1608e-15 1.49768e-15 -3.56034e-15 7.09838e-15 -5.91293e-15 5.47196e-15 1.2523e-15 -6.17625e-15 1.5721e-15 3.35185e-15 -6.30382e-15 1.24439e-14 -1.21574e-14 0 1.22065e-14 0 -9.51303e-15 8.93762e-15 -2.29343e-14 2.35097e-14 -1.22065e-14 1.22065e-14 0 -1.22065e-14 1.22065e-14 -2.40691e-14 6.99377e-15 1.81527e-14 -1.28894e-14 -3.94453e-16 1.22065e-14 -2.46504e-14 2.52153e-14 4.67091e-15 -1.16328e-14 -1.31807e-14 1.35606e-14 -1.02364e-14 1.62535e-14 0 0 0 -1.37383e-14 1.42429e-14 4.14952e-14 -4.25811e-14 -3.01561e-14 -3.62526e-15 8.80512e-15 2.55096e-14 -1.0635e-14 -1.33861e-14 3.45716e-14 1.05067e-14 -1.05067e-14 -1.05025e-14 -2.40691e-14 2.40691e-14 3.16636e-15 3.83485e-15 -3.24009e-14 3.06082e-14 -5.1143e-15 1.23149e-14 4.41142e-14 -3.69911e-14 -3.0136e-14 1.05603e-14 -5.26642e-15 4.55624e-14 9.73262e-15 -4.69429e-14 1.71085e-14 1.77731e-14 -6.16054e-15 -6.09268e-15 -3.81784e-14 3.63899e-14 -4.56974e-14 3.63793e-14 8.07997e-13 6.53643e-11 4.12052e-09 2.00799e-07 7.30372e-06 0.000188755 0.00322143 0.032659 0.178936 0.558839 1.07872 0.989439 0.842057 0.646297 0.425879 0.221471 0.0793746 0.0181861 0.0030806 0.000448524 5.89909e-05 7.08963e-06 7.8158e-07 7.92368e-08 7.40333e-09 6.38715e-10 5.10211e-11 3.78649e-12 1.6887e-13 3.35917e-14 -3.86755e-14 3.86951e-14 -7.57226e-14 9.21865e-14 -1.37805e-14 -4.13088e-14 8.49032e-14 1.61502e-14 -8.36916e-14 2.13247e-14 -3.86456e-14 3.86627e-14 1.55974e-14 -2.13355e-15 -1.70208e-14 -3.50862e-14 4.05363e-14 -6.11698e-14 9.00228e-14 -1.86646e-14 -5.3533e-14 6.43425e-14 -3.01039e-14 8.59364e-14 -8.50865e-14 7.32293e-15 -3.76291e-15 4.93905e-14 -2.05765e-14 6.78328e-14 -5.42794e-14 1.81144e-15 -2.77772e-14 -4.9754e-15 1.36712e-14 -6.08853e-14 5.75922e-14 -9.77251e-15 2.0498e-14 6.20451e-14 -3.56259e-14 6.00736e-14 -9.0163e-14 6.73966e-14 -6.8209e-14 3.12573e-14 -2.56e-14 -2.97227e-14 -3.56553e-14 2.47009e-14 2.15097e-14 -3.00066e-14 -1.842e-14 4.28016e-14 9.05937e-15 -5.70671e-15 -1.95684e-14 -4.72969e-14 2.67242e-14 2.0397e-14 -2.89437e-14 4.35013e-14 -6.16889e-14 1.05509e-13 -5.6821e-14 -3.03481e-14 6.10181e-14 -6.04468e-14 2.52548e-14 4.29583e-15 2.01053e-16 -1.32821e-14 2.18851e-14 1.55605e-14 -5.39744e-14 1.77544e-17 3.20765e-14 -7.47807e-15 -1.55206e-14 -8.99108e-15 0 0 -1.09646e-16 -9.36771e-16 2.68489e-15 -4.41056e-15 3.32986e-15 3.55952e-16 -1.6373e-16 -2.39375e-15 -2.26664e-15 5.69495e-15 -3.39041e-15 4.93093e-15 -9.01995e-15 4.33535e-15 5.38693e-15 -8.43273e-15 1.7779e-14 -1.41933e-14 1.46974e-14 -1.29541e-14 -2.73912e-15 1.16432e-14 -6.2813e-15 1.3215e-14 -7.25426e-15 -1.07159e-14 -1.27151e-14 -3.2061e-15 3.13827e-14 -2.0077e-14 1.27634e-14 -1.71746e-14 2.05735e-14 -2.9341e-15 -2.22497e-14 2.21321e-14 -1.45189e-14 2.31938e-14 -2.9197e-14 2.96224e-14 -3.35164e-14 0 2.8817e-14 -1.42822e-15 -2.97611e-14 2.59758e-14 -2.59795e-14 2.64451e-14 0 0 8.46425e-15 -3.59288e-14 5.46529e-14 -2.71334e-14 -2.29779e-14 7.871e-15 -3.70233e-14 3.57804e-14 -3.42189e-16 1.07042e-14 1.27175e-14 -1.1721e-14 2.05219e-14 -2.49814e-14 -2.23595e-17 1.24741e-14 -1.15311e-14 2.61059e-14 -4.93182e-14 -1.40855e-14 4.07715e-14 -1.24501e-14 5.16794e-14 -3.08984e-14 1.10526e-14 -8.49873e-15 -2.59073e-14 2.5486e-14 3.48064e-14 4.78449e-14 -1.03416e-13 3.22817e-14 5.7524e-14 2.08609e-14 -4.08355e-14 -8.24247e-14 6.12284e-14 -6.12266e-14 1.30988e-13 6.88848e-13 6.54244e-11 4.12054e-09 2.00799e-07 7.30372e-06 0.000188755 0.00322143 0.032659 0.178936 0.558839 1.07872 0.989439 0.842057 0.646297 0.425879 0.221471 0.0793746 0.0181861 0.0030806 0.000448524 5.89909e-05 7.08963e-06 7.8158e-07 7.92367e-08 7.40339e-09 6.38674e-10 5.09957e-11 3.78633e-12 1.34416e-13 1.74167e-14 -6.75654e-14 5.89427e-14 7.66994e-15 7.29266e-15 -9.83032e-15 -4.5344e-14 7.92602e-14 6.16581e-14 -9.24428e-14 -3.56119e-15 -3.77081e-14 3.64495e-14 7.22738e-14 1.47871e-15 -4.17196e-14 -2.00602e-14 -1.38154e-14 -8.22975e-15 5.16306e-14 -3.49213e-14 -7.68133e-14 1.16777e-13 -3.90499e-14 1.29751e-14 6.54259e-15 -1.74068e-14 -8.06614e-14 1.40418e-13 -5.42951e-14 4.54185e-14 -1.78687e-14 -3.53842e-14 7.09859e-14 -1.14681e-13 4.16133e-14 -1.24938e-14 1.55665e-14 6.28307e-14 -5.54925e-14 -1.15676e-14 1.10296e-13 3.02025e-14 -8.92808e-14 -3.74907e-14 1.97065e-14 -9.44108e-14 6.8636e-14 6.8082e-14 -8.66103e-14 1.5908e-14 2.05466e-14 -3.19905e-14 6.16163e-14 -1.11017e-13 1.3255e-13 -7.5963e-14 -8.59087e-15 4.41836e-14 -1.4287e-14 5.5896e-14 -1.15817e-13 1.15029e-14 6.26798e-14 -6.17685e-14 6.38424e-14 -6.67818e-14 5.23629e-14 3.30183e-14 -1.10913e-13 8.39835e-14 -4.68076e-14 -5.68869e-14 1.08356e-13 -3.52823e-14 3.77676e-14 -5.00662e-14 1.10138e-14 7.1619e-14 -1.24982e-13 3.8631e-14 0 0 -8.74049e-16 2.63922e-15 7.4047e-16 -2.00797e-15 3.60296e-15 -7.27724e-15 -8.24917e-16 6.90321e-15 -5.66539e-15 1.00208e-14 1.91455e-15 -6.74273e-15 2.72956e-15 -1.3379e-14 1.07739e-14 6.28674e-15 1.29625e-14 -5.21799e-15 5.66954e-15 -2.59083e-14 -5.47824e-15 4.70117e-14 -1.25626e-14 -2.17083e-14 -1.45085e-14 2.30162e-14 -2.39457e-14 -4.20644e-15 1.46271e-14 7.98425e-15 -2.26114e-14 1.14967e-14 4.5709e-14 -5.62762e-14 3.63876e-15 3.36449e-14 -1.0115e-15 5.5961e-15 -3.50097e-14 1.11065e-14 -1.88945e-14 0 0 2.26638e-14 1.1747e-14 -2.33078e-14 1.66522e-14 -2.77552e-14 0 0 1.69285e-14 4.50811e-14 -4.50811e-14 -1.69285e-14 0 0 1.04207e-14 -2.09902e-14 1.05696e-14 2.52744e-14 3.64331e-14 -5.27885e-14 -8.91892e-15 0 2.07669e-14 3.3483e-14 -3.3483e-14 -2.07669e-14 0 1.94067e-14 -6.01957e-14 6.89877e-14 3.54867e-14 -1.49995e-15 9.64426e-15 -7.18297e-14 0 -8.42683e-16 1.02877e-13 3.80982e-14 -1.51804e-13 9.85419e-14 -5.00412e-14 1.031e-13 2.94375e-15 -1.46377e-13 1.34794e-14 -9.07168e-15 1.85215e-13 6.69935e-13 6.54043e-11 4.12052e-09 2.00799e-07 7.30372e-06 0.000188755 0.00322143 0.032659 0.178936 0.558839 1.07872 0.989439 0.842057 0.646297 0.425879 0.221471 0.0793746 0.0181861 0.0030806 0.000448524 5.89909e-05 7.08963e-06 7.8158e-07 7.92368e-08 7.40334e-09 6.38664e-10 5.09704e-11 3.72856e-12 2.27298e-13 -1.12656e-13 2.60603e-14 -3.6486e-14 1.17614e-13 1.71445e-14 -1.34479e-13 7.36863e-14 -2.63801e-14 6.89581e-14 5.44171e-14 -1.67681e-13 7.7931e-14 -7.42633e-14 1.97542e-13 1.53743e-14 -1.48833e-13 9.9946e-14 -1.67681e-13 7.7931e-14 2.95526e-14 -1.1464e-13 8.24657e-16 2.11376e-13 -2.23595e-13 1.1416e-13 7.56282e-14 -1.67908e-13 -1.08488e-15 -2.64927e-15 5.48957e-14 4.58901e-14 1.30747e-14 -1.55185e-15 -3.01263e-14 -5.52315e-14 -2.3201e-14 1.40021e-13 -1.35549e-13 1.63222e-13 -3.76659e-14 -1.14223e-13 1.69885e-13 -9.35541e-15 -6.74059e-14 6.8034e-15 1.43378e-14 -1.09502e-13 7.77191e-15 1.13956e-13 -1.80126e-14 -1.11285e-13 5.094e-14 3.60082e-14 1.56584e-14 -1.18781e-13 1.26204e-13 -6.97812e-14 4.96761e-14 2.73723e-14 -5.16394e-16 -1.69857e-14 -2.80704e-14 1.92002e-14 2.64346e-14 -1.56994e-13 6.28955e-14 4.28152e-14 4.23365e-14 1.52789e-15 -1.25172e-13 2.64324e-14 6.7965e-14 -9.70421e-14 -3.47808e-14 1.31742e-13 9.9532e-14 -6.13609e-14 -3.60171e-14 -1.85846e-14 -4.06639e-14 9.52663e-14 0
				</DataArray>
				<DataArray Name="VitesseY" type="Float32" format="ascii">