<?xml version="1.0"?>
<VTKFile type="PolyData">
	<PolyData>
		<Piece NumberOfPoints="1206" NumberOfPolys="1000">
			<Points>
				<DataArray type="Float32" NumberOfComponents="3" format="ascii">
 0 0 0 0.005 0 0 0.01 0 0 0.015 0 0 0.02 0 0 0.025 0 0 0.03 0 0 0.035 0 0 0.04 0 0 0.045 0 0 0.05 0 0 0.055 0 0 0.06 0 0 0.065 0 0 0.07 0 0 0.075 0 0 0.08 0 0 0.085 0 0 0.09 0 0 0.095 0 0 0.1 0 0 0.105 0 0 0.11 0 0 0.115 0 0 0.12 0 0 0.125 0 0 0.13 0 0 0.135 0 0 0.14 0 0 0.145 0 0 0.15 0 0 0.155 0 0 0.16 0 0 0.165 0 0 0.17 0 0 0.175 0 0 0.18 0 0 0.185 0 0 0.19 0 0 0.195 0 0 0.2 0 0 0.205 0 0 0.21 0 0 0.215 0 0 0.22 0 0 0.225 0 0 0.23 0 0 0.235 0 0 0.24 0 0 0.245 0 0 0.25 0 0 0.255 0 0 0.26 0 0 0.265001 0 0 0.270004 0 0 0.275011 0 0 0.280026 0 0 0.28506 0 0 0.290125 0 0 0.295238 0 0 0.300417 0 0 0.305676 0 0 0.31103 0 0 0.316489 0 0 0.322062 0 0 0.327758 0 0 0.333584 0 0 0.339548 0 0 0.345659 0 0 0.351926 0 0 0.358358 0 0 0.364966 0 0 0.37176 0 0 0.378754 0 0 0.385961 0 0 0.393395 0 0 0.401073 0 0 0.409013 0 0 0.417236 0 0 0.425764 0 0 0.434621 0 0 0.443836 0 0 0.453439 0 0 0.463464 0 0 0.473943 0 0 0.484906 0 0 0.496366 0 0 0.508276 0 0 0.520425 0 0 0.532516 0 0 0.544511 0 0 0.556408 0 0 0.568229 0 0 0.580002 0 0 0.59175 0 0 0.603486 0 0 0.615218 0 0 0.626947 0 0 0.638676 0 0 0.650408 0 0 0.662154 0 0 0.664763 0 0 0.667299 0 0 0.669789 0 0 0.672249 0 0 0.674688 0 0 0.677111 0 0 0.679524 0 0 0.681936 0 0 0.684347 0 0 0.686744 0 0 0.689129 0 0 0.69151 0 0 0.693887 0 0 0.696264 0 0 0.69864 0 0 0.701013 0 0 0.703384 0 0 0.705753 0 0 0.708121 0 0 0.71049 0 0 0.712855 0 0 0.715219 0 0 0.717583 0 0 0.719946 0 0 0.722309 0 0 0.724671 0 0 0.727032 0 0 0.729393 0 0 0.731754 0 0 0.734116 0 0 0.736478 0 0 0.738838 0 0 0.741198 0 0 0.743559 0 0 0.745921 0 0 0.748283 0 0 0.750644 0 0 0.753004 0 0 0.755366 0 0 0.757727 0 0 0.760088 0 0 0.762449 0 0 0.76481 0 0 0.76717 0 0 0.76953 0 0 0.77189 0 0 0.774251 0 0 0.776612 0 0 0.778976 0 0 0.781339 0 0 0.783701 0 0 0.786061 0 0 0.788431 0 0 0.790802 0 0 0.793207 0 0 0.795657 0 0 0.798141 0 0 0.800744 0 0 0.803489 0 0 0.806403 0 0 0.809573 0 0 0.813035 0 0 0.816849 0 0 0.821013 0 0 0.825493 0 0 0.830214 0 0 0.835085 0 0 0.840032 0 0 0.845012 0 0 0.850004 0 0 0.855002 0 0 0.860001 0 0 0.865 0 0 0.87 0 0 0.875 0 0 0.88 0 0 0.885 0 0 0.89 0 0 0.895 0 0 0.9 0 0 0.905 0 0 0.91 0 0 0.915 0 0 0.92 0 0 0.925 0 0 0.93 0 0 0.935 0 0 0.94 0 0 0.945 0 0 0.95 0 0 0.955 0 0 0.96 0 0 0.965 0 0 0.97 0 0 0.975 0 0 0.98 0 0 0.985 0 0 0.99 0 0 0.995 0 0 1 0 0 0 0.02 0 0.005 0.02 0 0.01 0.02 0 0.015 0.02 0 0.02 0.02 0 0.025 0.02 0 0.03 0.02 0 0.035 0.02 0 0.04 0.02 0 0.045 0.02 0 0.05 0.02 0 0.055 0.02 0 0.06 0.02 0 0.065 0.02 0 0.07 0.02 0 0.075 0.02 0 0.08 0.02 0 0.085 0.02 0 0.09 0.02 0 0.095 0.02 0 0.1 0.02 0 0.105 0.02 0 0.11 0.02 0 0.115 0.02 0 0.12 0.02 0 0.125 0.02 0 0.13 0.02 0 0.135 0.02 0 0.14 0.02 0 0.145 0.02 0 0.15 0.02 0 0.155 0.02 0 0.16 0.02 0 0.165 0.02 0 0.17 0.02 0 0.175 0.02 0 0.18 0.02 0 0.185 0.02 0 0.19 0.02 0 0.195 0.02 0 0.2 0.02 0 0.205 0.02 0 0.21 0.02 0 0.215 0.02 0 0.22 0.02 0 0.225 0.02 0 0.23 0.02 0 0.235 0.02 0 0.24 0.02 0 0.245 0.02 0 0.25 0.02 0 0.255 0.02 0 0.26 0.02 0 0.265001 0.02 0 0.270004 0.02 0 0.275011 0.02 0 0.280026 0.02 0 0.28506 0.02 0 0.290125 0.02 0 0.295238 0.02 0 0.300417 0.02 0 0.305676 0.02 0 0.31103 0.02 0 0.316489 0.02 0 0.322062 0.02 0 0.327758 0.02 0 0.333584 0.02 0 0.339548 0.02 0 0.345659 0.02 0 0.351926 0.02 0 0.358358 0.02 0 0.364966 0.02 0 0.37176 0.02 0 0.378754 0.02 0 0.385961 0.02 0 0.393395 0.02 0 0.401073 0.02 0 0.409013 0.02 0 0.417236 0.02 0 0.425764 0.02 0 0.434621 0.02 0 0.443836 0.02 0 0.453439 0.02 0 0.463464 0.02 0 0.473943 0.02 0 0.484906 0.02 0 0.496366 0.02 0 0.508276 0.02 0 0.520425 0.02 0 0.532516 0.02 0 0.544511 0.02 0 0.556408 0.02 0 0.568229 0.02 0 0.580002 0.02 0 0.59175 0.02 0 0.603486 0.02 0 0.615218 0.02 0 0.626947 0.02 0 0.638676 0.02 0 0.650408 0.02 0 0.662154 0.02 0 0.664763 0.02 0 0.667299 0.02 0 0.669789 0.02 0 0.672249 0.02 0 0.674688 0.02 0 0.677111 0.02 0 0.679524 0.02 0 0.681936 0.02 0 0.684347 0.02 0 0.686744 0.02 0 0.689129 0.02 0 0.69151 0.02 0 0.693887 0.02 0 0.696264 0.02 0 0.69864 0.02 0 0.701013 0.02 0 0.703384 0.02 0 0.705753 0.02 0 0.708121 0.02 0 0.71049 0.02 0 0.712855 0.02 0 0.715219 0.02 0 0.717583 0.02 0 0.719946 0.02 0 0.722309 0.02 0 0.724671 0.02 0 0.727032 0.02 0 0.729393 0.02 0 0.731754 0.02 0 0.734116 0.02 0 0.736478 0.02 0 0.738838 0.02 0 0.741198 0.02 0 0.743559 0.02 0 0.745921 0.02 0 0.748283 0.02 0 0.750644 0.02 0 0.753004 0.02 0 0.755366 0.02 0 0.757727 0.02 0 0.760088 0.02 0 0.762449 0.02 0 0.76481 0.02 0 0.76717 0.02 0 0.76953 0.02 0 0.77189 0.02 0 0.774251 0.02 0 0.776612 0.02 0 0.778976 0.02 0 0.781339 0.02 0 0.783701 0.02 0 0.786061 0.02 0 0.788431 0.02 0 0.790802 0.02 0 0.793207 0.02 0 0.795657 0.02 0 0.798141 0.02 0 0.800744 0.02 0 0.803489 0.02 0 0.806403 0.02 0 0.809573 0.02 0 0.813035 0.02 0 0.816849 0.02 0 0.821013 0.02 0 0.825493 0.02 0 0.830214 0.02 0 0.835085 0.02 0 0.840032 0.02 0 0.845012 0.02 0 0.850004 0.02 0 0.855002 0.02 0 0.860001 0.02 0 0.865 0.02 0 0.87 0.02 0 0.875 0.02 0 0.88 0.02 0 0.885 0.02 0 0.89 0.02 0 0.895 0.02 0 0.9 0.02 0 0.905 0.02 0 0.91 0.02 0 0.915 0.02 0 0.92 0.02 0 0.925 0.02 0 0.93 0.02 0 0.935 0.02 0 0.94 0.02 0 0.945 0.02 0 0.95 0.02 0 0.955 0.02 0 0.96 0.02 0 0.965 0.02 0 0.97 0.02 0 0.975 0.02 0 0.98 0.02 0 0.985 0.02 0 0.99 0.02 0 0.995 0.02 0 1 0.02 0 0 0.04 0 0.005 0.04 0 0.01 0.04 0 0.015 0.04 0 0.02 0.04 0 0.025 0.04 0 0.03 0.04 0 0.035 0.04 0 0.04 0.04 0 0.045 0.04 0 0.05 0.04 0 0.055 0.04 0 0.06 0.04 0 0.065 0.04 0 0.07 0.04 0 0.075 0.04 0 0.08 0.04 0 0.085 0.04 0 0.09 0.04 0 0.095 0.04 0 0.1 0.04 0 0.105 0.04 0 0.11 0.04 0 0.115 0.04 0 0.12 0.04 0 0.125 0.04 0 0.13 0.04 0 0.135 0.04 0 0.14 0.04 0 0.145 0.04 0 0.15 0.04 0 0.155 0.04 0 0.16 0.04 0 0.165 0.04 0 0.17 0.04 0 0.175 0.04 0 0.18 0.04 0 0.185 0.04 0 0.19 0.04 0 0.195 0.04 0 0.2 0.04 0 0.205 0.04 0 0.21 0.04 0 0.215 0.04 0 0.22 0.04 0 0.225 0.04 0 0.23 0.04 0 0.235 0.04 0 0.24 0.04 0 0.245 0.04 0 0.25 0.04 0 0.255 0.04 0 0.26 0.04 0 0.265001 0.04 0 0.270004 0.04 0 0.275011 0.04 0 0.280026 0.04 0 0.28506 0.04 0 0.290125 0.04 0 0.295238 0.04 0 0.300417 0.04 0 0.305676 0.04 0 0.31103 0.04 0 0.316489 0.04 0 0.322062 0.04 0 0.327758 0.04 0 0.333584 0.04 0 0.339548 0.04 0 0.345659 0.04 0 0.351926 0.04 0 0.358358 0.04 0 0.364966 0.04 0 0.37176 0.04 0 0.378754 0.04 0 0.385961 0.04 0 0.393395 0.04 0 0.401073 0.04 0 0.409013 0.04 0 0.417236 0.04 0 0.425764 0.04 0 0.434621 0.04 0 0.443836 0.04 0 0.453439 0.04 0 0.463464 0.04 0 0.473943 0.04 0 0.484906 0.04 0 0.496366 0.04 0 0.508276 0.04 0 0.520425 0.04 0 0.532516 0.04 0 0.544511 0.04 0 0.556408 0.04 0 0.568229 0.04 0 0.580002 0.04 0 0.59175 0.04 0 0.603486 0.04 0 0.615218 0.04 0 0.626947 0.04 0 0.638676 0.04 0 0.650408 0.04 0 0.662154 0.04 0 0.664763 0.04 0 0.667299 0.04 0 0.669789 0.04 0 0.672249 0.04 0 0.674688 0.04 0 0.677111 0.04 0 0.679524 0.04 0 0.681936 0.04 0 0.684347 0.04 0 0.686744 0.04 0 0.689129 0.04 0 0.69151 0.04 0 0.693887 0.04 0 0.696264 0.04 0 0.69864 0.04 0 0.701013 0.04 0 0.703384 0.04 0 0.705753 0.04 0 0.708121 0.04 0 0.71049 0.04 0 0.712855 0.04 0 0.715219 0.04 0 0.717583 0.04 0 0.719946 0.04 0 0.722309 0.04 0 0.724671 0.04 0 0.727032 0.04 0 0.729393 0.04 0 0.731754 0.04 0 0.734116 0.04 0 0.736478 0.04 0 0.738838 0.04 0 0.741198 0.04 0 0.743559 0.04 0 0.745921 0.04 0 0.748283 0.04 0 0.750644 0.04 0 0.753004 0.04 0 0.755366 0.04 0 0.757727 0.04 0 0.760088 0.04 0 0.762449 0.04 0 0.76481 0.04 0 0.76717 0.04 0 0.76953 0.04 0 0.77189 0.04 0 0.774251 0.04 0 0.776612 0.04 0 0.778976 0.04 0 0.781339 0.04 0 0.783701 0.04 0 0.786061 0.04 0 0.788431 0.04 0 0.790802 0.04 0 0.793207 0.04 0 0.795657 0.04 0 0.798141 0.04 0 0.800744 0.04 0 0.803489 0.04 0 0.806403 0.04 0 0.809573 0.04 0 0.813035 0.04 0 0.816849 0.04 0 0.821013 0.04 0 0.825493 0.04 0 0.830214 0.04 0 0.835085 0.04 0 0.840032 0.04 0 0.845012 0.04 0 0.850004 0.04 0 0.855002 0.04 0 0.860001 0.04 0 0.865 0.04 0 0.87 0.04 0 0.875 0.04 0 0.88 0.04 0 0.885 0.04 0 0.89 0.04 0 0.895 0.04 0 0.9 0.04 0 0.905 0.04 0 0.91 0.04 0 0.915 0.04 0 0.92 0.04 0 0.925 0.04 0 0.93 0.04 0 0.935 0.04 0 0.94 0.04 0 0.945 0.04 0 0.95 0.04 0 0.955 0.04 0 0.96 0.04 0 0.965 0.04 0 0.97 0.04 0 0.975 0.04 0 0.98 0.04 0 0.985 0.04 0 0.99 0.04 0 0.995 0.04 0 1 0.04 0 0 0.06 0 0.005 0.06 0 0.01 0.06 0 0.015 0.06 0 0.02 0.06 0 0.025 0.06 0 0.03 0.06 0 0.035 0.06 0 0.04 0.06 0 0.045 0.06 0 0.05 0.06 0 0.055 0.06 0 0.06 0.06 0 0.065 0.06 0 0.07 0.06 0 0.075 0.06 0 0.08 0.06 0 0.085 0.06 0 0.09 0.06 0 0.095 0.06 0 0.1 0.06 0 0.105 0.06 0 0.11 0.06 0 0.115 0.06 0 0.12 0.06 0 0.125 0.06 0 0.13 0.06 0 0.135 0.06 0 0.14 0.06 0 0.145 0.06 0 0.15 0.06 0 0.155 0.06 0 0.16 0.06 0 0.165 0.06 0 0.17 0.06 0 0.175 0.06 0 0.18 0.06 0 0.185 0.06 0 0.19 0.06 0 0.195 0.06 0 0.2 0.06 0 0.205 0.06 0 0.21 0.06 0 0.215 0.06 0 0.22 0.06 0 0.225 0.06 0 0.23 0.06 0 0.235 0.06 0 0.24 0.06 0 0.245 0.06 0 0.25 0.06 0 0.255 0.06 0 0.26 0.06 0 0.265001 0.06 0 0.270004 0.06 0 0.275011 0.06 0 0.280026 0.06 0 0.28506 0.06 0 0.290125 0.06 0 0.295238 0.06 0 0.300417 0.06 0 0.305676 0.06 0 0.31103 0.06 0 0.316489 0.06 0 0.322062 0.06 0 0.327758 0.06 0 0.333584 0.06 0 0.339548 0.06 0 0.345659 0.06 0 0.351926 0.06 0 0.358358 0.06 0 0.364966 0.06 0 0.37176 0.06 0 0.378754 0.06 0 0.385961 0.06 0 0.393395 0.06 0 0.401073 0.06 0 0.409013 0.06 0 0.417236 0.06 0 0.425764 0.06 0 0.434621 0.06 0 0.443836 0.06 0 0.453439 0.06 0 0.463464 0.06 0 0.473943 0.06 0 0.484906 0.06 0 0.496366 0.06 0 0.508276 0.06 0 0.520425 0.06 0 0.532516 0.06 0 0.544511 0.06 0 0.556408 0.06 0 0.568229 0.06 0 0.580002 0.06 0 0.59175 0.06 0 0.603486 0.06 0 0.615218 0.06 0 0.626947 0.06 0 0.638676 0.06 0 0.650408 0.06 0 0.662154 0.06 0 0.664763 0.06 0 0.667299 0.06 0 0.669789 0.06 0 0.672249 0.06 0 0.674688 0.06 0 0.677111 0.06 0 0.679524 0.06 0 0.681936 0.06 0 0.684347 0.06 0 0.686744 0.06 0 0.689129 0.06 0 0.69151 0.06 0 0.693887 0.06 0 0.696264 0.06 0 0.69864 0.06 0 0.701013 0.06
[...]
			<PointData Scalars="VitesseX">
				<DataArray Name="VitesseX" type="Float32" format="ascii">
 0 4.91685e-15 5.6694e-15 4.76295e-16 4.05347e-15 5.87807e-15 4.54778e-15 7.09936e-15 8.08961e-15 1.0295e-14 3.43302e-15 7.9047e-15 -6.78301e-15 1.48913e-14 1.9394e-14 1.15127e-15 1.92684e-14 1.14044e-14 9.49856e-16 6.85607e-15 6.26255e-15 -2.84276e-15 1.08231e-14 3.33162e-16 -1.97502e-15 -1.24197e-14 -1.38207e-14 7.50609e-15 1.38692e-14 2.70001e-15 3.99369e-15 -1.52333e-14 -3.83324e-15 1.14156e-14 3.02731e-15 1.20429e-14 5.01408e-14 8.31276e-14 4.30904e-14 1.70887e-13 1.01975e-12 6.09055e-12 3.70684e-11 2.13751e-10 1.17332e-09 6.09912e-09 2.99791e-08 1.38974e-07 6.05938e-07 2.47708e-06 9.46031e-06 3.36124e-05 0.000110558 0.000334715 0.00092662 0.00232915 0.00528067 0.0107511 0.0196533 0.0324442 0.0489265 0.0684254 0.090158 0.1135 0.138056 0.163608 0.190047 0.217328 0.245437 0.27438 0.304176 0.334854 0.366451 0.39901 0.43258 0.467216 0.502978 0.53993 0.578137 0.617667 0.658575 0.700898 0.744623 0.789622 0.835499 0.881191 0.923848 0.955708 0.959896 0.951108 0.942795 0.936002 0.931459 0.928955 0.927758 0.927218 0.926948 0.926787 0.926696 0.926663 0.926527 0.9265 0.92648 0.926468 0.926464 0.926498 0.926617 0.926577 0.926551 0.926523 0.926495 0.926482 0.926475 0.926474 0.926476 0.926517 0.926705 0.926894 0.926761 0.926699 0.926618 0.92651 0.92642 0.926343 0.926296 0.926273 0.926267 0.926243 0.926189 0.926126 0.926048 0.926004 0.925983 0.926082 0.926527 0.926344 0.926218 0.925994 0.925823 0.925679 0.925675 0.926114 0.926228 0.925696 0.925109 0.924451 0.924178 0.92423 0.926282 0.926157 0.92454 0.924187 0.923807 0.919755 0.92543 0.896933 0.897205 0.857262 0.808131 0.771348 0.666951 0.594767 0.463751 0.343284 0.223564 0.126975 0.0616532 0.0261548 0.0101712 0.00378981 0.00138706 0.000504068 0.000182614 6.60357e-05 2.38412e-05 8.59238e-06 3.09029e-06 1.10869e-06 3.96593e-07 1.41381e-07 5.02023e-08 1.77461e-08 6.2417e-09 2.18308e-09 7.58912e-10 2.62021e-10 8.98726e-11 3.0571e-11 1.03996e-11 3.38905e-12 1.16537e-12 4.48246e-13 5.46139e-14 4.02096e-14 -4.35151e-14 -3.3339e-14 1.93328e-14 -8.9136e-14 -7.60764e-14 1.0868e-13 0 0 1.53011e-15 5.2322e-15 2.85503e-15 3.16805e-15 4.38298e-15 6.37682e-15 6.16035e-15 1.01061e-14 9.6281e-15 2.2105e-15 3.9212e-15 5.79233e-15 9.15686e-15 8.06887e-15 7.89694e-15 1.65991e-14 2.42847e-15 1.25224e-14 -8.43621e-15 1.19943e-14 3.86362e-15 7.16213e-15 -1.75716e-15 -1.90608e-15 -9.79494e-16 7.34248e-15 -2.59986e-14 1.91959e-14 2.1928e-15 -1.42907e-14 2.00291e-14 7.78277e-15 4.59479e-15 2.11127e-14 2.3947e-14 4.40718e-14 6.55183e-14 8.55427e-14 1.8786e-13 9.977e-13 6.07776e-12 3.70069e-11 2.13801e-10 1.17317e-09 6.09925e-09 2.9979e-08 1.38974e-07 6.05938e-07 2.47708e-06 9.46031e-06 3.36124e-05 0.000110558 0.000334715 0.00092662 0.00232915 0.00528067 0.0107511 0.0196533 0.0324442 0.0489265 0.0684254 0.090158 0.1135 0.138056 0.163608 0.190047 0.217328 0.245437 0.27438 0.304176 0.334854 0.366451 0.39901 0.43258 0.467216 0.502978 0.53993 0.578137 0.617667 0.658575 0.700898 0.744623 0.789622 0.835499 0.881191 0.923848 0.955708 0.959896 0.951108 0.942795 0.936002 0.931459 0.928955 0.927758 0.927218 0.926948 0.926787 0.926696 0.926663 0.926527 0.9265 0.92648 0.926468 0.926464 0.926498 0.926617 0.926577 0.926551 0.926523 0.926495 0.926482 0.926475 0.926474 0.926476 0.926517 0.926705 0.926894 0.926761 0.926699 0.926618 0.92651 0.92642 0.926343 0.926296 0.926273 0.926267 0.926243 0.926189 0.926126 0.926048 0.926004 0.925983 0.926082 0.926527 0.926344 0.926218 0.925994 0.925823 0.925679 0.925675 0.926114 0.926228 0.925696 0.925109 0.924451 0.924178 0.92423 0.926282 0.926157 0.92454 0.924187 0.923807 0.919755 0.92543 0.896933 0.897205 0.857262 0.808131 0.771348 0.666951 0.594767 0.463751 0.343284 0.223564 0.126975 0.0616532 0.0261548 0.0101712 0.00378981 0.00138706 0.000504068 0.000182614 6.60357e-05 2.38412e-05 8.59238e-06 3.09029e-06 1.10869e-06 3.96593e-07 1.41382e-07 5.02023e-08 1.7746e-08 6.24165e-09 2.18304e-09 7.58881e-10 2.62115e-10 8.99221e-11 3.04972e-11 1.03174e-11 3.51457e-12 1.25415e-12 3.8768e-13 -3.00406e-14 9.60051e-14 -9.36116e-15 -4.99769e-14 -2.26954e-14 -1.42338e-14 -1.40482e-14 -9.42685e-15 0 0 -2.49294e-15 2.88521e-15 4.97536e-15 2.83301e-15 5.51063e-15 1.41444e-15 6.46612e-15 1.04917e-14 8.70046e-15 1.60769e-15 7.8633e-15 1.50097e-15 6.57887e-15 1.20418e-14 7.69175e-16 1.17243e-14 9.92615e-16 -8.45391e-15 1.20076e-15 1.24077e-14 1.27024e-14 -1.15469e-14 9.32424e-15 -1.13464e-14 -1.03361e-15 1.7511e-14 1.29321e-14 1.33098e-14 5.5066e-16 -3.61519e-14 2.63598e-14 2.43184e-14 3.05339e-14 3.97721e-14 3.99919e-15 6.27359e-14 7.3464e-14 9.61608e-14 2.39066e-13 8.82851e-13 6.13284e-12 3.69299e-11 2.13807e-10 1.17308e-09 6.09932e-09 2.99789e-08 1.38974e-07 6.05938e-07 2.47708e-06 9.46031e-06 3.36124e-05 0.000110558 0.000334715 0.00092662 0.00232915 0.00528067 0.0107511 0.0196533 0.0324442 0.0489265 0.0684254 0.090158 0.1135 0.138056 0.163608 0.190047 0.217328 0.245437 0.27438 0.304176 0.334854 0.366451 0.39901 0.43258 0.467216 0.502978 0.53993 0.578137 0.617667 0.658575 0.700898 0.744623 0.789622 0.835499 0.881191 0.923848 0.955708 0.959896 0.951108 0.942795 0.936002 0.931459 0.928955 0.927758 0.927218 0.926948 0.926787 0.926696 0.926663 0.926527 0.9265 0.92648 0.926468 0.926464 0.926498 0.926617 0.926577 0.926551 0.926523 0.926495 0.926482 0.926475 0.926474 0.926476 0.926517 0.926705 0.926894 0.926761 0.926699 0.926618 0.92651 0.92642 0.926343 0.926296 0.926273 0.926267 0.926243 0.926189 0.926126 0.926048 0.926004 0.925983 0.926082 0.926527 0.926344 0.926218 0.925994 0.925823 0.925679 0.925675 0.926114 0.926228 0.925696 0.925109 0.924451 0.924178 0.92423 0.926282 0.926157 0.92454 0.924187 0.923807 0.919755 0.92543 0.896933 0.897205 0.857262 0.808131 0.771348 0.666951 0.594767 0.463751 0.343284 0.223564 0.126975 0.0616532 0.0261548 0.0101712 0.00378981 0.00138706 0.000504068 0.000182614 6.60357e-05 2.38412e-05 8.59238e-06 3.09029e-06 1.10869e-06 3.96593e-07 1.41382e-07 5.02023e-08 1.77461e-08 6.24166e-09 2.18305e-09 7.58899e-10 2.62098e-10 8.9928e-11 3.0542e-11 1.03359e-11 3.50589e-12 1.21969e-12 4.02705e-13 6.462e-14 -1.04282e-14 -1.15539e-13 1.3548e-13 5.92673e-14 -2.25394e-14 -4.17116e-14 -1.00729e-13 0 0 1.84485e-15 2.89197e-15 2.46643e-15 3.11054e-15 4.79431e-15 3.27912e-15 7.77035e-15 5.26498e-15 6.91281e-15 1.05983e-14 -1.6562e-15 -3.22254e-15 4.58408e-15 1.20574e-14 2.91434e-15 3.41988e-15 -9.71993e-15 -1.1412e-14 7.13755e-15 -6.76839e-15 1.51501e-14 -6.25655e-16 -1.34187e-14 -1.33339e-14 -3.41376e-15 4.31144e-14 2.67352e-14 2.46868e-14 -2.33865e-14 1.17611e-14 1.1489e-14 2.47058e-14 5.86828e-14 1.42151e-14 2.05914e-15 6.22181e-14 5.98563e-14 1.14386e-13 2.24568e-13 9.33692e-13 6.04703e-12 3.69248e-11 2.13831e-10 1.17311e-09 6.09925e-09 2.99789e-08 1.38974e-07 6.05938e-07 2.47708e-06 9.46031e-06 3.36124e-05 0.000110558 0.000334715 0.00092662 0.00232915 0.00528067 0.0107511 0.0196533 0.0324442 0.0489265 0.0684254 0.090158 0.1135 0.138056 0.163608 0.190047 0.217328 0.245437 0.27438 0.304176 0.334854 0.366451 0.39901 0.43258 0.467216 0.502978 0.53993 0.578137 0.617667 0.658575 0.700898 0.744623 0.789622 0.835499 0.881191 0.923848 0.955708 0.959896 0.951108 0.942795 0.936002 0.931459 0.928955 0.927758 0.927218 0.926948 0.926787 0.926696 0.926663 0.926527 0.9265 0.92648 0.926468 0.926464 0.926498 0.926617 0.926577 0.926551 0.926523 0.926495 0.926482 0.926475 0.926474 0.926476 0.926517 0.926705 0.926894 0.926761 0.926699 0.926618 0.92651 0.92642 0.926343 0.926296 0.926273 0.926267 0.926243 0.926189 0.926126 0.926048 0.926004 0.925983 0.926082 0.926527 0.926344 0.926218 0.925994 0.925823 0.925679 0.925675 0.926114 0.926228 0.925696 0.925109 0.924451 0.924178 0.92423 0.926282 0.926157 0.92454 0.924187 0.923807 0.919755 0.92543 0.896933 0.897205 0.857262 0.808131 0.771348 0.666951 0.594767 0.463751 0.343284 0.223564 0.126975 0.0616532 0.0261548 0.0101712 0.00378981 0.00138706 0.000504068 0.000182614 6.60357e-05 2.38412e-05 8.59238e-06 3.09029e-06 1.10869e-06 3.96593e-07 1.41382e-07 5.02024e-08 1.77461e-08 6.24164e-09 2.18309e-09 7.58992e-10 2.62099e-10 8.98757e-11 3.06422e-11 1.0446e-11 3.44514e-12 1.16097e-12 2.96047e-13 1.31509e-13 -2.53562e-14 2.25208e-14 2.56032e-14 8.75887e-14 -1.16098e-13 1.72631e-13 -5.20565e-14 0 0 8.52401e-15 7.07923e-15 4.42345e-15 -1.0451e-15 2.92207e-15 2.76366e-15 4.4326e-15 7.47025e-16 -4.71239e-15 5.79266e-15 -1.2284e-14 2.10595e-15 6.92654e-15 -1.01198e-14 1.31991e-14 -3.85768e-17 -2.13073e-14 8.13268e-15 7.38672e-15 -7.93623e-18 1.70554e-15 2.11211e-15 -2.34677e-14 6.20117e-15 8.31203e-15 2.90754e-14 2.11939e-15 3.17212e-14 -1.18551e-14 3.18666e-14 4.17012e-14 2.11105e-14 7.30793e-14 -1.34431e-14 6.85178e-15 2.6595e-14 8.31158e-14 1.17589e-13 2.28231e-13 1.09261e-12 5.91367e-12 3.68252e-11 2.13832e-10 1.17315e-09 6.09922e-09 2.99789e-08 1.38974e-07 6.05938e-07 2.47708e-06 9.46031e-06 3.36124e-05 0.000110558 0.000334715 0.00092662 0.00232915 0.00528067 0.0107511 0.0196533 0.0324442 0.0489265 0.0684254 0.090158 0.1135 0.138056 0.163608 0.190047 0.217328 0.245437 0.27438 0.304176 0.334854 0.366451 0.39901 0.43258 0.467216 0.502978 0.53993 0.578137 0.617667 0.658575 0.700898 0.744623 0.789622 0.835499 0.881191 0.923848 0.955708 0.959896 0.951108 0.942795 0.936002 0.931459 0.928955 0.927758 0.927218 0.926948 0.926787 0.926696 0.926663 0.926527 0.9265 0.92648 0.926468 0.926464 0.926498 0.926617 0.926577 0.926551 0.926523 0.926495 0.926482 0.926475 0.926474 0.926476 0.926517 0.926705 0.926894 0.926761 0.926699 0.926618 0.92651 0.92642 0.926343 0.926296 0.926273 0.926267 0.926243 0.926189 0.926126 0.926048 0.926004 0.925983 0.926082 0.926527 0.926344 0.926218 0.925994 0.925823 0.925679 0.925675 0.926114 0.926228 0.925696 0.925109 0.924451 0.924178 0.92423 0.926282 0.926157 0.92454 0.924187 0.923807 0.919755 0.92543 0.896933 0.897205 0.857262 0.808131 0.771348 0.666951 0.594767 0.463751 0.343284 0.223564 0.126975 0.0616532 0.0261548 0.0101712 0.00378981 0.00138706 0.000504068 0.000182614 6.60357e-05 2.38412e-05 8.59238e-06 3.09029e-06 1.10869e-06 3.96593e-07 1.41381e-07 5.02024e-08 1.77462e-08 6.24149e-09 2.18308e-09 7.59003e-10 2.62208e-10 8.997e-11 3.06323e-11 1.0488e-11 3.56194e-12 1.06572e-12 1.05424e-13 -1.04061e-13 9.66544e-14 2.08052e-13 -4.11169e-15 -1.14047e-14 -5.24327e-14 1.83181e-13 1.50962e-14 0 0 1.02291e-14 9.34996e-15 8.63098e-15 -4.92788e-15 4.38889e-15 -6.40789e-15 1.0354e-15 -1.75057e-16 -1.48107e-14 -7.38393e-15 -5.46673e-15 -4.70876e-15 1.44203e-14 -1.70144e-14 7.46523e-15 2.60198e-15 -1.4642e-14 -1.91342e-15 2.66284e-14 2.06103e-14 -1.20544e-14 -2.11194e-14 2.39798e-15 1.82145e-14 1.09236e-14 -2.15618e-14 3.61359e-14 1.61657e-14 2.24785e-14 4.82138e-16 5.78528e-14 2.20474e-14 9.2087e-14 -1.49703e-14 -1.82674e-14 1.62229e-14 1.45538e-13 7.0733e-14 2.80628e-13 1.10789e-12 5.93398e-12 3.6715e-11 2.13765e-10 1.17323e-09 6.09919e-09 2.99789e-08 1.38974e-07 6.05938e-07 2.47708e-06 9.46031e-06 3.36124e-05 0.000110558 0.000334715 0.00092662 0.00232915 0.00528067 0.0107511 0.0196533 0.0324442 0.0489265 0.0684254 0.090158 0.1135 0.138056 0.163608 0.190047 0.217328 0.245437 0.27438 0.304176 0.334854 0.366451 0.39901 0.43258 0.467216 0.502978 0.53993 0.578137 0.617667 0.658575 0.700898 0.744623 0.789622 0.835499 0.881191 0.923848 0.955708 0.959896 0.951108 0.942795 0.936002 0.931459 0.928955 0.927758 0.927218 0.926948 0.926787 0.926696 0.926663 0.926527 0.9265 0.92648 0.926468 0.926464 0.926498 0.926617 0.926577 0.926551 0.926523 0.926495 0.926482 0.926475 0.926474 0.926476 0.926517 0.926705 0.926894 0.926761 0.926699 0.926618 0.92651 0.92642 0.926343 0.926296 0.926273 0.926267 0.926243 0.926189 0.926126 0.926048 0.926004 0.925983 0.926082 0.926527 0.926344 0.926218 0.925994 0.925823 0.925679 0.925675 0.926114 0.926228 0.925696 0.925109 0.924451 0.924178 0.92423 0.926282 0.926157 0.92454 0.924187 0.923807 0.919755 0.92543 0.896933 0.897205 0.857262 0.808131 0.771348 0.666951 0.594767 0.463751 0.343284 0.223564 0.126975 0.0616532 0.0261548 0.0101712 0.00378981 0.00138706 0.000504068 0.000182614 6.60357e-05 2.38412e-05 8.59238e-06 3.09029e-06 1.10869e-06 3.96594e-07 1.41381e-07 5.02023e-08 1.77463e-08 6.24142e-09 2.18311e-09 7.58972e-10 2.62203e-10 9.00729e-11 3.06413e-11 1.052e-11 3.60422e-12 9.05477e-13 9.67027e-14 -2.27083e-13 7.18338e-14 1.15323e-13 2.77685e-13 -1.51064e-14 2.19335e-14 -1.10834e-13 5.91177e-14 0
				</DataArray>
				<DataArray Name="VitesseY" type="Float32" format="ascii">