<?xml version="1.0"?>
<VTKFile type="PolyData">
	<PolyData>
		<Piece NumberOfPoints="1206" NumberOfPolys="1000">
			<Points>
				<DataArray type="Float32" NumberOfComponents="3" format="ascii">
 0 0 0 0.005 0 0 0.01 0 0 0.015 0 0 0.02 0 0 0.025 0 0 0.03 0 0 0.035 0 0 0.04 0 0 0.045 0 0 0.05 0 0 0.055 0 0 0.06 0 0 0.065 0 0 0.07 0 0 0.075 0 0 0.08 0 0 0.085 0 0 0.09 0 0 0.095 0 0 0.1 0 0 0.105 0 0 0.11 0 0 0.115 0 0 0.12 0 0 0.125 0 0 0.13 0 0 0.135 0 0 0.14 0 0 0.145 0 0 0.15 0 0 0.155 0 0 0.16 0 0 0.165 0 0 0.17 0 0 0.175 0 0 0.18 0 0 0.185 0 0 0.19 0 0 0.195 0 0 0.2 0 0 0.205 0 0 0.21 0 0 0.215 0 0 0.22 0 0 0.225 0 0 0.23 0 0 0.235 0 0 0.24 0 0 0.245 0 0 0.25 0 0 0.255 0 0 0.26 0 0 0.265 0 0 0.27 0 0 0.275 0 0 0.28 0 0 0.285 0 0 0.29 0 0 0.295 0 0 0.3 0 0 0.305 0 0 0.31 0 0 0.315001 0 0 0.320003 0 0 0.32501 0 0 0.330028 0 0 0.335069 0 0 0.340152 0 0 0.345302 0 0 0.350545 0 0 0.355902 0 0 0.361393 0 0 0.367034 0 0 0.372839 0 0 0.378823 0 0 0.385 0 0 0.391385 0 0 0.397997 0 0 0.404855 0 0 0.411979 0 0 0.419394 0 0 0.427128 0 0 0.435213 0 0 0.443683 0 0 0.45258 0 0 0.46195 0 0 0.471845 0 0 0.482318 0 0 0.493413 0 0 0.505127 0 0 0.517286 0 0 0.529453 0 0 0.541487 0 0 0.553395 0 0 0.565212 0 0 0.57698 0 0 0.588725 0 0 0.600464 0 0 0.612201 0 0 0.62395 0 0 0.626561 0 0 0.629098 0 0 0.631589 0 0 0.63405 0 0 0.63649 0 0 0.638913 0 0 0.641327 0 0 0.643738 0 0 0.64615 0 0 0.648547 0 0 0.650932 0 0 0.653313 0 0 0.655691 0 0 0.65807 0 0 0.660448 0 0 0.662822 0 0 0.665194 0 0 0.667563 0 0 0.669932 0 0 0.6723 0 0 0.674665 0 0 0.677029 0 0 0.679393 0 0 0.681756 0 0 0.684119 0 0 0.686482 0 0 0.688845 0 0 0.691206 0 0 0.69357 0 0 0.695935 0 0 0.698301 0 0 0.700666 0 0 0.70303 0 0 0.705392 0 0 0.707754 0 0 0.710114 0 0 0.712478 0 0 0.714844 0 0 0.717219 0 0 0.719611 0 0 0.722029 0 0 0.724479 0 0 0.727033 0 0 0.729683 0 0 0.732504 0 0 0.735521 0 0 0.738823 0 0 0.742444 0 0 0.746421 0 0 0.750738 0 0 0.75534 0 0 0.760141 0 0 0.765054 0 0 0.77002 0 0 0.775007 0 0 0.780003 0 0 0.785001 0 0 0.79 0 0 0.795 0 0 0.8 0 0 0.805 0 0 0.81 0 0 0.815 0 0 0.82 0 0 0.825 0 0 0.83 0 0 0.835 0 0 0.84 0 0 0.845 0 0 0.85 0 0 0.855 0 0 0.86 0 0 0.865 0 0 0.87 0 0 0.875 0 0 0.88 0 0 0.885 0 0 0.89 0 0 0.895 0 0 0.9 0 0 0.905 0 0 0.91 0 0 0.915 0 0 0.92 0 0 0.925 0 0 0.93 0 0 0.935 0 0 0.94 0 0 0.945 0 0 0.95 0 0 0.955 0 0 0.96 0 0 0.965 0 0 0.97 0 0 0.975 0 0 0.98 0 0 0.985 0 0 0.99 0 0 0.995 0 0 1 0 0 0 0.02 0 0.005 0.02 0 0.01 0.02 0 0.015 0.02 0 0.02 0.02 0 0.025 0.02 0 0.03 0.02 0 0.035 0.02 0 0.04 0.02 0 0.045 0.02 0 0.05 0.02 0 0.055 0.02 0 0.06 0.02 0 0.065 0.02 0 0.07 0.02 0 0.075 0.02 0 0.08 0.02 0 0.085 0.02 0 0.09 0.02 0 0.095 0.02 0 0.1 0.02 0 0.105 0.02 0 0.11 0.02 0 0.115 0.02 0 0.12 0.02 0 0.125 0.02 0 0.13 0.02 0 0.135 0.02 0 0.14 0.02 0 0.145 0.02 0 0.15 0.02 0 0.155 0.02 0 0.16 0.02 0 0.165 0.02 0 0.17 0.02 0 0.175 0.02 0 0.18 0.02 0 0.185 0.02 0 0.19 0.02 0 0.195 0.02 0 0.2 0.02 0 0.205 0.02 0 0.21 0.02 0 0.215 0.02 0 0.22 0.02 0 0.225 0.02 0 0.23 0.02 0 0.235 0.02 0 0.24 0.02 0 0.245 0.02 0 0.25 0.02 0 0.255 0.02 0 0.26 0.02 0 0.265 0.02 0 0.27 0.02 0 0.275 0.02 0 0.28 0.02 0 0.285 0.02 0 0.29 0.02 0 0.295 0.02 0 0.3 0.02 0 0.305 0.02 0 0.31 0.02 0 0.315001 0.02 0 0.320003 0.02 0 0.32501 0.02 0 0.330028 0.02 0 0.335069 0.02 0 0.340152 0.02 0 0.345302 0.02 0 0.350545 0.02 0 0.355902 0.02 0 0.361393 0.02 0 0.367034 0.02 0 0.372839 0.02 0 0.378823 0.02 0 0.385 0.02 0 0.391385 0.02 0 0.397997 0.02 0 0.404855 0.02 0 0.411979 0.02 0 0.419394 0.02 0 0.427128 0.02 0 0.435213 0.02 0 0.443683 0.02 0 0.45258 0.02 0 0.46195 0.02 0 0.471845 0.02 0 0.482318 0.02 0 0.493413 0.02 0 0.505127 0.02 0 0.517286 0.02 0 0.529453 0.02 0 0.541487 0.02 0 0.553395 0.02 0 0.565212 0.02 0 0.57698 0.02 0 0.588725 0.02 0 0.600464 0.02 0 0.612201 0.02 0 0.62395 0.02 0 0.626561 0.02 0 0.629098 0.02 0 0.631589 0.02 0 0.63405 0.02 0 0.63649 0.02 0 0.638913 0.02 0 0.641327 0.02 0 0.643738 0.02 0 0.64615 0.02 0 0.648547 0.02 0 0.650932 0.02 0 0.653313 0.02 0 0.655691 0.02 0 0.65807 0.02 0 0.660448 0.02 0 0.662822 0.02 0 0.665194 0.02 0 0.667563 0.02 0 0.669932 0.02 0 0.6723 0.02 0 0.674665 0.02 0 0.677029 0.02 0 0.679393 0.02 0 0.681756 0.02 0 0.684119 0.02 0 0.686482 0.02 0 0.688845 0.02 0 0.691206 0.02 0 0.69357 0.02 0 0.695935 0.02 0 0.698301 0.02 0 0.700666 0.02 0 0.70303 0.02 0 0.705392 0.02 0 0.707754 0.02 0 0.710114 0.02 0 0.712478 0.02 0 0.714844 0.02 0 0.717219 0.02 0 0.719611 0.02 0 0.722029 0.02 0 0.724479 0.02 0 0.727033 0.02 0 0.729683 0.02 0 0.732504 0.02 0 0.735521 0.02 0 0.738823 0.02 0 0.742444 0.02 0 0.746421 0.02 0 0.750738 0.02 0 0.75534 0.02 0 0.760141 0.02 0 0.765054 0.02 0 0.77002 0.02 0 0.775007 0.02 0 0.780003 0.02 0 0.785001 0.02 0 0.79 0.02 0 0.795 0.02 0 0.8 0.02 0 0.805 0.02 0 0.81 0.02 0 0.815 0.02 0 0.82 0.02 0 0.825 0.02 0 0.83 0.02 0 0.835 0.02 0 0.84 0.02 0 0.845 0.02 0 0.85 0.02 0 0.855 0.02 0 0.86 0.02 0 0.865 0.02 0 0.87 0.02 0 0.875 0.02 0 0.88 0.02 0 0.885 0.02 0 0.89 0.02 0 0.895 0.02 0 0.9 0.02 0 0.905 0.02 0 0.91 0.02 0 0.915 0.02 0 0.92 0.02 0 0.925 0.02 0 0.93 0.02 0 0.935 0.02 0 0.94 0.02 0 0.945 0.02 0 0.95 0.02 0 0.955 0.02 0 0.96 0.02 0 0.965 0.02 0 0.97 0.02 0 0.975 0.02 0 0.98 0.02 0 0.985 0.02 0 0.99 0.02 0 0.995 0.02 0 1 0.02 0 0 0.04 0 0.005 0.04 0 0.01 0.04 0 0.015 0.04 0 0.02 0.04 0 0.025 0.04 0 0.03 0.04 0 0.035 0.04 0 0.04 0.04 0 0.045 0.04 0 0.05 0.04 0 0.055 0.04 0 0.06 0.04 0 0.065 0.04 0 0.07 0.04 0 0.075 0.04 0 0.08 0.04 0 0.085 0.04 0 0.09 0.04 0 0.095 0.04 0 0.1 0.04 0 0.105 0.04 0 0.11 0.04 0 0.115 0.04 0 0.12 0.04 0 0.125 0.04 0 0.13 0.04 0 0.135 0.04 0 0.14 0.04 0 0.145 0.04 0 0.15 0.04 0 0.155 0.04 0 0.16 0.04 0 0.165 0.04 0 0.17 0.04 0 0.175 0.04 0 0.18 0.04 0 0.185 0.04 0 0.19 0.04 0 0.195 0.04 0 0.2 0.04 0 0.205 0.04 0 0.21 0.04 0 0.215 0.04 0 0.22 0.04 0 0.225 0.04 0 0.23 0.04 0 0.235 0.04 0 0.24 0.04 0 0.245 0.04 0 0.25 0.04 0 0.255 0.04 0 0.26 0.04 0 0.265 0.04 0 0.27 0.04 0 0.275 0.04 0 0.28 0.04 0 0.285 0.04 0 0.29 0.04 0 0.295 0.04 0 0.3 0.04 0 0.305 0.04 0 0.31 0.04 0 0.315001 0.04 0 0.320003 0.04 0 0.32501 0.04 0 0.330028 0.04 0 0.335069 0.04 0 0.340152 0.04 0 0.345302 0.04 0 0.350545 0.04 0 0.355902 0.04 0 0.361393 0.04 0 0.367034 0.04 0 0.372839 0.04 0 0.378823 0.04 0 0.385 0.04 0 0.391385 0.04 0 0.397997 0.04 0 0.404855 0.04 0 0.411979 0.04 0 0.419394 0.04 0 0.427128 0.04 0 0.435213 0.04 0 0.443683 0.04 0 0.45258 0.04 0 0.46195 0.04 0 0.471845 0.04 0 0.482318 0.04 0 0.493413 0.04 0 0.505127 0.04 0 0.517286 0.04 0 0.529453 0.04 0 0.541487 0.04 0 0.553395 0.04 0 0.565212 0.04 0 0.57698 0.04 0 0.588725 0.04 0 0.600464 0.04 0 0.612201 0.04 0 0.62395 0.04 0 0.626561 0.04 0 0.629098 0.04 0 0.631589 0.04 0 0.63405 0.04 0 0.63649 0.04 0 0.638913 0.04 0 0.641327 0.04 0 0.643738 0.04 0 0.64615 0.04 0 0.648547 0.04 0 0.650932 0.04 0 0.653313 0.04 0 0.655691 0.04 0 0.65807 0.04 0 0.660448 0.04 0 0.662822 0.04 0 0.665194 0.04 0 0.667563 0.04 0 0.669932 0.04 0 0.6723 0.04 0 0.674665 0.04 0 0.677029 0.04 0 0.679393 0.04 0 0.681756 0.04 0 0.684119 0.04 0 0.686482 0.04 0 0.688845 0.04 0 0.691206 0.04 0 0.69357 0.04 0 0.695935 0.04 0 0.698301 0.04 0 0.700666 0.04 0 0.70303 0.04 0 0.705392 0.04 0 0.707754 0.04 0 0.710114 0.04 0 0.712478 0.04 0 0.714844 0.04 0 0.717219 0.04 0 0.719611 0.04 0 0.722029 0.04 0 0.724479 0.04 0 0.727033 0.04 0 0.729683 0.04 0 0.732504 0.04 0 0.735521 0.04 0 0.738823 0.04 0 0.742444 0.04 0 0.746421 0.04 0 0.750738 0.04 0 0.75534 0.04 0 0.760141 0.04 0 0.765054 0.04 0 0.77002 0.04 0 0.775007 0.04 0 0.780003 0.04 0 0.785001 0.04 0 0.79 0.04 0 0.795 0.04 0 0.8 0.04 0 0.805 0.04 0 0.81 0.04 0 0.815 0.04 0 0.82 0.04 0 0.825 0.04 0 0.83 0.04 0 0.835 0.04 0 0.84 0.04 0 0.845 0.04 0 0.85 0.04 0 0.855 0.04 0 0.86 0.04 0 0.865 0.04 0 0.87 0.04 0 0.875 0.04 0 0.88 0.04 0 0.885 0.04 0 0.89 0.04 0 0.895 0.04 0 0.9 0.04 0 0.905 0.04 0 0.91 0.04 0 0.915 0.04 0 0.92 0.04 0 0.925 0.04 0 0.93 0.04 0 0.935 0.04 0 0.94 0.04 0 0.945 0.04 0 0.95 0.04 0 0.955 0.04 0 0.96 0.04 0 0.965 0.04 0 0.97 0.04 0 0.975 0.04 0 0.98 0.04 0 0.985 0.04 0 0.99 0.04 0 0.995 0.04 0 1 0.04 0 0 0.06 0 0.005 0.06 0 0.01 0.06 0 0.015 0.06 0 0.02 0.06 0 0.025 0.06 0 0.03 0.06 0 0.035 0.06 0 0.04 0.06 0 0.045 0.06 0 0.05 0.06 0 0.055 0.06 0 0.06 0.06 0 0.065 0.06 0 0.07 0.06 0 0.075 0.06 0 0.08 0.06 0 0.085 0.06 0 0.09 0.06 0 0.095 0.06 0 0.1 0.06 0 0.105 0.06 0 0.11 0.06 0 0.115 0.06 0 0.12 0.06 0 0.125 0.06 0 0.13 0.06 0 0.135 0.06 0 0.14 0.06 0 0.145 0.06 0 0.15 0.06 0 0.155 0.06 0 0.16 0.06 0 0.165 0.06 0 0.17 0.06 0 0.175 0.06 0 0.18 0.06 0 0.185 0.06 0 0.19 0.06 0 0.195 0.06 0 0.2 0.06 0 0.205 0.06 0 0.21 0.06 0 0.215 0.06 0 0.22 0.06 0 0.225 0.06 0 0.23 0.06 0 0.235 0.06 0 0.24 0.06 0 0.245 0.06 0 0.25 0.06 0 0.255 0.06 0 0.26 0.06 0 0.265 0.06 0 0.27 0.06 0 0.275 0.06 0 0.28 0.06 0 0.285 0.06 0 0.29 0.06 0 0.295 0.06 0 0.3 0.06 0 0.305 0.06 0 0.31 0.06 0 0.315001 0.06 0 0.320003 0.06 0 0.32501 0.06 0 0.330028 0.06 0 0.335069 0.06 0 0.340152 0.06 0 0.345302 0.06 0 0.350545 0.06 0 0.355902 0.06 0 0.361393 0.06 0 0.367034 0.06 0 0.372839 0.06 0 0.378823 0.06 0 0.385 0.06 0 0.391385 0.06 0 0.397997 0.06 0 0.404855 0.06 0 0.411979 0.06 0 0.419394 0.06 0 0.427128 0.06 0 0.435213 0.06 0 0.443683 0.06 0 0.45258 0.06 0 0.46195 0.06 0 0.471845 0.06 0 0.482318 0.06 0 0.493413 0.06 0 0.505127 0.06 0 0.517286 0.06 0 0.529453 0.06 0 0.541487 0.06 0 0.553395 0.06 0 0.565212 0.06 0 0.57698 0.06 0 0.588725 0.06 0 0.600464 0.06 0 0.612201 0.06 0 0.62395 0.06 0 0.626561 0.06 0 0.629098 0.06 0 0.631589 0.06 0 0.63405 0.06 0 0.63649 0.06 0 0.638913 0.06 0 0.641327 0.06 0 0.643738 0.06 0 0.64615 0.06 0 0.648547 0.06 0 0.650932 0.06 0 0.653313 0.06 0 0.655691 0.06 0 0.65807 0.06 0 0.660448 0.06 0 0.662822 0.06 0 0.665194 0.06 0 0.667563 0.06 0 0.669932 0.06 0 0.6723 0.06 0 0.674665 0.06 0 0.677029 0.06 0 0.679393 0.06 0 0.681756 0.06 0 0.684119 0.06 0 0.686482 0.06 0 0.688845 0.06 0 0.691206 0.06 0 0.69357 0.06 0 0.695935 0.06 0 0.698301 0.06 0 0.700666 0.06 0 0.70303 0.06 0 0.705392 0.06 0 0.707754 0.06 0 0.710114 0.06 0 0.712478 0.06 
[...]
			<PointData Scalars="VitesseX">
				<DataArray Name="VitesseX" type="Float32" format="ascii">
 0 9.09273e-16 2.17016e-15 7.58925e-16 1.18689e-16 -1.15933e-15 -2.13462e-15 4.69043e-15 4.5507e-15 -7.15477e-15 8.80257e-15 1.7026e-15 6.6066e-15 -2.6005e-15 1.6441e-15 1.47431e-14 1.17826e-15 2.03687e-14 5.56339e-15 1.84559e-15 6.84865e-15 5.65245e-15 1.00175e-14 5.37502e-15 2.13715e-14 1.27876e-14 2.52812e-14 -1.60153e-14 1.12284e-14 -8.43152e-15 2.29008e-14 2.36527e-14 -6.79253e-15 2.07679e-14 8.65902e-15 -1.70856e-14 2.12743e-14 -2.18203e-14 1.82747e-14 1.52785e-14 -3.81853e-14 2.33733e-14 -2.40579e-14 -1.10894e-14 1.39169e-14 5.38257e-14 2.64981e-14 -2.67231e-14 3.00049e-14 1.29694e-13 1.706e-13 4.77204e-13 4.12012e-12 2.96067e-11 2.02448e-10 1.30137e-09 7.84933e-09 4.4303e-08 2.3323e-07 1.141e-06 5.16509e-06 2.15277e-05 8.21254e-05 0.000284748 0.000889949 0.00248436 0.00613986 0.013352 0.0255467 0.0433624 0.0663518 0.0933985 0.123376 0.155504 0.189358 0.224745 0.261603 0.299935 0.339784 0.381221 0.424335 0.469234 0.516037 0.564871 0.615861 0.669102 0.724608 0.782169 0.840987 0.898588 0.94749 0.966416 0.954427 0.943939 0.935538 0.93064 0.928391 0.927465 0.927048 0.926799 0.926614 0.926649 0.926621 0.926592 0.926533 0.926452 0.926357 0.926263 0.926176 0.926109 0.926071 0.926059 0.926176 0.926633 0.926753 0.926687 0.926517 0.926385 0.92622 0.926026 0.925835 0.92566 0.925524 0.925443 0.925415 0.925529 0.925892 0.925812 0.925837 0.925927 0.926505 0.926487 0.925525 0.924402 0.923109 0.922529 0.924176 0.923907 0.924456 0.927636 0.903676 0.906692 0.864993 0.849204 0.777521 0.741382 0.628545 0.537498 0.407707 0.286045 0.175539 0.0928292 0.0421593 0.0170521 0.00645627 0.00237052 0.000858479 0.000308645 0.000110379 3.92742e-05 1.38971e-05 4.88691e-06 1.70646e-06 5.91235e-07 2.03089e-07 6.91116e-08 2.32836e-08 7.7607e-09 2.55789e-09 8.33158e-10 2.68048e-10 8.51006e-11 2.66779e-11 8.3037e-12 2.44859e-12 8.35138e-13 2.46261e-14 2.06202e-13 3.41324e-14 -1.86892e-13 1.04676e-14 -1.03564e-13 3.68355e-14 3.83245e-14 -1.78428e-13 -1.42902e-13 -1.22139e-14 -8.07468e-14 1.06974e-13 -2.30249e-14 -1.01016e-13 -7.97901e-14 -7.26058e-16 1.05822e-13 -5.52091e-14 -7.96872e-14 5.41256e-14 -7.61005e-14 1.09639e-13 7.61057e-15 0 0 5.2377e-16 7.34076e-16 -5.87294e-16 6.73955e-16 -4.71067e-16 8.14214e-16 -3.43265e-15 7.93481e-15 4.7286e-15 -2.08156e-15 5.10258e-15 4.46109e-15 9.42139e-15 -1.98015e-15 3.33913e-15 1.1951e-14 2.18161e-15 1.13522e-14 1.37507e-14 1.21348e-14 -9.08631e-16 1.04456e-15 1.40228e-16 1.44697e-14 2.56943e-14 -7.07373e-15 2.2985e-14 -1.50664e-14 1.45827e-14 -1.3897e-14 1.55144e-14 1.14021e-14 1.22878e-14 2.66394e-15 1.25959e-14 -2.0278e-14 1.97803e-14 2.16253e-15 9.18454e-15 -1.07049e-14 -2.84434e-14 1.11271e-14 2.71201e-14 -1.43206e-14 5.05152e-14 1.43321e-14 2.82073e-14 4.48735e-14 1.33484e-13 1.67636e-13 4.79526e-13 4.08408e-12 2.95604e-11 2.02412e-10 1.30134e-09 7.84938e-09 4.4303e-08 2.3323e-07 1.141e-06 5.16509e-06 2.15277e-05 8.21254e-05 0.000284748 0.000889949 0.00248436 0.00613986 0.013352 0.0255467 0.0433624 0.0663518 0.0933985 0.123376 0.155504 0.189358 0.224745 0.261603 0.299935 0.339784 0.381221 0.424335 0.469234 0.516037 0.564871 0.615861 0.669102 0.724608 0.782169 0.840987 0.898588 0.94749 0.966416 0.954427 0.943939 0.935538 0.93064 0.928391 0.927465 0.927048 0.926799 0.926614 0.926649 0.926621 0.926592 0.926533 0.926452 0.926357 0.926263 0.926176 0.926109 0.926071 0.926059 0.926176 0.926633 0.926753 0.926687 0.926517 0.926385 0.92622 0.926026 0.925835 0.92566 0.925524 0.925443 0.925415 0.925529 0.925892 0.925812 0.925837 0.925927 0.926505 0.926487 0.925525 0.924402 0.923109 0.922529 0.924176 0.923907 0.924456 0.927636 0.903676 0.906692 0.864993 0.849204 0.777521 0.741382 0.628545 0.537498 0.407707 0.286045 0.175539 0.0928292 0.0421593 0.0170521 0.00645627 0.00237052 0.000858479 0.000308645 0.000110379 3.92742e-05 1.38971e-05 4.88691e-06 1.70646e-06 5.91235e-07 2.03089e-07 6.91116e-08 2.32837e-08 7.76084e-09 2.55778e-09 8.33073e-10 2.68124e-10 8.5203e-11 2.66725e-11 8.26985e-12 2.57495e-12 7.13745e-13 2.18113e-13 1.03513e-13 -2.52804e-14 2.33724e-14 -8.78292e-14 -1.03128e-13 1.72559e-14 -1.12162e-13 -6.8333e-14 -1.02089e-13 -6.65867e-14 7.1289e-14 -4.90326e-14 -2.38832e-14 -8.22171e-14 1.02493e-13 -1.03464e-13 -6.37118e-14 2.96888e-14 3.74508e-14 -1.1085e-13 7.66474e-14 -4.99882e-14 3.09262e-14 0 0 6.01134e-16 6.07009e-16 5.73993e-16 4.67827e-15 4.23199e-15 3.46552e-15 -5.10404e-15 6.25154e-15 4.14275e-15 2.20297e-15 2.78795e-15 -6.99357e-16 1.12223e-14 4.70514e-15 1.06773e-15 1.17458e-14 4.37782e-15 1.52771e-15 2.60204e-14 8.91712e-15 -1.79774e-14 2.79261e-14 -1.11025e-14 1.13381e-14 3.00533e-15 -1.22286e-14 1.13489e-14 -1.4625e-15 1.12977e-14 -2.84705e-14 2.66471e-15 2.33109e-14 -7.95126e-15 1.86799e-14 2.29473e-14 -1.97683e-14 2.12292e-14 -1.57948e-14 5.58854e-15 8.74109e-15 -1.51724e-14 1.45271e-14 2.76647e-14 1.17781e-14 3.70873e-14 2.62025e-14 7.08099e-14 5.06546e-14 1.19654e-13 1.32022e-13 4.5583e-13 4.0562e-12 2.95599e-11 2.02413e-10 1.30123e-09 7.84943e-09 4.4303e-08 2.3323e-07 1.141e-06 5.16509e-06 2.15277e-05 8.21254e-05 0.000284748 0.000889949 0.00248436 0.00613986 0.013352 0.0255467 0.0433624 0.0663518 0.0933985 0.123376 0.155504 0.189358 0.224745 0.261603 0.299935 0.339784 0.381221 0.424335 0.469234 0.516037 0.564871 0.615861 0.669102 0.724608 0.782169 0.840987 0.898588 0.94749 0.966416 0.954427 0.943939 0.935538 0.93064 0.928391 0.927465 0.927048 0.926799 0.926614 0.926649 0.926621 0.926592 0.926533 0.926452 0.926357 0.926263 0.926176 0.926109 0.926071 0.926059 0.926176 0.926633 0.926753 0.926687 0.926517 0.926385 0.92622 0.926026 0.925835 0.92566 0.925524 0.925443 0.925415 0.925529 0.925892 0.925812 0.925837 0.925927 0.926505 0.926487 0.925525 0.924402 0.923109 0.922529 0.924176 0.923907 0.924456 0.927636 0.903676 0.906692 0.864993 0.849204 0.777521 0.741382 0.628545 0.537498 0.407707 0.286045 0.175539 0.0928292 0.0421593 0.0170521 0.00645627 0.00237052 0.000858479 0.000308645 0.000110379 3.92742e-05 1.38971e-05 4.88691e-06 1.70646e-06 5.91235e-07 2.03089e-07 6.91117e-08 2.32836e-08 7.76084e-09 2.5578e-09 8.33081e-10 2.68106e-10 8.52011e-11 2.6824e-11 8.30924e-12 2.54451e-12 8.59512e-13 1.93416e-13 -5.70771e-14 -2.15231e-14 8.08522e-15 -7.06069e-15 -1.60453e-14 -2.24561e-13 -1.9401e-13 -3.69163e-15 1.38828e-13 -3.57454e-14 -5.32602e-14 -1.04455e-13 8.4428e-14 -4.86419e-14 6.51602e-14 -1.91147e-13 3.23026e-14 4.96759e-14 7.93096e-14 -1.43261e-13 1.12796e-13 -7.1355e-14 -4.36396e-14 0 0 2.64394e-17 1.82824e-15 1.52654e-15 1.07541e-15 3.64472e-15 5.80494e-15 2.65877e-15 8.91202e-15 -1.92326e-15 -1.15373e-15 1.67888e-15 4.28972e-15 4.27256e-15 1.82137e-14 1.4142e-14 4.85103e-16 1.69192e-15 1.21178e-14 5.27463e-15 -6.81905e-16 8.18914e-15 2.78189e-14 -1.39173e-14 -1.23689e-15 -2.13374e-14 6.65175e-15 -1.9893e-14 1.55296e-14 -6.78698e-15 2.45347e-14 -1.81505e-14 5.60729e-15 -2.11734e-14 2.93816e-14 1.48518e-14 -1.46516e-16 -1.12541e-15 -1.61282e-14 -1.53648e-14 1.82524e-14 5.45424e-14 2.28718e-14 7.11712e-15 -3.34863e-14 5.76386e-14 3.36212e-14 6.12733e-14 9.81607e-14 6.3839e-14 1.20581e-13 4.90983e-13 4.05835e-12 2.95801e-11 2.02377e-10 1.30122e-09 7.84939e-09 4.4303e-08 2.3323e-07 1.141e-06 5.16509e-06 2.15277e-05 8.21254e-05 0.000284748 0.000889949 0.00248436 0.00613986 0.013352 0.0255467 0.0433624 0.0663518 0.0933985 0.123376 0.155504 0.189358 0.224745 0.261603 0.299935 0.339784 0.381221 0.424335 0.469234 0.516037 0.564871 0.615861 0.669102 0.724608 0.782169 0.840987 0.898588 0.94749 0.966416 0.954427 0.943939 0.935538 0.93064 0.928391 0.927465 0.927048 0.926799 0.926614 0.926649 0.926621 0.926592 0.926533 0.926452 0.926357 0.926263 0.926176 0.926109 0.926071 0.926059 0.926176 0.926633 0.926753 0.926687 0.926517 0.926385 0.92622 0.926026 0.925835 0.92566 0.925524 0.925443 0.925415 0.925529 0.925892 0.925812 0.925837 0.925927 0.926505 0.926487 0.925525 0.924402 0.923109 0.922529 0.924176 0.923907 0.924456 0.927636 0.903676 0.906692 0.864993 0.849204 0.777521 0.741382 0.628545 0.537498 0.407707 0.286045 0.175539 0.0928292 0.0421593 0.0170521 0.00645627 0.00237052 0.000858479 0.000308645 0.000110379 3.92742e-05 1.38971e-05 4.88691e-06 1.70646e-06 5.91235e-07 2.03089e-07 6.91118e-08 2.32836e-08 7.76093e-09 2.55794e-09 8.33113e-10 2.68054e-10 8.51867e-11 2.67858e-11 8.40639e-12 2.60121e-12 8.27537e-13 8.41961e-14 -8.44779e-14 -1.30906e-13 -3.08014e-14 -2.55134e-14 4.70298e-14 -1.68436e-13 -1.84706e-13 6.73724e-14 1.92807e-13 -1.36035e-14 -1.29796e-13 9.43683e-14 3.80802e-14 -1.15954e-13 -9.37643e-14 -6.50846e-14 4.27575e-14 6.32149e-14 -1.27163e-13 5.04919e-15 -2.72847e-14 5.1927e-15 3.37712e-14 0 0 -1.14013e-15 -2.77915e-16 3.74602e-17 -4.46695e-15 7.56776e-16 8.21039e-16 4.15424e-17 7.13367e-15 5.55075e-15 -7.85129e-15 1.85683e-14 6.28635e-15 1.02754e-14 1.45134e-14 1.94509e-14 -7.10921e-15 -4.44695e-15 8.20284e-15 -9.81836e-15 -4.19495e-15 1.96706e-14 -2.859e-15 2.02084e-14 1.29903e-15 -2.48262e-14 -1.392e-14 1.68074e-15 -1.46578e-14 -1.43323e-14 2.27438e-14 -6.58588e-15 -1.68316e-15 -1.66997e-15 1.39016e-14 1.80448e-14 -2.33663e-14 -3.19495e-15 5.9486e-16 -2.13519e-14 2.26366e-14 4.78627e-14 4.09083e-14 9.372e-15 -6.42929e-14 6.68455e-14 3.11338e-14 6.30763e-14 1.47173e-13 7.52098e-14 2.0179e-13 4.6419e-13 4.05269e-12 2.95872e-11 2.02354e-10 1.30118e-09 7.84926e-09 4.4303e-08 2.3323e-07 1.141e-06 5.16509e-06 2.15277e-05 8.21254e-05 0.000284748 0.000889949 0.00248436 0.00613986 0.013352 0.0255467 0.0433624 0.0663518 0.0933985 0.123376 0.155504 0.189358 0.224745 0.261603 0.299935 0.339784 0.381221 0.424335 0.469234 0.516037 0.564871 0.615861 0.669102 0.724608 0.782169 0.840987 0.898588 0.94749 0.966416 0.954427 0.943939 0.935538 0.93064 0.928391 0.927465 0.927048 0.926799 0.926614 0.926649 0.926621 0.926592 0.926533 0.926452 0.926357 0.926263 0.926176 0.926109 0.926071 0.926059 0.926176 0.926633 0.926753 0.926687 0.926517 0.926385 0.92622 0.926026 0.925835 0.92566 0.925524 0.925443 0.925415 0.925529 0.925892 0.925812 0.925837 0.925927 0.926505 0.926487 0.925525 0.924402 0.923109 0.922529 0.924176 0.923907 0.924456 0.927636 0.903676 0.906692 0.864993 0.849204 0.777521 0.741382 0.628545 0.537498 0.407707 0.286045 0.175539 0.0928292 0.0421593 0.0170521 0.00645627 0.00237052 0.000858479 0.000308645 0.000110379 3.92742e-05 1.38971e-05 4.88691e-06 1.70646e-06 5.91235e-07 2.03089e-07 6.91116e-08 2.32839e-08 7.76094e-09 2.55787e-09 8.33006e-10 2.68247e-10 8.52357e-11 2.67786e-11 8.3484e-12 2.72498e-12 8.07395e-13 -4.83457e-14 -1.08559e-13 -2.23474e-13 7.71461e-14 -1.43597e-14 -9.471e-14 1.14273e-14 -8.43857e-14 -1.72895e-14 2.20462e-13 -1.64354e-14 2.72815e-14 6.59516e-14 -3.07641e-14 -2.94996e-13 8.069e-14 2.9753e-14 -8.53085e-14 1.70444e-13 -2.86972e-13 6.42091e-15 6.69664e-14 -9.92746e-14 -2.66979e-14 0 0 -1.26915e-15 -2.29628e-15 1.03343e-16 -2.9574e-15 2.4709e-15 -6.7998e-15 -3.88682e-15 -2.37252e-15 6.62155e-15 3.97652e-15 3.08522e-14 2.78971e-16 1.30072e-14 7.61394e-15 2.0818e-14 -1.44206e-14 1.24834e-14 -2.19155e-14 -3.80086e-15 -6.61286e-15 -5.52222e-15 2.4248e-15 5.1141e-14 2.01801e-14 -3.9568e-14 -2.61719e-14 3.85991e-15 -2.19386e-14 -3.00921e-14 -9.82821e-15 2.10825e-14 2.44413e-15 1.92968e-14 9.73113e-15 1.0003e-14 -2.4146e-14 -2.30617e-14 1.58061e-14 -3.88781e-15 9.47507e-15 3.65559e-14 1.8815e-14 -5.49038e-15 4.50117e-15 4.53839e-14 4.5264e-14 6.20879e-14 1.39592e-13 1.24775e-13 2.6179e-13 3.76225e-13 4.05305e-12 2.96199e-11 2.02405e-10 1.30107e-09 7.84918e-09 4.4303e-08 2.3323e-07 1.141e-06 5.16509e-06 2.15277e-05 8.21254e-05 0.000284748 0.000889949 0.00248436 0.00613986 0.013352 0.0255467 0.0433624 0.0663518 0.0933985 0.123376 0.155504 0.189358 0.224745 0.261603 0.299935 0.339784 0.381221 0.424335 0.469234 0.516037 0.564871 0.615861 0.669102 0.724608 0.782169 0.840987 0.898588 0.94749 0.966416 0.954427 0.943939 0.935538 0.93064 0.928391 0.927465 0.927048 0.926799 0.926614 0.926649 0.926621 0.926592 0.926533 0.926452 0.926357 0.926263 0.926176 0.926109 0.926071 0.926059 0.926176 0.926633 0.926753 0.926687 0.926517 0.926385 0.92622 0.926026 0.925835 0.92566 0.925524 0.925443 0.925415 0.925529 0.925892 0.925812 0.925837 0.925927 0.926505 0.926487 0.925525 0.924402 0.923109 0.922529 0.924176 0.923907 0.924456 0.927636 0.903676 0.906692 0.864993 0.849204 0.777521 0.741382 0.628545 0.537498 0.407707 0.286045 0.175539 0.0928292 0.0421593 0.0170521 0.00645627 0.00237052 0.000858479 0.000308645 0.000110379 3.92742e-05 1.38971e-05 4.88691e-06 1.70646e-06 5.91235e-07 2.0309e-07 6.91113e-08 2.32841e-08 7.76074e-09 2.55778e-09 8.32962e-10 2.68398e-10 8.51947e-11 2.69661e-11 8.26575e-12 2.63517e-12 1.08678e-12 -2.89335e-13 -1.62633e-13 -1.43077e-13 -9.37075e-16 1.94381e-13 -2.13152e-13 -8.72049e-14 7.50528e-14 -2.1813e-13 3.94142e-13 4.32613e-14 -1.55964e-14 -6.12167e-14 5.50076e-14 -3.92521e-13 1.94162e-13 1.37055e-14 4.22072e-14 1.99673e-13 -3.15672e-13 -8.04663e-15 1.85049e-13 -1.42614e-13 -2.63817e-13 0
				</DataArray>
				<DataArray Name="VitesseY" type="Float32" format="ascii">