<?xml version="1.0"?>
<VTKFile type="PolyData">
	<PolyData>
		<Piece NumberOfPoints="1206" NumberOfPolys="1000">
			<Points>
				<DataArray type="Float32" NumberOfComponents="3" format="ascii">
 0 0 0 0.005 0 0 0.01 0 0 0.015 0 0 0.02 0 0 0.025 0 0 0.03 0 0 0.035 0 0 0.04 0 0 0.045 0 0 0.05 0 0 0.055 0 0 0.06 0 0 0.065 0 0 0.07 0 0 0.075 0 0 0.08 0 0 0.085 0 0 0.09 0 0 0.095 0 0 0.1 0 0 0.105 0 0 0.11 0 0 0.115 0 0 0.12 0 0 0.125 0 0 0.13 0 0 0.135 0 0 0.14 0 0 0.145 0 0 0.15 0 0 0.155 0 0 0.16 0 0 0.165 0 0 0.17 0 0 0.175 0 0 0.18 0 0 0.185 0 0 0.19 0 0 0.195 0 0 0.2 0 0 0.205 0 0 0.21 0 0 0.215 0 0 0.22 0 0 0.225 0 0 0.23 0 0 0.235 0 0 0.24 0 0 0.245 0 0 0.25 0 0 0.255 0 0 0.26 0 0 0.265 0 0 0.27 0 0 0.275 0 0 0.28 0 0 0.285 0 0 0.29 0 0 0.295 0 0 0.3 0 0 0.305 0 0 0.31 0 0 0.315 0 0 0.32 0 0 0.325 0 0 0.330002 0 0 0.335006 0 0 0.340017 0 0 0.345046 0 0 0.350109 0 0 0.355231 0 0 0.360442 0 0 0.365767 0 0 0.371232 0 0 0.376854 0 0 0.382653 0 0 0.388643 0 0 0.394843 0 0 0.401272 0 0 0.407949 0 0 0.414899 0 0 0.422148 0 0 0.429725 0 0 0.437665 0 0 0.446008 0 0 0.454798 0 0 0.46409 0 0 0.47394 0 0 0.484412 0 0 0.495553 0 0 0.50735 0 0 0.519562 0 0 0.531715 0 0 0.543724 0 0 0.555605 0 0 0.567404 0 0 0.579162 0 0 0.590906 0 0 0.602646 0 0 0.614398 0 0 0.617009 0 0 0.619546 0 0 0.622037 0 0 0.624498 0 0 0.626938 0 0 0.629362 0 0 0.631777 0 0 0.634189 0 0 0.636602 0 0 0.638999 0 0 0.641386 0 0 0.643767 0 0 0.646145 0 0 0.648522 0 0 0.650899 0 0 0.653272 0 0 0.655642 0 0 0.658011 0 0 0.660382 0 0 0.662752 0 0 0.665119 0 0 0.667486 0 0 0.669851 0 0 0.672216 0 0 0.674582 0 0 0.676945 0 0 0.679308 0 0 0.681669 0 0 0.684032 0 0 0.686395 0 0 0.688761 0 0 0.691129 0 0 0.693492 0 0 0.695853 0 0 0.698226 0 0 0.700602 0 0 0.703014 0 0 0.705445 0 0 0.707968 0 0 0.71056 0 0 0.713321 0 0 0.716267 0 0 0.719441 0 0 0.722936 0 0 0.726772 0 0 0.730962 0 0 0.735463 0 0 0.740199 0 0 0.745078 0 0 0.750029 0 0 0.755011 0 0 0.760004 0 0 0.765001 0 0 0.77 0 0 0.775 0 0 0.78 0 0 0.785 0 0 0.79 0 0 0.795 0 0 0.8 0 0 0.805 0 0 0.81 0 0 0.815 0 0 0.82 0 0 0.825 0 0 0.83 0 0 0.835 0 0 0.84 0 0 0.845 0 0 0.85 0 0 0.855 0 0 0.86 0 0 0.865 0 0 0.87 0 0 0.875 0 0 0.88 0 0 0.885 0 0 0.89 0 0 0.895 0 0 0.9 0 0 0.905 0 0 0.91 0 0 0.915 0 0 0.92 0 0 0.925 0 0 0.93 0 0 0.935 0 0 0.94 0 0 0.945 0 0 0.95 0 0 0.955 0 0 0.96 0 0 0.965 0 0 0.97 0 0 0.975 0 0 0.98 0 0 0.985 0 0 0.99 0 0 0.995 0 0 1 0 0 0 0.02 0 0.005 0.02 0 0.01 0.02 0 0.015 0.02 0 0.02 0.02 0 0.025 0.02 0 0.03 0.02 0 0.035 0.02 0 0.04 0.02 0 0.045 0.02 0 0.05 0.02 0 0.055 0.02 0 0.06 0.02 0 0.065 0.02 0 0.07 0.02 0 0.075 0.02 0 0.08 0.02 0 0.085 0.02 0 0.09 0.02 0 0.095 0.02 0 0.1 0.02 0 0.105 0.02 0 0.11 0.02 0 0.115 0.02 0 0.12 0.02 0 0.125 0.02 0 0.13 0.02 0 0.135 0.02 0 0.14 0.02 0 0.145 0.02 0 0.15 0.02 0 0.155 0.02 0 0.16 0.02 0 0.165 0.02 0 0.17 0.02 0 0.175 0.02 0 0.18 0.02 0 0.185 0.02 0 0.19 0.02 0 0.195 0.02 0 0.2 0.02 0 0.205 0.02 0 0.21 0.02 0 0.215 0.02 0 0.22 0.02 0 0.225 0.02 0 0.23 0.02 0 0.235 0.02 0 0.24 0.02 0 0.245 0.02 0 0.25 0.02 0 0.255 0.02 0 0.26 0.02 0 0.265 0.02 0 0.27 0.02 0 0.275 0.02 0 0.28 0.02 0 0.285 0.02 0 0.29 0.02 0 0.295 0.02 0 0.3 0.02 0 0.305 0.02 0 0.31 0.02 0 0.315 0.02 0 0.32 0.02 0 0.325 0.02 0 0.330002 0.02 0 0.335006 0.02 0 0.340017 0.02 0 0.345046 0.02 0 0.350109 0.02 0 0.355231 0.02 0 0.360442 0.02 0 0.365767 0.02 0 0.371232 0.02 0 0.376854 0.02 0 0.382653 0.02 0 0.388643 0.02 0 0.394843 0.02 0 0.401272 0.02 0 0.407949 0.02 0 0.414899 0.02 0 0.422148 0.02 0 0.429725 0.02 0 0.437665 0.02 0 0.446008 0.02 0 0.454798 0.02 0 0.46409 0.02 0 0.47394 0.02 0 0.484412 0.02 0 0.495553 0.02 0 0.50735 0.02 0 0.519562 0.02 0 0.531715 0.02 0 0.543724 0.02 0 0.555605 0.02 0 0.567404 0.02 0 0.579162 0.02 0 0.590906 0.02 0 0.602646 0.02 0 0.614398 0.02 0 0.617009 0.02 0 0.619546 0.02 0 0.622037 0.02 0 0.624498 0.02 0 0.626938 0.02 0 0.629362 0.02 0 0.631777 0.02 0 0.634189 0.02 0 0.636602 0.02 0 0.638999 0.02 0 0.641386 0.02 0 0.643767 0.02 0 0.646145 0.02 0 0.648522 0.02 0 0.650899 0.02 0 0.653272 0.02 0 0.655642 0.02 0 0.658011 0.02 0 0.660382 0.02 0 0.662752 0.02 0 0.665119 0.02 0 0.667486 0.02 0 0.669851 0.02 0 0.672216 0.02 0 0.674582 0.02 0 0.676945 0.02 0 0.679308 0.02 0 0.681669 0.02 0 0.684032 0.02 0 0.686395 0.02 0 0.688761 0.02 0 0.691129 0.02 0 0.693492 0.02 0 0.695853 0.02 0 0.698226 0.02 0 0.700602 0.02 0 0.703014 0.02 0 0.705445 0.02 0 0.707968 0.02 0 0.71056 0.02 0 0.713321 0.02 0 0.716267 0.02 0 0.719441 0.02 0 0.722936 0.02 0 0.726772 0.02 0 0.730962 0.02 0 0.735463 0.02 0 0.740199 0.02 0 0.745078 0.02 0 0.750029 0.02 0 0.755011 0.02 0 0.760004 0.02 0 0.765001 0.02 0 0.77 0.02 0 0.775 0.02 0 0.78 0.02 0 0.785 0.02 0 0.79 0.02 0 0.795 0.02 0 0.8 0.02 0 0.805 0.02 0 0.81 0.02 0 0.815 0.02 0 0.82 0.02 0 0.825 0.02 0 0.83 0.02 0 0.835 0.02 0 0.84 0.02 0 0.845 0.02 0 0.85 0.02 0 0.855 0.02 0 0.86 0.02 0 0.865 0.02 0 0.87 0.02 0 0.875 0.02 0 0.88 0.02 0 0.885 0.02 0 0.89 0.02 0 0.895 0.02 0 0.9 0.02 0 0.905 0.02 0 0.91 0.02 0 0.915 0.02 0 0.92 0.02 0 0.925 0.02 0 0.93 0.02 0 0.935 0.02 0 0.94 0.02 0 0.945 0.02 0 0.95 0.02 0 0.955 0.02 0 0.96 0.02 0 0.965 0.02 0 0.97 0.02 0 0.975 0.02 0 0.98 0.02 0 0.985 0.02 0 0.99 0.02 0 0.995 0.02 0 1 0.02 0 0 0.04 0 0.005 0.04 0 0.01 0.04 0 0.015 0.04 0 0.02 0.04 0 0.025 0.04 0 0.03 0.04 0 0.035 0.04 0 0.04 0.04 0 0.045 0.04 0 0.05 0.04 0 0.055 0.04 0 0.06 0.04 0 0.065 0.04 0 0.07 0.04 0 0.075 0.04 0 0.08 0.04 0 0.085 0.04 0 0.09 0.04 0 0.095 0.04 0 0.1 0.04 0 0.105 0.04 0 0.11 0.04 0 0.115 0.04 0 0.12 0.04 0 0.125 0.04 0 0.13 0.04 0 0.135 0.04 0 0.14 0.04 0 0.145 0.04 0 0.15 0.04 0 0.155 0.04 0 0.16 0.04 0 0.165 0.04 0 0.17 0.04 0 0.175 0.04 0 0.18 0.04 0 0.185 0.04 0 0.19 0.04 0 0.195 0.04 0 0.2 0.04 0 0.205 0.04 0 0.21 0.04 0 0.215 0.04 0 0.22 0.04 0 0.225 0.04 0 0.23 0.04 0 0.235 0.04 0 0.24 0.04 0 0.245 0.04 0 0.25 0.04 0 0.255 0.04 0 0.26 0.04 0 0.265 0.04 0 0.27 0.04 0 0.275 0.04 0 0.28 0.04 0 0.285 0.04 0 0.29 0.04 0 0.295 0.04 0 0.3 0.04 0 0.305 0.04 0 0.31 0.04 0 0.315 0.04 0 0.32 0.04 0 0.325 0.04 0 0.330002 0.04 0 0.335006 0.04 0 0.340017 0.04 0 0.345046 0.04 0 0.350109 0.04 0 0.355231 0.04 0 0.360442 0.04 0 0.365767 0.04 0 0.371232 0.04 0 0.376854 0.04 0 0.382653 0.04 0 0.388643 0.04 0 0.394843 0.04 0 0.401272 0.04 0 0.407949 0.04 0 0.414899 0.04 0 0.422148 0.04 0 0.429725 0.04 0 0.437665 0.04 0 0.446008 0.04 0 0.454798 0.04 0 0.46409 0.04 0 0.47394 0.04 0 0.484412 0.04 0 0.495553 0.04 0 0.50735 0.04 0 0.519562 0.04 0 0.531715 0.04 0 0.543724 0.04 0 0.555605 0.04 0 0.567404 0.04 0 0.579162 0.04 0 0.590906 0.04 0 0.602646 0.04 0 0.614398 0.04 0 0.617009 0.04 0 0.619546 0.04 0 0.622037 0.04 0 0.624498 0.04 0 0.626938 0.04 0 0.629362 0.04 0 0.631777 0.04 0 0.634189 0.04 0 0.636602 0.04 0 0.638999 0.04 0 0.641386 0.04 0 0.643767 0.04 0 0.646145 0.04 0 0.648522 0.04 0 0.650899 0.04 0 0.653272 0.04 0 0.655642 0.04 0 0.658011 0.04 0 0.660382 0.04 0 0.662752 0.04 0 0.665119 0.04 0 0.667486 0.04 0 0.669851 0.04 0 0.672216 0.04 0 0.674582 0.04 0 0.676945 0.04 0 0.679308 0.04 0 0.681669 0.04 0 0.684032 0.04 0 0.686395 0.04 0 0.688761 0.04 0 0.691129 0.04 0 0.693492 0.04 0 0.695853 0.04 0 0.698226 0.04 0 0.700602 0.04 0 0.703014 0.04 0 0.705445 0.04 0 0.707968 0.04 0 0.71056 0.04 0 0.713321 0.04 0 0.716267 0.04 0 0.719441 0.04 0 0.722936 0.04 0 0.726772 0.04 0 0.730962 0.04 0 0.735463 0.04 0 0.740199 0.04 0 0.745078 0.04 0 0.750029 0.04 0 0.755011 0.04 0 0.760004 0.04 0 0.765001 0.04 0 0.77 0.04 0 0.775 0.04 0 0.78 0.04 0 0.785 0.04 0 0.79 0.04 0 0.795 0.04 0 0.8 0.04 0 0.805 0.04 0 0.81 0.04 0 0.815 0.04 0 0.82 0.04 0 0.825 0.04 0 0.83 0.04 0 0.835 0.04 0 0.84 0.04 0 0.845 0.04 0 0.85 0.04 0 0.855 0.04 0 0.86 0.04 0 0.865 0.04 0 0.87 0.04 0 0.875 0.04 0 0.88 0.04 0 0.885 0.04 0 0.89 0.04 0 0.895 0.04 0 0.9 0.04 0 0.905 0.04 0 0.91 0.04 0 0.915 0.04 0 0.92 0.04 0 0.925 0.04 0 0.93 0.04 0 0.935 0.04 0 0.94 0.04 0 0.945 0.04 0 0.95 0.04 0 0.955 0.04 0 0.96 0.04 0 0.965 0.04 0 0.97 0.04 0 0.975 0.04 0 0.98 0.04 0 0.985 0.04 0 0.99 0.04 0 0.995 0.04 0 1 0.04 0 0 0.06 0 0.005 0.06 0 0.01 0.06 0 0.015 0.06 0 0.02 0.06 0 0.025 0.06 0 0.03 0.06 0 0.035 0.06 0 0.04 0.06 0 0.045 0.06 0 0.05 0.06 0 0.055 0.06 0 0.06 0.06 0 0.065 0.06 0 0.07 0.06 0 0.075 0.06 0 0.08 0.06 0 0.085 0.06 0 0.09 0.06 0 0.095 0.06 0 0.1 0.06 0 0.105 0.06 0 0.11 0.06 0 0.115 0.06 0 0.12 0.06 0 0.125 0.06 0 0.13 0.06 0 0.135 0.06 0 0.14 0.06 0 0.145 0.06 0 0.15 0.06 0 0.155 0.06 0 0.16 0.06 0 0.165 0.06 0 0.17 0.06 0 0.175 0.06 0 0.18 0.06 0 0.185 0.06 0 0.19 0.06 0 0.195 0.06 0 0.2 0.06 0 0.205 0.06 0 0.21 0.06 0 0.215 0.06 0 0.22 0.06 0 0.225 0.06 0 0.23 0.06 0 0.235 0.06 0 0.24 0.06 0 0.245 0.06 0 0.25 0.06 0 0.255 0.06 0 0.26 0.06 0 0.265 0.06 0 0.27 0.06 0 0.275 0.06 0 0.28 0.06 0 0.285 0.06 0 0.29 0.06 0 0.295 0.06 0 0.3 0.06 0 0.305 0.06 0 0.31 0.06 0 0.315 0.06 0 0.32 0.06 0 0.325 0.06 0 0.330002 0.06 0 0.335006 0.06 0 0.340017 0.06 0 0.345046 0.06 0 0.350109 0.06 0 0.355231 0.06 0 0.360442 0.06 0 0.365767 0.06 0 0.371232 0.06 0 0.376854 0.06 0 0.382653 0.06 0 0.388643 0.06 0 0.394843 0.06 0 0.401272 0.06 0 0.407949 0.06 0 0.414899 0.06 0 0.422148 0.06 0 0.429725 0.06 0 0.437665 0.06 0 0.446008 0.06 0 0.454798 0.06 0 0.46409 0.06 0 0.47394 0.06 0 0.484412 0.06 0 0.495553 0.06 0 0.50735 0.06 0 0.519562 0.06 0 0.531715 0.06 0 0.543724 0.06 0 0.555605 0.06 0 0.567404 0.06 0 0.579162 0.06 0 0.590906 0.06 0 0.602646 0.06 0 0.614398 0.06 0 0.617009 0.06 0 0.619546 0.06 0 0.622037 0.06 0 0.624498 0.06 0 0.626938 0.06 0 0.629362 0.06 0 0.631777 0.06 0 0.634189 0.06 0 0.636602 0.06 0 0.638999 0.06 0 0.641386 0.06 0 0.643767 0.06 0 0.646145 0.06 0 0.648522 0.06 0 0.650899 0.06 0 0.653272 0.06 0 0.655642 0.06 0 0.658011 0.06 0 0.660382 0.06 0 0.662752 0.06 0 0.665119 0.06 0 0.667486 0.06 0 0.669851 0.06 0 0.672216 0.06 0 0.674582 0.06 0 0.676945 0.06 0 0.679308 0.06 0 0.681669 0.06 0 0.684032 0.06 0 0.686395 0.06 0 0.688761 0.06 0 0.691129 0.06 0 0.693492 0.06 0 0.695853 0.06 0 0.698226 0.06 0 0.700602 0.06 0 0.703014 0.06 0 0.705445 0.06 0 0.707968 
[...]
			<PointData Scalars="VitesseX">
				<DataArray Name="VitesseX" type="Float32" format="ascii">
 0 -5.21781e-16 1.21052e-15 1.13486e-15 3.35665e-15 -6.50537e-16 2.04448e-15 -1.16512e-15 -1.5277e-15 2.82199e-15 -1.44058e-15 5.80749e-15 6.28705e-15 -9.22534e-15 1.0924e-14 -2.48065e-15 1.22279e-14 3.40201e-16 1.03045e-14 1.27617e-14 3.71296e-15 6.81248e-15 5.70665e-15 3.98714e-15 -1.29002e-16 1.29046e-14 1.16091e-15 -2.0061e-15 2.42863e-14 1.7381e-14 8.59148e-15 1.40916e-14 -2.21374e-15 2.58877e-14 2.28661e-14 1.60118e-14 -7.74626e-16 -8.17094e-15 -7.97483e-16 -2.68236e-14 1.10748e-14 -8.18317e-15 5.98279e-15 2.84474e-14 2.53645e-14 -2.8398e-14 -1.94953e-14 4.62299e-14 5.35063e-15 -3.27619e-14 1.88159e-14 8.43702e-14 7.07392e-14 1.05226e-13 6.90632e-13 5.5137e-12 4.20165e-11 2.98385e-10 1.98831e-09 1.23864e-08 7.19068e-08 3.87612e-07 1.93204e-06 8.86194e-06 3.71924e-05 0.000141851 0.000487687 0.00149722 0.0040637 0.00966702 0.0200771 0.0365615 0.0591872 0.0869372 0.118468 0.15273 0.189115 0.227343 0.267317 0.30904 0.352565 0.397986 0.44542 0.495005 0.546892 0.601235 0.658159 0.717694 0.779603 0.842909 0.904453 0.954331 0.966167 0.95262 0.941447 0.933674 0.929629 0.927944 0.927247 0.926922 0.926679 0.9266 0.926528 0.926471 0.926433 0.926421 0.926506 0.926582 0.926525 0.926432 0.926334 0.9262 0.926059 0.92592 0.925805 0.925728 0.925706 0.925774 0.926393 0.926652 0.926561 0.926313 0.926195 0.926027 0.925802 0.925451 0.925028 0.924494 0.92403 0.923791 0.924027 0.926635 0.923625 0.923887 0.921476 0.921147 0.912853 0.917327 0.870778 0.88589 0.791699 0.731825 0.697485 0.567593 0.46192 0.332348 0.215876 0.120912 0.0580119 0.0243506 0.00938907 0.00346877 0.00125648 0.000450485 0.000160358 5.67049e-05 1.99109e-05 6.93705e-06 2.39606e-06 8.19764e-07 2.77581e-07 9.29537e-08 3.07622e-08 1.00547e-08 3.24395e-09 1.03256e-09 3.24182e-10 1.00192e-10 3.06078e-11 9.27535e-12 2.77097e-12 8.85423e-13 1.73033e-13 -9.11476e-14 -9.01112e-14 4.60119e-14 -6.55613e-14 -2.2573e-13 5.92578e-14 2.97656e-14 5.17799e-15 1.43249e-14 -1.28116e-13 -1.78426e-13 3.42432e-14 -6.50489e-14 -1.04925e-14 8.38275e-14 -2.58301e-13 -1.23006e-13 7.79822e-14 -6.68257e-14 1.04072e-13 -9.39738e-14 -4.32673e-14 1.53694e-13 -5.74221e-14 -2.92583e-14 -9.70638e-14 1.12464e-13 0 0 -8.60085e-16 1.28024e-15 -1.95208e-15 4.94796e-16 3.27553e-15 2.86818e-16 2.47786e-15 -5.32532e-15 2.74172e-15 3.48892e-15 5.13155e-15 1.71248e-15 1.03063e-14 -1.11276e-14 8.83585e-15 5.93766e-15 5.83102e-15 8.67947e-15 1.94009e-15 1.21474e-14 1.11237e-14 -2.43744e-15 1.48151e-14 2.80006e-15 1.08032e-14 4.04122e-15 2.05911e-14 -1.68696e-14 1.68837e-14 2.28643e-15 2.33741e-14 -3.3832e-15 1.01134e-15 2.06067e-14 1.94504e-14 1.28634e-14 -2.36108e-14 -2.16185e-14 2.50503e-14 1.68533e-14 2.32035e-17 -1.19333e-14 4.30743e-14 -2.99934e-14 -1.35095e-14 -4.24018e-15 5.76316e-15 2.61891e-14 3.72047e-14 1.13683e-14 5.42627e-14 8.27131e-14 8.55255e-14 7.29457e-13 5.50438e-12 4.19296e-11 2.98448e-10 1.98832e-09 1.23864e-08 7.19067e-08 3.87612e-07 1.93204e-06 8.86194e-06 3.71924e-05 0.000141851 0.000487687 0.00149722 0.0040637 0.00966702 0.0200771 0.0365615 0.0591872 0.0869372 0.118468 0.15273 0.189115 0.227343 0.267317 0.30904 0.352565 0.397986 0.44542 0.495005 0.546892 0.601235 0.658159 0.717694 0.779603 0.842909 0.904453 0.954331 0.966167 0.95262 0.941447 0.933674 0.929629 0.927944 0.927247 0.926922 0.926679 0.9266 0.926528 0.926471 0.926433 0.926421 0.926506 0.926582 0.926525 0.926432 0.926334 0.9262 0.926059 0.92592 0.925805 0.925728 0.925706 0.925774 0.926393 0.926652 0.926561 0.926313 0.926195 0.926027 0.925802 0.925451 0.925028 0.924494 0.92403 0.923791 0.924027 0.926635 0.923625 0.923887 0.921476 0.921147 0.912853 0.917327 0.870778 0.88589 0.791699 0.731825 0.697485 0.567593 0.46192 0.332348 0.215876 0.120912 0.0580119 0.0243506 0.00938907 0.00346877 0.00125648 0.000450485 0.000160358 5.67049e-05 1.99109e-05 6.93705e-06 2.39606e-06 8.19764e-07 2.77581e-07 9.29537e-08 3.07622e-08 1.00546e-08 3.24403e-09 1.0325e-09 3.24169e-10 1.00351e-10 3.05311e-11 9.21114e-12 2.73242e-12 8.51675e-13 2.60093e-13 -3.34084e-14 8.41588e-14 -1.14981e-13 2.34098e-14 -1.15984e-13 -5.402e-14 5.20211e-14 2.71599e-14 -9.92155e-14 -9.01167e-14 -9.34613e-14 5.73861e-14 -1.16773e-13 1.33979e-15 -1.05685e-13 -4.93735e-14 -1.1606e-13 8.19297e-14 -6.02075e-14 9.88208e-15 -8.90469e-14 7.85278e-14 -6.71796e-14 1.49613e-14 1.57713e-14 -1.40751e-14 -9.96493e-14 0 0 -2.18006e-16 -7.95095e-16 7.62946e-16 -1.60092e-15 3.86584e-15 3.72873e-15 4.3821e-15 8.04133e-16 2.26384e-16 7.19056e-15 9.48056e-15 -7.65464e-15 2.13011e-15 -5.81878e-15 1.67371e-14 4.09891e-15 9.54984e-15 4.98418e-15 2.53201e-15 4.59478e-15 1.32408e-14 -8.79643e-15 2.53156e-14 1.66523e-14 -2.67968e-14 2.63431e-14 1.93947e-14 -7.78834e-15 -1.69047e-14 2.26224e-14 -4.32452e-15 -1.11169e-14 -1.29119e-14 1.55583e-14 1.1775e-14 1.56685e-14 -2.58234e-14 -1.97562e-14 3.48035e-14 4.94666e-15 2.16582e-14 -2.25718e-14 3.92265e-14 -3.31494e-14 2.49117e-14 4.44754e-15 -8.2782e-16 3.09934e-14 3.79715e-14 5.91455e-14 3.37929e-14 7.63002e-14 9.48001e-14 7.15934e-13 5.51525e-12 4.18964e-11 2.98372e-10 1.98836e-09 1.23863e-08 7.19067e-08 3.87612e-07 1.93204e-06 8.86194e-06 3.71924e-05 0.000141851 0.000487687 0.00149722 0.0040637 0.00966702 0.0200771 0.0365615 0.0591872 0.0869372 0.118468 0.15273 0.189115 0.227343 0.267317 0.30904 0.352565 0.397986 0.44542 0.495005 0.546892 0.601235 0.658159 0.717694 0.779603 0.842909 0.904453 0.954331 0.966167 0.95262 0.941447 0.933674 0.929629 0.927944 0.927247 0.926922 0.926679 0.9266 0.926528 0.926471 0.926433 0.926421 0.926506 0.926582 0.926525 0.926432 0.926334 0.9262 0.926059 0.92592 0.925805 0.925728 0.925706 0.925774 0.926393 0.926652 0.926561 0.926313 0.926195 0.926027 0.925802 0.925451 0.925028 0.924494 0.92403 0.923791 0.924027 0.926635 0.923625 0.923887 0.921476 0.921147 0.912853 0.917327 0.870778 0.88589 0.791699 0.731825 0.697485 0.567593 0.46192 0.332348 0.215876 0.120912 0.0580119 0.0243506 0.00938907 0.00346877 0.00125648 0.000450485 0.000160358 5.67049e-05 1.99109e-05 6.93705e-06 2.39606e-06 8.19764e-07 2.77581e-07 9.29538e-08 3.07622e-08 1.00547e-08 3.24396e-09 1.03252e-09 3.24127e-10 1.00266e-10 3.06328e-11 9.23306e-12 2.78201e-12 7.52171e-13 2.56847e-13 9.49768e-14 7.43636e-14 3.1162e-14 7.5261e-14 -6.49102e-14 -1.1028e-13 -1.18238e-13 7.84414e-15 -9.99466e-14 -1.52906e-14 -8.20972e-14 8.47505e-14 -1.22171e-13 -2.34359e-14 -1.08832e-13 2.23247e-14 -1.76493e-14 -1.86606e-14 -6.42649e-14 2.15425e-14 8.59674e-14 -1.04858e-13 -4.4372e-14 3.01301e-14 -8.93339e-14 7.43343e-14 -1.31238e-13 0 0 -5.76222e-16 -1.2301e-15 2.98599e-15 -2.37164e-15 7.47188e-16 4.27199e-15 5.5544e-15 8.4999e-15 3.98738e-15 -4.32099e-17 2.89443e-15 -2.28724e-15 3.6299e-15 4.0376e-16 1.43205e-14 8.3632e-15 1.9756e-14 -6.16338e-15 1.58011e-14 -7.48847e-15 3.83723e-15 1.74038e-15 9.86749e-16 1.13339e-14 4.40569e-15 7.19556e-15 2.06954e-16 1.77605e-14 -1.99246e-14 7.98596e-16 -1.28011e-14 -1.3503e-14 -2.8052e-15 2.68015e-15 1.86719e-14 1.23968e-14 -1.53772e-14 -2.29716e-14 -1.49821e-14 2.26356e-14 2.51221e-15 1.61499e-14 3.60351e-14 5.16273e-14 -1.70126e-14 2.72927e-15 5.30671e-14 -1.68822e-14 -9.27344e-16 9.4457e-14 5.0781e-14 6.62765e-14 1.26046e-13 7.2489e-13 5.50433e-12 4.19268e-11 2.98243e-10 1.9883e-09 1.23863e-08 7.19068e-08 3.87612e-07 1.93204e-06 8.86194e-06 3.71924e-05 0.000141851 0.000487687 0.00149722 0.0040637 0.00966702 0.0200771 0.0365615 0.0591872 0.0869372 0.118468 0.15273 0.189115 0.227343 0.267317 0.30904 0.352565 0.397986 0.44542 0.495005 0.546892 0.601235 0.658159 0.717694 0.779603 0.842909 0.904453 0.954331 0.966167 0.95262 0.941447 0.933674 0.929629 0.927944 0.927247 0.926922 0.926679 0.9266 0.926528 0.926471 0.926433 0.926421 0.926506 0.926582 0.926525 0.926432 0.926334 0.9262 0.926059 0.92592 0.925805 0.925728 0.925706 0.925774 0.926393 0.926652 0.926561 0.926313 0.926195 0.926027 0.925802 0.925451 0.925028 0.924494 0.92403 0.923791 0.924027 0.926635 0.923625 0.923887 0.921476 0.921147 0.912853 0.917327 0.870778 0.88589 0.791699 0.731825 0.697485 0.567593 0.46192 0.332348 0.215876 0.120912 0.0580119 0.0243506 0.00938907 0.00346877 0.00125648 0.000450485 0.000160358 5.67049e-05 1.99109e-05 6.93705e-06 2.39606e-06 8.19764e-07 2.77581e-07 9.29538e-08 3.07622e-08 1.00546e-08 3.24393e-09 1.03267e-09 3.2422e-10 1.00183e-10 3.08649e-11 9.23547e-12 2.83248e-12 7.6231e-13 5.0403e-14 6.41013e-14 -2.52753e-14 8.21108e-14 6.84314e-14 -1.64312e-14 -1.67242e-13 -2.40101e-13 -2.75055e-14 -3.99856e-14 1.09589e-13 -1.01058e-13 3.97301e-14 -3.42762e-14 -1.01556e-13 2.24944e-13 -2.43423e-13 -3.28906e-15 -5.91312e-14 1.31178e-13 5.60651e-14 8.01778e-15 -2.22776e-13 1.42411e-13 -1.3072e-13 -8.13687e-14 -7.03317e-14 7.57879e-14 0 0 2.69039e-15 1.10558e-15 1.43049e-15 -1.13721e-15 -2.7804e-15 -4.00507e-16 -1.35459e-15 1.03738e-15 5.26802e-15 -1.33113e-15 -8.05895e-17 5.31611e-15 1.41208e-14 -5.11299e-15 9.91866e-15 2.1245e-14 3.31228e-14 -8.94056e-15 8.43352e-15 -6.70761e-15 -3.71417e-15 7.07793e-15 -9.26506e-15 -2.92744e-15 3.76138e-14 -3.16605e-14 -2.90265e-15 -1.22878e-14 1.55213e-14 -1.93529e-14 -7.92055e-15 8.5794e-15 1.15837e-14 -1.11956e-14 1.96453e-14 -2.51773e-15 -1.30041e-14 -1.18242e-14 1.26531e-14 -3.64534e-15 -2.96973e-14 3.87784e-15 6.567e-14 1.13351e-13 -3.71468e-14 -1.82627e-15 5.36195e-14 -4.27351e-14 -1.75346e-14 5.59436e-14 7.69144e-14 7.16694e-14 1.84056e-13 7.45655e-13 5.50343e-12 4.19322e-11 2.98222e-10 1.98819e-09 1.23863e-08 7.19069e-08 3.87611e-07 1.93204e-06 8.86194e-06 3.71924e-05 0.000141851 0.000487687 0.00149722 0.0040637 0.00966702 0.0200771 0.0365615 0.0591872 0.0869372 0.118468 0.15273 0.189115 0.227343 0.267317 0.30904 0.352565 0.397986 0.44542 0.495005 0.546892 0.601235 0.658159 0.717694 0.779603 0.842909 0.904453 0.954331 0.966167 0.95262 0.941447 0.933674 0.929629 0.927944 0.927247 0.926922 0.926679 0.9266 0.926528 0.926471 0.926433 0.926421 0.926506 0.926582 0.926525 0.926432 0.926334 0.9262 0.926059 0.92592 0.925805 0.925728 0.925706 0.925774 0.926393 0.926652 0.926561 0.926313 0.926195 0.926027 0.925802 0.925451 0.925028 0.924494 0.92403 0.923791 0.924027 0.926635 0.923625 0.923887 0.921476 0.921147 0.912853 0.917327 0.870778 0.88589 0.791699 0.731825 0.697485 0.567593 0.46192 0.332348 0.215876 0.120912 0.0580119 0.0243506 0.00938907 0.00346877 0.00125648 0.000450485 0.000160358 5.67049e-05 1.99109e-05 6.93705e-06 2.39606e-06 8.19764e-07 2.77581e-07 9.29538e-08 3.07623e-08 1.00546e-08 3.24397e-09 1.0327e-09 3.24328e-10 1.00287e-10 3.09714e-11 9.17098e-12 2.93394e-12 5.80927e-13 5.35699e-14 -9.6106e-14 5.32936e-14 -1.0318e-13 4.49402e-14 1.5606e-13 -9.37899e-14 -1.90324e-13 -1.20359e-13 -1.558e-13 9.68822e-14 -1.94388e-14 1.38753e-13 1.45821e-13 -1.13554e-13 1.55231e-13 -2.87672e-13 -1.05759e-13 3.31158e-14 2.59015e-13 -1.90541e-13 -1.36853e-13 -3.10621e-14 3.85518e-14 -1.0141e-13 5.02895e-14 -1.52596e-13 1.18043e-13 0 0 7.2956e-15 1.73119e-15 3.45389e-15 1.63406e-15 -6.5251e-15 -4.16708e-16 -1.11746e-14 -4.19383e-15 3.52589e-16 3.38686e-15 8.55548e-15 2.7595e-15 -4.5959e-15 1.05081e-14 4.51801e-15 3.4314e-14 3.45115e-14 -2.64043e-15 -7.89638e-16 -9.8306e-15 -4.05624e-15 3.66377e-15 4.48457e-15 -9.47213e-16 4.12093e-15 -3.19475e-14 -1.06181e-14 -1.76477e-14 2.06961e-14 8.96043e-15 -3.15446e-14 2.64837e-14 2.6819e-14 -1.49822e-14 2.60786e-15 -2.49936e-14 -7.84985e-15 2.52221e-14 4.7953e-14 -6.53003e-14 -2.93323e-14 -3.98384e-14 8.00216e-14 1.42501e-13 8.17596e-15 -1.1231e-14 3.41528e-14 -3.67466e-14 -6.4443e-14 3.73435e-14 9.56973e-14 6.86992e-14 2.39795e-13 7.05116e-13 5.53365e-12 4.1961e-11 2.98192e-10 1.98816e-09 1.23864e-08 7.19068e-08 3.87611e-07 1.93204e-06 8.86194e-06 3.71924e-05 0.000141851 0.000487687 0.00149722 0.0040637 0.00966702 0.0200771 0.0365615 0.0591872 0.0869372 0.118468 0.15273 0.189115 0.227343 0.267317 0.30904 0.352565 0.397986 0.44542 0.495005 0.546892 0.601235 0.658159 0.717694 0.779603 0.842909 0.904453 0.954331 0.966167 0.95262 0.941447 0.933674 0.929629 0.927944 0.927247 0.926922 0.926679 0.9266 0.926528 0.926471 0.926433 0.926421 0.926506 0.926582 0.926525 0.926432 0.926334 0.9262 0.926059 0.92592 0.925805 0.925728 0.925706 0.925774 0.926393 0.926652 0.926561 0.926313 0.926195 0.926027 0.925802 0.925451 0.925028 0.924494 0.92403 0.923791 0.924027 0.926635 0.923625 0.923887 0.921476 0.921147 0.912853 0.917327 0.870778 0.88589 0.791699 0.731825 0.697485 0.567593 0.46192 0.332348 0.215876 0.120912 0.0580119 0.0243506 0.00938907 0.00346877 0.00125648 0.000450485 0.000160358 5.67049e-05 1.99109e-05 6.93705e-06 2.39606e-06 8.19764e-07 2.77581e-07 9.29537e-08 3.07623e-08 1.00547e-08 3.24387e-09 1.03267e-09 3.24313e-10 1.00233e-10 3.10249e-11 9.19015e-12 3.07276e-12 3.23507e-13 1.7262e-13 -1.55319e-13 4.72554e-14 -3.19469e-14 -8.32548e-15 2.21794e-13 9.39952e-14 -2.10583e-13 -2.19072e-13 -2.19059e-13 -3.91787e-15 7.43806e-15 2.87188e-13 2.84136e-13 -8.44514e-14 -6.17422e-14 -2.03897e-13 -1.32026e-13 6.06112e-14 1.80461e-13 -3.65715e-13 -3.32165e-14 -2.60856e-14 -8.41749e-15 3.16289e-14 2.43292e-14 -8.52274e-14 1.32588e-13 0
				</DataArray>
				<DataArray Name="VitesseY" type="Float32" format="ascii">