<?xml version="1.0"?>
<VTKFile type="PolyData">
	<PolyData>
		<Piece NumberOfPoints="1206" NumberOfPolys="1000">
			<Points>
				<DataArray type="Float32" NumberOfComponents="3" format="ascii">
 0 0 0 0.005 0 0 0.01 0 0 0.015 0 0 0.02 0 0 0.025 0 0 0.03 0 0 0.035 0 0 0.04 0 0 0.045 0 0 0.05 0 0 0.055 0 0 0.06 0 0 0.065 0 0 0.07 0 0 0.075 0 0 0.08 0 0 0.085 0 0 0.09 0 0 0.095 0 0 0.1 0 0 0.105 0 0 0.11 0 0 0.115 0 0 0.12 0 0 0.125 0 0 0.13 0 0 0.135 0 0 0.14 0 0 0.145 0 0 0.15 0 0 0.155 0 0 0.16 0 0 0.165 0 0 0.17 0 0 0.175 0 0 0.18 0 0 0.185 0 0 0.19 0 0 0.195 0 0 0.2 0 0 0.205 0 0 0.21 0 0 0.215 0 0 0.22 0 0 0.225 0 0 0.23 0 0 0.235 0 0 0.24 0 0 0.245 0 0 0.25 0 0 0.255 0 0 0.26 0 0 0.265 0 0 0.27 0 0 0.275 0 0 0.28 0 0 0.285 0 0 0.29 0 0 0.295 0 0 0.3 0 0 0.305 0 0 0.31 0 0 0.315 0 0 0.32 0 0 0.325 0 0 0.33 0 0 0.335 0 0 0.34 0 0 0.345 0 0 0.35 0 0 0.355 0 0 0.36 0 0 0.365 0 0 0.37 0 0 0.375 0 0 0.38 0 0 0.385 0 0 0.39 0 0 0.395 0 0 0.4 0 0 0.405 0 0 0.41 0 0 0.415 0 0 0.420001 0 0 0.425005 0 0 0.430024 0 0 0.435087 0 0 0.440258 0 0 0.445633 0 0 0.451319 0 0 0.457424 0 0 0.464055 0 0 0.471343 0 0 0.479453 0 0 0.488605 0 0 0.499062 0 0 0.510955 0 0 0.523436 0 0 0.535528 0 0 0.54741 0 0 0.550031 0 0 0.552578 0 0 0.55508 0 0 0.557553 0 0 0.560006 0 0 0.562446 0 0 0.564879 0 0 0.567313 0 0 0.569749 0 0 0.572177 0 0 0.574591 0 0 0.577014 0 0 0.579471 0 0 0.582014 0 0 0.584634 0 0 0.587439 0 0 0.59045 0 0 0.593713 0 0 0.597326 0 0 0.601302 0 0 0.605638 0 0 0.610269 0 0 0.615099 0 0 0.620033 0 0 0.62501 0 0 0.630003 0 0 0.635001 0 0 0.64 0 0 0.645 0 0 0.65 0 0 0.655 0 0 0.66 0 0 0.665 0 0 0.67 0 0 0.675 0 0 0.68 0 0 0.685 0 0 0.69 0 0 0.695 0 0 0.7 0 0 0.705 0 0 0.71 0 0 0.715 0 0 0.72 0 0 0.725 0 0 0.73 0 0 0.735 0 0 0.74 0 0 0.745 0 0 0.75 0 0 0.755 0 0 0.76 0 0 0.765 0 0 0.77 0 0 0.775 0 0 0.78 0 0 0.785 0 0 0.79 0 0 0.795 0 0 0.8 0 0 0.805 0 0 0.81 0 0 0.815 0 0 0.82 0 0 0.825 0 0 0.83 0 0 0.835 0 0 0.84 0 0 0.845 0 0 0.85 0 0 0.855 0 0 0.86 0 0 0.865 0 0 0.87 0 0 0.875 0 0 0.88 0 0 0.885 0 0 0.89 0 0 0.895 0 0 0.9 0 0 0.905 0 0 0.91 0 0 0.915 0 0 0.92 0 0 0.925 0 0 0.93 0 0 0.935 0 0 0.94 0 0 0.945 0 0 0.95 0 0 0.955 0 0 0.96 0 0 0.965 0 0 0.97 0 0 0.975 0 0 0.98 0 0 0.985 0 0 0.99 0 0 0.995 0 0 1 0 0 0 0.02 0 0.005 0.02 0 0.01 0.02 0 0.015 0.02 0 0.02 0.02 0 0.025 0.02 0 0.03 0.02 0 0.035 0.02 0 0.04 0.02 0 0.045 0.02 0 0.05 0.02 0 0.055 0.02 0 0.06 0.02 0 0.065 0.02 0 0.07 0.02 0 0.075 0.02 0 0.08 0.02 0 0.085 0.02 0 0.09 0.02 0 0.095 0.02 0 0.1 0.02 0 0.105 0.02 0 0.11 0.02 0 0.115 0.02 0 0.12 0.02 0 0.125 0.02 0 0.13 0.02 0 0.135 0.02 0 0.14 0.02 0 0.145 0.02 0 0.15 0.02 0 0.155 0.02 0 0.16 0.02 0 0.165 0.02 0 0.17 0.02 0 0.175 0.02 0 0.18 0.02 0 0.185 0.02 0 0.19 0.02 0 0.195 0.02 0 0.2 0.02 0 0.205 0.02 0 0.21 0.02 0 0.215 0.02 0 0.22 0.02 0 0.225 0.02 0 0.23 0.02 0 0.235 0.02 0 0.24 0.02 0 0.245 0.02 0 0.25 0.02 0 0.255 0.02 0 0.26 0.02 0 0.265 0.02 0 0.27 0.02 0 0.275 0.02 0 0.28 0.02 0 0.285 0.02 0 0.29 0.02 0 0.295 0.02 0 0.3 0.02 0 0.305 0.02 0 0.31 0.02 0 0.315 0.02 0 0.32 0.02 0 0.325 0.02 0 0.33 0.02 0 0.335 0.02 0 0.34 0.02 0 0.345 0.02 0 0.35 0.02 0 0.355 0.02 0 0.36 0.02 0 0.365 0.02 0 0.37 0.02 0 0.375 0.02 0 0.38 0.02 0 0.385 0.02 0 0.39 0.02 0 0.395 0.02 0 0.4 0.02 0 0.405 0.02 0 0.41 0.02 0 0.415 0.02 0 0.420001 0.02 0 0.425005 0.02 0 0.430024 0.02 0 0.435087 0.02 0 0.440258 0.02 0 0.445633 0.02 0 0.451319 0.02 0 0.457424 0.02 0 0.464055 0.02 0 0.471343 0.02 0 0.479453 0.02 0 0.488605 0.02 0 0.499062 0.02 0 0.510955 0.02 0 0.523436 0.02 0 0.535528 0.02 0 0.54741 0.02 0 0.550031 0.02 0 0.552578 0.02 0 0.55508 0.02 0 0.557553 0.02 0 0.560006 0.02 0 0.562446 0.02 0 0.564879 0.02 0 0.567313 0.02 0 0.569749 0.02 0 0.572177 0.02 0 0.574591 0.02 0 0.577014 0.02 0 0.579471 0.02 0 0.582014 0.02 0 0.584634 0.02 0 0.587439 0.02 0 0.59045 0.02 0 0.593713 0.02 0 0.597326 0.02 0 0.601302 0.02 0 0.605638 0.02 0 0.610269 0.02 0 0.615099 0.02 0 0.620033 0.02 0 0.62501 0.02 0 0.630003 0.02 0 0.635001 0.02 0 0.64 0.02 0 0.645 0.02 0 0.65 0.02 0 0.655 0.02 0 0.66 0.02 0 0.665 0.02 0 0.67 0.02 0 0.675 0.02 0 0.68 0.02 0 0.685 0.02 0 0.69 0.02 0 0.695 0.02 0 0.7 0.02 0 0.705 0.02 0 0.71 0.02 0 0.715 0.02 0 0.72 0.02 0 0.725 0.02 0 0.73 0.02 0 0.735 0.02 0 0.74 0.02 0 0.745 0.02 0 0.75 0.02 0 0.755 0.02 0 0.76 0.02 0 0.765 0.02 0 0.77 0.02 0 0.775 0.02 0 0.78 0.02 0 0.785 0.02 0 0.79 0.02 0 0.795 0.02 0 0.8 0.02 0 0.805 0.02 0 0.81 0.02 0 0.815 0.02 0 0.82 0.02 0 0.825 0.02 0 0.83 0.02 0 0.835 0.02 0 0.84 0.02 0 0.845 0.02 0 0.85 0.02 0 0.855 0.02 0 0.86 0.02 0 0.865 0.02 0 0.87 0.02 0 0.875 0.02 0 0.88 0.02 0 0.885 0.02 0 0.89 0.02 0 0.895 0.02 0 0.9 0.02 0 0.905 0.02 0 0.91 0.02 0 0.915 0.02 0 0.92 0.02 0 0.925 0.02 0 0.93 0.02 0 0.935 0.02 0 0.94 0.02 0 0.945 0.02 0 0.95 0.02 0 0.955 0.02 0 0.96 0.02 0 0.965 0.02 0 0.97 0.02 0 0.975 0.02 0 0.98 0.02 0 0.985 0.02 0 0.99 0.02 0 0.995 0.02 0 1 0.02 0 0 0.04 0 0.005 0.04 0 0.01 0.04 0 0.015 0.04 0 0.02 0.04 0 0.025 0.04 0 0.03 0.04 0 0.035 0.04 0 0.04 0.04 0 0.045 0.04 0 0.05 0.04 0 0.055 0.04 0 0.06 0.04 0 0.065 0.04 0 0.07 0.04 0 0.075 0.04 0 0.08 0.04 0 0.085 0.04 0 0.09 0.04 0 0.095 0.04 0 0.1 0.04 0 0.105 0.04 0 0.11 0.04 0 0.115 0.04 0 0.12 0.04 0 0.125 0.04 0 0.13 0.04 0 0.135 0.04 0 0.14 0.04 0 0.145 0.04 0 0.15 0.04 0 0.155 0.04 0 0.16 0.04 0 0.165 0.04 0 0.17 0.04 0 0.175 0.04 0 0.18 0.04 0 0.185 0.04 0 0.19 0.04 0 0.195 0.04 0 0.2 0.04 0 0.205 0.04 0 0.21 0.04 0 0.215 0.04 0 0.22 0.04 0 0.225 0.04 0 0.23 0.04 0 0.235 0.04 0 0.24 0.04 0 0.245 0.04 0 0.25 0.04 0 0.255 0.04 0 0.26 0.04 0 0.265 0.04 0 0.27 0.04 0 0.275 0.04 0 0.28 0.04 0 0.285 0.04 0 0.29 0.04 0 0.295 0.04 0 0.3 0.04 0 0.305 0.04 0 0.31 0.04 0 0.315 0.04 0 0.32 0.04 0 0.325 0.04 0 0.33 0.04 0 0.335 0.04 0 0.34 0.04 0 0.345 0.04 0 0.35 0.04 0 0.355 0.04 0 0.36 0.04 0 0.365 0.04 0 0.37 0.04 0 0.375 0.04 0 0.38 0.04 0 0.385 0.04 0 0.39 0.04 0 0.395 0.04 0 0.4 0.04 0 0.405 0.04 0 0.41 0.04 0 0.415 0.04 0 0.420001 0.04 0 0.425005 0.04 0 0.430024 0.04 0 0.435087 0.04 0 0.440258 0.04 0 0.445633 0.04 0 0.451319 0.04 0 0.457424 0.04 0 0.464055 0.04 0 0.471343 0.04 0 0.479453 0.04 0 0.488605 0.04 0 0.499062 0.04 0 0.510955 0.04 0 0.523436 0.04 0 0.535528 0.04 0 0.54741 0.04 0 0.550031 0.04 0 0.552578 0.04 0 0.55508 0.04 0 0.557553 0.04 0 0.560006 0.04 0 0.562446 0.04 0 0.564879 0.04 0 0.567313 0.04 0 0.569749 0.04 0 0.572177 0.04 0 0.574591 0.04 0 0.577014 0.04 0 0.579471 0.04 0 0.582014 0.04 0 0.584634 0.04 0 0.587439 0.04 0 0.59045 0.04 0 0.593713 0.04 0 0.597326 0.04 0 0.601302 0.04 0 0.605638 0.04 0 0.610269 0.04 0 0.615099 0.04 0 0.620033 0.04 0 0.62501 0.04 0 0.630003 0.04 0 0.635001 0.04 0 0.64 0.04 0 0.645 0.04 0 0.65 0.04 0 0.655 0.04 0 0.66 0.04 0 0.665 0.04 0 0.67 0.04 0 0.675 0.04 0 0.68 0.04 0 0.685 0.04 0 0.69 0.04 0 0.695 0.04 0 0.7 0.04 0 0.705 0.04 0 0.71 0.04 0 0.715 0.04 0 0.72 0.04 0 0.725 0.04 0 0.73 0.04 0 0.735 0.04 0 0.74 0.04 0 0.745 0.04 0 0.75 0.04 0 0.755 0.04 0 0.76 0.04 0 0.765 0.04 0 0.77 0.04 0 0.775 0.04 0 0.78 0.04 0 0.785 0.04 0 0.79 0.04 0 0.795 0.04 0 0.8 0.04 0 0.805 0.04 0 0.81 0.04 0 0.815 0.04 0 0.82 0.04 0 0.825 0.04 0 0.83 0.04 0 0.835 0.04 0 0.84 0.04 0 0.845 0.04 0 0.85 0.04 0 0.855 0.04 0 0.86 0.04 0 0.865 0.04 0 0.87 0.04 0 0.875 0.04 0 0.88 0.04 0 0.885 0.04 0 0.89 0.04 0 0.895 0.04 0 0.9 0.04 0 0.905 0.04 0 0.91 0.04 0 0.915 0.04 0 0.92 0.04 0 0.925 0.04 0 0.93 0.04 0 0.935 0.04 0 0.94 0.04 0 0.945 0.04 0 0.95 0.04 0 0.955 0.04 0 0.96 0.04 0 0.965 0.04 0 0.97 0.04 0 0.975 0.04 0 0.98 0.04 0 0.985 0.04 0 0.99 0.04 0 0.995 0.04 0 1 0.04 0 0 0.06 0 0.005 0.06 0 0.01 0.06 0 0.015 0.06 0 0.02 0.06 0 0.025 0.06 0 0.03 0.06 0 0.035 0.06 0 0.04 0.06 0 0.045 0.06 0 0.05 0.06 0 0.055 0.06 0 0.06 0.06 0 0.065 0.06 0 0.07 0.06 0 0.075 0.06 0 0.08 0.06 0 0.085 0.06 0 0.09 0.06 0 0.095 0.06 0 0.1 0.06 0 0.105 0.06 0 0.11 0.06 0 0.115 0.06 0 0.12 0.06 0 0.125 0.06 0 0.13 0.06 0 0.135 0.06 0 0.14 0.06 0 0.145 0.06 0 0.15 0.06 0 0.155 0.06 0 0.16 0.06 0 0.165 0.06 0 0.17 0.06 0 0.175 0.06 0 0.18 0.06 0 0.185 0.06 0 0.19 0.06 0 0.195 0.06 0 0.2 0.06 0 0.205 0.06 0 0.21 0.06 0 0.215 0.06 0 0.22 0.06 0 0.225 0.06 0 0.23 0.06 0 0.235 0.06 0 0.24 0.06 0 0.245 0.06 0 0.25 0.06 0 0.255 0.06 0 0.26 0.06 0 0.265 0.06 0 0.27 0.06 0 0.275 0.06 0 0.28 0.06 0 0.285 0.06 0 0.29 0.06 0 0.295 0.06 0 0.3 0.06 0 0.305 0.06 0 0.31 0.06 0 0.315 0.06 0 0.32 0.06 0 0.325 0.06 0 0.33 0.06 0 0.335 0.06 0 0.34 0.06 0 0.345 0.06 0 0.35 0.06 0 0.355 0.06 0 0.36 0.06 0 0.365 0.06 0 0.37 0.06 0 0.375 0.06 0 0.38 0.06 0 0.385 0.06 0 0.39 0.06 0 0.395 0.06 0 0.4 0.06 0 0.405 0.06 0 0.41 0.06 0 0.415 0.06 0 0.420001 0.06 0 0.425005 0.06 0 0.430024 0.06 0 0.435087 0.06 0 0.440258 0.06 0 0.445633 0.06 0 0.451319 0.06 0 0.457424 0.06 0 0.464055 0.06 0 0.471343 0.06 0 0.479453 0.06 0 0.488605 0.06 0 0.499062 0.06 0 0.510955 0.06 0 0.523436 0.06 0 0.535528 0.06 0 0.54741 0.06 0 0.550031 0.06 0 0.552578 0.06 0 0.55508 0.06 0 0.557553 0.06 0 0.560006 0.06 0 0.562446 0.06 0 0.564879 0.06 0 0.567313 0.06 0 0.569749 0.06 0 0.572177 0.06 0 0.574591 0.06 0 0.577014 0.06 0 0.579471 0.06 0 0.582014 0.06 0 0.584634 0.06 0 0.587439 0.06 0 0.59045 0.06 0 0.593713 0.06 0 0.597326 0.06 0 0.601302 0.06 0 0.605638 0.06 0 0.610269 0.06 0 0.615099 0.06 0 0.620033 0.06 0 0.62501 0.06 0 0.630003 0.06 0 0.635001 0.06 0 0.64 0.06 0 0.645 0.06 0 0.65 0.06 0 0.655 0.06 0 0.66 0.06 0 0.665 0.06 0 0.67 0.06 0 0.675 0.06 0 0.68 0.06 0 0.685 0.06 0 0.69 0.06 0 0.695 0.06 0 0.7 0.06 0 0.705 0.06 0 0.71 0.06 0 0.715 0.06 0 0.72 0.06 0 0.725 0.06 0 0.73 0.06 0 0.735 0.06 0 0.74 0.06 0 0.745 0.06 0 0.75 0.06 0 0.755 0.06 0 0.76 0.06 0 0.765 0.06 0 0.77 0.06 0 0.775 0.06 0 0.78 0.06 0 0.785 0.06 0 0.79 0.06 0 0.795 0.06 0 0.8 0.06 0 0.805 0.06 0 0.81 0.06 0 0.815 0.06 0 0.82 0.06 0 0.825 0.06 0 0.83 0.06 0 0.835 0.06 0 0.84 0.06 0 0.845 0.06 0 0.85 0.06 0 0.855 0.06 0 0.86 0.06 0 0.865 0.06 0 0.87 0.06 0 0.875 0.06 0 0.88 0.06 0 0.885 0.06 0 0.89 0.06 0 0.895 0.06 0 0.9 0.06 0 0.905 0.06 0 0.91 0.06 0 0.915 0.06 0 0.92 0.06 0 0.925 0.0
[...]
			<PointData Scalars="VitesseX">
				<DataArray Name="VitesseX" type="Float32" format="ascii">
 0 1.06235e-15 1.91506e-15 -1.07846e-16 2.10034e-15 -2.70315e-15 -3.08234e-15 1.38939e-15 -5.68704e-15 5.81443e-16 -4.5226e-15 9.16431e-15 9.68382e-16 -2.42958e-16 8.68021e-15 -1.7032e-15 -1.18712e-14 2.71912e-15 3.71242e-16 -7.9629e-15 1.32378e-14 2.49491e-15 -3.27361e-15 -7.54198e-15 1.06266e-14 3.55976e-15 -2.03933e-14 1.78231e-14 1.66547e-15 1.63408e-14 -1.47108e-14 5.81457e-15 2.11026e-15 -2.95775e-15 1.86292e-14 -2.42807e-14 -7.17576e-15 -9.39145e-16 2.34298e-15 -1.37694e-14 5.3452e-15 -1.49433e-14 2.9883e-14 -2.19672e-14 2.05878e-14 -2.93e-15 -6.8387e-15 1.26904e-14 9.33188e-15 -1.26613e-14 1.90979e-14 2.90169e-14 -4.81234e-14 4.29901e-14 -2.75751e-14 1.61545e-14 2.32039e-14 -3.91886e-14 4.25049e-14 -4.22313e-14 1.78757e-14 -2.82764e-14 3.9326e-14 -2.2288e-14 2.72591e-14 1.84312e-14 7.79666e-15 1.99963e-14 3.18795e-14 -4.65383e-14 3.13958e-14 2.21064e-14 4.10476e-14 -3.59978e-14 3.19228e-14 3.93559e-13 6.46163e-12 9.27727e-11 1.20419e-09 1.39784e-08 1.44158e-07 1.30958e-06 1.03714e-05 7.06955e-05 0.000408111 0.00195507 0.00759033 0.0233844 0.0568548 0.11151 0.1847 0.271949 0.370805 0.480978 0.603137 0.737129 0.876163 0.980726 0.960657 0.938533 0.927769 0.927158 0.926712 0.926277 0.925819 0.925269 0.92483 0.924466 0.922418 0.921912 0.914367 0.916858 0.904521 0.873491 0.888251 0.788843 0.722344 0.683106 0.541189 0.426076 0.289588 0.172891 0.0857662 0.0353514 0.0125751 0.00408176 0.00125256 0.000368881 0.000104779 2.87435e-05 7.61666e-06 1.94932e-06 4.81734e-07 1.14936e-07 2.64717e-08 5.88516e-09 1.26307e-09 2.61617e-10 5.23391e-11 1.01363e-11 1.88441e-12 3.36515e-13 1.41574e-13 -7.89873e-14 -4.18441e-16 6.04595e-14 -2.84921e-14 7.34952e-14 -9.42117e-14 7.39538e-14 5.05632e-14 2.12471e-14 -2.60993e-14 9.28342e-14 2.89046e-14 2.70966e-14 -8.9476e-14 -1.77406e-14 4.36151e-14 8.5216e-15 2.04486e-14 1.89028e-14 -4.09919e-14 1.17919e-13 -1.11346e-13 -9.33033e-15 -6.79118e-14 7.61976e-14 -1.1354e-13 -9.4372e-14 3.54875e-14 1.02999e-13 -4.68087e-14 -1.04478e-13 1.60765e-13 -1.3383e-13 1.07267e-13 -1.1445e-13 7.16665e-15 1.36147e-13 -4.57287e-14 -6.20519e-14 1.14227e-13 -7.66425e-14 -7.06226e-14 4.65647e-14 -6.14857e-14 7.36034e-14 -9.02891e-14 -1.62687e-14 -8.11368e-14 -5.74718e-14 5.13581e-14 -9.1272e-14 5.01072e-15 3.22822e-14 -9.88538e-14 7.91682e-14 -7.23823e-14 7.21898e-14 0 0 -3.82288e-16 -1.6705e-15 -4.77218e-18 -2.39428e-16 -1.26833e-15 2.52822e-15 -3.7963e-15 4.56374e-15 -2.71107e-15 -9.71295e-16 -5.06991e-15 5.59158e-15 5.639e-15 6.33642e-15 -1.02425e-14 3.46295e-15 -9.50411e-15 8.51779e-15 -7.5576e-15 -2.04104e-15 1.11463e-14 7.75118e-15 -7.67427e-15 -9.11327e-15 3.7157e-15 1.27307e-14 -3.74419e-15 2.24376e-14 -7.84165e-15 -1.98639e-14 1.39706e-14 2.26386e-14 -1.88823e-14 -3.53616e-15 -1.31189e-15 -5.27752e-15 9.93106e-16 -1.21847e-14 -6.0201e-15 4.44766e-15 -4.72115e-15 -7.51948e-16 1.7005e-14 -1.12777e-14 1.51782e-15 1.38053e-14 3.71645e-15 3.42312e-15 -8.27193e-15 5.98595e-17 4.62463e-14 -3.75118e-14 3.58381e-14 -7.85892e-15 -9.63667e-15 4.63299e-14 -2.75049e-14 -1.36014e-14 1.35186e-14 -1.77999e-15 -5.20278e-15 -1.16781e-14 -2.04939e-15 3.14688e-14 2.33953e-14 3.04958e-14 -2.189e-14 3.66282e-14 -2.19364e-14 4.04277e-14 -1.5288e-14 -5.32749e-15 3.43601e-14 5.3679e-14 3.68269e-13 6.39854e-12 9.28109e-11 1.20421e-09 1.39783e-08 1.44158e-07 1.30958e-06 1.03714e-05 7.06955e-05 0.000408111 0.00195507 0.00759033 0.0233844 0.0568548 0.11151 0.1847 0.271949 0.370805 0.480978 0.603137 0.737129 0.876163 0.980726 0.960657 0.938533 0.927769 0.927158 0.926712 0.926277 0.925819 0.925269 0.92483 0.924466 0.922418 0.921912 0.914367 0.916858 0.904521 0.873491 0.888251 0.788843 0.722344 0.683106 0.541189 0.426076 0.289588 0.172891 0.0857662 0.0353514 0.0125751 0.00408176 0.00125256 0.000368881 0.000104779 2.87435e-05 7.61666e-06 1.94932e-06 4.81734e-07 1.14936e-07 2.64717e-08 5.88518e-09 1.26301e-09 2.61666e-10 5.23504e-11 1.01057e-11 1.8872e-12 4.05183e-13 4.43653e-14 -1.53911e-14 8.14395e-14 -3.26088e-14 -8.18258e-15 3.65401e-14 -3.8169e-14 7.52106e-15 5.97864e-14 -6.57079e-14 6.81804e-14 7.91047e-14 6.55434e-14 -2.20268e-14 -5.49811e-14 -5.22955e-14 -1.28994e-14 1.07379e-13 5.80735e-14 -3.44769e-14 3.65772e-15 3.37629e-14 -7.15253e-14 -7.82306e-14 3.44957e-14 -7.47598e-14 -1.21746e-13 7.54836e-14 3.09249e-14 1.24917e-14 -2.43947e-15 1.12155e-14 -3.88785e-14 -1.97916e-14 4.98788e-14 -7.66633e-14 2.50252e-14 1.01391e-13 -4.23333e-14 3.73522e-14 -7.92223e-14 5.37387e-14 1.41117e-14 -5.04233e-14 8.29284e-14 -1.16901e-13 -2.9604e-14 -1.55887e-14 -7.61763e-14 5.86027e-15 -7.99153e-14 1.51768e-14 -1.17011e-13 5.56155e-14 -8.01068e-15 -8.6483e-14 3.11953e-14 2.18762e-14 0 0 -1.63666e-15 -2.81113e-15 4.6547e-17 2.99825e-16 -1.95807e-15 8.04889e-16 3.45648e-15 -2.79714e-15 2.53746e-16 1.05757e-15 1.82082e-15 2.14942e-15 1.16578e-15 7.24392e-15 -2.72214e-15 3.1245e-15 -1.28259e-14 1.33569e-14 -1.12042e-14 4.87959e-15 9.2871e-15 -6.57173e-15 -7.66863e-15 -1.02098e-14 -6.64362e-17 1.88433e-14 2.18914e-14 1.73728e-14 -2.168e-14 -1.84132e-15 -1.10764e-14 1.72508e-14 8.38241e-15 -2.15051e-14 -3.09203e-16 3.78559e-15 5.49404e-15 -1.63968e-14 -9.27488e-15 -1.29518e-15 3.21583e-14 -3.32867e-14 4.04017e-14 -3.68887e-14 2.62127e-14 -3.89623e-15 -2.80081e-15 -1.38896e-14 2.87589e-14 -2.39314e-15 4.29236e-14 2.95211e-14 -3.70728e-14 -5.76461e-14 5.3872e-14 1.42613e-14 8.28437e-15 -1.40685e-14 1.9767e-14 -5.3074e-14 3.09449e-14 -1.73934e-14 4.45804e-14 -2.23205e-14 3.62005e-14 5.26779e-14 -7.67135e-14 5.45388e-14 3.51619e-14 -2.6494e-14 2.48708e-14 -3.16797e-14 4.29079e-14 4.97896e-14 4.61733e-13 6.29068e-12 9.28511e-11 1.20417e-09 1.39784e-08 1.44158e-07 1.30958e-06 1.03714e-05 7.06955e-05 0.000408111 0.00195507 0.00759033 0.0233844 0.0568548 0.11151 0.1847 0.271949 0.370805 0.480978 0.603137 0.737129 0.876163 0.980726 0.960657 0.938533 0.927769 0.927158 0.926712 0.926277 0.925819 0.925269 0.92483 0.924466 0.922418 0.921912 0.914367 0.916858 0.904521 0.873491 0.888251 0.788843 0.722344 0.683106 0.541189 0.426076 0.289588 0.172891 0.0857662 0.0353514 0.0125751 0.00408176 0.00125256 0.000368881 0.000104779 2.87435e-05 7.61666e-06 1.94932e-06 4.81734e-07 1.14936e-07 2.64716e-08 5.88526e-09 1.263e-09 2.61677e-10 5.23725e-11 1.01095e-11 1.9875e-12 2.94532e-13 2.03012e-14 3.97946e-14 1.64966e-14 -2.03722e-14 -2.23839e-14 1.46684e-13 -1.15051e-13 9.61289e-14 -1.34736e-14 -2.5422e-14 1.0182e-13 -4.60424e-14 2.02943e-14 -4.32246e-14 -3.24235e-14 -1.19816e-14 -1.43222e-14 1.15106e-13 1.0765e-13 -3.96937e-14 4.18471e-14 -1.93891e-14 -1.83664e-13 3.55903e-14 2.93003e-14 -2.63433e-14 -1.1022e-13 7.16315e-14 3.00371e-14 6.27423e-14 -1.92338e-14 -2.71232e-14 -9.01816e-14 -6.29749e-14 1.31226e-13 -7.77306e-14 4.56912e-14 1.00286e-13 -6.83112e-14 1.69504e-14 -6.59815e-14 6.5298e-14 -4.05298e-14 -6.94882e-14 7.8532e-14 -7.66535e-14 5.77031e-14 -1.3801e-13 -1.07656e-13 9.33656e-14 -5.50559e-14 -9.99787e-14 -3.38448e-14 4.87418e-14 -7.27901e-14 -7.36984e-14 8.95969e-14 -1.10051e-13 0 0 3.00058e-16 -3.83943e-16 -1.70908e-15 -1.56963e-15 3.01755e-15 -4.50706e-15 4.3214e-15 -5.66367e-15 2.07526e-17 3.8214e-15 2.91573e-16 2.99176e-15 -5.92928e-15 4.53229e-15 6.39416e-15 -3.39682e-15 1.23201e-15 1.97107e-15 5.79858e-15 1.18029e-14 -1.33607e-14 -1.33414e-15 -1.97892e-14 5.25101e-15 -9.76415e-15 1.75349e-14 3.51544e-14 -1.24156e-14 5.86755e-15 -1.17775e-15 -1.43004e-14 -4.54593e-15 1.81297e-14 3.15245e-15 -1.50115e-14 1.30394e-14 1.02684e-14 5.17878e-15 -1.52634e-14 3.1879e-14 -1.58481e-14 -5.3855e-15 4.48517e-14 9.69791e-16 2.57166e-14 -4.79744e-14 1.72944e-14 -3.70932e-14 1.91659e-14 3.49634e-15 2.70686e-14 1.93214e-14 -4.53717e-14 -3.6053e-14 5.35891e-14 -5.38747e-14 5.41574e-14 2.06662e-14 -3.14642e-14 -4.54558e-14 7.8488e-14 -3.72438e-15 3.03562e-14 -5.40582e-14 1.62173e-14 1.25329e-14 4.15157e-14 8.28328e-15 6.02605e-15 -1.2832e-14 5.96352e-14 1.19571e-14 3.83715e-14 6.21588e-14 4.20263e-13 6.35384e-12 9.28317e-11 1.20411e-09 1.39784e-08 1.44158e-07 1.30958e-06 1.03714e-05 7.06955e-05 0.000408111 0.00195507 0.00759033 0.0233844 0.0568548 0.11151 0.1847 0.271949 0.370805 0.480978 0.603137 0.737129 0.876163 0.980726 0.960657 0.938533 0.927769 0.927158 0.926712 0.926277 0.925819 0.925269 0.92483 0.924466 0.922418 0.921912 0.914367 0.916858 0.904521 0.873491 0.888251 0.788843 0.722344 0.683106 0.541189 0.426076 0.289588 0.172891 0.0857662 0.0353514 0.0125751 0.00408176 0.00125256 0.000368881 0.000104779 2.87435e-05 7.61666e-06 1.94932e-06 4.81734e-07 1.14936e-07 2.64717e-08 5.88521e-09 1.26312e-09 2.61637e-10 5.2353e-11 1.01916e-11 1.92805e-12 1.77898e-13 1.07877e-13 1.26508e-13 -1.25786e-13 6.55478e-14 -9.93817e-14 1.27565e-13 1.20889e-14 5.54568e-14 4.27243e-14 7.77859e-14 -3.61907e-14 -1.53586e-13 4.02306e-14 -7.94357e-15 1.99024e-13 -2.09671e-14 -1.35054e-13 3.48716e-14 6.83812e-14 3.46957e-14 6.45918e-14 -6.57205e-14 1.03232e-13 -1.26316e-13 1.63942e-14 7.79802e-14 5.20767e-14 -8.16953e-14 -1.33059e-13 1.02287e-13 -9.73195e-14 -6.19412e-14 8.03598e-14 -6.87629e-14 1.75019e-14 6.85071e-14 -1.10353e-14 -3.80043e-14 -5.01034e-16 -1.50838e-13 -8.73686e-14 1.07735e-13 -2.16837e-13 9.68716e-14 1.13397e-14 1.32876e-13 -1.94157e-13 2.5228e-14 -7.31731e-15 6.0565e-15 9.63713e-14 -2.71214e-13 2.54071e-14 3.45619e-14 -7.51313e-14 1.51146e-15 -1.48887e-14 -2.72714e-14 0 0 2.30377e-15 8.46559e-17 -1.52526e-15 -2.63244e-15 4.59112e-15 5.44466e-16 -4.88079e-15 1.88867e-15 -1.42813e-15 1.17146e-15 -3.51219e-15 8.22213e-15 9.65975e-15 -8.27994e-15 -6.0318e-15 3.9538e-15 7.90541e-15 9.84956e-15 -1.79215e-14 6.05378e-17 -6.40496e-15 3.8367e-15 3.2297e-15 -1.23798e-14 1.18879e-15 2.06784e-14 8.43273e-15 2.61343e-15 4.13408e-15 -1.67727e-14 -2.25137e-15 -2.14269e-15 2.86088e-15 2.52398e-14 -4.66068e-15 4.36194e-15 3.85362e-14 -8.94173e-15 6.28833e-15 2.27607e-14 -2.38023e-14 4.4836e-15 -3.32023e-15 5.73017e-14 -4.74314e-14 -3.92254e-14 3.75559e-14 -3.81197e-15 1.92435e-15 -1.79267e-14 3.44066e-14 -3.68511e-14 1.10561e-14 7.83382e-14 -6.1265e-14 -3.76902e-14 2.26134e-14 2.09425e-14 -1.72941e-14 -2.15453e-14 4.64715e-14 -1.77957e-14 2.00026e-14 -1.28788e-14 5.63595e-14 4.05108e-14 3.12429e-14 -6.80009e-14 1.44971e-14 5.81614e-14 4.53933e-14 2.75934e-14 5.85445e-14 9.10035e-14 2.7531e-13 6.36928e-12 9.28349e-11 1.20423e-09 1.39782e-08 1.44158e-07 1.30958e-06 1.03714e-05 7.06955e-05 0.000408111 0.00195507 0.00759033 0.0233844 0.0568548 0.11151 0.1847 0.271949 0.370805 0.480978 0.603137 0.737129 0.876163 0.980726 0.960657 0.938533 0.927769 0.927158 0.926712 0.926277 0.925819 0.925269 0.92483 0.924466 0.922418 0.921912 0.914367 0.916858 0.904521 0.873491 0.888251 0.788843 0.722344 0.683106 0.541189 0.426076 0.289588 0.172891 0.0857662 0.0353514 0.0125751 0.00408176 0.00125256 0.000368881 0.000104779 2.87435e-05 7.61666e-06 1.94932e-06 4.81734e-07 1.14936e-07 2.64718e-08 5.88513e-09 1.26308e-09 2.61667e-10 5.23898e-11 1.01011e-11 1.88521e-12 2.15293e-13 1.0541e-13 2.7954e-13 -1.04851e-13 -4.0124e-15 -1.89997e-13 -1.07572e-14 2.45013e-13 2.92059e-14 6.04597e-14 1.69076e-14 -9.44995e-15 -8.73399e-14 1.20052e-13 -6.10836e-14 3.3081e-13 -2.38131e-13 -1.49717e-13 -5.41816e-14 -6.28731e-14 1.51004e-13 1.28532e-13 9.80943e-16 2.87273e-13 -4.78779e-14 -1.81218e-13 -3.06485e-14 4.54656e-15 4.6351e-14 -3.27796e-14 3.42508e-14 -9.66881e-15 -3.04378e-15 -2.56915e-13 2.15958e-13 -1.33238e-13 2.81511e-14 2.79026e-14 -7.81169e-14 -8.29526e-14 -5.65213e-14 -2.52625e-13 3.52175e-13 -1.65053e-13 7.80303e-14 -1.00559e-14 1.04024e-13 -1.95449e-13 1.29305e-13 7.19766e-14 -3.7752e-14 -8.30391e-15 -2.10899e-13 -7.77548e-14 1.57341e-14 -8.0895e-14 -7.97352e-14 7.28632e-14 -6.05098e-14 0 0 2.56104e-15 5.70993e-16 3.62437e-16 1.05323e-15 -9.35503e-16 3.57406e-15 -2.50943e-15 -5.30412e-15 3.6133e-15 -5.76475e-15 1.53383e-14 4.54479e-15 2.19887e-14 -1.51293e-14 -1.15144e-14 2.15309e-15 9.42235e-15 2.58064e-14 -6.26964e-14 3.59426e-15 1.26879e-14 -2.15777e-14 3.8507e-14 -2.68281e-14 1.79014e-14 -1.88136e-15 1.56511e-14 2.15938e-14 -1.48028e-14 -9.85555e-15 -2.01815e-14 -3.85878e-15 2.10341e-14 2.68659e-14 -1.57366e-15 -6.40438e-15 6.45983e-14 -3.43222e-14 2.28246e-14 -2.43769e-14 4.29071e-14 -1.54482e-14 -7.15176e-14 8.20296e-14 -9.98363e-14 -2.47437e-14 4.01787e-14 4.12688e-14 2.69171e-14 -2.86542e-14 3.70473e-14 -2.64027e-14 1.00239e-14 1.01633e-13 -8.65362e-14 -8.56442e-15 -3.06982e-14 4.21232e-14 -1.39419e-15 -3.68914e-14 -2.00141e-14 -2.47187e-16 5.02645e-14 2.03931e-15 1.24326e-13 1.08117e-13 -1.10196e-13 -8.48676e-14 8.46002e-14 3.95395e-14 7.39403e-14 1.96158e-14 2.14438e-14 8.18331e-14 2.9058e-13 6.27678e-12 9.28597e-11 1.20435e-09 1.39781e-08 1.44159e-07 1.30958e-06 1.03714e-05 7.06955e-05 0.000408111 0.00195507 0.00759033 0.0233844 0.0568548 0.11151 0.1847 0.271949 0.370805 0.480978 0.603137 0.737129 0.876163 0.980726 0.960657 0.938533 0.927769 0.927158 0.926712 0.926277 0.925819 0.925269 0.92483 0.924466 0.922418 0.921912 0.914367 0.916858 0.904521 0.873491 0.888251 0.788843 0.722344 0.683106 0.541189 0.426076 0.289588 0.172891 0.0857662 0.0353514 0.0125751 0.00408176 0.00125256 0.000368881 0.000104779 2.87435e-05 7.61666e-06 1.94932e-06 4.81734e-07 1.14936e-07 2.64718e-08 5.88515e-09 1.26297e-09 2.61701e-10 5.24569e-11 9.96311e-12 1.99963e-12 1.90262e-13 8.89153e-14 3.37773e-13 -8.85738e-14 -5.44989e-14 -2.38148e-13 1.73101e-14 2.17849e-13 1.98662e-13 -6.04532e-14 -2.01445e-14 9.45201e-14 -2.50241e-14 9.7877e-14 -1.21923e-13 2.18673e-13 -3.717e-13 1.16378e-14 -1.53809e-13 -1.42905e-13 2.41097e-13 1.63651e-13 1.45168e-13 3.23019e-14 3.75449e-13 -4.72942e-13 -4.39605e-14 -1.85272e-13 1.53974e-13 2.33856e-13 6.71724e-14 9.48183e-14 -6.34922e-14 -6.16101e-13 3.50017e-13 -3.09083e-14 -1.97054e-13 1.26503e-13 5.39332e-14 -2.62575e-13 8.57298e-14 -1.89995e-13 4.35197e-13 -7.59987e-14 -2.91417e-14 -1.13086e-13 9.65654e-14 8.15309e-14 -5.35379e-14 1.39025e-14 2.99702e-14 -1.08208e-13 -2.01068e-13 -3.50223e-14 -1.93558e-14 -2.39942e-13 -5.73873e-14 2.19697e-13 -2.58934e-13 0
				</DataArray>
				<DataArray Name="VitesseY" type="Float32" format="ascii">