<?xml version="1.0"?>
<VTKFile type="PolyData">
	<PolyData>
		<Piece NumberOfPoints="1206" NumberOfPolys="1000">
			<Points>
				<DataArray type="Float32" NumberOfComponents="3" format="ascii">
 0 0 0 0.005 0 0 0.01 0 0 0.015 0 0 0.02 0 0 0.025 0 0 0.03 0 0 0.035 0 0 0.04 0 0 0.045 0 0 0.05 0 0 0.055 0 0 0.06 0 0 0.065 0 0 0.07 0 0 0.075 0 0 0.08 0 0 0.085 0 0 0.09 0 0 0.095 0 0 0.1 0 0 0.105 0 0 0.11 0 0 0.115 0 0 0.12 0 0 0.125 0 0 0.13 0 0 0.135 0 0 0.14 0 0 0.145 0 0 0.15 0 0 0.155 0 0 0.16 0 0 0.165 0 0 0.17 0 0 0.175 0 0 0.18 0 0 0.185 0 0 0.19 0 0 0.195 0 0 0.2 0 0 0.205 0 0 0.21 0 0 0.215 0 0 0.22 0 0 0.225 0 0 0.23 0 0 0.235 0 0 0.24 0 0 0.245 0 0 0.25 0 0 0.255 0 0 0.26 0 0 0.265 0 0 0.27 0 0 0.275 0 0 0.28 0 0 0.285 0 0 0.29 0 0 0.295 0 0 0.3 0 0 0.305 0 0 0.31 0 0 0.315 0 0 0.32 0 0 0.325 0 0 0.33 0 0 0.335 0 0 0.34 0 0 0.345 0 0 0.35 0 0 0.355 0 0 0.36 0 0 0.365 0 0 0.37 0 0 0.375 0 0 0.38 0 0 0.385 0 0 0.39 0 0 0.395 0 0 0.4 0 0 0.405001 0 0 0.410003 0 0 0.415013 0 0 0.420048 0 0 0.425146 0 0 0.43037 0 0 0.435801 0 0 0.441516 0 0 0.44759 0 0 0.454096 0 0 0.461121 0 0 0.46877 0 0 0.477177 0 0 0.486512 0 0 0.49697 0 0 0.508665 0 0 0.521094 0 0 0.533267 0 0 0.545188 0 0 0.557002 0 0 0.559622 0 0 0.562169 0 0 0.56467 0 0 0.56714 0 0 0.569589 0 0 0.572022 0 0 0.574445 0 0 0.576865 0 0 0.579285 0 0 0.58169 0 0 0.584086 0 0 0.586479 0 0 0.588875 0 0 0.591278 0 0 0.593692 0 0 0.596124 0 0 0.598607 0 0 0.601189 0 0 0.603878 0 0 0.606753 0 0 0.609842 0 0 0.61324 0 0 0.616976 0 0 0.621079 0 0 0.625516 0 0 0.630215 0 0 0.635079 0 0 0.640027 0 0 0.645009 0 0 0.650003 0 0 0.655001 0 0 0.66 0 0 0.665 0 0 0.67 0 0 0.675 0 0 0.68 0 0 0.685 0 0 0.69 0 0 0.695 0 0 0.7 0 0 0.705 0 0 0.71 0 0 0.715 0 0 0.72 0 0 0.725 0 0 0.73 0 0 0.735 0 0 0.74 0 0 0.745 0 0 0.75 0 0 0.755 0 0 0.76 0 0 0.765 0 0 0.77 0 0 0.775 0 0 0.78 0 0 0.785 0 0 0.79 0 0 0.795 0 0 0.8 0 0 0.805 0 0 0.81 0 0 0.815 0 0 0.82 0 0 0.825 0 0 0.83 0 0 0.835 0 0 0.84 0 0 0.845 0 0 0.85 0 0 0.855 0 0 0.86 0 0 0.865 0 0 0.87 0 0 0.875 0 0 0.88 0 0 0.885 0 0 0.89 0 0 0.895 0 0 0.9 0 0 0.905 0 0 0.91 0 0 0.915 0 0 0.92 0 0 0.925 0 0 0.93 0 0 0.935 0 0 0.94 0 0 0.945 0 0 0.95 0 0 0.955 0 0 0.96 0 0 0.965 0 0 0.97 0 0 0.975 0 0 0.98 0 0 0.985 0 0 0.99 0 0 0.995 0 0 1 0 0 0 0.02 0 0.005 0.02 0 0.01 0.02 0 0.015 0.02 0 0.02 0.02 0 0.025 0.02 0 0.03 0.02 0 0.035 0.02 0 0.04 0.02 0 0.045 0.02 0 0.05 0.02 0 0.055 0.02 0 0.06 0.02 0 0.065 0.02 0 0.07 0.02 0 0.075 0.02 0 0.08 0.02 0 0.085 0.02 0 0.09 0.02 0 0.095 0.02 0 0.1 0.02 0 0.105 0.02 0 0.11 0.02 0 0.115 0.02 0 0.12 0.02 0 0.125 0.02 0 0.13 0.02 0 0.135 0.02 0 0.14 0.02 0 0.145 0.02 0 0.15 0.02 0 0.155 0.02 0 0.16 0.02 0 0.165 0.02 0 0.17 0.02 0 0.175 0.02 0 0.18 0.02 0 0.185 0.02 0 0.19 0.02 0 0.195 0.02 0 0.2 0.02 0 0.205 0.02 0 0.21 0.02 0 0.215 0.02 0 0.22 0.02 0 0.225 0.02 0 0.23 0.02 0 0.235 0.02 0 0.24 0.02 0 0.245 0.02 0 0.25 0.02 0 0.255 0.02 0 0.26 0.02 0 0.265 0.02 0 0.27 0.02 0 0.275 0.02 0 0.28 0.02 0 0.285 0.02 0 0.29 0.02 0 0.295 0.02 0 0.3 0.02 0 0.305 0.02 0 0.31 0.02 0 0.315 0.02 0 0.32 0.02 0 0.325 0.02 0 0.33 0.02 0 0.335 0.02 0 0.34 0.02 0 0.345 0.02 0 0.35 0.02 0 0.355 0.02 0 0.36 0.02 0 0.365 0.02 0 0.37 0.02 0 0.375 0.02 0 0.38 0.02 0 0.385 0.02 0 0.39 0.02 0 0.395 0.02 0 0.4 0.02 0 0.405001 0.02 0 0.410003 0.02 0 0.415013 0.02 0 0.420048 0.02 0 0.425146 0.02 0 0.43037 0.02 0 0.435801 0.02 0 0.441516 0.02 0 0.44759 0.02 0 0.454096 0.02 0 0.461121 0.02 0 0.46877 0.02 0 0.477177 0.02 0 0.486512 0.02 0 0.49697 0.02 0 0.508665 0.02 0 0.521094 0.02 0 0.533267 0.02 0 0.545188 0.02 0 0.557002 0.02 0 0.559622 0.02 0 0.562169 0.02 0 0.56467 0.02 0 0.56714 0.02 0 0.569589 0.02 0 0.572022 0.02 0 0.574445 0.02 0 0.576865 0.02 0 0.579285 0.02 0 0.58169 0.02 0 0.584086 0.02 0 0.586479 0.02 0 0.588875 0.02 0 0.591278 0.02 0 0.593692 0.02 0 0.596124 0.02 0 0.598607 0.02 0 0.601189 0.02 0 0.603878 0.02 0 0.606753 0.02 0 0.609842 0.02 0 0.61324 0.02 0 0.616976 0.02 0 0.621079 0.02 0 0.625516 0.02 0 0.630215 0.02 0 0.635079 0.02 0 0.640027 0.02 0 0.645009 0.02 0 0.650003 0.02 0 0.655001 0.02 0 0.66 0.02 0 0.665 0.02 0 0.67 0.02 0 0.675 0.02 0 0.68 0.02 0 0.685 0.02 0 0.69 0.02 0 0.695 0.02 0 0.7 0.02 0 0.705 0.02 0 0.71 0.02 0 0.715 0.02 0 0.72 0.02 0 0.725 0.02 0 0.73 0.02 0 0.735 0.02 0 0.74 0.02 0 0.745 0.02 0 0.75 0.02 0 0.755 0.02 0 0.76 0.02 0 0.765 0.02 0 0.77 0.02 0 0.775 0.02 0 0.78 0.02 0 0.785 0.02 0 0.79 0.02 0 0.795 0.02 0 0.8 0.02 0 0.805 0.02 0 0.81 0.02 0 0.815 0.02 0 0.82 0.02 0 0.825 0.02 0 0.83 0.02 0 0.835 0.02 0 0.84 0.02 0 0.845 0.02 0 0.85 0.02 0 0.855 0.02 0 0.86 0.02 0 0.865 0.02 0 0.87 0.02 0 0.875 0.02 0 0.88 0.02 0 0.885 0.02 0 0.89 0.02 0 0.895 0.02 0 0.9 0.02 0 0.905 0.02 0 0.91 0.02 0 0.915 0.02 0 0.92 0.02 0 0.925 0.02 0 0.93 0.02 0 0.935 0.02 0 0.94 0.02 0 0.945 0.02 0 0.95 0.02 0 0.955 0.02 0 0.96 0.02 0 0.965 0.02 0 0.97 0.02 0 0.975 0.02 0 0.98 0.02 0 0.985 0.02 0 0.99 0.02 0 0.995 0.02 0 1 0.02 0 0 0.04 0 0.005 0.04 0 0.01 0.04 0 0.015 0.04 0 0.02 0.04 0 0.025 0.04 0 0.03 0.04 0 0.035 0.04 0 0.04 0.04 0 0.045 0.04 0 0.05 0.04 0 0.055 0.04 0 0.06 0.04 0 0.065 0.04 0 0.07 0.04 0 0.075 0.04 0 0.08 0.04 0 0.085 0.04 0 0.09 0.04 0 0.095 0.04 0 0.1 0.04 0 0.105 0.04 0 0.11 0.04 0 0.115 0.04 0 0.12 0.04 0 0.125 0.04 0 0.13 0.04 0 0.135 0.04 0 0.14 0.04 0 0.145 0.04 0 0.15 0.04 0 0.155 0.04 0 0.16 0.04 0 0.165 0.04 0 0.17 0.04 0 0.175 0.04 0 0.18 0.04 0 0.185 0.04 0 0.19 0.04 0 0.195 0.04 0 0.2 0.04 0 0.205 0.04 0 0.21 0.04 0 0.215 0.04 0 0.22 0.04 0 0.225 0.04 0 0.23 0.04 0 0.235 0.04 0 0.24 0.04 0 0.245 0.04 0 0.25 0.04 0 0.255 0.04 0 0.26 0.04 0 0.265 0.04 0 0.27 0.04 0 0.275 0.04 0 0.28 0.04 0 0.285 0.04 0 0.29 0.04 0 0.295 0.04 0 0.3 0.04 0 0.305 0.04 0 0.31 0.04 0 0.315 0.04 0 0.32 0.04 0 0.325 0.04 0 0.33 0.04 0 0.335 0.04 0 0.34 0.04 0 0.345 0.04 0 0.35 0.04 0 0.355 0.04 0 0.36 0.04 0 0.365 0.04 0 0.37 0.04 0 0.375 0.04 0 0.38 0.04 0 0.385 0.04 0 0.39 0.04 0 0.395 0.04 0 0.4 0.04 0 0.405001 0.04 0 0.410003 0.04 0 0.415013 0.04 0 0.420048 0.04 0 0.425146 0.04 0 0.43037 0.04 0 0.435801 0.04 0 0.441516 0.04 0 0.44759 0.04 0 0.454096 0.04 0 0.461121 0.04 0 0.46877 0.04 0 0.477177 0.04 0 0.486512 0.04 0 0.49697 0.04 0 0.508665 0.04 0 0.521094 0.04 0 0.533267 0.04 0 0.545188 0.04 0 0.557002 0.04 0 0.559622 0.04 0 0.562169 0.04 0 0.56467 0.04 0 0.56714 0.04 0 0.569589 0.04 0 0.572022 0.04 0 0.574445 0.04 0 0.576865 0.04 0 0.579285 0.04 0 0.58169 0.04 0 0.584086 0.04 0 0.586479 0.04 0 0.588875 0.04 0 0.591278 0.04 0 0.593692 0.04 0 0.596124 0.04 0 0.598607 0.04 0 0.601189 0.04 0 0.603878 0.04 0 0.606753 0.04 0 0.609842 0.04 0 0.61324 0.04 0 0.616976 0.04 0 0.621079 0.04 0 0.625516 0.04 0 0.630215 0.04 0 0.635079 0.04 0 0.640027 0.04 0 0.645009 0.04 0 0.650003 0.04 0 0.655001 0.04 0 0.66 0.04 0 0.665 0.04 0 0.67 0.04 0 0.675 0.04 0 0.68 0.04 0 0.685 0.04 0 0.69 0.04 0 0.695 0.04 0 0.7 0.04 0 0.705 0.04 0 0.71 0.04 0 0.715 0.04 0 0.72 0.04 0 0.725 0.04 0 0.73 0.04 0 0.735 0.04 0 0.74 0.04 0 0.745 0.04 0 0.75 0.04 0 0.755 0.04 0 0.76 0.04 0 0.765 0.04 0 0.77 0.04 0 0.775 0.04 0 0.78 0.04 0 0.785 0.04 0 0.79 0.04 0 0.795 0.04 0 0.8 0.04 0 0.805 0.04 0 0.81 0.04 0 0.815 0.04 0 0.82 0.04 0 0.825 0.04 0 0.83 0.04 0 0.835 0.04 0 0.84 0.04 0 0.845 0.04 0 0.85 0.04 0 0.855 0.04 0 0.86 0.04 0 0.865 0.04 0 0.87 0.04 0 0.875 0.04 0 0.88 0.04 0 0.885 0.04 0 0.89 0.04 0 0.895 0.04 0 0.9 0.04 0 0.905 0.04 0 0.91 0.04 0 0.915 0.04 0 0.92 0.04 0 0.925 0.04 0 0.93 0.04 0 0.935 0.04 0 0.94 0.04 0 0.945 0.04 0 0.95 0.04 0 0.955 0.04 0 0.96 0.04 0 0.965 0.04 0 0.97 0.04 0 0.975 0.04 0 0.98 0.04 0 0.985 0.04 0 0.99 0.04 0 0.995 0.04 0 1 0.04 0 0 0.06 0 0.005 0.06 0 0.01 0.06 0 0.015 0.06 0 0.02 0.06 0 0.025 0.06 0 0.03 0.06 0 0.035 0.06 0 0.04 0.06 0 0.045 0.06 0 0.05 0.06 0 0.055 0.06 0 0.06 0.06 0 0.065 0.06 0 0.07 0.06 0 0.075 0.06 0 0.08 0.06 0 0.085 0.06 0 0.09 0.06 0 0.095 0.06 0 0.1 0.06 0 0.105 0.06 0 0.11 0.06 0 0.115 0.06 0 0.12 0.06 0 0.125 0.06 0 0.13 0.06 0 0.135 0.06 0 0.14 0.06 0 0.145 0.06 0 0.15 0.06 0 0.155 0.06 0 0.16 0.06 0 0.165 0.06 0 0.17 0.06 0 0.175 0.06 0 0.18 0.06 0 0.185 0.06 0 0.19 0.06 0 0.195 0.06 0 0.2 0.06 0 0.205 0.06 0 0.21 0.06 0 0.215 0.06 0 0.22 0.06 0 0.225 0.06 0 0.23 0.06 0 0.235 0.06 0 0.24 0.06 0 0.245 0.06 0 0.25 0.06 0 0.255 0.06 0 0.26 0.06 0 0.265 0.06 0 0.27 0.06 0 0.275 0.06 0 0.28 0.06 0 0.285 0.06 0 0.29 0.06 0 0.295 0.06 0 0.3 0.06 0 0.305 0.06 0 0.31 0.06 0 0.315 0.06 0 0.32 0.06 0 0.325 0.06 0 0.33 0.06 0 0.335 0.06 0 0.34 0.06 0 0.345 0.06 0 0.35 0.06 0 0.355 0.06 0 0.36 0.06 0 0.365 0.06 0 0.37 0.06 0 0.375 0.06 0 0.38 0.06 0 0.385 0.06 0 0.39 0.06 0 0.395 0.06 0 0.4 0.06 0 0.405001 0.06 0 0.410003 0.06 0 0.415013 0.06 0 0.420048 0.06 0 0.425146 0.06 0 0.43037 0.06 0 0.435801 0.06 0 0.441516 0.06 0 0.44759 0.06 0 0.454096 0.06 0 0.461121 0.06 0 0.46877 0.06 0 0.477177 0.06 0 0.486512 0.06 0 0.49697 0.06 0 0.508665 0.06 0 0.521094 0.06 0 0.533267 0.06 0 0.545188 0.06 0 0.557002 0.06 0 0.559622 0.06 0 0.562169 0.06 0 0.56467 0.06 0 0.56714 0.06 0 0.569589 0.06 0 0.572022 0.06 0 0.574445 0.06 0 0.576865 0.06 0 0.579285 0.06 0 0.58169 0.06 0 0.584086 0.06 0 0.586479 0.06 0 0.588875 0.06 0 0.591278 0.06 0 0.593692 0.06 0 0.596124 0.06 0 0.598607 0.06 0 0.601189 0.06 0 0.603878 0.06 0 0.606753 0.06 0 0.609842 0.06 0 0.61324 0.06 0 0.616976 0.06 0 0.621079 0.06 0 0.625516 0.06 0 0.630215 0.06 0 0.635079 0.06 0 0.640027 0.06 0 0.645009 0.06 0 0.650003 0.06 0 0.655001 0.06 0 0.66 0.06 0 0.665 0.06 0 0.67 0.06 0 0.675 0.06 0 0.68 0.06 0 0.685 0.06 0 0.69 0.06 0 0.695 0.06 0 0.7 0.06 0 0.705 0.06 0 0.71 0.06 0 0.715 0.06 0 0.72 0.06 0 0.725 0.06 0 0.73 0.06 0 0.735 0.06 0 0.74 0.06 0 0.745 0.06 0 0.75 0.06 0 0.755 0.06 0 0.76 0.06 0 0.765 0.06 0 0.77 0.06 0 0.775 0.06 0 0.78 0.06 0 0.785 0.06 0 0.79 0.06 0 0.795 0.06 0 0.8 0.06 0 0.805 0.06 0 0.81 0.06 0 0.815 0.06 0 0.82 0.06 0 0.825 0.06 0 0.83 0.06 0 0.835 0.06 0 0.84 0.06 0 0.845 0.06 0 0.85 0.06 0 0.855 0.06 0 0.86 0.06 0 0.865 0.06 0 0.87 0.06 0 0.875 0.06 0 0.88 0.06 0 0.885 0.06 0 0.89 0.06 0 0.8
[...]
			<PointData Scalars="VitesseX">
				<DataArray Name="VitesseX" type="Float32" format="ascii">
 0 6.84731e-16 -6.90093e-16 5.9059e-16 4.02586e-15 -8.17767e-15 -2.38381e-15 5.9957e-15 -5.0645e-15 -8.90788e-16 6.72906e-15 1.89597e-15 -5.99765e-15 4.19348e-15 -1.96715e-15 7.54694e-15 -1.14558e-14 5.70211e-15 -7.61463e-15 4.17629e-15 3.49637e-15 5.43954e-15 -8.21913e-15 -6.52047e-16 3.45335e-15 2.29099e-14 -2.23564e-14 2.53939e-14 -1.68361e-14 4.145e-15 1.67983e-14 -5.72112e-15 -1.13115e-14 1.89784e-14 -2.30738e-14 2.06893e-14 -1.92795e-14 1.25235e-14 -2.18029e-14 -7.64995e-16 -2.49695e-14 2.52484e-14 -1.3296e-14 -1.98326e-14 1.47182e-14 2.35579e-14 -3.95243e-15 9.51961e-15 -4.84509e-15 2.20931e-14 2.42699e-14 -3.80389e-14 5.10456e-14 -4.25653e-14 3.79324e-14 1.63612e-14 -4.26077e-14 2.05636e-14 3.00642e-14 6.0804e-15 -2.49374e-14 3.64084e-15 8.72637e-16 1.59201e-14 1.1573e-14 -7.98244e-15 3.34527e-14 8.3877e-15 3.65802e-14 -1.58036e-14 4.71945e-14 4.025e-14 7.44371e-13 9.63413e-12 1.18593e-10 1.3195e-09 1.32786e-08 1.20155e-07 9.70583e-07 6.93948e-06 4.34618e-05 0.000235378 0.00108469 0.00417239 0.0131406 0.0334999 0.0696307 0.121549 0.185949 0.259668 0.341234 0.430482 0.527888 0.634032 0.748621 0.866944 0.965203 0.970606 0.944821 0.931661 0.928111 0.928117 0.928054 0.927875 0.927515 0.926902 0.926033 0.924865 0.923598 0.922444 0.9215 0.921064 0.921948 0.925148 0.920043 0.900704 0.902637 0.861347 0.842848 0.765572 0.725861 0.604176 0.505792 0.369895 0.246497 0.140651 0.0675902 0.0274953 0.009923 0.00333695 0.00107535 0.000335753 0.000101893 3.00672e-05 8.62377e-06 2.40295e-06 6.50219e-07 1.70809e-07 4.35516e-08 1.07764e-08 2.58748e-09 6.02855e-10 1.363e-10 2.98496e-11 6.38043e-12 1.39652e-12 2.30591e-13 6.42121e-14 -1.39e-15 3.15491e-14 -3.85008e-14 7.51411e-14 6.89233e-14 9.55671e-14 -2.18793e-14 -1.43222e-14 9.44846e-15 2.37659e-14 -6.39198e-14 -1.77908e-14 2.13427e-14 5.50836e-14 5.64364e-15 -2.37825e-14 -9.47586e-14 1.07621e-14 -5.42085e-14 1.34839e-13 -7.54149e-14 -1.01405e-13 4.44267e-14 -6.64254e-14 4.5627e-14 -3.96443e-14 1.53633e-14 -2.20171e-14 -9.11547e-14 7.22085e-14 8.12004e-14 -5.18011e-14 5.07787e-14 -5.82422e-14 1.88813e-14 5.38143e-14 -8.58172e-14 -1.92195e-14 9.3031e-14 -9.66239e-14 -4.18099e-14 -4.18174e-14 -1.0889e-13 2.34604e-14 -1.04864e-14 -1.33022e-14 -4.31307e-14 -1.85988e-14 -8.08801e-14 -8.80424e-14 1.24423e-13 -9.67981e-14 0 0 4.01042e-16 -6.57543e-17 6.13313e-17 -2.95799e-15 5.01828e-15 -3.22947e-15 -4.58975e-15 5.64021e-15 -1.62588e-16 -4.42721e-16 -5.60812e-15 4.10046e-15 1.32468e-14 -1.36552e-14 1.88609e-15 3.85915e-16 6.21255e-15 -1.24946e-14 1.1312e-14 -7.04441e-15 4.69003e-15 2.59782e-15 -3.23791e-15 4.74327e-15 1.05118e-14 1.97165e-14 -2.32362e-14 1.03459e-14 3.39109e-15 -1.7166e-14 1.96916e-14 1.76974e-15 -1.32862e-14 1.56162e-14 -1.78872e-14 2.07276e-14 -1.83371e-14 5.39065e-15 1.21842e-16 -1.88042e-15 7.72476e-15 -1.45225e-14 -3.03827e-14 2.82646e-14 -1.00636e-14 6.45482e-15 1.588e-14 1.40005e-14 -7.41867e-15 1.22001e-14 -1.48159e-14 2.70453e-15 5.50469e-15 3.3273e-14 1.91623e-14 -7.13522e-14 4.2881e-14 7.65054e-15 2.16342e-14 -2.58472e-14 3.47406e-14 2.19525e-14 -3.40745e-14 2.8431e-14 6.56445e-15 -2.05665e-14 4.57084e-14 2.32528e-14 -3.18091e-14 3.62742e-14 1.30074e-13 6.76988e-13 9.71929e-12 1.18514e-10 1.3194e-09 1.32788e-08 1.20155e-07 9.70583e-07 6.93948e-06 4.34618e-05 0.000235378 0.00108469 0.00417239 0.0131406 0.0334999 0.0696307 0.121549 0.185949 0.259668 0.341234 0.430482 0.527888 0.634032 0.748621 0.866944 0.965203 0.970606 0.944821 0.931661 0.928111 0.928117 0.928054 0.927875 0.927515 0.926902 0.926033 0.924865 0.923598 0.922444 0.9215 0.921064 0.921948 0.925148 0.920043 0.900704 0.902637 0.861347 0.842848 0.765572 0.725861 0.604176 0.505792 0.369895 0.246497 0.140651 0.0675902 0.0274953 0.009923 0.00333695 0.00107535 0.000335753 0.000101893 3.00672e-05 8.62377e-06 2.40295e-06 6.50219e-07 1.70809e-07 4.35517e-08 1.07764e-08 2.58751e-09 6.02776e-10 1.36329e-10 2.98729e-11 6.40675e-12 1.32632e-12 2.86779e-13 -8.59935e-15 7.91794e-14 1.44082e-15 -1.68274e-14 3.3083e-14 1.75875e-14 7.68116e-14 3.93501e-14 5.45516e-14 8.06865e-15 -6.76419e-14 2.46307e-14 -7.65305e-14 4.09561e-14 5.89795e-14 -7.94297e-15 -8.58077e-14 9.27744e-14 -1.22005e-13 -3.70321e-14 7.56649e-14 -9.99209e-14 6.69373e-14 -1.41868e-13 1.07391e-13 -4.84699e-14 7.74891e-14 7.95435e-14 -1.19372e-13 -7.4639e-14 7.78053e-14 1.17106e-13 -7.68729e-14 3.59256e-14 -9.56565e-14 1.78803e-14 1.68325e-15 -8.65762e-14 2.47876e-14 -3.07245e-16 -6.26529e-14 -7.1787e-15 -3.51859e-14 -4.42423e-14 -6.93712e-14 -3.95581e-14 3.9755e-14 -1.06703e-13 -3.76152e-14 5.00237e-14 -5.09161e-14 -8.52055e-14 5.90281e-14 0 0 -1.31237e-17 1.59689e-15 -8.59533e-16 -2.66393e-15 3.62925e-15 -1.14824e-15 5.77112e-16 2.62144e-15 8.29193e-16 -7.05069e-15 5.88885e-15 3.82095e-15 5.0444e-15 -2.87236e-16 -6.49864e-15 4.34088e-16 9.07288e-15 -1.88734e-15 -3.0112e-15 -1.37436e-14 7.84304e-15 3.02717e-15 8.7564e-16 2.28622e-15 1.26381e-14 3.21409e-15 5.69394e-15 2.19218e-14 -1.76678e-14 -2.1279e-14 2.10442e-14 1.05606e-14 -1.86796e-14 1.28244e-14 -9.45546e-15 2.45252e-14 -5.20908e-15 6.51049e-15 1.99195e-14 -5.02647e-15 1.48834e-15 -1.03341e-14 -1.56051e-14 1.85875e-14 -1.75759e-14 -9.3738e-15 4.21505e-14 1.04749e-16 -2.65218e-14 2.696e-15 -2.48786e-14 1.02685e-14 3.94307e-14 1.82958e-14 -2.46836e-14 -1.26494e-14 1.59238e-14 -2.96834e-14 1.82769e-14 3.88687e-14 1.04236e-14 5.39202e-14 -6.06244e-14 2.88269e-14 5.16734e-14 -4.06261e-14 1.10459e-14 -2.87975e-14 4.83759e-14 7.76602e-14 9.06753e-14 7.10748e-13 9.71039e-12 1.18474e-10 1.31933e-09 1.32788e-08 1.20155e-07 9.70584e-07 6.93948e-06 4.34618e-05 0.000235378 0.00108469 0.00417239 0.0131406 0.0334999 0.0696307 0.121549 0.185949 0.259668 0.341234 0.430482 0.527888 0.634032 0.748621 0.866944 0.965203 0.970606 0.944821 0.931661 0.928111 0.928117 0.928054 0.927875 0.927515 0.926902 0.926033 0.924865 0.923598 0.922444 0.9215 0.921064 0.921948 0.925148 0.920043 0.900704 0.902637 0.861347 0.842848 0.765572 0.725861 0.604176 0.505792 0.369895 0.246497 0.140651 0.0675902 0.0274953 0.009923 0.00333695 0.00107535 0.000335753 0.000101893 3.00672e-05 8.62377e-06 2.40295e-06 6.50219e-07 1.70809e-07 4.35517e-08 1.07764e-08 2.5875e-09 6.02819e-10 1.36325e-10 2.98861e-11 6.38013e-12 1.42557e-12 2.09703e-13 -5.58189e-14 1.34987e-13 7.72897e-14 3.36225e-14 -1.16009e-13 -1.10286e-13 1.05604e-13 7.55846e-14 8.89102e-14 -2.10748e-14 -6.26736e-15 1.5022e-13 -1.04449e-13 -8.3648e-14 1.13649e-13 -2.56577e-14 -1.11032e-14 7.90963e-14 -2.36663e-14 -7.27573e-16 -1.07889e-13 -2.3066e-14 2.14272e-14 -8.03314e-14 7.20802e-14 6.00872e-14 3.99089e-14 1.08386e-15 5.75843e-14 -4.82553e-14 -1.03124e-15 -4.05351e-14 -3.14567e-14 4.12643e-14 -6.86488e-14 -9.15896e-14 -7.51194e-14 -6.95643e-14 7.66147e-15 -5.71735e-14 6.31712e-14 -2.93701e-14 -9.02007e-14 -1.62217e-14 -5.14856e-14 -8.15699e-14 1.31631e-13 -3.82054e-14 -4.09672e-14 -6.21098e-14 -4.09541e-14 -7.63587e-14 4.15389e-14 0 0 -1.08742e-15 2.57649e-16 2.61403e-15 -1.54114e-15 -2.90112e-15 1.69484e-15 5.79416e-15 -3.87989e-15 -4.93536e-15 2.81194e-15 5.33265e-15 -6.02248e-15 -1.17356e-15 -1.60171e-15 9.65005e-15 1.89849e-15 1.80746e-15 6.51226e-15 -7.05845e-15 -2.2614e-15 -6.10198e-15 -4.65796e-15 9.37003e-15 -3.47053e-16 2.57172e-14 -8.14689e-15 8.1066e-15 2.46647e-14 -2.7669e-14 -1.8065e-14 3.43284e-14 -1.54088e-14 -8.7978e-16 1.57415e-14 2.55401e-14 3.29176e-15 2.64711e-14 -1.5444e-14 1.63987e-14 -1.91567e-14 4.83361e-14 1.79492e-14 -4.41161e-14 4.99875e-15 -2.56455e-14 -4.3496e-15 1.99852e-14 1.01857e-14 -1.46472e-14 9.3627e-15 -3.34757e-14 2.87306e-14 -1.61071e-14 3.98894e-14 -3.26541e-14 3.57709e-14 -4.97741e-14 -3.27051e-14 3.81341e-14 4.50643e-14 -2.97852e-14 5.76387e-14 2.47899e-14 2.55145e-14 -2.54635e-14 7.21897e-14 -6.53902e-14 -2.18376e-14 1.30232e-13 3.14751e-14 3.73722e-14 7.66795e-13 9.62062e-12 1.18511e-10 1.31938e-09 1.32787e-08 1.20155e-07 9.70584e-07 6.93948e-06 4.34618e-05 0.000235378 0.00108469 0.00417239 0.0131406 0.0334999 0.0696307 0.121549 0.185949 0.259668 0.341234 0.430482 0.527888 0.634032 0.748621 0.866944 0.965203 0.970606 0.944821 0.931661 0.928111 0.928117 0.928054 0.927875 0.927515 0.926902 0.926033 0.924865 0.923598 0.922444 0.9215 0.921064 0.921948 0.925148 0.920043 0.900704 0.902637 0.861347 0.842848 0.765572 0.725861 0.604176 0.505792 0.369895 0.246497 0.140651 0.0675902 0.0274953 0.009923 0.00333695 0.00107535 0.000335753 0.000101893 3.00672e-05 8.62377e-06 2.40295e-06 6.50219e-07 1.70809e-07 4.35516e-08 1.07765e-08 2.58754e-09 6.02913e-10 1.36271e-10 2.98651e-11 6.45156e-12 1.37158e-12 1.82398e-13 1.18053e-13 8.39997e-15 7.41381e-14 4.54761e-15 -8.11877e-14 -2.33115e-14 -6.34586e-14 7.95887e-14 8.17499e-14 2.29823e-14 -5.89052e-15 1.37124e-13 -1.09636e-13 8.60334e-14 3.35515e-14 5.81893e-14 -1.42046e-13 3.7294e-14 1.91355e-13 1.11069e-13 -1.29111e-13 -7.02095e-14 -1.00796e-13 5.50706e-14 -2.0867e-13 1.85149e-13 1.00847e-13 -9.21503e-14 1.97452e-13 -1.31411e-13 -1.02876e-13 -1.27036e-13 -9.8251e-14 1.32224e-13 -4.89982e-14 -7.67901e-14 -1.8744e-13 4.2056e-14 -1.24687e-13 -1.28129e-15 1.37737e-13 -1.46634e-14 9.90273e-15 -4.44933e-14 -6.34583e-14 5.01289e-14 -1.00381e-13 1.33076e-13 -6.9779e-14 -1.92971e-13 -5.37725e-14 2.43781e-14 -7.4058e-14 0 0 -2.54829e-15 -4.05906e-15 7.84725e-15 -3.99137e-15 6.74352e-16 -1.21132e-15 -3.90855e-15 2.88899e-15 -1.64594e-15 1.18759e-14 -3.09536e-15 -3.12426e-15 -4.80017e-16 -7.62667e-15 1.32994e-14 1.7722e-15 -1.84368e-14 1.66271e-15 1.17801e-14 1.43325e-15 -1.21314e-14 -5.06582e-15 6.17965e-15 1.59892e-14 4.73853e-15 1.51464e-14 -1.77377e-14 1.79088e-14 -8.62664e-15 -1.64344e-14 2.21492e-14 -5.28395e-15 -6.361e-15 3.96189e-14 2.52866e-14 3.92616e-14 2.38069e-14 -1.90702e-14 -5.45102e-14 4.00966e-14 2.56546e-14 2.20539e-14 -1.77053e-14 -3.71551e-14 -3.58831e-14 -3.53722e-15 5.54993e-15 2.52088e-14 -1.91589e-14 7.1836e-15 1.14236e-14 1.70518e-14 -3.46562e-14 1.60749e-14 2.01738e-14 1.35036e-14 -6.84673e-14 -5.14924e-15 6.07376e-14 3.4403e-15 -1.1987e-14 6.67715e-14 3.9289e-14 2.51297e-14 -3.61735e-14 7.12331e-14 -1.25563e-14 4.30726e-14 1.03924e-13 -5.14952e-14 1.46315e-13 6.63277e-13 9.64492e-12 1.18435e-10 1.31942e-09 1.32788e-08 1.20154e-07 9.70584e-07 6.93948e-06 4.34618e-05 0.000235378 0.00108469 0.00417239 0.0131406 0.0334999 0.0696307 0.121549 0.185949 0.259668 0.341234 0.430482 0.527888 0.634032 0.748621 0.866944 0.965203 0.970606 0.944821 0.931661 0.928111 0.928117 0.928054 0.927875 0.927515 0.926902 0.926033 0.924865 0.923598 0.922444 0.9215 0.921064 0.921948 0.925148 0.920043 0.900704 0.902637 0.861347 0.842848 0.765572 0.725861 0.604176 0.505792 0.369895 0.246497 0.140651 0.0675902 0.0274953 0.009923 0.00333695 0.00107535 0.000335753 0.000101893 3.00672e-05 8.62377e-06 2.40295e-06 6.50219e-07 1.70809e-07 4.35516e-08 1.07765e-08 2.58756e-09 6.02907e-10 1.36295e-10 2.99548e-11 6.29084e-12 1.2696e-12 2.51576e-13 1.61469e-13 -6.83632e-14 8.02451e-15 1.17059e-13 1.77576e-13 -2.29258e-14 -1.36207e-13 5.03457e-14 -2.46025e-14 1.11721e-13 -4.96325e-14 -6.09406e-14 4.99792e-15 1.48265e-13 3.14e-14 7.22447e-14 -1.55978e-13 4.57614e-15 -4.21131e-14 1.17655e-13 8.25912e-15 -2.18898e-13 7.95748e-14 6.11411e-14 -5.53853e-16 4.89281e-14 3.62585e-14 -3.49821e-14 4.15449e-14 -1.99787e-13 -5.60153e-14 -1.14794e-13 -7.48837e-14 6.13371e-14 2.87068e-14 4.08019e-15 -1.71848e-13 8.67426e-14 1.09391e-14 -4.70877e-15 3.87691e-14 3.70398e-14 1.02001e-13 -2.39519e-13 -9.49485e-14 6.86795e-14 -1.55331e-13 5.99465e-14 5.23421e-15 -1.11181e-13 6.69254e-15 -1.52361e-13 3.74994e-14 0 0 -3.06535e-15 -5.99823e-15 9.2153e-15 -2.86484e-16 -3.80479e-15 -4.03365e-15 -3.076e-15 2.43572e-15 7.67163e-15 1.1641e-14 8.03388e-15 -7.60228e-16 -1.08243e-14 1.27188e-14 -1.92391e-15 -1.16121e-14 -2.90657e-14 3.9008e-15 1.32069e-14 -2.51275e-15 -3.13372e-16 -8.17613e-15 1.19431e-15 3.12117e-14 -1.47949e-14 -8.77472e-15 3.15655e-14 -7.19608e-15 1.11985e-16 1.18335e-14 -2.73743e-14 2.652e-14 -2.77069e-15 1.90972e-14 3.70458e-14 6.02555e-14 3.34513e-14 -2.68158e-14 -1.02987e-13 8.72451e-14 -3.25875e-14 3.29027e-15 6.25443e-14 -8.89436e-14 -1.19419e-14 -3.39849e-14 3.31901e-14 -2.59042e-15 -2.51365e-14 9.03431e-16 3.16343e-14 4.28158e-14 -1.18115e-14 -3.96511e-14 3.43249e-14 3.02634e-14 -7.07372e-14 1.0508e-14 4.4573e-14 2.12463e-14 -9.39668e-15 8.30736e-14 -8.18132e-15 1.15951e-14 6.08154e-14 -8.57964e-15 4.47304e-14 6.23e-14 9.19507e-14 -3.59743e-14 1.79338e-13 6.04852e-13 9.66492e-12 1.18361e-10 1.31943e-09 1.32789e-08 1.20154e-07 9.70584e-07 6.93948e-06 4.34618e-05 0.000235378 0.00108469 0.00417239 0.0131406 0.0334999 0.0696307 0.121549 0.185949 0.259668 0.341234 0.430482 0.527888 0.634032 0.748621 0.866944 0.965203 0.970606 0.944821 0.931661 0.928111 0.928117 0.928054 0.927875 0.927515 0.926902 0.926033 0.924865 0.923598 0.922444 0.9215 0.921064 0.921948 0.925148 0.920043 0.900704 0.902637 0.861347 0.842848 0.765572 0.725861 0.604176 0.505792 0.369895 0.246497 0.140651 0.0675902 0.0274953 0.009923 0.00333695 0.00107535 0.000335753 0.000101893 3.00672e-05 8.62377e-06 2.40295e-06 6.50219e-07 1.70809e-07 4.35517e-08 1.07765e-08 2.5875e-09 6.02931e-10 1.36338e-10 3.00557e-11 6.00554e-12 1.39078e-12 2.14718e-13 5.67206e-14 -4.33618e-14 5.10704e-14 2.87474e-13 2.94184e-13 -1.86251e-13 7.60024e-15 -8.06781e-15 -1.58805e-13 1.27986e-13 5.86387e-14 -2.08696e-13 1.56152e-13 -1.03362e-13 1.60055e-13 -1.47945e-15 9.78748e-14 -1.87613e-13 -2.59179e-13 3.22153e-14 4.28494e-14 -2.18618e-13 1.68349e-13 1.79225e-13 2.78892e-13 -9.76642e-15 -2.44151e-13 -2.69485e-14 2.0759e-14 -1.74718e-13 8.4988e-15 -2.09432e-13 8.59489e-14 -8.03429e-14 1.51136e-13 -3.84897e-14 -6.86532e-14 3.805e-14 2.17905e-13 -2.76668e-14 -4.28347e-14 1.69649e-14 3.17493e-14 -4.4364e-13 -3.85167e-15 -5.72298e-14 6.06986e-14 -5.21896e-14 1.24677e-13 -1.41532e-13 5.30859e-14 -2.11703e-13 9.04132e-14 0
				</DataArray>
				<DataArray Name="VitesseY" type="Float32" format="ascii">