<?xml version="1.0"?>
<VTKFile type="PolyData">
	<PolyData>
		<Piece NumberOfPoints="1206" NumberOfPolys="1000">
			<Points>
				<DataArray type="Float32" NumberOfComponents="3" format="ascii">
 0 0 0 0.005 0 0 0.01 0 0 0.015 0 0 0.02 0 0 0.025 0 0 0.03 0 0 0.035 0 0 0.04 0 0 0.045 0 0 0.05 0 0 0.055 0 0 0.06 0 0 0.065 0 0 0.07 0 0 0.075 0 0 0.08 0 0 0.085 0 0 0.09 0 0 0.095 0 0 0.1 0 0 0.105 0 0 0.11 0 0 0.115 0 0 0.12 0 0 0.125 0 0 0.13 0 0 0.135 0 0 0.14 0 0 0.145 0 0 0.15 0 0 0.155 0 0 0.16 0 0 0.165 0 0 0.17 0 0 0.175 0 0 0.18 0 0 0.185 0 0 0.19 0 0 0.195 0 0 0.2 0 0 0.205 0 0 0.21 0 0 0.215 0 0 0.22 0 0 0.225 0 0 0.23 0 0 0.235 0 0 0.24 0 0 0.245 0 0 0.25 0 0 0.255 0 0 0.26 0 0 0.265 0 0 0.27 0 0 0.275 0 0 0.28 0 0 0.285 0 0 0.29 0 0 0.295 0 0 0.3 0 0 0.305 0 0 0.31 0 0 0.315 0 0 0.32 0 0 0.325 0 0 0.33 0 0 0.335 0 0 0.34 0 0 0.345 0 0 0.35 0 0 0.355 0 0 0.36 0 0 0.365 0 0 0.37 0 0 0.375 0 0 0.38 0 0 0.385 0 0 0.39 0 0 0.395 0 0 0.4 0 0 0.405 0 0 0.41 0 0 0.415 0 0 0.42 0 0 0.425 0 0 0.43 0 0 0.435 0 0 0.44 0 0 0.445 0 0 0.45 0 0 0.455 0 0 0.46 0 0 0.465 0 0 0.47 0 0 0.475 0 0 0.48 0 0 0.485 0 0 0.49 0 0 0.495 0 0 0.5 0 0 0.505 0 0 0.51 0 0 0.515 0 0 0.52 0 0 0.525 0 0 0.53 0 0 0.535 0 0 0.54 0 0 0.545 0 0 0.55 0 0 0.555 0 0 0.56 0 0 0.565 0 0 0.57 0 0 0.575 0 0 0.58 0 0 0.585 0 0 0.59 0 0 0.595 0 0 0.6 0 0 0.605 0 0 0.61 0 0 0.615 0 0 0.62 0 0 0.625 0 0 0.63 0 0 0.635 0 0 0.64 0 0 0.645 0 0 0.65 0 0 0.655 0 0 0.66 0 0 0.665 0 0 0.67 0 0 0.675 0 0 0.68 0 0 0.685 0 0 0.69 0 0 0.695 0 0 0.7 0 0 0.705 0 0 0.71 0 0 0.715 0 0 0.72 0 0 0.725 0 0 0.73 0 0 0.735 0 0 0.74 0 0 0.745 0 0 0.75 0 0 0.755 0 0 0.76 0 0 0.765 0 0 0.77 0 0 0.775 0 0 0.78 0 0 0.785 0 0 0.79 0 0 0.795 0 0 0.8 0 0 0.805 0 0 0.81 0 0 0.815 0 0 0.82 0 0 0.825 0 0 0.83 0 0 0.835 0 0 0.84 0 0 0.845 0 0 0.85 0 0 0.855 0 0 0.86 0 0 0.865 0 0 0.87 0 0 0.875 0 0 0.88 0 0 0.885 0 0 0.89 0 0 0.895 0 0 0.9 0 0 0.905 0 0 0.91 0 0 0.915 0 0 0.92 0 0 0.925 0 0 0.93 0 0 0.935 0 0 0.94 0 0 0.945 0 0 0.95 0 0 0.955 0 0 0.96 0 0 0.965 0 0 0.97 0 0 0.975 0 0 0.98 0 0 0.985 0 0 0.99 0 0 0.995 0 0 1 0 0 0 0.02 0 0.005 0.02 0 0.01 0.02 0 0.015 0.02 0 0.02 0.02 0 0.025 0.02 0 0.03 0.02 0 0.035 0.02 0 0.04 0.02 0 0.045 0.02 0 0.05 0.02 0 0.055 0.02 0 0.06 0.02 0 0.065 0.02 0 0.07 0.02 0 0.075 0.02 0 0.08 0.02 0 0.085 0.02 0 0.09 0.02 0 0.095 0.02 0 0.1 0.02 0 0.105 0.02 0 0.11 0.02 0 0.115 0.02 0 0.12 0.02 0 0.125 0.02 0 0.13 0.02 0 0.135 0.02 0 0.14 0.02 0 0.145 0.02 0 0.15 0.02 0 0.155 0.02 0 0.16 0.02 0 0.165 0.02 0 0.17 0.02 0 0.175 0.02 0 0.18 0.02 0 0.185 0.02 0 0.19 0.02 0 0.195 0.02 0 0.2 0.02 0 0.205 0.02 0 0.21 0.02 0 0.215 0.02 0 0.22 0.02 0 0.225 0.02 0 0.23 0.02 0 0.235 0.02 0 0.24 0.02 0 0.245 0.02 0 0.25 0.02 0 0.255 0.02 0 0.26 0.02 0 0.265 0.02 0 0.27 0.02 0 0.275 0.02 0 0.28 0.02 0 0.285 0.02 0 0.29 0.02 0 0.295 0.02 0 0.3 0.02 0 0.305 0.02 0 0.31 0.02 0 0.315 0.02 0 0.32 0.02 0 0.325 0.02 0 0.33 0.02 0 0.335 0.02 0 0.34 0.02 0 0.345 0.02 0 0.35 0.02 0 0.355 0.02 0 0.36 0.02 0 0.365 0.02 0 0.37 0.02 0 0.375 0.02 0 0.38 0.02 0 0.385 0.02 0 0.39 0.02 0 0.395 0.02 0 0.4 0.02 0 0.405 0.02 0 0.41 0.02 0 0.415 0.02 0 0.42 0.02 0 0.425 0.02 0 0.43 0.02 0 0.435 0.02 0 0.44 0.02 0 0.445 0.02 0 0.45 0.02 0 0.455 0.02 0 0.46 0.02 0 0.465 0.02 0 0.47 0.02 0 0.475 0.02 0 0.48 0.02 0 0.485 0.02 0 0.49 0.02 0 0.495 0.02 0 0.5 0.02 0 0.505 0.02 0 0.51 0.02 0 0.515 0.02 0 0.52 0.02 0 0.525 0.02 0 0.53 0.02 0 0.535 0.02 0 0.54 0.02 0 0.545 0.02 0 0.55 0.02 0 0.555 0.02 0 0.56 0.02 0 0.565 0.02 0 0.57 0.02 0 0.575 0.02 0 0.58 0.02 0 0.585 0.02 0 0.59 0.02 0 0.595 0.02 0 0.6 0.02 0 0.605 0.02 0 0.61 0.02 0 0.615 0.02 0 0.62 0.02 0 0.625 0.02 0 0.63 0.02 0 0.635 0.02 0 0.64 0.02 0 0.645 0.02 0 0.65 0.02 0 0.655 0.02 0 0.66 0.02 0 0.665 0.02 0 0.67 0.02 0 0.675 0.02 0 0.68 0.02 0 0.685 0.02 0 0.69 0.02 0 0.695 0.02 0 0.7 0.02 0 0.705 0.02 0 0.71 0.02 0 0.715 0.02 0 0.72 0.02 0 0.725 0.02 0 0.73 0.02 0 0.735 0.02 0 0.74 0.02 0 0.745 0.02 0 0.75 0.02 0 0.755 0.02 0 0.76 0.02 0 0.765 0.02 0 0.77 0.02 0 0.775 0.02 0 0.78 0.02 0 0.785 0.02 0 0.79 0.02 0 0.795 0.02 0 0.8 0.02 0 0.805 0.02 0 0.81 0.02 0 0.815 0.02 0 0.82 0.02 0 0.825 0.02 0 0.83 0.02 0 0.835 0.02 0 0.84 0.02 0 0.845 0.02 0 0.85 0.02 0 0.855 0.02 0 0.86 0.02 0 0.865 0.02 0 0.87 0.02 0 0.875 0.02 0 0.88 0.02 0 0.885 0.02 0 0.89 0.02 0 0.895 0.02 0 0.9 0.02 0 0.905 0.02 0 0.91 0.02 0 0.915 0.02 0 0.92 0.02 0 0.925 0.02 0 0.93 0.02 0 0.935 0.02 0 0.94 0.02 0 0.945 0.02 0 0.95 0.02 0 0.955 0.02 0 0.96 0.02 0 0.965 0.02 0 0.97 0.02 0 0.975 0.02 0 0.98 0.02 0 0.985 0.02 0 0.99 0.02 0 0.995 0.02 0 1 0.02 0 0 0.04 0 0.005 0.04 0 0.01 0.04 0 0.015 0.04 0 0.02 0.04 0 0.025 0.04 0 0.03 0.04 0 0.035 0.04 0 0.04 0.04 0 0.045 0.04 0 0.05 0.04 0 0.055 0.04 0 0.06 0.04 0 0.065 0.04 0 0.07 0.04 0 0.075 0.04 0 0.08 0.04 0 0.085 0.04 0 0.09 0.04 0 0.095 0.04 0 0.1 0.04 0 0.105 0.04 0 0.11 0.04 0 0.115 0.04 0 0.12 0.04 0 0.125 0.04 0 0.13 0.04 0 0.135 0.04 0 0.14 0.04 0 0.145 0.04 0 0.15 0.04 0 0.155 0.04 0 0.16 0.04 0 0.165 0.04 0 0.17 0.04 0 0.175 0.04 0 0.18 0.04 0 0.185 0.04 0 0.19 0.04 0 0.195 0.04 0 0.2 0.04 0 0.205 0.04 0 0.21 0.04 0 0.215 0.04 0 0.22 0.04 0 0.225 0.04 0 0.23 0.04 0 0.235 0.04 0 0.24 0.04 0 0.245 0.04 0 0.25 0.04 0 0.255 0.04 0 0.26 0.04 0 0.265 0.04 0 0.27 0.04 0 0.275 0.04 0 0.28 0.04 0 0.285 0.04 0 0.29 0.04 0 0.295 0.04 0 0.3 0.04 0 0.305 0.04 0 0.31 0.04 0 0.315 0.04 0 0.32 0.04 0 0.325 0.04 0 0.33 0.04 0 0.335 0.04 0 0.34 0.04 0 0.345 0.04 0 0.35 0.04 0 0.355 0.04 0 0.36 0.04 0 0.365 0.04 0 0.37 0.04 0 0.375 0.04 0 0.38 0.04 0 0.385 0.04 0 0.39 0.04 0 0.395 0.04 0 0.4 0.04 0 0.405 0.04 0 0.41 0.04 0 0.415 0.04 0 0.42 0.04 0 0.425 0.04 0 0.43 0.04 0 0.435 0.04 0 0.44 0.04 0 0.445 0.04 0 0.45 0.04 0 0.455 0.04 0 0.46 0.04 0 0.465 0.04 0 0.47 0.04 0 0.475 0.04 0 0.48 0.04 0 0.485 0.04 0 0.49 0.04 0 0.495 0.04 0 0.5 0.04 0 0.505 0.04 0 0.51 0.04 0 0.515 0.04 0 0.52 0.04 0 0.525 0.04 0 0.53 0.04 0 0.535 0.04 0 0.54 0.04 0 0.545 0.04 0 0.55 0.04 0 0.555 0.04 0 0.56 0.04 0 0.565 0.04 0 0.57 0.04 0 0.575 0.04 0 0.58 0.04 0 0.585 0.04 0 0.59 0.04 0 0.595 0.04 0 0.6 0.04 0 0.605 0.04 0 0.61 0.04 0 0.615 0.04 0 0.62 0.04 0 0.625 0.04 0 0.63 0.04 0 0.635 0.04 0 0.64 0.04 0 0.645 0.04 0 0.65 0.04 0 0.655 0.04 0 0.66 0.04 0 0.665 0.04 0 0.67 0.04 0 0.675 0.04 0 0.68 0.04 0 0.685 0.04 0 0.69 0.04 0 0.695 0.04 0 0.7 0.04 0 0.705 0.04 0 0.71 0.04 0 0.715 0.04 0 0.72 0.04 0 0.725 0.04 0 0.73 0.04 0 0.735 0.04 0 0.74 0.04 0 0.745 0.04 0 0.75 0.04 0 0.755 0.04 0 0.76 0.04 0 0.765 0.04 0 0.77 0.04 0 0.775 0.04 0 0.78 0.04 0 0.785 0.04 0 0.79 0.04 0 0.795 0.04 0 0.8 0.04 0 0.805 0.04 0 0.81 0.04 0 0.815 0.04 0 0.82 0.04 0 0.825 0.04 0 0.83 0.04 0 0.835 0.04 0 0.84 0.04 0 0.845 0.04 0 0.85 0.04 0 0.855 0.04 0 0.86 0.04 0 0.865 0.04 0 0.87 0.04 0 0.875 0.04 0 0.88 0.04 0 0.885 0.04 0 0.89 0.04 0 0.895 0.04 0 0.9 0.04 0 0.905 0.04 0 0.91 0.04 0 0.915 0.04 0 0.92 0.04 0 0.925 0.04 0 0.93 0.04 0 0.935 0.04 0 0.94 0.04 0 0.945 0.04 0 0.95 0.04 0 0.955 0.04 0 0.96 0.04 0 0.965 0.04 0 0.97 0.04 0 0.975 0.04 0 0.98 0.04 0 0.985 0.04 0 0.99 0.04 0 0.995 0.04 0 1 0.04 0 0 0.06 0 0.005 0.06 0 0.01 0.06 0 0.015 0.06 0 0.02 0.06 0 0.025 0.06 0 0.03 0.06 0 0.035 0.06 0 0.04 0.06 0 0.045 0.06 0 0.05 0.06 0 0.055 0.06 0 0.06 0.06 0 0.065 0.06 0 0.07 0.06 0 0.075 0.06 0 0.08 0.06 0 0.085 0.06 0 0.09 0.06 0 0.095 0.06 0 0.1 0.06 0 0.105 0.06 0 0.11 0.06 0 0.115 0.06 0 0.12 0.06 0 0.125 0.06 0 0.13 0.06 0 0.135 0.06 0 0.14 0.06 0 0.145 0.06 0 0.15 0.06 0 0.155 0.06 0 0.16 0.06 0 0.165 0.06 0 0.17 0.06 0 0.175 0.06 0 0.18 0.06 0 0.185 0.06 0 0.19 0.06 0 0.195 0.06 0 0.2 0.06 0 0.205 0.06 0 0.21 0.06 0 0.215 0.06 0 0.22 0.06 0 0.225 0.06 0 0.23 0.06 0 0.235 0.06 0 0.24 0.06 0 0.245 0.06 0 0.25 0.06 0 0.255 0.06 0 0.26 0.06 0 0.265 0.06 0 0.27 0.06 0 0.275 0.06 0 0.28 0.06 0 0.285 0.06 0 0.29 0.06 0 0.295 0.06 0 0.3 0.06 0 0.305 0.06 0 0.31 0.06 0 0.315 0.06 0 0.32 0.06 0 0.325 0.06 0 0.33 0.06 0 0.335 0.06 0 0.34 0.06 0 0.345 0.06 0 0.35 0.06 0 0.355 0.06 0 0.36 0.06 0 0.365 0.06 0 0.37 0.06 0 0.375 0.06 0 0.38 0.06 0 0.385 0.06 0 0.39 0.06 0 0.395 0.06 0 0.4 0.06 0 0.405 0.06 0 0.41 0.06 0 0.415 0.06 0 0.42 0.06 0 0.425 0.06 0 0.43 0.06 0 0.435 0.06 0 0.44 0.06 0 0.445 0.06 0 0.45 0.06 0 0.455 0.06 0 0.46 0.06 0 0.465 0.06 0 0.47 0.06 0 0.475 0.06 0 0.48 0.06 0 0.485 0.06 0 0.49 0.06 0 0.495 0.06 0 0.5 0.06 0 0.505 0.06 0 0.51 0.06 0 0.515 0.06 0 0.52 0.06 0 0.525 0.06 0 0.53 0.06 0 0.535 0.06 0 0.54 0.06 0 0.545 0.06 0 0.55 0.06 0 0.555 0.06 0 0.56 0.06 0 0.565 0.06 0 0.57 0.06 0 0.575 0.06 0 0.58 0.06 0 0.585 0.06 0 0.59 0.06 0 0.595 0.06 0 0.6 0.06 0 0.605 0.06 0 0.61 0.06 0 0.615 0.06 0 0.62 0.06 0 0.625 0.06 0 0.63 0.06 0 0.635 0.06 0 0.64 0.06 0 0.645 0.06 0 0.65 0.06 0 0.655 0.06 0 0.66 0.06 0 0.665 0.06 0 0.67 0.06 0 0.675 0.06 0 0.68 0.06 0 0.685 0.06 0 0.69 0.06 0 0.695 0.06 0 0.7 0.06 0 0.705 0.06 0 0.71 0.06 0 0.715 0.06 0 0.72 0.06 0 0.725 0.06 0 0.73 0.06 0 0.735 0.06 0 0.74 0.06 0 0.745 0.06 0 0.75 0.06 0 0.755 0.06 0 0.76 0.06 0 0.765 0.06 0 0.77 0.06 0 0.775 0.06 0 0.78 0.06 0 0.785 0.06 0 0.79 0.06 0 0.795 0.06 0 0.8 0.06 0 0.805 0.06 0 0.81 0.06 0 0.815 0.06 0 0.82 0.06 0 0.825 0.06 0 0.83 0.06 0 0.835 0.06 0 0.84 0.06 0 0.845 0.06 0 0.85 0.06 0 0.855 0.06 0 0.86 0.06 0 0.865 0.06 0 0.87 0.06 0 0.875 0.06 0 0.88 0.06 0 0.885 0.06 0 0.89 0.06 0 0.895 0.06 0 0.9 0.06 0 0.905 0.06 0 0.91 0.06 0 0.915 0.06 0 0.92 0.06 0 0.925 0.06 0 0.93 0.06 0 0.935 0.06 0 0.94 0.06 0 0.945 0.06 0 0.95 0.06 0 0.955 0.06 0 0.96 0.06 0 0.965 0.06 0 0.97 0.06 0 0.975 0.06 0 0.98 0.06 0 0.985 0.06 0 0.99 0.06 0 0.995 0.06 0 1 0.06 0 0 0.08 0 0.005 0.08 0 0.01 0.08 0 0.015 0.08 0 0.02 0.08 0 0.025 0.08 0 0.03 0.08 0 0.035 0.08 0 0.04 0.08 0 0.045 0.08 0 0.05 0.08 0 0.055 0.08 0 0.06 0.08 0 0.065 0.08 0 0.07 0.08 0 0.075 0.08 0 0.08 0.08 0 0.085 0.08 0 0.09 0.08 0 0.095 0.08 0 0.1 0.08 0 0.105 0.08 0 0.11 0.08 0 0.115 0.08 0 0.12 0.08 0 0.125 0.08 0 0.13 0.08 0 0.135 0.08 0 0.14 0.08 0 0.145 0.08 0 0.15 0.08 0 0.155 0.08 0 0.16 0.08 0 0.165 0.08 0
[...]
			<PointData Scalars="VitesseX">
				<DataArray Name="VitesseX" type="Float32" format="ascii">
 0 -9.17919e-15 -1.83052e-14 1.81177e-14 -1.15901e-13 -2.83361e-14 -1.13973e-14 -7.4966e-14 -9.43508e-14 1.46109e-15 -5.5803e-14 -1.58166e-13 1.40686e-13 -2.86659e-13 9.31303e-14 -8.75149e-14 -2.75158e-13 1.46378e-13 -2.69633e-13 2.25873e-14 -1.73128e-13 2.71729e-14 -8.36388e-14 2.74996e-13 6.83614e-14 5.60243e-14 -6.74997e-14 -2.00842e-13 -1.00268e-13 1.82158e-13 -3.7265e-13 2.62715e-13 -3.06295e-13 -3.92139e-13 2.98211e-13 -7.6709e-14 -8.65454e-14 -1.47135e-13 -1.13283e-13 -2.8626e-14 -7.77606e-14 -3.16126e-13 2.01197e-13 5.12117e-14 -6.93251e-14 -4.32947e-13 -6.92293e-13 -1.72859e-14 1.12041e-13 6.54364e-15 -3.06467e-13 -3.24373e-13 1.71119e-13 -1.42033e-13 5.51279e-13 3.40215e-13 -4.70532e-13 2.98834e-13 -5.85877e-13 3.16267e-13 -9.75208e-14 -3.76118e-13 -1.67467e-13 -2.63896e-13 -4.65409e-14 1.69811e-13 -1.56317e-13 3.68805e-13 -4.17793e-13 -1.81564e-13 -3.93974e-14 -4.99273e-13 4.93026e-13 5.31818e-12 7.21622e-11 7.85212e-10 7.89759e-09 7.16324e-08 5.8206e-07 4.20204e-06 2.66813e-05 0.00014718 0.000694742 0.00275723 0.00903867 0.0241998 0.0532167 0.0979804 0.155701 0.221411 0.290344 0.359483 0.427988 0.495305 0.560926 0.6243 0.684814 0.741834 0.794737 0.843048 0.88696 0.928041 0.944267 0.942828 0.941538 0.939403 0.937324 0.935782 0.933794 0.914406 0.94515 0.926189 0.925571 0.928234 0.935395 0.936521 0.935294 0.931045 0.915246 0.875104 0.800621 0.691477 0.55434 0.403946 0.260926 0.145622 0.0692621 0.0285314 0.0106784 0.00377639 0.00128996 0.000429526 0.000139825 4.45241e-05 1.38652e-05 4.22094e-06 1.25571e-06 3.64966e-07 1.03615e-07 2.87302e-08 7.78096e-09 2.05825e-09 5.30865e-10 1.34883e-10 3.3277e-11 7.10327e-12 2.11134e-12 -1.08601e-12 1.53251e-12 -4.21067e-14 -9.51575e-13 1.34869e-12 -8.56614e-13 7.43005e-13 -5.43894e-13 3.82466e-13 -1.24624e-12 -2.9112e-13 7.68478e-13 -1.71504e-13 -1.62776e-13 -9.15726e-13 -2.4046e-13 6.48761e-13 -5.82776e-13 -4.36838e-13 -2.76469e-13 5.81275e-13 9.48383e-13 -1.05454e-12 7.22297e-13 8.59212e-14 -5.47991e-13 1.22959e-12 -1.18994e-12 9.37334e-13 -4.85122e-13 -3.59796e-13 3.52698e-13 -1.58822e-12 1.18698e-12 3.8355e-13 -1.51455e-12 9.90797e-13 -1.20269e-12 1.23046e-12 -8.57271e-14 -1.23829e-12 6.87824e-13 -1.51956e-12 1.18841e-12 -4.07494e-13 -2.61646e-12 6.76913e-13 7.67105e-13 -1.68014e-13 -1.28504e-12 -1.98635e-12 1.1593e-12 6.25379e-13 0 0 -4.2475e-15 -1.17441e-14 -6.32129e-14 2.38196e-14 -8.80764e-14 -8.58256e-14 -8.45267e-14 -1.56932e-14 -5.56897e-14 -7.17319e-14 1.28519e-14 -1.90358e-13 1.65184e-13 -2.69207e-13 -2.4418e-14 6.96769e-14 -3.38365e-13 5.69178e-14 -1.58859e-13 -3.51387e-14 -6.73168e-14 -6.11403e-15 -6.36523e-14 1.01544e-13 7.44612e-14 3.40233e-15 -1.96893e-14 -1.25677e-13 -2.22291e-13 2.0748e-13 -3.44126e-13 3.34137e-14 3.70414e-14 -4.49948e-13 -6.96313e-14 1.66079e-13 -1.02895e-14 -7.89096e-14 -2.56301e-13 -1.83638e-13 7.17395e-14 -2.02666e-13 -9.94285e-14 -1.55172e-13 -1.79749e-13 -5.64303e-15 -4.72895e-13 -1.92896e-13 -1.34739e-13 3.74572e-13 -6.16325e-15 3.1597e-13 4.50874e-14 -3.14507e-13 3.55979e-14 2.32521e-13 -6.22052e-13 3.51616e-13 -2.77346e-13 -2.54357e-13 -2.46218e-13 -9.19595e-14 1.1788e-13 -1.27803e-13 -1.00446e-13 2.16926e-13 -3.84251e-13 3.71396e-13 2.71523e-14 -3.73647e-13 1.41519e-13 -1.00709e-13 6.50318e-12 7.06533e-11 7.86023e-10 7.89842e-09 7.1632e-08 5.82059e-07 4.20204e-06 2.66813e-05 0.00014718 0.000694742 0.00275723 0.00903867 0.0241998 0.0532167 0.0979804 0.155701 0.221411 0.290344 0.359483 0.427988 0.495305 0.560926 0.6243 0.684814 0.741834 0.794737 0.843048 0.88696 0.928041 0.944267 0.942828 0.941538 0.939403 0.937324 0.935782 0.933794 0.914406 0.94515 0.926189 0.925571 0.928234 0.935395 0.936521 0.935294 0.931045 0.915246 0.875104 0.800621 0.691477 0.55434 0.403946 0.260926 0.145622 0.0692621 0.0285314 0.0106784 0.00377639 0.00128996 0.000429526 0.000139825 4.45241e-05 1.38652e-05 4.22094e-06 1.25571e-06 3.64966e-07 1.03614e-07 2.87312e-08 7.78059e-09 2.058e-09 5.32465e-10 1.33626e-10 3.28915e-11 8.26856e-12 1.21939e-12 1.22737e-12 -9.28763e-13 8.97038e-14 9.60101e-13 -7.31914e-13 4.31592e-13 -4.83004e-13 -6.5752e-14 -3.07653e-13 1.34368e-13 -2.09178e-13 -7.23462e-13 -1.91885e-13 -9.85847e-14 3.69236e-13 -3.44023e-13 -7.56617e-13 -2.10198e-13 -5.71487e-14 -2.70922e-14 7.86316e-14 -2.38058e-13 1.13066e-12 -5.72619e-13 1.08717e-13 7.47009e-13 -9.80169e-13 8.13444e-13 -5.85396e-13 1.90449e-13 -1.88709e-13 -5.83442e-13 6.99461e-13 -6.27687e-13 -7.42378e-13 8.5025e-13 -9.99277e-13 7.14629e-13 -3.79099e-13 -2.66608e-13 6.09354e-13 -4.76614e-13 8.9787e-13 -1.93664e-12 -3.72261e-13 1.22403e-12 -6.66817e-13 -1.20046e-12 -4.37302e-13 8.93956e-14 1.1225e-12 -1.876e-12 -2.49031e-13 0 0 -2.51363e-14 -3.95568e-14 -1.02987e-14 -8.433e-14 -1.89153e-14 -1.80661e-14 -1.09331e-13 -8.4848e-14 -7.45733e-14 -2.5453e-14 -4.20329e-14 3.9331e-14 -1.51993e-13 -2.16118e-14 3.4877e-14 -1.50253e-13 -7.76313e-14 -4.28036e-14 -1.82692e-13 -1.29964e-13 -9.4008e-14 1.87618e-14 4.35904e-15 -4.34452e-14 2.01181e-14 3.47551e-15 -5.95528e-14 -2.01661e-13 -9.91217e-14 -1.83716e-13 2.19946e-14 5.26372e-14 -3.24026e-13 7.26584e-14 -2.12254e-13 6.58629e-14 -6.55313e-14 -1.73121e-13 -5.1656e-14 -8.55323e-14 3.40158e-14 -1.8803e-13 -2.43316e-13 -1.86175e-13 -2.33709e-13 -1.47791e-13 -1.71511e-13 1.16563e-13 1.82396e-13 1.00422e-13 2.27376e-13 -1.24724e-13 -1.64634e-13 1.12364e-13 -4.18203e-14 -2.56276e-13 1.28141e-13 -2.27785e-13 3.98842e-15 -4.02414e-13 -1.6083e-13 -1.03131e-13 -1.46994e-13 -4.76065e-14 8.56986e-14 -3.11092e-14 6.23656e-13 -1.09705e-13 -9.53113e-15 -3.03612e-13 1.75663e-13 7.50725e-13 5.78307e-12 7.16444e-11 7.86101e-10 7.89788e-09 7.16317e-08 5.8206e-07 4.20204e-06 2.66813e-05 0.00014718 0.000694742 0.00275723 0.00903867 0.0241998 0.0532167 0.0979804 0.155701 0.221411 0.290344 0.359483 0.427988 0.495305 0.560926 0.6243 0.684814 0.741834 0.794737 0.843048 0.88696 0.928041 0.944267 0.942828 0.941538 0.939403 0.937324 0.935782 0.933794 0.914406 0.94515 0.926189 0.925571 0.928234 0.935395 0.936521 0.935294 0.931045 0.915246 0.875104 0.800621 0.691477 0.55434 0.403946 0.260926 0.145622 0.0692621 0.0285314 0.0106784 0.00377639 0.00128996 0.000429526 0.000139825 4.45241e-05 1.38652e-05 4.22094e-06 1.25571e-06 3.64966e-07 1.03614e-07 2.87307e-08 7.78085e-09 2.05836e-09 5.3157e-10 1.34554e-10 3.31808e-11 7.74333e-12 1.90723e-12 -1.46563e-13 3.2479e-13 2.60271e-13 -7.99672e-14 -1.5073e-13 -4.72521e-13 1.29526e-13 -5.89425e-13 -1.12519e-13 -5.09829e-13 -2.36405e-13 -1.57283e-13 -2.10472e-13 -4.43974e-13 -3.15633e-13 -2.53013e-13 8.33471e-14 -4.17326e-13 1.62797e-13 -4.67151e-13 -1.59335e-13 6.87571e-14 2.23184e-13 4.26308e-13 2.76475e-13 -1.78556e-13 2.40227e-13 -6.4564e-13 6.61083e-13 -2.52359e-13 -4.39031e-13 -1.33933e-13 6.40522e-15 -2.44519e-13 -1.22812e-13 -4.15677e-13 7.83561e-13 -2.43467e-13 -9.15367e-13 4.74763e-13 2.57069e-13 6.24916e-13 -5.71794e-13 -1.27665e-13 -2.64039e-13 -7.07828e-13 1.2234e-13 4.23187e-14 -4.66442e-13 -6.47229e-13 -2.01326e-13 1.08713e-12 2.67501e-13 0 0 -1.6273e-14 -2.7364e-14 -2.46283e-14 -7.98842e-14 -5.34902e-14 -8.16048e-14 -4.0745e-14 -1.51687e-14 4.49702e-14 -5.95447e-15 -4.76705e-14 -7.20577e-14 -2.07421e-13 9.75465e-14 6.1212e-15 -2.10014e-13 -9.20302e-14 -2.30459e-13 -1.85592e-13 -2.59652e-13 8.86068e-14 -4.92721e-14 8.82425e-14 6.82235e-14 -1.59182e-13 -8.92024e-14 -1.88734e-13 -1.00665e-13 5.92841e-14 -1.28921e-13 9.92095e-14 -6.76666e-14 -4.53934e-14 -1.01139e-13 -1.91619e-13 5.44869e-14 1.24159e-13 -8.64789e-14 -1.00734e-13 -4.30953e-14 -4.22126e-13 -1.99195e-13 -1.24996e-13 1.22011e-13 6.93087e-14 -5.58438e-13 9.34125e-14 7.3598e-14 1.2179e-13 -7.84111e-14 -3.64136e-13 -1.9762e-13 3.67213e-13 1.40589e-13 -1.32273e-13 -2.64196e-13 1.6312e-13 -3.36727e-13 -1.2211e-13 -2.16563e-13 -2.09784e-13 1.23779e-14 -1.72608e-13 8.31501e-14 6.58733e-14 -1.33001e-13 3.07066e-13 5.08868e-14 -9.17246e-14 1.29922e-13 1.8223e-13 7.80576e-13 5.79328e-12 7.17924e-11 7.8591e-10 7.89805e-09 7.16323e-08 5.8206e-07 4.20204e-06 2.66813e-05 0.00014718 0.000694742 0.00275723 0.00903867 0.0241998 0.0532167 0.0979804 0.155701 0.221411 0.290344 0.359483 0.427988 0.495305 0.560926 0.6243 0.684814 0.741834 0.794737 0.843048 0.88696 0.928041 0.944267 0.942828 0.941538 0.939403 0.937324 0.935782 0.933794 0.914406 0.94515 0.926189 0.925571 0.928234 0.935395 0.936521 0.935294 0.931045 0.915246 0.875104 0.800621 0.691477 0.55434 0.403946 0.260926 0.145622 0.0692621 0.0285314 0.0106784 0.00377639 0.00128996 0.000429526 0.000139825 4.45241e-05 1.38652e-05 4.22094e-06 1.25571e-06 3.64966e-07 1.03615e-07 2.87306e-08 7.78087e-09 2.05834e-09 5.31543e-10 1.34769e-10 3.31351e-11 7.78899e-12 2.1532e-12 -3.13306e-13 7.7776e-13 -5.37426e-14 -6.89407e-13 -6.01669e-14 -8.01465e-13 -7.51982e-14 -5.13054e-13 7.35184e-15 -8.51576e-13 -2.96281e-13 9.11747e-13 -2.029e-13 -2.4245e-13 -9.31571e-13 -5.18932e-14 -1.38735e-13 -1.49387e-13 -5.47138e-13 -2.59981e-13 1.11761e-12 7.99752e-14 -1.28651e-12 2.86797e-13 -1.57093e-13 1.78174e-13 3.90642e-13 -1.58222e-13 2.23969e-13 -2.3161e-13 -7.2594e-13 -2.007e-13 -5.82029e-13 3.82406e-13 2.1517e-13 -5.27734e-13 3.32055e-13 -9.88777e-14 6.79214e-13 -1.95972e-13 1.4425e-13 -6.75721e-13 -5.84469e-13 6.278e-13 -7.07829e-13 -2.2265e-13 -7.71109e-14 2.34317e-13 2.6002e-13 -5.68587e-13 -9.1259e-13 7.11861e-13 6.52475e-13 0 0 -5.11345e-15 -1.13869e-14 -8.20481e-14 1.35919e-14 -9.91745e-14 -1.00545e-13 2.24332e-15 6.17304e-14 7.74354e-14 -7.76643e-14 1.57733e-14 -2.21647e-13 1.77615e-13 -2.1474e-13 -1.34777e-13 6.40707e-14 -3.85339e-13 -1.25711e-13 -2.14476e-13 -1.2357e-13 -1.29166e-14 -9.47845e-14 -2.0777e-13 4.20398e-14 -1.52081e-13 -1.43133e-13 -4.94633e-14 -5.59841e-14 -5.20946e-14 2.5803e-13 -1.50653e-13 7.37181e-14 3.45714e-13 -4.52693e-13 5.61634e-15 1.92779e-13 1.60769e-13 -9.5491e-14 -4.32842e-13 -2.38197e-13 -2.13751e-13 -3.52328e-13 -1.58986e-13 5.61749e-14 8.72533e-15 -1.87076e-13 -2.78515e-13 -1.81329e-13 -1.6585e-13 3.68287e-13 -1.77286e-13 2.30073e-13 1.57727e-13 -6.29031e-13 -1.63375e-13 1.21913e-13 -7.88062e-13 3.60819e-13 -3.70846e-13 -1.1572e-13 -2.50315e-13 2.16597e-13 1.90059e-13 9.60343e-14 -1.01185e-13 1.34835e-13 -6.23364e-13 3.98718e-13 8.16611e-14 -1.70479e-13 4.73979e-13 3.83362e-13 6.69099e-12 7.07641e-11 7.86343e-10 7.89863e-09 7.16326e-08 5.82059e-07 4.20204e-06 2.66813e-05 0.00014718 0.000694742 0.00275723 0.00903867 0.0241998 0.0532167 0.0979804 0.155701 0.221411 0.290344 0.359483 0.427988 0.495305 0.560926 0.6243 0.684814 0.741834 0.794737 0.843048 0.88696 0.928041 0.944267 0.942828 0.941538 0.939403 0.937324 0.935782 0.933794 0.914406 0.94515 0.926189 0.925571 0.928234 0.935395 0.936521 0.935294 0.931045 0.915246 0.875104 0.800621 0.691477 0.55434 0.403946 0.260926 0.145622 0.0692621 0.0285314 0.0106784 0.00377639 0.00128996 0.000429526 0.000139825 4.45241e-05 1.38652e-05 4.22094e-06 1.25571e-06 3.64967e-07 1.03614e-07 2.87312e-08 7.78052e-09 2.05826e-09 5.3247e-10 1.33707e-10 3.34191e-11 8.40364e-12 1.25417e-12 1.64976e-12 -8.79585e-13 -3.7436e-13 2.44829e-13 -1.08269e-12 1.26157e-13 -5.51444e-13 -9.32375e-14 -2.95473e-13 -2.12599e-13 -3.75406e-13 -4.09583e-13 2.38055e-13 -2.49869e-13 8.16009e-13 -2.9037e-13 -9.18397e-13 -2.46705e-14 -4.07832e-13 -2.5889e-13 7.58043e-13 -4.89012e-13 7.17616e-14 -4.13199e-13 -4.68084e-13 8.58362e-13 -1.26497e-12 7.7645e-13 -1.29323e-12 2.7635e-13 -2.73959e-13 -7.33134e-13 3.05401e-13 -3.86156e-13 -7.05908e-13 1.14085e-12 -1.04074e-12 1.20828e-12 3.2069e-13 -7.25689e-13 7.51537e-13 -1.12781e-12 1.25339e-12 -1.56453e-12 -7.20013e-13 1.92509e-12 -8.93864e-13 -8.78511e-13 4.0204e-14 4.37459e-13 7.25258e-13 -1.70826e-12 -3.02395e-13 0 0 -2.86376e-14 -4.19763e-14 9.10629e-15 -1.45248e-13 1.86175e-14 8.62408e-14 -3.85985e-14 -7.88622e-14 2.86244e-14 -1.06665e-13 -1.41048e-13 3.00885e-13 -1.50941e-13 -3.62519e-14 -2.50722e-13 -1.66847e-13 8.12274e-14 -2.59579e-13 -8.28456e-14 -9.06127e-14 -2.29256e-13 -1.24912e-13 -1.81007e-13 -2.73984e-13 -3.84591e-14 -1.75214e-13 -2.02747e-15 -1.62874e-13 2.0574e-13 -3.81139e-13 4.95232e-13 1.49209e-14 -3.32058e-13 6.40317e-13 3.25168e-14 -1.03931e-14 -1.84398e-13 -3.19731e-13 -2.83551e-13 -2.71752e-13 2.5177e-14 -7.57969e-14 -3.04543e-13 -2.63002e-13 -6.62033e-13 -2.33865e-13 -1.58373e-13 2.21104e-13 6.55339e-14 3.86298e-14 5.16404e-13 1.45115e-13 -9.80447e-13 -1.34219e-13 1.23174e-13 -6.75908e-13 -1.03142e-13 -3.49586e-13 3.81463e-13 -1.91949e-13 -2.86405e-13 2.18628e-13 -6.83087e-14 1.39621e-13 2.07984e-13 -1.16716e-13 5.23758e-13 -6.84331e-13 9.18409e-14 -5.00128e-13 1.52514e-13 1.40147e-12 5.67336e-12 7.20879e-11 7.86233e-10 7.89767e-09 7.16324e-08 5.8206e-07 4.20204e-06 2.66813e-05 0.00014718 0.000694742 0.00275723 0.00903867 0.0241998 0.0532167 0.0979804 0.155701 0.221411 0.290344 0.359483 0.427988 0.495305 0.560926 0.6243 0.684814 0.741834 0.794737 0.843048 0.88696 0.928041 0.944267 0.942828 0.941538 0.939403 0.937324 0.935782 0.933794 0.914406 0.94515 0.926189 0.925571 0.928234 0.935395 0.936521 0.935294 0.931045 0.915246 0.875104 0.800621 0.691477 0.55434 0.403946 0.260926 0.145622 0.0692621 0.0285314 0.0106784 0.00377639 0.00128996 0.000429526 0.000139825 4.45241e-05 1.38652e-05 4.22094e-06 1.25571e-06 3.64966e-07 1.03615e-07 2.87304e-08 7.78077e-09 2.05883e-09 5.30929e-10 1.34615e-10 3.44236e-11 7.28208e-12 1.68896e-12 9.22554e-14 7.2492e-13 -3.42207e-13 -1.16324e-12 4.66012e-13 -8.09596e-13 1.01557e-12 -7.51606e-13 1.67086e-13 -1.25668e-12 -5.03823e-13 -7.41824e-13 6.73231e-13 -8.68392e-13 1.2097e-12 -5.35395e-13 7.69364e-13 -7.47598e-13 2.81667e-13 -1.15441e-12 -6.13792e-13 4.24039e-13 -1.52945e-13 1.32016e-12 -2.00545e-13 -1.03874e-12 3.59157e-13 -2.23876e-12 3.9589e-13 -3.54819e-13 4.35222e-14 1.86848e-13 -1.19947e-12 4.16192e-13 -2.19476e-13 -7.0924e-13 1.81089e-12 -5.04564e-13 -5.59125e-13 3.3758e-13 -7.28286e-13 1.98671e-12 -7.83181e-13 4.21698e-13 -2.15418e-13 -2.18468e-12 6.21719e-13 1.02701e-12 -6.65927e-13 -7.46201e-13 -1.3583e-12 2.24531e-12 -2.51297e-13 0
				</DataArray>
				<DataArray Name="VitesseY" type="Float32" format="ascii">