<?xml version="1.0"?>
<VTKFile type="PolyData">
	<PolyData>
		<Piece NumberOfPoints="1206" NumberOfPolys="1000">
			<Points>
				<DataArray type="Float32" NumberOfComponents="3" format="ascii">
 0 0 0 0.005 0 0 0.01 0 0 0.015 0 0 0.02 0 0 0.025 0 0 0.03 0 0 0.035 0 0 0.04 0 0 0.045 0 0 0.05 0 0 0.055 0 0 0.06 0 0 0.065 0 0 0.07 0 0 0.075 0 0 0.08 0 0 0.085 0 0 0.09 0 0 0.095 0 0 0.1 0 0 0.105 0 0 0.11 0 0 0.115 0 0 0.12 0 0 0.125 0 0 0.13 0 0 0.135 0 0 0.14 0 0 0.145 0 0 0.15 0 0 0.155 0 0 0.16 0 0 0.165 0 0 0.17 0 0 0.175 0 0 0.18 0 0 0.185 0 0 0.19 0 0 0.195 0 0 0.2 0 0 0.205 0 0 0.21 0 0 0.215 0 0 0.22 0 0 0.225 0 0 0.23 0 0 0.235 0 0 0.24 0 0 0.245 0 0 0.25 0 0 0.255 0 0 0.26 0 0 0.265 0 0 0.27 0 0 0.275 0 0 0.28 0 0 0.285 0 0 0.29 0 0 0.295 0 0 0.3 0 0 0.305 0 0 0.31 0 0 0.315 0 0 0.32 0 0 0.325 0 0 0.33 0 0 0.335 0 0 0.34 0 0 0.345 0 0 0.35 0 0 0.355 0 0 0.36 0 0 0.365 0 0 0.37 0 0 0.375 0 0 0.38 0 0 0.385 0 0 0.39 0 0 0.395 0 0 0.4 0 0 0.405 0 0 0.41 0 0 0.415 0 0 0.42 0 0 0.425 0 0 0.43 0 0 0.435 0 0 0.44 0 0 0.445 0 0 0.45 0 0 0.455 0 0 0.46 0 0 0.465 0 0 0.47 0 0 0.475 0 0 0.48 0 0 0.485 0 0 0.49 0 0 0.495 0 0 0.5 0 0 0.505 0 0 0.51 0 0 0.515 0 0 0.52 0 0 0.525 0 0 0.53 0 0 0.535 0 0 0.54 0 0 0.545 0 0 0.55 0 0 0.555 0 0 0.56 0 0 0.565 0 0 0.57 0 0 0.575 0 0 0.58 0 0 0.585 0 0 0.59 0 0 0.595 0 0 0.6 0 0 0.605 0 0 0.61 0 0 0.615 0 0 0.62 0 0 0.625 0 0 0.63 0 0 0.635 0 0 0.64 0 0 0.645 0 0 0.65 0 0 0.655 0 0 0.66 0 0 0.665 0 0 0.67 0 0 0.675 0 0 0.68 0 0 0.685 0 0 0.69 0 0 0.695 0 0 0.7 0 0 0.705 0 0 0.71 0 0 0.715 0 0 0.72 0 0 0.725 0 0 0.73 0 0 0.735 0 0 0.74 0 0 0.745 0 0 0.75 0 0 0.755 0 0 0.76 0 0 0.765 0 0 0.77 0 0 0.775 0 0 0.78 0 0 0.785 0 0 0.79 0 0 0.795 0 0 0.8 0 0 0.805 0 0 0.81 0 0 0.815 0 0 0.82 0 0 0.825 0 0 0.83 0 0 0.835 0 0 0.84 0 0 0.845 0 0 0.85 0 0 0.855 0 0 0.86 0 0 0.865 0 0 0.87 0 0 0.875 0 0 0.88 0 0 0.885 0 0 0.89 0 0 0.895 0 0 0.9 0 0 0.905 0 0 0.91 0 0 0.915 0 0 0.92 0 0 0.925 0 0 0.93 0 0 0.935 0 0 0.94 0 0 0.945 0 0 0.95 0 0 0.955 0 0 0.96 0 0 0.965 0 0 0.97 0 0 0.975 0 0 0.98 0 0 0.985 0 0 0.99 0 0 0.995 0 0 1 0 0 0 0.02 0 0.005 0.02 0 0.01 0.02 0 0.015 0.02 0 0.02 0.02 0 0.025 0.02 0 0.03 0.02 0 0.035 0.02 0 0.04 0.02 0 0.045 0.02 0 0.05 0.02 0 0.055 0.02 0 0.06 0.02 0 0.065 0.02 0 0.07 0.02 0 0.075 0.02 0 0.08 0.02 0 0.085 0.02 0 0.09 0.02 0 0.095 0.02 0 0.1 0.02 0 0.105 0.02 0 0.11 0.02 0 0.115 0.02 0 0.12 0.02 0 0.125 0.02 0 0.13 0.02 0 0.135 0.02 0 0.14 0.02 0 0.145 0.02 0 0.15 0.02 0 0.155 0.02 0 0.16 0.02 0 0.165 0.02 0 0.17 0.02 0 0.175 0.02 0 0.18 0.02 0 0.185 0.02 0 0.19 0.02 0 0.195 0.02 0 0.2 0.02 0 0.205 0.02 0 0.21 0.02 0 0.215 0.02 0 0.22 0.02 0 0.225 0.02 0 0.23 0.02 0 0.235 0.02 0 0.24 0.02 0 0.245 0.02 0 0.25 0.02 0 0.255 0.02 0 0.26 0.02 0 0.265 0.02 0 0.27 0.02 0 0.275 0.02 0 0.28 0.02 0 0.285 0.02 0 0.29 0.02 0 0.295 0.02 0 0.3 0.02 0 0.305 0.02 0 0.31 0.02 0 0.315 0.02 0 0.32 0.02 0 0.325 0.02 0 0.33 0.02 0 0.335 0.02 0 0.34 0.02 0 0.345 0.02 0 0.35 0.02 0 0.355 0.02 0 0.36 0.02 0 0.365 0.02 0 0.37 0.02 0 0.375 0.02 0 0.38 0.02 0 0.385 0.02 0 0.39 0.02 0 0.395 0.02 0 0.4 0.02 0 0.405 0.02 0 0.41 0.02 0 0.415 0.02 0 0.42 0.02 0 0.425 0.02 0 0.43 0.02 0 0.435 0.02 0 0.44 0.02 0 0.445 0.02 0 0.45 0.02 0 0.455 0.02 0 0.46 0.02 0 0.465 0.02 0 0.47 0.02 0 0.475 0.02 0 0.48 0.02 0 0.485 0.02 0 0.49 0.02 0 0.495 0.02 0 0.5 0.02 0 0.505 0.02 0 0.51 0.02 0 0.515 0.02 0 0.52 0.02 0 0.525 0.02 0 0.53 0.02 0 0.535 0.02 0 0.54 0.02 0 0.545 0.02 0 0.55 0.02 0 0.555 0.02 0 0.56 0.02 0 0.565 0.02 0 0.57 0.02 0 0.575 0.02 0 0.58 0.02 0 0.585 0.02 0 0.59 0.02 0 0.595 0.02 0 0.6 0.02 0 0.605 0.02 0 0.61 0.02 0 0.615 0.02 0 0.62 0.02 0 0.625 0.02 0 0.63 0.02 0 0.635 0.02 0 0.64 0.02 0 0.645 0.02 0 0.65 0.02 0 0.655 0.02 0 0.66 0.02 0 0.665 0.02 0 0.67 0.02 0 0.675 0.02 0 0.68 0.02 0 0.685 0.02 0 0.69 0.02 0 0.695 0.02 0 0.7 0.02 0 0.705 0.02 0 0.71 0.02 0 0.715 0.02 0 0.72 0.02 0 0.725 0.02 0 0.73 0.02 0 0.735 0.02 0 0.74 0.02 0 0.745 0.02 0 0.75 0.02 0 0.755 0.02 0 0.76 0.02 0 0.765 0.02 0 0.77 0.02 0 0.775 0.02 0 0.78 0.02 0 0.785 0.02 0 0.79 0.02 0 0.795 0.02 0 0.8 0.02 0 0.805 0.02 0 0.81 0.02 0 0.815 0.02 0 0.82 0.02 0 0.825 0.02 0 0.83 0.02 0 0.835 0.02 0 0.84 0.02 0 0.845 0.02 0 0.85 0.02 0 0.855 0.02 0 0.86 0.02 0 0.865 0.02 0 0.87 0.02 0 0.875 0.02 0 0.88 0.02 0 0.885 0.02 0 0.89 0.02 0 0.895 0.02 0 0.9 0.02 0 0.905 0.02 0 0.91 0.02 0 0.915 0.02 0 0.92 0.02 0 0.925 0.02 0 0.93 0.02 0 0.935 0.02 0 0.94 0.02 0 0.945 0.02 0 0.95 0.02 0 0.955 0.02 0 0.96 0.02 0 0.965 0.02 0 0.97 0.02 0 0.975 0.02 0 0.98 0.02 0 0.985 0.02 0 0.99 0.02 0 0.995 0.02 0 1 0.02 0 0 0.04 0 0.005 0.04 0 0.01 0.04 0 0.015 0.04 0 0.02 0.04 0 0.025 0.04 0 0.03 0.04 0 0.035 0.04 0 0.04 0.04 0 0.045 0.04 0 0.05 0.04 0 0.055 0.04 0 0.06 0.04 0 0.065 0.04 0 0.07 0.04 0 0.075 0.04 0 0.08 0.04 0 0.085 0.04 0 0.09 0.04 0 0.095 0.04 0 0.1 0.04 0 0.105 0.04 0 0.11 0.04 0 0.115 0.04 0 0.12 0.04 0 0.125 0.04 0 0.13 0.04 0 0.135 0.04 0 0.14 0.04 0 0.145 0.04 0 0.15 0.04 0 0.155 0.04 0 0.16 0.04 0 0.165 0.04 0 0.17 0.04 0 0.175 0.04 0 0.18 0.04 0 0.185 0.04 0 0.19 0.04 0 0.195 0.04 0 0.2 0.04 0 0.205 0.04 0 0.21 0.04 0 0.215 0.04 0 0.22 0.04 0 0.225 0.04 0 0.23 0.04 0 0.235 0.04 0 0.24 0.04 0 0.245 0.04 0 0.25 0.04 0 0.255 0.04 0 0.26 0.04 0 0.265 0.04 0 0.27 0.04 0 0.275 0.04 0 0.28 0.04 0 0.285 0.04 0 0.29 0.04 0 0.295 0.04 0 0.3 0.04 0 0.305 0.04 0 0.31 0.04 0 0.315 0.04 0 0.32 0.04 0 0.325 0.04 0 0.33 0.04 0 0.335 0.04 0 0.34 0.04 0 0.345 0.04 0 0.35 0.04 0 0.355 0.04 0 0.36 0.04 0 0.365 0.04 0 0.37 0.04 0 0.375 0.04 0 0.38 0.04 0 0.385 0.04 0 0.39 0.04 0 0.395 0.04 0 0.4 0.04 0 0.405 0.04 0 0.41 0.04 0 0.415 0.04 0 0.42 0.04 0 0.425 0.04 0 0.43 0.04 0 0.435 0.04 0 0.44 0.04 0 0.445 0.04 0 0.45 0.04 0 0.455 0.04 0 0.46 0.04 0 0.465 0.04 0 0.47 0.04 0 0.475 0.04 0 0.48 0.04 0 0.485 0.04 0 0.49 0.04 0 0.495 0.04 0 0.5 0.04 0 0.505 0.04 0 0.51 0.04 0 0.515 0.04 0 0.52 0.04 0 0.525 0.04 0 0.53 0.04 0 0.535 0.04 0 0.54 0.04 0 0.545 0.04 0 0.55 0.04 0 0.555 0.04 0 0.56 0.04 0 0.565 0.04 0 0.57 0.04 0 0.575 0.04 0 0.58 0.04 0 0.585 0.04 0 0.59 0.04 0 0.595 0.04 0 0.6 0.04 0 0.605 0.04 0 0.61 0.04 0 0.615 0.04 0 0.62 0.04 0 0.625 0.04 0 0.63 0.04 0 0.635 0.04 0 0.64 0.04 0 0.645 0.04 0 0.65 0.04 0 0.655 0.04 0 0.66 0.04 0 0.665 0.04 0 0.67 0.04 0 0.675 0.04 0 0.68 0.04 0 0.685 0.04 0 0.69 0.04 0 0.695 0.04 0 0.7 0.04 0 0.705 0.04 0 0.71 0.04 0 0.715 0.04 0 0.72 0.04 0 0.725 0.04 0 0.73 0.04 0 0.735 0.04 0 0.74 0.04 0 0.745 0.04 0 0.75 0.04 0 0.755 0.04 0 0.76 0.04 0 0.765 0.04 0 0.77 0.04 0 0.775 0.04 0 0.78 0.04 0 0.785 0.04 0 0.79 0.04 0 0.795 0.04 0 0.8 0.04 0 0.805 0.04 0 0.81 0.04 0 0.815 0.04 0 0.82 0.04 0 0.825 0.04 0 0.83 0.04 0 0.835 0.04 0 0.84 0.04 0 0.845 0.04 0 0.85 0.04 0 0.855 0.04 0 0.86 0.04 0 0.865 0.04 0 0.87 0.04 0 0.875 0.04 0 0.88 0.04 0 0.885 0.04 0 0.89 0.04 0 0.895 0.04 0 0.9 0.04 0 0.905 0.04 0 0.91 0.04 0 0.915 0.04 0 0.92 0.04 0 0.925 0.04 0 0.93 0.04 0 0.935 0.04 0 0.94 0.04 0 0.945 0.04 0 0.95 0.04 0 0.955 0.04 0 0.96 0.04 0 0.965 0.04 0 0.97 0.04 0 0.975 0.04 0 0.98 0.04 0 0.985 0.04 0 0.99 0.04 0 0.995 0.04 0 1 0.04 0 0 0.06 0 0.005 0.06 0 0.01 0.06 0 0.015 0.06 0 0.02 0.06 0 0.025 0.06 0 0.03 0.06 0 0.035 0.06 0 0.04 0.06 0 0.045 0.06 0 0.05 0.06 0 0.055 0.06 0 0.06 0.06 0 0.065 0.06 0 0.07 0.06 0 0.075 0.06 0 0.08 0.06 0 0.085 0.06 0 0.09 0.06 0 0.095 0.06 0 0.1 0.06 0 0.105 0.06 0 0.11 0.06 0 0.115 0.06 0 0.12 0.06 0 0.125 0.06 0 0.13 0.06 0 0.135 0.06 0 0.14 0.06 0 0.145 0.06 0 0.15 0.06 0 0.155 0.06 0 0.16 0.06 0 0.165 0.06 0 0.17 0.06 0 0.175 0.06 0 0.18 0.06 0 0.185 0.06 0 0.19 0.06 0 0.195 0.06 0 0.2 0.06 0 0.205 0.06 0 0.21 0.06 0 0.215 0.06 0 0.22 0.06 0 0.225 0.06 0 0.23 0.06 0 0.235 0.06 0 0.24 0.06 0 0.245 0.06 0 0.25 0.06 0 0.255 0.06 0 0.26 0.06 0 0.265 0.06 0 0.27 0.06 0 0.275 0.06 0 0.28 0.06 0 0.285 0.06 0 0.29 0.06 0 0.295 0.06 0 0.3 0.06 0 0.305 0.06 0 0.31 0.06 0 0.315 0.06 0 0.32 0.06 0 0.325 0.06 0 0.33 0.06 0 0.335 0.06 0 0.34 0.06 0 0.345 0.06 0 0.35 0.06 0 0.355 0.06 0 0.36 0.06 0 0.365 0.06 0 0.37 0.06 0 0.375 0.06 0 0.38 0.06 0 0.385 0.06 0 0.39 0.06 0 0.395 0.06 0 0.4 0.06 0 0.405 0.06 0 0.41 0.06 0 0.415 0.06 0 0.42 0.06 0 0.425 0.06 0 0.43 0.06 0 0.435 0.06 0 0.44 0.06 0 0.445 0.06 0 0.45 0.06 0 0.455 0.06 0 0.46 0.06 0 0.465 0.06 0 0.47 0.06 0 0.475 0.06 0 0.48 0.06 0 0.485 0.06 0 0.49 0.06 0 0.495 0.06 0 0.5 0.06 0 0.505 0.06 0 0.51 0.06 0 0.515 0.06 0 0.52 0.06 0 0.525 0.06 0 0.53 0.06 0 0.535 0.06 0 0.54 0.06 0 0.545 0.06 0 0.55 0.06 0 0.555 0.06 0 0.56 0.06 0 0.565 0.06 0 0.57 0.06 0 0.575 0.06 0 0.58 0.06 0 0.585 0.06 0 0.59 0.06 0 0.595 0.06 0 0.6 0.06 0 0.605 0.06 0 0.61 0.06 0 0.615 0.06 0 0.62 0.06 0 0.625 0.06 0 0.63 0.06 0 0.635 0.06 0 0.64 0.06 0 0.645 0.06 0 0.65 0.06 0 0.655 0.06 0 0.66 0.06 0 0.665 0.06 0 0.67 0.06 0 0.675 0.06 0 0.68 0.06 0 0.685 0.06 0 0.69 0.06 0 0.695 0.06 0 0.7 0.06 0 0.705 0.06 0 0.71 0.06 0 0.715 0.06 0 0.72 0.06 0 0.725 0.06 0 0.73 0.06 0 0.735 0.06 0 0.74 0.06 0 0.745 0.06 0 0.75 0.06 0 0.755 0.06 0 0.76 0.06 0 0.765 0.06 0 0.77 0.06 0 0.775 0.06 0 0.78 0.06 0 0.785 0.06 0 0.79 0.06 0 0.795 0.06 0 0.8 0.06 0 0.805 0.06 0 0.81 0.06 0 0.815 0.06 0 0.82 0.06 0 0.825 0.06 0 0.83 0.06 0 0.835 0.06 0 0.84 0.06 0 0.845 0.06 0 0.85 0.06 0 0.855 0.06 0 0.86 0.06 0 0.865 0.06 0 0.87 0.06 0 0.875 0.06 0 0.88 0.06 0 0.885 0.06 0 0.89 0.06 0 0.895 0.06 0 0.9 0.06 0 0.905 0.06 0 0.91 0.06 0 0.915 0.06 0 0.92 0.06 0 0.925 0.06 0 0.93 0.06 0 0.935 0.06 0 0.94 0.06 0 0.945 0.06 0 0.95 0.06 0 0.955 0.06 0 0.96 0.06 0 0.965 0.06 0 0.97 0.06 0 0.975 0.06 0 0.98 0.06 0 0.985 0.06 0 0.99 0.06 0 0.995 0.06 0 1 0.06 0 0 0.08 0 0.005 0.08 0 0.01 0.08 0 0.015 0.08 0 0.02 0.08 0 0.025 0.08 0 0.03 0.08 0 0.035 0.08 0 0.04 0.08 0 0.045 0.08 0 0.05 0.08 0 0.055 0.08 0 0.06 0.08 0 0.065 0.08 0 0.07 0.08 0 0.075 0.08 0 0.08 0.08 0 0.085 0.08 0 0.09 0.08 0 0.095 0.08 0 0.1 0.08 0 0.105 0.08 0 0.11 0.08 0 0.115 0.08 0 0.12 0.08 0 0.125 0.08 0 0.13 0.08 0 0.135 0.08 0 0.14 0.08 0 0.145 0.08 0 0.15 0.08 0 0.155 0.08 0 0.16 0.08 0 0.165 0.08 0
[...]
			<PointData Scalars="VitesseX">
				<DataArray Name="VitesseX" type="Float32" format="ascii">
 0 6.67738e-15 2.31089e-16 7.55465e-14 -1.43306e-14 -9.41862e-15 8.09683e-14 6.02212e-15 1.5425e-14 -1.66207e-14 -5.58531e-14 -1.89443e-14 -6.36837e-14 5.33839e-14 -8.35137e-14 -5.2342e-15 -7.05899e-15 -1.4615e-13 -1.04353e-13 -8.45031e-14 -9.20373e-14 -8.29743e-14 -8.95637e-14 -9.13591e-14 -6.72332e-14 -9.98214e-14 -1.78159e-13 -1.40578e-13 -6.90075e-14 -8.5419e-14 4.01254e-15 -1.67344e-13 1.67313e-14 -5.37287e-14 -2.99225e-13 -2.34017e-13 -5.20287e-14 -1.86686e-13 -5.55276e-14 -1.8172e-13 -2.7029e-13 2.7392e-13 -6.34249e-14 1.24794e-13 -2.27874e-13 3.5378e-13 -3.94868e-13 1.65245e-13 1.02322e-13 1.05715e-12 7.31712e-12 5.2998e-11 3.35875e-10 2.00301e-09 1.12468e-08 5.92613e-08 2.9216e-07 1.34282e-06 5.73058e-06 2.25996e-05 8.19059e-05 0.000271034 0.000812855 0.00219211 0.00527809 0.0113 0.0215128 0.0366288 0.0564349 0.0799455 0.10594 0.133424 0.161756 0.190565 0.219684 0.249 0.27842 0.307875 0.337312 0.366708 0.396043 0.425296 0.454449 0.483484 0.512382 0.541121 0.569678 0.598027 0.626139 0.653983 0.681521 0.708717 0.735528 0.761912 0.78783 0.813249 0.838152 0.86255 0.88651 0.910236 0.934202 0.940752 0.940309 0.939306 0.938082 0.93688 0.935624 0.934369 0.933102 0.931926 0.930918 0.93008 0.929458 0.928979 0.928594 0.928341 0.928293 0.928165 0.928027 0.92792 0.927713 0.927621 0.927564 0.927358 0.910602 0.934719 0.926853 0.926892 0.926745 0.929069 0.929332 0.929261 0.929185 0.929164 0.929151 0.92929 0.929446 0.929473 0.929457 0.929412 0.929348 0.929271 0.929178 0.929065 0.928712 0.92595 0.91608 0.890869 0.839235 0.756364 0.642873 0.50704 0.363914 0.232251 0.129284 0.0624652 0.0268242 0.0107218 0.0041316 0.0015652 0.000588101 0.000219905 8.19202e-05 3.04078e-05 1.12441e-05 4.14046e-06 1.51763e-06 5.53446e-07 2.0071e-07 7.23498e-08 2.59107e-08 9.21488e-09 3.2529e-09 1.13925e-09 3.95774e-10 1.36123e-10 4.63493e-11 1.53415e-11 4.65763e-12 1.37997e-12 -1.23926e-13 -2.28176e-13 -2.29324e-13 -2.17879e-13 1.74569e-13 -5.64537e-13 1.97573e-13 -4.32154e-14 -1.38837e-13 3.58515e-13 1.38536e-13 2.11178e-13 6.5994e-13 -2.81923e-13 1.10672e-12 -2.22655e-13 3.75755e-13 2.27771e-13 2.27631e-13 6.30373e-13 0 0 1.00424e-14 4.41e-14 -1.72419e-14 3.19457e-14 4.84093e-14 -9.43925e-15 1.01705e-15 -1.78696e-14 -3.19613e-14 -1.98273e-14 -2.40589e-14 2.16846e-14 -9.1084e-14 4.2537e-15 -2.84467e-14 -9.23866e-14 -3.85889e-14 -2.47153e-14 -1.35261e-13 -1.07428e-13 -1.1533e-13 -1.15685e-13 -1.24714e-13 1.85259e-15 -2.171e-14 -7.64065e-14 -8.25649e-14 -1.88621e-13 -7.22221e-15 -7.38581e-14 -9.51253e-14 -6.31089e-14 -2.16587e-13 -1.79416e-13 -1.32882e-13 -1.76385e-13 -4.22744e-14 -1.83354e-13 -1.66702e-14 5.01536e-14 -2.59902e-13 1.07178e-13 -1.13987e-13 1.67727e-13 -4.11977e-13 2.43043e-13 -2.37497e-13 1.26251e-13 5.80399e-13 7.86423e-12 5.32397e-11 3.35839e-10 2.00296e-09 1.12464e-08 5.92617e-08 2.9216e-07 1.34282e-06 5.73058e-06 2.25996e-05 8.19059e-05 0.000271034 0.000812855 0.00219211 0.00527809 0.0113 0.0215128 0.0366288 0.0564349 0.0799455 0.10594 0.133424 0.161756 0.190565 0.219684 0.249 0.27842 0.307875 0.337312 0.366708 0.396043 0.425296 0.454449 0.483484 0.512382 0.541121 0.569678 0.598027 0.626139 0.653983 0.681521 0.708717 0.735528 0.761912 0.78783 0.813249 0.838152 0.86255 0.88651 0.910236 0.934201 0.940752 0.940309 0.939306 0.938082 0.93688 0.935624 0.934369 0.933102 0.931926 0.930918 0.93008 0.929458 0.928979 0.928594 0.928341 0.928293 0.928165 0.928027 0.92792 0.927713 0.927621 0.927564 0.927358 0.910602 0.934719 0.926853 0.926892 0.926745 0.929069 0.929332 0.929261 0.929185 0.929164 0.929151 0.92929 0.929446 0.929473 0.929457 0.929412 0.929348 0.929271 0.929178 0.929065 0.928712 0.92595 0.91608 0.890869 0.839235 0.756364 0.642873 0.50704 0.363914 0.232251 0.129284 0.0624652 0.0268242 0.0107218 0.0041316 0.0015652 0.000588101 0.000219905 8.19202e-05 3.04078e-05 1.12441e-05 4.14046e-06 1.51763e-06 5.53446e-07 2.0071e-07 7.23501e-08 2.59106e-08 9.21495e-09 3.25291e-09 1.13948e-09 3.95463e-10 1.35925e-10 4.61465e-11 1.55039e-11 4.93296e-12 1.27007e-12 8.06843e-14 -3.36343e-13 2.10232e-13 -3.25759e-13 -2.4344e-13 -2.40302e-13 1.79438e-13 -2.33875e-13 3.66408e-13 -2.13932e-14 -1.3384e-13 3.14864e-13 1.99859e-13 8.36633e-13 -2.4865e-13 4.97022e-13 4.00545e-13 5.37947e-14 4.19438e-13 -1.97613e-13 0 0 2.5339e-15 -8.97171e-15 4.56914e-14 1.06878e-14 -1.18984e-15 2.23469e-14 -4.81267e-14 1.25522e-14 1.04806e-14 -4.08429e-14 -7.4979e-14 -1.20584e-14 2.53142e-14 -9.21849e-14 5.38664e-15 9.54396e-14 -1.38628e-13 -4.31721e-14 -2.72999e-14 -1.72049e-13 -5.6746e-15 9.88303e-16 -9.92035e-14 -9.44526e-14 -2.85639e-14 -6.24589e-14 -2.04342e-13 -1.82915e-13 -4.88499e-14 -6.70532e-14 6.19489e-14 -9.55732e-14 -1.50614e-13 -3.0487e-13 -2.22469e-13 -1.01071e-13 -1.07548e-13 -7.48317e-15 1.00878e-15 -5.44281e-14 -5.98557e-15 -1.05395e-13 -2.01907e-13 -1.33042e-13 1.23566e-13 -2.34008e-13 1.78558e-15 -1.52782e-13 9.59013e-13 7.82675e-12 5.32086e-11 3.35992e-10 2.00305e-09 1.12463e-08 5.92618e-08 2.9216e-07 1.34282e-06 5.73058e-06 2.25996e-05 8.19059e-05 0.000271034 0.000812855 0.00219211 0.00527809 0.0113 0.0215128 0.0366288 0.0564349 0.0799455 0.10594 0.133424 0.161756 0.190565 0.219684 0.249 0.27842 0.307875 0.337312 0.366708 0.396043 0.425296 0.454449 0.483484 0.512382 0.541121 0.569678 0.598027 0.626139 0.653983 0.681521 0.708717 0.735528 0.761912 0.78783 0.813249 0.838152 0.86255 0.88651 0.910236 0.934201 0.940752 0.940309 0.939306 0.938082 0.93688 0.935624 0.934369 0.933102 0.931926 0.930918 0.93008 0.929458 0.928979 0.928594 0.928341 0.928293 0.928165 0.928027 0.92792 0.927713 0.927621 0.927564 0.927358 0.910602 0.934719 0.926853 0.926892 0.926745 0.929069 0.929332 0.929261 0.929185 0.929164 0.929151 0.92929 0.929446 0.929473 0.929457 0.929412 0.929348 0.929271 0.929178 0.929065 0.928712 0.92595 0.91608 0.890869 0.839235 0.756364 0.642873 0.50704 0.363914 0.232251 0.129284 0.0624652 0.0268242 0.0107218 0.0041316 0.0015652 0.000588101 0.000219905 8.19202e-05 3.04078e-05 1.12441e-05 4.14046e-06 1.51763e-06 5.53446e-07 2.0071e-07 7.23499e-08 2.59108e-08 9.21519e-09 3.25304e-09 1.13926e-09 3.95439e-10 1.36065e-10 4.64396e-11 1.54778e-11 4.63033e-12 1.41647e-12 2.36816e-13 -2.95271e-14 2.59071e-13 -3.835e-13 -3.82666e-14 -2.95685e-13 -6.46608e-13 6.1225e-13 -1.60151e-13 3.17387e-13 -2.45064e-13 -7.48466e-14 4.60477e-14 6.84299e-13 1.56243e-14 1.52516e-13 1.35257e-13 2.49282e-13 6.6123e-13 2.07237e-13 0 0 -3.97361e-15 -2.53261e-14 2.74727e-14 -2.50446e-14 -2.82094e-14 6.86399e-14 -5.24061e-14 -3.21559e-14 -1.42641e-14 -6.65547e-15 1.91692e-14 3.64837e-15 2.9388e-14 -7.38644e-14 2.97184e-14 -4.0696e-14 -6.68755e-14 -8.55974e-14 -4.30192e-14 -6.27328e-14 5.27917e-14 -1.07679e-13 -1.05667e-13 9.06101e-14 -1.38075e-13 -1.73078e-13 -8.24447e-14 -1.7726e-13 -1.17436e-13 7.22327e-14 -1.57267e-13 4.62246e-14 -2.85825e-13 -2.85279e-13 -1.21808e-13 -1.60876e-13 3.77439e-14 -2.679e-14 1.06268e-13 -1.93803e-13 -8.68231e-14 -1.56298e-13 -6.28919e-14 -1.75641e-13 5.1929e-15 -2.78888e-13 -7.80204e-14 1.33292e-13 1.19207e-12 7.72067e-12 5.32044e-11 3.36014e-10 2.00316e-09 1.12466e-08 5.9262e-08 2.9216e-07 1.34282e-06 5.73058e-06 2.25996e-05 8.19059e-05 0.000271034 0.000812855 0.00219211 0.00527809 0.0113 0.0215128 0.0366288 0.0564349 0.0799455 0.10594 0.133424 0.161756 0.190565 0.219684 0.249 0.27842 0.307875 0.337312 0.366708 0.396043 0.425296 0.454449 0.483484 0.512382 0.541121 0.569678 0.598027 0.626139 0.653983 0.681521 0.708717 0.735528 0.761912 0.78783 0.813249 0.838152 0.86255 0.88651 0.910236 0.934202 0.940752 0.940309 0.939306 0.938082 0.93688 0.935624 0.934369 0.933102 0.931926 0.930918 0.93008 0.929458 0.928979 0.928594 0.928341 0.928293 0.928165 0.928027 0.92792 0.927713 0.927621 0.927564 0.927358 0.910602 0.934719 0.926853 0.926892 0.926745 0.929069 0.929332 0.929261 0.929185 0.929164 0.929151 0.92929 0.929446 0.929473 0.929457 0.929412 0.929348 0.929271 0.929178 0.929065 0.928712 0.92595 0.91608 0.890869 0.839235 0.756364 0.642873 0.50704 0.363914 0.232251 0.129284 0.0624652 0.0268242 0.0107218 0.0041316 0.0015652 0.000588101 0.000219905 8.19202e-05 3.04078e-05 1.12441e-05 4.14046e-06 1.51763e-06 5.53446e-07 2.0071e-07 7.23497e-08 2.59111e-08 9.21485e-09 3.25315e-09 1.13939e-09 3.95841e-10 1.36133e-10 4.63945e-11 1.5135e-11 5.2146e-12 1.22326e-12 1.2911e-13 6.2729e-13 -2.76813e-13 -3.65996e-13 -2.69158e-14 -4.51416e-13 -1.81856e-13 4.37796e-13 -2.40916e-13 -2.6368e-13 2.93839e-13 -5.40949e-13 6.8398e-13 -5.7208e-13 2.25128e-13 -3.46307e-13 -1.72147e-14 8.60171e-13 -4.33341e-13 4.35116e-13 0 0 -7.75151e-15 1.05923e-15 -6.00874e-14 -6.46663e-16 -1.65067e-15 -4.03335e-14 -1.80065e-14 -5.51491e-14 -2.05023e-14 3.14254e-16 1.09821e-14 5.23945e-14 -3.72225e-14 4.69627e-14 -3.55257e-14 -1.36772e-13 9.42556e-14 4.45767e-14 -1.55748e-13 -2.8202e-14 -8.38445e-14 -1.51818e-13 -7.21025e-14 7.90873e-14 -1.10584e-13 -6.01934e-14 1.50823e-14 -1.82567e-13 5.86003e-14 6.57929e-14 -2.94679e-13 -1.7164e-13 -2.8716e-13 -2.45102e-14 -1.34206e-13 -1.64685e-13 1.89338e-13 -3.09283e-13 4.45105e-14 -1.54752e-13 -3.75823e-13 4.88311e-14 -5.56442e-14 1.74606e-13 -6.52672e-13 5.54537e-14 -3.11069e-13 2.77734e-13 9.15528e-13 8.02721e-12 5.3391e-11 3.35946e-10 2.00319e-09 1.12467e-08 5.92623e-08 2.9216e-07 1.34282e-06 5.73058e-06 2.25996e-05 8.19059e-05 0.000271034 0.000812855 0.00219211 0.00527809 0.0113 0.0215128 0.0366288 0.0564349 0.0799455 0.10594 0.133424 0.161756 0.190565 0.219684 0.249 0.27842 0.307875 0.337312 0.366708 0.396043 0.425296 0.454449 0.483484 0.512382 0.541121 0.569678 0.598027 0.626139 0.653983 0.681521 0.708717 0.735528 0.761912 0.78783 0.813249 0.838152 0.86255 0.88651 0.910236 0.934201 0.940752 0.940309 0.939306 0.938082 0.93688 0.935624 0.934369 0.933102 0.931926 0.930918 0.93008 0.929458 0.928979 0.928594 0.928341 0.928293 0.928165 0.928027 0.92792 0.927713 0.927621 0.927564 0.927358 0.910602 0.934719 0.926853 0.926892 0.926745 0.929069 0.929332 0.929261 0.929185 0.929164 0.929151 0.92929 0.929446 0.929473 0.929457 0.929412 0.929348 0.929271 0.929178 0.929065 0.928712 0.92595 0.91608 0.890869 0.839235 0.756364 0.642873 0.50704 0.363914 0.232251 0.129284 0.0624652 0.0268242 0.0107218 0.0041316 0.0015652 0.000588101 0.000219905 8.19202e-05 3.04078e-05 1.12441e-05 4.14046e-06 1.51763e-06 5.53446e-07 2.0071e-07 7.23503e-08 2.59109e-08 9.21489e-09 3.25321e-09 1.13946e-09 3.9558e-10 1.36263e-10 4.61787e-11 1.52851e-11 5.00497e-12 1.59401e-12 1.89483e-13 1.56924e-13 -2.54153e-13 -2.54801e-13 -2.05958e-13 -2.16761e-13 1.65115e-13 -4.71394e-13 2.56976e-13 -8.0264e-13 9.04029e-14 -3.54382e-13 1.59662e-13 -2.53524e-13 -6.97346e-13 5.06153e-13 1.94455e-13 4.50082e-13 -2.83646e-13 -3.72549e-13 0 0 -1.58954e-14 -5.31417e-14 2.62928e-14 -8.05041e-15 -5.54995e-14 -7.34062e-14 -2.34662e-14 3.02822e-14 5.57868e-14 -8.39447e-14 -1.37159e-13 -3.36776e-14 1.52959e-13 -3.47367e-14 -6.80556e-14 1.76441e-13 -2.39654e-14 1.19082e-13 -9.40372e-14 -1.52219e-13 -1.36937e-13 5.55059e-14 2.67908e-14 -2.82889e-13 -5.85457e-14 7.55066e-14 -1.89079e-13 -6.8209e-14 1.83398e-13 4.74262e-15 -1.28018e-13 -4.83927e-13 7.55489e-14 -2.85936e-14 -4.3799e-13 9.09825e-14 -1.40445e-14 -2.68772e-13 -2.69877e-13 -4.01351e-13 2.03752e-13 -7.83106e-14 -3.65516e-14 -1.28918e-13 1.09135e-13 -6.80287e-13 1.77714e-13 -1.66858e-13 1.26128e-12 7.85523e-12 5.33089e-11 3.36047e-10 2.00324e-09 1.12468e-08 5.92622e-08 2.9216e-07 1.34282e-06 5.73058e-06 2.25996e-05 8.19059e-05 0.000271034 0.000812855 0.00219211 0.00527809 0.0113 0.0215128 0.0366288 0.0564349 0.0799455 0.10594 0.133424 0.161756 0.190565 0.219684 0.249 0.27842 0.307875 0.337312 0.366708 0.396043 0.425296 0.454449 0.483484 0.512382 0.541121 0.569678 0.598027 0.626139 0.653983 0.681521 0.708717 0.735528 0.761912 0.78783 0.813249 0.838152 0.86255 0.88651 0.910236 0.934201 0.940752 0.940309 0.939306 0.938082 0.93688 0.935624 0.934369 0.933102 0.931926 0.930918 0.93008 0.929458 0.928979 0.928594 0.928341 0.928293 0.928165 0.928027 0.92792 0.927713 0.927621 0.927564 0.927358 0.910602 0.934719 0.926853 0.926892 0.926745 0.929069 0.929332 0.929261 0.929185 0.929164 0.929151 0.92929 0.929446 0.929473 0.929457 0.929412 0.929348 0.929271 0.929178 0.929065 0.928712 0.92595 0.91608 0.890869 0.839235 0.756364 0.642873 0.50704 0.363914 0.232251 0.129284 0.0624652 0.0268242 0.0107218 0.0041316 0.0015652 0.000588101 0.000219905 8.19202e-05 3.04078e-05 1.12441e-05 4.14046e-06 1.51763e-06 5.53446e-07 2.0071e-07 7.23509e-08 2.59107e-08 9.21543e-09 3.25327e-09 1.13895e-09 3.95205e-10 1.36661e-10 4.6504e-11 1.55894e-11 3.6331e-12 2.41425e-12 3.09084e-13 -5.55278e-13 -8.63274e-14 -1.10969e-13 2.26832e-13 -2.05993e-13 -7.60575e-13 -1.69344e-13 -1.96169e-13 -4.1844e-14 -4.90786e-13 -1.9511e-13 -6.96318e-13 5.05201e-14 -2.09676e-13 7.93253e-13 2.6852e-13 -2.01432e-13 1.01061e-12 -1.75257e-13 0
				</DataArray>
				<DataArray Name="VitesseY" type="Float32" format="ascii">