<?xml version="1.0"?>
<VTKFile type="PolyData">
	<PolyData>
		<Piece NumberOfPoints="1206" NumberOfPolys="1000">
			<Points>
				<DataArray type="Float32" NumberOfComponents="3" format="ascii">
 0 0 0 0.005 0 0 0.01 0 0 0.015 0 0 0.02 0 0 0.025 0 0 0.03 0 0 0.035 0 0 0.04 0 0 0.045 0 0 0.05 0 0 0.055 0 0 0.06 0 0 0.065 0 0 0.07 0 0 0.075 0 0 0.08 0 0 0.085 0 0 0.09 0 0 0.095 0 0 0.1 0 0 0.105 0 0 0.11 0 0 0.115 0 0 0.12 0 0 0.125 0 0 0.13 0 0 0.135 0 0 0.14 0 0 0.145 0 0 0.15 0 0 0.155 0 0 0.16 0 0 0.165 0 0 0.17 0 0 0.175 0 0 0.18 0 0 0.185 0 0 0.19 0 0 0.195 0 0 0.2 0 0 0.205 0 0 0.21 0 0 0.215 0 0 0.22 0 0 0.225 0 0 0.23 0 0 0.235 0 0 0.24 0 0 0.245 0 0 0.25 0 0 0.255 0 0 0.26 0 0 0.265 0 0 0.27 0 0 0.275 0 0 0.28 0 0 0.285 0 0 0.29 0 0 0.295 0 0 0.3 0 0 0.305 0 0 0.31 0 0 0.315 0 0 0.32 0 0 0.325 0 0 0.33 0 0 0.335 0 0 0.34 0 0 0.345 0 0 0.35 0 0 0.355 0 0 0.36 0 0 0.365 0 0 0.37 0 0 0.375 0 0 0.38 0 0 0.385 0 0 0.39 0 0 0.395 0 0 0.4 0 0 0.405 0 0 0.41 0 0 0.415 0 0 0.42 0 0 0.425 0 0 0.43 0 0 0.435 0 0 0.44 0 0 0.445 0 0 0.45 0 0 0.455 0 0 0.46 0 0 0.465 0 0 0.47 0 0 0.475 0 0 0.48 0 0 0.485 0 0 0.49 0 0 0.495 0 0 0.5 0 0 0.505 0 0 0.51 0 0 0.515 0 0 0.52 0 0 0.525 0 0 0.53 0 0 0.535 0 0 0.54 0 0 0.545 0 0 0.55 0 0 0.555 0 0 0.56 0 0 0.565 0 0 0.57 0 0 0.575 0 0 0.58 0 0 0.585 0 0 0.59 0 0 0.595 0 0 0.6 0 0 0.605 0 0 0.61 0 0 0.615 0 0 0.62 0 0 0.625 0 0 0.63 0 0 0.635 0 0 0.64 0 0 0.645 0 0 0.65 0 0 0.655 0 0 0.66 0 0 0.665 0 0 0.67 0 0 0.675 0 0 0.68 0 0 0.685 0 0 0.69 0 0 0.695 0 0 0.7 0 0 0.705 0 0 0.71 0 0 0.715 0 0 0.72 0 0 0.725 0 0 0.73 0 0 0.735 0 0 0.74 0 0 0.745 0 0 0.75 0 0 0.755 0 0 0.76 0 0 0.765 0 0 0.77 0 0 0.775 0 0 0.78 0 0 0.785 0 0 0.79 0 0 0.795 0 0 0.8 0 0 0.805 0 0 0.81 0 0 0.815 0 0 0.82 0 0 0.825 0 0 0.83 0 0 0.835 0 0 0.84 0 0 0.845 0 0 0.85 0 0 0.855 0 0 0.86 0 0 0.865 0 0 0.87 0 0 0.875 0 0 0.88 0 0 0.885 0 0 0.89 0 0 0.895 0 0 0.9 0 0 0.905 0 0 0.91 0 0 0.915 0 0 0.92 0 0 0.925 0 0 0.93 0 0 0.935 0 0 0.94 0 0 0.945 0 0 0.95 0 0 0.955 0 0 0.96 0 0 0.965 0 0 0.97 0 0 0.975 0 0 0.98 0 0 0.985 0 0 0.99 0 0 0.995 0 0 1 0 0 0 0.02 0 0.005 0.02 0 0.01 0.02 0 0.015 0.02 0 0.02 0.02 0 0.025 0.02 0 0.03 0.02 0 0.035 0.02 0 0.04 0.02 0 0.045 0.02 0 0.05 0.02 0 0.055 0.02 0 0.06 0.02 0 0.065 0.02 0 0.07 0.02 0 0.075 0.02 0 0.08 0.02 0 0.085 0.02 0 0.09 0.02 0 0.095 0.02 0 0.1 0.02 0 0.105 0.02 0 0.11 0.02 0 0.115 0.02 0 0.12 0.02 0 0.125 0.02 0 0.13 0.02 0 0.135 0.02 0 0.14 0.02 0 0.145 0.02 0 0.15 0.02 0 0.155 0.02 0 0.16 0.02 0 0.165 0.02 0 0.17 0.02 0 0.175 0.02 0 0.18 0.02 0 0.185 0.02 0 0.19 0.02 0 0.195 0.02 0 0.2 0.02 0 0.205 0.02 0 0.21 0.02 0 0.215 0.02 0 0.22 0.02 0 0.225 0.02 0 0.23 0.02 0 0.235 0.02 0 0.24 0.02 0 0.245 0.02 0 0.25 0.02 0 0.255 0.02 0 0.26 0.02 0 0.265 0.02 0 0.27 0.02 0 0.275 0.02 0 0.28 0.02 0 0.285 0.02 0 0.29 0.02 0 0.295 0.02 0 0.3 0.02 0 0.305 0.02 0 0.31 0.02 0 0.315 0.02 0 0.32 0.02 0 0.325 0.02 0 0.33 0.02 0 0.335 0.02 0 0.34 0.02 0 0.345 0.02 0 0.35 0.02 0 0.355 0.02 0 0.36 0.02 0 0.365 0.02 0 0.37 0.02 0 0.375 0.02 0 0.38 0.02 0 0.385 0.02 0 0.39 0.02 0 0.395 0.02 0 0.4 0.02 0 0.405 0.02 0 0.41 0.02 0 0.415 0.02 0 0.42 0.02 0 0.425 0.02 0 0.43 0.02 0 0.435 0.02 0 0.44 0.02 0 0.445 0.02 0 0.45 0.02 0 0.455 0.02 0 0.46 0.02 0 0.465 0.02 0 0.47 0.02 0 0.475 0.02 0 0.48 0.02 0 0.485 0.02 0 0.49 0.02 0 0.495 0.02 0 0.5 0.02 0 0.505 0.02 0 0.51 0.02 0 0.515 0.02 0 0.52 0.02 0 0.525 0.02 0 0.53 0.02 0 0.535 0.02 0 0.54 0.02 0 0.545 0.02 0 0.55 0.02 0 0.555 0.02 0 0.56 0.02 0 0.565 0.02 0 0.57 0.02 0 0.575 0.02 0 0.58 0.02 0 0.585 0.02 0 0.59 0.02 0 0.595 0.02 0 0.6 0.02 0 0.605 0.02 0 0.61 0.02 0 0.615 0.02 0 0.62 0.02 0 0.625 0.02 0 0.63 0.02 0 0.635 0.02 0 0.64 0.02 0 0.645 0.02 0 0.65 0.02 0 0.655 0.02 0 0.66 0.02 0 0.665 0.02 0 0.67 0.02 0 0.675 0.02 0 0.68 0.02 0 0.685 0.02 0 0.69 0.02 0 0.695 0.02 0 0.7 0.02 0 0.705 0.02 0 0.71 0.02 0 0.715 0.02 0 0.72 0.02 0 0.725 0.02 0 0.73 0.02 0 0.735 0.02 0 0.74 0.02 0 0.745 0.02 0 0.75 0.02 0 0.755 0.02 0 0.76 0.02 0 0.765 0.02 0 0.77 0.02 0 0.775 0.02 0 0.78 0.02 0 0.785 0.02 0 0.79 0.02 0 0.795 0.02 0 0.8 0.02 0 0.805 0.02 0 0.81 0.02 0 0.815 0.02 0 0.82 0.02 0 0.825 0.02 0 0.83 0.02 0 0.835 0.02 0 0.84 0.02 0 0.845 0.02 0 0.85 0.02 0 0.855 0.02 0 0.86 0.02 0 0.865 0.02 0 0.87 0.02 0 0.875 0.02 0 0.88 0.02 0 0.885 0.02 0 0.89 0.02 0 0.895 0.02 0 0.9 0.02 0 0.905 0.02 0 0.91 0.02 0 0.915 0.02 0 0.92 0.02 0 0.925 0.02 0 0.93 0.02 0 0.935 0.02 0 0.94 0.02 0 0.945 0.02 0 0.95 0.02 0 0.955 0.02 0 0.96 0.02 0 0.965 0.02 0 0.97 0.02 0 0.975 0.02 0 0.98 0.02 0 0.985 0.02 0 0.99 0.02 0 0.995 0.02 0 1 0.02 0 0 0.04 0 0.005 0.04 0 0.01 0.04 0 0.015 0.04 0 0.02 0.04 0 0.025 0.04 0 0.03 0.04 0 0.035 0.04 0 0.04 0.04 0 0.045 0.04 0 0.05 0.04 0 0.055 0.04 0 0.06 0.04 0 0.065 0.04 0 0.07 0.04 0 0.075 0.04 0 0.08 0.04 0 0.085 0.04 0 0.09 0.04 0 0.095 0.04 0 0.1 0.04 0 0.105 0.04 0 0.11 0.04 0 0.115 0.04 0 0.12 0.04 0 0.125 0.04 0 0.13 0.04 0 0.135 0.04 0 0.14 0.04 0 0.145 0.04 0 0.15 0.04 0 0.155 0.04 0 0.16 0.04 0 0.165 0.04 0 0.17 0.04 0 0.175 0.04 0 0.18 0.04 0 0.185 0.04 0 0.19 0.04 0 0.195 0.04 0 0.2 0.04 0 0.205 0.04 0 0.21 0.04 0 0.215 0.04 0 0.22 0.04 0 0.225 0.04 0 0.23 0.04 0 0.235 0.04 0 0.24 0.04 0 0.245 0.04 0 0.25 0.04 0 0.255 0.04 0 0.26 0.04 0 0.265 0.04 0 0.27 0.04 0 0.275 0.04 0 0.28 0.04 0 0.285 0.04 0 0.29 0.04 0 0.295 0.04 0 0.3 0.04 0 0.305 0.04 0 0.31 0.04 0 0.315 0.04 0 0.32 0.04 0 0.325 0.04 0 0.33 0.04 0 0.335 0.04 0 0.34 0.04 0 0.345 0.04 0 0.35 0.04 0 0.355 0.04 0 0.36 0.04 0 0.365 0.04 0 0.37 0.04 0 0.375 0.04 0 0.38 0.04 0 0.385 0.04 0 0.39 0.04 0 0.395 0.04 0 0.4 0.04 0 0.405 0.04 0 0.41 0.04 0 0.415 0.04 0 0.42 0.04 0 0.425 0.04 0 0.43 0.04 0 0.435 0.04 0 0.44 0.04 0 0.445 0.04 0 0.45 0.04 0 0.455 0.04 0 0.46 0.04 0 0.465 0.04 0 0.47 0.04 0 0.475 0.04 0 0.48 0.04 0 0.485 0.04 0 0.49 0.04 0 0.495 0.04 0 0.5 0.04 0 0.505 0.04 0 0.51 0.04 0 0.515 0.04 0 0.52 0.04 0 0.525 0.04 0 0.53 0.04 0 0.535 0.04 0 0.54 0.04 0 0.545 0.04 0 0.55 0.04 0 0.555 0.04 0 0.56 0.04 0 0.565 0.04 0 0.57 0.04 0 0.575 0.04 0 0.58 0.04 0 0.585 0.04 0 0.59 0.04 0 0.595 0.04 0 0.6 0.04 0 0.605 0.04 0 0.61 0.04 0 0.615 0.04 0 0.62 0.04 0 0.625 0.04 0 0.63 0.04 0 0.635 0.04 0 0.64 0.04 0 0.645 0.04 0 0.65 0.04 0 0.655 0.04 0 0.66 0.04 0 0.665 0.04 0 0.67 0.04 0 0.675 0.04 0 0.68 0.04 0 0.685 0.04 0 0.69 0.04 0 0.695 0.04 0 0.7 0.04 0 0.705 0.04 0 0.71 0.04 0 0.715 0.04 0 0.72 0.04 0 0.725 0.04 0 0.73 0.04 0 0.735 0.04 0 0.74 0.04 0 0.745 0.04 0 0.75 0.04 0 0.755 0.04 0 0.76 0.04 0 0.765 0.04 0 0.77 0.04 0 0.775 0.04 0 0.78 0.04 0 0.785 0.04 0 0.79 0.04 0 0.795 0.04 0 0.8 0.04 0 0.805 0.04 0 0.81 0.04 0 0.815 0.04 0 0.82 0.04 0 0.825 0.04 0 0.83 0.04 0 0.835 0.04 0 0.84 0.04 0 0.845 0.04 0 0.85 0.04 0 0.855 0.04 0 0.86 0.04 0 0.865 0.04 0 0.87 0.04 0 0.875 0.04 0 0.88 0.04 0 0.885 0.04 0 0.89 0.04 0 0.895 0.04 0 0.9 0.04 0 0.905 0.04 0 0.91 0.04 0 0.915 0.04 0 0.92 0.04 0 0.925 0.04 0 0.93 0.04 0 0.935 0.04 0 0.94 0.04 0 0.945 0.04 0 0.95 0.04 0 0.955 0.04 0 0.96 0.04 0 0.965 0.04 0 0.97 0.04 0 0.975 0.04 0 0.98 0.04 0 0.985 0.04 0 0.99 0.04 0 0.995 0.04 0 1 0.04 0 0 0.06 0 0.005 0.06 0 0.01 0.06 0 0.015 0.06 0 0.02 0.06 0 0.025 0.06 0 0.03 0.06 0 0.035 0.06 0 0.04 0.06 0 0.045 0.06 0 0.05 0.06 0 0.055 0.06 0 0.06 0.06 0 0.065 0.06 0 0.07 0.06 0 0.075 0.06 0 0.08 0.06 0 0.085 0.06 0 0.09 0.06 0 0.095 0.06 0 0.1 0.06 0 0.105 0.06 0 0.11 0.06 0 0.115 0.06 0 0.12 0.06 0 0.125 0.06 0 0.13 0.06 0 0.135 0.06 0 0.14 0.06 0 0.145 0.06 0 0.15 0.06 0 0.155 0.06 0 0.16 0.06 0 0.165 0.06 0 0.17 0.06 0 0.175 0.06 0 0.18 0.06 0 0.185 0.06 0 0.19 0.06 0 0.195 0.06 0 0.2 0.06 0 0.205 0.06 0 0.21 0.06 0 0.215 0.06 0 0.22 0.06 0 0.225 0.06 0 0.23 0.06 0 0.235 0.06 0 0.24 0.06 0 0.245 0.06 0 0.25 0.06 0 0.255 0.06 0 0.26 0.06 0 0.265 0.06 0 0.27 0.06 0 0.275 0.06 0 0.28 0.06 0 0.285 0.06 0 0.29 0.06 0 0.295 0.06 0 0.3 0.06 0 0.305 0.06 0 0.31 0.06 0 0.315 0.06 0 0.32 0.06 0 0.325 0.06 0 0.33 0.06 0 0.335 0.06 0 0.34 0.06 0 0.345 0.06 0 0.35 0.06 0 0.355 0.06 0 0.36 0.06 0 0.365 0.06 0 0.37 0.06 0 0.375 0.06 0 0.38 0.06 0 0.385 0.06 0 0.39 0.06 0 0.395 0.06 0 0.4 0.06 0 0.405 0.06 0 0.41 0.06 0 0.415 0.06 0 0.42 0.06 0 0.425 0.06 0 0.43 0.06 0 0.435 0.06 0 0.44 0.06 0 0.445 0.06 0 0.45 0.06 0 0.455 0.06 0 0.46 0.06 0 0.465 0.06 0 0.47 0.06 0 0.475 0.06 0 0.48 0.06 0 0.485 0.06 0 0.49 0.06 0 0.495 0.06 0 0.5 0.06 0 0.505 0.06 0 0.51 0.06 0 0.515 0.06 0 0.52 0.06 0 0.525 0.06 0 0.53 0.06 0 0.535 0.06 0 0.54 0.06 0 0.545 0.06 0 0.55 0.06 0 0.555 0.06 0 0.56 0.06 0 0.565 0.06 0 0.57 0.06 0 0.575 0.06 0 0.58 0.06 0 0.585 0.06 0 0.59 0.06 0 0.595 0.06 0 0.6 0.06 0 0.605 0.06 0 0.61 0.06 0 0.615 0.06 0 0.62 0.06 0 0.625 0.06 0 0.63 0.06 0 0.635 0.06 0 0.64 0.06 0 0.645 0.06 0 0.65 0.06 0 0.655 0.06 0 0.66 0.06 0 0.665 0.06 0 0.67 0.06 0 0.675 0.06 0 0.68 0.06 0 0.685 0.06 0 0.69 0.06 0 0.695 0.06 0 0.7 0.06 0 0.705 0.06 0 0.71 0.06 0 0.715 0.06 0 0.72 0.06 0 0.725 0.06 0 0.73 0.06 0 0.735 0.06 0 0.74 0.06 0 0.745 0.06 0 0.75 0.06 0 0.755 0.06 0 0.76 0.06 0 0.765 0.06 0 0.77 0.06 0 0.775 0.06 0 0.78 0.06 0 0.785 0.06 0 0.79 0.06 0 0.795 0.06 0 0.8 0.06 0 0.805 0.06 0 0.81 0.06 0 0.815 0.06 0 0.82 0.06 0 0.825 0.06 0 0.83 0.06 0 0.835 0.06 0 0.84 0.06 0 0.845 0.06 0 0.85 0.06 0 0.855 0.06 0 0.86 0.06 0 0.865 0.06 0 0.87 0.06 0 0.875 0.06 0 0.88 0.06 0 0.885 0.06 0 0.89 0.06 0 0.895 0.06 0 0.9 0.06 0 0.905 0.06 0 0.91 0.06 0 0.915 0.06 0 0.92 0.06 0 0.925 0.06 0 0.93 0.06 0 0.935 0.06 0 0.94 0.06 0 0.945 0.06 0 0.95 0.06 0 0.955 0.06 0 0.96 0.06 0 0.965 0.06 0 0.97 0.06 0 0.975 0.06 0 0.98 0.06 0 0.985 0.06 0 0.99 0.06 0 0.995 0.06 0 1 0.06 0 0 0.08 0 0.005 0.08 0 0.01 0.08 0 0.015 0.08 0 0.02 0.08 0 0.025 0.08 0 0.03 0.08 0 0.035 0.08 0 0.04 0.08 0 0.045 0.08 0 0.05 0.08 0 0.055 0.08 0 0.06 0.08 0 0.065 0.08 0 0.07 0.08 0 0.075 0.08 0 0.08 0.08 0 0.085 0.08 0 0.09 0.08 0 0.095 0.08 0 0.1 0.08 0 0.105 0.08 0 0.11 0.08 0 0.115 0.08 0 0.12 0.08 0 0.125 0.08 0 0.13 0.08 0 0.135 0.08 0 0.14 0.08 0 0.145 0.08 0 0.15 0.08 0 0.155 0.08 0 0.16 0.08 0 0.165 0.08 0
[...]
			<PointData Scalars="VitesseX">
				<DataArray Name="VitesseX" type="Float32" format="ascii">
 0 3.21459e-15 -7.86802e-15 -7.34757e-14 6.64509e-14 -6.51163e-14 -1.12047e-13 -4.41802e-14 -2.65993e-14 4.34291e-14 -3.26892e-14 -5.36437e-15 -1.89746e-13 1.10001e-13 -2.43468e-13 5.10387e-15 9.1335e-14 -2.42511e-13 2.31942e-13 -1.68804e-13 -2.85194e-14 3.2462e-14 1.52917e-13 -2.83463e-13 -3.70814e-13 -1.15521e-13 5.29268e-13 7.36551e-14 -1.58068e-13 -1.98627e-14 -1.85128e-13 -4.21188e-13 2.5097e-13 1.48635e-13 -2.98315e-13 -5.42647e-14 6.01866e-13 -9.6424e-13 4.27578e-13 -2.67383e-13 3.85027e-14 5.29778e-14 1.1e-13 -6.669e-13 5.46427e-13 -6.34269e-14 7.92185e-13 -1.09445e-12 -1.59655e-13 -4.72209e-13 -7.49243e-14 6.09355e-13 -7.00683e-13 1.09851e-12 -8.4266e-13 -1.19688e-13 1.073e-12 -8.08252e-13 1.16279e-12 -9.50449e-13 -4.41238e-13 8.68522e-14 -1.25111e-13 6.14443e-14 -3.91105e-13 1.35181e-13 -6.31447e-14 -1.9829e-13 1.53999e-12 -2.79201e-13 -9.32533e-13 1.07448e-12 -8.77864e-13 4.30936e-13 -1.60536e-12 4.90429e-13 -7.10553e-15 -4.00475e-13 8.89794e-13 -8.59172e-13 1.5462e-12 -7.20519e-13 -4.78368e-13 1.99018e-11 3.65086e-10 6.60589e-09 1.0311e-07 1.36717e-06 1.51468e-05 0.000137219 0.000988646 0.00547635 0.0225529 0.0679793 0.154893 0.281916 0.420825 0.55088 0.665797 0.762732 0.836697 0.897553 0.938832 0.943763 0.957709 0.939754 0.941547 0.924265 0.907893 0.854644 0.747005 0.599762 0.43129 0.2689 0.139709 0.0587485 0.0203857 0.00621179 0.00174468 0.000462886 0.000117049 2.82948e-05 6.54663e-06 1.4509e-06 3.08232e-07 6.28103e-08 1.22887e-08 2.30918e-09 4.16038e-10 7.3809e-11 1.00943e-11 3.27156e-12 8.76751e-14 -1.44218e-12 7.19426e-13 -2.17352e-12 1.61813e-12 6.41196e-13 -1.98927e-12 1.74573e-12 -7.82516e-13 -1.213e-12 3.03333e-12 -2.17017e-12 -1.60097e-12 2.39837e-12 -1.72864e-12 3.17221e-12 -1.63764e-12 -3.3234e-13 1.42324e-12 -1.72174e-12 2.80016e-12 -2.16671e-12 1.38706e-12 -1.82508e-12 1.64043e-12 -2.0349e-13 -6.74384e-13 -6.19414e-14 -1.45688e-12 1.24617e-12 -6.31285e-13 -7.33141e-13 9.45031e-13 -5.73681e-13 4.09184e-13 5.51856e-14 -1.53028e-12 2.56413e-12 -1.32242e-12 1.73774e-13 1.63391e-12 -2.36878e-12 2.53998e-12 -1.75138e-12 8.42063e-13 1.25981e-12 -2.7414e-12 2.19752e-12 -1.13833e-12 -4.60939e-14 1.38217e-12 -2.78439e-12 1.50758e-12 -2.19683e-12 -1.92576e-13 1.30165e-12 -2.15463e-12 3.30784e-12 -1.88913e-12 -1.61741e-12 4.59057e-12 -3.15475e-12 -1.50278e-12 4.88869e-13 -9.01279e-13 3.69142e-12 -3.24086e-12 1.37077e-12 0 0 -2.04479e-14 -2.73691e-14 1.71178e-15 -9.4458e-14 -7.03136e-15 1.52021e-14 -1.07396e-13 -9.86349e-14 -1.10517e-13 -2.79572e-14 -5.09164e-14 2.94757e-14 -1.79582e-13 6.36395e-14 -6.34976e-14 -1.44183e-13 2.35574e-14 -1.58213e-13 1.68604e-13 6.90243e-14 -1.62138e-14 -2.41928e-13 -9.04834e-15 3.11066e-14 -1.25734e-13 -1.5186e-13 1.80963e-13 1.56743e-13 -6.9986e-14 -1.94277e-13 -1.09585e-13 -2.5492e-13 -2.51102e-14 3.69379e-13 -5.47434e-14 -6.4073e-13 6.2668e-13 -6.4447e-13 2.70679e-13 1.69515e-13 -1.50809e-13 -2.77552e-13 2.14598e-13 -1.67765e-13 8.63026e-14 -8.08192e-13 7.59839e-13 -5.19998e-13 -3.07324e-13 -4.36614e-13 -1.16627e-13 9.34264e-13 -1.10891e-12 5.76219e-13 2.24858e-13 -5.23485e-13 1.02513e-12 -8.59686e-13 5.34424e-13 -3.15317e-13 -2.33059e-13 -5.71993e-14 8.11902e-15 2.63458e-13 -2.24688e-13 -1.80926e-13 6.01209e-13 -6.83264e-13 3.45051e-13 5.59988e-13 -1.17781e-12 5.64617e-13 -9.65183e-13 5.73583e-13 -7.73938e-13 -6.45563e-13 6.19868e-13 -2.67047e-14 9.37342e-13 -1.07719e-12 7.04879e-13 1.78919e-12 1.61418e-11 3.65321e-10 6.61032e-09 1.03108e-07 1.36717e-06 1.51468e-05 0.000137219 0.000988646 0.00547635 0.0225529 0.0679793 0.154893 0.281916 0.420825 0.55088 0.665797 0.762732 0.836697 0.897553 0.938832 0.943763 0.957709 0.939754 0.941547 0.924265 0.907893 0.854644 0.747005 0.599762 0.43129 0.2689 0.139709 0.0587485 0.0203857 0.00621179 0.00174468 0.000462886 0.000117049 2.82948e-05 6.54663e-06 1.4509e-06 3.0823e-07 6.28128e-08 1.22862e-08 2.30879e-09 4.18195e-10 7.16061e-11 1.29907e-11 5.76712e-13 -1.91961e-13 7.22766e-13 -1.61803e-12 7.43008e-13 -6.71499e-13 -3.3605e-13 1.55783e-12 -1.18523e-12 3.24697e-13 6.18328e-13 -2.23446e-12 1.4626e-12 3.04821e-13 -1.51256e-12 1.81058e-12 -1.62461e-12 1.77797e-12 4.42453e-13 -1.22096e-12 1.46037e-12 -1.77359e-12 1.6329e-12 -8.66034e-13 1.43495e-12 -1.2323e-12 -1.50985e-13 3.34107e-13 -1.77443e-13 -3.94216e-14 -1.57455e-12 -1.25887e-13 1.35884e-12 -1.98301e-13 -2.79418e-13 -7.56993e-13 -1.90402e-13 1.61375e-12 -1.73299e-12 1.21081e-12 4.41137e-13 -1.03045e-12 1.36162e-12 -1.2476e-12 1.50151e-12 -2.11297e-13 -1.00911e-12 1.38828e-12 -1.4636e-12 9.71329e-13 3.5997e-13 -1.72628e-12 1.29145e-12 -2.0734e-12 7.27769e-13 -2.57265e-13 -1.74369e-12 1.54876e-12 -1.76647e-12 2.07276e-12 5.64132e-13 -4.13768e-12 2.48604e-12 -1.98884e-14 -3.52069e-13 2.8366e-13 -2.96839e-12 3.31409e-12 -3.55015e-14 0 0 -1.68199e-14 -2.29431e-14 -4.35332e-15 -5.97803e-14 -1.31091e-13 -6.32477e-14 -5.14675e-14 -1.05343e-13 -4.57362e-14 -1.22221e-13 -1.92779e-13 6.2529e-15 -4.40847e-14 -9.90677e-14 -4.95065e-14 1.54293e-14 3.5702e-14 2.14111e-14 -7.05793e-14 -7.52767e-15 -2.68856e-14 3.98261e-14 -1.57102e-13 -1.42331e-13 2.14325e-14 -4.51022e-14 1.36216e-13 -7.559e-14 -3.02248e-14 -1.87105e-13 -3.29488e-14 -1.49208e-13 -4.70028e-14 3.56518e-14 -1.03596e-13 8.77106e-14 -1.70001e-13 3.26554e-14 -9.35506e-14 -6.75626e-14 -2.04542e-13 2.16462e-14 -1.43711e-13 5.42119e-14 -1.88644e-13 -1.44114e-13 -2.26236e-13 1.54459e-14 -6.60088e-14 -1.89077e-13 -4.44246e-13 -9.92813e-14 7.2275e-13 2.50902e-13 -2.66101e-13 -4.0577e-13 -5.22946e-13 4.19929e-13 3.17369e-13 3.54308e-13 -4.89973e-13 2.95034e-13 -9.81317e-14 -2.91338e-13 1.31575e-13 -2.28873e-14 8.86003e-15 -1.35891e-13 -1.44926e-13 -3.61768e-13 4.16204e-13 -1.38072e-13 9.73609e-14 -7.12711e-13 -2.86808e-13 4.33467e-14 -1.4056e-13 -2.73486e-13 -7.40793e-14 3.17904e-13 3.06637e-13 1.09554e-12 1.79393e-11 3.65138e-10 6.60876e-09 1.03109e-07 1.36717e-06 1.51468e-05 0.000137219 0.000988646 0.00547635 0.0225529 0.0679793 0.154893 0.281916 0.420825 0.55088 0.665797 0.762732 0.836697 0.897553 0.938832 0.943763 0.957709 0.939754 0.941547 0.924265 0.907893 0.854644 0.747005 0.599762 0.43129 0.2689 0.139709 0.0587485 0.0203857 0.00621179 0.00174468 0.000462886 0.000117049 2.82948e-05 6.54663e-06 1.4509e-06 3.08231e-07 6.2812e-08 1.22873e-08 2.30887e-09 4.16472e-10 7.26265e-11 1.22376e-11 1.82431e-12 -5.58568e-13 -7.8706e-13 -2.3434e-13 2.70528e-13 -3.59401e-13 -6.94062e-14 -7.21115e-14 1.96095e-13 -1.24342e-13 -4.00849e-13 1.64323e-13 -2.43627e-13 6.37321e-13 -2.45731e-13 -1.46879e-13 2.89755e-13 9.04685e-14 4.48952e-13 1.53464e-13 4.42713e-14 -2.18847e-13 -2.85339e-13 4.73897e-13 2.84193e-13 2.05949e-13 -3.52383e-13 -1.16199e-12 -1.33002e-13 6.01113e-13 4.36642e-13 -3.68722e-13 -1.28166e-12 -2.82486e-13 4.32403e-13 -6.40418e-14 6.32006e-14 -2.52521e-13 3.8821e-13 2.39091e-13 -6.32581e-13 2.60178e-13 5.40085e-13 7.54368e-13 -3.53344e-13 -8.76437e-13 1.12429e-13 1.02049e-12 4.85315e-13 -6.57878e-13 -1.11344e-12 -5.47591e-14 3.22325e-13 -1.44984e-13 -1.39086e-12 -8.38136e-13 4.9808e-13 8.04628e-13 -2.42229e-13 -7.70761e-13 -9.20808e-13 1.17537e-12 2.65735e-13 1.72682e-14 -1.14213e-12 -2.54842e-13 1.17269e-12 -4.55157e-13 -3.56593e-13 0 0 1.67409e-14 1.05194e-14 -5.67539e-14 -5.42005e-14 -8.52493e-14 -1.17244e-13 -4.73537e-14 -2.09725e-13 -1.34944e-13 -8.78102e-14 1.19405e-13 -1.8674e-14 -1.52844e-14 -2.98645e-13 -8.08811e-14 3.91608e-14 -1.25655e-13 1.66576e-13 3.13115e-14 -1.13153e-13 -1.09928e-13 -3.82083e-14 -6.483e-14 -8.10012e-14 -9.68722e-14 1.79864e-13 -1.71658e-13 -1.11376e-13 5.52072e-14 -9.75723e-14 -2.9899e-13 -9.45682e-15 9.57986e-14 -5.82532e-14 1.75714e-13 3.59981e-13 -4.10661e-13 2.36003e-13 -3.92998e-13 -4.60565e-13 -1.43302e-13 -5.88328e-14 -2.46786e-13 3.85922e-13 1.44792e-13 5.40497e-14 -6.59275e-13 1.18614e-13 -2.12256e-13 -1.19942e-13 1.05829e-13 -1.64928e-13 6.59062e-13 -2.98494e-14 -6.80578e-14 -4.74878e-14 -6.14517e-13 1.8103e-13 -1.29577e-13 -1.59492e-13 1.36517e-13 -4.53316e-13 1.7067e-14 -2.1969e-13 9.50938e-15 3.68337e-13 -3.99454e-13 9.41362e-13 5.54391e-14 -1.76857e-13 3.99502e-13 -4.69354e-13 2.08686e-13 -6.49298e-13 -4.64904e-14 -2.36463e-13 -9.29509e-13 -2.14703e-13 1.44928e-13 9.10303e-13 1.59866e-13 -2.09828e-13 1.8826e-11 3.64709e-10 6.60765e-09 1.0311e-07 1.36717e-06 1.51468e-05 0.000137219 0.000988646 0.00547635 0.0225529 0.0679793 0.154893 0.281916 0.420825 0.55088 0.665797 0.762732 0.836697 0.897553 0.938832 0.943763 0.957709 0.939754 0.941547 0.924265 0.907893 0.854644 0.747005 0.599762 0.43129 0.2689 0.139709 0.0587485 0.0203857 0.00621179 0.00174468 0.000462886 0.000117049 2.82948e-05 6.54663e-06 1.4509e-06 3.08231e-07 6.28113e-08 1.22876e-08 2.30886e-09 4.16597e-10 7.3184e-11 1.11584e-11 1.7052e-12 -5.91697e-13 -5.52736e-13 1.17817e-12 -1.06426e-12 -2.18925e-13 -3.87479e-13 -6.56923e-13 1.2508e-12 -7.64866e-13 -8.0463e-13 1.30905e-12 1.48907e-14 2.2933e-13 1.17145e-12 -2.0786e-12 8.62916e-13 3.95392e-13 7.08237e-13 1.07224e-12 -1.67328e-12 7.68836e-14 -3.80207e-13 7.60169e-13 -1.16204e-12 4.55787e-13 -3.7761e-13 -3.47001e-13 -3.69295e-13 -5.59936e-13 -1.67635e-13 -1.50828e-13 -2.38609e-13 -8.78902e-14 -5.88312e-14 -8.98862e-13 -9.28823e-13 -4.12003e-13 2.35618e-12 1.55858e-13 -1.23844e-13 7.01495e-13 -9.48284e-13 1.10354e-12 -2.00315e-13 -1.22576e-13 3.34896e-13 -1.16949e-12 1.06572e-12 2.74768e-13 -6.03356e-13 2.40179e-13 -1.20407e-12 3.02356e-15 -1.3821e-12 -3.83734e-13 1.14562e-12 -2.46603e-13 1.31652e-12 -1.7369e-12 -9.74301e-13 2.34326e-12 -1.19966e-13 3.99017e-14 -6.40807e-13 -1.42748e-12 6.64129e-13 2.36192e-13 1.35892e-12 0 0 9.96496e-15 3.53028e-15 -3.45358e-14 -1.25738e-13 -6.06442e-14 -8.62815e-14 -1.47364e-13 -1.98942e-13 -1.25446e-13 -2.26831e-15 1.15008e-13 1.65076e-14 -1.58729e-13 -5.29316e-14 -3.30425e-15 -4.91957e-14 2.90394e-14 -2.11244e-13 8.84402e-14 -1.28495e-13 -1.10024e-13 -3.63454e-13 -9.01021e-14 1.40408e-14 -1.81634e-13 -2.44481e-13 -8.24297e-14 5.92333e-14 -2.41014e-15 -1.13912e-14 2.20756e-14 8.77307e-14 1.34763e-13 3.91825e-13 2.11176e-13 -2.88654e-13 4.27973e-13 -5.48703e-13 -5.00844e-14 -4.26339e-13 -2.66684e-13 -4.43544e-13 3.03979e-13 -2.96086e-13 6.50897e-14 -4.487e-13 4.43604e-13 -2.25699e-13 -1.91958e-13 -5.79687e-13 -3.27865e-13 8.79453e-13 -1.03813e-12 7.75431e-13 3.7897e-13 -3.83298e-13 7.83117e-13 -1.09933e-12 2.32547e-13 -5.36183e-13 6.43838e-14 -4.50854e-13 1.06828e-13 3.5447e-13 -4.78665e-13 3.12343e-13 5.07246e-13 -5.83824e-15 4.96931e-13 1.05437e-12 -9.60417e-13 1.06085e-13 -1.05035e-12 5.58588e-13 -8.65045e-13 -5.96975e-13 1.45097e-14 -2.08488e-13 7.79542e-13 -9.37978e-13 4.57532e-13 1.351e-12 1.62478e-11 3.65077e-10 6.61001e-09 1.03109e-07 1.36717e-06 1.51468e-05 0.000137219 0.000988646 0.00547635 0.0225529 0.0679793 0.154893 0.281916 0.420825 0.55088 0.665797 0.762732 0.836697 0.897553 0.938832 0.943763 0.957709 0.939754 0.941547 0.924265 0.907893 0.854644 0.747005 0.599762 0.43129 0.2689 0.139709 0.0587485 0.0203857 0.00621179 0.00174468 0.000462886 0.000117049 2.82948e-05 6.54663e-06 1.4509e-06 3.0823e-07 6.28123e-08 1.22864e-08 2.30896e-09 4.18279e-10 7.14852e-11 1.2457e-11 4.89182e-13 -1.23449e-13 7.44599e-13 -9.1093e-13 -2.63601e-13 -7.53109e-13 -4.69494e-13 1.34244e-12 -9.08441e-13 -1.10035e-13 6.95825e-13 -1.25858e-12 1.90755e-12 6.74527e-13 -7.12994e-13 8.54559e-13 -1.16631e-12 1.99435e-12 8.17058e-13 -4.21909e-13 9.94948e-13 -2.16343e-12 1.14454e-12 -1.7652e-12 -4.08597e-13 -1.3382e-12 -3.69909e-13 7.83879e-13 -7.70332e-13 -7.5189e-13 -1.65944e-12 1.06932e-13 1.39961e-12 -2.69367e-13 -7.78894e-13 -6.18327e-13 -3.6804e-13 1.39059e-12 -1.04439e-12 5.93016e-13 8.011e-13 -7.90146e-13 7.03901e-13 -2.02955e-12 2.32922e-12 1.21597e-12 -1.18444e-12 -5.35009e-14 -1.79286e-12 1.9014e-12 1.56979e-12 -1.37581e-12 -3.38332e-13 -3.12731e-12 6.74066e-13 3.16002e-13 -7.81126e-13 1.23812e-12 -1.37421e-12 1.48678e-12 1.07118e-12 -3.80002e-12 2.29179e-12 4.03997e-13 -3.92292e-13 -3.55095e-13 -3.07315e-12 4.06547e-12 1.0666e-12 0 0 -3.08144e-15 -1.29945e-14 -4.11698e-14 -7.26874e-15 -2.64026e-13 -2.07022e-13 -1.32345e-13 -1.84495e-14 1.91986e-13 -5.01331e-14 -2.97883e-13 -1.65828e-13 9.41064e-14 -7.7455e-14 1.8824e-13 2.33847e-13 9.11662e-14 -1.64449e-13 -5.32914e-13 -2.12307e-13 1.09268e-14 6.59331e-14 -6.30114e-13 -5.27605e-13 9.28759e-15 -1.05906e-13 1.62618e-13 -2.81515e-13 -5.55749e-14 1.5785e-15 3.74217e-13 6.56769e-13 1.82779e-13 -6.56118e-14 -8.10461e-14 7.61477e-13 -8.80335e-13 2.12418e-13 -3.10015e-13 -3.67201e-13 -3.01251e-13 -6.10262e-14 -2.81987e-13 -3.73633e-13 -7.72725e-13 1.11484e-12 -8.60838e-13 2.22608e-13 5.10155e-14 -4.99342e-13 -9.13273e-13 -6.79012e-13 1.36746e-12 1.17267e-13 -2.07549e-13 6.36813e-13 -1.10914e-12 1.16131e-12 -6.60312e-13 1.44627e-13 -5.71243e-13 5.84279e-13 2.84652e-14 -3.52376e-13 -1.28642e-13 1.40944e-13 4.30411e-13 7.40336e-13 -3.76174e-13 -3.13594e-13 1.54267e-12 -1.13236e-12 3.79506e-14 -1.76217e-12 -1.72423e-13 6.49689e-13 -3.32949e-14 4.08663e-13 -1.61278e-12 6.39822e-13 -9.2167e-13 1.256e-12 1.83405e-11 3.65457e-10 6.60749e-09 1.0311e-07 1.36717e-06 1.51468e-05 0.000137219 0.000988646 0.00547635 0.0225529 0.0679793 0.154893 0.281916 0.420825 0.55088 0.665797 0.762732 0.836697 0.897553 0.938832 0.943763 0.957709 0.939754 0.941547 0.924265 0.907893 0.854644 0.747005 0.599762 0.43129 0.2689 0.139709 0.0587485 0.0203857 0.00621179 0.00174468 0.000462886 0.000117049 2.82948e-05 6.54663e-06 1.4509e-06 3.08231e-07 6.28105e-08 1.22883e-08 2.30956e-09 4.15955e-10 7.24522e-11 1.11853e-11 3.33474e-12 2.90959e-13 -1.86717e-12 -6.9139e-13 -1.51717e-12 1.17396e-12 1.01045e-12 -1.25042e-12 1.89901e-13 -3.70931e-13 -2.50441e-13 2.69563e-12 -1.79732e-12 -4.55728e-14 1.16314e-12 2.22771e-13 2.94249e-12 -1.81473e-12 -1.017e-13 1.1838e-12 7.82521e-13 1.42901e-12 -2.95371e-12 -9.83811e-13 -2.61971e-12 9.2895e-13 -5.90884e-13 -1.40482e-12 -7.75133e-13 -5.59719e-13 2.28493e-12 -6.01434e-13 -2.73771e-12 4.13707e-13 -5.90166e-13 2.35616e-12 1.68396e-12 -1.65763e-12 5.39832e-15 -2.39153e-12 -1.23775e-13 1.23189e-12 -7.07484e-13 2.77731e-13 -4.02006e-13 2.18887e-12 4.642e-13 -1.24501e-12 3.78185e-13 -1.14348e-12 1.35338e-12 1.49324e-12 -2.99116e-12 -8.96247e-13 -2.32176e-12 4.5154e-14 1.93169e-12 -6.73458e-13 9.74853e-13 -1.12879e-12 -4.96329e-13 2.9301e-12 -2.77185e-12 -7.00275e-13 -5.94226e-13 1.66487e-13 4.49901e-12 -3.12081e-12 1.43952e-13 0
				</DataArray>
				<DataArray Name="VitesseY" type="Float32" format="ascii">