<?xml version="1.0"?>
<VTKFile type="PolyData">
	<PolyData>
		<Piece NumberOfPoints="1206" NumberOfPolys="1000">
			<Points>
				<DataArray type="Float32" NumberOfComponents="3" format="ascii">
 0 0 0 0.005 0 0 0.01 0 0 0.015 0 0 0.02 0 0 0.025 0 0 0.03 0 0 0.035 0 0 0.04 0 0 0.045 0 0 0.05 0 0 0.055 0 0 0.06 0 0 0.065 0 0 0.07 0 0 0.075 0 0 0.08 0 0 0.085 0 0 0.09 0 0 0.095 0 0 0.1 0 0 0.105 0 0 0.11 0 0 0.115 0 0 0.12 0 0 0.125 0 0 0.13 0 0 0.135 0 0 0.14 0 0 0.145 0 0 0.15 0 0 0.155 0 0 0.16 0 0 0.165 0 0 0.17 0 0 0.175 0 0 0.18 0 0 0.185 0 0 0.19 0 0 0.195 0 0 0.2 0 0 0.205 0 0 0.21 0 0 0.215 0 0 0.22 0 0 0.225 0 0 0.23 0 0 0.235 0 0 0.24 0 0 0.245 0 0 0.25 0 0 0.255 0 0 0.26 0 0 0.265 0 0 0.27 0 0 0.275 0 0 0.28 0 0 0.285 0 0 0.29 0 0 0.295 0 0 0.3 0 0 0.305 0 0 0.31 0 0 0.315 0 0 0.32 0 0 0.325 0 0 0.33 0 0 0.335 0 0 0.34 0 0 0.345 0 0 0.35 0 0 0.355 0 0 0.36 0 0 0.365 0 0 0.37 0 0 0.375 0 0 0.38 0 0 0.385 0 0 0.39 0 0 0.395 0 0 0.4 0 0 0.405 0 0 0.41 0 0 0.415 0 0 0.42 0 0 0.425 0 0 0.43 0 0 0.435 0 0 0.44 0 0 0.445 0 0 0.45 0 0 0.455 0 0 0.46 0 0 0.465 0 0 0.47 0 0 0.475 0 0 0.48 0 0 0.485 0 0 0.49 0 0 0.495 0 0 0.5 0 0 0.505 0 0 0.51 0 0 0.515 0 0 0.52 0 0 0.525 0 0 0.53 0 0 0.535 0 0 0.54 0 0 0.545 0 0 0.55 0 0 0.555 0 0 0.56 0 0 0.565 0 0 0.57 0 0 0.575 0 0 0.58 0 0 0.585 0 0 0.59 0 0 0.595 0 0 0.6 0 0 0.605 0 0 0.61 0 0 0.615 0 0 0.62 0 0 0.625 0 0 0.63 0 0 0.635 0 0 0.64 0 0 0.645 0 0 0.65 0 0 0.655 0 0 0.66 0 0 0.665 0 0 0.67 0 0 0.675 0 0 0.68 0 0 0.685 0 0 0.69 0 0 0.695 0 0 0.7 0 0 0.705 0 0 0.71 0 0 0.715 0 0 0.72 0 0 0.725 0 0 0.73 0 0 0.735 0 0 0.74 0 0 0.745 0 0 0.75 0 0 0.755 0 0 0.76 0 0 0.765 0 0 0.77 0 0 0.775 0 0 0.78 0 0 0.785 0 0 0.79 0 0 0.795 0 0 0.8 0 0 0.805 0 0 0.81 0 0 0.815 0 0 0.82 0 0 0.825 0 0 0.83 0 0 0.835 0 0 0.84 0 0 0.845 0 0 0.85 0 0 0.855 0 0 0.86 0 0 0.865 0 0 0.87 0 0 0.875 0 0 0.88 0 0 0.885 0 0 0.89 0 0 0.895 0 0 0.9 0 0 0.905 0 0 0.91 0 0 0.915 0 0 0.92 0 0 0.925 0 0 0.93 0 0 0.935 0 0 0.94 0 0 0.945 0 0 0.95 0 0 0.955 0 0 0.96 0 0 0.965 0 0 0.97 0 0 0.975 0 0 0.98 0 0 0.985 0 0 0.99 0 0 0.995 0 0 1 0 0 0 0.02 0 0.005 0.02 0 0.01 0.02 0 0.015 0.02 0 0.02 0.02 0 0.025 0.02 0 0.03 0.02 0 0.035 0.02 0 0.04 0.02 0 0.045 0.02 0 0.05 0.02 0 0.055 0.02 0 0.06 0.02 0 0.065 0.02 0 0.07 0.02 0 0.075 0.02 0 0.08 0.02 0 0.085 0.02 0 0.09 0.02 0 0.095 0.02 0 0.1 0.02 0 0.105 0.02 0 0.11 0.02 0 0.115 0.02 0 0.12 0.02 0 0.125 0.02 0 0.13 0.02 0 0.135 0.02 0 0.14 0.02 0 0.145 0.02 0 0.15 0.02 0 0.155 0.02 0 0.16 0.02 0 0.165 0.02 0 0.17 0.02 0 0.175 0.02 0 0.18 0.02 0 0.185 0.02 0 0.19 0.02 0 0.195 0.02 0 0.2 0.02 0 0.205 0.02 0 0.21 0.02 0 0.215 0.02 0 0.22 0.02 0 0.225 0.02 0 0.23 0.02 0 0.235 0.02 0 0.24 0.02 0 0.245 0.02 0 0.25 0.02 0 0.255 0.02 0 0.26 0.02 0 0.265 0.02 0 0.27 0.02 0 0.275 0.02 0 0.28 0.02 0 0.285 0.02 0 0.29 0.02 0 0.295 0.02 0 0.3 0.02 0 0.305 0.02 0 0.31 0.02 0 0.315 0.02 0 0.32 0.02 0 0.325 0.02 0 0.33 0.02 0 0.335 0.02 0 0.34 0.02 0 0.345 0.02 0 0.35 0.02 0 0.355 0.02 0 0.36 0.02 0 0.365 0.02 0 0.37 0.02 0 0.375 0.02 0 0.38 0.02 0 0.385 0.02 0 0.39 0.02 0 0.395 0.02 0 0.4 0.02 0 0.405 0.02 0 0.41 0.02 0 0.415 0.02 0 0.42 0.02 0 0.425 0.02 0 0.43 0.02 0 0.435 0.02 0 0.44 0.02 0 0.445 0.02 0 0.45 0.02 0 0.455 0.02 0 0.46 0.02 0 0.465 0.02 0 0.47 0.02 0 0.475 0.02 0 0.48 0.02 0 0.485 0.02 0 0.49 0.02 0 0.495 0.02 0 0.5 0.02 0 0.505 0.02 0 0.51 0.02 0 0.515 0.02 0 0.52 0.02 0 0.525 0.02 0 0.53 0.02 0 0.535 0.02 0 0.54 0.02 0 0.545 0.02 0 0.55 0.02 0 0.555 0.02 0 0.56 0.02 0 0.565 0.02 0 0.57 0.02 0 0.575 0.02 0 0.58 0.02 0 0.585 0.02 0 0.59 0.02 0 0.595 0.02 0 0.6 0.02 0 0.605 0.02 0 0.61 0.02 0 0.615 0.02 0 0.62 0.02 0 0.625 0.02 0 0.63 0.02 0 0.635 0.02 0 0.64 0.02 0 0.645 0.02 0 0.65 0.02 0 0.655 0.02 0 0.66 0.02 0 0.665 0.02 0 0.67 0.02 0 0.675 0.02 0 0.68 0.02 0 0.685 0.02 0 0.69 0.02 0 0.695 0.02 0 0.7 0.02 0 0.705 0.02 0 0.71 0.02 0 0.715 0.02 0 0.72 0.02 0 0.725 0.02 0 0.73 0.02 0 0.735 0.02 0 0.74 0.02 0 0.745 0.02 0 0.75 0.02 0 0.755 0.02 0 0.76 0.02 0 0.765 0.02 0 0.77 0.02 0 0.775 0.02 0 0.78 0.02 0 0.785 0.02 0 0.79 0.02 0 0.795 0.02 0 0.8 0.02 0 0.805 0.02 0 0.81 0.02 0 0.815 0.02 0 0.82 0.02 0 0.825 0.02 0 0.83 0.02 0 0.835 0.02 0 0.84 0.02 0 0.845 0.02 0 0.85 0.02 0 0.855 0.02 0 0.86 0.02 0 0.865 0.02 0 0.87 0.02 0 0.875 0.02 0 0.88 0.02 0 0.885 0.02 0 0.89 0.02 0 0.895 0.02 0 0.9 0.02 0 0.905 0.02 0 0.91 0.02 0 0.915 0.02 0 0.92 0.02 0 0.925 0.02 0 0.93 0.02 0 0.935 0.02 0 0.94 0.02 0 0.945 0.02 0 0.95 0.02 0 0.955 0.02 0 0.96 0.02 0 0.965 0.02 0 0.97 0.02 0 0.975 0.02 0 0.98 0.02 0 0.985 0.02 0 0.99 0.02 0 0.995 0.02 0 1 0.02 0 0 0.04 0 0.005 0.04 0 0.01 0.04 0 0.015 0.04 0 0.02 0.04 0 0.025 0.04 0 0.03 0.04 0 0.035 0.04 0 0.04 0.04 0 0.045 0.04 0 0.05 0.04 0 0.055 0.04 0 0.06 0.04 0 0.065 0.04 0 0.07 0.04 0 0.075 0.04 0 0.08 0.04 0 0.085 0.04 0 0.09 0.04 0 0.095 0.04 0 0.1 0.04 0 0.105 0.04 0 0.11 0.04 0 0.115 0.04 0 0.12 0.04 0 0.125 0.04 0 0.13 0.04 0 0.135 0.04 0 0.14 0.04 0 0.145 0.04 0 0.15 0.04 0 0.155 0.04 0 0.16 0.04 0 0.165 0.04 0 0.17 0.04 0 0.175 0.04 0 0.18 0.04 0 0.185 0.04 0 0.19 0.04 0 0.195 0.04 0 0.2 0.04 0 0.205 0.04 0 0.21 0.04 0 0.215 0.04 0 0.22 0.04 0 0.225 0.04 0 0.23 0.04 0 0.235 0.04 0 0.24 0.04 0 0.245 0.04 0 0.25 0.04 0 0.255 0.04 0 0.26 0.04 0 0.265 0.04 0 0.27 0.04 0 0.275 0.04 0 0.28 0.04 0 0.285 0.04 0 0.29 0.04 0 0.295 0.04 0 0.3 0.04 0 0.305 0.04 0 0.31 0.04 0 0.315 0.04 0 0.32 0.04 0 0.325 0.04 0 0.33 0.04 0 0.335 0.04 0 0.34 0.04 0 0.345 0.04 0 0.35 0.04 0 0.355 0.04 0 0.36 0.04 0 0.365 0.04 0 0.37 0.04 0 0.375 0.04 0 0.38 0.04 0 0.385 0.04 0 0.39 0.04 0 0.395 0.04 0 0.4 0.04 0 0.405 0.04 0 0.41 0.04 0 0.415 0.04 0 0.42 0.04 0 0.425 0.04 0 0.43 0.04 0 0.435 0.04 0 0.44 0.04 0 0.445 0.04 0 0.45 0.04 0 0.455 0.04 0 0.46 0.04 0 0.465 0.04 0 0.47 0.04 0 0.475 0.04 0 0.48 0.04 0 0.485 0.04 0 0.49 0.04 0 0.495 0.04 0 0.5 0.04 0 0.505 0.04 0 0.51 0.04 0 0.515 0.04 0 0.52 0.04 0 0.525 0.04 0 0.53 0.04 0 0.535 0.04 0 0.54 0.04 0 0.545 0.04 0 0.55 0.04 0 0.555 0.04 0 0.56 0.04 0 0.565 0.04 0 0.57 0.04 0 0.575 0.04 0 0.58 0.04 0 0.585 0.04 0 0.59 0.04 0 0.595 0.04 0 0.6 0.04 0 0.605 0.04 0 0.61 0.04 0 0.615 0.04 0 0.62 0.04 0 0.625 0.04 0 0.63 0.04 0 0.635 0.04 0 0.64 0.04 0 0.645 0.04 0 0.65 0.04 0 0.655 0.04 0 0.66 0.04 0 0.665 0.04 0 0.67 0.04 0 0.675 0.04 0 0.68 0.04 0 0.685 0.04 0 0.69 0.04 0 0.695 0.04 0 0.7 0.04 0 0.705 0.04 0 0.71 0.04 0 0.715 0.04 0 0.72 0.04 0 0.725 0.04 0 0.73 0.04 0 0.735 0.04 0 0.74 0.04 0 0.745 0.04 0 0.75 0.04 0 0.755 0.04 0 0.76 0.04 0 0.765 0.04 0 0.77 0.04 0 0.775 0.04 0 0.78 0.04 0 0.785 0.04 0 0.79 0.04 0 0.795 0.04 0 0.8 0.04 0 0.805 0.04 0 0.81 0.04 0 0.815 0.04 0 0.82 0.04 0 0.825 0.04 0 0.83 0.04 0 0.835 0.04 0 0.84 0.04 0 0.845 0.04 0 0.85 0.04 0 0.855 0.04 0 0.86 0.04 0 0.865 0.04 0 0.87 0.04 0 0.875 0.04 0 0.88 0.04 0 0.885 0.04 0 0.89 0.04 0 0.895 0.04 0 0.9 0.04 0 0.905 0.04 0 0.91 0.04 0 0.915 0.04 0 0.92 0.04 0 0.925 0.04 0 0.93 0.04 0 0.935 0.04 0 0.94 0.04 0 0.945 0.04 0 0.95 0.04 0 0.955 0.04 0 0.96 0.04 0 0.965 0.04 0 0.97 0.04 0 0.975 0.04 0 0.98 0.04 0 0.985 0.04 0 0.99 0.04 0 0.995 0.04 0 1 0.04 0 0 0.06 0 0.005 0.06 0 0.01 0.06 0 0.015 0.06 0 0.02 0.06 0 0.025 0.06 0 0.03 0.06 0 0.035 0.06 0 0.04 0.06 0 0.045 0.06 0 0.05 0.06 0 0.055 0.06 0 0.06 0.06 0 0.065 0.06 0 0.07 0.06 0 0.075 0.06 0 0.08 0.06 0 0.085 0.06 0 0.09 0.06 0 0.095 0.06 0 0.1 0.06 0 0.105 0.06 0 0.11 0.06 0 0.115 0.06 0 0.12 0.06 0 0.125 0.06 0 0.13 0.06 0 0.135 0.06 0 0.14 0.06 0 0.145 0.06 0 0.15 0.06 0 0.155 0.06 0 0.16 0.06 0 0.165 0.06 0 0.17 0.06 0 0.175 0.06 0 0.18 0.06 0 0.185 0.06 0 0.19 0.06 0 0.195 0.06 0 0.2 0.06 0 0.205 0.06 0 0.21 0.06 0 0.215 0.06 0 0.22 0.06 0 0.225 0.06 0 0.23 0.06 0 0.235 0.06 0 0.24 0.06 0 0.245 0.06 0 0.25 0.06 0 0.255 0.06 0 0.26 0.06 0 0.265 0.06 0 0.27 0.06 0 0.275 0.06 0 0.28 0.06 0 0.285 0.06 0 0.29 0.06 0 0.295 0.06 0 0.3 0.06 0 0.305 0.06 0 0.31 0.06 0 0.315 0.06 0 0.32 0.06 0 0.325 0.06 0 0.33 0.06 0 0.335 0.06 0 0.34 0.06 0 0.345 0.06 0 0.35 0.06 0 0.355 0.06 0 0.36 0.06 0 0.365 0.06 0 0.37 0.06 0 0.375 0.06 0 0.38 0.06 0 0.385 0.06 0 0.39 0.06 0 0.395 0.06 0 0.4 0.06 0 0.405 0.06 0 0.41 0.06 0 0.415 0.06 0 0.42 0.06 0 0.425 0.06 0 0.43 0.06 0 0.435 0.06 0 0.44 0.06 0 0.445 0.06 0 0.45 0.06 0 0.455 0.06 0 0.46 0.06 0 0.465 0.06 0 0.47 0.06 0 0.475 0.06 0 0.48 0.06 0 0.485 0.06 0 0.49 0.06 0 0.495 0.06 0 0.5 0.06 0 0.505 0.06 0 0.51 0.06 0 0.515 0.06 0 0.52 0.06 0 0.525 0.06 0 0.53 0.06 0 0.535 0.06 0 0.54 0.06 0 0.545 0.06 0 0.55 0.06 0 0.555 0.06 0 0.56 0.06 0 0.565 0.06 0 0.57 0.06 0 0.575 0.06 0 0.58 0.06 0 0.585 0.06 0 0.59 0.06 0 0.595 0.06 0 0.6 0.06 0 0.605 0.06 0 0.61 0.06 0 0.615 0.06 0 0.62 0.06 0 0.625 0.06 0 0.63 0.06 0 0.635 0.06 0 0.64 0.06 0 0.645 0.06 0 0.65 0.06 0 0.655 0.06 0 0.66 0.06 0 0.665 0.06 0 0.67 0.06 0 0.675 0.06 0 0.68 0.06 0 0.685 0.06 0 0.69 0.06 0 0.695 0.06 0 0.7 0.06 0 0.705 0.06 0 0.71 0.06 0 0.715 0.06 0 0.72 0.06 0 0.725 0.06 0 0.73 0.06 0 0.735 0.06 0 0.74 0.06 0 0.745 0.06 0 0.75 0.06 0 0.755 0.06 0 0.76 0.06 0 0.765 0.06 0 0.77 0.06 0 0.775 0.06 0 0.78 0.06 0 0.785 0.06 0 0.79 0.06 0 0.795 0.06 0 0.8 0.06 0 0.805 0.06 0 0.81 0.06 0 0.815 0.06 0 0.82 0.06 0 0.825 0.06 0 0.83 0.06 0 0.835 0.06 0 0.84 0.06 0 0.845 0.06 0 0.85 0.06 0 0.855 0.06 0 0.86 0.06 0 0.865 0.06 0 0.87 0.06 0 0.875 0.06 0 0.88 0.06 0 0.885 0.06 0 0.89 0.06 0 0.895 0.06 0 0.9 0.06 0 0.905 0.06 0 0.91 0.06 0 0.915 0.06 0 0.92 0.06 0 0.925 0.06 0 0.93 0.06 0 0.935 0.06 0 0.94 0.06 0 0.945 0.06 0 0.95 0.06 0 0.955 0.06 0 0.96 0.06 0 0.965 0.06 0 0.97 0.06 0 0.975 0.06 0 0.98 0.06 0 0.985 0.06 0 0.99 0.06 0 0.995 0.06 0 1 0.06 0 0 0.08 0 0.005 0.08 0 0.01 0.08 0 0.015 0.08 0 0.02 0.08 0 0.025 0.08 0 0.03 0.08 0 0.035 0.08 0 0.04 0.08 0 0.045 0.08 0 0.05 0.08 0 0.055 0.08 0 0.06 0.08 0 0.065 0.08 0 0.07 0.08 0 0.075 0.08 0 0.08 0.08 0 0.085 0.08 0 0.09 0.08 0 0.095 0.08 0 0.1 0.08 0 0.105 0.08 0 0.11 0.08 0 0.115 0.08 0 0.12 0.08 0 0.125 0.08 0 0.13 0.08 0 0.135 0.08 0 0.14 0.08 0 0.145 0.08 0 0.15 0.08 0 0.155 0.08 0 0.16 0.08 0 0.165 0.08 0
[...]
			<PointData Scalars="VitesseX">
				<DataArray Name="VitesseX" type="Float32" format="ascii">
 0 -3.03256e-15 -2.0585e-14 3.06979e-14 -2.39264e-14 -9.6884e-14 -5.78644e-14 -3.6317e-14 -9.14588e-14 7.64147e-14 6.32022e-15 -1.97696e-13 1.28384e-13 -2.75996e-13 9.45086e-15 -4.61582e-14 -9.14375e-14 9.5187e-14 -5.10334e-14 -5.69629e-14 -1.16571e-13 5.19163e-15 6.22987e-14 -2.71039e-13 -4.21942e-14 1.96187e-13 1.07264e-13 1.25851e-13 -2.64264e-13 6.28762e-14 -3.05045e-13 -9.9603e-14 8.65438e-14 -2.2355e-13 1.96928e-13 -1.93435e-13 4.13559e-13 -1.03959e-12 6.88745e-13 -3.08412e-13 5.06034e-14 -1.92412e-13 8.59376e-14 8.21273e-14 1.12891e-13 -2.89926e-13 4.01957e-13 -1.0667e-12 -7.67583e-14 -7.85067e-14 1.29347e-13 -1.70513e-13 -8.45127e-13 1.11438e-12 4.18114e-13 -1.26419e-13 2.10649e-13 -6.50451e-13 8.25386e-13 -3.75158e-13 -3.65924e-13 -6.17293e-13 5.16296e-14 1.0508e-13 -8.35054e-13 1.25127e-13 5.77627e-13 2.54749e-13 8.9253e-13 -5.97795e-13 -5.29704e-13 5.47341e-13 -3.02311e-13 -2.77137e-13 -8.61662e-13 -5.44274e-13 5.52736e-13 -5.8538e-14 1.90759e-13 2.81234e-12 4.70146e-11 7.15739e-10 9.84835e-09 1.18982e-07 1.24989e-06 1.12687e-05 8.57964e-05 0.000540528 0.00274846 0.0109823 0.033839 0.0810108 0.15604 0.252655 0.356844 0.458616 0.556065 0.646957 0.728754 0.799893 0.860497 0.909379 0.941989 0.941733 0.942582 0.93136 0.95178 0.935992 0.941374 0.934568 0.930109 0.917997 0.880275 0.801223 0.683478 0.536156 0.377552 0.231488 0.119797 0.0515076 0.01893 0.00628134 0.00195568 0.000582442 0.000167108 4.62916e-05 1.23896e-05 3.20457e-06 8.01186e-07 1.93668e-07 4.52767e-08 1.02413e-08 2.24172e-09 4.74207e-10 9.73737e-11 1.95891e-11 4.17135e-12 5.58991e-13 -6.85552e-13 8.87504e-13 -6.60898e-13 -1.83925e-13 1.36532e-12 -1.28681e-12 -7.77665e-13 5.48725e-13 3.06361e-13 6.04902e-13 -5.16637e-13 -7.42896e-13 1.7262e-12 -1.72776e-13 1.03677e-12 -1.06828e-12 -2.31193e-15 -2.99741e-13 9.40477e-13 2.73214e-13 -1.45836e-12 -1.23018e-12 2.06117e-13 1.7353e-12 -2.32714e-13 -2.23587e-12 2.75568e-13 6.98619e-13 2.48497e-13 7.14373e-14 -4.4938e-13 8.96833e-13 -6.40918e-13 -2.23631e-13 8.89207e-13 2.54582e-13 8.97453e-13 -1.25561e-12 -6.23158e-13 1.50761e-12 -6.26655e-13 1.05954e-12 -1.54592e-12 -9.30712e-13 5.88917e-13 -4.29046e-13 -3.31929e-13 -5.35888e-13 -1.26189e-12 1.46301e-12 8.23989e-13 -4.31508e-14 -2.10095e-12 8.67879e-14 2.17205e-12 -9.2438e-13 -1.71668e-12 -1.49624e-12 1.06903e-12 1.93099e-12 -1.97332e-12 -1.72337e-12 0 0 -6.05359e-15 1.00994e-15 -5.36237e-14 -4.48808e-14 -1.78336e-15 -5.45134e-14 -1.05806e-13 -3.97272e-14 -1.40602e-13 -7.90014e-14 1.04725e-13 -1.98924e-13 1.04536e-13 -1.78066e-13 -1.40279e-14 2.16756e-14 -1.61901e-13 3.50965e-14 -4.66777e-14 -2.91351e-14 -3.86384e-14 -1.06116e-13 -1.69647e-14 -4.54684e-14 9.79737e-14 6.16117e-14 -6.90375e-14 4.27148e-14 -1.32462e-13 -9.62797e-15 -2.14098e-13 -1.82592e-13 1.12996e-13 -2.56133e-13 1.585e-13 -4.1692e-13 6.57252e-13 -7.0304e-13 1.32607e-13 5.61956e-14 7.66966e-14 -1.43278e-13 3.5585e-14 -1.94457e-13 3.34472e-14 -5.87387e-13 2.37037e-13 -6.147e-13 -3.03489e-13 -4.60171e-13 1.30542e-13 7.14294e-13 -3.91689e-13 -3.08379e-14 5.13454e-13 4.95439e-14 2.64784e-13 -6.17145e-13 2.71409e-13 -9.34017e-14 -1.39919e-13 -3.80987e-13 -3.25677e-13 3.80747e-13 -1.22524e-13 2.17851e-13 1.21265e-13 -4.7876e-13 6.03579e-13 1.96731e-13 -5.36831e-13 -4.09659e-13 -4.0242e-13 1.22073e-14 -2.0473e-13 -4.67535e-13 1.30434e-13 5.9683e-13 3.40696e-12 4.60046e-11 7.16846e-10 9.84779e-09 1.18981e-07 1.24989e-06 1.12687e-05 8.57964e-05 0.000540528 0.00274846 0.0109823 0.033839 0.0810108 0.15604 0.252655 0.356844 0.458616 0.556065 0.646957 0.728754 0.799893 0.860497 0.909379 0.941989 0.941733 0.942582 0.93136 0.95178 0.935992 0.941374 0.934568 0.930109 0.917997 0.880275 0.801223 0.683478 0.536156 0.377552 0.231488 0.119797 0.0515076 0.01893 0.00628134 0.00195568 0.000582442 0.000167108 4.62916e-05 1.23896e-05 3.20457e-06 8.01188e-07 1.93668e-07 4.52767e-08 1.02403e-08 2.24156e-09 4.7535e-10 9.72216e-11 1.95222e-11 3.37715e-12 6.73513e-13 3.92586e-13 -7.41088e-13 2.02994e-13 2.04923e-13 -8.63301e-13 5.99802e-13 5.40937e-13 -3.08412e-13 -2.81275e-13 -5.56621e-13 6.30243e-13 9.97994e-13 -6.71157e-13 2.37379e-13 -2.73419e-13 1.11832e-12 -1.24854e-13 2.43124e-13 -9.22088e-13 -4.75874e-13 5.76441e-13 5.98052e-15 -3.02401e-13 -1.53286e-12 -1.0109e-13 1.46075e-12 8.78401e-14 -4.12633e-13 -1.0514e-12 5.18138e-14 9.94291e-13 -6.97541e-13 5.1949e-13 4.93651e-13 -4.9372e-13 3.66479e-13 -6.10477e-13 8.22897e-13 9.15259e-13 -6.02793e-13 -6.23038e-14 -1.26183e-12 9.64088e-13 -2.45852e-14 -1.12613e-12 -4.52836e-13 -2.48607e-13 -3.16698e-13 4.04358e-13 -4.47391e-13 -6.95152e-13 -4.82939e-13 1.38781e-12 -3.72216e-13 -1.3823e-12 3.49978e-13 8.06361e-13 -1.65443e-13 -1.2058e-12 -1.53523e-12 7.98264e-13 8.5455e-13 0 0 -1.71518e-14 -1.31581e-14 -2.31776e-14 -6.87093e-14 -8.46813e-14 -4.97091e-14 -8.33573e-14 -1.31491e-13 -4.74729e-14 -1.17899e-13 -1.16073e-13 6.73766e-14 -1.33448e-13 9.43122e-16 -1.01848e-14 1.04913e-14 -2.84505e-14 -3.87956e-14 -9.48573e-14 -1.25984e-13 -6.32129e-14 -5.12462e-14 -4.79817e-14 9.58903e-14 -1.45614e-14 -3.86238e-14 2.47776e-14 -7.04602e-14 -1.43782e-14 -2.43943e-13 2.28761e-15 -1.1703e-13 1.63193e-14 1.4247e-13 -5.59859e-13 7.70502e-14 -2.07761e-13 1.41551e-13 -1.7772e-14 -1.31831e-13 -2.02155e-13 1.92221e-13 -2.55768e-13 -1.78831e-13 -4.59376e-13 2.17716e-13 -3.61195e-13 3.59915e-13 -2.82296e-13 -6.82692e-14 -5.08208e-14 3.01652e-14 2.58424e-13 5.18513e-14 -1.38245e-13 8.62624e-14 1.03729e-13 -1.33756e-13 -1.98696e-13 1.12091e-15 7.34503e-15 -4.35292e-13 1.02056e-13 -1.24246e-13 2.83894e-13 -2.25591e-13 8.87028e-14 -1.08772e-13 1.23178e-13 -1.12139e-13 2.08145e-13 -3.42679e-13 -1.95312e-13 -3.15249e-14 -5.01953e-13 -7.19926e-14 1.10874e-13 6.67804e-13 2.76389e-12 4.63638e-11 7.16162e-10 9.84745e-09 1.18982e-07 1.24989e-06 1.12687e-05 8.57964e-05 0.000540528 0.00274846 0.0109823 0.033839 0.0810108 0.15604 0.252655 0.356844 0.458616 0.556065 0.646957 0.728754 0.799893 0.860497 0.909379 0.941989 0.941733 0.942582 0.93136 0.95178 0.935992 0.941374 0.934568 0.930109 0.917997 0.880275 0.801223 0.683478 0.536156 0.377552 0.231488 0.119797 0.0515076 0.01893 0.00628134 0.00195568 0.000582442 0.000167108 4.62916e-05 1.23896e-05 3.20457e-06 8.01187e-07 1.93668e-07 4.52765e-08 1.02409e-08 2.24164e-09 4.74796e-10 9.74715e-11 1.88944e-11 3.79055e-12 9.7201e-13 -7.18574e-13 7.73659e-14 -5.29161e-13 2.49158e-13 3.42709e-13 -4.61892e-13 2.9947e-13 7.71794e-13 -1.55494e-13 1.893e-13 -4.19711e-13 -3.29653e-13 5.47287e-13 2.72705e-13 6.04899e-13 -3.85547e-13 2.82002e-13 -2.79503e-13 -3.74233e-13 -7.83731e-13 -1.22513e-13 2.20748e-13 -4.13104e-13 3.4399e-13 -6.94706e-13 2.8658e-13 -3.70396e-13 -3.90833e-13 4.0327e-13 4.3651e-13 -1.55131e-14 -2.10794e-13 -7.57663e-13 5.01353e-13 2.46063e-13 -3.63355e-13 6.32425e-13 -3.24808e-14 3.06392e-13 9.03061e-14 -1.17407e-13 -1.36709e-13 -4.88796e-13 -4.08894e-13 -1.4979e-13 -5.11434e-13 -1.4656e-14 -6.18292e-13 -9.22333e-14 3.05768e-14 -8.07001e-13 7.10528e-13 -4.91228e-13 3.88033e-14 2.8182e-13 -8.45963e-13 5.02583e-14 2.37152e-13 -2.08716e-13 -5.23536e-13 -6.84758e-13 -2.16483e-13 0 0 1.36029e-14 -1.90203e-14 -2.65922e-14 -4.94012e-14 -1.00652e-13 -1.11646e-13 -1.30481e-13 -1.48391e-13 -9.40898e-15 3.28921e-14 -6.78507e-14 1.0397e-13 -1.23324e-13 -6.6759e-14 -2.19926e-14 -1.39819e-13 -2.75907e-14 -3.7256e-14 -1.10838e-13 -1.87906e-13 -5.5612e-14 8.71843e-14 5.25293e-14 -3.31029e-14 -5.5376e-14 9.84529e-14 -1.42633e-13 -2.69923e-13 -5.00557e-14 6.88388e-15 -2.04774e-13 -1.58795e-14 1.6956e-13 -1.68058e-13 -2.27175e-14 2.23804e-13 -4.22249e-13 3.226e-13 -1.85656e-13 -2.82178e-13 -4.50516e-13 3.04858e-15 -6.95384e-14 1.27602e-13 -3.82255e-14 3.6968e-13 -5.52356e-13 1.21567e-13 2.24024e-15 6.48462e-14 -1.17908e-13 6.55944e-14 8.46838e-14 3.69026e-13 -1.17669e-13 -1.97679e-13 -1.86723e-13 1.86489e-13 -3.94711e-13 -1.69457e-13 -6.54426e-13 -3.70835e-13 -1.64596e-13 -3.16278e-13 5.92931e-13 4.37369e-13 4.52967e-13 4.59084e-13 -1.19821e-13 -2.01905e-13 1.29139e-13 -1.3682e-13 2.37396e-13 -5.3749e-13 -3.90331e-13 -3.82341e-13 2.56852e-13 -5.26214e-14 2.72353e-12 4.67294e-11 7.16192e-10 9.84773e-09 1.18981e-07 1.24989e-06 1.12687e-05 8.57964e-05 0.000540528 0.00274846 0.0109823 0.033839 0.0810108 0.15604 0.252655 0.356844 0.458616 0.556065 0.646957 0.728754 0.799893 0.860497 0.909379 0.941989 0.941733 0.942582 0.93136 0.95178 0.935992 0.941374 0.934568 0.930109 0.917997 0.880275 0.801223 0.683478 0.536156 0.377552 0.231488 0.119797 0.0515076 0.01893 0.00628134 0.00195568 0.000582442 0.000167108 4.62916e-05 1.23896e-05 3.20457e-06 8.01187e-07 1.93668e-07 4.52768e-08 1.02409e-08 2.2416e-09 4.74779e-10 9.70838e-11 1.92359e-11 3.77711e-12 2.68314e-13 1.32938e-13 2.69963e-13 -4.55416e-13 -1.47264e-13 8.31169e-13 -1.92059e-13 -1.65858e-13 6.87004e-13 6.01987e-13 3.76785e-13 -2.69951e-13 -2.19878e-13 5.35043e-13 -4.74336e-13 1.51882e-13 -6.59083e-13 2.58117e-13 -2.20354e-13 1.96121e-13 -7.24938e-13 -9.37702e-13 -7.43326e-13 -2.52429e-13 6.20246e-13 4.77316e-14 -8.69456e-13 8.7076e-14 -1.58698e-13 -2.27501e-13 -8.51045e-13 -1.86946e-13 8.49668e-13 5.40409e-13 -3.1825e-13 -2.30007e-13 9.74109e-13 1.59138e-13 -1.82517e-13 -9.39043e-13 7.47972e-13 1.99058e-13 7.8734e-13 -1.30691e-12 -4.19567e-13 -4.40364e-13 3.25203e-14 1.92279e-13 -4.71174e-13 -3.53968e-13 1.67733e-13 1.2072e-12 3.30955e-14 -1.38753e-12 -5.43592e-14 9.74582e-13 2.30998e-13 -6.87616e-13 -5.47361e-13 1.00578e-12 4.17726e-13 -1.4944e-12 -1.86019e-12 0 0 1.77724e-14 4.62657e-15 -6.69626e-14 -5.06496e-14 -5.6116e-14 -1.44451e-13 -1.72235e-13 -7.87785e-14 -7.11565e-14 4.67074e-14 1.44282e-13 -1.2888e-13 1.49391e-13 -2.66088e-13 1.12223e-14 -7.3713e-14 -1.60596e-13 -8.57176e-14 -5.6481e-14 -1.5196e-13 -1.5756e-13 -8.79462e-14 -9.26829e-14 -8.54141e-14 -8.53828e-14 -8.27619e-14 -2.57589e-13 -4.57097e-14 -8.53751e-14 3.02093e-13 -7.52603e-14 6.51484e-14 4.14811e-13 -3.10764e-13 4.24191e-13 -2.72688e-13 5.8013e-13 -6.57687e-13 -3.73563e-14 -3.28777e-13 -1.09249e-13 -4.05204e-13 3.22419e-14 -9.82886e-14 3.17009e-13 -6.70455e-13 2.7371e-13 -4.7237e-13 -2.69271e-13 -3.37078e-13 -7.64662e-15 7.53396e-13 -5.89685e-13 1.26553e-13 5.59906e-13 -1.40099e-13 4.6813e-14 -4.34859e-13 -6.63286e-14 -3.68298e-13 -5.92396e-13 -2.59959e-13 -4.1791e-13 4.01976e-13 3.84586e-13 7.31729e-13 5.44384e-13 1.02306e-14 7.19136e-13 2.3617e-14 -7.80525e-13 -2.97567e-13 -2.53373e-13 -6.67165e-14 -1.02834e-13 -7.44274e-13 6.11682e-13 2.00846e-13 3.18031e-12 4.60498e-11 7.16959e-10 9.84762e-09 1.18981e-07 1.24989e-06 1.12687e-05 8.57964e-05 0.000540528 0.00274846 0.0109823 0.033839 0.0810108 0.15604 0.252655 0.356844 0.458616 0.556065 0.646957 0.728754 0.799893 0.860497 0.909379 0.941989 0.941733 0.942582 0.93136 0.95178 0.935992 0.941374 0.934568 0.930109 0.917997 0.880275 0.801223 0.683478 0.536156 0.377552 0.231488 0.119797 0.0515076 0.01893 0.00628134 0.00195568 0.000582442 0.000167108 4.62916e-05 1.23896e-05 3.20457e-06 8.01188e-07 1.93667e-07 4.52767e-08 1.02401e-08 2.24151e-09 4.7553e-10 9.70117e-11 1.94476e-11 3.28182e-12 1.3529e-13 1.03429e-12 -8.32761e-13 3.94125e-13 5.29375e-13 -2.6683e-13 1.1906e-12 6.48559e-13 -2.47546e-13 1.51371e-13 -2.93743e-13 1.13058e-12 1.13741e-12 -1.2227e-12 2.56867e-13 -9.56242e-13 3.11619e-13 -5.16196e-13 -2.55439e-14 -9.82152e-13 -9.14051e-13 -2.81472e-13 -9.23682e-13 -7.72414e-13 -1.53679e-12 1.26936e-12 1.50436e-12 3.26186e-13 2.77974e-13 -1.97815e-12 -1.18171e-12 7.38233e-13 -8.78369e-14 1.38937e-12 -3.1505e-13 -1.32253e-12 6.76059e-13 -6.30061e-13 1.03277e-12 5.83958e-13 -7.15906e-13 2.77635e-13 -4.41047e-13 5.3548e-13 -3.1746e-13 -1.87875e-12 -1.12402e-13 -9.79791e-14 1.43219e-13 6.21933e-13 -4.09508e-13 6.28374e-13 -7.26586e-13 3.07498e-13 -1.44012e-13 -7.95254e-13 1.20399e-12 4.92969e-13 -3.14003e-13 -6.85233e-13 -1.28468e-12 -5.57506e-14 4.73952e-14 0 0 -1.689e-14 -1.6272e-15 1.08492e-14 -7.408e-14 -1.73609e-13 -1.13865e-13 -7.49267e-14 -1.35761e-13 1.39178e-13 -4.38448e-14 -2.15027e-13 1.95285e-13 -2.06535e-13 -3.11875e-14 2.79579e-14 1.84052e-14 9.60776e-14 -2.95741e-13 -4.46083e-14 -2.38376e-13 -2.47854e-13 -1.78224e-13 -6.23497e-13 1.35901e-13 -8.88966e-14 -4.55637e-13 8.357e-14 -4.21878e-14 2.28404e-13 -1.83258e-13 5.92194e-13 3.79724e-13 7.3598e-14 7.08723e-13 -7.36336e-13 4.08515e-13 -7.6486e-13 4.17353e-13 -3.12569e-13 -4.18647e-13 -6.75815e-14 -5.95714e-14 -2.97019e-13 -3.07641e-13 -5.65105e-13 -6.81075e-14 -6.11029e-13 6.84596e-13 -5.79142e-13 1.09303e-13 -3.12716e-13 -8.37781e-13 1.06587e-12 9.85465e-14 -7.46671e-14 3.99247e-13 -5.05489e-13 5.49469e-13 -6.58602e-13 -5.74561e-13 -1.98705e-13 1.64772e-13 4.53917e-13 -4.08532e-13 5.2127e-13 2.79463e-13 3.7246e-13 7.34802e-13 1.19316e-13 -6.96398e-13 2.17963e-13 -4.89845e-13 -8.44457e-13 -7.5783e-15 -5.63725e-13 6.19954e-13 6.12002e-13 8.39642e-13 2.43974e-12 4.63737e-11 7.15904e-10 9.84745e-09 1.18983e-07 1.24989e-06 1.12687e-05 8.57964e-05 0.000540528 0.00274846 0.0109823 0.033839 0.0810108 0.15604 0.252655 0.356844 0.458616 0.556065 0.646957 0.728754 0.799893 0.860497 0.909379 0.941989 0.941733 0.942582 0.93136 0.95178 0.935992 0.941374 0.934568 0.930109 0.917997 0.880275 0.801223 0.683478 0.536156 0.377552 0.231488 0.119797 0.0515076 0.01893 0.00628134 0.00195568 0.000582442 0.000167108 4.62916e-05 1.23896e-05 3.20457e-06 8.01187e-07 1.93668e-07 4.52763e-08 1.02409e-08 2.24169e-09 4.74602e-10 9.7729e-11 1.8757e-11 4.00756e-12 8.89936e-13 -1.10517e-12 3.18965e-13 -4.26125e-13 1.25782e-12 1.58134e-12 -6.44886e-13 3.68233e-13 8.40036e-13 -3.43308e-13 7.55688e-13 1.8451e-13 -6.83621e-13 6.47594e-13 1.36028e-12 5.77158e-13 -2.13461e-12 -7.37225e-13 -9.55375e-13 -3.20358e-13 -7.20726e-13 -1.54381e-12 -1.16136e-12 -1.05526e-12 1.17492e-12 1.02332e-12 1.63421e-13 -1.62684e-13 1.61556e-12 -3.43459e-13 1.79509e-13 -6.18631e-13 -4.68337e-15 -1.4973e-12 -2.01828e-13 1.83732e-13 -1.80119e-12 1.80486e-12 -5.35799e-13 1.20511e-12 -3.39498e-14 -5.79708e-13 8.53016e-13 -7.66902e-13 -1.49512e-12 -3.35176e-13 -8.36086e-13 -4.44544e-13 8.97109e-14 -3.0327e-13 1.26446e-12 -5.57364e-13 8.24418e-13 -2.46898e-12 7.29521e-13 1.96062e-12 -1.37027e-12 -8.67715e-13 -2.24328e-13 -3.18818e-13 5.49559e-13 -2.06208e-12 -5.02677e-14 0
				</DataArray>
				<DataArray Name="VitesseY" type="Float32" format="ascii">