<?xml version="1.0"?>
<VTKFile type="PolyData">
	<PolyData>
		<Piece NumberOfPoints="1206" NumberOfPolys="1000">
			<Points>
				<DataArray type="Float32" NumberOfComponents="3" format="ascii">
 0 0 0 0.005 0 0 0.01 0 0 0.015 0 0 0.02 0 0 0.025 0 0 0.03 0 0 0.035 0 0 0.04 0 0 0.045 0 0 0.05 0 0 0.055 0 0 0.06 0 0 0.065 0 0 0.07 0 0 0.075 0 0 0.08 0 0 0.085 0 0 0.09 0 0 0.095 0 0 0.1 0 0 0.105 0 0 0.11 0 0 0.115 0 0 0.12 0 0 0.125 0 0 0.13 0 0 0.135 0 0 0.14 0 0 0.145 0 0 0.15 0 0 0.155 0 0 0.16 0 0 0.165 0 0 0.17 0 0 0.175 0 0 0.18 0 0 0.185 0 0 0.19 0 0 0.195 0 0 0.2 0 0 0.205 0 0 0.21 0 0 0.215 0 0 0.22 0 0 0.225 0 0 0.23 0 0 0.235 0 0 0.24 0 0 0.245 0 0 0.25 0 0 0.255 0 0 0.26 0 0 0.265 0 0 0.27 0 0 0.275 0 0 0.28 0 0 0.285 0 0 0.29 0 0 0.295 0 0 0.3 0 0 0.305 0 0 0.31 0 0 0.315 0 0 0.32 0 0 0.325 0 0 0.33 0 0 0.335 0 0 0.34 0 0 0.345 0 0 0.35 0 0 0.355 0 0 0.36 0 0 0.365 0 0 0.37 0 0 0.375 0 0 0.38 0 0 0.385 0 0 0.39 0 0 0.395 0 0 0.4 0 0 0.405 0 0 0.41 0 0 0.415 0 0 0.42 0 0 0.425 0 0 0.43 0 0 0.435 0 0 0.44 0 0 0.445 0 0 0.45 0 0 0.455 0 0 0.46 0 0 0.465 0 0 0.47 0 0 0.475 0 0 0.48 0 0 0.485 0 0 0.49 0 0 0.495 0 0 0.5 0 0 0.505 0 0 0.51 0 0 0.515 0 0 0.52 0 0 0.525 0 0 0.53 0 0 0.535 0 0 0.54 0 0 0.545 0 0 0.55 0 0 0.555 0 0 0.56 0 0 0.565 0 0 0.57 0 0 0.575 0 0 0.58 0 0 0.585 0 0 0.59 0 0 0.595 0 0 0.6 0 0 0.605 0 0 0.61 0 0 0.615 0 0 0.62 0 0 0.625 0 0 0.63 0 0 0.635 0 0 0.64 0 0 0.645 0 0 0.65 0 0 0.655 0 0 0.66 0 0 0.665 0 0 0.67 0 0 0.675 0 0 0.68 0 0 0.685 0 0 0.69 0 0 0.695 0 0 0.7 0 0 0.705 0 0 0.71 0 0 0.715 0 0 0.72 0 0 0.725 0 0 0.73 0 0 0.735 0 0 0.74 0 0 0.745 0 0 0.75 0 0 0.755 0 0 0.76 0 0 0.765 0 0 0.77 0 0 0.775 0 0 0.78 0 0 0.785 0 0 0.79 0 0 0.795 0 0 0.8 0 0 0.805 0 0 0.81 0 0 0.815 0 0 0.82 0 0 0.825 0 0 0.83 0 0 0.835 0 0 0.84 0 0 0.845 0 0 0.85 0 0 0.855 0 0 0.86 0 0 0.865 0 0 0.87 0 0 0.875 0 0 0.88 0 0 0.885 0 0 0.89 0 0 0.895 0 0 0.9 0 0 0.905 0 0 0.91 0 0 0.915 0 0 0.92 0 0 0.925 0 0 0.93 0 0 0.935 0 0 0.94 0 0 0.945 0 0 0.95 0 0 0.955 0 0 0.96 0 0 0.965 0 0 0.97 0 0 0.975 0 0 0.98 0 0 0.985 0 0 0.99 0 0 0.995 0 0 1 0 0 0 0.02 0 0.005 0.02 0 0.01 0.02 0 0.015 0.02 0 0.02 0.02 0 0.025 0.02 0 0.03 0.02 0 0.035 0.02 0 0.04 0.02 0 0.045 0.02 0 0.05 0.02 0 0.055 0.02 0 0.06 0.02 0 0.065 0.02 0 0.07 0.02 0 0.075 0.02 0 0.08 0.02 0 0.085 0.02 0 0.09 0.02 0 0.095 0.02 0 0.1 0.02 0 0.105 0.02 0 0.11 0.02 0 0.115 0.02 0 0.12 0.02 0 0.125 0.02 0 0.13 0.02 0 0.135 0.02 0 0.14 0.02 0 0.145 0.02 0 0.15 0.02 0 0.155 0.02 0 0.16 0.02 0 0.165 0.02 0 0.17 0.02 0 0.175 0.02 0 0.18 0.02 0 0.185 0.02 0 0.19 0.02 0 0.195 0.02 0 0.2 0.02 0 0.205 0.02 0 0.21 0.02 0 0.215 0.02 0 0.22 0.02 0 0.225 0.02 0 0.23 0.02 0 0.235 0.02 0 0.24 0.02 0 0.245 0.02 0 0.25 0.02 0 0.255 0.02 0 0.26 0.02 0 0.265 0.02 0 0.27 0.02 0 0.275 0.02 0 0.28 0.02 0 0.285 0.02 0 0.29 0.02 0 0.295 0.02 0 0.3 0.02 0 0.305 0.02 0 0.31 0.02 0 0.315 0.02 0 0.32 0.02 0 0.325 0.02 0 0.33 0.02 0 0.335 0.02 0 0.34 0.02 0 0.345 0.02 0 0.35 0.02 0 0.355 0.02 0 0.36 0.02 0 0.365 0.02 0 0.37 0.02 0 0.375 0.02 0 0.38 0.02 0 0.385 0.02 0 0.39 0.02 0 0.395 0.02 0 0.4 0.02 0 0.405 0.02 0 0.41 0.02 0 0.415 0.02 0 0.42 0.02 0 0.425 0.02 0 0.43 0.02 0 0.435 0.02 0 0.44 0.02 0 0.445 0.02 0 0.45 0.02 0 0.455 0.02 0 0.46 0.02 0 0.465 0.02 0 0.47 0.02 0 0.475 0.02 0 0.48 0.02 0 0.485 0.02 0 0.49 0.02 0 0.495 0.02 0 0.5 0.02 0 0.505 0.02 0 0.51 0.02 0 0.515 0.02 0 0.52 0.02 0 0.525 0.02 0 0.53 0.02 0 0.535 0.02 0 0.54 0.02 0 0.545 0.02 0 0.55 0.02 0 0.555 0.02 0 0.56 0.02 0 0.565 0.02 0 0.57 0.02 0 0.575 0.02 0 0.58 0.02 0 0.585 0.02 0 0.59 0.02 0 0.595 0.02 0 0.6 0.02 0 0.605 0.02 0 0.61 0.02 0 0.615 0.02 0 0.62 0.02 0 0.625 0.02 0 0.63 0.02 0 0.635 0.02 0 0.64 0.02 0 0.645 0.02 0 0.65 0.02 0 0.655 0.02 0 0.66 0.02 0 0.665 0.02 0 0.67 0.02 0 0.675 0.02 0 0.68 0.02 0 0.685 0.02 0 0.69 0.02 0 0.695 0.02 0 0.7 0.02 0 0.705 0.02 0 0.71 0.02 0 0.715 0.02 0 0.72 0.02 0 0.725 0.02 0 0.73 0.02 0 0.735 0.02 0 0.74 0.02 0 0.745 0.02 0 0.75 0.02 0 0.755 0.02 0 0.76 0.02 0 0.765 0.02 0 0.77 0.02 0 0.775 0.02 0 0.78 0.02 0 0.785 0.02 0 0.79 0.02 0 0.795 0.02 0 0.8 0.02 0 0.805 0.02 0 0.81 0.02 0 0.815 0.02 0 0.82 0.02 0 0.825 0.02 0 0.83 0.02 0 0.835 0.02 0 0.84 0.02 0 0.845 0.02 0 0.85 0.02 0 0.855 0.02 0 0.86 0.02 0 0.865 0.02 0 0.87 0.02 0 0.875 0.02 0 0.88 0.02 0 0.885 0.02 0 0.89 0.02 0 0.895 0.02 0 0.9 0.02 0 0.905 0.02 0 0.91 0.02 0 0.915 0.02 0 0.92 0.02 0 0.925 0.02 0 0.93 0.02 0 0.935 0.02 0 0.94 0.02 0 0.945 0.02 0 0.95 0.02 0 0.955 0.02 0 0.96 0.02 0 0.965 0.02 0 0.97 0.02 0 0.975 0.02 0 0.98 0.02 0 0.985 0.02 0 0.99 0.02 0 0.995 0.02 0 1 0.02 0 0 0.04 0 0.005 0.04 0 0.01 0.04 0 0.015 0.04 0 0.02 0.04 0 0.025 0.04 0 0.03 0.04 0 0.035 0.04 0 0.04 0.04 0 0.045 0.04 0 0.05 0.04 0 0.055 0.04 0 0.06 0.04 0 0.065 0.04 0 0.07 0.04 0 0.075 0.04 0 0.08 0.04 0 0.085 0.04 0 0.09 0.04 0 0.095 0.04 0 0.1 0.04 0 0.105 0.04 0 0.11 0.04 0 0.115 0.04 0 0.12 0.04 0 0.125 0.04 0 0.13 0.04 0 0.135 0.04 0 0.14 0.04 0 0.145 0.04 0 0.15 0.04 0 0.155 0.04 0 0.16 0.04 0 0.165 0.04 0 0.17 0.04 0 0.175 0.04 0 0.18 0.04 0 0.185 0.04 0 0.19 0.04 0 0.195 0.04 0 0.2 0.04 0 0.205 0.04 0 0.21 0.04 0 0.215 0.04 0 0.22 0.04 0 0.225 0.04 0 0.23 0.04 0 0.235 0.04 0 0.24 0.04 0 0.245 0.04 0 0.25 0.04 0 0.255 0.04 0 0.26 0.04 0 0.265 0.04 0 0.27 0.04 0 0.275 0.04 0 0.28 0.04 0 0.285 0.04 0 0.29 0.04 0 0.295 0.04 0 0.3 0.04 0 0.305 0.04 0 0.31 0.04 0 0.315 0.04 0 0.32 0.04 0 0.325 0.04 0 0.33 0.04 0 0.335 0.04 0 0.34 0.04 0 0.345 0.04 0 0.35 0.04 0 0.355 0.04 0 0.36 0.04 0 0.365 0.04 0 0.37 0.04 0 0.375 0.04 0 0.38 0.04 0 0.385 0.04 0 0.39 0.04 0 0.395 0.04 0 0.4 0.04 0 0.405 0.04 0 0.41 0.04 0 0.415 0.04 0 0.42 0.04 0 0.425 0.04 0 0.43 0.04 0 0.435 0.04 0 0.44 0.04 0 0.445 0.04 0 0.45 0.04 0 0.455 0.04 0 0.46 0.04 0 0.465 0.04 0 0.47 0.04 0 0.475 0.04 0 0.48 0.04 0 0.485 0.04 0 0.49 0.04 0 0.495 0.04 0 0.5 0.04 0 0.505 0.04 0 0.51 0.04 0 0.515 0.04 0 0.52 0.04 0 0.525 0.04 0 0.53 0.04 0 0.535 0.04 0 0.54 0.04 0 0.545 0.04 0 0.55 0.04 0 0.555 0.04 0 0.56 0.04 0 0.565 0.04 0 0.57 0.04 0 0.575 0.04 0 0.58 0.04 0 0.585 0.04 0 0.59 0.04 0 0.595 0.04 0 0.6 0.04 0 0.605 0.04 0 0.61 0.04 0 0.615 0.04 0 0.62 0.04 0 0.625 0.04 0 0.63 0.04 0 0.635 0.04 0 0.64 0.04 0 0.645 0.04 0 0.65 0.04 0 0.655 0.04 0 0.66 0.04 0 0.665 0.04 0 0.67 0.04 0 0.675 0.04 0 0.68 0.04 0 0.685 0.04 0 0.69 0.04 0 0.695 0.04 0 0.7 0.04 0 0.705 0.04 0 0.71 0.04 0 0.715 0.04 0 0.72 0.04 0 0.725 0.04 0 0.73 0.04 0 0.735 0.04 0 0.74 0.04 0 0.745 0.04 0 0.75 0.04 0 0.755 0.04 0 0.76 0.04 0 0.765 0.04 0 0.77 0.04 0 0.775 0.04 0 0.78 0.04 0 0.785 0.04 0 0.79 0.04 0 0.795 0.04 0 0.8 0.04 0 0.805 0.04 0 0.81 0.04 0 0.815 0.04 0 0.82 0.04 0 0.825 0.04 0 0.83 0.04 0 0.835 0.04 0 0.84 0.04 0 0.845 0.04 0 0.85 0.04 0 0.855 0.04 0 0.86 0.04 0 0.865 0.04 0 0.87 0.04 0 0.875 0.04 0 0.88 0.04 0 0.885 0.04 0 0.89 0.04 0 0.895 0.04 0 0.9 0.04 0 0.905 0.04 0 0.91 0.04 0 0.915 0.04 0 0.92 0.04 0 0.925 0.04 0 0.93 0.04 0 0.935 0.04 0 0.94 0.04 0 0.945 0.04 0 0.95 0.04 0 0.955 0.04 0 0.96 0.04 0 0.965 0.04 0 0.97 0.04 0 0.975 0.04 0 0.98 0.04 0 0.985 0.04 0 0.99 0.04 0 0.995 0.04 0 1 0.04 0 0 0.06 0 0.005 0.06 0 0.01 0.06 0 0.015 0.06 0 0.02 0.06 0 0.025 0.06 0 0.03 0.06 0 0.035 0.06 0 0.04 0.06 0 0.045 0.06 0 0.05 0.06 0 0.055 0.06 0 0.06 0.06 0 0.065 0.06 0 0.07 0.06 0 0.075 0.06 0 0.08 0.06 0 0.085 0.06 0 0.09 0.06 0 0.095 0.06 0 0.1 0.06 0 0.105 0.06 0 0.11 0.06 0 0.115 0.06 0 0.12 0.06 0 0.125 0.06 0 0.13 0.06 0 0.135 0.06 0 0.14 0.06 0 0.145 0.06 0 0.15 0.06 0 0.155 0.06 0 0.16 0.06 0 0.165 0.06 0 0.17 0.06 0 0.175 0.06 0 0.18 0.06 0 0.185 0.06 0 0.19 0.06 0 0.195 0.06 0 0.2 0.06 0 0.205 0.06 0 0.21 0.06 0 0.215 0.06 0 0.22 0.06 0 0.225 0.06 0 0.23 0.06 0 0.235 0.06 0 0.24 0.06 0 0.245 0.06 0 0.25 0.06 0 0.255 0.06 0 0.26 0.06 0 0.265 0.06 0 0.27 0.06 0 0.275 0.06 0 0.28 0.06 0 0.285 0.06 0 0.29 0.06 0 0.295 0.06 0 0.3 0.06 0 0.305 0.06 0 0.31 0.06 0 0.315 0.06 0 0.32 0.06 0 0.325 0.06 0 0.33 0.06 0 0.335 0.06 0 0.34 0.06 0 0.345 0.06 0 0.35 0.06 0 0.355 0.06 0 0.36 0.06 0 0.365 0.06 0 0.37 0.06 0 0.375 0.06 0 0.38 0.06 0 0.385 0.06 0 0.39 0.06 0 0.395 0.06 0 0.4 0.06 0 0.405 0.06 0 0.41 0.06 0 0.415 0.06 0 0.42 0.06 0 0.425 0.06 0 0.43 0.06 0 0.435 0.06 0 0.44 0.06 0 0.445 0.06 0 0.45 0.06 0 0.455 0.06 0 0.46 0.06 0 0.465 0.06 0 0.47 0.06 0 0.475 0.06 0 0.48 0.06 0 0.485 0.06 0 0.49 0.06 0 0.495 0.06 0 0.5 0.06 0 0.505 0.06 0 0.51 0.06 0 0.515 0.06 0 0.52 0.06 0 0.525 0.06 0 0.53 0.06 0 0.535 0.06 0 0.54 0.06 0 0.545 0.06 0 0.55 0.06 0 0.555 0.06 0 0.56 0.06 0 0.565 0.06 0 0.57 0.06 0 0.575 0.06 0 0.58 0.06 0 0.585 0.06 0 0.59 0.06 0 0.595 0.06 0 0.6 0.06 0 0.605 0.06 0 0.61 0.06 0 0.615 0.06 0 0.62 0.06 0 0.625 0.06 0 0.63 0.06 0 0.635 0.06 0 0.64 0.06 0 0.645 0.06 0 0.65 0.06 0 0.655 0.06 0 0.66 0.06 0 0.665 0.06 0 0.67 0.06 0 0.675 0.06 0 0.68 0.06 0 0.685 0.06 0 0.69 0.06 0 0.695 0.06 0 0.7 0.06 0 0.705 0.06 0 0.71 0.06 0 0.715 0.06 0 0.72 0.06 0 0.725 0.06 0 0.73 0.06 0 0.735 0.06 0 0.74 0.06 0 0.745 0.06 0 0.75 0.06 0 0.755 0.06 0 0.76 0.06 0 0.765 0.06 0 0.77 0.06 0 0.775 0.06 0 0.78 0.06 0 0.785 0.06 0 0.79 0.06 0 0.795 0.06 0 0.8 0.06 0 0.805 0.06 0 0.81 0.06 0 0.815 0.06 0 0.82 0.06 0 0.825 0.06 0 0.83 0.06 0 0.835 0.06 0 0.84 0.06 0 0.845 0.06 0 0.85 0.06 0 0.855 0.06 0 0.86 0.06 0 0.865 0.06 0 0.87 0.06 0 0.875 0.06 0 0.88 0.06 0 0.885 0.06 0 0.89 0.06 0 0.895 0.06 0 0.9 0.06 0 0.905 0.06 0 0.91 0.06 0 0.915 0.06 0 0.92 0.06 0 0.925 0.06 0 0.93 0.06 0 0.935 0.06 0 0.94 0.06 0 0.945 0.06 0 0.95 0.06 0 0.955 0.06 0 0.96 0.06 0 0.965 0.06 0 0.97 0.06 0 0.975 0.06 0 0.98 0.06 0 0.985 0.06 0 0.99 0.06 0 0.995 0.06 0 1 0.06 0 0 0.08 0 0.005 0.08 0 0.01 0.08 0 0.015 0.08 0 0.02 0.08 0 0.025 0.08 0 0.03 0.08 0 0.035 0.08 0 0.04 0.08 0 0.045 0.08 0 0.05 0.08 0 0.055 0.08 0 0.06 0.08 0 0.065 0.08 0 0.07 0.08 0 0.075 0.08 0 0.08 0.08 0 0.085 0.08 0 0.09 0.08 0 0.095 0.08 0 0.1 0.08 0 0.105 0.08 0 0.11 0.08 0 0.115 0.08 0 0.12 0.08 0 0.125 0.08 0 0.13 0.08 0 0.135 0.08 0 0.14 0.08 0 0.145 0.08 0 0.15 0.08 0 0.155 0.08 0 0.16 0.08 0 0.165 0.08 0
[...]
			<PointData Scalars="VitesseX">
				<DataArray Name="VitesseX" type="Float32" format="ascii">
 0 1.19552e-14 -1.75617e-14 8.89066e-14 -2.39132e-14 -4.85513e-14 5.07218e-14 1.78658e-14 1.29242e-14 1.13664e-14 -5.28137e-14 -1.17683e-14 -1.50052e-13 3.78631e-14 -9.03529e-14 -2.55263e-14 3.05111e-14 -1.0358e-13 -5.14312e-14 -9.47641e-14 -1.09897e-13 -9.18391e-14 -4.69685e-14 -8.54324e-14 -2.09311e-13 1.43592e-14 -2.19258e-13 -6.4353e-14 -1.40367e-13 -1.99221e-14 -6.09987e-14 -9.44603e-14 6.09616e-14 -5.19792e-14 -2.36228e-13 -1.83392e-13 -1.53237e-13 -1.66795e-13 -1.8241e-13 -3.11348e-13 -9.91708e-14 -1.57519e-13 6.55562e-14 2.18037e-13 -2.06356e-13 2.80519e-13 2.72523e-14 -3.37461e-13 3.94368e-13 7.9927e-14 -1.80003e-13 -3.56289e-13 1.31334e-12 1.1916e-11 8.29109e-11 5.42061e-10 3.32273e-09 1.91066e-08 1.02708e-07 5.14396e-07 2.39059e-06 1.02617e-05 4.04662e-05 0.000145664 0.000475086 0.00139235 0.00363638 0.00840927 0.0171853 0.0311343 0.0504994 0.0744764 0.101714 0.130951 0.161325 0.19232 0.223692 0.255295 0.28701 0.318745 0.350447 0.382085 0.413635 0.445069 0.476364 0.507493 0.53843 0.569144 0.599601 0.629763 0.659586 0.689025 0.718027 0.746538 0.774505 0.801879 0.828628 0.854745 0.880268 0.905336 0.930667 0.940899 0.94066 0.939895 0.938847 0.937532 0.936049 0.934552 0.933164 0.931937 0.930908 0.930098 0.929496 0.929004 0.928765 0.928512 0.928262 0.928045 0.927784 0.927655 0.927732 0.927079 0.913523 0.931776 0.926032 0.929099 0.926913 0.928778 0.929239 0.929317 0.929445 0.929566 0.929589 0.929587 0.929566 0.929518 0.929429 0.929319 0.929201 0.92911 0.928926 0.92784 0.922073 0.904863 0.865693 0.796219 0.69485 0.566723 0.424067 0.284949 0.16808 0.0859469 0.0384958 0.0157276 0.0061155 0.00232152 0.000871215 0.000324844 0.000120547 4.45366e-05 1.63783e-05 5.99285e-06 2.18069e-06 7.88716e-07 2.83388e-07 1.011e-07 3.57939e-08 1.257e-08 4.37689e-09 1.51005e-09 5.16257e-10 1.74427e-10 5.81306e-11 1.91978e-11 5.82226e-12 2.24812e-12 4.3312e-13 -5.56535e-13 2.30785e-13 -1.99363e-13 5.58087e-14 -4.01212e-13 -2.35666e-13 -4.61931e-13 2.4454e-13 -4.92824e-13 -1.12585e-13 1.88712e-13 -3.05867e-13 -4.33338e-13 7.76625e-13 4.77482e-14 7.63237e-13 4.54272e-13 6.03014e-13 1.15285e-13 -7.93873e-14 2.80723e-13 4.30166e-13 2.34793e-13 0 0 7.81005e-15 3.19033e-14 -2.75158e-14 3.85576e-14 4.00734e-14 8.07815e-15 -1.96299e-14 -1.48355e-14 -4.2524e-14 2.96016e-15 -9.73559e-14 8.8539e-14 -1.46925e-13 1.57939e-14 -3.10134e-14 -1.52338e-13 1.73654e-14 -4.22765e-14 -8.55886e-14 -9.84294e-14 -1.36057e-13 -1.20847e-13 -1.4802e-13 3.06385e-14 -8.89539e-14 -1.15667e-14 -1.73945e-13 -1.59216e-13 4.8291e-14 -5.34906e-14 -6.14287e-14 -1.05378e-13 -8.84599e-14 -1.02268e-13 -2.12434e-13 -1.46143e-13 -1.21654e-13 -1.64325e-13 4.55369e-14 -2.23381e-13 -2.52359e-13 1.25727e-13 -1.69271e-13 1.86639e-13 -2.44592e-13 3.00335e-14 9.92572e-14 -2.15371e-13 -9.63179e-14 9.76036e-14 -3.29567e-14 1.20689e-12 1.19469e-11 8.32813e-11 5.41729e-10 3.32301e-09 1.9106e-08 1.0271e-07 5.14396e-07 2.39059e-06 1.02617e-05 4.04662e-05 0.000145664 0.000475086 0.00139235 0.00363638 0.00840927 0.0171853 0.0311343 0.0504994 0.0744764 0.101714 0.130951 0.161325 0.19232 0.223692 0.255295 0.28701 0.318745 0.350447 0.382085 0.413635 0.445069 0.476364 0.507493 0.53843 0.569144 0.599601 0.629763 0.659586 0.689025 0.718027 0.746538 0.774505 0.801879 0.828628 0.854745 0.880268 0.905336 0.930667 0.940899 0.94066 0.939895 0.938847 0.937532 0.936049 0.934552 0.933164 0.931937 0.930908 0.930098 0.929496 0.929004 0.928765 0.928512 0.928262 0.928045 0.927784 0.927655 0.927732 0.927079 0.913523 0.931776 0.926032 0.929099 0.926913 0.928778 0.929239 0.929317 0.929445 0.929566 0.929589 0.929587 0.929566 0.929518 0.929429 0.929319 0.929201 0.92911 0.928926 0.92784 0.922073 0.904863 0.865693 0.796219 0.69485 0.566723 0.424067 0.284949 0.16808 0.0859469 0.0384958 0.0157276 0.0061155 0.00232152 0.000871215 0.000324844 0.000120547 4.45366e-05 1.63783e-05 5.99285e-06 2.18069e-06 7.88715e-07 2.83388e-07 1.011e-07 3.57936e-08 1.25706e-08 4.37659e-09 1.51026e-09 5.15945e-10 1.7462e-10 5.82693e-11 1.91148e-11 6.21593e-12 1.26156e-12 3.60749e-13 2.34215e-13 -8.54572e-14 5.16629e-14 -2.57943e-13 -2.72151e-13 -1.84793e-13 -1.3296e-13 -2.31386e-13 -1.44655e-13 -2.41776e-13 -2.79749e-13 1.65874e-13 4.90444e-13 -5.80474e-13 7.32817e-13 1.52538e-13 5.18753e-13 -9.07186e-14 2.46368e-13 4.98019e-13 1.70293e-13 2.82557e-13 -2.62514e-13 0 0 1.09584e-14 8.81147e-15 3.86715e-14 4.11449e-14 4.46997e-15 2.16019e-14 -2.6518e-14 -8.39278e-15 2.17499e-14 -7.73951e-14 -3.50431e-14 -3.62081e-14 2.60534e-14 -1.30646e-13 5.74542e-15 5.11943e-14 -1.79703e-13 -3.07367e-14 -2.35865e-14 -1.59522e-13 8.22594e-14 -1.1845e-13 -5.31369e-14 -9.61376e-14 -2.75065e-14 -1.70582e-13 -1.03308e-13 -1.81412e-13 -4.56469e-14 1.44797e-14 -5.5028e-15 -7.86351e-14 -1.24337e-13 -1.95875e-13 -2.19188e-13 -5.81225e-14 -2.88298e-14 -1.60744e-13 -1.12809e-13 -7.89998e-14 -1.77432e-15 -9.56621e-14 -1.6943e-13 -6.97257e-14 1.42928e-13 -2.81774e-13 -1.59985e-13 -3.98336e-14 5.17278e-14 -1.45075e-13 1.35291e-13 1.37619e-12 1.19614e-11 8.34985e-11 5.4168e-10 3.32283e-09 1.91067e-08 1.0271e-07 5.14396e-07 2.39059e-06 1.02617e-05 4.04662e-05 0.000145664 0.000475086 0.00139235 0.00363638 0.00840927 0.0171853 0.0311343 0.0504994 0.0744764 0.101714 0.130951 0.161325 0.19232 0.223692 0.255295 0.28701 0.318745 0.350447 0.382085 0.413635 0.445069 0.476364 0.507493 0.53843 0.569144 0.599601 0.629763 0.659586 0.689025 0.718027 0.746538 0.774505 0.801879 0.828628 0.854745 0.880268 0.905336 0.930667 0.940899 0.940661 0.939895 0.938847 0.937532 0.936049 0.934552 0.933164 0.931937 0.930908 0.930098 0.929496 0.929004 0.928765 0.928512 0.928262 0.928045 0.927784 0.927655 0.927732 0.927079 0.913523 0.931776 0.926032 0.929099 0.926913 0.928778 0.929239 0.929317 0.929445 0.929566 0.929589 0.929587 0.929566 0.929518 0.929429 0.929319 0.929201 0.92911 0.928926 0.92784 0.922073 0.904863 0.865693 0.796219 0.69485 0.566723 0.424067 0.284949 0.16808 0.0859469 0.0384958 0.0157276 0.0061155 0.00232152 0.000871215 0.000324844 0.000120547 4.45366e-05 1.63783e-05 5.99285e-06 2.18069e-06 7.88715e-07 2.83388e-07 1.011e-07 3.5794e-08 1.25704e-08 4.37697e-09 1.51036e-09 5.16238e-10 1.7454e-10 5.83361e-11 1.92692e-11 5.84979e-12 1.87257e-12 -1.19586e-13 -6.65018e-15 1.33594e-13 -2.24408e-13 -1.38459e-13 -2.04425e-13 -1.87933e-13 2.3549e-13 -1.97563e-13 -3.358e-13 -4.51221e-13 3.58909e-14 -1.29469e-13 2.1881e-13 2.7646e-13 -2.52677e-13 1.57172e-13 -4.61165e-13 7.27883e-13 3.36206e-13 5.21045e-15 2.92567e-13 5.63895e-13 2.42013e-13 0 0 1.4135e-14 1.12757e-14 5.242e-14 -5.46898e-15 -2.80526e-15 5.15252e-14 -4.35183e-14 -2.0144e-14 -1.17185e-14 -1.92842e-14 -2.14965e-15 -1.28138e-14 2.61588e-14 -1.48736e-13 2.78486e-14 -3.38556e-14 -9.78063e-14 -8.60459e-14 -6.27076e-14 -2.1679e-14 -2.58168e-14 -4.17106e-14 -3.52543e-14 2.69078e-14 -1.36906e-13 -1.86821e-13 -7.86653e-14 -1.36488e-13 -6.64886e-14 3.68489e-14 -1.74286e-13 5.16469e-14 -2.93652e-13 -2.255e-14 -1.68479e-13 -1.42132e-13 1.176e-14 -6.61041e-14 -1.95173e-13 -1.877e-13 -8.31076e-14 -1.03611e-13 8.12537e-14 -1.42885e-13 -9.58082e-14 -1.51392e-13 -4.18634e-13 2.93733e-13 9.23017e-14 5.69184e-14 -5.28972e-14 1.52762e-12 1.20796e-11 8.33663e-11 5.41887e-10 3.32296e-09 1.91068e-08 1.02709e-07 5.14396e-07 2.39059e-06 1.02617e-05 4.04662e-05 0.000145664 0.000475086 0.00139235 0.00363638 0.00840927 0.0171853 0.0311343 0.0504994 0.0744764 0.101714 0.130951 0.161325 0.19232 0.223692 0.255295 0.28701 0.318745 0.350447 0.382085 0.413635 0.445069 0.476364 0.507493 0.53843 0.569144 0.599601 0.629763 0.659586 0.689025 0.718027 0.746538 0.774505 0.801879 0.828628 0.854745 0.880268 0.905336 0.930667 0.940899 0.94066 0.939895 0.938847 0.937532 0.936049 0.934552 0.933164 0.931937 0.930908 0.930098 0.929496 0.929004 0.928764 0.928512 0.928262 0.928045 0.927784 0.927655 0.927732 0.927079 0.913523 0.931776 0.926032 0.929099 0.926913 0.928778 0.929239 0.929317 0.929445 0.929566 0.929589 0.929587 0.929566 0.929518 0.929429 0.929319 0.929201 0.92911 0.928926 0.92784 0.922073 0.904863 0.865693 0.796219 0.69485 0.566723 0.424067 0.284949 0.16808 0.0859469 0.0384958 0.0157276 0.0061155 0.00232152 0.000871215 0.000324844 0.000120547 4.45366e-05 1.63783e-05 5.99285e-06 2.18069e-06 7.88715e-07 2.83388e-07 1.011e-07 3.57938e-08 1.25705e-08 4.37688e-09 1.51045e-09 5.16347e-10 1.74661e-10 5.82336e-11 1.9603e-11 5.8542e-12 2.18445e-12 1.63429e-13 -3.75125e-13 -5.04607e-13 6.16016e-13 -4.18711e-13 -5.42654e-13 -1.67107e-13 2.52581e-13 -1.75374e-13 -3.66571e-13 1.0712e-13 -6.84323e-14 -1.25385e-13 -5.90395e-13 2.22538e-13 1.25825e-13 3.56582e-13 -2.7263e-13 2.25134e-13 6.26097e-13 -2.138e-13 -1.54161e-13 -2.99111e-14 2.9966e-13 0 0 4.1659e-15 2.79966e-14 -3.50279e-14 1.59302e-14 2.8051e-14 -1.92895e-14 -3.88034e-14 -1.78105e-14 -2.90497e-14 -1.75841e-14 -4.61516e-14 6.45286e-14 -9.51669e-14 2.97051e-14 -4.64227e-14 -1.75773e-13 1.2849e-13 -3.2833e-14 -9.27394e-14 2.90066e-14 -1.98608e-13 -1.36962e-14 -1.14054e-13 1.15431e-13 -1.79984e-13 4.86028e-14 -1.34281e-13 -7.61472e-14 8.8807e-14 9.817e-15 -2.77542e-13 -1.33721e-13 -1.88771e-13 -7.43757e-14 -1.60466e-13 -6.49147e-14 5.62545e-14 -1.85119e-13 -9.26847e-14 -3.28429e-13 -1.99329e-13 5.23433e-14 -4.38009e-14 1.52061e-13 -6.03679e-13 -1.84938e-13 -7.2904e-14 -1.03146e-13 -1.25462e-13 3.57466e-13 9.41925e-14 1.60644e-12 1.21579e-11 8.33798e-11 5.41913e-10 3.32328e-09 1.91065e-08 1.0271e-07 5.14396e-07 2.39059e-06 1.02617e-05 4.04662e-05 0.000145664 0.000475086 0.00139235 0.00363638 0.00840927 0.0171853 0.0311343 0.0504994 0.0744764 0.101714 0.130951 0.161325 0.19232 0.223692 0.255295 0.28701 0.318745 0.350447 0.382085 0.413635 0.445069 0.476364 0.507493 0.53843 0.569144 0.599601 0.629763 0.659586 0.689025 0.718027 0.746538 0.774505 0.801879 0.828628 0.854745 0.880268 0.905336 0.930667 0.940899 0.94066 0.939895 0.938847 0.937532 0.936049 0.934552 0.933164 0.931937 0.930908 0.930098 0.929496 0.929004 0.928764 0.928512 0.928262 0.928045 0.927784 0.927655 0.927732 0.927079 0.913523 0.931776 0.926032 0.929099 0.926913 0.928778 0.929239 0.929317 0.929445 0.929566 0.929589 0.929587 0.929566 0.929518 0.929429 0.929319 0.929201 0.92911 0.928926 0.92784 0.922073 0.904863 0.865693 0.796219 0.69485 0.566723 0.424067 0.284949 0.16808 0.0859469 0.0384958 0.0157276 0.0061155 0.00232152 0.000871215 0.000324844 0.000120547 4.45366e-05 1.63783e-05 5.99285e-06 2.18069e-06 7.88715e-07 2.83388e-07 1.011e-07 3.57937e-08 1.25707e-08 4.37668e-09 1.51051e-09 5.1636e-10 1.74726e-10 5.88084e-11 1.94144e-11 6.01879e-12 1.43041e-12 3.31994e-13 1.0566e-13 -2.56009e-13 5.11705e-13 -5.87924e-13 -5.3519e-13 -4.10617e-13 2.98756e-13 -1.6543e-13 -5.53414e-14 -8.85057e-15 -5.49032e-13 1.73403e-13 -3.00413e-13 -8.96455e-13 6.93049e-13 -1.62944e-13 4.48454e-13 -4.7058e-13 2.36343e-13 3.74671e-13 -3.01616e-13 -3.13572e-13 -2.29677e-13 0 0 -1.68633e-15 -3.03038e-14 4.63852e-14 2.40598e-14 -5.80455e-14 -6.38601e-14 1.35196e-14 3.04765e-14 1.05252e-13 -2.10124e-13 2.48535e-14 -2.44861e-13 1.41169e-13 -2.63491e-14 -1.00551e-13 1.5374e-13 -4.51246e-14 7.80742e-14 -3.08234e-14 -1.30711e-13 -7.90171e-16 1.38545e-14 -5.32654e-14 -2.85816e-13 5.10997e-14 -6.64432e-14 -3.43095e-14 -6.40761e-14 1.02793e-13 2.08782e-14 -1.89121e-13 -2.56288e-13 8.60277e-14 -5.27093e-13 -1.80873e-13 1.77238e-13 1.07842e-13 -4.13278e-13 -4.23064e-13 -9.18659e-14 1.11208e-13 -6.53129e-14 -3.23909e-14 -1.29194e-13 3.98177e-14 -6.63454e-13 -1.64486e-13 -4.83146e-14 -5.95087e-14 -6.42635e-14 2.74387e-13 1.80958e-12 1.21016e-11 8.33723e-11 5.42015e-10 3.32303e-09 1.91074e-08 1.02709e-07 5.14396e-07 2.39059e-06 1.02617e-05 4.04662e-05 0.000145664 0.000475086 0.00139235 0.00363638 0.00840927 0.0171853 0.0311343 0.0504994 0.0744764 0.101714 0.130951 0.161325 0.19232 0.223692 0.255295 0.28701 0.318745 0.350447 0.382085 0.413635 0.445069 0.476364 0.507493 0.53843 0.569144 0.599601 0.629763 0.659586 0.689025 0.718027 0.746538 0.774505 0.801879 0.828628 0.854745 0.880268 0.905336 0.930667 0.940899 0.940661 0.939895 0.938847 0.937532 0.936049 0.934552 0.933164 0.931937 0.930908 0.930098 0.929496 0.929004 0.928765 0.928512 0.928262 0.928045 0.927784 0.927655 0.927732 0.927079 0.913523 0.931776 0.926032 0.929099 0.926913 0.928778 0.929239 0.929317 0.929445 0.929566 0.929589 0.929587 0.929566 0.929518 0.929429 0.929319 0.929201 0.92911 0.928926 0.92784 0.922073 0.904863 0.865693 0.796219 0.69485 0.566723 0.424067 0.284949 0.16808 0.0859469 0.0384958 0.0157276 0.0061155 0.00232152 0.000871215 0.000324844 0.000120547 4.45366e-05 1.63783e-05 5.99285e-06 2.18069e-06 7.88715e-07 2.83388e-07 1.011e-07 3.57944e-08 1.257e-08 4.37727e-09 1.51038e-09 5.16869e-10 1.74398e-10 5.94138e-11 1.91294e-11 5.41918e-12 1.96204e-12 -1.9042e-13 -7.6695e-14 1.16608e-12 -9.60125e-13 -4.36479e-14 -2.50831e-13 -7.28967e-13 3.67317e-13 3.32074e-13 -2.52655e-13 -7.63415e-13 -1.41209e-13 -2.98976e-13 -3.96641e-13 2.52509e-13 -7.88792e-13 -2.66544e-13 -6.33956e-14 8.4879e-13 -4.84547e-13 1.11937e-13 2.30361e-13 4.25522e-13 1.85173e-13 0
				</DataArray>
				<DataArray Name="VitesseY" type="Float32" format="ascii">