<?xml version="1.0"?>
<VTKFile type="PolyData">
	<PolyData>
		<Piece NumberOfPoints="1206" NumberOfPolys="1000">
			<Points>
				<DataArray type="Float32" NumberOfComponents="3" format="ascii">
 0 0 0 0.005 0 0 0.01 0 0 0.015 0 0 0.02 0 0 0.025 0 0 0.03 0 0 0.035 0 0 0.04 0 0 0.045 0 0 0.05 0 0 0.055 0 0 0.06 0 0 0.065 0 0 0.07 0 0 0.075 0 0 0.08 0 0 0.085 0 0 0.09 0 0 0.095 0 0 0.1 0 0 0.105 0 0 0.11 0 0 0.115 0 0 0.12 0 0 0.125 0 0 0.13 0 0 0.135 0 0 0.14 0 0 0.145 0 0 0.15 0 0 0.155 0 0 0.16 0 0 0.165 0 0 0.17 0 0 0.175 0 0 0.18 0 0 0.185 0 0 0.19 0 0 0.195 0 0 0.2 0 0 0.205 0 0 0.21 0 0 0.215 0 0 0.22 0 0 0.225 0 0 0.23 0 0 0.235 0 0 0.24 0 0 0.245 0 0 0.25 0 0 0.255 0 0 0.26 0 0 0.265 0 0 0.27 0 0 0.275 0 0 0.28 0 0 0.285 0 0 0.29 0 0 0.295 0 0 0.3 0 0 0.305 0 0 0.31 0 0 0.315 0 0 0.32 0 0 0.325 0 0 0.33 0 0 0.335 0 0 0.34 0 0 0.345 0 0 0.35 0 0 0.355 0 0 0.36 0 0 0.365 0 0 0.37 0 0 0.375 0 0 0.38 0 0 0.385 0 0 0.39 0 0 0.395 0 0 0.4 0 0 0.405 0 0 0.41 0 0 0.415 0 0 0.42 0 0 0.425 0 0 0.43 0 0 0.435 0 0 0.44 0 0 0.445 0 0 0.45 0 0 0.455 0 0 0.46 0 0 0.465 0 0 0.47 0 0 0.475 0 0 0.48 0 0 0.485 0 0 0.49 0 0 0.495 0 0 0.5 0 0 0.505 0 0 0.51 0 0 0.515 0 0 0.52 0 0 0.525 0 0 0.53 0 0 0.535 0 0 0.54 0 0 0.545 0 0 0.55 0 0 0.555 0 0 0.56 0 0 0.565 0 0 0.57 0 0 0.575 0 0 0.58 0 0 0.585 0 0 0.59 0 0 0.595 0 0 0.6 0 0 0.605 0 0 0.61 0 0 0.615 0 0 0.62 0 0 0.625 0 0 0.63 0 0 0.635 0 0 0.64 0 0 0.645 0 0 0.65 0 0 0.655 0 0 0.66 0 0 0.665 0 0 0.67 0 0 0.675 0 0 0.68 0 0 0.685 0 0 0.69 0 0 0.695 0 0 0.7 0 0 0.705 0 0 0.71 0 0 0.715 0 0 0.72 0 0 0.725 0 0 0.73 0 0 0.735 0 0 0.74 0 0 0.745 0 0 0.75 0 0 0.755 0 0 0.76 0 0 0.765 0 0 0.77 0 0 0.775 0 0 0.78 0 0 0.785 0 0 0.79 0 0 0.795 0 0 0.8 0 0 0.805 0 0 0.81 0 0 0.815 0 0 0.82 0 0 0.825 0 0 0.83 0 0 0.835 0 0 0.84 0 0 0.845 0 0 0.85 0 0 0.855 0 0 0.86 0 0 0.865 0 0 0.87 0 0 0.875 0 0 0.88 0 0 0.885 0 0 0.89 0 0 0.895 0 0 0.9 0 0 0.905 0 0 0.91 0 0 0.915 0 0 0.92 0 0 0.925 0 0 0.93 0 0 0.935 0 0 0.94 0 0 0.945 0 0 0.95 0 0 0.955 0 0 0.96 0 0 0.965 0 0 0.97 0 0 0.975 0 0 0.98 0 0 0.985 0 0 0.99 0 0 0.995 0 0 1 0 0 0 0.02 0 0.005 0.02 0 0.01 0.02 0 0.015 0.02 0 0.02 0.02 0 0.025 0.02 0 0.03 0.02 0 0.035 0.02 0 0.04 0.02 0 0.045 0.02 0 0.05 0.02 0 0.055 0.02 0 0.06 0.02 0 0.065 0.02 0 0.07 0.02 0 0.075 0.02 0 0.08 0.02 0 0.085 0.02 0 0.09 0.02 0 0.095 0.02 0 0.1 0.02 0 0.105 0.02 0 0.11 0.02 0 0.115 0.02 0 0.12 0.02 0 0.125 0.02 0 0.13 0.02 0 0.135 0.02 0 0.14 0.02 0 0.145 0.02 0 0.15 0.02 0 0.155 0.02 0 0.16 0.02 0 0.165 0.02 0 0.17 0.02 0 0.175 0.02 0 0.18 0.02 0 0.185 0.02 0 0.19 0.02 0 0.195 0.02 0 0.2 0.02 0 0.205 0.02 0 0.21 0.02 0 0.215 0.02 0 0.22 0.02 0 0.225 0.02 0 0.23 0.02 0 0.235 0.02 0 0.24 0.02 0 0.245 0.02 0 0.25 0.02 0 0.255 0.02 0 0.26 0.02 0 0.265 0.02 0 0.27 0.02 0 0.275 0.02 0 0.28 0.02 0 0.285 0.02 0 0.29 0.02 0 0.295 0.02 0 0.3 0.02 0 0.305 0.02 0 0.31 0.02 0 0.315 0.02 0 0.32 0.02 0 0.325 0.02 0 0.33 0.02 0 0.335 0.02 0 0.34 0.02 0 0.345 0.02 0 0.35 0.02 0 0.355 0.02 0 0.36 0.02 0 0.365 0.02 0 0.37 0.02 0 0.375 0.02 0 0.38 0.02 0 0.385 0.02 0 0.39 0.02 0 0.395 0.02 0 0.4 0.02 0 0.405 0.02 0 0.41 0.02 0 0.415 0.02 0 0.42 0.02 0 0.425 0.02 0 0.43 0.02 0 0.435 0.02 0 0.44 0.02 0 0.445 0.02 0 0.45 0.02 0 0.455 0.02 0 0.46 0.02 0 0.465 0.02 0 0.47 0.02 0 0.475 0.02 0 0.48 0.02 0 0.485 0.02 0 0.49 0.02 0 0.495 0.02 0 0.5 0.02 0 0.505 0.02 0 0.51 0.02 0 0.515 0.02 0 0.52 0.02 0 0.525 0.02 0 0.53 0.02 0 0.535 0.02 0 0.54 0.02 0 0.545 0.02 0 0.55 0.02 0 0.555 0.02 0 0.56 0.02 0 0.565 0.02 0 0.57 0.02 0 0.575 0.02 0 0.58 0.02 0 0.585 0.02 0 0.59 0.02 0 0.595 0.02 0 0.6 0.02 0 0.605 0.02 0 0.61 0.02 0 0.615 0.02 0 0.62 0.02 0 0.625 0.02 0 0.63 0.02 0 0.635 0.02 0 0.64 0.02 0 0.645 0.02 0 0.65 0.02 0 0.655 0.02 0 0.66 0.02 0 0.665 0.02 0 0.67 0.02 0 0.675 0.02 0 0.68 0.02 0 0.685 0.02 0 0.69 0.02 0 0.695 0.02 0 0.7 0.02 0 0.705 0.02 0 0.71 0.02 0 0.715 0.02 0 0.72 0.02 0 0.725 0.02 0 0.73 0.02 0 0.735 0.02 0 0.74 0.02 0 0.745 0.02 0 0.75 0.02 0 0.755 0.02 0 0.76 0.02 0 0.765 0.02 0 0.77 0.02 0 0.775 0.02 0 0.78 0.02 0 0.785 0.02 0 0.79 0.02 0 0.795 0.02 0 0.8 0.02 0 0.805 0.02 0 0.81 0.02 0 0.815 0.02 0 0.82 0.02 0 0.825 0.02 0 0.83 0.02 0 0.835 0.02 0 0.84 0.02 0 0.845 0.02 0 0.85 0.02 0 0.855 0.02 0 0.86 0.02 0 0.865 0.02 0 0.87 0.02 0 0.875 0.02 0 0.88 0.02 0 0.885 0.02 0 0.89 0.02 0 0.895 0.02 0 0.9 0.02 0 0.905 0.02 0 0.91 0.02 0 0.915 0.02 0 0.92 0.02 0 0.925 0.02 0 0.93 0.02 0 0.935 0.02 0 0.94 0.02 0 0.945 0.02 0 0.95 0.02 0 0.955 0.02 0 0.96 0.02 0 0.965 0.02 0 0.97 0.02 0 0.975 0.02 0 0.98 0.02 0 0.985 0.02 0 0.99 0.02 0 0.995 0.02 0 1 0.02 0 0 0.04 0 0.005 0.04 0 0.01 0.04 0 0.015 0.04 0 0.02 0.04 0 0.025 0.04 0 0.03 0.04 0 0.035 0.04 0 0.04 0.04 0 0.045 0.04 0 0.05 0.04 0 0.055 0.04 0 0.06 0.04 0 0.065 0.04 0 0.07 0.04 0 0.075 0.04 0 0.08 0.04 0 0.085 0.04 0 0.09 0.04 0 0.095 0.04 0 0.1 0.04 0 0.105 0.04 0 0.11 0.04 0 0.115 0.04 0 0.12 0.04 0 0.125 0.04 0 0.13 0.04 0 0.135 0.04 0 0.14 0.04 0 0.145 0.04 0 0.15 0.04 0 0.155 0.04 0 0.16 0.04 0 0.165 0.04 0 0.17 0.04 0 0.175 0.04 0 0.18 0.04 0 0.185 0.04 0 0.19 0.04 0 0.195 0.04 0 0.2 0.04 0 0.205 0.04 0 0.21 0.04 0 0.215 0.04 0 0.22 0.04 0 0.225 0.04 0 0.23 0.04 0 0.235 0.04 0 0.24 0.04 0 0.245 0.04 0 0.25 0.04 0 0.255 0.04 0 0.26 0.04 0 0.265 0.04 0 0.27 0.04 0 0.275 0.04 0 0.28 0.04 0 0.285 0.04 0 0.29 0.04 0 0.295 0.04 0 0.3 0.04 0 0.305 0.04 0 0.31 0.04 0 0.315 0.04 0 0.32 0.04 0 0.325 0.04 0 0.33 0.04 0 0.335 0.04 0 0.34 0.04 0 0.345 0.04 0 0.35 0.04 0 0.355 0.04 0 0.36 0.04 0 0.365 0.04 0 0.37 0.04 0 0.375 0.04 0 0.38 0.04 0 0.385 0.04 0 0.39 0.04 0 0.395 0.04 0 0.4 0.04 0 0.405 0.04 0 0.41 0.04 0 0.415 0.04 0 0.42 0.04 0 0.425 0.04 0 0.43 0.04 0 0.435 0.04 0 0.44 0.04 0 0.445 0.04 0 0.45 0.04 0 0.455 0.04 0 0.46 0.04 0 0.465 0.04 0 0.47 0.04 0 0.475 0.04 0 0.48 0.04 0 0.485 0.04 0 0.49 0.04 0 0.495 0.04 0 0.5 0.04 0 0.505 0.04 0 0.51 0.04 0 0.515 0.04 0 0.52 0.04 0 0.525 0.04 0 0.53 0.04 0 0.535 0.04 0 0.54 0.04 0 0.545 0.04 0 0.55 0.04 0 0.555 0.04 0 0.56 0.04 0 0.565 0.04 0 0.57 0.04 0 0.575 0.04 0 0.58 0.04 0 0.585 0.04 0 0.59 0.04 0 0.595 0.04 0 0.6 0.04 0 0.605 0.04 0 0.61 0.04 0 0.615 0.04 0 0.62 0.04 0 0.625 0.04 0 0.63 0.04 0 0.635 0.04 0 0.64 0.04 0 0.645 0.04 0 0.65 0.04 0 0.655 0.04 0 0.66 0.04 0 0.665 0.04 0 0.67 0.04 0 0.675 0.04 0 0.68 0.04 0 0.685 0.04 0 0.69 0.04 0 0.695 0.04 0 0.7 0.04 0 0.705 0.04 0 0.71 0.04 0 0.715 0.04 0 0.72 0.04 0 0.725 0.04 0 0.73 0.04 0 0.735 0.04 0 0.74 0.04 0 0.745 0.04 0 0.75 0.04 0 0.755 0.04 0 0.76 0.04 0 0.765 0.04 0 0.77 0.04 0 0.775 0.04 0 0.78 0.04 0 0.785 0.04 0 0.79 0.04 0 0.795 0.04 0 0.8 0.04 0 0.805 0.04 0 0.81 0.04 0 0.815 0.04 0 0.82 0.04 0 0.825 0.04 0 0.83 0.04 0 0.835 0.04 0 0.84 0.04 0 0.845 0.04 0 0.85 0.04 0 0.855 0.04 0 0.86 0.04 0 0.865 0.04 0 0.87 0.04 0 0.875 0.04 0 0.88 0.04 0 0.885 0.04 0 0.89 0.04 0 0.895 0.04 0 0.9 0.04 0 0.905 0.04 0 0.91 0.04 0 0.915 0.04 0 0.92 0.04 0 0.925 0.04 0 0.93 0.04 0 0.935 0.04 0 0.94 0.04 0 0.945 0.04 0 0.95 0.04 0 0.955 0.04 0 0.96 0.04 0 0.965 0.04 0 0.97 0.04 0 0.975 0.04 0 0.98 0.04 0 0.985 0.04 0 0.99 0.04 0 0.995 0.04 0 1 0.04 0 0 0.06 0 0.005 0.06 0 0.01 0.06 0 0.015 0.06 0 0.02 0.06 0 0.025 0.06 0 0.03 0.06 0 0.035 0.06 0 0.04 0.06 0 0.045 0.06 0 0.05 0.06 0 0.055 0.06 0 0.06 0.06 0 0.065 0.06 0 0.07 0.06 0 0.075 0.06 0 0.08 0.06 0 0.085 0.06 0 0.09 0.06 0 0.095 0.06 0 0.1 0.06 0 0.105 0.06 0 0.11 0.06 0 0.115 0.06 0 0.12 0.06 0 0.125 0.06 0 0.13 0.06 0 0.135 0.06 0 0.14 0.06 0 0.145 0.06 0 0.15 0.06 0 0.155 0.06 0 0.16 0.06 0 0.165 0.06 0 0.17 0.06 0 0.175 0.06 0 0.18 0.06 0 0.185 0.06 0 0.19 0.06 0 0.195 0.06 0 0.2 0.06 0 0.205 0.06 0 0.21 0.06 0 0.215 0.06 0 0.22 0.06 0 0.225 0.06 0 0.23 0.06 0 0.235 0.06 0 0.24 0.06 0 0.245 0.06 0 0.25 0.06 0 0.255 0.06 0 0.26 0.06 0 0.265 0.06 0 0.27 0.06 0 0.275 0.06 0 0.28 0.06 0 0.285 0.06 0 0.29 0.06 0 0.295 0.06 0 0.3 0.06 0 0.305 0.06 0 0.31 0.06 0 0.315 0.06 0 0.32 0.06 0 0.325 0.06 0 0.33 0.06 0 0.335 0.06 0 0.34 0.06 0 0.345 0.06 0 0.35 0.06 0 0.355 0.06 0 0.36 0.06 0 0.365 0.06 0 0.37 0.06 0 0.375 0.06 0 0.38 0.06 0 0.385 0.06 0 0.39 0.06 0 0.395 0.06 0 0.4 0.06 0 0.405 0.06 0 0.41 0.06 0 0.415 0.06 0 0.42 0.06 0 0.425 0.06 0 0.43 0.06 0 0.435 0.06 0 0.44 0.06 0 0.445 0.06 0 0.45 0.06 0 0.455 0.06 0 0.46 0.06 0 0.465 0.06 0 0.47 0.06 0 0.475 0.06 0 0.48 0.06 0 0.485 0.06 0 0.49 0.06 0 0.495 0.06 0 0.5 0.06 0 0.505 0.06 0 0.51 0.06 0 0.515 0.06 0 0.52 0.06 0 0.525 0.06 0 0.53 0.06 0 0.535 0.06 0 0.54 0.06 0 0.545 0.06 0 0.55 0.06 0 0.555 0.06 0 0.56 0.06 0 0.565 0.06 0 0.57 0.06 0 0.575 0.06 0 0.58 0.06 0 0.585 0.06 0 0.59 0.06 0 0.595 0.06 0 0.6 0.06 0 0.605 0.06 0 0.61 0.06 0 0.615 0.06 0 0.62 0.06 0 0.625 0.06 0 0.63 0.06 0 0.635 0.06 0 0.64 0.06 0 0.645 0.06 0 0.65 0.06 0 0.655 0.06 0 0.66 0.06 0 0.665 0.06 0 0.67 0.06 0 0.675 0.06 0 0.68 0.06 0 0.685 0.06 0 0.69 0.06 0 0.695 0.06 0 0.7 0.06 0 0.705 0.06 0 0.71 0.06 0 0.715 0.06 0 0.72 0.06 0 0.725 0.06 0 0.73 0.06 0 0.735 0.06 0 0.74 0.06 0 0.745 0.06 0 0.75 0.06 0 0.755 0.06 0 0.76 0.06 0 0.765 0.06 0 0.77 0.06 0 0.775 0.06 0 0.78 0.06 0 0.785 0.06 0 0.79 0.06 0 0.795 0.06 0 0.8 0.06 0 0.805 0.06 0 0.81 0.06 0 0.815 0.06 0 0.82 0.06 0 0.825 0.06 0 0.83 0.06 0 0.835 0.06 0 0.84 0.06 0 0.845 0.06 0 0.85 0.06 0 0.855 0.06 0 0.86 0.06 0 0.865 0.06 0 0.87 0.06 0 0.875 0.06 0 0.88 0.06 0 0.885 0.06 0 0.89 0.06 0 0.895 0.06 0 0.9 0.06 0 0.905 0.06 0 0.91 0.06 0 0.915 0.06 0 0.92 0.06 0 0.925 0.06 0 0.93 0.06 0 0.935 0.06 0 0.94 0.06 0 0.945 0.06 0 0.95 0.06 0 0.955 0.06 0 0.96 0.06 0 0.965 0.06 0 0.97 0.06 0 0.975 0.06 0 0.98 0.06 0 0.985 0.06 0 0.99 0.06 0 0.995 0.06 0 1 0.06 0 0 0.08 0 0.005 0.08 0 0.01 0.08 0 0.015 0.08 0 0.02 0.08 0 0.025 0.08 0 0.03 0.08 0 0.035 0.08 0 0.04 0.08 0 0.045 0.08 0 0.05 0.08 0 0.055 0.08 0 0.06 0.08 0 0.065 0.08 0 0.07 0.08 0 0.075 0.08 0 0.08 0.08 0 0.085 0.08 0 0.09 0.08 0 0.095 0.08 0 0.1 0.08 0 0.105 0.08 0 0.11 0.08 0 0.115 0.08 0 0.12 0.08 0 0.125 0.08 0 0.13 0.08 0 0.135 0.08 0 0.14 0.08 0 0.145 0.08 0 0.15 0.08 0 0.155 0.08 0 0.16 0.08 0 0.165 0.08 0
[...]
			<PointData Scalars="VitesseX">
				<DataArray Name="VitesseX" type="Float32" format="ascii">
 0 -1.62769e-14 -1.75471e-14 2.17525e-14 -1.04706e-13 -4.48336e-14 7.66186e-15 -7.30274e-14 -1.01817e-13 7.33686e-15 -5.32565e-14 -1.62101e-13 1.38571e-13 -3.09933e-13 9.3343e-14 -8.05023e-14 -1.50794e-13 3.83309e-14 -2.13613e-13 3.20041e-15 -1.37396e-13 9.20217e-14 -2.14774e-13 2.86752e-13 2.89843e-13 -1.17573e-13 -7.48406e-14 -7.99772e-14 -1.70298e-13 5.99806e-14 -1.88841e-13 1.66129e-13 -2.5298e-13 -3.23963e-13 4.35568e-13 -4.05348e-13 7.89712e-14 -2.11775e-13 1.19597e-13 -1.63804e-13 -1.30899e-14 -2.2466e-13 6.23656e-14 -7.77148e-14 1.06108e-14 -4.45945e-13 -6.0071e-13 -1.56851e-13 2.91193e-13 -1.65325e-13 -3.3437e-13 -2.60526e-13 3.62636e-13 -5.14708e-13 8.2085e-13 3.34964e-13 -5.66491e-13 2.0658e-13 -3.49617e-13 3.79266e-13 -3.46137e-13 -5.95271e-13 1.27345e-13 -2.51211e-13 -1.10223e-13 9.90233e-15 -1.30207e-13 5.66788e-13 -3.75428e-13 -8.73905e-14 -4.71668e-15 -3.93628e-13 5.29049e-13 5.53081e-12 7.54104e-11 8.20669e-10 8.22979e-09 7.4445e-08 6.03254e-07 4.34267e-06 2.74928e-05 0.000151186 0.000711316 0.00281323 0.00918909 0.0245158 0.0537406 0.0986785 0.156486 0.222197 0.291078 0.360153 0.428594 0.495849 0.561406 0.624713 0.685153 0.742086 0.794887 0.843076 0.886856 0.927758 0.944256 0.942789 0.941522 0.939388 0.937366 0.935859 0.93382 0.9146 0.94471 0.926227 0.92603 0.928147 0.93526 0.936493 0.935332 0.931181 0.915649 0.876006 0.802243 0.694001 0.557771 0.407965 0.264902 0.148795 0.071241 0.0294964 0.0110731 0.00392306 0.00134172 0.000447228 0.000145734 4.64528e-05 1.44809e-05 4.41312e-06 1.31433e-06 3.82432e-07 1.08697e-07 3.01742e-08 8.18171e-09 2.16681e-09 5.59302e-10 1.42371e-10 3.52751e-11 7.56484e-12 2.2176e-12 -8.81309e-13 9.99709e-13 3.6601e-13 -8.15421e-13 1.23459e-12 -8.87081e-13 9.69021e-13 -7.20045e-13 4.54041e-13 -6.99981e-13 -6.26775e-13 1.284e-13 7.49663e-14 5.6632e-13 -9.34478e-13 -6.58403e-13 9.95921e-13 -9.24349e-13 -9.95883e-14 9.16372e-16 2.97168e-13 9.16248e-13 -1.12112e-12 7.75559e-13 5.28282e-13 -1.04171e-12 1.66381e-12 -1.13369e-12 -8.3913e-14 4.70976e-13 -8.55109e-13 4.28411e-13 -1.63996e-12 7.42676e-13 2.56544e-13 -1.68502e-12 8.21853e-13 -6.97199e-13 8.30193e-13 1.64471e-13 -9.25594e-13 7.87733e-15 -1.36467e-12 1.26559e-12 -2.57347e-13 -2.79186e-12 5.73216e-13 6.24912e-13 -3.74538e-14 -7.85038e-13 -2.24922e-12 1.19656e-12 8.40716e-13 0 0 -1.42022e-15 -1.39729e-14 -6.47008e-14 2.00099e-14 -6.89361e-14 -8.06264e-14 -1.01969e-13 -1.45871e-14 -4.72026e-14 -8.77938e-14 3.43537e-14 -2.14661e-13 1.47275e-13 -2.16238e-13 1.72015e-14 3.82652e-15 -2.39825e-13 6.35235e-14 -1.51578e-13 -9.37051e-14 -1.04061e-13 1.81476e-13 -8.55474e-14 -7.74033e-14 2.06667e-13 -2.76573e-15 -1.27336e-13 -8.33542e-14 -9.85739e-14 6.18332e-14 -1.75174e-13 4.06298e-14 -6.20635e-14 -5.53452e-13 2.44262e-13 -2.85607e-14 1.14246e-13 -2.72104e-13 -8.29843e-14 -1.79281e-13 -5.16906e-14 -1.15152e-13 -5.77716e-14 -1.98833e-13 4.73916e-14 -2.26581e-13 -4.87285e-13 -3.14372e-13 4.08943e-14 1.41845e-13 4.25605e-14 -9.72903e-14 6.0687e-13 -3.87304e-13 -1.19338e-13 4.71018e-13 -5.73607e-13 3.07407e-13 -4.06321e-13 1.19387e-13 -1.50872e-13 -7.28769e-13 3.76902e-14 1.17028e-13 1.23611e-13 4.50271e-15 -2.23136e-13 3.80715e-13 -1.3004e-13 -2.74139e-13 2.25997e-13 2.31852e-14 6.84105e-12 7.40284e-11 8.21231e-10 8.23051e-09 7.44448e-08 6.03254e-07 4.34267e-06 2.74928e-05 0.000151186 0.000711316 0.00281323 0.00918909 0.0245158 0.0537406 0.0986785 0.156486 0.222197 0.291078 0.360153 0.428594 0.495849 0.561406 0.624713 0.685153 0.742086 0.794887 0.843076 0.886856 0.927758 0.944256 0.942789 0.941522 0.939388 0.937366 0.935859 0.93382 0.9146 0.94471 0.926227 0.92603 0.928147 0.93526 0.936493 0.935332 0.931181 0.915649 0.876006 0.802243 0.694001 0.557771 0.407965 0.264902 0.148795 0.071241 0.0294964 0.0110731 0.00392306 0.00134172 0.000447228 0.000145734 4.64528e-05 1.44809e-05 4.41312e-06 1.31433e-06 3.82432e-07 1.08696e-07 3.01754e-08 8.181e-09 2.16662e-09 5.61365e-10 1.4092e-10 3.46287e-11 8.88416e-12 1.33858e-12 8.98638e-13 -3.17674e-13 -2.95287e-13 9.34808e-13 -7.92489e-13 8.49358e-13 -8.66448e-13 3.11853e-13 -2.50704e-13 8.23496e-14 -2.48738e-13 -6.12393e-13 -1.53902e-13 -1.18981e-13 7.64158e-13 -2.93942e-13 -1.1003e-12 2.50296e-13 -2.46527e-13 -2.19806e-13 3.59256e-13 -5.01291e-13 1.07824e-12 -2.84123e-13 -2.04948e-13 1.15162e-12 -9.47459e-13 9.3416e-13 -7.13821e-13 -6.21269e-13 1.15646e-13 -6.75481e-13 6.56381e-13 -9.10356e-13 -7.65053e-13 1.09323e-12 -8.15929e-13 4.40593e-13 -4.14782e-13 -2.75753e-13 3.99627e-13 -2.16441e-13 5.15273e-13 -1.7074e-12 -7.08858e-13 1.71338e-12 -8.49696e-13 -8.48979e-13 -4.90078e-13 -2.68906e-13 1.5636e-12 -2.0073e-12 -2.45321e-13 0 0 -1.83199e-14 -2.99117e-14 -1.12608e-14 -6.1236e-14 -3.62764e-14 -1.46637e-14 -1.03618e-13 -8.87455e-14 -9.79293e-14 -5.40685e-14 -3.22063e-14 9.7525e-14 -1.48114e-13 -2.941e-15 -3.46399e-14 -2.76366e-14 -1.76159e-14 -6.70829e-14 -1.38117e-13 -1.98543e-13 -9.47148e-14 -1.57988e-13 -3.07161e-14 1.1886e-13 5.97577e-14 1.83146e-14 -5.13838e-14 -1.73435e-13 -9.88863e-15 -4.98523e-14 -9.44705e-14 -7.12687e-14 -2.55017e-13 -1.87642e-14 -1.41099e-13 1.30961e-13 -1.28038e-13 -1.25944e-13 -3.2241e-13 -2.72173e-14 2.20775e-14 3.42909e-14 -3.11195e-13 -1.87007e-13 -1.26629e-13 -6.19636e-14 -6.07761e-14 -1.74387e-13 1.9037e-13 2.48073e-13 3.6966e-13 1.13194e-14 -5.96541e-13 1.5616e-13 -1.68871e-14 -1.67176e-13 6.45606e-14 6.04445e-14 -3.76273e-13 -2.09081e-13 -4.12174e-13 2.08946e-13 -5.69554e-14 -1.13712e-13 -2.32604e-13 1.6102e-13 1.74036e-13 3.73985e-14 -1.77975e-14 1.26043e-13 -2.0681e-14 5.82219e-13 6.24526e-12 7.49989e-11 8.20969e-10 8.23009e-09 7.44453e-08 6.03254e-07 4.34267e-06 2.74928e-05 0.000151186 0.000711316 0.00281323 0.00918909 0.0245158 0.0537406 0.0986785 0.156486 0.222197 0.291078 0.360153 0.428594 0.495849 0.561406 0.624713 0.685153 0.742086 0.794887 0.843076 0.886856 0.927758 0.944256 0.942789 0.941522 0.939388 0.937366 0.935859 0.93382 0.9146 0.94471 0.926227 0.92603 0.928147 0.93526 0.936493 0.935332 0.931181 0.915649 0.876006 0.802243 0.694001 0.557771 0.407965 0.264902 0.148795 0.071241 0.0294964 0.0110731 0.00392306 0.00134172 0.000447228 0.000145734 4.64528e-05 1.44809e-05 4.41312e-06 1.31433e-06 3.82432e-07 1.08697e-07 3.01748e-08 8.18153e-09 2.16674e-09 5.60239e-10 1.42153e-10 3.49976e-11 8.19942e-12 2.02082e-12 2.52218e-13 3.62677e-13 2.39481e-13 -1.9614e-13 -1.64747e-13 -5.72142e-13 7.23905e-13 -7.41526e-13 -2.56105e-13 -2.52331e-13 1.64486e-13 -2.58697e-13 -4.92013e-13 -2.9305e-13 -5.80632e-13 -1.71183e-13 -2.0069e-14 -2.30134e-13 -1.97963e-13 -3.16885e-13 -1.90716e-13 2.38678e-13 3.0033e-13 9.31654e-13 -2.80182e-13 -3.22922e-13 2.45312e-13 -3.90405e-13 2.64149e-13 9.10048e-14 -1.0074e-12 -2.37449e-13 -2.70181e-13 1.976e-13 -2.75362e-13 -3.11825e-15 2.80105e-13 -1.44366e-13 -6.86963e-13 3.8193e-13 7.14898e-13 -4.97193e-15 -7.26003e-13 2.62042e-14 -3.07556e-14 -7.83437e-13 7.47538e-13 -2.33164e-13 -1.00883e-12 -3.04785e-13 -2.04482e-13 1.23207e-12 2.46515e-13 0 0 -2.379e-14 -1.86325e-14 -2.69842e-14 -6.969e-14 -5.30089e-14 -7.50144e-14 5.90312e-15 -4.27653e-14 3.66486e-14 -2.97119e-14 -9.47257e-14 -1.72698e-14 -1.17704e-13 6.00676e-14 -1.35071e-14 -1.5637e-13 -8.74372e-14 -2.07871e-13 -1.60241e-13 -2.73583e-13 7.86009e-14 -8.07783e-14 2.33096e-14 6.59338e-14 -5.41831e-14 9.94067e-14 -7.88098e-14 -1.47318e-13 -1.58478e-13 -8.07337e-14 1.75538e-13 -6.9593e-14 -2.66273e-13 1.22383e-13 -2.46197e-13 -7.27193e-14 1.1742e-13 -1.26627e-13 -4.14885e-14 1.17889e-14 -1.92222e-13 -1.75646e-13 -3.37588e-14 -1.23815e-13 -8.13379e-14 -4.0685e-13 1.08103e-13 2.09712e-13 7.02365e-14 1.22649e-13 -1.26517e-13 -3.48371e-14 -1.42738e-13 3.97236e-15 8.88291e-14 -4.56568e-13 2.02675e-13 -3.66881e-13 3.00517e-14 -3.66012e-13 -2.50616e-13 2.5967e-13 -1.16425e-13 -3.6044e-13 1.30898e-13 4.35816e-14 5.54366e-14 2.80251e-13 2.97743e-14 4.23327e-14 3.01039e-13 6.48858e-13 6.04025e-12 7.50294e-11 8.20828e-10 8.23047e-09 7.44454e-08 6.03254e-07 4.34267e-06 2.74928e-05 0.000151186 0.000711316 0.00281323 0.00918909 0.0245158 0.0537406 0.0986785 0.156486 0.222197 0.291078 0.360153 0.428594 0.495849 0.561406 0.624713 0.685153 0.742086 0.794887 0.843076 0.886856 0.927758 0.944256 0.942789 0.941522 0.939388 0.937366 0.935859 0.93382 0.9146 0.94471 0.926227 0.92603 0.928147 0.93526 0.936493 0.935332 0.931181 0.915649 0.876006 0.802243 0.694001 0.557771 0.407965 0.264902 0.148795 0.071241 0.0294964 0.0110731 0.00392306 0.00134172 0.000447228 0.000145734 4.64528e-05 1.44809e-05 4.41312e-06 1.31433e-06 3.82432e-07 1.08697e-07 3.01748e-08 8.18161e-09 2.16704e-09 5.60214e-10 1.421e-10 3.51976e-11 8.42769e-12 1.97855e-12 6.18002e-13 3.13728e-13 -1.00523e-13 -6.66481e-13 -1.35555e-13 -2.66262e-13 1.31021e-13 -3.19934e-13 -1.39035e-13 -4.48674e-13 -3.93018e-14 -2.22721e-13 -2.01101e-13 -4.63661e-13 -6.62394e-13 -7.05028e-13 1.67656e-13 -7.66961e-13 1.34404e-13 4.1017e-13 1.63651e-14 5.30599e-13 -7.15851e-13 -2.05983e-13 1.52734e-13 -4.74307e-13 1.96372e-13 3.09174e-13 -1.03064e-13 -2.66876e-13 -1.09939e-13 -2.49323e-13 -6.2381e-13 2.39547e-13 1.41675e-13 -8.03285e-13 7.65919e-13 1.35852e-14 -5.47612e-15 4.79082e-13 2.4944e-13 -6.32798e-13 -4.74166e-13 5.56169e-13 -5.37916e-13 -7.81064e-13 -2.25973e-13 9.05371e-13 5.5536e-14 -1.26354e-12 -5.34764e-13 1.17418e-12 6.67972e-13 0 0 -9.19111e-15 -1.47165e-14 -6.93486e-14 1.85978e-14 -9.7725e-14 -1.02546e-13 2.06002e-14 4.57803e-14 9.55199e-14 -5.14354e-14 -2.43014e-15 -2.5951e-13 1.86493e-13 -2.11475e-13 -3.82645e-14 -6.05326e-14 -3.21938e-13 -9.84626e-14 -2.13433e-13 -1.4467e-13 -6.64044e-14 9.03884e-14 -1.06893e-13 -2.14612e-13 1.10292e-13 -1.47267e-13 -2.13376e-13 -3.97481e-15 -1.1602e-13 1.86714e-13 5.25754e-14 1.27734e-13 6.73416e-14 -3.57239e-13 1.37615e-13 -7.82847e-14 3.70857e-13 -3.91509e-13 1.26893e-13 -2.20574e-13 -2.36758e-13 -3.35576e-13 5.96023e-14 -2.13676e-13 5.66374e-14 -3.10405e-13 -2.80325e-13 -1.67906e-13 6.02195e-14 1.00073e-13 -1.21576e-13 -1.51681e-13 7.54752e-13 -7.23829e-13 -2.44545e-13 1.11168e-13 -6.01431e-13 1.14927e-13 -3.65915e-13 -7.30874e-14 2.90015e-13 -4.12281e-13 2.23431e-13 2.16065e-13 3.97704e-13 1.6959e-15 -4.46121e-13 3.08802e-13 -9.67398e-14 -1.75717e-13 3.17951e-13 6.74359e-13 6.9671e-12 7.4385e-11 8.21111e-10 8.23094e-09 7.44452e-08 6.03254e-07 4.34267e-06 2.74928e-05 0.000151186 0.000711316 0.00281323 0.00918909 0.0245158 0.0537406 0.0986785 0.156486 0.222197 0.291078 0.360153 0.428594 0.495849 0.561406 0.624713 0.685153 0.742086 0.794887 0.843076 0.886856 0.927758 0.944256 0.942789 0.941522 0.939388 0.937366 0.935859 0.93382 0.9146 0.94471 0.926227 0.92603 0.928147 0.93526 0.936493 0.935332 0.931181 0.915649 0.876006 0.802243 0.694001 0.557771 0.407965 0.264902 0.148795 0.071241 0.0294964 0.0110731 0.00392306 0.00134172 0.000447228 0.000145734 4.64528e-05 1.44809e-05 4.41312e-06 1.31433e-06 3.82432e-07 1.08696e-07 3.01756e-08 8.18115e-09 2.16677e-09 5.61492e-10 1.41251e-10 3.4939e-11 9.40068e-12 1.35317e-12 1.30903e-12 -3.3042e-13 -8.18466e-13 2.63496e-13 -1.08617e-12 8.28078e-13 -1.3542e-12 6.28941e-13 -4.43873e-13 -1.43722e-13 -2.24227e-13 -6.95664e-14 -3.70069e-13 -3.65327e-13 6.98518e-13 -6.09117e-13 -6.495e-13 -3.99308e-14 1.00396e-13 3.15052e-13 -7.8571e-14 -2.31505e-13 1.75242e-13 -1.18598e-12 -2.26229e-13 6.91063e-13 -7.73035e-13 9.96573e-13 -7.81303e-13 -1.11678e-12 3.89283e-13 -7.40425e-13 4.76934e-13 -1.05169e-12 -4.13374e-13 7.58772e-13 2.01858e-13 5.44659e-13 9.87342e-14 -4.61465e-13 1.69556e-14 -7.11959e-13 1.07122e-12 -1.05424e-12 -6.7575e-13 1.92651e-12 -1.262e-12 -1.27373e-13 -7.21649e-15 -7.02969e-13 1.31823e-12 -1.5842e-12 -1.13603e-13 0 0 -2.08784e-14 -4.15928e-14 4.39038e-14 -9.06227e-14 -6.89464e-14 8.45249e-14 -4.69296e-14 -7.30426e-14 2.3626e-14 -2.92531e-14 -1.1063e-13 2.78462e-13 -2.92317e-13 -2.31475e-14 -2.337e-13 -2.20465e-14 1.37481e-14 -2.5601e-13 -7.62612e-14 -8.9244e-14 -1.79296e-13 -5.51369e-13 1.36009e-13 1.21279e-13 -8.24419e-14 -5.26027e-13 -1.97205e-13 -6.37736e-14 3.22268e-13 1.22683e-13 8.16111e-14 -8.21219e-14 -4.26422e-14 5.45699e-13 -4.08446e-13 3.86885e-13 -1.8947e-13 -1.17846e-13 -3.05893e-13 -1.73689e-13 -1.66197e-13 4.13915e-14 -3.97839e-13 -1.45459e-13 -5.18035e-13 -7.85878e-14 -8.0689e-14 -1.84073e-13 1.13593e-13 -1.67065e-13 4.03555e-13 3.46168e-13 -1.12655e-12 4.52175e-13 -1.26881e-13 -7.07407e-13 -1.25296e-13 1.20074e-13 -3.52572e-13 -4.17225e-13 -3.6612e-14 6.58874e-13 2.39209e-13 5.81306e-13 -1.68916e-13 9.90552e-14 3.58017e-13 -1.00496e-12 -1.15934e-13 3.5955e-13 -8.5316e-13 1.69812e-12 6.19293e-12 7.60626e-11 8.20712e-10 8.22987e-09 7.44455e-08 6.03255e-07 4.34267e-06 2.74928e-05 0.000151186 0.000711316 0.00281323 0.00918909 0.0245158 0.0537406 0.0986785 0.156486 0.222197 0.291078 0.360153 0.428594 0.495849 0.561406 0.624713 0.685153 0.742086 0.794887 0.843076 0.886856 0.927758 0.944256 0.942789 0.941522 0.939388 0.937366 0.935859 0.93382 0.9146 0.94471 0.926227 0.92603 0.928147 0.93526 0.936493 0.935332 0.931181 0.915649 0.876006 0.802243 0.694001 0.557771 0.407965 0.264902 0.148795 0.071241 0.0294964 0.0110731 0.00392306 0.00134172 0.000447228 0.000145734 4.64528e-05 1.44809e-05 4.41312e-06 1.31433e-06 3.82432e-07 1.08697e-07 3.01746e-08 8.18182e-09 2.16651e-09 5.59606e-10 1.43138e-10 3.54956e-11 8.14134e-12 2.33132e-12 -7.92097e-13 1.07212e-12 -3.38807e-16 -1.21736e-12 5.88838e-13 -1.5414e-12 1.17928e-12 -9.29054e-13 -1.66435e-13 -7.59439e-13 -1.70177e-13 1.1421e-12 -9.39192e-13 4.1485e-13 -9.02233e-13 -2.21061e-13 1.52207e-12 -4.31148e-13 -7.04772e-14 -3.83476e-13 -9.92649e-13 8.71978e-13 -8.9475e-13 1.24713e-12 -3.80113e-13 -1.66005e-12 2.11054e-12 -2.40802e-12 5.1555e-13 1.95722e-13 -2.10275e-12 3.22272e-13 -1.29159e-12 3.76112e-13 1.2583e-13 -7.5361e-13 1.8858e-12 -8.04971e-13 4.94253e-13 -4.01257e-13 -7.6002e-13 2.72494e-13 -7.56453e-13 1.51198e-12 8.23189e-13 -2.37033e-12 1.69563e-12 -2.08946e-13 -1.20046e-12 2.64353e-13 -2.07941e-12 2.15855e-12 2.61238e-13 0
				</DataArray>
				<DataArray Name="VitesseY" type="Float32" format="ascii">