<?xml version="1.0"?>
<VTKFile type="PolyData">
	<PolyData>
		<Piece NumberOfPoints="1206" NumberOfPolys="1000">
			<Points>
				<DataArray type="Float32" NumberOfComponents="3" format="ascii">
 0 0 0 0.005 0 0 0.01 0 0 0.015 0 0 0.02 0 0 0.025 0 0 0.03 0 0 0.035 0 0 0.04 0 0 0.045 0 0 0.05 0 0 0.055 0 0 0.06 0 0 0.065 0 0 0.07 0 0 0.075 0 0 0.08 0 0 0.085 0 0 0.09 0 0 0.095 0 0 0.1 0 0 0.105 0 0 0.11 0 0 0.115 0 0 0.12 0 0 0.125 0 0 0.13 0 0 0.135 0 0 0.14 0 0 0.145 0 0 0.15 0 0 0.155 0 0 0.16 0 0 0.165 0 0 0.17 0 0 0.175 0 0 0.18 0 0 0.185 0 0 0.19 0 0 0.195 0 0 0.2 0 0 0.205 0 0 0.21 0 0 0.215 0 0 0.22 0 0 0.225 0 0 0.23 0 0 0.235 0 0 0.24 0 0 0.245 0 0 0.25 0 0 0.255 0 0 0.26 0 0 0.265 0 0 0.27 0 0 0.275 0 0 0.28 0 0 0.285 0 0 0.29 0 0 0.295 0 0 0.3 0 0 0.305 0 0 0.31 0 0 0.315 0 0 0.32 0 0 0.325 0 0 0.33 0 0 0.335 0 0 0.34 0 0 0.345 0 0 0.35 0 0 0.355 0 0 0.36 0 0 0.365 0 0 0.37 0 0 0.375 0 0 0.38 0 0 0.385 0 0 0.39 0 0 0.395 0 0 0.4 0 0 0.405 0 0 0.41 0 0 0.415 0 0 0.42 0 0 0.425 0 0 0.43 0 0 0.435 0 0 0.44 0 0 0.445 0 0 0.45 0 0 0.455 0 0 0.46 0 0 0.465 0 0 0.47 0 0 0.475 0 0 0.48 0 0 0.485 0 0 0.49 0 0 0.495 0 0 0.5 0 0 0.505 0 0 0.51 0 0 0.515 0 0 0.52 0 0 0.525 0 0 0.53 0 0 0.535 0 0 0.54 0 0 0.545 0 0 0.55 0 0 0.555 0 0 0.56 0 0 0.565 0 0 0.57 0 0 0.575 0 0 0.58 0 0 0.585 0 0 0.59 0 0 0.595 0 0 0.6 0 0 0.605 0 0 0.61 0 0 0.615 0 0 0.62 0 0 0.625 0 0 0.63 0 0 0.635 0 0 0.64 0 0 0.645 0 0 0.65 0 0 0.655 0 0 0.66 0 0 0.665 0 0 0.67 0 0 0.675 0 0 0.68 0 0 0.685 0 0 0.69 0 0 0.695 0 0 0.7 0 0 0.705 0 0 0.71 0 0 0.715 0 0 0.72 0 0 0.725 0 0 0.73 0 0 0.735 0 0 0.74 0 0 0.745 0 0 0.75 0 0 0.755 0 0 0.76 0 0 0.765 0 0 0.77 0 0 0.775 0 0 0.78 0 0 0.785 0 0 0.79 0 0 0.795 0 0 0.8 0 0 0.805 0 0 0.81 0 0 0.815 0 0 0.82 0 0 0.825 0 0 0.83 0 0 0.835 0 0 0.84 0 0 0.845 0 0 0.85 0 0 0.855 0 0 0.86 0 0 0.865 0 0 0.87 0 0 0.875 0 0 0.88 0 0 0.885 0 0 0.89 0 0 0.895 0 0 0.9 0 0 0.905 0 0 0.91 0 0 0.915 0 0 0.92 0 0 0.925 0 0 0.93 0 0 0.935 0 0 0.94 0 0 0.945 0 0 0.95 0 0 0.955 0 0 0.96 0 0 0.965 0 0 0.97 0 0 0.975 0 0 0.98 0 0 0.985 0 0 0.99 0 0 0.995 0 0 1 0 0 0 0.02 0 0.005 0.02 0 0.01 0.02 0 0.015 0.02 0 0.02 0.02 0 0.025 0.02 0 0.03 0.02 0 0.035 0.02 0 0.04 0.02 0 0.045 0.02 0 0.05 0.02 0 0.055 0.02 0 0.06 0.02 0 0.065 0.02 0 0.07 0.02 0 0.075 0.02 0 0.08 0.02 0 0.085 0.02 0 0.09 0.02 0 0.095 0.02 0 0.1 0.02 0 0.105 0.02 0 0.11 0.02 0 0.115 0.02 0 0.12 0.02 0 0.125 0.02 0 0.13 0.02 0 0.135 0.02 0 0.14 0.02 0 0.145 0.02 0 0.15 0.02 0 0.155 0.02 0 0.16 0.02 0 0.165 0.02 0 0.17 0.02 0 0.175 0.02 0 0.18 0.02 0 0.185 0.02 0 0.19 0.02 0 0.195 0.02 0 0.2 0.02 0 0.205 0.02 0 0.21 0.02 0 0.215 0.02 0 0.22 0.02 0 0.225 0.02 0 0.23 0.02 0 0.235 0.02 0 0.24 0.02 0 0.245 0.02 0 0.25 0.02 0 0.255 0.02 0 0.26 0.02 0 0.265 0.02 0 0.27 0.02 0 0.275 0.02 0 0.28 0.02 0 0.285 0.02 0 0.29 0.02 0 0.295 0.02 0 0.3 0.02 0 0.305 0.02 0 0.31 0.02 0 0.315 0.02 0 0.32 0.02 0 0.325 0.02 0 0.33 0.02 0 0.335 0.02 0 0.34 0.02 0 0.345 0.02 0 0.35 0.02 0 0.355 0.02 0 0.36 0.02 0 0.365 0.02 0 0.37 0.02 0 0.375 0.02 0 0.38 0.02 0 0.385 0.02 0 0.39 0.02 0 0.395 0.02 0 0.4 0.02 0 0.405 0.02 0 0.41 0.02 0 0.415 0.02 0 0.42 0.02 0 0.425 0.02 0 0.43 0.02 0 0.435 0.02 0 0.44 0.02 0 0.445 0.02 0 0.45 0.02 0 0.455 0.02 0 0.46 0.02 0 0.465 0.02 0 0.47 0.02 0 0.475 0.02 0 0.48 0.02 0 0.485 0.02 0 0.49 0.02 0 0.495 0.02 0 0.5 0.02 0 0.505 0.02 0 0.51 0.02 0 0.515 0.02 0 0.52 0.02 0 0.525 0.02 0 0.53 0.02 0 0.535 0.02 0 0.54 0.02 0 0.545 0.02 0 0.55 0.02 0 0.555 0.02 0 0.56 0.02 0 0.565 0.02 0 0.57 0.02 0 0.575 0.02 0 0.58 0.02 0 0.585 0.02 0 0.59 0.02 0 0.595 0.02 0 0.6 0.02 0 0.605 0.02 0 0.61 0.02 0 0.615 0.02 0 0.62 0.02 0 0.625 0.02 0 0.63 0.02 0 0.635 0.02 0 0.64 0.02 0 0.645 0.02 0 0.65 0.02 0 0.655 0.02 0 0.66 0.02 0 0.665 0.02 0 0.67 0.02 0 0.675 0.02 0 0.68 0.02 0 0.685 0.02 0 0.69 0.02 0 0.695 0.02 0 0.7 0.02 0 0.705 0.02 0 0.71 0.02 0 0.715 0.02 0 0.72 0.02 0 0.725 0.02 0 0.73 0.02 0 0.735 0.02 0 0.74 0.02 0 0.745 0.02 0 0.75 0.02 0 0.755 0.02 0 0.76 0.02 0 0.765 0.02 0 0.77 0.02 0 0.775 0.02 0 0.78 0.02 0 0.785 0.02 0 0.79 0.02 0 0.795 0.02 0 0.8 0.02 0 0.805 0.02 0 0.81 0.02 0 0.815 0.02 0 0.82 0.02 0 0.825 0.02 0 0.83 0.02 0 0.835 0.02 0 0.84 0.02 0 0.845 0.02 0 0.85 0.02 0 0.855 0.02 0 0.86 0.02 0 0.865 0.02 0 0.87 0.02 0 0.875 0.02 0 0.88 0.02 0 0.885 0.02 0 0.89 0.02 0 0.895 0.02 0 0.9 0.02 0 0.905 0.02 0 0.91 0.02 0 0.915 0.02 0 0.92 0.02 0 0.925 0.02 0 0.93 0.02 0 0.935 0.02 0 0.94 0.02 0 0.945 0.02 0 0.95 0.02 0 0.955 0.02 0 0.96 0.02 0 0.965 0.02 0 0.97 0.02 0 0.975 0.02 0 0.98 0.02 0 0.985 0.02 0 0.99 0.02 0 0.995 0.02 0 1 0.02 0 0 0.04 0 0.005 0.04 0 0.01 0.04 0 0.015 0.04 0 0.02 0.04 0 0.025 0.04 0 0.03 0.04 0 0.035 0.04 0 0.04 0.04 0 0.045 0.04 0 0.05 0.04 0 0.055 0.04 0 0.06 0.04 0 0.065 0.04 0 0.07 0.04 0 0.075 0.04 0 0.08 0.04 0 0.085 0.04 0 0.09 0.04 0 0.095 0.04 0 0.1 0.04 0 0.105 0.04 0 0.11 0.04 0 0.115 0.04 0 0.12 0.04 0 0.125 0.04 0 0.13 0.04 0 0.135 0.04 0 0.14 0.04 0 0.145 0.04 0 0.15 0.04 0 0.155 0.04 0 0.16 0.04 0 0.165 0.04 0 0.17 0.04 0 0.175 0.04 0 0.18 0.04 0 0.185 0.04 0 0.19 0.04 0 0.195 0.04 0 0.2 0.04 0 0.205 0.04 0 0.21 0.04 0 0.215 0.04 0 0.22 0.04 0 0.225 0.04 0 0.23 0.04 0 0.235 0.04 0 0.24 0.04 0 0.245 0.04 0 0.25 0.04 0 0.255 0.04 0 0.26 0.04 0 0.265 0.04 0 0.27 0.04 0 0.275 0.04 0 0.28 0.04 0 0.285 0.04 0 0.29 0.04 0 0.295 0.04 0 0.3 0.04 0 0.305 0.04 0 0.31 0.04 0 0.315 0.04 0 0.32 0.04 0 0.325 0.04 0 0.33 0.04 0 0.335 0.04 0 0.34 0.04 0 0.345 0.04 0 0.35 0.04 0 0.355 0.04 0 0.36 0.04 0 0.365 0.04 0 0.37 0.04 0 0.375 0.04 0 0.38 0.04 0 0.385 0.04 0 0.39 0.04 0 0.395 0.04 0 0.4 0.04 0 0.405 0.04 0 0.41 0.04 0 0.415 0.04 0 0.42 0.04 0 0.425 0.04 0 0.43 0.04 0 0.435 0.04 0 0.44 0.04 0 0.445 0.04 0 0.45 0.04 0 0.455 0.04 0 0.46 0.04 0 0.465 0.04 0 0.47 0.04 0 0.475 0.04 0 0.48 0.04 0 0.485 0.04 0 0.49 0.04 0 0.495 0.04 0 0.5 0.04 0 0.505 0.04 0 0.51 0.04 0 0.515 0.04 0 0.52 0.04 0 0.525 0.04 0 0.53 0.04 0 0.535 0.04 0 0.54 0.04 0 0.545 0.04 0 0.55 0.04 0 0.555 0.04 0 0.56 0.04 0 0.565 0.04 0 0.57 0.04 0 0.575 0.04 0 0.58 0.04 0 0.585 0.04 0 0.59 0.04 0 0.595 0.04 0 0.6 0.04 0 0.605 0.04 0 0.61 0.04 0 0.615 0.04 0 0.62 0.04 0 0.625 0.04 0 0.63 0.04 0 0.635 0.04 0 0.64 0.04 0 0.645 0.04 0 0.65 0.04 0 0.655 0.04 0 0.66 0.04 0 0.665 0.04 0 0.67 0.04 0 0.675 0.04 0 0.68 0.04 0 0.685 0.04 0 0.69 0.04 0 0.695 0.04 0 0.7 0.04 0 0.705 0.04 0 0.71 0.04 0 0.715 0.04 0 0.72 0.04 0 0.725 0.04 0 0.73 0.04 0 0.735 0.04 0 0.74 0.04 0 0.745 0.04 0 0.75 0.04 0 0.755 0.04 0 0.76 0.04 0 0.765 0.04 0 0.77 0.04 0 0.775 0.04 0 0.78 0.04 0 0.785 0.04 0 0.79 0.04 0 0.795 0.04 0 0.8 0.04 0 0.805 0.04 0 0.81 0.04 0 0.815 0.04 0 0.82 0.04 0 0.825 0.04 0 0.83 0.04 0 0.835 0.04 0 0.84 0.04 0 0.845 0.04 0 0.85 0.04 0 0.855 0.04 0 0.86 0.04 0 0.865 0.04 0 0.87 0.04 0 0.875 0.04 0 0.88 0.04 0 0.885 0.04 0 0.89 0.04 0 0.895 0.04 0 0.9 0.04 0 0.905 0.04 0 0.91 0.04 0 0.915 0.04 0 0.92 0.04 0 0.925 0.04 0 0.93 0.04 0 0.935 0.04 0 0.94 0.04 0 0.945 0.04 0 0.95 0.04 0 0.955 0.04 0 0.96 0.04 0 0.965 0.04 0 0.97 0.04 0 0.975 0.04 0 0.98 0.04 0 0.985 0.04 0 0.99 0.04 0 0.995 0.04 0 1 0.04 0 0 0.06 0 0.005 0.06 0 0.01 0.06 0 0.015 0.06 0 0.02 0.06 0 0.025 0.06 0 0.03 0.06 0 0.035 0.06 0 0.04 0.06 0 0.045 0.06 0 0.05 0.06 0 0.055 0.06 0 0.06 0.06 0 0.065 0.06 0 0.07 0.06 0 0.075 0.06 0 0.08 0.06 0 0.085 0.06 0 0.09 0.06 0 0.095 0.06 0 0.1 0.06 0 0.105 0.06 0 0.11 0.06 0 0.115 0.06 0 0.12 0.06 0 0.125 0.06 0 0.13 0.06 0 0.135 0.06 0 0.14 0.06 0 0.145 0.06 0 0.15 0.06 0 0.155 0.06 0 0.16 0.06 0 0.165 0.06 0 0.17 0.06 0 0.175 0.06 0 0.18 0.06 0 0.185 0.06 0 0.19 0.06 0 0.195 0.06 0 0.2 0.06 0 0.205 0.06 0 0.21 0.06 0 0.215 0.06 0 0.22 0.06 0 0.225 0.06 0 0.23 0.06 0 0.235 0.06 0 0.24 0.06 0 0.245 0.06 0 0.25 0.06 0 0.255 0.06 0 0.26 0.06 0 0.265 0.06 0 0.27 0.06 0 0.275 0.06 0 0.28 0.06 0 0.285 0.06 0 0.29 0.06 0 0.295 0.06 0 0.3 0.06 0 0.305 0.06 0 0.31 0.06 0 0.315 0.06 0 0.32 0.06 0 0.325 0.06 0 0.33 0.06 0 0.335 0.06 0 0.34 0.06 0 0.345 0.06 0 0.35 0.06 0 0.355 0.06 0 0.36 0.06 0 0.365 0.06 0 0.37 0.06 0 0.375 0.06 0 0.38 0.06 0 0.385 0.06 0 0.39 0.06 0 0.395 0.06 0 0.4 0.06 0 0.405 0.06 0 0.41 0.06 0 0.415 0.06 0 0.42 0.06 0 0.425 0.06 0 0.43 0.06 0 0.435 0.06 0 0.44 0.06 0 0.445 0.06 0 0.45 0.06 0 0.455 0.06 0 0.46 0.06 0 0.465 0.06 0 0.47 0.06 0 0.475 0.06 0 0.48 0.06 0 0.485 0.06 0 0.49 0.06 0 0.495 0.06 0 0.5 0.06 0 0.505 0.06 0 0.51 0.06 0 0.515 0.06 0 0.52 0.06 0 0.525 0.06 0 0.53 0.06 0 0.535 0.06 0 0.54 0.06 0 0.545 0.06 0 0.55 0.06 0 0.555 0.06 0 0.56 0.06 0 0.565 0.06 0 0.57 0.06 0 0.575 0.06 0 0.58 0.06 0 0.585 0.06 0 0.59 0.06 0 0.595 0.06 0 0.6 0.06 0 0.605 0.06 0 0.61 0.06 0 0.615 0.06 0 0.62 0.06 0 0.625 0.06 0 0.63 0.06 0 0.635 0.06 0 0.64 0.06 0 0.645 0.06 0 0.65 0.06 0 0.655 0.06 0 0.66 0.06 0 0.665 0.06 0 0.67 0.06 0 0.675 0.06 0 0.68 0.06 0 0.685 0.06 0 0.69 0.06 0 0.695 0.06 0 0.7 0.06 0 0.705 0.06 0 0.71 0.06 0 0.715 0.06 0 0.72 0.06 0 0.725 0.06 0 0.73 0.06 0 0.735 0.06 0 0.74 0.06 0 0.745 0.06 0 0.75 0.06 0 0.755 0.06 0 0.76 0.06 0 0.765 0.06 0 0.77 0.06 0 0.775 0.06 0 0.78 0.06 0 0.785 0.06 0 0.79 0.06 0 0.795 0.06 0 0.8 0.06 0 0.805 0.06 0 0.81 0.06 0 0.815 0.06 0 0.82 0.06 0 0.825 0.06 0 0.83 0.06 0 0.835 0.06 0 0.84 0.06 0 0.845 0.06 0 0.85 0.06 0 0.855 0.06 0 0.86 0.06 0 0.865 0.06 0 0.87 0.06 0 0.875 0.06 0 0.88 0.06 0 0.885 0.06 0 0.89 0.06 0 0.895 0.06 0 0.9 0.06 0 0.905 0.06 0 0.91 0.06 0 0.915 0.06 0 0.92 0.06 0 0.925 0.06 0 0.93 0.06 0 0.935 0.06 0 0.94 0.06 0 0.945 0.06 0 0.95 0.06 0 0.955 0.06 0 0.96 0.06 0 0.965 0.06 0 0.97 0.06 0 0.975 0.06 0 0.98 0.06 0 0.985 0.06 0 0.99 0.06 0 0.995 0.06 0 1 0.06 0 0 0.08 0 0.005 0.08 0 0.01 0.08 0 0.015 0.08 0 0.02 0.08 0 0.025 0.08 0 0.03 0.08 0 0.035 0.08 0 0.04 0.08 0 0.045 0.08 0 0.05 0.08 0 0.055 0.08 0 0.06 0.08 0 0.065 0.08 0 0.07 0.08 0 0.075 0.08 0 0.08 0.08 0 0.085 0.08 0 0.09 0.08 0 0.095 0.08 0 0.1 0.08 0 0.105 0.08 0 0.11 0.08 0 0.115 0.08 0 0.12 0.08 0 0.125 0.08 0 0.13 0.08 0 0.135 0.08 0 0.14 0.08 0 0.145 0.08 0 0.15 0.08 0 0.155 0.08 0 0.16 0.08 0 0.165 0.08 0
[...]
			<PointData Scalars="VitesseX">
				<DataArray Name="VitesseX" type="Float32" format="ascii">
 0 1.70385e-14 -1.52429e-14 5.694e-14 -5.00528e-14 -4.93896e-14 4.02271e-14 8.99051e-15 -3.71386e-14 3.79075e-14 -6.02333e-14 9.58834e-15 -3.53494e-14 3.23541e-14 -7.79462e-14 -5.89463e-14 -9.50207e-14 -9.57427e-14 -3.51621e-14 -1.6298e-13 -1.24322e-13 -1.51927e-13 -1.90254e-13 -3.77316e-14 -2.65188e-13 -1.53764e-14 -2.97881e-13 5.56222e-14 -2.72246e-13 6.79153e-15 6.38328e-14 -5.82313e-14 -1.77206e-13 -1.49106e-13 -1.71679e-13 -3.02779e-13 -5.45281e-14 -1.48017e-13 -1.21239e-13 -2.73449e-13 1.09377e-13 -2.57351e-13 -1.89939e-13 3.55177e-13 -2.06219e-14 -2.46495e-13 1.43015e-13 -4.09137e-13 7.91742e-14 1.02828e-12 7.22706e-12 5.18785e-11 3.26022e-10 1.94886e-09 1.09533e-08 5.77913e-08 2.85275e-07 1.3129e-06 5.61053e-06 2.21576e-05 8.04234e-05 0.000266546 0.000800717 0.00216313 0.00521769 0.0111907 0.0213417 0.0363946 0.0561497 0.0796281 0.105608 0.133089 0.161425 0.190242 0.21937 0.248696 0.278127 0.307592 0.337039 0.366446 0.39579 0.425053 0.454216 0.483261 0.512169 0.540917 0.569484 0.597844 0.625968 0.653823 0.681375 0.708586 0.735414 0.761817 0.787757 0.813202 0.838133 0.862563 0.88656 0.910327 0.934323 0.940748 0.940321 0.939331 0.938081 0.936863 0.93559 0.93432 0.933056 0.931869 0.930864 0.930039 0.929421 0.928945 0.928542 0.928334 0.928257 0.92812 0.927975 0.927867 0.927664 0.927671 0.927654 0.927571 0.910464 0.934769 0.926471 0.927098 0.927165 0.928889 0.929032 0.929146 0.929289 0.929334 0.929315 0.929287 0.929272 0.929343 0.929456 0.92947 0.929454 0.929398 0.929333 0.929191 0.928829 0.925975 0.915937 0.890402 0.838241 0.754657 0.640337 0.503739 0.360219 0.228762 0.126619 0.0608506 0.0260339 0.0103859 0.00399855 0.00151417 0.00056881 0.000212662 7.92121e-05 2.93988e-05 1.08694e-05 4.00183e-06 1.46655e-06 5.34709e-07 1.93871e-07 6.98674e-08 2.50147e-08 8.89373e-09 3.13815e-09 1.09894e-09 3.81036e-10 1.31249e-10 4.45561e-11 1.45152e-11 4.553e-12 1.52419e-12 -4.96376e-14 -2.99518e-13 -8.49484e-14 -2.52447e-13 8.87356e-14 -6.44552e-13 2.00749e-13 -1.03289e-13 -4.78495e-13 7.72275e-13 -3.13018e-14 7.04523e-13 4.64942e-14 -1.78818e-14 8.03275e-13 5.57389e-14 5.67058e-13 -1.78759e-13 1.12732e-12 -2.53164e-13 0 0 5.39838e-15 2.75084e-14 -4.20715e-14 3.16921e-14 1.68272e-14 -2.03533e-14 -4.45533e-14 1.75834e-14 -1.58862e-15 -3.33342e-14 2.03414e-14 -1.16012e-14 -9.27812e-14 -4.07648e-14 -1.86248e-14 -9.11454e-14 -1.32824e-13 -7.70195e-14 -1.913e-14 -2.05275e-13 -1.35086e-13 -9.06291e-14 -2.55261e-13 2.80182e-14 -2.30064e-13 -5.72011e-14 -2.58474e-13 -3.52636e-14 -2.16051e-14 -9.70674e-14 -7.1971e-14 2.26715e-14 -1.75918e-13 -2.43041e-13 -1.15835e-13 -1.76699e-13 -6.49335e-14 -1.7486e-13 -4.63195e-14 -2.89401e-13 -6.37604e-14 6.26721e-14 -2.5675e-13 7.5071e-14 1.85217e-13 -4.30832e-13 2.40169e-13 -2.5476e-13 7.30038e-13 7.69958e-12 5.15157e-11 3.26463e-10 1.9483e-09 1.09539e-08 5.77913e-08 2.85274e-07 1.3129e-06 5.61053e-06 2.21576e-05 8.04234e-05 0.000266546 0.000800717 0.00216313 0.00521769 0.0111907 0.0213417 0.0363946 0.0561497 0.0796281 0.105608 0.133089 0.161425 0.190242 0.21937 0.248696 0.278127 0.307592 0.337039 0.366446 0.39579 0.425053 0.454216 0.483261 0.512169 0.540917 0.569484 0.597844 0.625968 0.653823 0.681375 0.708586 0.735414 0.761817 0.787757 0.813202 0.838133 0.862563 0.88656 0.910327 0.934323 0.940748 0.940321 0.939331 0.938081 0.936863 0.93559 0.93432 0.933056 0.931869 0.930864 0.930039 0.929421 0.928945 0.928542 0.928334 0.928257 0.92812 0.927975 0.927867 0.927664 0.927671 0.927654 0.927571 0.910464 0.934769 0.926471 0.927098 0.927165 0.928889 0.929032 0.929146 0.929289 0.929334 0.929315 0.929287 0.929272 0.929343 0.929456 0.92947 0.929454 0.929398 0.929333 0.929191 0.928829 0.925975 0.915937 0.890402 0.838241 0.754657 0.640337 0.503739 0.360219 0.228762 0.126619 0.0608506 0.0260339 0.0103859 0.00399855 0.00151417 0.00056881 0.000212662 7.92121e-05 2.93988e-05 1.08694e-05 4.00183e-06 1.46655e-06 5.34709e-07 1.93871e-07 6.98673e-08 2.50149e-08 8.89357e-09 3.1386e-09 1.09854e-09 3.81641e-10 1.31084e-10 4.4317e-11 1.48594e-11 4.65167e-12 9.42284e-13 -1.09364e-13 -1.27746e-13 8.20754e-14 -2.94322e-14 -3.06975e-13 -2.30426e-13 -2.44766e-13 -2.41005e-13 2.48523e-13 -3.62078e-13 7.06203e-13 -1.61588e-13 3.65329e-13 8.0932e-13 -1.1672e-13 4.79008e-13 2.5858e-13 2.42469e-13 -2.17866e-13 3.18968e-13 0 0 -3.18684e-15 -8.06281e-15 3.204e-14 6.09314e-15 -3.46551e-14 4.39034e-14 -7.87726e-15 -4.0551e-14 -2.38397e-14 -1.26316e-14 -4.5004e-14 -1.48922e-14 3.07598e-14 -9.52236e-14 -3.19216e-14 -1.27826e-13 -9.1953e-14 -3.71974e-14 -7.88266e-14 -1.17863e-13 -4.89472e-14 -1.49321e-13 -4.84035e-14 -2.33528e-13 -7.67111e-14 -1.60106e-13 4.18505e-14 -3.0475e-13 -1.54098e-13 -5.67451e-14 -1.58593e-13 -1.05255e-13 5.27891e-14 -6.26852e-14 -3.34104e-13 -6.54557e-14 -1.63215e-13 -9.16827e-14 -5.8291e-14 -6.23053e-14 -7.06872e-14 -8.91434e-14 -1.67447e-13 -1.76092e-13 -2.08226e-13 3.59477e-13 -3.18987e-13 5.55841e-14 8.54287e-13 7.58175e-12 5.16298e-11 3.26443e-10 1.94861e-09 1.09539e-08 5.77913e-08 2.85274e-07 1.3129e-06 5.61053e-06 2.21576e-05 8.04234e-05 0.000266546 0.000800717 0.00216313 0.00521769 0.0111907 0.0213417 0.0363946 0.0561497 0.0796281 0.105608 0.133089 0.161425 0.190242 0.21937 0.248696 0.278127 0.307592 0.337039 0.366446 0.39579 0.425053 0.454216 0.483261 0.512169 0.540917 0.569484 0.597844 0.625968 0.653823 0.681375 0.708586 0.735414 0.761817 0.787757 0.813202 0.838133 0.862563 0.88656 0.910327 0.934323 0.940748 0.940321 0.939331 0.938081 0.936863 0.93559 0.93432 0.933056 0.931869 0.930864 0.930039 0.929421 0.928945 0.928542 0.928334 0.928257 0.92812 0.927975 0.927867 0.927664 0.927671 0.927654 0.927571 0.910464 0.934769 0.926471 0.927098 0.927165 0.928889 0.929032 0.929146 0.929289 0.929334 0.929315 0.929287 0.929272 0.929343 0.929456 0.92947 0.929454 0.929398 0.929333 0.929191 0.928829 0.925975 0.915937 0.890402 0.838241 0.754657 0.640337 0.503739 0.360219 0.228762 0.126619 0.0608506 0.0260339 0.0103859 0.00399855 0.00151417 0.00056881 0.000212662 7.92121e-05 2.93988e-05 1.08694e-05 4.00183e-06 1.46655e-06 5.34709e-07 1.93871e-07 6.98672e-08 2.5015e-08 8.89393e-09 3.13853e-09 1.09893e-09 3.81381e-10 1.31106e-10 4.45837e-11 1.47758e-11 4.53871e-12 1.22989e-12 -1.96965e-13 -2.1603e-13 -9.27236e-14 1.02382e-13 -1.76267e-13 -6.69868e-13 2.48538e-13 -3.03929e-13 -3.15814e-13 2.22299e-13 -2.35363e-13 2.85608e-14 2.40863e-13 4.03057e-13 4.78413e-13 -1.92218e-13 5.16246e-13 6.2426e-14 5.10246e-13 4.61634e-13 0 0 6.53818e-15 -1.87211e-14 4.15812e-14 -4.07763e-14 -1.40323e-14 4.12358e-14 -1.55076e-14 -5.54217e-14 -3.61283e-14 -7.81761e-14 -2.39644e-14 4.49591e-14 3.11591e-14 -1.17221e-13 -3.16676e-14 2.00011e-14 -8.16219e-14 -1.55982e-13 -1.48092e-13 -1.08628e-13 4.86028e-14 1.52858e-14 -1.60452e-13 -9.2268e-14 -9.79909e-14 -2.29375e-13 -2.26774e-13 -1.78676e-13 -3.4372e-14 -5.81608e-14 -1.6559e-13 -9.46711e-14 -1.8983e-13 -1.76414e-13 -1.17433e-13 -7.29458e-14 -1.80469e-13 -6.04012e-14 -1.0836e-13 -6.47112e-14 -1.97639e-13 -6.79613e-14 7.21501e-14 -1.73667e-13 -1.85106e-13 -1.03084e-13 -1.87036e-13 2.19944e-13 1.01263e-12 7.74574e-12 5.18853e-11 3.2637e-10 1.94856e-09 1.0954e-08 5.77915e-08 2.85275e-07 1.3129e-06 5.61053e-06 2.21576e-05 8.04234e-05 0.000266546 0.000800717 0.00216313 0.00521769 0.0111907 0.0213417 0.0363946 0.0561497 0.0796281 0.105608 0.133089 0.161425 0.190242 0.21937 0.248696 0.278127 0.307592 0.337039 0.366446 0.39579 0.425053 0.454216 0.483261 0.512169 0.540917 0.569484 0.597844 0.625968 0.653823 0.681375 0.708586 0.735414 0.761817 0.787757 0.813202 0.838133 0.862563 0.88656 0.910327 0.934323 0.940748 0.940321 0.939331 0.938081 0.936863 0.93559 0.93432 0.933056 0.931869 0.930864 0.930039 0.929421 0.928945 0.928542 0.928334 0.928257 0.92812 0.927975 0.927867 0.927664 0.927671 0.927654 0.927571 0.910464 0.934769 0.926471 0.927098 0.927165 0.928889 0.929032 0.929146 0.929289 0.929334 0.929315 0.929287 0.929272 0.929343 0.929456 0.92947 0.929454 0.929398 0.929333 0.929191 0.928829 0.925975 0.915937 0.890402 0.838241 0.754657 0.640337 0.503739 0.360219 0.228762 0.126619 0.0608506 0.0260339 0.0103859 0.00399855 0.00151417 0.00056881 0.000212662 7.92121e-05 2.93988e-05 1.08694e-05 4.00183e-06 1.46655e-06 5.34709e-07 1.93871e-07 6.98672e-08 2.50149e-08 8.89367e-09 3.13848e-09 1.09906e-09 3.81371e-10 1.31104e-10 4.44106e-11 1.47423e-11 4.56609e-12 1.31077e-12 3.95701e-13 -3.03962e-13 -1.30491e-13 -4.32162e-13 -2.9651e-13 5.57543e-14 -4.76131e-13 -6.8342e-13 -2.22388e-13 7.43093e-13 9.66548e-14 -6.17744e-13 1.19384e-13 -4.02878e-13 2.16094e-13 7.63038e-13 4.4345e-13 -1.1918e-14 4.54346e-13 -3.3945e-13 0 0 2.32296e-15 1.26846e-14 -4.69983e-14 1.44069e-14 9.92453e-15 -3.81167e-14 -4.98173e-14 1.56392e-14 -1.60466e-14 -7.68425e-14 -3.38416e-14 7.57871e-15 -9.37703e-14 -2.65349e-14 -2.98738e-14 -2.87564e-14 -1.55329e-13 -7.5431e-15 -4.65325e-14 -1.47515e-13 -4.85667e-14 3.12008e-14 -2.87529e-13 1.64973e-13 -2.2168e-13 -6.20222e-15 -4.06783e-13 -3.41541e-14 3.12744e-16 -2.22635e-13 -6.40376e-14 -1.30998e-13 -3.04692e-13 -1.8398e-13 -6.98246e-14 -5.77488e-14 6.09453e-14 -2.24338e-13 -8.45384e-14 -3.72707e-13 -1.94042e-13 5.36886e-14 -2.83872e-13 5.39988e-14 1.89879e-13 -7.51843e-13 3.69955e-13 3.14889e-14 9.34665e-13 8.01322e-12 5.19248e-11 3.26631e-10 1.94843e-09 1.09541e-08 5.77916e-08 2.85274e-07 1.3129e-06 5.61053e-06 2.21576e-05 8.04234e-05 0.000266546 0.000800717 0.00216313 0.00521769 0.0111907 0.0213417 0.0363946 0.0561497 0.0796281 0.105608 0.133089 0.161425 0.190242 0.21937 0.248696 0.278127 0.307592 0.337039 0.366446 0.39579 0.425053 0.454216 0.483261 0.512169 0.540917 0.569484 0.597844 0.625968 0.653823 0.681375 0.708586 0.735414 0.761817 0.787757 0.813202 0.838133 0.862563 0.88656 0.910327 0.934323 0.940748 0.940321 0.939331 0.938081 0.936863 0.93559 0.93432 0.933056 0.931869 0.930864 0.930039 0.929421 0.928945 0.928542 0.928334 0.928257 0.92812 0.927975 0.927867 0.927664 0.927671 0.927654 0.927571 0.910464 0.934769 0.926471 0.927098 0.927165 0.928889 0.929032 0.929146 0.929289 0.929334 0.929315 0.929287 0.929272 0.929343 0.929456 0.92947 0.929454 0.929398 0.929333 0.929191 0.928829 0.925975 0.915937 0.890402 0.838241 0.754657 0.640337 0.503739 0.360219 0.228762 0.126619 0.0608506 0.0260339 0.0103859 0.00399855 0.00151417 0.00056881 0.000212662 7.92121e-05 2.93988e-05 1.08694e-05 4.00183e-06 1.46655e-06 5.34709e-07 1.93871e-07 6.98677e-08 2.5015e-08 8.89357e-09 3.1387e-09 1.09866e-09 3.81525e-10 1.3095e-10 4.42478e-11 1.48878e-11 4.45485e-12 4.43251e-13 2.38302e-13 1.48982e-13 -2.25689e-13 -5.41841e-13 -3.35052e-13 7.43451e-13 -4.47666e-13 -6.70206e-13 2.04273e-13 -3.58304e-13 7.22816e-13 -5.6132e-13 2.59451e-13 -1.7551e-13 -7.26452e-13 1.05478e-12 2.46926e-14 1.52193e-13 -4.45488e-13 -2.23528e-13 0 0 -8.56244e-15 -2.35739e-14 2.80038e-14 9.11578e-15 -1.04441e-13 1.00357e-14 1.37231e-14 -1.12855e-14 3.35688e-14 -1.61611e-14 -1.40857e-13 -1.16692e-13 2.95774e-14 -5.49192e-15 -8.19522e-14 -2.65896e-13 -1.61414e-13 3.41361e-13 -7.92534e-14 -2.72713e-14 -1.73988e-13 -2.75806e-13 1.21829e-13 -2.73798e-13 4.39519e-14 -5.73454e-14 2.96253e-13 -5.22176e-13 -1.88825e-13 -1.84471e-13 -2.83708e-14 -5.05713e-13 7.85848e-14 1.73901e-13 -6.44101e-13 1.98352e-13 1.38249e-13 -2.82758e-13 -2.49748e-13 -5.24232e-14 -2.64011e-13 -2.5027e-13 -1.7826e-13 -6.76165e-14 -2.83412e-13 4.26115e-13 -4.13467e-13 3.22952e-13 1.12086e-12 7.52638e-12 5.21858e-11 3.26503e-10 1.94922e-09 1.09536e-08 5.77914e-08 2.85275e-07 1.3129e-06 5.61053e-06 2.21576e-05 8.04234e-05 0.000266546 0.000800717 0.00216313 0.00521769 0.0111907 0.0213417 0.0363946 0.0561497 0.0796281 0.105608 0.133089 0.161425 0.190242 0.21937 0.248696 0.278127 0.307592 0.337039 0.366446 0.39579 0.425053 0.454216 0.483261 0.512169 0.540917 0.569484 0.597844 0.625968 0.653823 0.681375 0.708586 0.735414 0.761817 0.787757 0.813202 0.838133 0.862563 0.88656 0.910327 0.934322 0.940748 0.940321 0.939331 0.938081 0.936863 0.93559 0.93432 0.933056 0.931869 0.930864 0.930039 0.929421 0.928945 0.928542 0.928334 0.928257 0.92812 0.927975 0.927867 0.927664 0.927671 0.927654 0.927571 0.910464 0.934769 0.926471 0.927098 0.927165 0.928889 0.929032 0.929146 0.929289 0.929334 0.929315 0.929287 0.929272 0.929343 0.929456 0.92947 0.929454 0.929398 0.929333 0.929191 0.928829 0.925975 0.915937 0.890402 0.838241 0.754657 0.640337 0.503739 0.360219 0.228762 0.126619 0.0608506 0.0260339 0.0103859 0.00399855 0.00151417 0.00056881 0.000212662 7.92121e-05 2.93988e-05 1.08694e-05 4.00183e-06 1.46655e-06 5.34709e-07 1.93871e-07 6.98681e-08 2.50149e-08 8.89425e-09 3.13845e-09 1.09891e-09 3.80824e-10 1.30988e-10 4.47639e-11 1.46392e-11 4.10459e-12 3.64347e-13 -5.39637e-13 4.29802e-13 -6.24944e-13 -2.08176e-13 2.73067e-13 -1.48041e-13 1.24429e-12 -2.02707e-13 -7.53847e-13 -2.61766e-13 -6.62111e-13 1.19767e-12 7.76944e-14 -3.75673e-13 1.08449e-13 -7.03222e-13 2.44875e-13 -2.10624e-13 7.83873e-13 2.64011e-13 0
				</DataArray>
				<DataArray Name="VitesseY" type="Float32" format="ascii">