<?xml version="1.0"?>
<VTKFile type="PolyData">
	<PolyData>
		<Piece NumberOfPoints="1206" NumberOfPolys="1000">
			<Points>
				<DataArray type="Float32" NumberOfComponents="3" format="ascii">
 0 0 0 0.005 0 0 0.01 0 0 0.015 0 0 0.02 0 0 0.025 0 0 0.03 0 0 0.035 0 0 0.04 0 0 0.045 0 0 0.05 0 0 0.055 0 0 0.06 0 0 0.065 0 0 0.07 0 0 0.075 0 0 0.08 0 0 0.085 0 0 0.09 0 0 0.095 0 0 0.1 0 0 0.105 0 0 0.11 0 0 0.115 0 0 0.12 0 0 0.125 0 0 0.13 0 0 0.135 0 0 0.14 0 0 0.145 0 0 0.15 0 0 0.155 0 0 0.16 0 0 0.165 0 0 0.17 0 0 0.175 0 0 0.18 0 0 0.185 0 0 0.19 0 0 0.195 0 0 0.2 0 0 0.205 0 0 0.21 0 0 0.215 0 0 0.22 0 0 0.225 0 0 0.23 0 0 0.235 0 0 0.24 0 0 0.245 0 0 0.25 0 0 0.255 0 0 0.26 0 0 0.265 0 0 0.27 0 0 0.275 0 0 0.28 0 0 0.285 0 0 0.29 0 0 0.295 0 0 0.3 0 0 0.305 0 0 0.31 0 0 0.315 0 0 0.32 0 0 0.325 0 0 0.33 0 0 0.335 0 0 0.34 0 0 0.345 0 0 0.35 0 0 0.355 0 0 0.36 0 0 0.365 0 0 0.37 0 0 0.375 0 0 0.38 0 0 0.385 0 0 0.39 0 0 0.395 0 0 0.4 0 0 0.405 0 0 0.41 0 0 0.415 0 0 0.42 0 0 0.425 0 0 0.43 0 0 0.435 0 0 0.44 0 0 0.445 0 0 0.45 0 0 0.455 0 0 0.46 0 0 0.465 0 0 0.47 0 0 0.475 0 0 0.48 0 0 0.485 0 0 0.49 0 0 0.495 0 0 0.5 0 0 0.505 0 0 0.51 0 0 0.515 0 0 0.52 0 0 0.525 0 0 0.53 0 0 0.535 0 0 0.54 0 0 0.545 0 0 0.55 0 0 0.555 0 0 0.56 0 0 0.565 0 0 0.57 0 0 0.575 0 0 0.58 0 0 0.585 0 0 0.59 0 0 0.595 0 0 0.6 0 0 0.605 0 0 0.61 0 0 0.615 0 0 0.62 0 0 0.625 0 0 0.63 0 0 0.635 0 0 0.64 0 0 0.645 0 0 0.65 0 0 0.655 0 0 0.66 0 0 0.665 0 0 0.67 0 0 0.675 0 0 0.68 0 0 0.685 0 0 0.69 0 0 0.695 0 0 0.7 0 0 0.705 0 0 0.71 0 0 0.715 0 0 0.72 0 0 0.725 0 0 0.73 0 0 0.735 0 0 0.74 0 0 0.745 0 0 0.75 0 0 0.755 0 0 0.76 0 0 0.765 0 0 0.77 0 0 0.775 0 0 0.78 0 0 0.785 0 0 0.79 0 0 0.795 0 0 0.8 0 0 0.805 0 0 0.81 0 0 0.815 0 0 0.82 0 0 0.825 0 0 0.83 0 0 0.835 0 0 0.84 0 0 0.845 0 0 0.85 0 0 0.855 0 0 0.86 0 0 0.865 0 0 0.87 0 0 0.875 0 0 0.88 0 0 0.885 0 0 0.89 0 0 0.895 0 0 0.9 0 0 0.905 0 0 0.91 0 0 0.915 0 0 0.92 0 0 0.925 0 0 0.93 0 0 0.935 0 0 0.94 0 0 0.945 0 0 0.95 0 0 0.955 0 0 0.96 0 0 0.965 0 0 0.97 0 0 0.975 0 0 0.98 0 0 0.985 0 0 0.99 0 0 0.995 0 0 1 0 0 0 0.02 0 0.005 0.02 0 0.01 0.02 0 0.015 0.02 0 0.02 0.02 0 0.025 0.02 0 0.03 0.02 0 0.035 0.02 0 0.04 0.02 0 0.045 0.02 0 0.05 0.02 0 0.055 0.02 0 0.06 0.02 0 0.065 0.02 0 0.07 0.02 0 0.075 0.02 0 0.08 0.02 0 0.085 0.02 0 0.09 0.02 0 0.095 0.02 0 0.1 0.02 0 0.105 0.02 0 0.11 0.02 0 0.115 0.02 0 0.12 0.02 0 0.125 0.02 0 0.13 0.02 0 0.135 0.02 0 0.14 0.02 0 0.145 0.02 0 0.15 0.02 0 0.155 0.02 0 0.16 0.02 0 0.165 0.02 0 0.17 0.02 0 0.175 0.02 0 0.18 0.02 0 0.185 0.02 0 0.19 0.02 0 0.195 0.02 0 0.2 0.02 0 0.205 0.02 0 0.21 0.02 0 0.215 0.02 0 0.22 0.02 0 0.225 0.02 0 0.23 0.02 0 0.235 0.02 0 0.24 0.02 0 0.245 0.02 0 0.25 0.02 0 0.255 0.02 0 0.26 0.02 0 0.265 0.02 0 0.27 0.02 0 0.275 0.02 0 0.28 0.02 0 0.285 0.02 0 0.29 0.02 0 0.295 0.02 0 0.3 0.02 0 0.305 0.02 0 0.31 0.02 0 0.315 0.02 0 0.32 0.02 0 0.325 0.02 0 0.33 0.02 0 0.335 0.02 0 0.34 0.02 0 0.345 0.02 0 0.35 0.02 0 0.355 0.02 0 0.36 0.02 0 0.365 0.02 0 0.37 0.02 0 0.375 0.02 0 0.38 0.02 0 0.385 0.02 0 0.39 0.02 0 0.395 0.02 0 0.4 0.02 0 0.405 0.02 0 0.41 0.02 0 0.415 0.02 0 0.42 0.02 0 0.425 0.02 0 0.43 0.02 0 0.435 0.02 0 0.44 0.02 0 0.445 0.02 0 0.45 0.02 0 0.455 0.02 0 0.46 0.02 0 0.465 0.02 0 0.47 0.02 0 0.475 0.02 0 0.48 0.02 0 0.485 0.02 0 0.49 0.02 0 0.495 0.02 0 0.5 0.02 0 0.505 0.02 0 0.51 0.02 0 0.515 0.02 0 0.52 0.02 0 0.525 0.02 0 0.53 0.02 0 0.535 0.02 0 0.54 0.02 0 0.545 0.02 0 0.55 0.02 0 0.555 0.02 0 0.56 0.02 0 0.565 0.02 0 0.57 0.02 0 0.575 0.02 0 0.58 0.02 0 0.585 0.02 0 0.59 0.02 0 0.595 0.02 0 0.6 0.02 0 0.605 0.02 0 0.61 0.02 0 0.615 0.02 0 0.62 0.02 0 0.625 0.02 0 0.63 0.02 0 0.635 0.02 0 0.64 0.02 0 0.645 0.02 0 0.65 0.02 0 0.655 0.02 0 0.66 0.02 0 0.665 0.02 0 0.67 0.02 0 0.675 0.02 0 0.68 0.02 0 0.685 0.02 0 0.69 0.02 0 0.695 0.02 0 0.7 0.02 0 0.705 0.02 0 0.71 0.02 0 0.715 0.02 0 0.72 0.02 0 0.725 0.02 0 0.73 0.02 0 0.735 0.02 0 0.74 0.02 0 0.745 0.02 0 0.75 0.02 0 0.755 0.02 0 0.76 0.02 0 0.765 0.02 0 0.77 0.02 0 0.775 0.02 0 0.78 0.02 0 0.785 0.02 0 0.79 0.02 0 0.795 0.02 0 0.8 0.02 0 0.805 0.02 0 0.81 0.02 0 0.815 0.02 0 0.82 0.02 0 0.825 0.02 0 0.83 0.02 0 0.835 0.02 0 0.84 0.02 0 0.845 0.02 0 0.85 0.02 0 0.855 0.02 0 0.86 0.02 0 0.865 0.02 0 0.87 0.02 0 0.875 0.02 0 0.88 0.02 0 0.885 0.02 0 0.89 0.02 0 0.895 0.02 0 0.9 0.02 0 0.905 0.02 0 0.91 0.02 0 0.915 0.02 0 0.92 0.02 0 0.925 0.02 0 0.93 0.02 0 0.935 0.02 0 0.94 0.02 0 0.945 0.02 0 0.95 0.02 0 0.955 0.02 0 0.96 0.02 0 0.965 0.02 0 0.97 0.02 0 0.975 0.02 0 0.98 0.02 0 0.985 0.02 0 0.99 0.02 0 0.995 0.02 0 1 0.02 0 0 0.04 0 0.005 0.04 0 0.01 0.04 0 0.015 0.04 0 0.02 0.04 0 0.025 0.04 0 0.03 0.04 0 0.035 0.04 0 0.04 0.04 0 0.045 0.04 0 0.05 0.04 0 0.055 0.04 0 0.06 0.04 0 0.065 0.04 0 0.07 0.04 0 0.075 0.04 0 0.08 0.04 0 0.085 0.04 0 0.09 0.04 0 0.095 0.04 0 0.1 0.04 0 0.105 0.04 0 0.11 0.04 0 0.115 0.04 0 0.12 0.04 0 0.125 0.04 0 0.13 0.04 0 0.135 0.04 0 0.14 0.04 0 0.145 0.04 0 0.15 0.04 0 0.155 0.04 0 0.16 0.04 0 0.165 0.04 0 0.17 0.04 0 0.175 0.04 0 0.18 0.04 0 0.185 0.04 0 0.19 0.04 0 0.195 0.04 0 0.2 0.04 0 0.205 0.04 0 0.21 0.04 0 0.215 0.04 0 0.22 0.04 0 0.225 0.04 0 0.23 0.04 0 0.235 0.04 0 0.24 0.04 0 0.245 0.04 0 0.25 0.04 0 0.255 0.04 0 0.26 0.04 0 0.265 0.04 0 0.27 0.04 0 0.275 0.04 0 0.28 0.04 0 0.285 0.04 0 0.29 0.04 0 0.295 0.04 0 0.3 0.04 0 0.305 0.04 0 0.31 0.04 0 0.315 0.04 0 0.32 0.04 0 0.325 0.04 0 0.33 0.04 0 0.335 0.04 0 0.34 0.04 0 0.345 0.04 0 0.35 0.04 0 0.355 0.04 0 0.36 0.04 0 0.365 0.04 0 0.37 0.04 0 0.375 0.04 0 0.38 0.04 0 0.385 0.04 0 0.39 0.04 0 0.395 0.04 0 0.4 0.04 0 0.405 0.04 0 0.41 0.04 0 0.415 0.04 0 0.42 0.04 0 0.425 0.04 0 0.43 0.04 0 0.435 0.04 0 0.44 0.04 0 0.445 0.04 0 0.45 0.04 0 0.455 0.04 0 0.46 0.04 0 0.465 0.04 0 0.47 0.04 0 0.475 0.04 0 0.48 0.04 0 0.485 0.04 0 0.49 0.04 0 0.495 0.04 0 0.5 0.04 0 0.505 0.04 0 0.51 0.04 0 0.515 0.04 0 0.52 0.04 0 0.525 0.04 0 0.53 0.04 0 0.535 0.04 0 0.54 0.04 0 0.545 0.04 0 0.55 0.04 0 0.555 0.04 0 0.56 0.04 0 0.565 0.04 0 0.57 0.04 0 0.575 0.04 0 0.58 0.04 0 0.585 0.04 0 0.59 0.04 0 0.595 0.04 0 0.6 0.04 0 0.605 0.04 0 0.61 0.04 0 0.615 0.04 0 0.62 0.04 0 0.625 0.04 0 0.63 0.04 0 0.635 0.04 0 0.64 0.04 0 0.645 0.04 0 0.65 0.04 0 0.655 0.04 0 0.66 0.04 0 0.665 0.04 0 0.67 0.04 0 0.675 0.04 0 0.68 0.04 0 0.685 0.04 0 0.69 0.04 0 0.695 0.04 0 0.7 0.04 0 0.705 0.04 0 0.71 0.04 0 0.715 0.04 0 0.72 0.04 0 0.725 0.04 0 0.73 0.04 0 0.735 0.04 0 0.74 0.04 0 0.745 0.04 0 0.75 0.04 0 0.755 0.04 0 0.76 0.04 0 0.765 0.04 0 0.77 0.04 0 0.775 0.04 0 0.78 0.04 0 0.785 0.04 0 0.79 0.04 0 0.795 0.04 0 0.8 0.04 0 0.805 0.04 0 0.81 0.04 0 0.815 0.04 0 0.82 0.04 0 0.825 0.04 0 0.83 0.04 0 0.835 0.04 0 0.84 0.04 0 0.845 0.04 0 0.85 0.04 0 0.855 0.04 0 0.86 0.04 0 0.865 0.04 0 0.87 0.04 0 0.875 0.04 0 0.88 0.04 0 0.885 0.04 0 0.89 0.04 0 0.895 0.04 0 0.9 0.04 0 0.905 0.04 0 0.91 0.04 0 0.915 0.04 0 0.92 0.04 0 0.925 0.04 0 0.93 0.04 0 0.935 0.04 0 0.94 0.04 0 0.945 0.04 0 0.95 0.04 0 0.955 0.04 0 0.96 0.04 0 0.965 0.04 0 0.97 0.04 0 0.975 0.04 0 0.98 0.04 0 0.985 0.04 0 0.99 0.04 0 0.995 0.04 0 1 0.04 0 0 0.06 0 0.005 0.06 0 0.01 0.06 0 0.015 0.06 0 0.02 0.06 0 0.025 0.06 0 0.03 0.06 0 0.035 0.06 0 0.04 0.06 0 0.045 0.06 0 0.05 0.06 0 0.055 0.06 0 0.06 0.06 0 0.065 0.06 0 0.07 0.06 0 0.075 0.06 0 0.08 0.06 0 0.085 0.06 0 0.09 0.06 0 0.095 0.06 0 0.1 0.06 0 0.105 0.06 0 0.11 0.06 0 0.115 0.06 0 0.12 0.06 0 0.125 0.06 0 0.13 0.06 0 0.135 0.06 0 0.14 0.06 0 0.145 0.06 0 0.15 0.06 0 0.155 0.06 0 0.16 0.06 0 0.165 0.06 0 0.17 0.06 0 0.175 0.06 0 0.18 0.06 0 0.185 0.06 0 0.19 0.06 0 0.195 0.06 0 0.2 0.06 0 0.205 0.06 0 0.21 0.06 0 0.215 0.06 0 0.22 0.06 0 0.225 0.06 0 0.23 0.06 0 0.235 0.06 0 0.24 0.06 0 0.245 0.06 0 0.25 0.06 0 0.255 0.06 0 0.26 0.06 0 0.265 0.06 0 0.27 0.06 0 0.275 0.06 0 0.28 0.06 0 0.285 0.06 0 0.29 0.06 0 0.295 0.06 0 0.3 0.06 0 0.305 0.06 0 0.31 0.06 0 0.315 0.06 0 0.32 0.06 0 0.325 0.06 0 0.33 0.06 0 0.335 0.06 0 0.34 0.06 0 0.345 0.06 0 0.35 0.06 0 0.355 0.06 0 0.36 0.06 0 0.365 0.06 0 0.37 0.06 0 0.375 0.06 0 0.38 0.06 0 0.385 0.06 0 0.39 0.06 0 0.395 0.06 0 0.4 0.06 0 0.405 0.06 0 0.41 0.06 0 0.415 0.06 0 0.42 0.06 0 0.425 0.06 0 0.43 0.06 0 0.435 0.06 0 0.44 0.06 0 0.445 0.06 0 0.45 0.06 0 0.455 0.06 0 0.46 0.06 0 0.465 0.06 0 0.47 0.06 0 0.475 0.06 0 0.48 0.06 0 0.485 0.06 0 0.49 0.06 0 0.495 0.06 0 0.5 0.06 0 0.505 0.06 0 0.51 0.06 0 0.515 0.06 0 0.52 0.06 0 0.525 0.06 0 0.53 0.06 0 0.535 0.06 0 0.54 0.06 0 0.545 0.06 0 0.55 0.06 0 0.555 0.06 0 0.56 0.06 0 0.565 0.06 0 0.57 0.06 0 0.575 0.06 0 0.58 0.06 0 0.585 0.06 0 0.59 0.06 0 0.595 0.06 0 0.6 0.06 0 0.605 0.06 0 0.61 0.06 0 0.615 0.06 0 0.62 0.06 0 0.625 0.06 0 0.63 0.06 0 0.635 0.06 0 0.64 0.06 0 0.645 0.06 0 0.65 0.06 0 0.655 0.06 0 0.66 0.06 0 0.665 0.06 0 0.67 0.06 0 0.675 0.06 0 0.68 0.06 0 0.685 0.06 0 0.69 0.06 0 0.695 0.06 0 0.7 0.06 0 0.705 0.06 0 0.71 0.06 0 0.715 0.06 0 0.72 0.06 0 0.725 0.06 0 0.73 0.06 0 0.735 0.06 0 0.74 0.06 0 0.745 0.06 0 0.75 0.06 0 0.755 0.06 0 0.76 0.06 0 0.765 0.06 0 0.77 0.06 0 0.775 0.06 0 0.78 0.06 0 0.785 0.06 0 0.79 0.06 0 0.795 0.06 0 0.8 0.06 0 0.805 0.06 0 0.81 0.06 0 0.815 0.06 0 0.82 0.06 0 0.825 0.06 0 0.83 0.06 0 0.835 0.06 0 0.84 0.06 0 0.845 0.06 0 0.85 0.06 0 0.855 0.06 0 0.86 0.06 0 0.865 0.06 0 0.87 0.06 0 0.875 0.06 0 0.88 0.06 0 0.885 0.06 0 0.89 0.06 0 0.895 0.06 0 0.9 0.06 0 0.905 0.06 0 0.91 0.06 0 0.915 0.06 0 0.92 0.06 0 0.925 0.06 0 0.93 0.06 0 0.935 0.06 0 0.94 0.06 0 0.945 0.06 0 0.95 0.06 0 0.955 0.06 0 0.96 0.06 0 0.965 0.06 0 0.97 0.06 0 0.975 0.06 0 0.98 0.06 0 0.985 0.06 0 0.99 0.06 0 0.995 0.06 0 1 0.06 0 0 0.08 0 0.005 0.08 0 0.01 0.08 0 0.015 0.08 0 0.02 0.08 0 0.025 0.08 0 0.03 0.08 0 0.035 0.08 0 0.04 0.08 0 0.045 0.08 0 0.05 0.08 0 0.055 0.08 0 0.06 0.08 0 0.065 0.08 0 0.07 0.08 0 0.075 0.08 0 0.08 0.08 0 0.085 0.08 0 0.09 0.08 0 0.095 0.08 0 0.1 0.08 0 0.105 0.08 0 0.11 0.08 0 0.115 0.08 0 0.12 0.08 0 0.125 0.08 0 0.13 0.08 0 0.135 0.08 0 0.14 0.08 0 0.145 0.08 0 0.15 0.08 0 0.155 0.08 0 0.16 0.08 0 0.165 0.08 0
[...]
			<PointData Scalars="VitesseX">
				<DataArray Name="VitesseX" type="Float32" format="ascii">
 0 -1.02713e-14 6.46168e-15 -5.72676e-14 8.40101e-14 -7.40107e-14 -9.6236e-15 -6.69874e-14 -4.63775e-14 -1.62e-14 -1.57138e-14 -4.71983e-14 -1.76105e-13 2.8512e-14 -1.65068e-13 3.0693e-14 -4.27265e-14 -9.90484e-14 -6.49143e-15 -1.02693e-13 -5.55455e-14 2.50989e-14 -3.36519e-13 1.1689e-13 -2.68123e-13 -4.89529e-14 -6.35807e-14 5.7208e-14 -3.71862e-13 -2.83712e-14 5.44545e-14 -7.72846e-14 -5.50475e-14 2.55889e-14 -1.91191e-13 -3.26719e-13 -5.33078e-14 -1.31431e-13 -1.87405e-13 -2.00069e-13 -1.775e-13 -3.28842e-13 -9.14886e-14 -2.00068e-13 -6.86973e-14 6.18396e-14 -2.95944e-14 1.61169e-13 -2.69346e-13 3.47886e-14 1.70467e-13 -3.41326e-13 1.27873e-13 -5.71124e-13 -1.17366e-13 -2.55458e-13 -4.13893e-13 1.07801e-13 3.37582e-12 2.47995e-11 1.87141e-10 1.31629e-09 8.64855e-09 5.28299e-08 2.98904e-07 1.55948e-06 7.46387e-06 3.25712e-05 0.000128659 0.000456119 0.00143725 0.00398573 0.00965262 0.0203757 0.037656 0.0616757 0.0912181 0.124466 0.159868 0.196412 0.233551 0.271017 0.30859 0.346126 0.383568 0.420862 0.457958 0.494809 0.531364 0.567569 0.603359 0.638666 0.67341 0.707504 0.740854 0.773364 0.804945 0.835544 0.865184 0.893985 0.922495 0.941803 0.941816 0.940959 0.939608 0.938146 0.936569 0.934917 0.933324 0.93184 0.930677 0.929696 0.928899 0.928433 0.928038 0.927867 0.928207 0.92736 0.921281 0.925776 0.925311 0.930511 0.928383 0.928478 0.92966 0.929947 0.930047 0.930101 0.930079 0.929788 0.929367 0.929071 0.929229 0.929203 0.928399 0.922077 0.902559 0.858626 0.783001 0.675242 0.541999 0.397135 0.259661 0.148248 0.0732181 0.0318224 0.0127287 0.00487169 0.00182413 0.000675055 0.000247835 9.03576e-05 3.27127e-05 1.17546e-05 4.18966e-06 1.48029e-06 5.18135e-07 1.79561e-07 6.15772e-08 2.08856e-08 7.0034e-09 2.32085e-09 7.59556e-10 2.45087e-10 7.78334e-11 2.40228e-11 7.60182e-12 1.93094e-12 2.10079e-13 -2.31576e-13 1.41758e-14 -3.84223e-13 2.8929e-13 -7.15772e-13 2.44402e-13 -6.07444e-13 5.0435e-14 -5.07066e-13 3.76479e-13 3.04064e-13 -3.44473e-13 4.38777e-13 -7.98199e-13 2.39466e-13 -1.38248e-13 -1.36292e-13 2.81744e-13 -8.16193e-13 6.06792e-13 -9.59823e-13 5.37461e-13 -6.99091e-13 7.21937e-13 7.93337e-13 -1.27503e-13 5.16625e-13 7.41519e-13 3.73765e-13 -6.99799e-13 -1.37219e-13 0 0 -5.88874e-15 -1.93955e-14 3.23929e-14 -6.13085e-14 4.77942e-14 5.79742e-15 -1.2542e-14 -4.98183e-14 -4.89326e-14 -6.88211e-14 -5.26888e-14 9.02479e-15 -1.50407e-13 -9.22731e-16 -9.37159e-14 -4.94369e-14 -3.62735e-14 -9.90369e-14 -2.82902e-14 -1.06963e-13 -1.00261e-13 6.47264e-14 -4.03037e-13 8.65233e-14 -1.68366e-13 -1.66816e-13 -2.25254e-13 5.06599e-14 -5.84054e-14 -6.69745e-14 6.8615e-14 -4.85923e-14 -1.88754e-13 -1.83114e-13 -8.04298e-14 -1.79568e-13 -1.12297e-13 -1.44652e-13 -1.37017e-13 -3.05018e-13 -2.20857e-13 -5.90122e-14 -1.25154e-13 5.85499e-14 -9.4323e-14 -9.36485e-14 -1.6047e-13 3.35955e-13 7.99026e-14 -1.8553e-13 -1.14341e-13 -5.98829e-13 8.91918e-14 -2.55177e-13 -2.17761e-13 -1.1336e-13 2.28509e-13 3.22992e-12 2.49108e-11 1.86976e-10 1.3166e-09 8.64894e-09 5.28295e-08 2.98904e-07 1.55948e-06 7.46387e-06 3.25712e-05 0.000128659 0.000456119 0.00143725 0.00398573 0.00965262 0.0203757 0.037656 0.0616757 0.0912181 0.124466 0.159868 0.196412 0.233551 0.271017 0.30859 0.346126 0.383568 0.420862 0.457958 0.494809 0.531364 0.567569 0.603359 0.638666 0.67341 0.707504 0.740854 0.773364 0.804945 0.835544 0.865184 0.893985 0.922495 0.941803 0.941816 0.940959 0.939608 0.938146 0.936569 0.934917 0.933324 0.93184 0.930677 0.929696 0.928899 0.928433 0.928038 0.927867 0.928207 0.92736 0.921281 0.925776 0.925311 0.930511 0.928383 0.928478 0.92966 0.929947 0.930047 0.930101 0.930079 0.929788 0.929367 0.929071 0.929229 0.929203 0.928399 0.922077 0.902559 0.858626 0.783001 0.675242 0.541999 0.397135 0.259661 0.148248 0.0732181 0.0318224 0.0127287 0.00487169 0.00182413 0.000675055 0.000247835 9.03576e-05 3.27127e-05 1.17546e-05 4.18966e-06 1.48029e-06 5.18135e-07 1.79561e-07 6.15772e-08 2.08859e-08 7.00329e-09 2.32063e-09 7.59447e-10 2.45487e-10 7.7963e-11 2.42076e-11 6.79432e-12 2.00385e-12 2.02539e-13 4.15598e-13 -3.57697e-13 -1.25657e-13 -3.92616e-13 -2.63825e-13 -5.48719e-13 1.14823e-13 -1.69307e-13 -2.81997e-13 -2.91482e-13 2.55434e-13 6.21448e-13 -7.43012e-13 2.94493e-13 1.63201e-13 -3.59694e-13 -7.84307e-14 -4.80778e-13 2.96553e-13 -7.31479e-13 1.67179e-13 -3.27624e-13 2.61844e-13 2.40383e-13 1.02692e-13 7.4953e-13 -1.44441e-13 2.39182e-13 1.73761e-13 2.5113e-13 7.49639e-14 0 0 1.38865e-14 1.90061e-14 1.57635e-14 6.45505e-14 7.44271e-15 4.14704e-14 -4.62469e-14 2.70102e-14 -1.63801e-14 -4.31786e-14 -7.50643e-14 -4.51259e-14 -2.12204e-14 -1.33515e-13 -9.08525e-14 -1.43152e-13 -9.81044e-14 4.32661e-14 -1.54711e-13 -9.31636e-14 -2.06897e-14 -2.32439e-13 -1.60664e-14 -2.48387e-13 -9.09452e-14 -8.61497e-14 -5.84152e-14 -2.95348e-13 -3.69608e-14 6.91742e-14 -4.97664e-14 -1.0547e-13 -2.95867e-14 -2.11092e-14 -3.1687e-13 -9.21732e-14 -5.76483e-14 -1.85969e-13 -7.55796e-14 2.2856e-14 -3.03634e-13 -3.63238e-15 -2.40883e-14 6.66073e-14 -3.12828e-13 -6.28438e-14 -1.08217e-13 -7.14639e-14 8.36714e-15 -1.84111e-13 -1.25006e-13 1.08944e-13 -3.62928e-13 -9.16009e-14 -9.96307e-14 -3.25652e-13 5.45851e-13 3.29059e-12 2.48844e-11 1.86896e-10 1.31708e-09 8.64934e-09 5.28293e-08 2.98904e-07 1.55948e-06 7.46387e-06 3.25712e-05 0.000128659 0.000456119 0.00143725 0.00398573 0.00965262 0.0203757 0.037656 0.0616757 0.0912181 0.124466 0.159868 0.196412 0.233551 0.271017 0.30859 0.346126 0.383568 0.420862 0.457958 0.494809 0.531364 0.567569 0.603359 0.638666 0.67341 0.707504 0.740854 0.773364 0.804945 0.835544 0.865184 0.893985 0.922495 0.941803 0.941816 0.940959 0.939608 0.938146 0.936569 0.934917 0.933324 0.93184 0.930677 0.929696 0.928899 0.928433 0.928038 0.927867 0.928207 0.92736 0.921281 0.925776 0.925311 0.930511 0.928383 0.928478 0.92966 0.929947 0.930047 0.930101 0.930079 0.929788 0.929367 0.929071 0.929229 0.929203 0.928399 0.922077 0.902559 0.858626 0.783001 0.675242 0.541999 0.397135 0.259661 0.148248 0.0732181 0.0318224 0.0127287 0.00487169 0.00182413 0.000675055 0.000247835 9.03576e-05 3.27127e-05 1.17546e-05 4.18966e-06 1.48029e-06 5.18135e-07 1.79561e-07 6.15773e-08 2.08859e-08 7.00368e-09 2.32072e-09 7.59516e-10 2.45193e-10 7.80728e-11 2.40403e-11 7.26277e-12 1.89319e-12 4.6076e-13 -2.06415e-13 -3.24262e-14 -7.93587e-13 2.38467e-13 -7.17601e-13 -3.52588e-14 -1.13952e-13 -2.06561e-13 -1.67748e-13 -2.4676e-13 2.40326e-13 5.09573e-14 -4.44127e-15 1.91174e-13 -7.76974e-13 2.23235e-13 -4.76739e-13 4.01692e-14 -3.95546e-13 5.04921e-14 -9.84585e-13 3.7216e-13 -2.79999e-13 3.62254e-13 5.38128e-13 -2.02535e-13 3.05457e-13 9.18802e-14 -8.75912e-14 3.19582e-13 2.48101e-13 0 0 1.80092e-14 3.36742e-14 3.74514e-14 9.6855e-14 4.42825e-14 1.34785e-14 -1.16976e-14 -1.25805e-14 4.26306e-14 -1.25184e-14 -1.17511e-13 -5.15528e-14 -7.45831e-14 -2.14281e-13 -8.16937e-15 -9.23875e-14 -9.04966e-14 -1.7313e-13 -6.77044e-14 -1.47748e-13 -1.0234e-13 -1.91361e-13 2.81288e-14 -8.50275e-14 -1.21787e-14 -6.41051e-14 -2.89271e-13 -1.81479e-13 5.29953e-14 -4.28581e-14 -8.7386e-14 8.9413e-14 -1.75351e-13 -2.39451e-13 -1.32229e-13 -8.548e-14 -7.55531e-14 -4.67793e-14 -1.86319e-13 -1.26552e-13 -4.51545e-14 1.49293e-13 -2.62669e-13 -7.14231e-14 1.53857e-13 -3.63079e-13 -1.55381e-13 -2.67013e-14 -2.26895e-13 4.53068e-14 -3.0728e-13 1.24564e-13 -7.73347e-14 -2.94518e-13 -3.15826e-13 1.40004e-13 1.20896e-13 3.39195e-12 2.48596e-11 1.87378e-10 1.31697e-09 8.64915e-09 5.28295e-08 2.98904e-07 1.55948e-06 7.46387e-06 3.25712e-05 0.000128659 0.000456119 0.00143725 0.00398573 0.00965262 0.0203757 0.037656 0.0616757 0.0912181 0.124466 0.159868 0.196412 0.233551 0.271017 0.30859 0.346126 0.383568 0.420862 0.457958 0.494809 0.531364 0.567569 0.603359 0.638666 0.67341 0.707504 0.740854 0.773364 0.804945 0.835544 0.865184 0.893985 0.922495 0.941803 0.941816 0.940959 0.939608 0.938146 0.936569 0.934917 0.933324 0.93184 0.930677 0.929696 0.928899 0.928433 0.928038 0.927867 0.928207 0.92736 0.921281 0.925776 0.925311 0.930511 0.928383 0.928478 0.92966 0.929947 0.930047 0.930101 0.930079 0.929788 0.929367 0.929071 0.929229 0.929203 0.928399 0.922077 0.902559 0.858626 0.783001 0.675242 0.541999 0.397135 0.259661 0.148248 0.0732181 0.0318224 0.0127287 0.00487169 0.00182413 0.000675055 0.000247835 9.03576e-05 3.27127e-05 1.17546e-05 4.18966e-06 1.48029e-06 5.18135e-07 1.79561e-07 6.15771e-08 2.0886e-08 7.00351e-09 2.32067e-09 7.59578e-10 2.45279e-10 7.77746e-11 2.43587e-11 7.1611e-12 2.1243e-12 3.23004e-13 -1.159e-13 -6.8496e-13 2.3847e-13 -2.05585e-13 -2.4452e-14 -2.36273e-13 -7.17987e-13 2.27923e-13 4.47402e-13 2.42326e-13 -8.18313e-13 -2.45067e-13 3.35776e-13 -2.9577e-13 -2.69294e-13 -2.17625e-13 -5.92874e-13 -2.66608e-13 -5.43579e-13 -6.21109e-13 1.93127e-13 5.65912e-13 -7.56815e-14 2.37992e-13 3.37844e-13 3.97097e-14 1.75837e-13 7.10218e-13 2.90435e-13 -8.39357e-13 -1.14031e-13 0 0 2.37208e-14 3.28505e-14 8.0052e-14 -2.23249e-14 1.05732e-13 2.35684e-14 1.78049e-14 -4.37962e-14 2.73419e-14 -5.87218e-14 -7.97077e-14 2.41223e-14 -1.93755e-13 -1.06227e-13 -1.04496e-13 -8.53613e-14 -8.2243e-14 -1.1036e-13 5.61401e-15 -1.53629e-13 -2.08975e-13 1.29117e-13 -2.80447e-13 2.20823e-13 -9.6546e-14 -1.05075e-13 -3.09495e-13 1.82327e-13 -5.13545e-14 -2.87898e-13 -5.21538e-14 -7.2347e-14 -2.99862e-13 -2.49551e-13 -8.27156e-14 -4.61123e-14 5.99442e-15 -9.86058e-14 -3.05166e-13 -2.93501e-13 4.62968e-14 -3.00761e-14 -7.79645e-14 -2.46094e-14 2.51969e-13 -4.33454e-13 -1.83984e-13 2.46898e-13 -1.74767e-13 -1.25292e-13 -1.16104e-13 -5.85525e-13 1.00206e-13 -3.37961e-13 -3.43559e-13 2.41881e-13 2.68278e-13 3.46448e-12 2.50197e-11 1.87347e-10 1.31694e-09 8.64909e-09 5.28295e-08 2.98904e-07 1.55948e-06 7.46387e-06 3.25712e-05 0.000128659 0.000456119 0.00143725 0.00398573 0.00965262 0.0203757 0.037656 0.0616757 0.0912181 0.124466 0.159868 0.196412 0.233551 0.271017 0.30859 0.346126 0.383568 0.420862 0.457958 0.494809 0.531364 0.567569 0.603359 0.638666 0.67341 0.707504 0.740854 0.773364 0.804945 0.835544 0.865184 0.893985 0.922495 0.941803 0.941816 0.940959 0.939608 0.938146 0.936569 0.934917 0.933324 0.93184 0.930677 0.929696 0.928899 0.928433 0.928038 0.927867 0.928207 0.92736 0.921281 0.925776 0.925311 0.930511 0.928383 0.928478 0.92966 0.929947 0.930047 0.930101 0.930079 0.929788 0.929367 0.929071 0.929229 0.929203 0.928399 0.922077 0.902559 0.858626 0.783001 0.675242 0.541999 0.397135 0.259661 0.148248 0.0732181 0.0318224 0.0127287 0.00487169 0.00182413 0.000675055 0.000247835 9.03576e-05 3.27127e-05 1.17546e-05 4.18966e-06 1.48029e-06 5.18135e-07 1.79561e-07 6.15772e-08 2.08859e-08 7.00341e-09 2.3207e-09 7.59121e-10 2.45521e-10 7.79321e-11 2.39822e-11 6.88832e-12 2.10832e-12 -7.99319e-14 6.47771e-14 -8.41397e-13 7.13851e-13 -7.63943e-13 2.6765e-13 -2.98942e-13 -3.5895e-13 -1.42657e-14 2.09372e-13 -1.77353e-13 -2.00057e-13 4.74002e-13 -9.82934e-13 -5.33587e-14 2.11551e-13 -2.5321e-13 -2.43461e-13 -7.3359e-13 9.13611e-14 -1.22292e-12 1.20453e-12 -3.15878e-13 6.75046e-13 -1.78931e-13 -3.39554e-13 9.07626e-13 -1.95004e-13 1.20407e-13 2.45263e-13 -1.82341e-13 -2.52281e-13 0 0 4.07023e-14 8.16174e-14 -5.32527e-15 9.73681e-14 -3.18137e-14 8.19022e-14 -7.53921e-14 4.48481e-14 1.83275e-14 -5.68356e-14 -1.63437e-14 -1.33057e-13 4.85421e-14 -2.14144e-13 -1.56234e-13 -2.16103e-13 -2.06203e-13 4.03654e-13 -2.08898e-13 -3.97071e-14 -2.90268e-14 -2.89895e-13 2.7368e-13 -3.26241e-13 -6.28453e-14 1.58132e-14 3.50437e-13 -3.36265e-13 -1.94182e-13 -1.63328e-13 -2.43583e-13 -4.92322e-13 9.49015e-14 1.12619e-13 -7.00572e-13 2.00217e-13 1.40961e-13 -3.73692e-13 -3.14889e-13 1.44348e-13 -3.11493e-13 -3.39468e-13 3.71472e-13 4.10449e-14 -1.78947e-13 -1.08734e-13 2.08468e-13 -5.36986e-13 -4.02766e-15 -1.67892e-13 1.96944e-14 1.23242e-13 -1.12028e-12 1.229e-13 -7.46634e-14 -6.34723e-13 1.03725e-12 3.64223e-12 2.50669e-11 1.86919e-10 1.31721e-09 8.64924e-09 5.28296e-08 2.98904e-07 1.55948e-06 7.46387e-06 3.25712e-05 0.000128659 0.000456119 0.00143725 0.00398573 0.00965262 0.0203757 0.037656 0.0616757 0.0912181 0.124466 0.159868 0.196412 0.233551 0.271017 0.30859 0.346126 0.383568 0.420862 0.457958 0.494809 0.531364 0.567569 0.603359 0.638666 0.67341 0.707504 0.740854 0.773364 0.804945 0.835544 0.865184 0.893985 0.922495 0.941803 0.941816 0.940959 0.939608 0.938146 0.936569 0.934917 0.933324 0.93184 0.930677 0.929696 0.928899 0.928433 0.928038 0.927867 0.928207 0.92736 0.921281 0.925776 0.925311 0.930511 0.928383 0.928478 0.92966 0.929947 0.930047 0.930101 0.930079 0.929788 0.929367 0.929071 0.929229 0.929203 0.928399 0.922077 0.902559 0.858626 0.783001 0.675242 0.541999 0.397135 0.259661 0.148248 0.0732181 0.0318224 0.0127287 0.00487169 0.00182413 0.000675055 0.000247835 9.03576e-05 3.27127e-05 1.17546e-05 4.18966e-06 1.48029e-06 5.18135e-07 1.79561e-07 6.15775e-08 2.08853e-08 7.00399e-09 2.32108e-09 7.58778e-10 2.44982e-10 7.83681e-11 2.29351e-11 7.99317e-12 1.67766e-12 -7.935e-14 -1.11425e-12 3.51844e-13 -7.69322e-13 4.3474e-13 -1.03912e-12 1.14598e-12 -3.46919e-13 -5.08451e-13 -7.54626e-13 -3.73434e-13 1.51036e-12 -4.73157e-14 -7.215e-13 -5.20013e-13 -6.79193e-13 9.56441e-13 -2.34082e-13 3.89676e-13 -9.30513e-13 9.6711e-13 -1.24055e-12 1.7345e-13 -2.81322e-13 1.31833e-13 3.09412e-13 -2.958e-13 6.74739e-13 -7.32707e-13 -2.39284e-13 7.51137e-13 -6.74449e-14 0
				</DataArray>
				<DataArray Name="VitesseY" type="Float32" format="ascii">