<?xml version="1.0"?>
<VTKFile type="PolyData">
	<PolyData>
		<Piece NumberOfPoints="1206" NumberOfPolys="1000">
			<Points>
				<DataArray type="Float32" NumberOfComponents="3" format="ascii">
 0 0 0 0.005 0 0 0.01 0 0 0.015 0 0 0.02 0 0 0.025 0 0 0.03 0 0 0.035 0 0 0.04 0 0 0.045 0 0 0.05 0 0 0.055 0 0 0.06 0 0 0.065 0 0 0.07 0 0 0.075 0 0 0.08 0 0 0.085 0 0 0.09 0 0 0.095 0 0 0.1 0 0 0.105 0 0 0.11 0 0 0.115 0 0 0.12 0 0 0.125 0 0 0.13 0 0 0.135 0 0 0.14 0 0 0.145 0 0 0.15 0 0 0.155 0 0 0.16 0 0 0.165 0 0 0.17 0 0 0.175 0 0 0.18 0 0 0.185 0 0 0.19 0 0 0.195 0 0 0.2 0 0 0.205 0 0 0.21 0 0 0.215 0 0 0.22 0 0 0.225 0 0 0.23 0 0 0.235 0 0 0.24 0 0 0.245 0 0 0.25 0 0 0.255 0 0 0.26 0 0 0.265 0 0 0.27 0 0 0.275 0 0 0.28 0 0 0.285 0 0 0.29 0 0 0.295 0 0 0.3 0 0 0.305 0 0 0.31 0 0 0.315 0 0 0.32 0 0 0.325 0 0 0.33 0 0 0.335 0 0 0.34 0 0 0.345 0 0 0.35 0 0 0.355 0 0 0.36 0 0 0.365 0 0 0.37 0 0 0.375 0 0 0.38 0 0 0.385 0 0 0.39 0 0 0.395 0 0 0.4 0 0 0.405 0 0 0.41 0 0 0.415 0 0 0.42 0 0 0.425 0 0 0.43 0 0 0.435 0 0 0.44 0 0 0.445 0 0 0.45 0 0 0.455 0 0 0.46 0 0 0.465 0 0 0.47 0 0 0.475 0 0 0.48 0 0 0.485 0 0 0.49 0 0 0.495 0 0 0.5 0 0 0.505 0 0 0.51 0 0 0.515 0 0 0.52 0 0 0.525 0 0 0.53 0 0 0.535 0 0 0.54 0 0 0.545 0 0 0.55 0 0 0.555 0 0 0.56 0 0 0.565 0 0 0.57 0 0 0.575 0 0 0.58 0 0 0.585 0 0 0.59 0 0 0.595 0 0 0.6 0 0 0.605 0 0 0.61 0 0 0.615 0 0 0.62 0 0 0.625 0 0 0.63 0 0 0.635 0 0 0.64 0 0 0.645 0 0 0.65 0 0 0.655 0 0 0.66 0 0 0.665 0 0 0.67 0 0 0.675 0 0 0.68 0 0 0.685 0 0 0.69 0 0 0.695 0 0 0.7 0 0 0.705 0 0 0.71 0 0 0.715 0 0 0.72 0 0 0.725 0 0 0.73 0 0 0.735 0 0 0.74 0 0 0.745 0 0 0.75 0 0 0.755 0 0 0.76 0 0 0.765 0 0 0.77 0 0 0.775 0 0 0.78 0 0 0.785 0 0 0.79 0 0 0.795 0 0 0.8 0 0 0.805 0 0 0.81 0 0 0.815 0 0 0.82 0 0 0.825 0 0 0.83 0 0 0.835 0 0 0.84 0 0 0.845 0 0 0.85 0 0 0.855 0 0 0.86 0 0 0.865 0 0 0.87 0 0 0.875 0 0 0.88 0 0 0.885 0 0 0.89 0 0 0.895 0 0 0.9 0 0 0.905 0 0 0.91 0 0 0.915 0 0 0.92 0 0 0.925 0 0 0.93 0 0 0.935 0 0 0.94 0 0 0.945 0 0 0.95 0 0 0.955 0 0 0.96 0 0 0.965 0 0 0.97 0 0 0.975 0 0 0.98 0 0 0.985 0 0 0.99 0 0 0.995 0 0 1 0 0 0 0.02 0 0.005 0.02 0 0.01 0.02 0 0.015 0.02 0 0.02 0.02 0 0.025 0.02 0 0.03 0.02 0 0.035 0.02 0 0.04 0.02 0 0.045 0.02 0 0.05 0.02 0 0.055 0.02 0 0.06 0.02 0 0.065 0.02 0 0.07 0.02 0 0.075 0.02 0 0.08 0.02 0 0.085 0.02 0 0.09 0.02 0 0.095 0.02 0 0.1 0.02 0 0.105 0.02 0 0.11 0.02 0 0.115 0.02 0 0.12 0.02 0 0.125 0.02 0 0.13 0.02 0 0.135 0.02 0 0.14 0.02 0 0.145 0.02 0 0.15 0.02 0 0.155 0.02 0 0.16 0.02 0 0.165 0.02 0 0.17 0.02 0 0.175 0.02 0 0.18 0.02 0 0.185 0.02 0 0.19 0.02 0 0.195 0.02 0 0.2 0.02 0 0.205 0.02 0 0.21 0.02 0 0.215 0.02 0 0.22 0.02 0 0.225 0.02 0 0.23 0.02 0 0.235 0.02 0 0.24 0.02 0 0.245 0.02 0 0.25 0.02 0 0.255 0.02 0 0.26 0.02 0 0.265 0.02 0 0.27 0.02 0 0.275 0.02 0 0.28 0.02 0 0.285 0.02 0 0.29 0.02 0 0.295 0.02 0 0.3 0.02 0 0.305 0.02 0 0.31 0.02 0 0.315 0.02 0 0.32 0.02 0 0.325 0.02 0 0.33 0.02 0 0.335 0.02 0 0.34 0.02 0 0.345 0.02 0 0.35 0.02 0 0.355 0.02 0 0.36 0.02 0 0.365 0.02 0 0.37 0.02 0 0.375 0.02 0 0.38 0.02 0 0.385 0.02 0 0.39 0.02 0 0.395 0.02 0 0.4 0.02 0 0.405 0.02 0 0.41 0.02 0 0.415 0.02 0 0.42 0.02 0 0.425 0.02 0 0.43 0.02 0 0.435 0.02 0 0.44 0.02 0 0.445 0.02 0 0.45 0.02 0 0.455 0.02 0 0.46 0.02 0 0.465 0.02 0 0.47 0.02 0 0.475 0.02 0 0.48 0.02 0 0.485 0.02 0 0.49 0.02 0 0.495 0.02 0 0.5 0.02 0 0.505 0.02 0 0.51 0.02 0 0.515 0.02 0 0.52 0.02 0 0.525 0.02 0 0.53 0.02 0 0.535 0.02 0 0.54 0.02 0 0.545 0.02 0 0.55 0.02 0 0.555 0.02 0 0.56 0.02 0 0.565 0.02 0 0.57 0.02 0 0.575 0.02 0 0.58 0.02 0 0.585 0.02 0 0.59 0.02 0 0.595 0.02 0 0.6 0.02 0 0.605 0.02 0 0.61 0.02 0 0.615 0.02 0 0.62 0.02 0 0.625 0.02 0 0.63 0.02 0 0.635 0.02 0 0.64 0.02 0 0.645 0.02 0 0.65 0.02 0 0.655 0.02 0 0.66 0.02 0 0.665 0.02 0 0.67 0.02 0 0.675 0.02 0 0.68 0.02 0 0.685 0.02 0 0.69 0.02 0 0.695 0.02 0 0.7 0.02 0 0.705 0.02 0 0.71 0.02 0 0.715 0.02 0 0.72 0.02 0 0.725 0.02 0 0.73 0.02 0 0.735 0.02 0 0.74 0.02 0 0.745 0.02 0 0.75 0.02 0 0.755 0.02 0 0.76 0.02 0 0.765 0.02 0 0.77 0.02 0 0.775 0.02 0 0.78 0.02 0 0.785 0.02 0 0.79 0.02 0 0.795 0.02 0 0.8 0.02 0 0.805 0.02 0 0.81 0.02 0 0.815 0.02 0 0.82 0.02 0 0.825 0.02 0 0.83 0.02 0 0.835 0.02 0 0.84 0.02 0 0.845 0.02 0 0.85 0.02 0 0.855 0.02 0 0.86 0.02 0 0.865 0.02 0 0.87 0.02 0 0.875 0.02 0 0.88 0.02 0 0.885 0.02 0 0.89 0.02 0 0.895 0.02 0 0.9 0.02 0 0.905 0.02 0 0.91 0.02 0 0.915 0.02 0 0.92 0.02 0 0.925 0.02 0 0.93 0.02 0 0.935 0.02 0 0.94 0.02 0 0.945 0.02 0 0.95 0.02 0 0.955 0.02 0 0.96 0.02 0 0.965 0.02 0 0.97 0.02 0 0.975 0.02 0 0.98 0.02 0 0.985 0.02 0 0.99 0.02 0 0.995 0.02 0 1 0.02 0 0 0.04 0 0.005 0.04 0 0.01 0.04 0 0.015 0.04 0 0.02 0.04 0 0.025 0.04 0 0.03 0.04 0 0.035 0.04 0 0.04 0.04 0 0.045 0.04 0 0.05 0.04 0 0.055 0.04 0 0.06 0.04 0 0.065 0.04 0 0.07 0.04 0 0.075 0.04 0 0.08 0.04 0 0.085 0.04 0 0.09 0.04 0 0.095 0.04 0 0.1 0.04 0 0.105 0.04 0 0.11 0.04 0 0.115 0.04 0 0.12 0.04 0 0.125 0.04 0 0.13 0.04 0 0.135 0.04 0 0.14 0.04 0 0.145 0.04 0 0.15 0.04 0 0.155 0.04 0 0.16 0.04 0 0.165 0.04 0 0.17 0.04 0 0.175 0.04 0 0.18 0.04 0 0.185 0.04 0 0.19 0.04 0 0.195 0.04 0 0.2 0.04 0 0.205 0.04 0 0.21 0.04 0 0.215 0.04 0 0.22 0.04 0 0.225 0.04 0 0.23 0.04 0 0.235 0.04 0 0.24 0.04 0 0.245 0.04 0 0.25 0.04 0 0.255 0.04 0 0.26 0.04 0 0.265 0.04 0 0.27 0.04 0 0.275 0.04 0 0.28 0.04 0 0.285 0.04 0 0.29 0.04 0 0.295 0.04 0 0.3 0.04 0 0.305 0.04 0 0.31 0.04 0 0.315 0.04 0 0.32 0.04 0 0.325 0.04 0 0.33 0.04 0 0.335 0.04 0 0.34 0.04 0 0.345 0.04 0 0.35 0.04 0 0.355 0.04 0 0.36 0.04 0 0.365 0.04 0 0.37 0.04 0 0.375 0.04 0 0.38 0.04 0 0.385 0.04 0 0.39 0.04 0 0.395 0.04 0 0.4 0.04 0 0.405 0.04 0 0.41 0.04 0 0.415 0.04 0 0.42 0.04 0 0.425 0.04 0 0.43 0.04 0 0.435 0.04 0 0.44 0.04 0 0.445 0.04 0 0.45 0.04 0 0.455 0.04 0 0.46 0.04 0 0.465 0.04 0 0.47 0.04 0 0.475 0.04 0 0.48 0.04 0 0.485 0.04 0 0.49 0.04 0 0.495 0.04 0 0.5 0.04 0 0.505 0.04 0 0.51 0.04 0 0.515 0.04 0 0.52 0.04 0 0.525 0.04 0 0.53 0.04 0 0.535 0.04 0 0.54 0.04 0 0.545 0.04 0 0.55 0.04 0 0.555 0.04 0 0.56 0.04 0 0.565 0.04 0 0.57 0.04 0 0.575 0.04 0 0.58 0.04 0 0.585 0.04 0 0.59 0.04 0 0.595 0.04 0 0.6 0.04 0 0.605 0.04 0 0.61 0.04 0 0.615 0.04 0 0.62 0.04 0 0.625 0.04 0 0.63 0.04 0 0.635 0.04 0 0.64 0.04 0 0.645 0.04 0 0.65 0.04 0 0.655 0.04 0 0.66 0.04 0 0.665 0.04 0 0.67 0.04 0 0.675 0.04 0 0.68 0.04 0 0.685 0.04 0 0.69 0.04 0 0.695 0.04 0 0.7 0.04 0 0.705 0.04 0 0.71 0.04 0 0.715 0.04 0 0.72 0.04 0 0.725 0.04 0 0.73 0.04 0 0.735 0.04 0 0.74 0.04 0 0.745 0.04 0 0.75 0.04 0 0.755 0.04 0 0.76 0.04 0 0.765 0.04 0 0.77 0.04 0 0.775 0.04 0 0.78 0.04 0 0.785 0.04 0 0.79 0.04 0 0.795 0.04 0 0.8 0.04 0 0.805 0.04 0 0.81 0.04 0 0.815 0.04 0 0.82 0.04 0 0.825 0.04 0 0.83 0.04 0 0.835 0.04 0 0.84 0.04 0 0.845 0.04 0 0.85 0.04 0 0.855 0.04 0 0.86 0.04 0 0.865 0.04 0 0.87 0.04 0 0.875 0.04 0 0.88 0.04 0 0.885 0.04 0 0.89 0.04 0 0.895 0.04 0 0.9 0.04 0 0.905 0.04 0 0.91 0.04 0 0.915 0.04 0 0.92 0.04 0 0.925 0.04 0 0.93 0.04 0 0.935 0.04 0 0.94 0.04 0 0.945 0.04 0 0.95 0.04 0 0.955 0.04 0 0.96 0.04 0 0.965 0.04 0 0.97 0.04 0 0.975 0.04 0 0.98 0.04 0 0.985 0.04 0 0.99 0.04 0 0.995 0.04 0 1 0.04 0 0 0.06 0 0.005 0.06 0 0.01 0.06 0 0.015 0.06 0 0.02 0.06 0 0.025 0.06 0 0.03 0.06 0 0.035 0.06 0 0.04 0.06 0 0.045 0.06 0 0.05 0.06 0 0.055 0.06 0 0.06 0.06 0 0.065 0.06 0 0.07 0.06 0 0.075 0.06 0 0.08 0.06 0 0.085 0.06 0 0.09 0.06 0 0.095 0.06 0 0.1 0.06 0 0.105 0.06 0 0.11 0.06 0 0.115 0.06 0 0.12 0.06 0 0.125 0.06 0 0.13 0.06 0 0.135 0.06 0 0.14 0.06 0 0.145 0.06 0 0.15 0.06 0 0.155 0.06 0 0.16 0.06 0 0.165 0.06 0 0.17 0.06 0 0.175 0.06 0 0.18 0.06 0 0.185 0.06 0 0.19 0.06 0 0.195 0.06 0 0.2 0.06 0 0.205 0.06 0 0.21 0.06 0 0.215 0.06 0 0.22 0.06 0 0.225 0.06 0 0.23 0.06 0 0.235 0.06 0 0.24 0.06 0 0.245 0.06 0 0.25 0.06 0 0.255 0.06 0 0.26 0.06 0 0.265 0.06 0 0.27 0.06 0 0.275 0.06 0 0.28 0.06 0 0.285 0.06 0 0.29 0.06 0 0.295 0.06 0 0.3 0.06 0 0.305 0.06 0 0.31 0.06 0 0.315 0.06 0 0.32 0.06 0 0.325 0.06 0 0.33 0.06 0 0.335 0.06 0 0.34 0.06 0 0.345 0.06 0 0.35 0.06 0 0.355 0.06 0 0.36 0.06 0 0.365 0.06 0 0.37 0.06 0 0.375 0.06 0 0.38 0.06 0 0.385 0.06 0 0.39 0.06 0 0.395 0.06 0 0.4 0.06 0 0.405 0.06 0 0.41 0.06 0 0.415 0.06 0 0.42 0.06 0 0.425 0.06 0 0.43 0.06 0 0.435 0.06 0 0.44 0.06 0 0.445 0.06 0 0.45 0.06 0 0.455 0.06 0 0.46 0.06 0 0.465 0.06 0 0.47 0.06 0 0.475 0.06 0 0.48 0.06 0 0.485 0.06 0 0.49 0.06 0 0.495 0.06 0 0.5 0.06 0 0.505 0.06 0 0.51 0.06 0 0.515 0.06 0 0.52 0.06 0 0.525 0.06 0 0.53 0.06 0 0.535 0.06 0 0.54 0.06 0 0.545 0.06 0 0.55 0.06 0 0.555 0.06 0 0.56 0.06 0 0.565 0.06 0 0.57 0.06 0 0.575 0.06 0 0.58 0.06 0 0.585 0.06 0 0.59 0.06 0 0.595 0.06 0 0.6 0.06 0 0.605 0.06 0 0.61 0.06 0 0.615 0.06 0 0.62 0.06 0 0.625 0.06 0 0.63 0.06 0 0.635 0.06 0 0.64 0.06 0 0.645 0.06 0 0.65 0.06 0 0.655 0.06 0 0.66 0.06 0 0.665 0.06 0 0.67 0.06 0 0.675 0.06 0 0.68 0.06 0 0.685 0.06 0 0.69 0.06 0 0.695 0.06 0 0.7 0.06 0 0.705 0.06 0 0.71 0.06 0 0.715 0.06 0 0.72 0.06 0 0.725 0.06 0 0.73 0.06 0 0.735 0.06 0 0.74 0.06 0 0.745 0.06 0 0.75 0.06 0 0.755 0.06 0 0.76 0.06 0 0.765 0.06 0 0.77 0.06 0 0.775 0.06 0 0.78 0.06 0 0.785 0.06 0 0.79 0.06 0 0.795 0.06 0 0.8 0.06 0 0.805 0.06 0 0.81 0.06 0 0.815 0.06 0 0.82 0.06 0 0.825 0.06 0 0.83 0.06 0 0.835 0.06 0 0.84 0.06 0 0.845 0.06 0 0.85 0.06 0 0.855 0.06 0 0.86 0.06 0 0.865 0.06 0 0.87 0.06 0 0.875 0.06 0 0.88 0.06 0 0.885 0.06 0 0.89 0.06 0 0.895 0.06 0 0.9 0.06 0 0.905 0.06 0 0.91 0.06 0 0.915 0.06 0 0.92 0.06 0 0.925 0.06 0 0.93 0.06 0 0.935 0.06 0 0.94 0.06 0 0.945 0.06 0 0.95 0.06 0 0.955 0.06 0 0.96 0.06 0 0.965 0.06 0 0.97 0.06 0 0.975 0.06 0 0.98 0.06 0 0.985 0.06 0 0.99 0.06 0 0.995 0.06 0 1 0.06 0 0 0.08 0 0.005 0.08 0 0.01 0.08 0 0.015 0.08 0 0.02 0.08 0 0.025 0.08 0 0.03 0.08 0 0.035 0.08 0 0.04 0.08 0 0.045 0.08 0 0.05 0.08 0 0.055 0.08 0 0.06 0.08 0 0.065 0.08 0 0.07 0.08 0 0.075 0.08 0 0.08 0.08 0 0.085 0.08 0 0.09 0.08 0 0.095 0.08 0 0.1 0.08 0 0.105 0.08 0 0.11 0.08 0 0.115 0.08 0 0.12 0.08 0 0.125 0.08 0 0.13 0.08 0 0.135 0.08 0 0.14 0.08 0 0.145 0.08 0 0.15 0.08 0 0.155 0.08 0 0.16 0.08 0 0.165 0.08 0
[...]
			<PointData Scalars="VitesseX">
				<DataArray Name="VitesseX" type="Float32" format="ascii">
 0 -1.85708e-14 9.38498e-15 -5.89011e-14 -9.76463e-15 2.9533e-15 -2.31185e-14 -1.02437e-13 -3.57904e-14 -8.987e-14 -8.64867e-14 -1.5705e-14 -1.35885e-13 2.99125e-14 -1.06396e-13 -9.2575e-14 -1.1026e-13 -1.7322e-13 3.05274e-14 -3.6246e-14 -9.28503e-14 1.54837e-14 2.01827e-14 9.17886e-14 -2.56576e-13 -2.89122e-14 5.45736e-14 -1.5739e-13 -2.77486e-13 1.5085e-13 -4.07526e-14 6.55265e-15 -1.85496e-13 7.51564e-14 -9.00112e-14 -4.27294e-13 -1.92842e-13 1.92893e-13 -3.05995e-13 8.14807e-14 -4.62463e-13 3.10987e-14 -4.17596e-13 -1.99574e-14 -2.7723e-13 -1.01251e-13 -5.67715e-14 8.94815e-14 -2.98712e-13 6.86462e-14 -2.39515e-13 4.27011e-13 -9.4641e-14 -4.24611e-13 -5.24126e-13 -3.30299e-14 -2.95188e-13 2.55426e-14 -1.10953e-13 1.32062e-13 1.45534e-13 -1.66847e-14 1.08999e-13 5.97386e-13 4.96949e-12 4.58974e-11 3.91065e-10 3.05096e-09 2.19869e-08 1.45684e-07 8.83083e-07 4.86784e-06 2.42307e-05 0.000108004 0.000426758 0.00147756 0.0044284 0.011378 0.0250116 0.0473542 0.0784328 0.116323 0.158493 0.202961 0.248476 0.29443 0.3404 0.386218 0.431762 0.476929 0.521612 0.565693 0.609045 0.651521 0.692958 0.733177 0.771993 0.80923 0.844757 0.878574 0.911014 0.942468 0.942975 0.941987 0.940032 0.937928 0.935942 0.934213 0.932664 0.931466 0.930428 0.929501 0.929265 0.92848 0.929222 0.915728 0.935156 0.925639 0.92928 0.929504 0.930177 0.930057 0.929596 0.928944 0.928743 0.930251 0.93123 0.930447 0.923367 0.901142 0.85211 0.770341 0.656498 0.518694 0.372332 0.237061 0.131107 0.0625741 0.0263773 0.0102948 0.00385397 0.00141096 0.000509323 0.000181762 6.41551e-05 2.23877e-05 7.719e-06 2.62777e-06 8.82689e-07 2.92398e-07 9.54713e-08 3.07118e-08 9.7305e-09 3.03505e-09 9.31824e-10 2.81449e-10 8.36314e-11 2.43395e-11 6.27174e-12 1.80795e-12 1.06932e-14 -1.19101e-13 -1.1561e-13 -3.05575e-13 -3.09893e-13 4.06786e-13 -9.71289e-13 8.98978e-14 -3.98578e-13 1.2099e-12 -6.59834e-13 1.57634e-13 -3.6188e-13 -4.32781e-13 5.46316e-14 -5.32519e-13 3.53241e-13 -2.03748e-13 -7.52508e-13 1.09936e-12 -1.33017e-13 -5.9832e-13 1.24817e-12 -1.02745e-12 5.17984e-13 -4.96919e-13 -5.03614e-13 -4.08905e-13 -1.95873e-13 1.69477e-13 -2.38453e-13 -1.47102e-12 1.37258e-12 -6.57768e-13 -3.37893e-13 -2.32785e-13 1.02469e-12 2.84079e-13 9.24869e-14 -4.98521e-13 0 0 4.19788e-15 -4.05849e-14 2.05991e-14 -5.50046e-14 -4.20757e-14 -2.19203e-14 1.37612e-14 -7.57657e-14 8.47522e-15 -5.96234e-14 -9.39394e-14 2.98957e-14 -1.61694e-13 -5.3588e-14 -6.84015e-14 -1.19059e-13 -5.43288e-14 -9.63493e-14 -3.52851e-14 -3.6846e-14 2.8927e-14 -1.19109e-14 -2.83718e-13 9.28651e-14 -9.33819e-14 -1.83129e-13 -9.24125e-14 -2.05419e-14 -1.33688e-13 5.61049e-14 -4.91102e-14 6.3757e-14 -2.20346e-13 -3.02479e-13 2.40011e-15 6.38538e-14 -3.8516e-13 1.66849e-13 -4.17135e-13 -1.10551e-13 -4.34657e-13 4.13434e-14 -2.73524e-13 1.07707e-14 -1.07615e-13 6.78357e-14 -4.61716e-13 4.31492e-13 1.11049e-13 2.17867e-13 -1.55827e-13 -4.32091e-13 -1.88581e-14 -1.39342e-13 -3.68567e-13 -1.49475e-13 -3.03294e-13 9.17335e-14 -6.34034e-14 7.31685e-14 1.71078e-13 1.44836e-13 3.95882e-13 4.94091e-12 4.64791e-11 3.90886e-10 3.05139e-09 2.19863e-08 1.45685e-07 8.83083e-07 4.86784e-06 2.42307e-05 0.000108004 0.000426758 0.00147756 0.0044284 0.011378 0.0250116 0.0473542 0.0784328 0.116323 0.158493 0.202961 0.248476 0.29443 0.3404 0.386218 0.431762 0.476929 0.521612 0.565693 0.609045 0.651521 0.692958 0.733177 0.771993 0.80923 0.844757 0.878574 0.911014 0.942468 0.942975 0.941987 0.940032 0.937928 0.935942 0.934213 0.932664 0.931466 0.930428 0.929501 0.929265 0.92848 0.929222 0.915728 0.935156 0.925639 0.92928 0.929504 0.930177 0.930057 0.929596 0.928944 0.928743 0.930251 0.93123 0.930447 0.923367 0.901142 0.85211 0.770341 0.656498 0.518694 0.372332 0.237061 0.131107 0.0625741 0.0263773 0.0102948 0.00385397 0.00141096 0.000509323 0.000181762 6.41551e-05 2.23877e-05 7.719e-06 2.62777e-06 8.8269e-07 2.92399e-07 9.54705e-08 3.07122e-08 9.73035e-09 3.0353e-09 9.3186e-10 2.81498e-10 8.32694e-11 2.41003e-11 7.16959e-12 1.37024e-12 5.91111e-14 -2.70082e-13 -2.73967e-13 -1.97762e-13 -2.40343e-13 -6.41585e-13 2.54878e-13 -1.07525e-13 2.82648e-13 -4.08307e-13 3.27058e-13 -3.95822e-13 8.95628e-15 -1.01307e-13 -2.47117e-13 -4.78139e-14 -7.68741e-13 4.20397e-14 5.56141e-13 -5.71226e-13 7.29551e-14 5.25526e-13 -5.40486e-13 6.61609e-13 -2.51397e-13 -2.61648e-13 -1.61699e-13 -1.68471e-13 -2.84852e-13 -6.28578e-13 -1.19893e-13 3.50932e-13 -1.19259e-12 2.24362e-13 2.74443e-13 5.59664e-13 -4.77179e-13 -4.18296e-16 7.67772e-13 2.80474e-13 0 0 2.08484e-15 1.15121e-14 -2.65374e-14 3.82884e-14 -1.88571e-14 9.29859e-15 -7.56772e-14 8.27305e-15 2.03305e-14 5.93992e-15 -1.62037e-14 -7.08981e-14 -2.87035e-14 -1.68341e-13 -1.50646e-13 -1.02454e-13 -1.45977e-13 1.64295e-14 -4.96616e-14 -9.31624e-14 -1.3278e-13 -2.20525e-13 2.45696e-14 -1.41594e-13 -8.97121e-14 -7.74599e-14 -4.55064e-14 -2.40446e-13 1.06023e-13 -5.32107e-14 -4.26268e-14 -1.10831e-13 6.50145e-14 -8.67602e-14 -2.30708e-13 -2.11326e-13 8.69157e-16 -2.92064e-13 -4.69373e-15 -1.13582e-13 -1.9093e-13 -1.35481e-13 -2.26336e-14 1.54275e-14 -6.69546e-14 -4.24343e-13 4.29611e-13 -3.37205e-13 4.57165e-14 -1.86241e-13 1.2366e-13 1.88183e-13 -2.70383e-13 -7.24071e-14 -6.5741e-14 -3.33257e-13 -3.64234e-13 -1.81824e-17 2.35785e-14 1.1396e-13 -1.18754e-13 3.75275e-14 4.57079e-13 5.33218e-12 4.67488e-11 3.91354e-10 3.05104e-09 2.19867e-08 1.45685e-07 8.83083e-07 4.86784e-06 2.42307e-05 0.000108004 0.000426758 0.00147756 0.0044284 0.011378 0.0250116 0.0473542 0.0784328 0.116323 0.158493 0.202961 0.248476 0.29443 0.3404 0.386218 0.431762 0.476929 0.521612 0.565693 0.609045 0.651521 0.692958 0.733177 0.771993 0.80923 0.844757 0.878574 0.911014 0.942468 0.942975 0.941987 0.940032 0.937928 0.935942 0.934213 0.932664 0.931466 0.930428 0.929501 0.929265 0.92848 0.929222 0.915728 0.935156 0.925639 0.92928 0.929504 0.930177 0.930057 0.929596 0.928944 0.928743 0.930251 0.93123 0.930447 0.923367 0.901142 0.85211 0.770341 0.656498 0.518694 0.372332 0.237061 0.131107 0.0625741 0.0263773 0.0102948 0.00385397 0.00141096 0.000509323 0.000181762 6.41551e-05 2.23877e-05 7.719e-06 2.62777e-06 8.82689e-07 2.92398e-07 9.54709e-08 3.0712e-08 9.73047e-09 3.03537e-09 9.32054e-10 2.81289e-10 8.36819e-11 2.40869e-11 6.61187e-12 1.91625e-12 -1.11851e-13 -1.62829e-14 -3.83578e-13 -2.43149e-13 -3.54244e-13 -2.29823e-13 -7.52591e-13 5.63527e-13 -2.77914e-13 -1.36736e-13 -2.54101e-13 2.41219e-13 -1.19557e-13 -2.81511e-13 -3.1807e-13 -3.14272e-13 -1.91956e-13 -5.40077e-13 3.8606e-13 -2.30336e-13 1.53275e-13 3.9551e-13 -4.14159e-13 -5.70503e-14 2.24177e-13 -2.39211e-13 2.23084e-13 -5.61991e-13 -2.68511e-13 4.19233e-14 8.3255e-14 -5.64782e-13 2.31078e-13 1.39483e-13 4.98247e-13 2.73728e-13 -2.17132e-13 -2.54752e-13 -1.47818e-13 1.36283e-13 0 0 -8.19072e-16 -1.72611e-15 -5.97457e-15 2.16701e-14 5.99379e-14 4.74196e-14 1.06841e-14 1.37229e-14 -2.39298e-14 -4.08457e-14 -1.47475e-14 -4.69371e-14 -8.56218e-14 -1.54031e-13 -9.03711e-14 -1.56706e-13 -1.66503e-13 -1.2562e-13 -1.45841e-13 -2.17409e-13 -1.57055e-13 2.57298e-14 -2.98105e-14 -9.20143e-14 -7.69666e-14 -6.31455e-14 -1.36294e-13 -1.48377e-13 4.7021e-16 1.36674e-13 3.71397e-14 -1.24898e-13 -9.30833e-14 -6.04447e-14 -1.75133e-13 -2.22449e-13 9.11651e-15 -1.29664e-13 -7.47854e-14 -1.83011e-13 -5.58659e-14 -6.44853e-14 4.9189e-14 -6.99425e-14 3.35464e-14 -7.72035e-14 -3.74346e-14 -2.96302e-13 -4.44218e-13 -2.1026e-13 1.26399e-13 1.15709e-13 -1.12854e-13 -4.38377e-13 2.10686e-13 -1.90881e-13 -3.56964e-13 -1.05752e-13 -1.17836e-13 1.22275e-14 6.03248e-14 1.95573e-13 7.67669e-13 5.2473e-12 4.67291e-11 3.9143e-10 3.05105e-09 2.19866e-08 1.45684e-07 8.83083e-07 4.86784e-06 2.42307e-05 0.000108004 0.000426758 0.00147756 0.0044284 0.011378 0.0250116 0.0473542 0.0784328 0.116323 0.158493 0.202961 0.248476 0.29443 0.3404 0.386218 0.431762 0.476929 0.521612 0.565693 0.609045 0.651521 0.692958 0.733177 0.771993 0.80923 0.844757 0.878574 0.911014 0.942468 0.942975 0.941987 0.940032 0.937928 0.935942 0.934213 0.932664 0.931466 0.930428 0.929501 0.929265 0.92848 0.929222 0.915728 0.935156 0.925639 0.92928 0.929504 0.930177 0.930057 0.929596 0.928944 0.928743 0.930251 0.93123 0.930447 0.923367 0.901142 0.85211 0.770341 0.656498 0.518694 0.372332 0.237061 0.131107 0.0625741 0.0263773 0.0102948 0.00385397 0.00141096 0.000509323 0.000181762 6.41551e-05 2.23877e-05 7.719e-06 2.62777e-06 8.82689e-07 2.92398e-07 9.54712e-08 3.07122e-08 9.7307e-09 3.03538e-09 9.32014e-10 2.81735e-10 8.35611e-11 2.44088e-11 6.16658e-12 1.64512e-12 5.19829e-13 2.07202e-13 -4.45765e-13 7.8528e-14 -3.19298e-13 -7.50808e-13 -2.27349e-13 -5.39311e-14 -8.61716e-14 -2.94859e-13 1.09792e-13 -3.31198e-13 -3.25884e-13 -4.84528e-13 -4.72473e-13 -2.21911e-13 4.87049e-13 7.60981e-14 -1.10165e-12 1.34929e-13 -2.0986e-13 -1.05405e-13 6.99497e-13 -7.24718e-13 5.29459e-13 -5.36011e-13 -1.58345e-13 -2.7657e-13 3.18478e-13 -2.94506e-13 -1.10644e-13 -2.79324e-13 7.47334e-13 2.30669e-13 1.99015e-13 -4.20376e-13 3.01235e-13 3.64235e-13 -1.04204e-12 -4.64201e-13 0 0 7.07469e-15 -2.52708e-14 6.92948e-14 -2.20543e-14 3.51196e-14 2.94629e-14 1.13829e-13 -1.79002e-14 4.99203e-14 -7.23954e-14 -9.50092e-14 5.46184e-14 -2.17923e-13 -1.4735e-13 -6.92463e-14 -2.04543e-13 -1.08003e-13 -1.53225e-13 -1.46645e-13 -1.53971e-13 -6.76583e-16 6.47247e-14 -2.76686e-13 1.53722e-13 -3.31778e-14 -1.37163e-13 -9.66915e-14 8.31433e-14 -2.72841e-13 8.40027e-14 -1.31882e-13 -2.44351e-14 -3.19125e-13 -1.81161e-13 1.83298e-13 8.36473e-14 -3.24372e-13 1.04317e-13 -4.27014e-13 -6.23267e-14 -4.61835e-13 1.85663e-13 -1.81563e-13 3.32622e-14 -8.7669e-14 1.59432e-13 -6.94548e-13 5.29825e-13 -1.93366e-13 2.3164e-13 -4.41286e-13 -5.97863e-13 2.61025e-13 -3.0969e-13 -3.87852e-13 -1.22817e-13 -3.56479e-13 1.32638e-13 -4.41986e-14 -3.33814e-14 3.74622e-13 2.15706e-13 7.56196e-13 5.05738e-12 4.67078e-11 3.91272e-10 3.05141e-09 2.19863e-08 1.45685e-07 8.83083e-07 4.86784e-06 2.42307e-05 0.000108004 0.000426758 0.00147756 0.0044284 0.011378 0.0250116 0.0473542 0.0784328 0.116323 0.158493 0.202961 0.248476 0.29443 0.3404 0.386218 0.431762 0.476929 0.521612 0.565693 0.609045 0.651521 0.692958 0.733177 0.771993 0.80923 0.844757 0.878574 0.911014 0.942468 0.942975 0.941987 0.940032 0.937928 0.935942 0.934213 0.932664 0.931466 0.930428 0.929501 0.929265 0.92848 0.929222 0.915728 0.935156 0.925639 0.92928 0.929504 0.930177 0.930057 0.929596 0.928944 0.928743 0.930251 0.93123 0.930447 0.923367 0.901142 0.85211 0.770341 0.656498 0.518694 0.372332 0.237061 0.131107 0.0625741 0.0263773 0.0102948 0.00385397 0.00141096 0.000509323 0.000181762 6.41551e-05 2.23877e-05 7.719e-06 2.62777e-06 8.8269e-07 2.92399e-07 9.54704e-08 3.07127e-08 9.73031e-09 3.03557e-09 9.32092e-10 2.81911e-10 8.34999e-11 2.41444e-11 7.32773e-12 1.2311e-12 4.26837e-13 -1.53553e-13 -4.24798e-13 6.60235e-14 -2.34377e-13 -4.74251e-13 5.04808e-13 -7.18086e-13 2.20952e-13 -1.12586e-12 6.23897e-13 -1.13727e-12 -2.17498e-13 -1.96805e-13 -3.59367e-13 -2.1391e-14 -3.99452e-13 3.83698e-13 -4.49468e-13 -4.53984e-13 -1.94265e-13 -1.2479e-14 2.46272e-14 3.65035e-13 -7.45691e-14 -2.70719e-13 -2.06064e-13 2.16579e-13 2.66088e-13 -9.29639e-13 -2.65519e-13 7.54645e-13 -1.05211e-12 8.07485e-13 3.01882e-13 2.84132e-13 -3.48835e-13 2.22294e-13 1.99713e-14 -6.73718e-14 0 0 -7.00939e-15 6.64896e-14 -2.63529e-15 8.93727e-14 -2.46041e-16 3.4058e-15 -7.50236e-14 6.90409e-14 8.15408e-14 -1.84592e-14 -2.07569e-14 -1.34362e-13 3.12906e-14 -3.22542e-13 -2.14814e-13 -1.72724e-13 -2.39518e-13 2.00875e-13 -6.6606e-14 -7.86059e-14 4.8279e-15 -3.19056e-13 2.14612e-13 -2.34021e-13 6.60051e-14 1.17877e-13 1.56266e-14 -2.54253e-13 8.36481e-14 -3.64727e-13 -3.18523e-13 -3.33746e-13 1.93795e-13 9.99939e-14 -1.76648e-13 -1.31009e-13 2.97976e-13 -7.5586e-13 2.01905e-13 -2.27156e-13 -2.93384e-13 -2.7095e-13 2.03189e-14 -6.15067e-14 -2.62361e-13 -5.67857e-13 5.57909e-13 -1.83854e-13 4.39685e-13 -1.63931e-13 -1.49384e-13 -2.81238e-13 -1.79903e-13 -1.32883e-13 -6.24452e-13 -5.26624e-13 -9.53675e-14 1.82325e-13 4.53301e-13 1.359e-13 3.22441e-14 -6.53537e-14 6.96835e-13 5.37219e-12 4.63942e-11 3.91685e-10 3.05099e-09 2.19871e-08 1.45685e-07 8.83083e-07 4.86784e-06 2.42307e-05 0.000108004 0.000426758 0.00147756 0.0044284 0.011378 0.0250116 0.0473542 0.0784328 0.116323 0.158493 0.202961 0.248476 0.29443 0.3404 0.386218 0.431762 0.476929 0.521612 0.565693 0.609045 0.651521 0.692958 0.733177 0.771993 0.80923 0.844757 0.878574 0.911014 0.942468 0.942975 0.941987 0.940032 0.937928 0.935942 0.934213 0.932664 0.931466 0.930428 0.929501 0.929265 0.92848 0.929222 0.915728 0.935156 0.925639 0.92928 0.929504 0.930177 0.930057 0.929596 0.928944 0.928743 0.930251 0.93123 0.930447 0.923367 0.901142 0.85211 0.770341 0.656498 0.518694 0.372332 0.237061 0.131107 0.0625741 0.0263773 0.0102948 0.00385397 0.00141096 0.000509323 0.000181762 6.41551e-05 2.23877e-05 7.719e-06 2.62777e-06 8.82689e-07 2.92399e-07 9.54704e-08 3.07122e-08 9.72997e-09 3.03558e-09 9.32368e-10 2.81384e-10 8.43341e-11 2.37838e-11 7.47857e-12 2.07192e-12 -5.17215e-13 -3.33015e-13 -2.92898e-13 -4.21358e-13 -3.67852e-13 1.78342e-12 -1.52191e-12 1.03692e-13 -9.05454e-13 9.10371e-14 -7.93941e-13 -1.8042e-13 -4.02136e-13 -2.17743e-13 1.38937e-13 -6.64396e-13 -2.6619e-13 -7.52783e-13 2.11694e-13 6.03315e-13 5.88151e-14 -6.725e-13 1.51082e-13 -2.85261e-13 2.61076e-13 7.85393e-14 1.70514e-13 -2.09645e-13 -2.6797e-13 2.40212e-13 -1.41908e-13 -1.23451e-12 6.21018e-13 3.26106e-13 3.15448e-13 6.04359e-13 2.44642e-13 -5.08471e-13 3.85323e-13 6.75306e-15 0
				</DataArray>
				<DataArray Name="VitesseY" type="Float32" format="ascii">