<?xml version="1.0"?>
<VTKFile type="PolyData">
	<PolyData>
		<Piece NumberOfPoints="1206" NumberOfPolys="1000">
			<Points>
				<DataArray type="Float32" NumberOfComponents="3" format="ascii">
 0 0 0 0.005 0 0 0.01 0 0 0.015 0 0 0.02 0 0 0.025 0 0 0.03 0 0 0.035 0 0 0.04 0 0 0.045 0 0 0.05 0 0 0.055 0 0 0.06 0 0 0.065 0 0 0.07 0 0 0.075 0 0 0.08 0 0 0.085 0 0 0.09 0 0 0.095 0 0 0.1 0 0 0.105 0 0 0.11 0 0 0.115 0 0 0.12 0 0 0.125 0 0 0.13 0 0 0.135 0 0 0.14 0 0 0.145 0 0 0.15 0 0 0.155 0 0 0.16 0 0 0.165 0 0 0.17 0 0 0.175 0 0 0.18 0 0 0.185 0 0 0.19 0 0 0.195 0 0 0.2 0 0 0.205 0 0 0.21 0 0 0.215 0 0 0.22 0 0 0.225 0 0 0.23 0 0 0.235 0 0 0.24 0 0 0.245 0 0 0.25 0 0 0.255 0 0 0.26 0 0 0.265 0 0 0.27 0 0 0.275 0 0 0.28 0 0 0.285 0 0 0.29 0 0 0.295 0 0 0.3 0 0 0.305 0 0 0.31 0 0 0.315 0 0 0.32 0 0 0.325 0 0 0.33 0 0 0.335 0 0 0.34 0 0 0.345 0 0 0.35 0 0 0.355 0 0 0.36 0 0 0.365 0 0 0.37 0 0 0.375 0 0 0.38 0 0 0.385 0 0 0.39 0 0 0.395 0 0 0.4 0 0 0.405 0 0 0.41 0 0 0.415 0 0 0.42 0 0 0.425 0 0 0.43 0 0 0.435 0 0 0.44 0 0 0.445 0 0 0.45 0 0 0.455 0 0 0.46 0 0 0.465 0 0 0.47 0 0 0.475 0 0 0.48 0 0 0.485 0 0 0.49 0 0 0.495 0 0 0.5 0 0 0.505 0 0 0.51 0 0 0.515 0 0 0.52 0 0 0.525 0 0 0.53 0 0 0.535 0 0 0.54 0 0 0.545 0 0 0.55 0 0 0.555 0 0 0.56 0 0 0.565 0 0 0.57 0 0 0.575 0 0 0.58 0 0 0.585 0 0 0.59 0 0 0.595 0 0 0.6 0 0 0.605 0 0 0.61 0 0 0.615 0 0 0.62 0 0 0.625 0 0 0.63 0 0 0.635 0 0 0.64 0 0 0.645 0 0 0.65 0 0 0.655 0 0 0.66 0 0 0.665 0 0 0.67 0 0 0.675 0 0 0.68 0 0 0.685 0 0 0.69 0 0 0.695 0 0 0.7 0 0 0.705 0 0 0.71 0 0 0.715 0 0 0.72 0 0 0.725 0 0 0.73 0 0 0.735 0 0 0.74 0 0 0.745 0 0 0.75 0 0 0.755 0 0 0.76 0 0 0.765 0 0 0.77 0 0 0.775 0 0 0.78 0 0 0.785 0 0 0.79 0 0 0.795 0 0 0.8 0 0 0.805 0 0 0.81 0 0 0.815 0 0 0.82 0 0 0.825 0 0 0.83 0 0 0.835 0 0 0.84 0 0 0.845 0 0 0.85 0 0 0.855 0 0 0.86 0 0 0.865 0 0 0.87 0 0 0.875 0 0 0.88 0 0 0.885 0 0 0.89 0 0 0.895 0 0 0.9 0 0 0.905 0 0 0.91 0 0 0.915 0 0 0.92 0 0 0.925 0 0 0.93 0 0 0.935 0 0 0.94 0 0 0.945 0 0 0.95 0 0 0.955 0 0 0.96 0 0 0.965 0 0 0.97 0 0 0.975 0 0 0.98 0 0 0.985 0 0 0.99 0 0 0.995 0 0 1 0 0 0 0.02 0 0.005 0.02 0 0.01 0.02 0 0.015 0.02 0 0.02 0.02 0 0.025 0.02 0 0.03 0.02 0 0.035 0.02 0 0.04 0.02 0 0.045 0.02 0 0.05 0.02 0 0.055 0.02 0 0.06 0.02 0 0.065 0.02 0 0.07 0.02 0 0.075 0.02 0 0.08 0.02 0 0.085 0.02 0 0.09 0.02 0 0.095 0.02 0 0.1 0.02 0 0.105 0.02 0 0.11 0.02 0 0.115 0.02 0 0.12 0.02 0 0.125 0.02 0 0.13 0.02 0 0.135 0.02 0 0.14 0.02 0 0.145 0.02 0 0.15 0.02 0 0.155 0.02 0 0.16 0.02 0 0.165 0.02 0 0.17 0.02 0 0.175 0.02 0 0.18 0.02 0 0.185 0.02 0 0.19 0.02 0 0.195 0.02 0 0.2 0.02 0 0.205 0.02 0 0.21 0.02 0 0.215 0.02 0 0.22 0.02 0 0.225 0.02 0 0.23 0.02 0 0.235 0.02 0 0.24 0.02 0 0.245 0.02 0 0.25 0.02 0 0.255 0.02 0 0.26 0.02 0 0.265 0.02 0 0.27 0.02 0 0.275 0.02 0 0.28 0.02 0 0.285 0.02 0 0.29 0.02 0 0.295 0.02 0 0.3 0.02 0 0.305 0.02 0 0.31 0.02 0 0.315 0.02 0 0.32 0.02 0 0.325 0.02 0 0.33 0.02 0 0.335 0.02 0 0.34 0.02 0 0.345 0.02 0 0.35 0.02 0 0.355 0.02 0 0.36 0.02 0 0.365 0.02 0 0.37 0.02 0 0.375 0.02 0 0.38 0.02 0 0.385 0.02 0 0.39 0.02 0 0.395 0.02 0 0.4 0.02 0 0.405 0.02 0 0.41 0.02 0 0.415 0.02 0 0.42 0.02 0 0.425 0.02 0 0.43 0.02 0 0.435 0.02 0 0.44 0.02 0 0.445 0.02 0 0.45 0.02 0 0.455 0.02 0 0.46 0.02 0 0.465 0.02 0 0.47 0.02 0 0.475 0.02 0 0.48 0.02 0 0.485 0.02 0 0.49 0.02 0 0.495 0.02 0 0.5 0.02 0 0.505 0.02 0 0.51 0.02 0 0.515 0.02 0 0.52 0.02 0 0.525 0.02 0 0.53 0.02 0 0.535 0.02 0 0.54 0.02 0 0.545 0.02 0 0.55 0.02 0 0.555 0.02 0 0.56 0.02 0 0.565 0.02 0 0.57 0.02 0 0.575 0.02 0 0.58 0.02 0 0.585 0.02 0 0.59 0.02 0 0.595 0.02 0 0.6 0.02 0 0.605 0.02 0 0.61 0.02 0 0.615 0.02 0 0.62 0.02 0 0.625 0.02 0 0.63 0.02 0 0.635 0.02 0 0.64 0.02 0 0.645 0.02 0 0.65 0.02 0 0.655 0.02 0 0.66 0.02 0 0.665 0.02 0 0.67 0.02 0 0.675 0.02 0 0.68 0.02 0 0.685 0.02 0 0.69 0.02 0 0.695 0.02 0 0.7 0.02 0 0.705 0.02 0 0.71 0.02 0 0.715 0.02 0 0.72 0.02 0 0.725 0.02 0 0.73 0.02 0 0.735 0.02 0 0.74 0.02 0 0.745 0.02 0 0.75 0.02 0 0.755 0.02 0 0.76 0.02 0 0.765 0.02 0 0.77 0.02 0 0.775 0.02 0 0.78 0.02 0 0.785 0.02 0 0.79 0.02 0 0.795 0.02 0 0.8 0.02 0 0.805 0.02 0 0.81 0.02 0 0.815 0.02 0 0.82 0.02 0 0.825 0.02 0 0.83 0.02 0 0.835 0.02 0 0.84 0.02 0 0.845 0.02 0 0.85 0.02 0 0.855 0.02 0 0.86 0.02 0 0.865 0.02 0 0.87 0.02 0 0.875 0.02 0 0.88 0.02 0 0.885 0.02 0 0.89 0.02 0 0.895 0.02 0 0.9 0.02 0 0.905 0.02 0 0.91 0.02 0 0.915 0.02 0 0.92 0.02 0 0.925 0.02 0 0.93 0.02 0 0.935 0.02 0 0.94 0.02 0 0.945 0.02 0 0.95 0.02 0 0.955 0.02 0 0.96 0.02 0 0.965 0.02 0 0.97 0.02 0 0.975 0.02 0 0.98 0.02 0 0.985 0.02 0 0.99 0.02 0 0.995 0.02 0 1 0.02 0 0 0.04 0 0.005 0.04 0 0.01 0.04 0 0.015 0.04 0 0.02 0.04 0 0.025 0.04 0 0.03 0.04 0 0.035 0.04 0 0.04 0.04 0 0.045 0.04 0 0.05 0.04 0 0.055 0.04 0 0.06 0.04 0 0.065 0.04 0 0.07 0.04 0 0.075 0.04 0 0.08 0.04 0 0.085 0.04 0 0.09 0.04 0 0.095 0.04 0 0.1 0.04 0 0.105 0.04 0 0.11 0.04 0 0.115 0.04 0 0.12 0.04 0 0.125 0.04 0 0.13 0.04 0 0.135 0.04 0 0.14 0.04 0 0.145 0.04 0 0.15 0.04 0 0.155 0.04 0 0.16 0.04 0 0.165 0.04 0 0.17 0.04 0 0.175 0.04 0 0.18 0.04 0 0.185 0.04 0 0.19 0.04 0 0.195 0.04 0 0.2 0.04 0 0.205 0.04 0 0.21 0.04 0 0.215 0.04 0 0.22 0.04 0 0.225 0.04 0 0.23 0.04 0 0.235 0.04 0 0.24 0.04 0 0.245 0.04 0 0.25 0.04 0 0.255 0.04 0 0.26 0.04 0 0.265 0.04 0 0.27 0.04 0 0.275 0.04 0 0.28 0.04 0 0.285 0.04 0 0.29 0.04 0 0.295 0.04 0 0.3 0.04 0 0.305 0.04 0 0.31 0.04 0 0.315 0.04 0 0.32 0.04 0 0.325 0.04 0 0.33 0.04 0 0.335 0.04 0 0.34 0.04 0 0.345 0.04 0 0.35 0.04 0 0.355 0.04 0 0.36 0.04 0 0.365 0.04 0 0.37 0.04 0 0.375 0.04 0 0.38 0.04 0 0.385 0.04 0 0.39 0.04 0 0.395 0.04 0 0.4 0.04 0 0.405 0.04 0 0.41 0.04 0 0.415 0.04 0 0.42 0.04 0 0.425 0.04 0 0.43 0.04 0 0.435 0.04 0 0.44 0.04 0 0.445 0.04 0 0.45 0.04 0 0.455 0.04 0 0.46 0.04 0 0.465 0.04 0 0.47 0.04 0 0.475 0.04 0 0.48 0.04 0 0.485 0.04 0 0.49 0.04 0 0.495 0.04 0 0.5 0.04 0 0.505 0.04 0 0.51 0.04 0 0.515 0.04 0 0.52 0.04 0 0.525 0.04 0 0.53 0.04 0 0.535 0.04 0 0.54 0.04 0 0.545 0.04 0 0.55 0.04 0 0.555 0.04 0 0.56 0.04 0 0.565 0.04 0 0.57 0.04 0 0.575 0.04 0 0.58 0.04 0 0.585 0.04 0 0.59 0.04 0 0.595 0.04 0 0.6 0.04 0 0.605 0.04 0 0.61 0.04 0 0.615 0.04 0 0.62 0.04 0 0.625 0.04 0 0.63 0.04 0 0.635 0.04 0 0.64 0.04 0 0.645 0.04 0 0.65 0.04 0 0.655 0.04 0 0.66 0.04 0 0.665 0.04 0 0.67 0.04 0 0.675 0.04 0 0.68 0.04 0 0.685 0.04 0 0.69 0.04 0 0.695 0.04 0 0.7 0.04 0 0.705 0.04 0 0.71 0.04 0 0.715 0.04 0 0.72 0.04 0 0.725 0.04 0 0.73 0.04 0 0.735 0.04 0 0.74 0.04 0 0.745 0.04 0 0.75 0.04 0 0.755 0.04 0 0.76 0.04 0 0.765 0.04 0 0.77 0.04 0 0.775 0.04 0 0.78 0.04 0 0.785 0.04 0 0.79 0.04 0 0.795 0.04 0 0.8 0.04 0 0.805 0.04 0 0.81 0.04 0 0.815 0.04 0 0.82 0.04 0 0.825 0.04 0 0.83 0.04 0 0.835 0.04 0 0.84 0.04 0 0.845 0.04 0 0.85 0.04 0 0.855 0.04 0 0.86 0.04 0 0.865 0.04 0 0.87 0.04 0 0.875 0.04 0 0.88 0.04 0 0.885 0.04 0 0.89 0.04 0 0.895 0.04 0 0.9 0.04 0 0.905 0.04 0 0.91 0.04 0 0.915 0.04 0 0.92 0.04 0 0.925 0.04 0 0.93 0.04 0 0.935 0.04 0 0.94 0.04 0 0.945 0.04 0 0.95 0.04 0 0.955 0.04 0 0.96 0.04 0 0.965 0.04 0 0.97 0.04 0 0.975 0.04 0 0.98 0.04 0 0.985 0.04 0 0.99 0.04 0 0.995 0.04 0 1 0.04 0 0 0.06 0 0.005 0.06 0 0.01 0.06 0 0.015 0.06 0 0.02 0.06 0 0.025 0.06 0 0.03 0.06 0 0.035 0.06 0 0.04 0.06 0 0.045 0.06 0 0.05 0.06 0 0.055 0.06 0 0.06 0.06 0 0.065 0.06 0 0.07 0.06 0 0.075 0.06 0 0.08 0.06 0 0.085 0.06 0 0.09 0.06 0 0.095 0.06 0 0.1 0.06 0 0.105 0.06 0 0.11 0.06 0 0.115 0.06 0 0.12 0.06 0 0.125 0.06 0 0.13 0.06 0 0.135 0.06 0 0.14 0.06 0 0.145 0.06 0 0.15 0.06 0 0.155 0.06 0 0.16 0.06 0 0.165 0.06 0 0.17 0.06 0 0.175 0.06 0 0.18 0.06 0 0.185 0.06 0 0.19 0.06 0 0.195 0.06 0 0.2 0.06 0 0.205 0.06 0 0.21 0.06 0 0.215 0.06 0 0.22 0.06 0 0.225 0.06 0 0.23 0.06 0 0.235 0.06 0 0.24 0.06 0 0.245 0.06 0 0.25 0.06 0 0.255 0.06 0 0.26 0.06 0 0.265 0.06 0 0.27 0.06 0 0.275 0.06 0 0.28 0.06 0 0.285 0.06 0 0.29 0.06 0 0.295 0.06 0 0.3 0.06 0 0.305 0.06 0 0.31 0.06 0 0.315 0.06 0 0.32 0.06 0 0.325 0.06 0 0.33 0.06 0 0.335 0.06 0 0.34 0.06 0 0.345 0.06 0 0.35 0.06 0 0.355 0.06 0 0.36 0.06 0 0.365 0.06 0 0.37 0.06 0 0.375 0.06 0 0.38 0.06 0 0.385 0.06 0 0.39 0.06 0 0.395 0.06 0 0.4 0.06 0 0.405 0.06 0 0.41 0.06 0 0.415 0.06 0 0.42 0.06 0 0.425 0.06 0 0.43 0.06 0 0.435 0.06 0 0.44 0.06 0 0.445 0.06 0 0.45 0.06 0 0.455 0.06 0 0.46 0.06 0 0.465 0.06 0 0.47 0.06 0 0.475 0.06 0 0.48 0.06 0 0.485 0.06 0 0.49 0.06 0 0.495 0.06 0 0.5 0.06 0 0.505 0.06 0 0.51 0.06 0 0.515 0.06 0 0.52 0.06 0 0.525 0.06 0 0.53 0.06 0 0.535 0.06 0 0.54 0.06 0 0.545 0.06 0 0.55 0.06 0 0.555 0.06 0 0.56 0.06 0 0.565 0.06 0 0.57 0.06 0 0.575 0.06 0 0.58 0.06 0 0.585 0.06 0 0.59 0.06 0 0.595 0.06 0 0.6 0.06 0 0.605 0.06 0 0.61 0.06 0 0.615 0.06 0 0.62 0.06 0 0.625 0.06 0 0.63 0.06 0 0.635 0.06 0 0.64 0.06 0 0.645 0.06 0 0.65 0.06 0 0.655 0.06 0 0.66 0.06 0 0.665 0.06 0 0.67 0.06 0 0.675 0.06 0 0.68 0.06 0 0.685 0.06 0 0.69 0.06 0 0.695 0.06 0 0.7 0.06 0 0.705 0.06 0 0.71 0.06 0 0.715 0.06 0 0.72 0.06 0 0.725 0.06 0 0.73 0.06 0 0.735 0.06 0 0.74 0.06 0 0.745 0.06 0 0.75 0.06 0 0.755 0.06 0 0.76 0.06 0 0.765 0.06 0 0.77 0.06 0 0.775 0.06 0 0.78 0.06 0 0.785 0.06 0 0.79 0.06 0 0.795 0.06 0 0.8 0.06 0 0.805 0.06 0 0.81 0.06 0 0.815 0.06 0 0.82 0.06 0 0.825 0.06 0 0.83 0.06 0 0.835 0.06 0 0.84 0.06 0 0.845 0.06 0 0.85 0.06 0 0.855 0.06 0 0.86 0.06 0 0.865 0.06 0 0.87 0.06 0 0.875 0.06 0 0.88 0.06 0 0.885 0.06 0 0.89 0.06 0 0.895 0.06 0 0.9 0.06 0 0.905 0.06 0 0.91 0.06 0 0.915 0.06 0 0.92 0.06 0 0.925 0.06 0 0.93 0.06 0 0.935 0.06 0 0.94 0.06 0 0.945 0.06 0 0.95 0.06 0 0.955 0.06 0 0.96 0.06 0 0.965 0.06 0 0.97 0.06 0 0.975 0.06 0 0.98 0.06 0 0.985 0.06 0 0.99 0.06 0 0.995 0.06 0 1 0.06 0 0 0.08 0 0.005 0.08 0 0.01 0.08 0 0.015 0.08 0 0.02 0.08 0 0.025 0.08 0 0.03 0.08 0 0.035 0.08 0 0.04 0.08 0 0.045 0.08 0 0.05 0.08 0 0.055 0.08 0 0.06 0.08 0 0.065 0.08 0 0.07 0.08 0 0.075 0.08 0 0.08 0.08 0 0.085 0.08 0 0.09 0.08 0 0.095 0.08 0 0.1 0.08 0 0.105 0.08 0 0.11 0.08 0 0.115 0.08 0 0.12 0.08 0 0.125 0.08 0 0.13 0.08 0 0.135 0.08 0 0.14 0.08 0 0.145 0.08 0 0.15 0.08 0 0.155 0.08 0 0.16 0.08 0 0.165 0.08 0
[...]
			<PointData Scalars="VitesseX">
				<DataArray Name="VitesseX" type="Float32" format="ascii">
 0 -1.04034e-14 -2.28727e-14 2.65229e-14 -7.5076e-14 -6.99325e-14 -2.28042e-14 -5.47288e-14 -1.06608e-13 4.57445e-14 -2.03066e-14 -2.00049e-13 1.87039e-13 -3.57198e-13 9.46874e-14 -2.3237e-15 -2.78296e-13 1.62495e-13 -2.59505e-13 4.98979e-14 -1.62162e-13 -1.42485e-14 -2.97691e-14 -1.66518e-14 1.26804e-13 1.74052e-13 -2.34588e-14 -1.10692e-13 -1.72839e-13 1.99043e-13 -5.15217e-13 3.91321e-13 -3.36387e-13 -3.31384e-13 2.7439e-13 -1.26522e-13 2.70743e-13 -7.098e-13 3.24872e-13 -2.57879e-13 5.13776e-14 -3.0953e-13 1.96399e-13 1.47381e-13 6.96176e-14 -4.39189e-13 -4.49449e-13 -4.25177e-13 -6.26343e-14 1.8649e-13 1.52215e-14 -4.44102e-13 -4.91646e-13 5.25176e-13 8.58017e-13 1.20989e-13 -4.14802e-13 8.99359e-14 -1.86135e-13 3.20897e-13 -4.29048e-13 -6.41741e-13 1.30983e-13 -3.3268e-13 -3.74191e-13 1.57322e-13 3.38515e-13 4.58974e-13 8.6981e-14 -4.1707e-13 -1.70506e-13 -1.3054e-13 -9.5965e-14 -7.67485e-13 2.83614e-13 -1.72183e-13 4.40703e-12 6.38976e-11 8.10843e-10 9.3226e-09 9.55864e-08 8.66775e-07 6.87979e-06 4.72022e-05 0.000275618 0.00134373 0.00535272 0.0170898 0.043483 0.0897796 0.155037 0.233178 0.316309 0.398931 0.480053 0.558539 0.633284 0.703243 0.76737 0.824771 0.874817 0.918807 0.944735 0.945217 0.943635 0.940502 0.935915 0.917662 0.946012 0.930085 0.935317 0.935044 0.936877 0.934074 0.92562 0.899867 0.841466 0.745776 0.61678 0.466465 0.314937 0.184284 0.0914166 0.0384687 0.0143149 0.00493817 0.00162565 0.0005175 0.000160036 4.81378e-05 1.40856e-05 4.009e-06 1.10972e-06 2.98734e-07 7.82098e-08 1.99161e-08 4.93327e-09 1.18888e-09 2.79167e-10 6.29169e-11 1.39485e-11 3.60824e-12 -2.36773e-13 5.43373e-13 2.12137e-13 -8.99552e-13 9.79889e-13 -1.57333e-12 8.57558e-13 5.25488e-14 -1.10264e-13 1.49703e-12 -9.16205e-13 6.86386e-13 -9.48888e-13 8.34579e-13 -3.84263e-13 -8.61732e-13 1.15924e-13 -8.55742e-13 4.96326e-13 2.26272e-13 -6.04244e-13 -4.41831e-13 -4.87213e-13 2.49077e-13 2.47357e-13 -2.65588e-13 4.04301e-13 -3.36564e-13 9.36879e-13 -6.64801e-13 1.93355e-13 1.22307e-12 -4.1184e-13 -3.79788e-14 -7.56686e-13 1.84958e-13 1.23043e-12 -1.22473e-12 -5.20539e-14 -2.31422e-13 -1.21419e-12 1.07082e-12 -9.59086e-13 4.17604e-13 -2.07512e-13 -3.29444e-14 1.0774e-12 -1.50862e-12 4.15503e-14 4.6409e-13 -2.08462e-12 1.2674e-12 -1.00641e-12 -2.09981e-13 1.84302e-13 -2.10272e-12 1.08497e-12 -2.05225e-12 0 0 -1.93198e-15 -9.67944e-15 -7.15067e-14 2.60123e-15 -3.90208e-14 -8.56157e-14 -9.55204e-14 -2.89025e-14 -1.21122e-13 -7.13885e-14 9.38542e-14 -2.45545e-13 1.6496e-13 -2.11705e-13 -3.12719e-14 1.16077e-13 -3.80607e-13 1.30879e-13 -1.79777e-13 -3.04187e-14 -8.60228e-14 -9.78454e-14 -6.21456e-14 1.54121e-13 9.10527e-14 8.50088e-14 -4.86331e-14 -5.97894e-14 -3.06186e-13 2.82439e-13 -4.32896e-13 6.35111e-14 9.70078e-14 -3.87074e-13 -1.62686e-13 -1.95295e-13 4.44143e-13 -3.77133e-13 5.41839e-14 -2.37718e-13 1.63737e-13 -2.04354e-13 -7.3077e-14 -1.49222e-13 1.11485e-14 -1.36304e-13 -3.24907e-13 -5.31957e-13 -3.66694e-13 8.62111e-14 3.07535e-13 3.29582e-13 -7.0859e-14 -1.98998e-13 1.44761e-13 4.96403e-13 -4.16583e-13 3.13071e-13 -5.35195e-13 -1.31606e-13 -1.88735e-13 -3.60579e-13 -6.35537e-14 1.42042e-13 -3.65719e-14 3.25156e-13 -1.33125e-13 -2.27485e-14 3.33901e-13 -2.23838e-13 -1.85685e-13 -6.00994e-13 1.66395e-13 -7.61817e-13 8.99826e-13 4.74265e-12 6.32978e-11 8.11171e-10 9.3216e-09 9.55887e-08 8.66774e-07 6.87978e-06 4.72022e-05 0.000275618 0.00134373 0.00535272 0.0170898 0.043483 0.0897796 0.155037 0.233178 0.316309 0.398931 0.480053 0.558539 0.633284 0.703243 0.76737 0.824771 0.874817 0.918807 0.944735 0.945217 0.943635 0.940502 0.935915 0.917662 0.946012 0.930085 0.935317 0.935044 0.936877 0.934074 0.92562 0.899867 0.841466 0.745776 0.61678 0.466465 0.314937 0.184284 0.0914166 0.0384687 0.0143149 0.00493817 0.00162565 0.0005175 0.000160036 4.81378e-05 1.40856e-05 4.009e-06 1.10972e-06 2.98733e-07 7.82108e-08 1.99153e-08 4.93332e-09 1.18876e-09 2.78355e-10 6.3886e-11 1.373e-11 2.58377e-12 1.3677e-12 -2.54833e-13 4.94636e-13 3.29502e-13 -1.62179e-12 9.09106e-13 -4.48171e-13 7.17042e-13 6.18807e-13 -8.98264e-13 9.46853e-13 -3.40358e-13 3.02767e-13 -7.62301e-13 -1.43312e-13 1.1148e-14 -7.29746e-13 3.87901e-13 -4.98039e-13 -4.38359e-13 -1.90445e-13 2.16708e-13 -6.65804e-14 2.91525e-14 -8.00826e-13 3.65679e-13 -2.96976e-13 8.50993e-13 -1.7068e-13 4.92967e-13 3.48121e-14 -4.324e-13 4.36811e-13 -5.40557e-14 2.19701e-13 2.1085e-14 -7.75987e-13 4.79304e-13 -5.07837e-13 -6.58026e-13 2.61013e-13 -8.01595e-13 7.72646e-13 -6.87244e-13 1.87268e-13 4.30767e-13 -9.51586e-13 7.37401e-13 -7.56881e-13 -1.21964e-12 1.57191e-12 -1.34934e-12 1.18678e-13 2.70102e-14 -1.13428e-12 4.24751e-13 -1.90259e-12 5.85862e-13 0 0 -1.41865e-14 -3.59381e-14 -2.1562e-14 -7.51695e-14 -4.46547e-14 -5.29632e-14 -7.6852e-14 -1.33589e-13 -5.79267e-14 -6.43429e-14 -1.07407e-13 1.02057e-13 -1.36487e-13 -2.99482e-15 2.1408e-14 -1.17124e-13 -3.33458e-14 -6.09461e-14 -8.76489e-14 -1.98898e-13 -1.14829e-13 1.18956e-14 -1.77458e-14 -4.79274e-15 5.82961e-14 5.75149e-14 -6.15197e-14 -1.90587e-13 -9.40094e-14 -2.57019e-13 4.50192e-14 9.37142e-14 -1.94744e-13 -1.32039e-13 -3.3763e-13 1.05873e-13 -1.2435e-13 1.50469e-13 -1.79309e-13 -1.3812e-14 3.53551e-14 -1.48689e-13 -2.7214e-13 -2.91388e-13 -8.51756e-14 1.39192e-14 -4.08251e-13 1.86226e-13 -2.42593e-13 2.50904e-13 1.56992e-13 2.00177e-14 -2.36295e-13 1.34873e-13 -8.27737e-14 1.21547e-13 2.2868e-13 -2.56748e-13 -2.7366e-13 -1.0905e-13 -2.39799e-14 -2.80236e-13 -4.15194e-13 -1.42286e-15 4.76822e-13 -1.61293e-13 2.37156e-13 2.42951e-13 -3.42586e-13 7.7438e-14 -1.31329e-13 1.14985e-14 -4.10504e-13 2.03465e-13 3.14711e-13 5.07512e-12 6.3974e-11 8.10246e-10 9.3225e-09 9.55873e-08 8.66774e-07 6.87979e-06 4.72022e-05 0.000275618 0.00134373 0.00535272 0.0170898 0.043483 0.0897796 0.155037 0.233178 0.316309 0.398931 0.480053 0.558539 0.633284 0.703243 0.76737 0.824771 0.874817 0.918807 0.944735 0.945217 0.943635 0.940502 0.935915 0.917662 0.946012 0.930085 0.935317 0.935044 0.936877 0.934074 0.92562 0.899867 0.841466 0.745776 0.61678 0.466465 0.314937 0.184284 0.0914166 0.0384687 0.0143149 0.00493817 0.00162565 0.0005175 0.000160036 4.81378e-05 1.40856e-05 4.009e-06 1.10972e-06 2.98734e-07 7.82103e-08 1.99157e-08 4.93304e-09 1.18874e-09 2.78597e-10 6.32196e-11 1.38926e-11 3.40949e-12 4.97289e-13 2.81948e-13 1.50106e-13 -3.69729e-16 3.33076e-13 -8.50944e-14 5.48386e-14 -2.65715e-13 4.77721e-14 4.77342e-13 2.82209e-13 2.63831e-13 -7.40741e-13 -9.04836e-13 -1.76325e-13 -2.49571e-13 -7.09554e-14 -5.86273e-13 -2.05723e-13 7.8772e-14 -3.28116e-13 -2.32475e-13 -2.63179e-13 -2.59693e-13 4.49587e-14 4.40301e-13 3.96165e-13 -7.33788e-13 2.85649e-13 -4.91411e-14 2.35616e-13 4.12399e-13 -4.0114e-13 4.03977e-13 1.90236e-14 1.54467e-13 -2.6355e-13 -3.13588e-13 -3.28609e-13 -3.18382e-13 -3.12246e-13 5.56999e-13 -6.18403e-13 -4.83012e-14 1.02135e-13 -2.21163e-13 9.53952e-14 -9.83873e-14 9.34033e-14 -5.04642e-14 -5.96261e-13 1.10091e-13 -7.09736e-13 -1.49611e-13 -8.00287e-14 -8.97235e-13 1.1015e-13 2.22985e-13 0 0 -1.24079e-14 -2.27728e-14 -2.72118e-14 -6.69331e-14 -7.19981e-14 -1.14724e-13 -1.31886e-13 -3.53347e-14 3.44104e-14 1.38478e-14 -1.3874e-13 1.00402e-13 -2.05645e-13 3.00415e-14 -4.85182e-14 -2.14448e-13 8.59296e-14 -2.18832e-13 -9.27871e-14 -1.91733e-13 -8.49631e-14 -1.50899e-14 3.93168e-14 -2.87999e-15 -1.22332e-13 9.67413e-14 -1.82941e-13 -1.34971e-13 4.79368e-14 -1.9333e-13 6.59035e-14 -6.0004e-14 7.98689e-14 -1.75211e-13 -1.70942e-13 1.37665e-13 -1.44862e-13 1.6142e-13 1.08539e-14 -1.84645e-13 -4.50965e-13 -2.49711e-13 -1.22335e-13 1.85961e-13 -6.02065e-14 -3.38892e-13 1.10547e-13 -1.54554e-13 3.02257e-13 5.58655e-14 -5.95844e-13 3.42669e-13 4.49654e-14 1.84208e-13 1.32322e-13 -5.15281e-13 4.93933e-14 -1.55045e-13 -8.74499e-15 -2.16367e-13 -4.78937e-13 -4.07551e-13 -8.90837e-14 -1.11104e-13 2.36471e-13 4.75991e-13 1.22776e-13 4.8791e-13 -3.61586e-13 8.04808e-14 1.3667e-13 -5.55858e-14 4.98599e-14 -8.81786e-14 2.22885e-14 4.85043e-12 6.41254e-11 8.11123e-10 9.32192e-09 9.55865e-08 8.66775e-07 6.87979e-06 4.72022e-05 0.000275618 0.00134373 0.00535273 0.0170898 0.043483 0.0897796 0.155037 0.233178 0.316309 0.398931 0.480053 0.558539 0.633284 0.703243 0.76737 0.824771 0.874817 0.918807 0.944735 0.945217 0.943635 0.940502 0.935915 0.917662 0.946012 0.930085 0.935317 0.935044 0.936877 0.934074 0.92562 0.899867 0.841466 0.745776 0.61678 0.466465 0.314937 0.184284 0.0914166 0.0384687 0.0143149 0.00493817 0.00162565 0.0005175 0.000160036 4.81378e-05 1.40856e-05 4.009e-06 1.10972e-06 2.98734e-07 7.82099e-08 1.99156e-08 4.9333e-09 1.18906e-09 2.78807e-10 6.34167e-11 1.38925e-11 3.56135e-12 4.39266e-14 2.69104e-13 4.45151e-13 3.63798e-13 1.03839e-12 -9.5137e-14 2.16781e-13 -8.89904e-13 -2.51314e-13 5.22967e-13 -2.13354e-13 -2.71164e-13 -9.57028e-13 -2.18983e-13 -2.68513e-13 -4.61437e-13 -3.63109e-13 -2.32768e-13 -1.82094e-13 -2.41959e-14 -5.88785e-13 -2.31302e-13 -5.86971e-13 -4.11552e-13 7.60825e-13 3.95937e-13 -7.1381e-14 -3.5738e-13 -7.58011e-13 2.4575e-13 5.45873e-13 5.10945e-13 6.33371e-14 -4.18353e-13 2.92563e-13 -3.34338e-13 6.96789e-13 -7.63131e-13 -4.85897e-13 -5.36275e-13 -4.42491e-15 3.06331e-13 -1.61024e-13 8.25168e-13 -1.5758e-13 -8.10733e-13 3.4357e-13 -7.05131e-13 7.75915e-13 7.04412e-13 -1.28757e-12 4.56153e-13 -7.03526e-13 3.18621e-16 6.63743e-13 -7.77031e-13 1.11299e-13 -1.52917e-12 0 0 -6.69475e-15 -1.15425e-14 -8.58181e-14 -7.92989e-15 -8.80122e-14 -1.05883e-13 -1.33548e-13 4.85574e-14 -2.19405e-14 -1.75176e-14 9.38172e-14 -2.30163e-13 1.99371e-13 -1.78777e-13 -2.12302e-13 5.82532e-14 -2.77668e-13 -1.59983e-14 -2.38384e-13 -1.21681e-13 -8.31875e-14 -1.45045e-13 -1.61197e-13 2.90913e-14 -2.0782e-13 -1.24857e-13 -1.29714e-13 8.77441e-15 -1.69096e-13 5.68263e-13 -2.65075e-13 4.90348e-14 4.37547e-13 -3.27183e-13 7.26464e-14 -1.42883e-13 4.87206e-13 -5.0873e-13 3.79582e-14 -4.03092e-13 -1.92802e-13 -3.79319e-13 -1.35773e-13 5.37393e-14 -8.90448e-14 -3.00392e-13 7.80808e-14 -6.68229e-13 -2.11947e-14 5.02639e-15 1.37504e-13 4.68745e-13 -1.10081e-13 -6.37076e-13 3.40712e-13 -6.99785e-15 -6.06668e-13 3.09469e-13 -4.13927e-13 -2.57689e-13 -3.7379e-13 -4.52873e-13 4.02059e-13 3.45138e-13 -1.46124e-13 6.18984e-13 -1.8948e-13 2.86264e-13 4.50086e-13 -4.04951e-13 1.57557e-13 -6.94066e-13 6.36087e-13 -3.90951e-13 6.54588e-13 4.5633e-12 6.34353e-11 8.11783e-10 9.32167e-09 9.55885e-08 8.66775e-07 6.87978e-06 4.72022e-05 0.000275618 0.00134373 0.00535273 0.0170898 0.043483 0.0897796 0.155037 0.233178 0.316309 0.398931 0.480053 0.558539 0.633284 0.703243 0.76737 0.824771 0.874817 0.918807 0.944735 0.945217 0.943635 0.940502 0.935915 0.917662 0.946012 0.930085 0.935317 0.935044 0.936877 0.934074 0.92562 0.899867 0.841466 0.745776 0.61678 0.466465 0.314937 0.184284 0.0914166 0.0384687 0.0143149 0.00493817 0.00162565 0.0005175 0.000160036 4.81378e-05 1.40856e-05 4.009e-06 1.10972e-06 2.98733e-07 7.82104e-08 1.99152e-08 4.93355e-09 1.18895e-09 2.78446e-10 6.4145e-11 1.41728e-11 2.59366e-12 1.32347e-12 -1.77723e-13 7.2075e-13 1.20055e-12 -7.11005e-13 1.23311e-12 -2.4272e-13 -3.14165e-13 9.05229e-14 -1.27491e-12 3.08206e-13 -3.5062e-13 1.84243e-13 -8.24364e-13 -5.31428e-13 -3.97122e-13 -1.28635e-12 5.16679e-13 -9.51492e-13 8.84775e-14 1.51691e-13 4.59876e-13 -6.16728e-14 -2.54219e-13 -3.33876e-13 9.64092e-14 -8.13069e-13 9.17726e-13 -1.16984e-12 5.80693e-13 1.62693e-13 -8.32263e-13 6.93911e-13 -6.40469e-13 5.72708e-13 -4.68028e-13 -3.24703e-13 3.81969e-13 -9.79723e-13 -8.42924e-13 6.83816e-13 -9.27642e-13 1.33448e-12 -1.41736e-13 6.761e-14 2.45375e-15 -8.98596e-13 8.14512e-13 -2.6691e-13 -7.96502e-13 1.63489e-12 -1.21326e-12 5.38396e-13 9.71626e-14 -7.18141e-13 3.49326e-13 -2.04355e-12 -2.59501e-13 0 0 -2.34862e-14 -5.29293e-14 9.19976e-15 -1.12611e-13 -1.13228e-13 6.01833e-14 -2.07159e-14 -1.48197e-13 5.94336e-14 -6.89464e-14 -1.37459e-13 2.21111e-13 -1.50061e-13 9.44708e-14 -2.24531e-13 -1.99297e-13 1.29823e-13 -2.3749e-13 -5.704e-14 -3.59016e-13 -6.83102e-14 -7.01965e-14 -3.2888e-13 -1.27081e-13 -6.24365e-14 -5.21643e-13 -3.00125e-14 -1.46942e-13 1.89331e-13 -7.09474e-14 6.85195e-13 -5.79032e-14 -1.99531e-13 4.80514e-13 1.07665e-14 3.11983e-13 -5.82651e-13 3.97751e-14 -6.70655e-13 6.22953e-14 -4.99676e-14 4.85145e-14 -2.77621e-13 -4.79157e-13 -6.89513e-13 -7.20025e-14 -6.56797e-13 3.46384e-13 -2.12211e-13 2.42928e-13 7.21509e-13 -8.58624e-13 -1.15789e-13 -1.1681e-13 8.26978e-14 -1.47948e-13 6.83388e-14 -3.96746e-13 3.36022e-14 -4.66579e-13 -1.01937e-13 2.01023e-13 -5.36752e-14 2.51366e-13 4.1892e-13 -3.48397e-13 5.75026e-13 2.15088e-13 -1.467e-13 -5.38817e-13 1.99451e-14 -1.47939e-13 -7.48829e-13 1.60863e-12 -7.78133e-14 4.49772e-12 6.38698e-11 8.10313e-10 9.32389e-09 9.55875e-08 8.66775e-07 6.87979e-06 4.72022e-05 0.000275618 0.00134373 0.00535273 0.0170898 0.043483 0.0897796 0.155037 0.233178 0.316309 0.398931 0.480053 0.558539 0.633284 0.703243 0.76737 0.824771 0.874817 0.918807 0.944735 0.945217 0.943635 0.940502 0.935915 0.917662 0.946012 0.930085 0.935317 0.935044 0.936877 0.934074 0.92562 0.899867 0.841466 0.745776 0.61678 0.466465 0.314937 0.184284 0.0914166 0.0384687 0.0143149 0.00493817 0.00162565 0.0005175 0.000160036 4.81378e-05 1.40856e-05 4.009e-06 1.10972e-06 2.98734e-07 7.82098e-08 1.99161e-08 4.93322e-09 1.1886e-09 2.78929e-10 6.30407e-11 1.48344e-11 3.32429e-12 5.81499e-13 7.23282e-13 7.4275e-14 1.142e-13 1.39083e-12 -9.05251e-13 9.44577e-13 -7.61486e-13 -5.6866e-13 6.52487e-13 -1.20237e-12 1.73585e-12 -7.53361e-13 -6.61254e-13 -9.7612e-13 -1.25454e-12 -4.1297e-13 -1.3052e-12 -4.57838e-13 1.48588e-12 6.01367e-13 4.21586e-14 1.70186e-13 -1.39493e-14 -2.50475e-13 -7.15399e-13 3.07206e-13 -9.55913e-13 1.02587e-12 -1.07913e-12 -1.71398e-13 2.2625e-13 -8.26595e-13 4.33852e-13 -5.9775e-13 1.84343e-13 2.12316e-13 -5.2031e-13 -6.81251e-13 -1.65435e-13 -9.84226e-13 1.32006e-12 -7.50182e-13 -2.38318e-13 7.26015e-14 2.8957e-13 6.87032e-13 -1.40909e-13 -3.43532e-13 -1.99385e-13 -5.76031e-13 8.47447e-13 -1.79397e-13 -3.69536e-13 -4.70963e-13 -2.49397e-12 8.00755e-13 -2.38653e-13 0
				</DataArray>
				<DataArray Name="VitesseY" type="Float32" format="ascii">