<?xml version="1.0"?>
<VTKFile type="PolyData">
	<PolyData>
		<Piece NumberOfPoints="1206" NumberOfPolys="1000">
			<Points>
				<DataArray type="Float32" NumberOfComponents="3" format="ascii">
 0 0 0 0.005 0 0 0.01 0 0 0.015 0 0 0.02 0 0 0.025 0 0 0.03 0 0 0.035 0 0 0.04 0 0 0.045 0 0 0.05 0 0 0.055 0 0 0.06 0 0 0.065 0 0 0.07 0 0 0.075 0 0 0.08 0 0 0.085 0 0 0.09 0 0 0.095 0 0 0.1 0 0 0.105 0 0 0.11 0 0 0.115 0 0 0.12 0 0 0.125 0 0 0.13 0 0 0.135 0 0 0.14 0 0 0.145 0 0 0.15 0 0 0.155 0 0 0.16 0 0 0.165 0 0 0.17 0 0 0.175 0 0 0.18 0 0 0.185 0 0 0.19 0 0 0.195 0 0 0.2 0 0 0.205 0 0 0.21 0 0 0.215 0 0 0.22 0 0 0.225 0 0 0.23 0 0 0.235 0 0 0.24 0 0 0.245 0 0 0.25 0 0 0.255 0 0 0.26 0 0 0.265 0 0 0.27 0 0 0.275 0 0 0.28 0 0 0.285 0 0 0.29 0 0 0.295 0 0 0.3 0 0 0.305 0 0 0.31 0 0 0.315 0 0 0.32 0 0 0.325 0 0 0.33 0 0 0.335 0 0 0.34 0 0 0.345 0 0 0.35 0 0 0.355 0 0 0.36 0 0 0.365 0 0 0.37 0 0 0.375 0 0 0.38 0 0 0.385 0 0 0.39 0 0 0.395 0 0 0.4 0 0 0.405 0 0 0.41 0 0 0.415 0 0 0.42 0 0 0.425 0 0 0.43 0 0 0.435 0 0 0.44 0 0 0.445 0 0 0.45 0 0 0.455 0 0 0.46 0 0 0.465 0 0 0.47 0 0 0.475 0 0 0.48 0 0 0.485 0 0 0.49 0 0 0.495 0 0 0.5 0 0 0.505 0 0 0.51 0 0 0.515 0 0 0.52 0 0 0.525 0 0 0.53 0 0 0.535 0 0 0.54 0 0 0.545 0 0 0.55 0 0 0.555 0 0 0.56 0 0 0.565 0 0 0.57 0 0 0.575 0 0 0.58 0 0 0.585 0 0 0.59 0 0 0.595 0 0 0.6 0 0 0.605 0 0 0.61 0 0 0.615 0 0 0.62 0 0 0.625 0 0 0.63 0 0 0.635 0 0 0.64 0 0 0.645 0 0 0.65 0 0 0.655 0 0 0.66 0 0 0.665 0 0 0.67 0 0 0.675 0 0 0.68 0 0 0.685 0 0 0.69 0 0 0.695 0 0 0.7 0 0 0.705 0 0 0.71 0 0 0.715 0 0 0.72 0 0 0.725 0 0 0.73 0 0 0.735 0 0 0.74 0 0 0.745 0 0 0.75 0 0 0.755 0 0 0.76 0 0 0.765 0 0 0.77 0 0 0.775 0 0 0.78 0 0 0.785 0 0 0.79 0 0 0.795 0 0 0.8 0 0 0.805 0 0 0.81 0 0 0.815 0 0 0.82 0 0 0.825 0 0 0.83 0 0 0.835 0 0 0.84 0 0 0.845 0 0 0.85 0 0 0.855 0 0 0.86 0 0 0.865 0 0 0.87 0 0 0.875 0 0 0.88 0 0 0.885 0 0 0.89 0 0 0.895 0 0 0.9 0 0 0.905 0 0 0.91 0 0 0.915 0 0 0.92 0 0 0.925 0 0 0.93 0 0 0.935 0 0 0.94 0 0 0.945 0 0 0.95 0 0 0.955 0 0 0.96 0 0 0.965 0 0 0.97 0 0 0.975 0 0 0.98 0 0 0.985 0 0 0.99 0 0 0.995 0 0 1 0 0 0 0.02 0 0.005 0.02 0 0.01 0.02 0 0.015 0.02 0 0.02 0.02 0 0.025 0.02 0 0.03 0.02 0 0.035 0.02 0 0.04 0.02 0 0.045 0.02 0 0.05 0.02 0 0.055 0.02 0 0.06 0.02 0 0.065 0.02 0 0.07 0.02 0 0.075 0.02 0 0.08 0.02 0 0.085 0.02 0 0.09 0.02 0 0.095 0.02 0 0.1 0.02 0 0.105 0.02 0 0.11 0.02 0 0.115 0.02 0 0.12 0.02 0 0.125 0.02 0 0.13 0.02 0 0.135 0.02 0 0.14 0.02 0 0.145 0.02 0 0.15 0.02 0 0.155 0.02 0 0.16 0.02 0 0.165 0.02 0 0.17 0.02 0 0.175 0.02 0 0.18 0.02 0 0.185 0.02 0 0.19 0.02 0 0.195 0.02 0 0.2 0.02 0 0.205 0.02 0 0.21 0.02 0 0.215 0.02 0 0.22 0.02 0 0.225 0.02 0 0.23 0.02 0 0.235 0.02 0 0.24 0.02 0 0.245 0.02 0 0.25 0.02 0 0.255 0.02 0 0.26 0.02 0 0.265 0.02 0 0.27 0.02 0 0.275 0.02 0 0.28 0.02 0 0.285 0.02 0 0.29 0.02 0 0.295 0.02 0 0.3 0.02 0 0.305 0.02 0 0.31 0.02 0 0.315 0.02 0 0.32 0.02 0 0.325 0.02 0 0.33 0.02 0 0.335 0.02 0 0.34 0.02 0 0.345 0.02 0 0.35 0.02 0 0.355 0.02 0 0.36 0.02 0 0.365 0.02 0 0.37 0.02 0 0.375 0.02 0 0.38 0.02 0 0.385 0.02 0 0.39 0.02 0 0.395 0.02 0 0.4 0.02 0 0.405 0.02 0 0.41 0.02 0 0.415 0.02 0 0.42 0.02 0 0.425 0.02 0 0.43 0.02 0 0.435 0.02 0 0.44 0.02 0 0.445 0.02 0 0.45 0.02 0 0.455 0.02 0 0.46 0.02 0 0.465 0.02 0 0.47 0.02 0 0.475 0.02 0 0.48 0.02 0 0.485 0.02 0 0.49 0.02 0 0.495 0.02 0 0.5 0.02 0 0.505 0.02 0 0.51 0.02 0 0.515 0.02 0 0.52 0.02 0 0.525 0.02 0 0.53 0.02 0 0.535 0.02 0 0.54 0.02 0 0.545 0.02 0 0.55 0.02 0 0.555 0.02 0 0.56 0.02 0 0.565 0.02 0 0.57 0.02 0 0.575 0.02 0 0.58 0.02 0 0.585 0.02 0 0.59 0.02 0 0.595 0.02 0 0.6 0.02 0 0.605 0.02 0 0.61 0.02 0 0.615 0.02 0 0.62 0.02 0 0.625 0.02 0 0.63 0.02 0 0.635 0.02 0 0.64 0.02 0 0.645 0.02 0 0.65 0.02 0 0.655 0.02 0 0.66 0.02 0 0.665 0.02 0 0.67 0.02 0 0.675 0.02 0 0.68 0.02 0 0.685 0.02 0 0.69 0.02 0 0.695 0.02 0 0.7 0.02 0 0.705 0.02 0 0.71 0.02 0 0.715 0.02 0 0.72 0.02 0 0.725 0.02 0 0.73 0.02 0 0.735 0.02 0 0.74 0.02 0 0.745 0.02 0 0.75 0.02 0 0.755 0.02 0 0.76 0.02 0 0.765 0.02 0 0.77 0.02 0 0.775 0.02 0 0.78 0.02 0 0.785 0.02 0 0.79 0.02 0 0.795 0.02 0 0.8 0.02 0 0.805 0.02 0 0.81 0.02 0 0.815 0.02 0 0.82 0.02 0 0.825 0.02 0 0.83 0.02 0 0.835 0.02 0 0.84 0.02 0 0.845 0.02 0 0.85 0.02 0 0.855 0.02 0 0.86 0.02 0 0.865 0.02 0 0.87 0.02 0 0.875 0.02 0 0.88 0.02 0 0.885 0.02 0 0.89 0.02 0 0.895 0.02 0 0.9 0.02 0 0.905 0.02 0 0.91 0.02 0 0.915 0.02 0 0.92 0.02 0 0.925 0.02 0 0.93 0.02 0 0.935 0.02 0 0.94 0.02 0 0.945 0.02 0 0.95 0.02 0 0.955 0.02 0 0.96 0.02 0 0.965 0.02 0 0.97 0.02 0 0.975 0.02 0 0.98 0.02 0 0.985 0.02 0 0.99 0.02 0 0.995 0.02 0 1 0.02 0 0 0.04 0 0.005 0.04 0 0.01 0.04 0 0.015 0.04 0 0.02 0.04 0 0.025 0.04 0 0.03 0.04 0 0.035 0.04 0 0.04 0.04 0 0.045 0.04 0 0.05 0.04 0 0.055 0.04 0 0.06 0.04 0 0.065 0.04 0 0.07 0.04 0 0.075 0.04 0 0.08 0.04 0 0.085 0.04 0 0.09 0.04 0 0.095 0.04 0 0.1 0.04 0 0.105 0.04 0 0.11 0.04 0 0.115 0.04 0 0.12 0.04 0 0.125 0.04 0 0.13 0.04 0 0.135 0.04 0 0.14 0.04 0 0.145 0.04 0 0.15 0.04 0 0.155 0.04 0 0.16 0.04 0 0.165 0.04 0 0.17 0.04 0 0.175 0.04 0 0.18 0.04 0 0.185 0.04 0 0.19 0.04 0 0.195 0.04 0 0.2 0.04 0 0.205 0.04 0 0.21 0.04 0 0.215 0.04 0 0.22 0.04 0 0.225 0.04 0 0.23 0.04 0 0.235 0.04 0 0.24 0.04 0 0.245 0.04 0 0.25 0.04 0 0.255 0.04 0 0.26 0.04 0 0.265 0.04 0 0.27 0.04 0 0.275 0.04 0 0.28 0.04 0 0.285 0.04 0 0.29 0.04 0 0.295 0.04 0 0.3 0.04 0 0.305 0.04 0 0.31 0.04 0 0.315 0.04 0 0.32 0.04 0 0.325 0.04 0 0.33 0.04 0 0.335 0.04 0 0.34 0.04 0 0.345 0.04 0 0.35 0.04 0 0.355 0.04 0 0.36 0.04 0 0.365 0.04 0 0.37 0.04 0 0.375 0.04 0 0.38 0.04 0 0.385 0.04 0 0.39 0.04 0 0.395 0.04 0 0.4 0.04 0 0.405 0.04 0 0.41 0.04 0 0.415 0.04 0 0.42 0.04 0 0.425 0.04 0 0.43 0.04 0 0.435 0.04 0 0.44 0.04 0 0.445 0.04 0 0.45 0.04 0 0.455 0.04 0 0.46 0.04 0 0.465 0.04 0 0.47 0.04 0 0.475 0.04 0 0.48 0.04 0 0.485 0.04 0 0.49 0.04 0 0.495 0.04 0 0.5 0.04 0 0.505 0.04 0 0.51 0.04 0 0.515 0.04 0 0.52 0.04 0 0.525 0.04 0 0.53 0.04 0 0.535 0.04 0 0.54 0.04 0 0.545 0.04 0 0.55 0.04 0 0.555 0.04 0 0.56 0.04 0 0.565 0.04 0 0.57 0.04 0 0.575 0.04 0 0.58 0.04 0 0.585 0.04 0 0.59 0.04 0 0.595 0.04 0 0.6 0.04 0 0.605 0.04 0 0.61 0.04 0 0.615 0.04 0 0.62 0.04 0 0.625 0.04 0 0.63 0.04 0 0.635 0.04 0 0.64 0.04 0 0.645 0.04 0 0.65 0.04 0 0.655 0.04 0 0.66 0.04 0 0.665 0.04 0 0.67 0.04 0 0.675 0.04 0 0.68 0.04 0 0.685 0.04 0 0.69 0.04 0 0.695 0.04 0 0.7 0.04 0 0.705 0.04 0 0.71 0.04 0 0.715 0.04 0 0.72 0.04 0 0.725 0.04 0 0.73 0.04 0 0.735 0.04 0 0.74 0.04 0 0.745 0.04 0 0.75 0.04 0 0.755 0.04 0 0.76 0.04 0 0.765 0.04 0 0.77 0.04 0 0.775 0.04 0 0.78 0.04 0 0.785 0.04 0 0.79 0.04 0 0.795 0.04 0 0.8 0.04 0 0.805 0.04 0 0.81 0.04 0 0.815 0.04 0 0.82 0.04 0 0.825 0.04 0 0.83 0.04 0 0.835 0.04 0 0.84 0.04 0 0.845 0.04 0 0.85 0.04 0 0.855 0.04 0 0.86 0.04 0 0.865 0.04 0 0.87 0.04 0 0.875 0.04 0 0.88 0.04 0 0.885 0.04 0 0.89 0.04 0 0.895 0.04 0 0.9 0.04 0 0.905 0.04 0 0.91 0.04 0 0.915 0.04 0 0.92 0.04 0 0.925 0.04 0 0.93 0.04 0 0.935 0.04 0 0.94 0.04 0 0.945 0.04 0 0.95 0.04 0 0.955 0.04 0 0.96 0.04 0 0.965 0.04 0 0.97 0.04 0 0.975 0.04 0 0.98 0.04 0 0.985 0.04 0 0.99 0.04 0 0.995 0.04 0 1 0.04 0 0 0.06 0 0.005 0.06 0 0.01 0.06 0 0.015 0.06 0 0.02 0.06 0 0.025 0.06 0 0.03 0.06 0 0.035 0.06 0 0.04 0.06 0 0.045 0.06 0 0.05 0.06 0 0.055 0.06 0 0.06 0.06 0 0.065 0.06 0 0.07 0.06 0 0.075 0.06 0 0.08 0.06 0 0.085 0.06 0 0.09 0.06 0 0.095 0.06 0 0.1 0.06 0 0.105 0.06 0 0.11 0.06 0 0.115 0.06 0 0.12 0.06 0 0.125 0.06 0 0.13 0.06 0 0.135 0.06 0 0.14 0.06 0 0.145 0.06 0 0.15 0.06 0 0.155 0.06 0 0.16 0.06 0 0.165 0.06 0 0.17 0.06 0 0.175 0.06 0 0.18 0.06 0 0.185 0.06 0 0.19 0.06 0 0.195 0.06 0 0.2 0.06 0 0.205 0.06 0 0.21 0.06 0 0.215 0.06 0 0.22 0.06 0 0.225 0.06 0 0.23 0.06 0 0.235 0.06 0 0.24 0.06 0 0.245 0.06 0 0.25 0.06 0 0.255 0.06 0 0.26 0.06 0 0.265 0.06 0 0.27 0.06 0 0.275 0.06 0 0.28 0.06 0 0.285 0.06 0 0.29 0.06 0 0.295 0.06 0 0.3 0.06 0 0.305 0.06 0 0.31 0.06 0 0.315 0.06 0 0.32 0.06 0 0.325 0.06 0 0.33 0.06 0 0.335 0.06 0 0.34 0.06 0 0.345 0.06 0 0.35 0.06 0 0.355 0.06 0 0.36 0.06 0 0.365 0.06 0 0.37 0.06 0 0.375 0.06 0 0.38 0.06 0 0.385 0.06 0 0.39 0.06 0 0.395 0.06 0 0.4 0.06 0 0.405 0.06 0 0.41 0.06 0 0.415 0.06 0 0.42 0.06 0 0.425 0.06 0 0.43 0.06 0 0.435 0.06 0 0.44 0.06 0 0.445 0.06 0 0.45 0.06 0 0.455 0.06 0 0.46 0.06 0 0.465 0.06 0 0.47 0.06 0 0.475 0.06 0 0.48 0.06 0 0.485 0.06 0 0.49 0.06 0 0.495 0.06 0 0.5 0.06 0 0.505 0.06 0 0.51 0.06 0 0.515 0.06 0 0.52 0.06 0 0.525 0.06 0 0.53 0.06 0 0.535 0.06 0 0.54 0.06 0 0.545 0.06 0 0.55 0.06 0 0.555 0.06 0 0.56 0.06 0 0.565 0.06 0 0.57 0.06 0 0.575 0.06 0 0.58 0.06 0 0.585 0.06 0 0.59 0.06 0 0.595 0.06 0 0.6 0.06 0 0.605 0.06 0 0.61 0.06 0 0.615 0.06 0 0.62 0.06 0 0.625 0.06 0 0.63 0.06 0 0.635 0.06 0 0.64 0.06 0 0.645 0.06 0 0.65 0.06 0 0.655 0.06 0 0.66 0.06 0 0.665 0.06 0 0.67 0.06 0 0.675 0.06 0 0.68 0.06 0 0.685 0.06 0 0.69 0.06 0 0.695 0.06 0 0.7 0.06 0 0.705 0.06 0 0.71 0.06 0 0.715 0.06 0 0.72 0.06 0 0.725 0.06 0 0.73 0.06 0 0.735 0.06 0 0.74 0.06 0 0.745 0.06 0 0.75 0.06 0 0.755 0.06 0 0.76 0.06 0 0.765 0.06 0 0.77 0.06 0 0.775 0.06 0 0.78 0.06 0 0.785 0.06 0 0.79 0.06 0 0.795 0.06 0 0.8 0.06 0 0.805 0.06 0 0.81 0.06 0 0.815 0.06 0 0.82 0.06 0 0.825 0.06 0 0.83 0.06 0 0.835 0.06 0 0.84 0.06 0 0.845 0.06 0 0.85 0.06 0 0.855 0.06 0 0.86 0.06 0 0.865 0.06 0 0.87 0.06 0 0.875 0.06 0 0.88 0.06 0 0.885 0.06 0 0.89 0.06 0 0.895 0.06 0 0.9 0.06 0 0.905 0.06 0 0.91 0.06 0 0.915 0.06 0 0.92 0.06 0 0.925 0.06 0 0.93 0.06 0 0.935 0.06 0 0.94 0.06 0 0.945 0.06 0 0.95 0.06 0 0.955 0.06 0 0.96 0.06 0 0.965 0.06 0 0.97 0.06 0 0.975 0.06 0 0.98 0.06 0 0.985 0.06 0 0.99 0.06 0 0.995 0.06 0 1 0.06 0 0 0.08 0 0.005 0.08 0 0.01 0.08 0 0.015 0.08 0 0.02 0.08 0 0.025 0.08 0 0.03 0.08 0 0.035 0.08 0 0.04 0.08 0 0.045 0.08 0 0.05 0.08 0 0.055 0.08 0 0.06 0.08 0 0.065 0.08 0 0.07 0.08 0 0.075 0.08 0 0.08 0.08 0 0.085 0.08 0 0.09 0.08 0 0.095 0.08 0 0.1 0.08 0 0.105 0.08 0 0.11 0.08 0 0.115 0.08 0 0.12 0.08 0 0.125 0.08 0 0.13 0.08 0 0.135 0.08 0 0.14 0.08 0 0.145 0.08 0 0.15 0.08 0 0.155 0.08 0 0.16 0.08 0 0.165 0.08 0
[...]
			<PointData Scalars="VitesseX">
				<DataArray Name="VitesseX" type="Float32" format="ascii">
 0 -1.51583e-14 1.12077e-16 1.09023e-14 9.52179e-15 1.31468e-14 6.93681e-15 -2.88778e-14 -5.29738e-15 3.63622e-15 2.72205e-14 -7.70269e-14 1.40318e-14 3.29334e-14 -3.52852e-14 -8.4967e-14 -1.52025e-13 -1.89253e-13 -3.19643e-14 -9.77418e-14 -1.96574e-13 -1.85785e-13 3.24764e-14 -1.53759e-13 -1.51843e-13 -8.19664e-14 -2.23048e-13 -3.43804e-14 -1.09708e-13 -1.82527e-13 6.54597e-14 -9.30606e-14 -3.03771e-13 -2.16462e-13 -6.43384e-14 -3.86404e-13 6.30145e-14 -4.67278e-14 -1.19784e-13 -4.38502e-15 9.8878e-14 2.15929e-12 1.22958e-11 7.38126e-11 4.15076e-10 2.20532e-09 1.10946e-08 5.27686e-08 2.36578e-07 9.96992e-07 3.93626e-06 1.45046e-05 4.9664e-05 0.000157208 0.00045736 0.0012151 0.00292936 0.0063768 0.0125054 0.0221269 0.0355529 0.0524473 0.0720209 0.093398 0.115883 0.139027 0.162561 0.186348 0.210317 0.234412 0.258585 0.282803 0.307033 0.331253 0.355453 0.379622 0.40375 0.42783 0.451853 0.475809 0.499692 0.52349 0.547193 0.570791 0.59427 0.617617 0.640816 0.663851 0.686705 0.709356 0.731786 0.753973 0.775896 0.797539 0.818889 0.839944 0.860716 0.881239 0.90156 0.922084 0.939634 0.939872 0.939524 0.938695 0.937629 0.936423 0.935151 0.933904 0.932729 0.931631 0.930704 0.929909 0.929233 0.928675 0.92825 0.928008 0.9278 0.927675 0.927577 0.92751 0.927462 0.927414 0.927369 0.927312 0.927266 0.927264 0.927203 0.927408 0.927216 0.928218 0.909924 0.938202 0.922552 0.927721 0.928686 0.92899 0.928874 0.928796 0.92881 0.928849 0.928866 0.928858 0.928831 0.928816 0.928866 0.928961 0.929032 0.929071 0.929083 0.929101 0.929167 0.929178 0.929266 0.929228 0.929178 0.92824 0.923721 0.910052 0.877904 0.817473 0.725405 0.604455 0.464763 0.323196 0.198539 0.106104 0.0494671 0.0207883 0.00824243 0.00317617 0.00120856 0.000457229 0.000172447 6.48968e-05 2.43742e-05 9.13575e-06 3.41649e-06 1.27447e-06 4.74102e-07 1.75819e-07 6.49796e-08 2.3925e-08 8.77273e-09 3.20215e-09 1.16298e-09 4.20225e-10 1.50506e-10 5.37466e-11 1.93223e-11 6.1968e-12 2.30531e-12 6.80707e-13 2.25666e-13 3.50267e-13 3.86245e-13 8.32337e-14 7.28428e-13 -5.57031e-13 -1.18413e-13 5.86532e-13 0 0 -2.30251e-15 4.68441e-15 -3.57278e-15 -8.6645e-15 -3.01879e-14 1.15504e-14 -3.60302e-14 1.02814e-14 -1.5114e-14 -1.95344e-14 7.57945e-14 8.35611e-15 -1.08702e-13 -9.22812e-14 -9.66494e-15 -8.20382e-14 -6.45951e-14 -1.09494e-13 -1.30351e-13 -1.2334e-13 -1.98867e-15 -1.99366e-13 -1.06103e-13 -2.95456e-14 -2.27535e-13 -6.46434e-14 -1.84524e-13 -1.85104e-13 6.19428e-14 -1.85523e-13 -1.05418e-13 -8.22474e-14 -1.84023e-13 -3.17291e-13 -6.27541e-14 -1.40286e-13 -9.85484e-14 -3.55139e-14 -7.06447e-14 7.96614e-14 1.82576e-12 1.2592e-11 7.40944e-11 4.15097e-10 2.20481e-09 1.10955e-08 5.27674e-08 2.36579e-07 9.96992e-07 3.93626e-06 1.45046e-05 4.9664e-05 0.000157208 0.00045736 0.0012151 0.00292936 0.0063768 0.0125054 0.0221269 0.0355529 0.0524473 0.0720209 0.093398 0.115883 0.139027 0.162561 0.186348 0.210317 0.234412 0.258585 0.282803 0.307033 0.331253 0.355453 0.379622 0.40375 0.42783 0.451853 0.475809 0.499692 0.52349 0.547193 0.570791 0.59427 0.617617 0.640816 0.663851 0.686705 0.709356 0.731786 0.753973 0.775896 0.797539 0.818889 0.839944 0.860716 0.881239 0.90156 0.922084 0.939634 0.939872 0.939524 0.938695 0.937629 0.936423 0.935151 0.933904 0.932729 0.931631 0.930704 0.929909 0.929233 0.928675 0.92825 0.928008 0.9278 0.927675 0.927577 0.92751 0.927462 0.927414 0.927369 0.927312 0.927266 0.927264 0.927203 0.927408 0.927216 0.928218 0.909924 0.938202 0.922552 0.927721 0.928686 0.92899 0.928874 0.928796 0.92881 0.928849 0.928866 0.928858 0.928831 0.928816 0.928866 0.928961 0.929032 0.929071 0.929083 0.929101 0.929167 0.929178 0.929266 0.929228 0.929178 0.92824 0.923721 0.910052 0.877904 0.817473 0.725405 0.604455 0.464763 0.323196 0.198539 0.106104 0.0494671 0.0207883 0.00824243 0.00317617 0.00120856 0.000457229 0.000172447 6.48968e-05 2.43742e-05 9.13575e-06 3.41649e-06 1.27447e-06 4.74102e-07 1.7582e-07 6.49796e-08 2.39248e-08 8.77258e-09 3.20223e-09 1.16305e-09 4.20011e-10 1.50809e-10 5.36551e-11 1.87383e-11 6.8021e-12 2.00513e-12 1.57733e-13 3.61581e-13 9.79631e-14 1.81868e-13 5.93674e-13 1.03664e-13 5.75559e-13 4.87936e-14 9.25604e-14 0 0 -1.00549e-15 -1.91519e-14 -8.04221e-15 -3.55004e-14 -4.11586e-14 -3.30337e-14 -4.34941e-14 -2.05288e-14 -1.54315e-14 -1.51533e-14 -5.40441e-14 1.59225e-14 3.00453e-14 -8.51901e-14 -3.17837e-14 -2.25075e-14 -1.57076e-13 3.31067e-14 -3.0321e-14 8.6718e-14 -1.50582e-13 -2.27826e-13 4.49751e-14 -2.34762e-13 -4.35784e-14 -1.81998e-13 -6.02801e-14 -2.90312e-13 -1.21952e-13 -7.1652e-14 -5.91303e-14 -2.16871e-13 -2.03671e-13 -3.85231e-14 -2.94578e-13 -7.91855e-14 -4.41878e-14 -1.20308e-13 -4.84285e-14 7.98528e-14 1.91031e-12 1.24569e-11 7.41428e-11 4.1521e-10 2.20507e-09 1.10951e-08 5.27679e-08 2.36579e-07 9.96992e-07 3.93626e-06 1.45046e-05 4.9664e-05 0.000157208 0.00045736 0.0012151 0.00292936 0.0063768 0.0125054 0.0221269 0.0355529 0.0524473 0.0720209 0.093398 0.115883 0.139027 0.162561 0.186348 0.210317 0.234412 0.258585 0.282803 0.307033 0.331253 0.355453 0.379622 0.40375 0.42783 0.451853 0.475809 0.499692 0.52349 0.547193 0.570791 0.59427 0.617617 0.640816 0.663851 0.686705 0.709356 0.731786 0.753973 0.775896 0.797539 0.818889 0.839944 0.860716 0.881239 0.90156 0.922084 0.939634 0.939872 0.939524 0.938695 0.937629 0.936423 0.935151 0.933904 0.932729 0.931631 0.930704 0.929909 0.929233 0.928675 0.92825 0.928008 0.9278 0.927675 0.927577 0.92751 0.927462 0.927414 0.927369 0.927312 0.927266 0.927264 0.927203 0.927408 0.927216 0.928218 0.909924 0.938202 0.922552 0.927721 0.928686 0.92899 0.928874 0.928796 0.92881 0.928849 0.928866 0.928858 0.928831 0.928816 0.928866 0.928961 0.929032 0.929071 0.929083 0.929101 0.929167 0.929178 0.929266 0.929228 0.929178 0.92824 0.923721 0.910052 0.877904 0.817473 0.725405 0.604455 0.464763 0.323196 0.198539 0.106104 0.0494671 0.0207883 0.00824243 0.00317617 0.00120856 0.000457229 0.000172447 6.48968e-05 2.43742e-05 9.13575e-06 3.41649e-06 1.27447e-06 4.74102e-07 1.7582e-07 6.49796e-08 2.39251e-08 8.77247e-09 3.20238e-09 1.16314e-09 4.20079e-10 1.50613e-10 5.36235e-11 1.88463e-11 6.26032e-12 1.76137e-12 5.90294e-13 2.16729e-13 -3.8332e-14 7.68456e-13 2.79813e-13 -3.09192e-14 -2.46215e-13 1.77498e-13 2.48481e-13 0 0 -1.71574e-14 -1.94242e-14 -4.43558e-14 -3.82201e-14 -2.12118e-14 -5.96816e-14 -1.57845e-14 -7.17407e-14 -2.9812e-14 -5.58977e-14 -4.56886e-14 4.98881e-14 2.78206e-14 -7.64174e-14 2.57524e-14 -7.48932e-14 -5.76813e-14 4.81021e-14 -3.26948e-14 -8.86521e-14 -1.45933e-13 2.11593e-14 -2.71302e-13 -3.10022e-14 -1.0306e-13 -1.26004e-13 -2.96819e-13 -1.84876e-13 -4.49271e-15 1.26919e-13 -3.55254e-13 -1.53772e-13 -1.82486e-13 -1.80233e-13 -1.7525e-13 -1.99732e-14 -6.4736e-14 4.6894e-14 -1.72639e-13 -1.54794e-13 1.9762e-12 1.2565e-11 7.42485e-11 4.15231e-10 2.20544e-09 1.1095e-08 5.27682e-08 2.36579e-07 9.96992e-07 3.93626e-06 1.45046e-05 4.9664e-05 0.000157208 0.00045736 0.0012151 0.00292936 0.0063768 0.0125054 0.0221269 0.0355529 0.0524473 0.0720209 0.093398 0.115883 0.139027 0.162561 0.186348 0.210317 0.234412 0.258585 0.282803 0.307033 0.331253 0.355453 0.379622 0.40375 0.42783 0.451853 0.475809 0.499692 0.52349 0.547193 0.570791 0.59427 0.617617 0.640816 0.663851 0.686705 0.709356 0.731786 0.753973 0.775896 0.797539 0.818889 0.839944 0.860716 0.881239 0.90156 0.922084 0.939634 0.939872 0.939524 0.938695 0.937629 0.936423 0.935151 0.933904 0.932729 0.931631 0.930704 0.929909 0.929233 0.928675 0.92825 0.928008 0.9278 0.927675 0.927577 0.92751 0.927462 0.927414 0.927369 0.927312 0.927266 0.927264 0.927203 0.927408 0.927216 0.928218 0.909924 0.938202 0.922552 0.927721 0.928686 0.92899 0.928874 0.928796 0.92881 0.928849 0.928866 0.928858 0.928831 0.928816 0.928866 0.928961 0.929032 0.929071 0.929083 0.929101 0.929167 0.929178 0.929266 0.929228 0.929178 0.92824 0.923721 0.910052 0.877904 0.817473 0.725405 0.604455 0.464763 0.323196 0.198539 0.106104 0.0494671 0.0207883 0.00824243 0.00317617 0.00120856 0.000457229 0.000172447 6.48968e-05 2.43742e-05 9.13575e-06 3.41649e-06 1.27447e-06 4.74102e-07 1.7582e-07 6.49795e-08 2.39247e-08 8.77292e-09 3.20254e-09 1.16339e-09 4.20155e-10 1.50634e-10 5.36286e-11 1.88277e-11 6.41696e-12 1.53887e-12 1.94089e-13 5.33423e-13 -2.9533e-13 5.29599e-13 -2.82288e-13 4.87977e-13 -4.08226e-13 -7.10357e-13 2.53436e-13 0 0 -1.7559e-14 -1.25607e-14 -4.93692e-14 -4.34616e-14 -5.38615e-14 -2.46532e-14 -4.52649e-14 -3.09303e-14 -1.57454e-14 -8.25539e-14 4.11121e-14 1.15469e-14 -1.10074e-13 -6.47248e-14 -1.77541e-14 -1.21792e-14 8.84737e-14 -2.85727e-14 -1.01635e-13 -2.1882e-13 2.55785e-14 -1.00585e-13 -2.61152e-13 1.15568e-13 -2.24889e-13 -1.70958e-13 -3.69595e-13 -5.9517e-14 5.6012e-14 -1.04407e-13 -2.5211e-13 -8.58595e-14 -3.00328e-14 -4.05133e-13 -7.52985e-14 -2.76808e-14 -2.90708e-16 2.45654e-14 -2.75975e-13 1.34184e-14 1.88017e-12 1.28454e-11 7.43555e-11 4.15278e-10 2.20518e-09 1.10956e-08 5.27677e-08 2.36579e-07 9.96992e-07 3.93626e-06 1.45046e-05 4.9664e-05 0.000157208 0.00045736 0.0012151 0.00292936 0.0063768 0.0125054 0.0221269 0.0355529 0.0524473 0.0720209 0.093398 0.115883 0.139027 0.162561 0.186348 0.210317 0.234412 0.258585 0.282803 0.307033 0.331253 0.355453 0.379622 0.40375 0.42783 0.451853 0.475809 0.499692 0.52349 0.547193 0.570791 0.59427 0.617617 0.640816 0.663851 0.686705 0.709356 0.731786 0.753973 0.775896 0.797539 0.818889 0.839944 0.860716 0.881239 0.90156 0.922084 0.939634 0.939872 0.939524 0.938695 0.937629 0.936423 0.935151 0.933904 0.932729 0.931631 0.930704 0.929909 0.929233 0.928675 0.92825 0.928008 0.9278 0.927675 0.927577 0.92751 0.927462 0.927414 0.927369 0.927312 0.927266 0.927264 0.927203 0.927408 0.927216 0.928218 0.909924 0.938202 0.922552 0.927721 0.928686 0.92899 0.928874 0.928796 0.92881 0.928849 0.928866 0.928858 0.928831 0.928816 0.928866 0.928961 0.929032 0.929071 0.929083 0.929101 0.929167 0.929178 0.929266 0.929228 0.929178 0.92824 0.923721 0.910052 0.877904 0.817473 0.725405 0.604455 0.464763 0.323196 0.198539 0.106104 0.0494671 0.0207883 0.00824243 0.00317617 0.00120856 0.000457229 0.000172447 6.48968e-05 2.43742e-05 9.13575e-06 3.41649e-06 1.27447e-06 4.74102e-07 1.7582e-07 6.49795e-08 2.39247e-08 8.7732e-09 3.20203e-09 1.16321e-09 4.20049e-10 1.50916e-10 5.33195e-11 1.85026e-11 6.62981e-12 1.78681e-12 -7.55969e-14 3.01535e-13 -2.68182e-13 -2.97194e-13 -8.81259e-16 -9.93034e-14 5.45508e-13 -3.97622e-13 -3.37265e-13 0 0 -1.33675e-14 -3.38336e-14 -8.06356e-15 -5.46329e-14 -7.40939e-14 -1.21747e-14 -1.02766e-13 1.47029e-14 3.11346e-14 -1.73297e-14 -1.63103e-13 -4.75179e-14 3.46395e-14 2.28238e-15 -2.16218e-13 9.24648e-14 -8.19045e-14 9.98865e-14 -3.55634e-14 -3.67923e-14 -1.39949e-13 -2.67931e-13 1.68696e-13 -2.69134e-13 4.2289e-14 -5.47666e-13 6.85544e-14 -6.94051e-14 -4.29307e-13 -1.69449e-13 2.05804e-13 -4.37194e-13 4.91499e-14 4.33969e-14 -6.50148e-13 1.698e-13 1.90884e-13 -3.34029e-13 -1.66626e-13 4.35686e-13 2.13635e-12 1.25866e-11 7.41235e-11 4.15396e-10 2.20532e-09 1.1095e-08 5.27684e-08 2.36579e-07 9.96992e-07 3.93626e-06 1.45046e-05 4.9664e-05 0.000157208 0.00045736 0.0012151 0.00292936 0.0063768 0.0125054 0.0221269 0.0355529 0.0524473 0.0720209 0.093398 0.115883 0.139027 0.162561 0.186348 0.210317 0.234412 0.258585 0.282803 0.307033 0.331253 0.355453 0.379622 0.40375 0.42783 0.451853 0.475809 0.499692 0.52349 0.547193 0.570791 0.59427 0.617617 0.640816 0.663851 0.686705 0.709356 0.731786 0.753973 0.775896 0.797539 0.818889 0.839944 0.860716 0.881239 0.90156 0.922084 0.939634 0.939872 0.939524 0.938695 0.937629 0.936423 0.935151 0.933904 0.932729 0.931631 0.930704 0.929909 0.929233 0.928675 0.92825 0.928008 0.9278 0.927675 0.927577 0.92751 0.927462 0.927414 0.927369 0.927312 0.927266 0.927264 0.927203 0.927408 0.927216 0.928218 0.909924 0.938202 0.922552 0.927721 0.928686 0.92899 0.928874 0.928796 0.92881 0.928849 0.928866 0.928858 0.928831 0.928816 0.928866 0.928961 0.929032 0.929071 0.929083 0.929101 0.929167 0.929178 0.929266 0.929228 0.929178 0.92824 0.923721 0.910052 0.877904 0.817473 0.725405 0.604455 0.464763 0.323196 0.198539 0.106104 0.0494671 0.0207883 0.00824243 0.00317617 0.00120856 0.000457229 0.000172447 6.48968e-05 2.43742e-05 9.13575e-06 3.41649e-06 1.27447e-06 4.74102e-07 1.7582e-07 6.49799e-08 2.39257e-08 8.77307e-09 3.20144e-09 1.16279e-09 4.20149e-10 1.50678e-10 5.30653e-11 1.8888e-11 5.53896e-12 2.31366e-12 1.00646e-12 -5.27815e-13 1.31973e-13 -9.41646e-14 1.83236e-14 -7.153e-13 -2.93109e-13 7.64467e-13 -2.83027e-13 0
				</DataArray>
				<DataArray Name="VitesseY" type="Float32" format="ascii">