<?xml version="1.0"?>
<VTKFile type="PolyData">
	<PolyData>
		<Piece NumberOfPoints="1206" NumberOfPolys="1000">
			<Points>
				<DataArray type="Float32" NumberOfComponents="3" format="ascii">
 0 0 0 0.005 0 0 0.01 0 0 0.015 0 0 0.02 0 0 0.025 0 0 0.03 0 0 0.035 0 0 0.04 0 0 0.045 0 0 0.05 0 0 0.055 0 0 0.06 0 0 0.065 0 0 0.07 0 0 0.075 0 0 0.08 0 0 0.085 0 0 0.09 0 0 0.095 0 0 0.1 0 0 0.105 0 0 0.11 0 0 0.115 0 0 0.12 0 0 0.125 0 0 0.13 0 0 0.135 0 0 0.14 0 0 0.145 0 0 0.15 0 0 0.155 0 0 0.16 0 0 0.165 0 0 0.17 0 0 0.175 0 0 0.18 0 0 0.185 0 0 0.19 0 0 0.195 0 0 0.2 0 0 0.205 0 0 0.21 0 0 0.215 0 0 0.22 0 0 0.225 0 0 0.23 0 0 0.235 0 0 0.24 0 0 0.245 0 0 0.25 0 0 0.255 0 0 0.26 0 0 0.265 0 0 0.27 0 0 0.275 0 0 0.28 0 0 0.285 0 0 0.29 0 0 0.295 0 0 0.3 0 0 0.305 0 0 0.31 0 0 0.315 0 0 0.32 0 0 0.325 0 0 0.33 0 0 0.335 0 0 0.34 0 0 0.345 0 0 0.35 0 0 0.355 0 0 0.36 0 0 0.365 0 0 0.37 0 0 0.375 0 0 0.38 0 0 0.385 0 0 0.39 0 0 0.395 0 0 0.4 0 0 0.405 0 0 0.41 0 0 0.415 0 0 0.42 0 0 0.425 0 0 0.43 0 0 0.435 0 0 0.44 0 0 0.445 0 0 0.45 0 0 0.455 0 0 0.46 0 0 0.465 0 0 0.47 0 0 0.475 0 0 0.48 0 0 0.485 0 0 0.49 0 0 0.495 0 0 0.5 0 0 0.505 0 0 0.51 0 0 0.515 0 0 0.52 0 0 0.525 0 0 0.53 0 0 0.535 0 0 0.54 0 0 0.545 0 0 0.55 0 0 0.555 0 0 0.56 0 0 0.565 0 0 0.57 0 0 0.575 0 0 0.58 0 0 0.585 0 0 0.59 0 0 0.595 0 0 0.6 0 0 0.605 0 0 0.61 0 0 0.615 0 0 0.62 0 0 0.625 0 0 0.63 0 0 0.635 0 0 0.64 0 0 0.645 0 0 0.65 0 0 0.655 0 0 0.66 0 0 0.665 0 0 0.67 0 0 0.675 0 0 0.68 0 0 0.685 0 0 0.69 0 0 0.695 0 0 0.7 0 0 0.705 0 0 0.71 0 0 0.715 0 0 0.72 0 0 0.725 0 0 0.73 0 0 0.735 0 0 0.74 0 0 0.745 0 0 0.75 0 0 0.755 0 0 0.76 0 0 0.765 0 0 0.77 0 0 0.775 0 0 0.78 0 0 0.785 0 0 0.79 0 0 0.795 0 0 0.8 0 0 0.805 0 0 0.81 0 0 0.815 0 0 0.82 0 0 0.825 0 0 0.83 0 0 0.835 0 0 0.84 0 0 0.845 0 0 0.85 0 0 0.855 0 0 0.86 0 0 0.865 0 0 0.87 0 0 0.875 0 0 0.88 0 0 0.885 0 0 0.89 0 0 0.895 0 0 0.9 0 0 0.905 0 0 0.91 0 0 0.915 0 0 0.92 0 0 0.925 0 0 0.93 0 0 0.935 0 0 0.94 0 0 0.945 0 0 0.95 0 0 0.955 0 0 0.96 0 0 0.965 0 0 0.97 0 0 0.975 0 0 0.98 0 0 0.985 0 0 0.99 0 0 0.995 0 0 1 0 0 0 0.02 0 0.005 0.02 0 0.01 0.02 0 0.015 0.02 0 0.02 0.02 0 0.025 0.02 0 0.03 0.02 0 0.035 0.02 0 0.04 0.02 0 0.045 0.02 0 0.05 0.02 0 0.055 0.02 0 0.06 0.02 0 0.065 0.02 0 0.07 0.02 0 0.075 0.02 0 0.08 0.02 0 0.085 0.02 0 0.09 0.02 0 0.095 0.02 0 0.1 0.02 0 0.105 0.02 0 0.11 0.02 0 0.115 0.02 0 0.12 0.02 0 0.125 0.02 0 0.13 0.02 0 0.135 0.02 0 0.14 0.02 0 0.145 0.02 0 0.15 0.02 0 0.155 0.02 0 0.16 0.02 0 0.165 0.02 0 0.17 0.02 0 0.175 0.02 0 0.18 0.02 0 0.185 0.02 0 0.19 0.02 0 0.195 0.02 0 0.2 0.02 0 0.205 0.02 0 0.21 0.02 0 0.215 0.02 0 0.22 0.02 0 0.225 0.02 0 0.23 0.02 0 0.235 0.02 0 0.24 0.02 0 0.245 0.02 0 0.25 0.02 0 0.255 0.02 0 0.26 0.02 0 0.265 0.02 0 0.27 0.02 0 0.275 0.02 0 0.28 0.02 0 0.285 0.02 0 0.29 0.02 0 0.295 0.02 0 0.3 0.02 0 0.305 0.02 0 0.31 0.02 0 0.315 0.02 0 0.32 0.02 0 0.325 0.02 0 0.33 0.02 0 0.335 0.02 0 0.34 0.02 0 0.345 0.02 0 0.35 0.02 0 0.355 0.02 0 0.36 0.02 0 0.365 0.02 0 0.37 0.02 0 0.375 0.02 0 0.38 0.02 0 0.385 0.02 0 0.39 0.02 0 0.395 0.02 0 0.4 0.02 0 0.405 0.02 0 0.41 0.02 0 0.415 0.02 0 0.42 0.02 0 0.425 0.02 0 0.43 0.02 0 0.435 0.02 0 0.44 0.02 0 0.445 0.02 0 0.45 0.02 0 0.455 0.02 0 0.46 0.02 0 0.465 0.02 0 0.47 0.02 0 0.475 0.02 0 0.48 0.02 0 0.485 0.02 0 0.49 0.02 0 0.495 0.02 0 0.5 0.02 0 0.505 0.02 0 0.51 0.02 0 0.515 0.02 0 0.52 0.02 0 0.525 0.02 0 0.53 0.02 0 0.535 0.02 0 0.54 0.02 0 0.545 0.02 0 0.55 0.02 0 0.555 0.02 0 0.56 0.02 0 0.565 0.02 0 0.57 0.02 0 0.575 0.02 0 0.58 0.02 0 0.585 0.02 0 0.59 0.02 0 0.595 0.02 0 0.6 0.02 0 0.605 0.02 0 0.61 0.02 0 0.615 0.02 0 0.62 0.02 0 0.625 0.02 0 0.63 0.02 0 0.635 0.02 0 0.64 0.02 0 0.645 0.02 0 0.65 0.02 0 0.655 0.02 0 0.66 0.02 0 0.665 0.02 0 0.67 0.02 0 0.675 0.02 0 0.68 0.02 0 0.685 0.02 0 0.69 0.02 0 0.695 0.02 0 0.7 0.02 0 0.705 0.02 0 0.71 0.02 0 0.715 0.02 0 0.72 0.02 0 0.725 0.02 0 0.73 0.02 0 0.735 0.02 0 0.74 0.02 0 0.745 0.02 0 0.75 0.02 0 0.755 0.02 0 0.76 0.02 0 0.765 0.02 0 0.77 0.02 0 0.775 0.02 0 0.78 0.02 0 0.785 0.02 0 0.79 0.02 0 0.795 0.02 0 0.8 0.02 0 0.805 0.02 0 0.81 0.02 0 0.815 0.02 0 0.82 0.02 0 0.825 0.02 0 0.83 0.02 0 0.835 0.02 0 0.84 0.02 0 0.845 0.02 0 0.85 0.02 0 0.855 0.02 0 0.86 0.02 0 0.865 0.02 0 0.87 0.02 0 0.875 0.02 0 0.88 0.02 0 0.885 0.02 0 0.89 0.02 0 0.895 0.02 0 0.9 0.02 0 0.905 0.02 0 0.91 0.02 0 0.915 0.02 0 0.92 0.02 0 0.925 0.02 0 0.93 0.02 0 0.935 0.02 0 0.94 0.02 0 0.945 0.02 0 0.95 0.02 0 0.955 0.02 0 0.96 0.02 0 0.965 0.02 0 0.97 0.02 0 0.975 0.02 0 0.98 0.02 0 0.985 0.02 0 0.99 0.02 0 0.995 0.02 0 1 0.02 0 0 0.04 0 0.005 0.04 0 0.01 0.04 0 0.015 0.04 0 0.02 0.04 0 0.025 0.04 0 0.03 0.04 0 0.035 0.04 0 0.04 0.04 0 0.045 0.04 0 0.05 0.04 0 0.055 0.04 0 0.06 0.04 0 0.065 0.04 0 0.07 0.04 0 0.075 0.04 0 0.08 0.04 0 0.085 0.04 0 0.09 0.04 0 0.095 0.04 0 0.1 0.04 0 0.105 0.04 0 0.11 0.04 0 0.115 0.04 0 0.12 0.04 0 0.125 0.04 0 0.13 0.04 0 0.135 0.04 0 0.14 0.04 0 0.145 0.04 0 0.15 0.04 0 0.155 0.04 0 0.16 0.04 0 0.165 0.04 0 0.17 0.04 0 0.175 0.04 0 0.18 0.04 0 0.185 0.04 0 0.19 0.04 0 0.195 0.04 0 0.2 0.04 0 0.205 0.04 0 0.21 0.04 0 0.215 0.04 0 0.22 0.04 0 0.225 0.04 0 0.23 0.04 0 0.235 0.04 0 0.24 0.04 0 0.245 0.04 0 0.25 0.04 0 0.255 0.04 0 0.26 0.04 0 0.265 0.04 0 0.27 0.04 0 0.275 0.04 0 0.28 0.04 0 0.285 0.04 0 0.29 0.04 0 0.295 0.04 0 0.3 0.04 0 0.305 0.04 0 0.31 0.04 0 0.315 0.04 0 0.32 0.04 0 0.325 0.04 0 0.33 0.04 0 0.335 0.04 0 0.34 0.04 0 0.345 0.04 0 0.35 0.04 0 0.355 0.04 0 0.36 0.04 0 0.365 0.04 0 0.37 0.04 0 0.375 0.04 0 0.38 0.04 0 0.385 0.04 0 0.39 0.04 0 0.395 0.04 0 0.4 0.04 0 0.405 0.04 0 0.41 0.04 0 0.415 0.04 0 0.42 0.04 0 0.425 0.04 0 0.43 0.04 0 0.435 0.04 0 0.44 0.04 0 0.445 0.04 0 0.45 0.04 0 0.455 0.04 0 0.46 0.04 0 0.465 0.04 0 0.47 0.04 0 0.475 0.04 0 0.48 0.04 0 0.485 0.04 0 0.49 0.04 0 0.495 0.04 0 0.5 0.04 0 0.505 0.04 0 0.51 0.04 0 0.515 0.04 0 0.52 0.04 0 0.525 0.04 0 0.53 0.04 0 0.535 0.04 0 0.54 0.04 0 0.545 0.04 0 0.55 0.04 0 0.555 0.04 0 0.56 0.04 0 0.565 0.04 0 0.57 0.04 0 0.575 0.04 0 0.58 0.04 0 0.585 0.04 0 0.59 0.04 0 0.595 0.04 0 0.6 0.04 0 0.605 0.04 0 0.61 0.04 0 0.615 0.04 0 0.62 0.04 0 0.625 0.04 0 0.63 0.04 0 0.635 0.04 0 0.64 0.04 0 0.645 0.04 0 0.65 0.04 0 0.655 0.04 0 0.66 0.04 0 0.665 0.04 0 0.67 0.04 0 0.675 0.04 0 0.68 0.04 0 0.685 0.04 0 0.69 0.04 0 0.695 0.04 0 0.7 0.04 0 0.705 0.04 0 0.71 0.04 0 0.715 0.04 0 0.72 0.04 0 0.725 0.04 0 0.73 0.04 0 0.735 0.04 0 0.74 0.04 0 0.745 0.04 0 0.75 0.04 0 0.755 0.04 0 0.76 0.04 0 0.765 0.04 0 0.77 0.04 0 0.775 0.04 0 0.78 0.04 0 0.785 0.04 0 0.79 0.04 0 0.795 0.04 0 0.8 0.04 0 0.805 0.04 0 0.81 0.04 0 0.815 0.04 0 0.82 0.04 0 0.825 0.04 0 0.83 0.04 0 0.835 0.04 0 0.84 0.04 0 0.845 0.04 0 0.85 0.04 0 0.855 0.04 0 0.86 0.04 0 0.865 0.04 0 0.87 0.04 0 0.875 0.04 0 0.88 0.04 0 0.885 0.04 0 0.89 0.04 0 0.895 0.04 0 0.9 0.04 0 0.905 0.04 0 0.91 0.04 0 0.915 0.04 0 0.92 0.04 0 0.925 0.04 0 0.93 0.04 0 0.935 0.04 0 0.94 0.04 0 0.945 0.04 0 0.95 0.04 0 0.955 0.04 0 0.96 0.04 0 0.965 0.04 0 0.97 0.04 0 0.975 0.04 0 0.98 0.04 0 0.985 0.04 0 0.99 0.04 0 0.995 0.04 0 1 0.04 0 0 0.06 0 0.005 0.06 0 0.01 0.06 0 0.015 0.06 0 0.02 0.06 0 0.025 0.06 0 0.03 0.06 0 0.035 0.06 0 0.04 0.06 0 0.045 0.06 0 0.05 0.06 0 0.055 0.06 0 0.06 0.06 0 0.065 0.06 0 0.07 0.06 0 0.075 0.06 0 0.08 0.06 0 0.085 0.06 0 0.09 0.06 0 0.095 0.06 0 0.1 0.06 0 0.105 0.06 0 0.11 0.06 0 0.115 0.06 0 0.12 0.06 0 0.125 0.06 0 0.13 0.06 0 0.135 0.06 0 0.14 0.06 0 0.145 0.06 0 0.15 0.06 0 0.155 0.06 0 0.16 0.06 0 0.165 0.06 0 0.17 0.06 0 0.175 0.06 0 0.18 0.06 0 0.185 0.06 0 0.19 0.06 0 0.195 0.06 0 0.2 0.06 0 0.205 0.06 0 0.21 0.06 0 0.215 0.06 0 0.22 0.06 0 0.225 0.06 0 0.23 0.06 0 0.235 0.06 0 0.24 0.06 0 0.245 0.06 0 0.25 0.06 0 0.255 0.06 0 0.26 0.06 0 0.265 0.06 0 0.27 0.06 0 0.275 0.06 0 0.28 0.06 0 0.285 0.06 0 0.29 0.06 0 0.295 0.06 0 0.3 0.06 0 0.305 0.06 0 0.31 0.06 0 0.315 0.06 0 0.32 0.06 0 0.325 0.06 0 0.33 0.06 0 0.335 0.06 0 0.34 0.06 0 0.345 0.06 0 0.35 0.06 0 0.355 0.06 0 0.36 0.06 0 0.365 0.06 0 0.37 0.06 0 0.375 0.06 0 0.38 0.06 0 0.385 0.06 0 0.39 0.06 0 0.395 0.06 0 0.4 0.06 0 0.405 0.06 0 0.41 0.06 0 0.415 0.06 0 0.42 0.06 0 0.425 0.06 0 0.43 0.06 0 0.435 0.06 0 0.44 0.06 0 0.445 0.06 0 0.45 0.06 0 0.455 0.06 0 0.46 0.06 0 0.465 0.06 0 0.47 0.06 0 0.475 0.06 0 0.48 0.06 0 0.485 0.06 0 0.49 0.06 0 0.495 0.06 0 0.5 0.06 0 0.505 0.06 0 0.51 0.06 0 0.515 0.06 0 0.52 0.06 0 0.525 0.06 0 0.53 0.06 0 0.535 0.06 0 0.54 0.06 0 0.545 0.06 0 0.55 0.06 0 0.555 0.06 0 0.56 0.06 0 0.565 0.06 0 0.57 0.06 0 0.575 0.06 0 0.58 0.06 0 0.585 0.06 0 0.59 0.06 0 0.595 0.06 0 0.6 0.06 0 0.605 0.06 0 0.61 0.06 0 0.615 0.06 0 0.62 0.06 0 0.625 0.06 0 0.63 0.06 0 0.635 0.06 0 0.64 0.06 0 0.645 0.06 0 0.65 0.06 0 0.655 0.06 0 0.66 0.06 0 0.665 0.06 0 0.67 0.06 0 0.675 0.06 0 0.68 0.06 0 0.685 0.06 0 0.69 0.06 0 0.695 0.06 0 0.7 0.06 0 0.705 0.06 0 0.71 0.06 0 0.715 0.06 0 0.72 0.06 0 0.725 0.06 0 0.73 0.06 0 0.735 0.06 0 0.74 0.06 0 0.745 0.06 0 0.75 0.06 0 0.755 0.06 0 0.76 0.06 0 0.765 0.06 0 0.77 0.06 0 0.775 0.06 0 0.78 0.06 0 0.785 0.06 0 0.79 0.06 0 0.795 0.06 0 0.8 0.06 0 0.805 0.06 0 0.81 0.06 0 0.815 0.06 0 0.82 0.06 0 0.825 0.06 0 0.83 0.06 0 0.835 0.06 0 0.84 0.06 0 0.845 0.06 0 0.85 0.06 0 0.855 0.06 0 0.86 0.06 0 0.865 0.06 0 0.87 0.06 0 0.875 0.06 0 0.88 0.06 0 0.885 0.06 0 0.89 0.06 0 0.895 0.06 0 0.9 0.06 0 0.905 0.06 0 0.91 0.06 0 0.915 0.06 0 0.92 0.06 0 0.925 0.06 0 0.93 0.06 0 0.935 0.06 0 0.94 0.06 0 0.945 0.06 0 0.95 0.06 0 0.955 0.06 0 0.96 0.06 0 0.965 0.06 0 0.97 0.06 0 0.975 0.06 0 0.98 0.06 0 0.985 0.06 0 0.99 0.06 0 0.995 0.06 0 1 0.06 0 0 0.08 0 0.005 0.08 0 0.01 0.08 0 0.015 0.08 0 0.02 0.08 0 0.025 0.08 0 0.03 0.08 0 0.035 0.08 0 0.04 0.08 0 0.045 0.08 0 0.05 0.08 0 0.055 0.08 0 0.06 0.08 0 0.065 0.08 0 0.07 0.08 0 0.075 0.08 0 0.08 0.08 0 0.085 0.08 0 0.09 0.08 0 0.095 0.08 0 0.1 0.08 0 0.105 0.08 0 0.11 0.08 0 0.115 0.08 0 0.12 0.08 0 0.125 0.08 0 0.13 0.08 0 0.135 0.08 0 0.14 0.08 0 0.145 0.08 0 0.15 0.08 0 0.155 0.08 0 0.16 0.08 0 0.165 0.08 0
[...]
			<PointData Scalars="VitesseX">
				<DataArray Name="VitesseX" type="Float32" format="ascii">
 0 1.42562e-14 -6.42724e-16 -2.2005e-14 -6.42813e-15 1.93189e-14 -3.85927e-14 -1.84452e-14 2.32024e-14 4.04159e-14 7.06709e-14 -1.04464e-13 4.41106e-14 3.48512e-14 -1.83782e-13 4.3721e-14 -1.74159e-13 -2.418e-15 -7.57979e-14 -9.09398e-14 -4.57091e-15 3.27363e-14 -1.03198e-13 -1.53155e-13 -3.4196e-14 -7.294e-14 -2.30969e-13 -1.08937e-13 -8.79316e-14 -1.8379e-13 5.25905e-14 -1.92137e-13 -1.0584e-13 -2.45571e-13 -2.25979e-13 -4.67373e-15 -9.26462e-14 2.18139e-13 1.3203e-12 7.77223e-12 4.59509e-11 2.52245e-10 1.31976e-09 6.55206e-09 3.08254e-08 1.37111e-07 5.75095e-07 2.26784e-06 8.37956e-06 2.88977e-05 9.25911e-05 0.0002742 0.000746124 0.00185412 0.00418458 0.00854689 0.0157869 0.0264655 0.0405976 0.0576615 0.0768671 0.0974649 0.11891 0.140864 0.163127 0.185602 0.208231 0.230967 0.253775 0.276626 0.299495 0.322358 0.345209 0.368036 0.390834 0.413594 0.436311 0.458977 0.481585 0.504128 0.526599 0.548988 0.571287 0.593486 0.615573 0.637535 0.659361 0.681034 0.702539 0.723861 0.74498 0.765882 0.786549 0.80697 0.827138 0.847055 0.866734 0.886197 0.905415 0.925413 0.939411 0.939511 0.939158 0.938417 0.93749 0.936441 0.935304 0.934111 0.932937 0.931837 0.930852 0.930009 0.929332 0.928803 0.928366 0.928027 0.927788 0.927638 0.927496 0.927386 0.927296 0.927231 0.927193 0.927173 0.927166 0.927147 0.927125 0.927106 0.92704 0.927293 0.927069 0.927322 0.913489 0.934368 0.923339 0.928603 0.928575 0.928821 0.929041 0.929041 0.928997 0.928908 0.928791 0.928701 0.928677 0.928752 0.92885 0.928884 0.928901 0.928895 0.928889 0.928926 0.928977 0.929129 0.929129 0.929189 0.929164 0.929147 0.928917 0.926896 0.919413 0.8995 0.856497 0.783485 0.67922 0.549623 0.407479 0.270861 0.157997 0.080036 0.0356956 0.0146171 0.00572389 0.00219532 0.000834414 0.000315829 0.000119262 4.49567e-05 1.6919e-05 6.3563e-06 2.38348e-06 8.91866e-07 3.32937e-07 1.2396e-07 4.60194e-08 1.70292e-08 6.27955e-09 2.30631e-09 8.43309e-10 3.06872e-10 1.11279e-10 3.98342e-11 1.43836e-11 5.3336e-12 1.70453e-12 1.5074e-12 1.5579e-14 2.51032e-13 -2.34586e-13 -1.69755e-13 0 0 -9.53961e-15 -1.11581e-14 1.91087e-14 -3.02501e-14 -4.28375e-14 4.95503e-14 -1.47364e-14 -1.53454e-14 2.59299e-14 -1.66631e-14 1.02953e-13 6.82091e-15 -1.51799e-13 3.96132e-14 -7.6784e-14 2.85899e-14 -1.57208e-13 1.46724e-14 -8.46184e-14 -8.98876e-14 -3.32056e-14 5.60536e-14 -1.35859e-13 -1.57454e-13 -1.71139e-13 4.14172e-14 -2.36913e-13 -1.33304e-13 -2.02976e-14 -1.64108e-13 -1.38679e-13 -2.68438e-13 -2.76858e-15 -9.84992e-14 -2.15707e-13 6.43325e-14 6.56636e-14 1.26975e-12 7.88873e-12 4.58453e-11 2.52241e-10 1.31968e-09 6.55216e-09 3.08255e-08 1.37112e-07 5.75095e-07 2.26784e-06 8.37956e-06 2.88977e-05 9.25911e-05 0.0002742 0.000746124 0.00185412 0.00418458 0.00854689 0.0157869 0.0264655 0.0405976 0.0576615 0.0768671 0.0974649 0.11891 0.140864 0.163127 0.185602 0.208231 0.230967 0.253775 0.276626 0.299495 0.322358 0.345209 0.368036 0.390834 0.413594 0.436311 0.458977 0.481585 0.504128 0.526599 0.548988 0.571287 0.593486 0.615573 0.637535 0.659361 0.681034 0.702539 0.723861 0.74498 0.765882 0.786549 0.80697 0.827138 0.847055 0.866734 0.886197 0.905415 0.925412 0.939411 0.939511 0.939158 0.938417 0.93749 0.936441 0.935304 0.934111 0.932937 0.931837 0.930852 0.930009 0.929332 0.928803 0.928366 0.928027 0.927788 0.927638 0.927496 0.927386 0.927296 0.927231 0.927193 0.927173 0.927166 0.927147 0.927125 0.927106 0.92704 0.927293 0.927069 0.927322 0.913489 0.934368 0.923339 0.928603 0.928575 0.928821 0.929041 0.929041 0.928997 0.928908 0.928791 0.928701 0.928677 0.928752 0.92885 0.928884 0.928901 0.928895 0.928889 0.928926 0.928977 0.929129 0.929129 0.929189 0.929164 0.929147 0.928917 0.926896 0.919413 0.8995 0.856497 0.783485 0.67922 0.549623 0.407479 0.270861 0.157997 0.080036 0.0356956 0.0146171 0.00572389 0.00219532 0.000834414 0.000315829 0.000119262 4.49567e-05 1.6919e-05 6.3563e-06 2.38348e-06 8.91866e-07 3.32937e-07 1.23961e-07 4.6019e-08 1.70293e-08 6.27919e-09 2.30649e-09 8.43561e-10 3.07233e-10 1.1095e-10 3.99093e-11 1.42927e-11 5.24237e-12 2.15265e-12 1.08212e-13 7.83684e-13 1.73577e-13 -4.70423e-13 2.8404e-13 0 0 -6.07826e-15 -1.17502e-14 -2.0426e-14 2.54649e-16 -3.76706e-14 -1.41711e-14 -1.2293e-14 3.48231e-14 4.50297e-14 -1.46509e-14 -5.79227e-14 4.8137e-14 3.5207e-14 -1.49953e-13 8.94701e-14 -2.90845e-14 6.60587e-15 -8.41809e-14 -3.27273e-14 -3.25523e-14 -3.58525e-14 -1.56371e-13 -9.39067e-14 -3.53256e-14 -3.39886e-14 -1.86742e-13 -1.90583e-13 -1.7996e-13 -1.40164e-13 3.3685e-14 -2.36649e-13 -5.96883e-14 -1.57385e-13 -7.77177e-14 -2.84654e-15 3.2071e-15 1.09106e-14 1.13546e-12 7.77461e-12 4.60069e-11 2.52206e-10 1.31979e-09 6.5523e-09 3.08254e-08 1.37112e-07 5.75095e-07 2.26784e-06 8.37956e-06 2.88977e-05 9.25911e-05 0.0002742 0.000746124 0.00185412 0.00418458 0.00854689 0.0157869 0.0264655 0.0405976 0.0576615 0.0768671 0.0974649 0.11891 0.140864 0.163127 0.185602 0.208231 0.230967 0.253775 0.276626 0.299495 0.322358 0.345209 0.368036 0.390834 0.413594 0.436311 0.458977 0.481585 0.504128 0.526599 0.548988 0.571287 0.593486 0.615573 0.637535 0.659361 0.681034 0.702539 0.723861 0.74498 0.765882 0.786549 0.80697 0.827138 0.847055 0.866734 0.886197 0.905415 0.925412 0.939411 0.939511 0.939158 0.938417 0.93749 0.936441 0.935304 0.934111 0.932937 0.931837 0.930852 0.930009 0.929332 0.928803 0.928366 0.928027 0.927788 0.927638 0.927496 0.927386 0.927296 0.927231 0.927193 0.927173 0.927166 0.927147 0.927125 0.927106 0.92704 0.927293 0.927069 0.927322 0.913489 0.934368 0.923339 0.928603 0.928575 0.928821 0.929041 0.929041 0.928997 0.928908 0.928791 0.928701 0.928677 0.928752 0.92885 0.928884 0.928901 0.928895 0.928889 0.928926 0.928977 0.929129 0.929129 0.929189 0.929164 0.929147 0.928917 0.926896 0.919413 0.8995 0.856497 0.783485 0.67922 0.549623 0.407479 0.270861 0.157997 0.080036 0.0356956 0.0146171 0.00572389 0.00219532 0.000834414 0.000315829 0.000119262 4.49567e-05 1.6919e-05 6.3563e-06 2.38348e-06 8.91866e-07 3.32937e-07 1.23961e-07 4.60193e-08 1.70292e-08 6.27973e-09 2.30657e-09 8.43642e-10 3.0695e-10 1.1103e-10 3.99661e-11 1.42755e-11 5.17898e-12 1.85127e-12 7.35039e-13 -3.65044e-13 -2.36555e-14 2.40678e-13 2.56319e-13 0 0 -5.18692e-15 -1.67087e-14 -2.65004e-14 -2.12861e-14 -6.95625e-15 -1.04379e-14 -5.84922e-14 1.34563e-14 -8.47284e-15 2.23564e-14 -9.32023e-15 7.3187e-14 2.85539e-14 -9.1096e-14 5.59148e-14 -1.0906e-13 4.54333e-14 6.93097e-14 -3.68444e-14 -1.63257e-13 -5.54549e-15 -9.70752e-14 -3.55723e-14 7.09941e-14 -1.36973e-13 -1.97789e-13 -2.25832e-13 -5.62199e-14 -1.84186e-13 -6.67803e-14 -1.78717e-13 -6.83426e-14 -5.56952e-14 -1.88023e-13 3.86758e-14 -5.67162e-14 5.04374e-14 1.09035e-12 7.76042e-12 4.61081e-11 2.52564e-10 1.31989e-09 6.55213e-09 3.08254e-08 1.37112e-07 5.75095e-07 2.26784e-06 8.37956e-06 2.88977e-05 9.25911e-05 0.0002742 0.000746124 0.00185412 0.00418458 0.00854689 0.0157869 0.0264655 0.0405976 0.0576615 0.0768671 0.0974649 0.11891 0.140864 0.163127 0.185602 0.208231 0.230967 0.253775 0.276626 0.299495 0.322358 0.345209 0.368036 0.390834 0.413594 0.436311 0.458977 0.481585 0.504128 0.526599 0.548988 0.571287 0.593486 0.615573 0.637535 0.659361 0.681034 0.702539 0.723861 0.74498 0.765882 0.786549 0.80697 0.827138 0.847055 0.866734 0.886197 0.905415 0.925413 0.939411 0.939511 0.939158 0.938417 0.93749 0.936441 0.935304 0.934111 0.932937 0.931837 0.930852 0.930009 0.929332 0.928803 0.928366 0.928027 0.927788 0.927638 0.927496 0.927386 0.927296 0.927231 0.927193 0.927173 0.927166 0.927147 0.927125 0.927106 0.92704 0.927293 0.927069 0.927322 0.913489 0.934368 0.923339 0.928603 0.928575 0.928821 0.929041 0.929041 0.928997 0.928908 0.928791 0.928701 0.928677 0.928752 0.92885 0.928884 0.928901 0.928895 0.928889 0.928926 0.928977 0.929129 0.929129 0.929189 0.929164 0.929147 0.928917 0.926896 0.919413 0.8995 0.856497 0.783485 0.67922 0.549623 0.407479 0.270861 0.157997 0.080036 0.0356956 0.0146171 0.00572389 0.00219532 0.000834414 0.000315829 0.000119262 4.49567e-05 1.6919e-05 6.3563e-06 2.38348e-06 8.91866e-07 3.32937e-07 1.2396e-07 4.60194e-08 1.70296e-08 6.27954e-09 2.30671e-09 8.43702e-10 3.068e-10 1.11175e-10 4.01467e-11 1.4182e-11 4.82823e-12 1.39216e-12 1.24906e-12 -1.99645e-13 -1.6367e-13 9.09241e-14 -2.03778e-13 0 0 -2.03014e-14 -2.91046e-14 6.90695e-15 -3.67166e-14 -4.55257e-14 4.52205e-14 -1.46739e-14 -2.4084e-14 7.58484e-15 -3.57048e-14 1.34944e-13 -1.34392e-14 -9.74228e-14 1.13446e-13 -8.44173e-14 7.5076e-14 -8.98233e-14 2.0255e-13 -5.93457e-14 -1.52554e-13 -5.52161e-14 3.79197e-14 -7.21294e-14 -6.81404e-14 -2.11226e-13 5.72963e-14 -1.90151e-13 -2.01041e-13 5.5748e-14 -2.60536e-13 -1.01834e-13 -2.69022e-13 1.34267e-13 -6.57727e-14 -3.40262e-13 -2.37673e-14 1.14138e-13 1.01057e-12 7.86739e-12 4.59089e-11 2.52697e-10 1.31993e-09 6.55219e-09 3.08255e-08 1.37112e-07 5.75095e-07 2.26784e-06 8.37956e-06 2.88977e-05 9.25911e-05 0.0002742 0.000746124 0.00185412 0.00418458 0.00854689 0.0157869 0.0264655 0.0405976 0.0576615 0.0768671 0.0974649 0.11891 0.140864 0.163127 0.185602 0.208231 0.230967 0.253775 0.276626 0.299495 0.322358 0.345209 0.368036 0.390834 0.413594 0.436311 0.458977 0.481585 0.504128 0.526599 0.548988 0.571287 0.593486 0.615573 0.637535 0.659361 0.681034 0.702539 0.723861 0.74498 0.765882 0.786549 0.80697 0.827138 0.847055 0.866734 0.886197 0.905415 0.925413 0.939411 0.939511 0.939158 0.938417 0.93749 0.936441 0.935304 0.934111 0.932937 0.931836 0.930852 0.930009 0.929332 0.928803 0.928366 0.928027 0.927788 0.927638 0.927496 0.927386 0.927296 0.927231 0.927193 0.927173 0.927166 0.927147 0.927125 0.927106 0.92704 0.927293 0.927069 0.927322 0.913489 0.934368 0.923339 0.928603 0.928575 0.928821 0.929041 0.929041 0.928997 0.928908 0.928791 0.928701 0.928677 0.928752 0.92885 0.928884 0.928901 0.928895 0.928889 0.928926 0.928977 0.929129 0.929129 0.929189 0.929164 0.929147 0.928917 0.926896 0.919413 0.8995 0.856497 0.783485 0.67922 0.549623 0.407479 0.270861 0.157997 0.080036 0.0356956 0.0146171 0.00572389 0.00219532 0.000834414 0.000315829 0.000119262 4.49567e-05 1.6919e-05 6.3563e-06 2.38348e-06 8.91866e-07 3.32937e-07 1.23961e-07 4.6019e-08 1.70297e-08 6.27923e-09 2.30662e-09 8.43572e-10 3.07277e-10 1.10833e-10 3.99547e-11 1.41254e-11 4.79222e-12 1.04952e-12 -4.82698e-14 7.78634e-13 -6.12702e-14 -1.96697e-13 -1.7656e-13 0 0 -9.05006e-15 -2.66187e-14 -3.42596e-14 2.37203e-14 -4.74862e-14 -5.47188e-14 7.40782e-14 4.84586e-14 1.10731e-13 -4.1427e-14 -1.37686e-13 -4.65097e-14 1.5691e-13 -1.53831e-13 9.55647e-14 7.87638e-14 5.46956e-14 -7.0247e-15 -3.21602e-14 1.31505e-13 -7.18988e-14 -2.58058e-13 -1.42364e-13 -6.82087e-14 5.28556e-14 -1.77117e-13 5.50866e-14 -4.70886e-13 5.63454e-14 6.06652e-14 -2.34311e-13 -8.97003e-14 -1.74877e-13 6.00839e-14 -3.36828e-13 -1.48999e-13 2.36034e-13 8.92172e-13 7.75795e-12 4.58756e-11 2.52441e-10 1.32004e-09 6.55246e-09 3.08254e-08 1.37112e-07 5.75095e-07 2.26784e-06 8.37956e-06 2.88977e-05 9.25911e-05 0.0002742 0.000746124 0.00185412 0.00418458 0.00854689 0.0157869 0.0264655 0.0405976 0.0576615 0.0768671 0.0974649 0.11891 0.140864 0.163127 0.185602 0.208231 0.230967 0.253775 0.276626 0.299495 0.322358 0.345209 0.368036 0.390834 0.413594 0.436311 0.458977 0.481585 0.504128 0.526599 0.548988 0.571287 0.593486 0.615573 0.637535 0.659361 0.681034 0.702539 0.723861 0.74498 0.765882 0.786549 0.80697 0.827138 0.847055 0.866734 0.886197 0.905415 0.925412 0.939411 0.939511 0.939158 0.938417 0.93749 0.936441 0.935304 0.934111 0.932937 0.931837 0.930852 0.930009 0.929332 0.928803 0.928366 0.928027 0.927788 0.927638 0.927496 0.927386 0.927296 0.927231 0.927193 0.927173 0.927166 0.927147 0.927125 0.927106 0.92704 0.927293 0.927069 0.927322 0.913489 0.934368 0.923339 0.928604 0.928575 0.928821 0.929041 0.929041 0.928997 0.928908 0.928791 0.928701 0.928677 0.928752 0.92885 0.928884 0.928901 0.928895 0.928889 0.928926 0.928977 0.929129 0.929129 0.929189 0.929164 0.929147 0.928917 0.926896 0.919413 0.8995 0.856497 0.783485 0.67922 0.549623 0.407479 0.270861 0.157997 0.080036 0.0356956 0.0146171 0.00572389 0.00219532 0.000834414 0.000315829 0.000119262 4.49567e-05 1.6919e-05 6.3563e-06 2.38348e-06 8.91865e-07 3.32937e-07 1.23961e-07 4.60191e-08 1.70292e-08 6.28e-09 2.3063e-09 8.43211e-10 3.07259e-10 1.10754e-10 3.95637e-11 1.4236e-11 5.13477e-12 4.16474e-13 1.66382e-13 -3.25317e-13 6.13682e-14 6.12373e-13 -1.70761e-13 0
				</DataArray>
				<DataArray Name="VitesseY" type="Float32" format="ascii">