<?xml version="1.0"?>
<VTKFile type="PolyData">
	<PolyData>
		<Piece NumberOfPoints="1206" NumberOfPolys="1000">
			<Points>
				<DataArray type="Float32" NumberOfComponents="3" format="ascii">
 0 0 0 0.005 0 0 0.01 0 0 0.015 0 0 0.02 0 0 0.025 0 0 0.03 0 0 0.035 0 0 0.04 0 0 0.045 0 0 0.05 0 0 0.055 0 0 0.06 0 0 0.065 0 0 0.07 0 0 0.075 0 0 0.08 0 0 0.085 0 0 0.09 0 0 0.095 0 0 0.1 0 0 0.105 0 0 0.11 0 0 0.115 0 0 0.12 0 0 0.125 0 0 0.13 0 0 0.135 0 0 0.14 0 0 0.145 0 0 0.15 0 0 0.155 0 0 0.16 0 0 0.165 0 0 0.17 0 0 0.175 0 0 0.18 0 0 0.185 0 0 0.19 0 0 0.195 0 0 0.2 0 0 0.205 0 0 0.21 0 0 0.215 0 0 0.22 0 0 0.225 0 0 0.23 0 0 0.235 0 0 0.24 0 0 0.245 0 0 0.25 0 0 0.255 0 0 0.26 0 0 0.265 0 0 0.27 0 0 0.275 0 0 0.28 0 0 0.285 0 0 0.29 0 0 0.295 0 0 0.3 0 0 0.305 0 0 0.31 0 0 0.315 0 0 0.32 0 0 0.325 0 0 0.33 0 0 0.335 0 0 0.34 0 0 0.345 0 0 0.35 0 0 0.355 0 0 0.36 0 0 0.365 0 0 0.37 0 0 0.375 0 0 0.38 0 0 0.385 0 0 0.39 0 0 0.395 0 0 0.4 0 0 0.405 0 0 0.41 0 0 0.415 0 0 0.42 0 0 0.425 0 0 0.43 0 0 0.435 0 0 0.44 0 0 0.445 0 0 0.45 0 0 0.455 0 0 0.46 0 0 0.465 0 0 0.47 0 0 0.475 0 0 0.48 0 0 0.485 0 0 0.49 0 0 0.495 0 0 0.5 0 0 0.505 0 0 0.51 0 0 0.515 0 0 0.52 0 0 0.525 0 0 0.53 0 0 0.535 0 0 0.54 0 0 0.545 0 0 0.55 0 0 0.555 0 0 0.56 0 0 0.565 0 0 0.57 0 0 0.575 0 0 0.58 0 0 0.585 0 0 0.59 0 0 0.595 0 0 0.6 0 0 0.605 0 0 0.61 0 0 0.615 0 0 0.62 0 0 0.625 0 0 0.63 0 0 0.635 0 0 0.64 0 0 0.645 0 0 0.65 0 0 0.655 0 0 0.66 0 0 0.665 0 0 0.67 0 0 0.675 0 0 0.68 0 0 0.685 0 0 0.69 0 0 0.695 0 0 0.7 0 0 0.705 0 0 0.71 0 0 0.715 0 0 0.72 0 0 0.725 0 0 0.73 0 0 0.735 0 0 0.74 0 0 0.745 0 0 0.75 0 0 0.755 0 0 0.76 0 0 0.765 0 0 0.77 0 0 0.775 0 0 0.78 0 0 0.785 0 0 0.79 0 0 0.795 0 0 0.8 0 0 0.805 0 0 0.81 0 0 0.815 0 0 0.82 0 0 0.825 0 0 0.83 0 0 0.835 0 0 0.84 0 0 0.845 0 0 0.85 0 0 0.855 0 0 0.86 0 0 0.865 0 0 0.87 0 0 0.875 0 0 0.88 0 0 0.885 0 0 0.89 0 0 0.895 0 0 0.9 0 0 0.905 0 0 0.91 0 0 0.915 0 0 0.92 0 0 0.925 0 0 0.93 0 0 0.935 0 0 0.94 0 0 0.945 0 0 0.95 0 0 0.955 0 0 0.96 0 0 0.965 0 0 0.97 0 0 0.975 0 0 0.98 0 0 0.985 0 0 0.99 0 0 0.995 0 0 1 0 0 0 0.02 0 0.005 0.02 0 0.01 0.02 0 0.015 0.02 0 0.02 0.02 0 0.025 0.02 0 0.03 0.02 0 0.035 0.02 0 0.04 0.02 0 0.045 0.02 0 0.05 0.02 0 0.055 0.02 0 0.06 0.02 0 0.065 0.02 0 0.07 0.02 0 0.075 0.02 0 0.08 0.02 0 0.085 0.02 0 0.09 0.02 0 0.095 0.02 0 0.1 0.02 0 0.105 0.02 0 0.11 0.02 0 0.115 0.02 0 0.12 0.02 0 0.125 0.02 0 0.13 0.02 0 0.135 0.02 0 0.14 0.02 0 0.145 0.02 0 0.15 0.02 0 0.155 0.02 0 0.16 0.02 0 0.165 0.02 0 0.17 0.02 0 0.175 0.02 0 0.18 0.02 0 0.185 0.02 0 0.19 0.02 0 0.195 0.02 0 0.2 0.02 0 0.205 0.02 0 0.21 0.02 0 0.215 0.02 0 0.22 0.02 0 0.225 0.02 0 0.23 0.02 0 0.235 0.02 0 0.24 0.02 0 0.245 0.02 0 0.25 0.02 0 0.255 0.02 0 0.26 0.02 0 0.265 0.02 0 0.27 0.02 0 0.275 0.02 0 0.28 0.02 0 0.285 0.02 0 0.29 0.02 0 0.295 0.02 0 0.3 0.02 0 0.305 0.02 0 0.31 0.02 0 0.315 0.02 0 0.32 0.02 0 0.325 0.02 0 0.33 0.02 0 0.335 0.02 0 0.34 0.02 0 0.345 0.02 0 0.35 0.02 0 0.355 0.02 0 0.36 0.02 0 0.365 0.02 0 0.37 0.02 0 0.375 0.02 0 0.38 0.02 0 0.385 0.02 0 0.39 0.02 0 0.395 0.02 0 0.4 0.02 0 0.405 0.02 0 0.41 0.02 0 0.415 0.02 0 0.42 0.02 0 0.425 0.02 0 0.43 0.02 0 0.435 0.02 0 0.44 0.02 0 0.445 0.02 0 0.45 0.02 0 0.455 0.02 0 0.46 0.02 0 0.465 0.02 0 0.47 0.02 0 0.475 0.02 0 0.48 0.02 0 0.485 0.02 0 0.49 0.02 0 0.495 0.02 0 0.5 0.02 0 0.505 0.02 0 0.51 0.02 0 0.515 0.02 0 0.52 0.02 0 0.525 0.02 0 0.53 0.02 0 0.535 0.02 0 0.54 0.02 0 0.545 0.02 0 0.55 0.02 0 0.555 0.02 0 0.56 0.02 0 0.565 0.02 0 0.57 0.02 0 0.575 0.02 0 0.58 0.02 0 0.585 0.02 0 0.59 0.02 0 0.595 0.02 0 0.6 0.02 0 0.605 0.02 0 0.61 0.02 0 0.615 0.02 0 0.62 0.02 0 0.625 0.02 0 0.63 0.02 0 0.635 0.02 0 0.64 0.02 0 0.645 0.02 0 0.65 0.02 0 0.655 0.02 0 0.66 0.02 0 0.665 0.02 0 0.67 0.02 0 0.675 0.02 0 0.68 0.02 0 0.685 0.02 0 0.69 0.02 0 0.695 0.02 0 0.7 0.02 0 0.705 0.02 0 0.71 0.02 0 0.715 0.02 0 0.72 0.02 0 0.725 0.02 0 0.73 0.02 0 0.735 0.02 0 0.74 0.02 0 0.745 0.02 0 0.75 0.02 0 0.755 0.02 0 0.76 0.02 0 0.765 0.02 0 0.77 0.02 0 0.775 0.02 0 0.78 0.02 0 0.785 0.02 0 0.79 0.02 0 0.795 0.02 0 0.8 0.02 0 0.805 0.02 0 0.81 0.02 0 0.815 0.02 0 0.82 0.02 0 0.825 0.02 0 0.83 0.02 0 0.835 0.02 0 0.84 0.02 0 0.845 0.02 0 0.85 0.02 0 0.855 0.02 0 0.86 0.02 0 0.865 0.02 0 0.87 0.02 0 0.875 0.02 0 0.88 0.02 0 0.885 0.02 0 0.89 0.02 0 0.895 0.02 0 0.9 0.02 0 0.905 0.02 0 0.91 0.02 0 0.915 0.02 0 0.92 0.02 0 0.925 0.02 0 0.93 0.02 0 0.935 0.02 0 0.94 0.02 0 0.945 0.02 0 0.95 0.02 0 0.955 0.02 0 0.96 0.02 0 0.965 0.02 0 0.97 0.02 0 0.975 0.02 0 0.98 0.02 0 0.985 0.02 0 0.99 0.02 0 0.995 0.02 0 1 0.02 0 0 0.04 0 0.005 0.04 0 0.01 0.04 0 0.015 0.04 0 0.02 0.04 0 0.025 0.04 0 0.03 0.04 0 0.035 0.04 0 0.04 0.04 0 0.045 0.04 0 0.05 0.04 0 0.055 0.04 0 0.06 0.04 0 0.065 0.04 0 0.07 0.04 0 0.075 0.04 0 0.08 0.04 0 0.085 0.04 0 0.09 0.04 0 0.095 0.04 0 0.1 0.04 0 0.105 0.04 0 0.11 0.04 0 0.115 0.04 0 0.12 0.04 0 0.125 0.04 0 0.13 0.04 0 0.135 0.04 0 0.14 0.04 0 0.145 0.04 0 0.15 0.04 0 0.155 0.04 0 0.16 0.04 0 0.165 0.04 0 0.17 0.04 0 0.175 0.04 0 0.18 0.04 0 0.185 0.04 0 0.19 0.04 0 0.195 0.04 0 0.2 0.04 0 0.205 0.04 0 0.21 0.04 0 0.215 0.04 0 0.22 0.04 0 0.225 0.04 0 0.23 0.04 0 0.235 0.04 0 0.24 0.04 0 0.245 0.04 0 0.25 0.04 0 0.255 0.04 0 0.26 0.04 0 0.265 0.04 0 0.27 0.04 0 0.275 0.04 0 0.28 0.04 0 0.285 0.04 0 0.29 0.04 0 0.295 0.04 0 0.3 0.04 0 0.305 0.04 0 0.31 0.04 0 0.315 0.04 0 0.32 0.04 0 0.325 0.04 0 0.33 0.04 0 0.335 0.04 0 0.34 0.04 0 0.345 0.04 0 0.35 0.04 0 0.355 0.04 0 0.36 0.04 0 0.365 0.04 0 0.37 0.04 0 0.375 0.04 0 0.38 0.04 0 0.385 0.04 0 0.39 0.04 0 0.395 0.04 0 0.4 0.04 0 0.405 0.04 0 0.41 0.04 0 0.415 0.04 0 0.42 0.04 0 0.425 0.04 0 0.43 0.04 0 0.435 0.04 0 0.44 0.04 0 0.445 0.04 0 0.45 0.04 0 0.455 0.04 0 0.46 0.04 0 0.465 0.04 0 0.47 0.04 0 0.475 0.04 0 0.48 0.04 0 0.485 0.04 0 0.49 0.04 0 0.495 0.04 0 0.5 0.04 0 0.505 0.04 0 0.51 0.04 0 0.515 0.04 0 0.52 0.04 0 0.525 0.04 0 0.53 0.04 0 0.535 0.04 0 0.54 0.04 0 0.545 0.04 0 0.55 0.04 0 0.555 0.04 0 0.56 0.04 0 0.565 0.04 0 0.57 0.04 0 0.575 0.04 0 0.58 0.04 0 0.585 0.04 0 0.59 0.04 0 0.595 0.04 0 0.6 0.04 0 0.605 0.04 0 0.61 0.04 0 0.615 0.04 0 0.62 0.04 0 0.625 0.04 0 0.63 0.04 0 0.635 0.04 0 0.64 0.04 0 0.645 0.04 0 0.65 0.04 0 0.655 0.04 0 0.66 0.04 0 0.665 0.04 0 0.67 0.04 0 0.675 0.04 0 0.68 0.04 0 0.685 0.04 0 0.69 0.04 0 0.695 0.04 0 0.7 0.04 0 0.705 0.04 0 0.71 0.04 0 0.715 0.04 0 0.72 0.04 0 0.725 0.04 0 0.73 0.04 0 0.735 0.04 0 0.74 0.04 0 0.745 0.04 0 0.75 0.04 0 0.755 0.04 0 0.76 0.04 0 0.765 0.04 0 0.77 0.04 0 0.775 0.04 0 0.78 0.04 0 0.785 0.04 0 0.79 0.04 0 0.795 0.04 0 0.8 0.04 0 0.805 0.04 0 0.81 0.04 0 0.815 0.04 0 0.82 0.04 0 0.825 0.04 0 0.83 0.04 0 0.835 0.04 0 0.84 0.04 0 0.845 0.04 0 0.85 0.04 0 0.855 0.04 0 0.86 0.04 0 0.865 0.04 0 0.87 0.04 0 0.875 0.04 0 0.88 0.04 0 0.885 0.04 0 0.89 0.04 0 0.895 0.04 0 0.9 0.04 0 0.905 0.04 0 0.91 0.04 0 0.915 0.04 0 0.92 0.04 0 0.925 0.04 0 0.93 0.04 0 0.935 0.04 0 0.94 0.04 0 0.945 0.04 0 0.95 0.04 0 0.955 0.04 0 0.96 0.04 0 0.965 0.04 0 0.97 0.04 0 0.975 0.04 0 0.98 0.04 0 0.985 0.04 0 0.99 0.04 0 0.995 0.04 0 1 0.04 0 0 0.06 0 0.005 0.06 0 0.01 0.06 0 0.015 0.06 0 0.02 0.06 0 0.025 0.06 0 0.03 0.06 0 0.035 0.06 0 0.04 0.06 0 0.045 0.06 0 0.05 0.06 0 0.055 0.06 0 0.06 0.06 0 0.065 0.06 0 0.07 0.06 0 0.075 0.06 0 0.08 0.06 0 0.085 0.06 0 0.09 0.06 0 0.095 0.06 0 0.1 0.06 0 0.105 0.06 0 0.11 0.06 0 0.115 0.06 0 0.12 0.06 0 0.125 0.06 0 0.13 0.06 0 0.135 0.06 0 0.14 0.06 0 0.145 0.06 0 0.15 0.06 0 0.155 0.06 0 0.16 0.06 0 0.165 0.06 0 0.17 0.06 0 0.175 0.06 0 0.18 0.06 0 0.185 0.06 0 0.19 0.06 0 0.195 0.06 0 0.2 0.06 0 0.205 0.06 0 0.21 0.06 0 0.215 0.06 0 0.22 0.06 0 0.225 0.06 0 0.23 0.06 0 0.235 0.06 0 0.24 0.06 0 0.245 0.06 0 0.25 0.06 0 0.255 0.06 0 0.26 0.06 0 0.265 0.06 0 0.27 0.06 0 0.275 0.06 0 0.28 0.06 0 0.285 0.06 0 0.29 0.06 0 0.295 0.06 0 0.3 0.06 0 0.305 0.06 0 0.31 0.06 0 0.315 0.06 0 0.32 0.06 0 0.325 0.06 0 0.33 0.06 0 0.335 0.06 0 0.34 0.06 0 0.345 0.06 0 0.35 0.06 0 0.355 0.06 0 0.36 0.06 0 0.365 0.06 0 0.37 0.06 0 0.375 0.06 0 0.38 0.06 0 0.385 0.06 0 0.39 0.06 0 0.395 0.06 0 0.4 0.06 0 0.405 0.06 0 0.41 0.06 0 0.415 0.06 0 0.42 0.06 0 0.425 0.06 0 0.43 0.06 0 0.435 0.06 0 0.44 0.06 0 0.445 0.06 0 0.45 0.06 0 0.455 0.06 0 0.46 0.06 0 0.465 0.06 0 0.47 0.06 0 0.475 0.06 0 0.48 0.06 0 0.485 0.06 0 0.49 0.06 0 0.495 0.06 0 0.5 0.06 0 0.505 0.06 0 0.51 0.06 0 0.515 0.06 0 0.52 0.06 0 0.525 0.06 0 0.53 0.06 0 0.535 0.06 0 0.54 0.06 0 0.545 0.06 0 0.55 0.06 0 0.555 0.06 0 0.56 0.06 0 0.565 0.06 0 0.57 0.06 0 0.575 0.06 0 0.58 0.06 0 0.585 0.06 0 0.59 0.06 0 0.595 0.06 0 0.6 0.06 0 0.605 0.06 0 0.61 0.06 0 0.615 0.06 0 0.62 0.06 0 0.625 0.06 0 0.63 0.06 0 0.635 0.06 0 0.64 0.06 0 0.645 0.06 0 0.65 0.06 0 0.655 0.06 0 0.66 0.06 0 0.665 0.06 0 0.67 0.06 0 0.675 0.06 0 0.68 0.06 0 0.685 0.06 0 0.69 0.06 0 0.695 0.06 0 0.7 0.06 0 0.705 0.06 0 0.71 0.06 0 0.715 0.06 0 0.72 0.06 0 0.725 0.06 0 0.73 0.06 0 0.735 0.06 0 0.74 0.06 0 0.745 0.06 0 0.75 0.06 0 0.755 0.06 0 0.76 0.06 0 0.765 0.06 0 0.77 0.06 0 0.775 0.06 0 0.78 0.06 0 0.785 0.06 0 0.79 0.06 0 0.795 0.06 0 0.8 0.06 0 0.805 0.06 0 0.81 0.06 0 0.815 0.06 0 0.82 0.06 0 0.825 0.06 0 0.83 0.06 0 0.835 0.06 0 0.84 0.06 0 0.845 0.06 0 0.85 0.06 0 0.855 0.06 0 0.86 0.06 0 0.865 0.06 0 0.87 0.06 0 0.875 0.06 0 0.88 0.06 0 0.885 0.06 0 0.89 0.06 0 0.895 0.06 0 0.9 0.06 0 0.905 0.06 0 0.91 0.06 0 0.915 0.06 0 0.92 0.06 0 0.925 0.06 0 0.93 0.06 0 0.935 0.06 0 0.94 0.06 0 0.945 0.06 0 0.95 0.06 0 0.955 0.06 0 0.96 0.06 0 0.965 0.06 0 0.97 0.06 0 0.975 0.06 0 0.98 0.06 0 0.985 0.06 0 0.99 0.06 0 0.995 0.06 0 1 0.06 0 0 0.08 0 0.005 0.08 0 0.01 0.08 0 0.015 0.08 0 0.02 0.08 0 0.025 0.08 0 0.03 0.08 0 0.035 0.08 0 0.04 0.08 0 0.045 0.08 0 0.05 0.08 0 0.055 0.08 0 0.06 0.08 0 0.065 0.08 0 0.07 0.08 0 0.075 0.08 0 0.08 0.08 0 0.085 0.08 0 0.09 0.08 0 0.095 0.08 0 0.1 0.08 0 0.105 0.08 0 0.11 0.08 0 0.115 0.08 0 0.12 0.08 0 0.125 0.08 0 0.13 0.08 0 0.135 0.08 0 0.14 0.08 0 0.145 0.08 0 0.15 0.08 0 0.155 0.08 0 0.16 0.08 0 0.165 0.08 0
[...]
			<PointData Scalars="VitesseX">
				<DataArray Name="VitesseX" type="Float32" format="ascii">
 0 -1.27379e-14 -2.65584e-14 2.76278e-14 4.0832e-15 -1.86484e-15 2.94169e-14 -2.85207e-14 -1.51416e-14 1.37641e-14 4.82847e-14 -7.76983e-14 8.73771e-15 2.83148e-14 -5.21778e-14 -8.96585e-14 -1.04046e-13 -1.73264e-13 -9.06475e-14 -8.57466e-14 -1.5793e-13 -1.99046e-13 -1.78592e-14 -1.54215e-13 -1.88922e-13 -9.33484e-14 -1.90755e-13 -5.44251e-14 -7.44035e-14 -1.91172e-13 5.97023e-14 -1.98253e-14 -3.07337e-13 -1.63974e-13 -1.74673e-13 -3.22962e-13 2.59437e-14 -1.19184e-13 -6.08349e-14 -1.35149e-13 -6.27719e-14 9.92319e-14 -9.2854e-14 4.28485e-13 2.91121e-12 2.00777e-11 1.22428e-10 6.98295e-10 3.77127e-09 1.92444e-08 9.25353e-08 4.18072e-07 1.76906e-06 6.98512e-06 2.56264e-05 8.69199e-05 0.000270992 0.000771539 0.00199218 0.00463624 0.0096874 0.018166 0.0307082 0.0472498 0.0670819 0.0892277 0.112822 0.137273 0.162222 0.187479 0.212951 0.238568 0.264272 0.290021 0.315775 0.341512 0.367219 0.392883 0.418494 0.44404 0.469511 0.494895 0.520182 0.545356 0.570406 0.595314 0.620064 0.644636 0.669009 0.693161 0.717066 0.7407 0.764035 0.787049 0.809721 0.832042 0.854019 0.875685 0.897107 0.918371 0.939681 0.939921 0.939509 0.938683 0.937619 0.93644 0.935216 0.933935 0.93274 0.931662 0.930692 0.929842 0.929144 0.928656 0.928347 0.92815 0.927991 0.92787 0.927779 0.927686 0.927611 0.927547 0.927476 0.927432 0.927297 0.927483 0.92735 0.928639 0.90857 0.938887 0.92407 0.926472 0.927762 0.928585 0.928932 0.928999 0.928999 0.92897 0.928884 0.928833 0.928946 0.929085 0.929124 0.92913 0.929136 0.929161 0.929221 0.92926 0.929304 0.929281 0.929236 0.928918 0.926439 0.917636 0.894873 0.847133 0.768606 0.65894 0.525401 0.382166 0.247935 0.140612 0.0692326 0.0301889 0.0121935 0.0047353 0.00180594 0.000683129 0.000257321 9.66564e-05 3.62187e-05 1.35384e-05 5.04712e-06 1.87601e-06 6.95026e-07 2.56557e-07 9.43246e-08 3.45268e-08 1.25775e-08 4.55773e-09 1.64264e-09 5.87975e-10 2.09528e-10 7.31327e-11 2.55082e-11 8.9636e-12 2.33462e-12 1.11951e-12 2.45061e-13 1.76443e-13 3.85062e-14 3.0314e-13 5.99573e-13 2.53487e-13 -2.8288e-13 1.14678e-13 6.42163e-13 4.03089e-13 -2.45205e-13 4.45564e-13 0 0 1.96003e-15 -3.85066e-15 -1.33472e-14 1.43072e-14 -5.37361e-15 -1.1128e-14 -3.78794e-14 1.47355e-14 -6.65643e-16 -2.06278e-14 6.81652e-14 1.54389e-14 -1.09529e-13 -9.19632e-14 -3.07717e-14 -7.86177e-14 -5.38657e-14 -9.79046e-14 -1.52925e-13 -1.26418e-13 -2.24085e-14 -2.21255e-13 -1.35557e-13 -2.60646e-14 -2.161e-13 -6.6398e-14 -1.89038e-13 -1.84137e-13 7.12063e-14 -1.58023e-13 -8.5817e-14 -3.80049e-14 -2.10787e-13 -3.06655e-13 -2.40964e-14 -1.88372e-13 -5.90612e-14 -1.5897e-13 -6.11854e-14 -1.12279e-13 -2.46568e-13 1.98317e-13 3.45606e-13 3.10081e-12 2.005e-11 1.22459e-10 6.9806e-10 3.77144e-09 1.92446e-08 9.2535e-08 4.18073e-07 1.76906e-06 6.98512e-06 2.56264e-05 8.69199e-05 0.000270992 0.000771539 0.00199218 0.00463624 0.0096874 0.018166 0.0307082 0.0472498 0.0670819 0.0892277 0.112822 0.137273 0.162222 0.187479 0.212951 0.238568 0.264272 0.290021 0.315775 0.341512 0.367219 0.392883 0.418494 0.44404 0.469511 0.494895 0.520182 0.545356 0.570406 0.595314 0.620064 0.644636 0.669009 0.693161 0.717066 0.7407 0.764035 0.787049 0.809721 0.832042 0.854019 0.875685 0.897107 0.918371 0.939681 0.939921 0.939509 0.938683 0.937619 0.93644 0.935216 0.933935 0.93274 0.931662 0.930692 0.929842 0.929144 0.928656 0.928347 0.92815 0.927991 0.92787 0.927779 0.927686 0.927611 0.927547 0.927476 0.927432 0.927297 0.927483 0.92735 0.928639 0.90857 0.938887 0.92407 0.926472 0.927762 0.928585 0.928932 0.928999 0.928999 0.92897 0.928884 0.928833 0.928946 0.929085 0.929124 0.92913 0.929136 0.929161 0.929221 0.92926 0.929304 0.929281 0.929236 0.928918 0.926439 0.917636 0.894873 0.847133 0.768606 0.65894 0.525401 0.382166 0.247935 0.140612 0.0692326 0.0301889 0.0121935 0.0047353 0.00180594 0.000683129 0.000257321 9.66564e-05 3.62187e-05 1.35384e-05 5.04712e-06 1.87601e-06 6.95026e-07 2.56558e-07 9.43244e-08 3.45264e-08 1.25778e-08 4.55809e-09 1.64236e-09 5.88139e-10 2.08847e-10 7.3904e-11 2.5525e-11 8.53966e-12 3.01974e-12 3.37203e-13 1.25317e-13 -9.69592e-14 2.78274e-13 2.11788e-13 2.2807e-13 6.15572e-15 2.88681e-13 3.71205e-13 1.90701e-13 4.30154e-13 1.7774e-13 1.83999e-13 0 0 -2.59964e-15 -1.94036e-14 -1.10555e-14 -3.42228e-14 -2.31684e-14 -1.25143e-14 -3.47418e-14 -2.76378e-14 -1.64248e-14 -1.60684e-14 -3.13645e-14 1.68821e-14 2.92084e-14 -9.42022e-14 -5.18939e-14 -3.00573e-14 -1.52804e-13 -1.01132e-14 -1.58515e-14 4.50731e-14 -1.11455e-13 -2.29796e-13 -4.81061e-14 -2.14801e-13 -2.44751e-14 -1.77554e-13 -2.18937e-14 -3.18264e-13 -1.31744e-13 -6.50513e-14 -7.63376e-14 -1.8332e-13 -1.26605e-13 -2.39153e-14 -3.31663e-13 -4.89499e-14 -8.74406e-14 -1.83317e-13 -5.80798e-14 -5.56516e-14 -1.57701e-13 -1.24983e-13 3.54516e-13 3.08652e-12 2.03525e-11 1.22248e-10 6.98588e-10 3.77136e-09 1.92446e-08 9.25354e-08 4.18072e-07 1.76906e-06 6.98512e-06 2.56264e-05 8.69199e-05 0.000270992 0.000771539 0.00199218 0.00463624 0.0096874 0.018166 0.0307082 0.0472498 0.0670819 0.0892277 0.112822 0.137273 0.162222 0.187479 0.212951 0.238568 0.264272 0.290021 0.315775 0.341512 0.367219 0.392883 0.418494 0.44404 0.469511 0.494895 0.520182 0.545356 0.570406 0.595314 0.620064 0.644636 0.669009 0.693161 0.717066 0.7407 0.764035 0.787049 0.809721 0.832042 0.854019 0.875685 0.897107 0.918371 0.939681 0.939921 0.939509 0.938683 0.937619 0.93644 0.935216 0.933935 0.93274 0.931662 0.930692 0.929842 0.929144 0.928656 0.928347 0.92815 0.927991 0.92787 0.927779 0.927686 0.927611 0.927547 0.927476 0.927432 0.927297 0.927483 0.92735 0.928639 0.90857 0.938887 0.92407 0.926472 0.927762 0.928585 0.928932 0.928999 0.928999 0.92897 0.928884 0.928833 0.928946 0.929085 0.929124 0.92913 0.929136 0.929161 0.929221 0.92926 0.929304 0.929281 0.929236 0.928918 0.926439 0.917636 0.894873 0.847133 0.768606 0.65894 0.525401 0.382166 0.247935 0.140612 0.0692326 0.0301889 0.0121935 0.0047353 0.00180594 0.000683129 0.000257321 9.66564e-05 3.62187e-05 1.35384e-05 5.04712e-06 1.87601e-06 6.95026e-07 2.56557e-07 9.43245e-08 3.45265e-08 1.25777e-08 4.55808e-09 1.6426e-09 5.88186e-10 2.09183e-10 7.35687e-11 2.57017e-11 8.69126e-12 2.71878e-12 5.70703e-13 -1.90894e-13 -4.1609e-13 -1.5452e-13 7.38753e-13 2.30647e-13 2.42217e-13 3.36432e-13 5.0196e-13 -7.03088e-13 -1.54343e-13 6.40551e-13 -3.54217e-14 0 0 -1.66186e-14 -1.6119e-14 -4.68349e-14 -3.88519e-14 -3.90178e-14 -1.55439e-14 -1.65164e-14 -6.83224e-14 -4.66178e-14 -3.97193e-14 -2.37989e-14 3.8836e-14 3.80363e-14 -8.78962e-14 9.66403e-15 -3.07489e-14 -7.55437e-14 -3.13079e-14 -2.15409e-14 -9.86361e-14 -8.02613e-14 2.42404e-14 -2.80285e-13 -4.1875e-14 -9.54843e-14 -1.61616e-13 -2.98527e-13 -1.61721e-13 -1.0998e-14 -2.01502e-14 -2.2736e-13 -8.0906e-14 -2.6682e-13 -1.78793e-13 -1.72333e-13 -7.18859e-15 -7.20024e-14 -6.25251e-14 -1.35032e-13 -3.64708e-13 -1.10566e-13 -1.46744e-14 3.65055e-13 3.21848e-12 2.03633e-11 1.22625e-10 6.98455e-10 3.77146e-09 1.92445e-08 9.25354e-08 4.18073e-07 1.76906e-06 6.98512e-06 2.56264e-05 8.69199e-05 0.000270992 0.000771539 0.00199218 0.00463624 0.0096874 0.018166 0.0307082 0.0472498 0.0670819 0.0892277 0.112822 0.137273 0.162222 0.187479 0.212951 0.238568 0.264272 0.290021 0.315775 0.341512 0.367219 0.392883 0.418494 0.44404 0.469511 0.494895 0.520182 0.545356 0.570406 0.595314 0.620064 0.644636 0.669009 0.693161 0.717066 0.7407 0.764035 0.787049 0.809721 0.832042 0.854019 0.875685 0.897107 0.918371 0.939681 0.939921 0.939509 0.938683 0.937619 0.93644 0.935216 0.933935 0.93274 0.931662 0.930692 0.929842 0.929144 0.928656 0.928347 0.92815 0.927991 0.92787 0.927779 0.927686 0.927611 0.927547 0.927476 0.927432 0.927297 0.927483 0.92735 0.928639 0.90857 0.938887 0.92407 0.926472 0.927762 0.928585 0.928932 0.928999 0.928999 0.92897 0.928884 0.928833 0.928946 0.929085 0.929124 0.92913 0.929136 0.929161 0.929221 0.92926 0.929304 0.929281 0.929236 0.928918 0.926439 0.917636 0.894873 0.847133 0.768606 0.65894 0.525401 0.382166 0.247935 0.140612 0.0692326 0.0301889 0.0121935 0.0047353 0.00180594 0.000683129 0.000257321 9.66564e-05 3.62187e-05 1.35384e-05 5.04712e-06 1.87601e-06 6.95026e-07 2.56557e-07 9.43246e-08 3.45267e-08 1.25775e-08 4.558e-09 1.64248e-09 5.88286e-10 2.0943e-10 7.35363e-11 2.56117e-11 8.75808e-12 2.50878e-12 8.84524e-13 -8.80807e-14 -2.85697e-13 -3.9672e-13 5.26602e-14 6.39754e-13 7.60136e-13 -4.5444e-13 -2.71024e-13 -9.22456e-14 1.01701e-13 -2.91294e-13 -1.81352e-13 0 0 -1.36817e-14 -1.11458e-14 -4.94586e-14 -2.03766e-14 -4.13182e-14 -4.1023e-14 -5.64687e-14 -1.87672e-14 -1.43332e-14 -7.95815e-14 2.80786e-14 8.2322e-15 -1.07121e-13 -7.24592e-14 -2.94845e-14 1.7222e-14 7.58341e-14 -2.98706e-14 -1.33075e-13 -2.09047e-13 3.86863e-14 -1.02231e-13 -2.06038e-13 1.06266e-13 -2.09555e-13 -9.42103e-14 -4.13375e-13 -9.17587e-14 6.51071e-14 -2.346e-13 -1.46845e-13 -5.74672e-14 -1.72987e-13 -2.85137e-13 -1.60615e-14 -5.7139e-14 6.52397e-14 -1.98457e-13 -1.62869e-13 -2.98196e-13 -2.68696e-13 9.10175e-14 3.31045e-13 3.30141e-12 2.03617e-11 1.22799e-10 6.98305e-10 3.77167e-09 1.92448e-08 9.25351e-08 4.18073e-07 1.76906e-06 6.98512e-06 2.56264e-05 8.69199e-05 0.000270992 0.000771539 0.00199218 0.00463624 0.0096874 0.018166 0.0307082 0.0472498 0.0670819 0.0892277 0.112822 0.137273 0.162222 0.187479 0.212951 0.238568 0.264272 0.290021 0.315775 0.341512 0.367219 0.392883 0.418494 0.44404 0.469511 0.494895 0.520182 0.545356 0.570406 0.595314 0.620064 0.644636 0.669009 0.693161 0.717066 0.7407 0.764035 0.787049 0.809721 0.832042 0.854019 0.875685 0.897107 0.918371 0.939681 0.939921 0.939509 0.938683 0.937619 0.93644 0.935216 0.933935 0.93274 0.931662 0.930692 0.929842 0.929144 0.928656 0.928347 0.92815 0.927991 0.92787 0.927779 0.927686 0.927611 0.927547 0.927476 0.927432 0.927297 0.927483 0.92735 0.928639 0.90857 0.938887 0.92407 0.926472 0.927762 0.928585 0.928932 0.928999 0.928999 0.92897 0.928884 0.928833 0.928946 0.929085 0.929124 0.92913 0.929136 0.929161 0.929221 0.92926 0.929304 0.929281 0.929236 0.928918 0.926439 0.917636 0.894873 0.847133 0.768606 0.65894 0.525401 0.382166 0.247935 0.140612 0.0692326 0.0301889 0.0121935 0.0047353 0.00180594 0.000683129 0.000257321 9.66564e-05 3.62187e-05 1.35384e-05 5.04712e-06 1.87601e-06 6.95026e-07 2.56558e-07 9.43244e-08 3.45266e-08 1.25776e-08 4.55809e-09 1.64242e-09 5.88234e-10 2.09092e-10 7.39052e-11 2.55315e-11 8.3494e-12 2.75994e-12 3.54109e-13 1.88059e-13 1.48321e-14 -2.37118e-13 -1.7679e-13 -5.97084e-14 2.62938e-13 -3.9584e-13 -5.36251e-13 5.80468e-13 1.71844e-13 -2.75222e-13 -6.66957e-14 0 0 -1.59834e-14 -4.77177e-14 2.69638e-14 -5.60263e-14 -4.20553e-14 -2.4314e-14 -1.0215e-13 -7.77778e-16 4.68152e-14 -2.2321e-14 -1.73003e-13 -4.95836e-14 1.54753e-14 -2.57819e-14 -2.102e-13 8.90164e-14 -6.83849e-14 8.78099e-14 -3.46671e-14 -3.57694e-14 -1.39244e-13 -2.87884e-13 1.69181e-13 -2.70112e-13 6.17598e-14 -2.78256e-13 5.01689e-14 -2.02733e-13 -4.44862e-13 -1.83255e-13 1.60162e-13 -5.51089e-13 1.92054e-13 1.78117e-13 -6.25552e-13 2.04886e-13 9.85419e-14 -3.81392e-13 -1.84613e-13 1.83506e-13 -3.9294e-14 -5.28069e-13 3.78285e-13 3.0485e-12 2.06796e-11 1.22354e-10 6.99051e-10 3.77152e-09 1.92447e-08 9.25356e-08 4.18072e-07 1.76906e-06 6.98512e-06 2.56264e-05 8.69199e-05 0.000270992 0.000771539 0.00199218 0.00463624 0.0096874 0.018166 0.0307082 0.0472498 0.0670819 0.0892277 0.112822 0.137273 0.162222 0.187479 0.212951 0.238568 0.264272 0.290021 0.315775 0.341512 0.367219 0.392883 0.418494 0.44404 0.469511 0.494895 0.520182 0.545356 0.570406 0.595314 0.620064 0.644636 0.669009 0.693161 0.717066 0.7407 0.764035 0.787049 0.809721 0.832042 0.854019 0.875685 0.897107 0.918371 0.939681 0.939921 0.939509 0.938683 0.937619 0.93644 0.935216 0.933935 0.93274 0.931662 0.930692 0.929842 0.929144 0.928656 0.928347 0.92815 0.927991 0.92787 0.927779 0.927686 0.927611 0.927547 0.927476 0.927432 0.927297 0.927483 0.92735 0.928639 0.90857 0.938887 0.92407 0.926472 0.927762 0.928585 0.928932 0.928999 0.928999 0.92897 0.928884 0.928833 0.928946 0.929085 0.929124 0.92913 0.929136 0.929161 0.929221 0.92926 0.929304 0.929281 0.929236 0.928918 0.926439 0.917636 0.894873 0.847133 0.768606 0.65894 0.525401 0.382166 0.247935 0.140612 0.0692326 0.0301889 0.0121935 0.0047353 0.00180594 0.000683129 0.000257321 9.66564e-05 3.62187e-05 1.35384e-05 5.04712e-06 1.87601e-06 6.95026e-07 2.56558e-07 9.43243e-08 3.45267e-08 1.25777e-08 4.55788e-09 1.643e-09 5.87964e-10 2.09524e-10 7.31998e-11 2.57011e-11 8.44944e-12 2.23503e-12 5.2568e-13 1.64918e-13 1.3924e-13 -5.07878e-13 8.9817e-13 -7.94199e-13 -2.68788e-13 -7.0175e-14 -1.54266e-13 2.00013e-13 -6.25618e-13 7.1256e-13 2.36035e-13 0
				</DataArray>
				<DataArray Name="VitesseY" type="Float32" format="ascii">