<?xml version="1.0"?>
<VTKFile type="PolyData">
	<PolyData>
		<Piece NumberOfPoints="1206" NumberOfPolys="1000">
			<Points>
				<DataArray type="Float32" NumberOfComponents="3" format="ascii">
 0 0 0 0.005 0 0 0.01 0 0 0.015 0 0 0.02 0 0 0.025 0 0 0.03 0 0 0.035 0 0 0.04 0 0 0.045 0 0 0.05 0 0 0.055 0 0 0.06 0 0 0.065 0 0 0.07 0 0 0.075 0 0 0.08 0 0 0.085 0 0 0.09 0 0 0.095 0 0 0.1 0 0 0.105 0 0 0.11 0 0 0.115 0 0 0.12 0 0 0.125 0 0 0.13 0 0 0.135 0 0 0.14 0 0 0.145 0 0 0.15 0 0 0.155 0 0 0.16 0 0 0.165 0 0 0.17 0 0 0.175 0 0 0.18 0 0 0.185 0 0 0.19 0 0 0.195 0 0 0.2 0 0 0.205 0 0 0.21 0 0 0.215 0 0 0.22 0 0 0.225 0 0 0.23 0 0 0.235 0 0 0.24 0 0 0.245 0 0 0.25 0 0 0.255 0 0 0.26 0 0 0.265 0 0 0.27 0 0 0.275 0 0 0.28 0 0 0.285 0 0 0.29 0 0 0.295 0 0 0.3 0 0 0.305 0 0 0.31 0 0 0.315 0 0 0.32 0 0 0.325 0 0 0.33 0 0 0.335 0 0 0.34 0 0 0.345 0 0 0.35 0 0 0.355 0 0 0.36 0 0 0.365 0 0 0.37 0 0 0.375 0 0 0.38 0 0 0.385 0 0 0.39 0 0 0.395 0 0 0.4 0 0 0.405 0 0 0.41 0 0 0.415 0 0 0.42 0 0 0.425 0 0 0.43 0 0 0.435 0 0 0.44 0 0 0.445 0 0 0.45 0 0 0.455 0 0 0.46 0 0 0.465 0 0 0.47 0 0 0.475 0 0 0.48 0 0 0.485 0 0 0.49 0 0 0.495 0 0 0.5 0 0 0.505 0 0 0.51 0 0 0.515 0 0 0.52 0 0 0.525 0 0 0.53 0 0 0.535 0 0 0.54 0 0 0.545 0 0 0.55 0 0 0.555 0 0 0.56 0 0 0.565 0 0 0.57 0 0 0.575 0 0 0.58 0 0 0.585 0 0 0.59 0 0 0.595 0 0 0.6 0 0 0.605 0 0 0.61 0 0 0.615 0 0 0.62 0 0 0.625 0 0 0.63 0 0 0.635 0 0 0.64 0 0 0.645 0 0 0.65 0 0 0.655 0 0 0.66 0 0 0.665 0 0 0.67 0 0 0.675 0 0 0.68 0 0 0.685 0 0 0.69 0 0 0.695 0 0 0.7 0 0 0.705 0 0 0.71 0 0 0.715 0 0 0.72 0 0 0.725 0 0 0.73 0 0 0.735 0 0 0.74 0 0 0.745 0 0 0.75 0 0 0.755 0 0 0.76 0 0 0.765 0 0 0.77 0 0 0.775 0 0 0.78 0 0 0.785 0 0 0.79 0 0 0.795 0 0 0.8 0 0 0.805 0 0 0.81 0 0 0.815 0 0 0.82 0 0 0.825 0 0 0.83 0 0 0.835 0 0 0.84 0 0 0.845 0 0 0.85 0 0 0.855 0 0 0.86 0 0 0.865 0 0 0.87 0 0 0.875 0 0 0.88 0 0 0.885 0 0 0.89 0 0 0.895 0 0 0.9 0 0 0.905 0 0 0.91 0 0 0.915 0 0 0.92 0 0 0.925 0 0 0.93 0 0 0.935 0 0 0.94 0 0 0.945 0 0 0.95 0 0 0.955 0 0 0.96 0 0 0.965 0 0 0.97 0 0 0.975 0 0 0.98 0 0 0.985 0 0 0.99 0 0 0.995 0 0 1 0 0 0 0.02 0 0.005 0.02 0 0.01 0.02 0 0.015 0.02 0 0.02 0.02 0 0.025 0.02 0 0.03 0.02 0 0.035 0.02 0 0.04 0.02 0 0.045 0.02 0 0.05 0.02 0 0.055 0.02 0 0.06 0.02 0 0.065 0.02 0 0.07 0.02 0 0.075 0.02 0 0.08 0.02 0 0.085 0.02 0 0.09 0.02 0 0.095 0.02 0 0.1 0.02 0 0.105 0.02 0 0.11 0.02 0 0.115 0.02 0 0.12 0.02 0 0.125 0.02 0 0.13 0.02 0 0.135 0.02 0 0.14 0.02 0 0.145 0.02 0 0.15 0.02 0 0.155 0.02 0 0.16 0.02 0 0.165 0.02 0 0.17 0.02 0 0.175 0.02 0 0.18 0.02 0 0.185 0.02 0 0.19 0.02 0 0.195 0.02 0 0.2 0.02 0 0.205 0.02 0 0.21 0.02 0 0.215 0.02 0 0.22 0.02 0 0.225 0.02 0 0.23 0.02 0 0.235 0.02 0 0.24 0.02 0 0.245 0.02 0 0.25 0.02 0 0.255 0.02 0 0.26 0.02 0 0.265 0.02 0 0.27 0.02 0 0.275 0.02 0 0.28 0.02 0 0.285 0.02 0 0.29 0.02 0 0.295 0.02 0 0.3 0.02 0 0.305 0.02 0 0.31 0.02 0 0.315 0.02 0 0.32 0.02 0 0.325 0.02 0 0.33 0.02 0 0.335 0.02 0 0.34 0.02 0 0.345 0.02 0 0.35 0.02 0 0.355 0.02 0 0.36 0.02 0 0.365 0.02 0 0.37 0.02 0 0.375 0.02 0 0.38 0.02 0 0.385 0.02 0 0.39 0.02 0 0.395 0.02 0 0.4 0.02 0 0.405 0.02 0 0.41 0.02 0 0.415 0.02 0 0.42 0.02 0 0.425 0.02 0 0.43 0.02 0 0.435 0.02 0 0.44 0.02 0 0.445 0.02 0 0.45 0.02 0 0.455 0.02 0 0.46 0.02 0 0.465 0.02 0 0.47 0.02 0 0.475 0.02 0 0.48 0.02 0 0.485 0.02 0 0.49 0.02 0 0.495 0.02 0 0.5 0.02 0 0.505 0.02 0 0.51 0.02 0 0.515 0.02 0 0.52 0.02 0 0.525 0.02 0 0.53 0.02 0 0.535 0.02 0 0.54 0.02 0 0.545 0.02 0 0.55 0.02 0 0.555 0.02 0 0.56 0.02 0 0.565 0.02 0 0.57 0.02 0 0.575 0.02 0 0.58 0.02 0 0.585 0.02 0 0.59 0.02 0 0.595 0.02 0 0.6 0.02 0 0.605 0.02 0 0.61 0.02 0 0.615 0.02 0 0.62 0.02 0 0.625 0.02 0 0.63 0.02 0 0.635 0.02 0 0.64 0.02 0 0.645 0.02 0 0.65 0.02 0 0.655 0.02 0 0.66 0.02 0 0.665 0.02 0 0.67 0.02 0 0.675 0.02 0 0.68 0.02 0 0.685 0.02 0 0.69 0.02 0 0.695 0.02 0 0.7 0.02 0 0.705 0.02 0 0.71 0.02 0 0.715 0.02 0 0.72 0.02 0 0.725 0.02 0 0.73 0.02 0 0.735 0.02 0 0.74 0.02 0 0.745 0.02 0 0.75 0.02 0 0.755 0.02 0 0.76 0.02 0 0.765 0.02 0 0.77 0.02 0 0.775 0.02 0 0.78 0.02 0 0.785 0.02 0 0.79 0.02 0 0.795 0.02 0 0.8 0.02 0 0.805 0.02 0 0.81 0.02 0 0.815 0.02 0 0.82 0.02 0 0.825 0.02 0 0.83 0.02 0 0.835 0.02 0 0.84 0.02 0 0.845 0.02 0 0.85 0.02 0 0.855 0.02 0 0.86 0.02 0 0.865 0.02 0 0.87 0.02 0 0.875 0.02 0 0.88 0.02 0 0.885 0.02 0 0.89 0.02 0 0.895 0.02 0 0.9 0.02 0 0.905 0.02 0 0.91 0.02 0 0.915 0.02 0 0.92 0.02 0 0.925 0.02 0 0.93 0.02 0 0.935 0.02 0 0.94 0.02 0 0.945 0.02 0 0.95 0.02 0 0.955 0.02 0 0.96 0.02 0 0.965 0.02 0 0.97 0.02 0 0.975 0.02 0 0.98 0.02 0 0.985 0.02 0 0.99 0.02 0 0.995 0.02 0 1 0.02 0 0 0.04 0 0.005 0.04 0 0.01 0.04 0 0.015 0.04 0 0.02 0.04 0 0.025 0.04 0 0.03 0.04 0 0.035 0.04 0 0.04 0.04 0 0.045 0.04 0 0.05 0.04 0 0.055 0.04 0 0.06 0.04 0 0.065 0.04 0 0.07 0.04 0 0.075 0.04 0 0.08 0.04 0 0.085 0.04 0 0.09 0.04 0 0.095 0.04 0 0.1 0.04 0 0.105 0.04 0 0.11 0.04 0 0.115 0.04 0 0.12 0.04 0 0.125 0.04 0 0.13 0.04 0 0.135 0.04 0 0.14 0.04 0 0.145 0.04 0 0.15 0.04 0 0.155 0.04 0 0.16 0.04 0 0.165 0.04 0 0.17 0.04 0 0.175 0.04 0 0.18 0.04 0 0.185 0.04 0 0.19 0.04 0 0.195 0.04 0 0.2 0.04 0 0.205 0.04 0 0.21 0.04 0 0.215 0.04 0 0.22 0.04 0 0.225 0.04 0 0.23 0.04 0 0.235 0.04 0 0.24 0.04 0 0.245 0.04 0 0.25 0.04 0 0.255 0.04 0 0.26 0.04 0 0.265 0.04 0 0.27 0.04 0 0.275 0.04 0 0.28 0.04 0 0.285 0.04 0 0.29 0.04 0 0.295 0.04 0 0.3 0.04 0 0.305 0.04 0 0.31 0.04 0 0.315 0.04 0 0.32 0.04 0 0.325 0.04 0 0.33 0.04 0 0.335 0.04 0 0.34 0.04 0 0.345 0.04 0 0.35 0.04 0 0.355 0.04 0 0.36 0.04 0 0.365 0.04 0 0.37 0.04 0 0.375 0.04 0 0.38 0.04 0 0.385 0.04 0 0.39 0.04 0 0.395 0.04 0 0.4 0.04 0 0.405 0.04 0 0.41 0.04 0 0.415 0.04 0 0.42 0.04 0 0.425 0.04 0 0.43 0.04 0 0.435 0.04 0 0.44 0.04 0 0.445 0.04 0 0.45 0.04 0 0.455 0.04 0 0.46 0.04 0 0.465 0.04 0 0.47 0.04 0 0.475 0.04 0 0.48 0.04 0 0.485 0.04 0 0.49 0.04 0 0.495 0.04 0 0.5 0.04 0 0.505 0.04 0 0.51 0.04 0 0.515 0.04 0 0.52 0.04 0 0.525 0.04 0 0.53 0.04 0 0.535 0.04 0 0.54 0.04 0 0.545 0.04 0 0.55 0.04 0 0.555 0.04 0 0.56 0.04 0 0.565 0.04 0 0.57 0.04 0 0.575 0.04 0 0.58 0.04 0 0.585 0.04 0 0.59 0.04 0 0.595 0.04 0 0.6 0.04 0 0.605 0.04 0 0.61 0.04 0 0.615 0.04 0 0.62 0.04 0 0.625 0.04 0 0.63 0.04 0 0.635 0.04 0 0.64 0.04 0 0.645 0.04 0 0.65 0.04 0 0.655 0.04 0 0.66 0.04 0 0.665 0.04 0 0.67 0.04 0 0.675 0.04 0 0.68 0.04 0 0.685 0.04 0 0.69 0.04 0 0.695 0.04 0 0.7 0.04 0 0.705 0.04 0 0.71 0.04 0 0.715 0.04 0 0.72 0.04 0 0.725 0.04 0 0.73 0.04 0 0.735 0.04 0 0.74 0.04 0 0.745 0.04 0 0.75 0.04 0 0.755 0.04 0 0.76 0.04 0 0.765 0.04 0 0.77 0.04 0 0.775 0.04 0 0.78 0.04 0 0.785 0.04 0 0.79 0.04 0 0.795 0.04 0 0.8 0.04 0 0.805 0.04 0 0.81 0.04 0 0.815 0.04 0 0.82 0.04 0 0.825 0.04 0 0.83 0.04 0 0.835 0.04 0 0.84 0.04 0 0.845 0.04 0 0.85 0.04 0 0.855 0.04 0 0.86 0.04 0 0.865 0.04 0 0.87 0.04 0 0.875 0.04 0 0.88 0.04 0 0.885 0.04 0 0.89 0.04 0 0.895 0.04 0 0.9 0.04 0 0.905 0.04 0 0.91 0.04 0 0.915 0.04 0 0.92 0.04 0 0.925 0.04 0 0.93 0.04 0 0.935 0.04 0 0.94 0.04 0 0.945 0.04 0 0.95 0.04 0 0.955 0.04 0 0.96 0.04 0 0.965 0.04 0 0.97 0.04 0 0.975 0.04 0 0.98 0.04 0 0.985 0.04 0 0.99 0.04 0 0.995 0.04 0 1 0.04 0 0 0.06 0 0.005 0.06 0 0.01 0.06 0 0.015 0.06 0 0.02 0.06 0 0.025 0.06 0 0.03 0.06 0 0.035 0.06 0 0.04 0.06 0 0.045 0.06 0 0.05 0.06 0 0.055 0.06 0 0.06 0.06 0 0.065 0.06 0 0.07 0.06 0 0.075 0.06 0 0.08 0.06 0 0.085 0.06 0 0.09 0.06 0 0.095 0.06 0 0.1 0.06 0 0.105 0.06 0 0.11 0.06 0 0.115 0.06 0 0.12 0.06 0 0.125 0.06 0 0.13 0.06 0 0.135 0.06 0 0.14 0.06 0 0.145 0.06 0 0.15 0.06 0 0.155 0.06 0 0.16 0.06 0 0.165 0.06 0 0.17 0.06 0 0.175 0.06 0 0.18 0.06 0 0.185 0.06 0 0.19 0.06 0 0.195 0.06 0 0.2 0.06 0 0.205 0.06 0 0.21 0.06 0 0.215 0.06 0 0.22 0.06 0 0.225 0.06 0 0.23 0.06 0 0.235 0.06 0 0.24 0.06 0 0.245 0.06 0 0.25 0.06 0 0.255 0.06 0 0.26 0.06 0 0.265 0.06 0 0.27 0.06 0 0.275 0.06 0 0.28 0.06 0 0.285 0.06 0 0.29 0.06 0 0.295 0.06 0 0.3 0.06 0 0.305 0.06 0 0.31 0.06 0 0.315 0.06 0 0.32 0.06 0 0.325 0.06 0 0.33 0.06 0 0.335 0.06 0 0.34 0.06 0 0.345 0.06 0 0.35 0.06 0 0.355 0.06 0 0.36 0.06 0 0.365 0.06 0 0.37 0.06 0 0.375 0.06 0 0.38 0.06 0 0.385 0.06 0 0.39 0.06 0 0.395 0.06 0 0.4 0.06 0 0.405 0.06 0 0.41 0.06 0 0.415 0.06 0 0.42 0.06 0 0.425 0.06 0 0.43 0.06 0 0.435 0.06 0 0.44 0.06 0 0.445 0.06 0 0.45 0.06 0 0.455 0.06 0 0.46 0.06 0 0.465 0.06 0 0.47 0.06 0 0.475 0.06 0 0.48 0.06 0 0.485 0.06 0 0.49 0.06 0 0.495 0.06 0 0.5 0.06 0 0.505 0.06 0 0.51 0.06 0 0.515 0.06 0 0.52 0.06 0 0.525 0.06 0 0.53 0.06 0 0.535 0.06 0 0.54 0.06 0 0.545 0.06 0 0.55 0.06 0 0.555 0.06 0 0.56 0.06 0 0.565 0.06 0 0.57 0.06 0 0.575 0.06 0 0.58 0.06 0 0.585 0.06 0 0.59 0.06 0 0.595 0.06 0 0.6 0.06 0 0.605 0.06 0 0.61 0.06 0 0.615 0.06 0 0.62 0.06 0 0.625 0.06 0 0.63 0.06 0 0.635 0.06 0 0.64 0.06 0 0.645 0.06 0 0.65 0.06 0 0.655 0.06 0 0.66 0.06 0 0.665 0.06 0 0.67 0.06 0 0.675 0.06 0 0.68 0.06 0 0.685 0.06 0 0.69 0.06 0 0.695 0.06 0 0.7 0.06 0 0.705 0.06 0 0.71 0.06 0 0.715 0.06 0 0.72 0.06 0 0.725 0.06 0 0.73 0.06 0 0.735 0.06 0 0.74 0.06 0 0.745 0.06 0 0.75 0.06 0 0.755 0.06 0 0.76 0.06 0 0.765 0.06 0 0.77 0.06 0 0.775 0.06 0 0.78 0.06 0 0.785 0.06 0 0.79 0.06 0 0.795 0.06 0 0.8 0.06 0 0.805 0.06 0 0.81 0.06 0 0.815 0.06 0 0.82 0.06 0 0.825 0.06 0 0.83 0.06 0 0.835 0.06 0 0.84 0.06 0 0.845 0.06 0 0.85 0.06 0 0.855 0.06 0 0.86 0.06 0 0.865 0.06 0 0.87 0.06 0 0.875 0.06 0 0.88 0.06 0 0.885 0.06 0 0.89 0.06 0 0.895 0.06 0 0.9 0.06 0 0.905 0.06 0 0.91 0.06 0 0.915 0.06 0 0.92 0.06 0 0.925 0.06 0 0.93 0.06 0 0.935 0.06 0 0.94 0.06 0 0.945 0.06 0 0.95 0.06 0 0.955 0.06 0 0.96 0.06 0 0.965 0.06 0 0.97 0.06 0 0.975 0.06 0 0.98 0.06 0 0.985 0.06 0 0.99 0.06 0 0.995 0.06 0 1 0.06 0 0 0.08 0 0.005 0.08 0 0.01 0.08 0 0.015 0.08 0 0.02 0.08 0 0.025 0.08 0 0.03 0.08 0 0.035 0.08 0 0.04 0.08 0 0.045 0.08 0 0.05 0.08 0 0.055 0.08 0 0.06 0.08 0 0.065 0.08 0 0.07 0.08 0 0.075 0.08 0 0.08 0.08 0 0.085 0.08 0 0.09 0.08 0 0.095 0.08 0 0.1 0.08 0 0.105 0.08 0 0.11 0.08 0 0.115 0.08 0 0.12 0.08 0 0.125 0.08 0 0.13 0.08 0 0.135 0.08 0 0.14 0.08 0 0.145 0.08 0 0.15 0.08 0 0.155 0.08 0 0.16 0.08 0 0.165 0.08 0
[...]
			<PointData Scalars="VitesseX">
				<DataArray Name="VitesseX" type="Float32" format="ascii">
 0 -4.24505e-15 -1.46559e-14 4.04411e-14 -4.34945e-14 -5.17251e-15 3.39502e-14 1.41658e-17 -3.36597e-14 2.28769e-14 8.57159e-15 -4.67689e-14 1.47327e-14 2.80572e-14 -8.74686e-14 -9.57324e-14 -4.2113e-14 -1.38218e-13 -9.22427e-14 -1.48252e-13 -1.73942e-13 -1.02062e-13 -1.13162e-13 -1.32421e-13 -2.40742e-13 -1.20368e-14 -2.59549e-13 -2.53991e-14 -1.38015e-13 -9.40572e-14 5.85697e-14 -8.76417e-15 -2.74423e-13 -1.79975e-13 -1.53052e-13 -3.13331e-13 -3.82831e-14 -1.39234e-13 -5.77495e-14 -2.02306e-13 -3.50188e-14 -2.96347e-14 -1.14268e-13 1.85618e-13 -6.29316e-14 -9.33778e-14 5.2836e-13 4.45397e-12 3.27518e-11 2.00465e-10 1.16904e-09 6.43304e-09 3.33467e-08 1.62335e-07 7.39821e-07 3.14507e-06 1.24198e-05 4.53388e-05 0.000152137 0.000466195 0.00129516 0.00323872 0.0072494 0.014493 0.025935 0.0418715 0.061783 0.0846447 0.109409 0.1353 0.16184 0.18876 0.215937 0.243283 0.270725 0.298209 0.325688 0.35314 0.38055 0.4079 0.435179 0.46237 0.489461 0.516435 0.543278 0.569971 0.596493 0.622823 0.648937 0.674807 0.700403 0.725695 0.750649 0.775235 0.799422 0.823192 0.846541 0.869497 0.892137 0.914589 0.937397 0.940154 0.939866 0.939056 0.93794 0.936648 0.935303 0.934028 0.932813 0.931692 0.930699 0.929869 0.929305 0.928892 0.928561 0.928307 0.928106 0.927944 0.927874 0.927808 0.927736 0.927691 0.927546 0.927549 0.927423 0.92807 0.908738 0.937534 0.925961 0.925988 0.927275 0.929005 0.929069 0.929015 0.928957 0.928966 0.929046 0.929208 0.929222 0.929211 0.929201 0.929238 0.929317 0.92936 0.929359 0.929331 0.929291 0.929153 0.928024 0.922737 0.907178 0.87138 0.806226 0.709195 0.584281 0.442744 0.302225 0.181597 0.0947491 0.0432272 0.0178989 0.00702942 0.00269075 0.00101806 0.000382964 0.000143539 5.36393e-05 1.99853e-05 7.42258e-06 2.7471e-06 1.01275e-06 3.71761e-07 1.35822e-07 4.93674e-08 1.78433e-08 6.41035e-09 2.28838e-09 8.11205e-10 2.85009e-10 9.94721e-11 3.40738e-11 1.11439e-11 3.82886e-12 4.47508e-13 5.28151e-13 -6.98149e-13 2.57207e-13 -2.03896e-14 -3.10024e-13 1.14201e-12 -8.35409e-13 9.98518e-13 2.44079e-13 6.54119e-15 5.46865e-13 -1.83978e-13 3.69315e-13 8.13305e-13 2.85427e-14 1.40113e-13 0 0 -1.66938e-15 1.42498e-14 -3.10905e-14 2.26936e-14 9.33709e-15 -1.2423e-14 -4.19292e-14 1.78776e-14 -1.47088e-15 -2.38099e-14 3.10506e-14 3.429e-14 -1.12189e-13 -6.56381e-14 -2.84765e-14 -9.70762e-14 -9.17716e-14 -6.73791e-14 -1.23454e-13 -1.85104e-13 -5.70484e-14 -1.37757e-13 -1.92729e-13 -4.6257e-14 -1.74277e-13 -5.77505e-14 -2.62194e-13 -1.00361e-13 3.54883e-14 -1.10449e-13 -1.04397e-13 -1.36492e-14 -1.83781e-13 -2.81442e-13 -3.86798e-14 -1.85846e-13 -6.50627e-14 -1.81703e-13 -5.1188e-14 -1.87027e-13 -2.22322e-13 1.99026e-13 -2.59253e-13 1.22962e-13 1.47211e-13 1.70348e-13 5.01695e-12 3.23352e-11 2.00562e-10 1.16888e-09 6.4332e-09 3.33471e-08 1.62335e-07 7.39821e-07 3.14507e-06 1.24198e-05 4.53388e-05 0.000152137 0.000466195 0.00129516 0.00323872 0.0072494 0.014493 0.025935 0.0418715 0.061783 0.0846447 0.109409 0.1353 0.16184 0.18876 0.215937 0.243283 0.270725 0.298209 0.325688 0.35314 0.38055 0.4079 0.435179 0.46237 0.489461 0.516435 0.543278 0.569971 0.596493 0.622823 0.648937 0.674807 0.700403 0.725695 0.750649 0.775235 0.799422 0.823192 0.846541 0.869497 0.892137 0.914589 0.937397 0.940154 0.939866 0.939056 0.93794 0.936648 0.935303 0.934028 0.932813 0.931692 0.930699 0.929869 0.929305 0.928892 0.928561 0.928307 0.928106 0.927944 0.927874 0.927808 0.927736 0.927691 0.927546 0.927549 0.927423 0.92807 0.908738 0.937534 0.925961 0.925988 0.927275 0.929005 0.929069 0.929015 0.928957 0.928966 0.929046 0.929208 0.929222 0.929211 0.929201 0.929238 0.929317 0.92936 0.929359 0.929331 0.929291 0.929153 0.928024 0.922737 0.907178 0.87138 0.806226 0.709195 0.584281 0.442744 0.302225 0.181597 0.0947491 0.0432272 0.0178989 0.00702942 0.00269075 0.00101806 0.000382964 0.000143539 5.36393e-05 1.99853e-05 7.42258e-06 2.7471e-06 1.01275e-06 3.71761e-07 1.35822e-07 4.93673e-08 1.78435e-08 6.41069e-09 2.28815e-09 8.10853e-10 2.85408e-10 9.91759e-11 3.41416e-11 1.13156e-11 3.19604e-12 1.27447e-12 -6.47403e-14 1.36694e-13 -3.78876e-13 -2.65795e-13 2.96616e-13 -4.74296e-13 7.95383e-13 -4.53318e-13 5.61149e-13 4.77806e-13 4.41748e-13 -4.94647e-14 3.92467e-13 -2.46565e-14 4.06313e-13 3.12373e-13 0 0 -1.55785e-14 -1.87832e-14 1.55942e-14 -2.73379e-14 -2.2858e-14 2.63076e-14 -1.51439e-14 -4.59424e-14 -1.7887e-14 -2.30722e-14 -4.52583e-14 1.57605e-14 3.01215e-14 -8.23271e-14 -3.58657e-14 -1.01125e-13 -1.30556e-13 -3.0472e-14 -3.18936e-14 -1.22902e-14 -1.2309e-13 -1.53425e-13 -5.25898e-14 -2.58004e-13 -3.20157e-14 -1.34019e-13 -9.68287e-15 -3.02344e-13 -1.82191e-13 -7.69111e-14 -6.23005e-14 -2.25779e-13 5.0285e-14 -8.16188e-14 -3.08296e-13 -2.97077e-14 -1.34197e-13 -1.51938e-13 -9.29135e-14 -4.47132e-14 -7.11476e-14 -1.99166e-13 -1.80839e-13 -5.8987e-14 -1.12687e-13 9.26687e-13 4.72766e-12 3.26484e-11 2.00639e-10 1.16888e-09 6.43327e-09 3.33467e-08 1.62336e-07 7.39821e-07 3.14507e-06 1.24198e-05 4.53388e-05 0.000152137 0.000466195 0.00129516 0.00323872 0.0072494 0.014493 0.025935 0.0418715 0.061783 0.0846447 0.109409 0.1353 0.16184 0.18876 0.215937 0.243283 0.270725 0.298209 0.325688 0.35314 0.38055 0.4079 0.435179 0.46237 0.489461 0.516435 0.543278 0.569971 0.596493 0.622823 0.648937 0.674807 0.700403 0.725695 0.750649 0.775235 0.799422 0.823192 0.846541 0.869497 0.892137 0.914589 0.937397 0.940154 0.939866 0.939056 0.93794 0.936648 0.935303 0.934028 0.932813 0.931692 0.930699 0.929869 0.929305 0.928892 0.928561 0.928307 0.928106 0.927944 0.927874 0.927808 0.927736 0.927691 0.927546 0.927549 0.927423 0.92807 0.908738 0.937534 0.925961 0.925988 0.927275 0.929005 0.929069 0.929015 0.928957 0.928966 0.929046 0.929208 0.929222 0.929211 0.929201 0.929238 0.929317 0.92936 0.929359 0.929331 0.929291 0.929153 0.928024 0.922737 0.907178 0.87138 0.806226 0.709195 0.584281 0.442744 0.302225 0.181597 0.0947491 0.0432272 0.0178989 0.00702942 0.00269075 0.00101806 0.000382964 0.000143539 5.36393e-05 1.99853e-05 7.42258e-06 2.7471e-06 1.01275e-06 3.71761e-07 1.35823e-07 4.93674e-08 1.78433e-08 6.4106e-09 2.2882e-09 8.11164e-10 2.84946e-10 9.92783e-11 3.41787e-11 1.14128e-11 3.73396e-12 7.06463e-13 5.39362e-14 3.20789e-13 -5.34765e-13 1.00854e-13 -3.67756e-13 -2.6871e-13 -1.74931e-13 4.77602e-15 6.56146e-13 4.4675e-13 5.09902e-13 2.40976e-13 -5.40532e-13 2.16608e-13 3.8151e-13 2.04325e-13 0 0 -1.43802e-14 -2.41087e-14 -5.19927e-15 -4.24994e-14 -4.20954e-14 3.12678e-14 -1.80261e-14 -7.56634e-14 -3.36055e-14 -6.32082e-14 -1.70028e-14 4.29629e-14 2.59525e-14 -9.00246e-14 -2.21247e-14 4.32211e-16 -3.95238e-14 -1.35545e-13 -6.76255e-14 -7.923e-14 -3.61987e-14 3.37821e-14 -2.41366e-13 -5.3353e-14 -1.07692e-13 -2.12096e-13 -2.02306e-13 -2.57735e-13 -4.2838e-14 -2.78539e-14 -1.69987e-13 -1.38211e-13 -1.59076e-13 -1.79739e-13 -1.67056e-13 -2.70108e-14 -1.03962e-13 -5.82799e-14 -1.37815e-13 -3.52835e-13 4.48296e-14 -5.70833e-14 -8.29391e-14 -1.09259e-13 -1.19764e-13 6.86841e-13 4.91775e-12 3.27824e-11 2.00868e-10 1.16901e-09 6.43325e-09 3.33469e-08 1.62336e-07 7.39821e-07 3.14507e-06 1.24198e-05 4.53388e-05 0.000152137 0.000466195 0.00129516 0.00323872 0.0072494 0.014493 0.025935 0.0418715 0.061783 0.0846447 0.109409 0.1353 0.16184 0.18876 0.215937 0.243283 0.270725 0.298209 0.325688 0.35314 0.38055 0.4079 0.435179 0.46237 0.489461 0.516435 0.543278 0.569971 0.596493 0.622823 0.648937 0.674807 0.700403 0.725695 0.750649 0.775235 0.799422 0.823192 0.846541 0.869497 0.892137 0.914589 0.937397 0.940154 0.939866 0.939056 0.93794 0.936648 0.935303 0.934028 0.932813 0.931692 0.930699 0.929869 0.929305 0.928892 0.928561 0.928307 0.928106 0.927944 0.927874 0.927808 0.927736 0.927691 0.927546 0.927549 0.927423 0.92807 0.908738 0.937534 0.925961 0.925988 0.927275 0.929005 0.929069 0.929015 0.928957 0.928966 0.929046 0.929208 0.929222 0.929211 0.929201 0.929238 0.929317 0.92936 0.929359 0.929331 0.929291 0.929153 0.928024 0.922737 0.907178 0.87138 0.806226 0.709195 0.584281 0.442744 0.302225 0.181597 0.0947491 0.0432272 0.0178989 0.00702942 0.00269075 0.00101806 0.000382964 0.000143539 5.36393e-05 1.99853e-05 7.42258e-06 2.7471e-06 1.01275e-06 3.71761e-07 1.35823e-07 4.93673e-08 1.78435e-08 6.41047e-09 2.28821e-09 8.10939e-10 2.8526e-10 9.92589e-11 3.41986e-11 1.14411e-11 3.58988e-12 1.32412e-12 -4.72369e-13 -5.49315e-13 5.88924e-13 -1.99721e-13 -4.97508e-13 2.3535e-13 -5.56569e-13 -1.35008e-13 2.82022e-13 2.90467e-13 2.13182e-13 3.7855e-13 -2.25077e-13 7.49871e-13 -7.21523e-13 -1.40179e-13 0 0 -6.2032e-15 -5.44622e-15 -5.56015e-14 3.28512e-15 -3.40107e-14 -4.02518e-14 -4.87649e-14 -1.00219e-15 -1.50598e-14 -7.87354e-14 1.67431e-14 5.974e-16 -1.18577e-13 -4.55898e-14 -3.66747e-14 1.47484e-14 -4.07957e-14 -3.84627e-15 -9.70297e-14 -1.81801e-13 -1.72709e-14 -3.63957e-14 -2.175e-13 1.45066e-13 -2.11443e-13 -3.78014e-14 -4.15807e-13 -1.47425e-13 4.61363e-14 -1.79501e-13 -1.64686e-13 -6.7707e-14 -2.40693e-13 -2.14503e-13 -4.03121e-14 -6.25668e-14 7.01695e-14 -2.3261e-13 -8.51453e-14 -3.52099e-13 -2.63725e-13 1.13232e-13 -3.02857e-13 7.14036e-14 8.8485e-14 2.93604e-13 5.31181e-12 3.25924e-11 2.01008e-10 1.1692e-09 6.43334e-09 3.33473e-08 1.62335e-07 7.39821e-07 3.14507e-06 1.24198e-05 4.53388e-05 0.000152137 0.000466195 0.00129516 0.00323872 0.0072494 0.014493 0.025935 0.0418715 0.061783 0.0846447 0.109409 0.1353 0.16184 0.18876 0.215937 0.243283 0.270725 0.298209 0.325688 0.35314 0.38055 0.4079 0.435179 0.46237 0.489461 0.516435 0.543278 0.569971 0.596493 0.622823 0.648937 0.674807 0.700403 0.725695 0.750649 0.775235 0.799422 0.823192 0.846541 0.869497 0.892137 0.914589 0.937397 0.940154 0.939866 0.939056 0.93794 0.936648 0.935303 0.934028 0.932813 0.931692 0.930699 0.929869 0.929305 0.928892 0.928561 0.928307 0.928106 0.927944 0.927874 0.927808 0.927736 0.927691 0.927546 0.927549 0.927423 0.92807 0.908738 0.937534 0.925961 0.925988 0.927275 0.929005 0.929069 0.929015 0.928957 0.928966 0.929046 0.929208 0.929222 0.929211 0.929201 0.929238 0.929317 0.92936 0.929359 0.929331 0.929291 0.929153 0.928024 0.922737 0.907178 0.87138 0.806226 0.709195 0.584281 0.442744 0.302225 0.181597 0.0947491 0.0432272 0.0178989 0.00702942 0.00269075 0.00101806 0.000382964 0.000143539 5.36393e-05 1.99853e-05 7.42258e-06 2.7471e-06 1.01275e-06 3.71762e-07 1.35822e-07 4.93672e-08 1.78436e-08 6.41052e-09 2.28805e-09 8.10797e-10 2.85458e-10 9.90966e-11 3.41517e-11 1.11123e-11 3.00124e-12 1.6027e-12 -1.97761e-13 -1.41687e-13 2.91168e-13 -3.76732e-13 1.28441e-13 -6.41976e-13 5.7107e-13 -4.43393e-13 -2.76464e-13 1.47823e-13 -1.36375e-13 3.46683e-14 6.47846e-13 -3.28949e-14 -3.6873e-13 -2.09909e-13 0 0 -1.57093e-14 -4.3397e-14 3.30062e-14 -5.19884e-14 -5.33935e-14 -3.16278e-14 -7.89306e-15 -1.19772e-14 2.71361e-14 -2.10073e-14 -1.31895e-13 -1.07057e-13 2.36189e-14 -3.19772e-14 -1.39611e-13 -2.15772e-14 -2.1833e-13 2.44968e-13 -2.39396e-14 -3.34567e-14 -1.96289e-13 -2.84853e-13 1.95591e-13 -2.67398e-13 6.49841e-14 -6.34963e-14 5.26219e-14 -3.2136e-13 -3.51468e-13 -1.77648e-13 8.603e-14 -5.57674e-13 1.24922e-13 1.77065e-13 -5.99076e-13 2.02882e-13 7.07602e-14 -3.46881e-13 -1.80417e-13 2.51083e-13 -3.44394e-13 -5.70022e-13 -9.73914e-14 -6.55059e-14 -1.96673e-13 1.25456e-12 4.6635e-12 3.29984e-11 2.00898e-10 1.1694e-09 6.43336e-09 3.33469e-08 1.62336e-07 7.39821e-07 3.14507e-06 1.24198e-05 4.53388e-05 0.000152137 0.000466195 0.00129516 0.00323872 0.0072494 0.014493 0.025935 0.0418715 0.061783 0.0846447 0.109409 0.1353 0.16184 0.18876 0.215937 0.243283 0.270725 0.298209 0.325688 0.35314 0.38055 0.4079 0.435179 0.46237 0.489461 0.516435 0.543278 0.569971 0.596493 0.622823 0.648937 0.674807 0.700403 0.725695 0.750649 0.775235 0.799422 0.823192 0.846541 0.869497 0.892137 0.914589 0.937397 0.940154 0.939866 0.939056 0.93794 0.936648 0.935304 0.934028 0.932813 0.931692 0.930699 0.929869 0.929305 0.928892 0.928561 0.928307 0.928106 0.927944 0.927874 0.927808 0.927736 0.927691 0.927546 0.927549 0.927423 0.92807 0.908738 0.937534 0.925961 0.925988 0.927275 0.929005 0.929069 0.929015 0.928957 0.928966 0.929046 0.929208 0.929222 0.929211 0.929201 0.929238 0.929317 0.92936 0.929359 0.929331 0.929291 0.929153 0.928024 0.922737 0.907178 0.87138 0.806226 0.709195 0.584281 0.442744 0.302225 0.181597 0.0947491 0.0432272 0.0178989 0.00702942 0.00269075 0.00101806 0.000382964 0.000143539 5.36393e-05 1.99853e-05 7.42258e-06 2.7471e-06 1.01275e-06 3.71762e-07 1.35823e-07 4.93674e-08 1.78431e-08 6.41026e-09 2.28816e-09 8.11544e-10 2.84483e-10 9.93524e-11 3.40543e-11 1.06806e-11 3.72743e-12 -1.31345e-13 1.31472e-12 4.85298e-13 -6.50082e-13 3.58884e-13 -3.86869e-13 -2.01471e-13 -5.20758e-13 1.29794e-12 -6.829e-13 -3.4086e-13 -1.59391e-14 -2.9086e-13 2.49162e-13 -2.69697e-13 6.84522e-13 -2.15442e-13 0
				</DataArray>
				<DataArray Name="VitesseY" type="Float32" format="ascii">