<?xml version="1.0"?>
<VTKFile type="PolyData">
	<PolyData>
		<Piece NumberOfPoints="1206" NumberOfPolys="1000">
			<Points>
				<DataArray type="Float32" NumberOfComponents="3" format="ascii">
 0 0 0 0.005 0 0 0.01 0 0 0.015 0 0 0.02 0 0 0.025 0 0 0.03 0 0 0.035 0 0 0.04 0 0 0.045 0 0 0.05 0 0 0.055 0 0 0.06 0 0 0.065 0 0 0.07 0 0 0.075 0 0 0.08 0 0 0.085 0 0 0.09 0 0 0.095 0 0 0.1 0 0 0.105 0 0 0.11 0 0 0.115 0 0 0.12 0 0 0.125 0 0 0.13 0 0 0.135 0 0 0.14 0 0 0.145 0 0 0.15 0 0 0.155 0 0 0.16 0 0 0.165 0 0 0.17 0 0 0.175 0 0 0.18 0 0 0.185 0 0 0.19 0 0 0.195 0 0 0.2 0 0 0.205 0 0 0.21 0 0 0.215 0 0 0.22 0 0 0.225 0 0 0.23 0 0 0.235 0 0 0.24 0 0 0.245 0 0 0.25 0 0 0.255 0 0 0.26 0 0 0.265 0 0 0.27 0 0 0.275 0 0 0.28 0 0 0.285 0 0 0.29 0 0 0.295 0 0 0.3 0 0 0.305 0 0 0.31 0 0 0.315 0 0 0.32 0 0 0.325 0 0 0.33 0 0 0.335 0 0 0.34 0 0 0.345 0 0 0.35 0 0 0.355 0 0 0.36 0 0 0.365 0 0 0.37 0 0 0.375 0 0 0.38 0 0 0.385 0 0 0.39 0 0 0.395 0 0 0.4 0 0 0.405 0 0 0.41 0 0 0.415 0 0 0.42 0 0 0.425 0 0 0.43 0 0 0.435 0 0 0.44 0 0 0.445 0 0 0.45 0 0 0.455 0 0 0.46 0 0 0.465 0 0 0.47 0 0 0.475 0 0 0.48 0 0 0.485 0 0 0.49 0 0 0.495 0 0 0.5 0 0 0.505 0 0 0.51 0 0 0.515 0 0 0.52 0 0 0.525 0 0 0.53 0 0 0.535 0 0 0.54 0 0 0.545 0 0 0.55 0 0 0.555 0 0 0.56 0 0 0.565 0 0 0.57 0 0 0.575 0 0 0.58 0 0 0.585 0 0 0.59 0 0 0.595 0 0 0.6 0 0 0.605 0 0 0.61 0 0 0.615 0 0 0.62 0 0 0.625 0 0 0.63 0 0 0.635 0 0 0.64 0 0 0.645 0 0 0.65 0 0 0.655 0 0 0.66 0 0 0.665 0 0 0.67 0 0 0.675 0 0 0.68 0 0 0.685 0 0 0.69 0 0 0.695 0 0 0.7 0 0 0.705 0 0 0.71 0 0 0.715 0 0 0.72 0 0 0.725 0 0 0.73 0 0 0.735 0 0 0.74 0 0 0.745 0 0 0.75 0 0 0.755 0 0 0.76 0 0 0.765 0 0 0.77 0 0 0.775 0 0 0.78 0 0 0.785 0 0 0.79 0 0 0.795 0 0 0.8 0 0 0.805 0 0 0.81 0 0 0.815 0 0 0.82 0 0 0.825 0 0 0.83 0 0 0.835 0 0 0.84 0 0 0.845 0 0 0.85 0 0 0.855 0 0 0.86 0 0 0.865 0 0 0.87 0 0 0.875 0 0 0.88 0 0 0.885 0 0 0.89 0 0 0.895 0 0 0.9 0 0 0.905 0 0 0.91 0 0 0.915 0 0 0.92 0 0 0.925 0 0 0.93 0 0 0.935 0 0 0.94 0 0 0.945 0 0 0.95 0 0 0.955 0 0 0.96 0 0 0.965 0 0 0.97 0 0 0.975 0 0 0.98 0 0 0.985 0 0 0.99 0 0 0.995 0 0 1 0 0 0 0.02 0 0.005 0.02 0 0.01 0.02 0 0.015 0.02 0 0.02 0.02 0 0.025 0.02 0 0.03 0.02 0 0.035 0.02 0 0.04 0.02 0 0.045 0.02 0 0.05 0.02 0 0.055 0.02 0 0.06 0.02 0 0.065 0.02 0 0.07 0.02 0 0.075 0.02 0 0.08 0.02 0 0.085 0.02 0 0.09 0.02 0 0.095 0.02 0 0.1 0.02 0 0.105 0.02 0 0.11 0.02 0 0.115 0.02 0 0.12 0.02 0 0.125 0.02 0 0.13 0.02 0 0.135 0.02 0 0.14 0.02 0 0.145 0.02 0 0.15 0.02 0 0.155 0.02 0 0.16 0.02 0 0.165 0.02 0 0.17 0.02 0 0.175 0.02 0 0.18 0.02 0 0.185 0.02 0 0.19 0.02 0 0.195 0.02 0 0.2 0.02 0 0.205 0.02 0 0.21 0.02 0 0.215 0.02 0 0.22 0.02 0 0.225 0.02 0 0.23 0.02 0 0.235 0.02 0 0.24 0.02 0 0.245 0.02 0 0.25 0.02 0 0.255 0.02 0 0.26 0.02 0 0.265 0.02 0 0.27 0.02 0 0.275 0.02 0 0.28 0.02 0 0.285 0.02 0 0.29 0.02 0 0.295 0.02 0 0.3 0.02 0 0.305 0.02 0 0.31 0.02 0 0.315 0.02 0 0.32 0.02 0 0.325 0.02 0 0.33 0.02 0 0.335 0.02 0 0.34 0.02 0 0.345 0.02 0 0.35 0.02 0 0.355 0.02 0 0.36 0.02 0 0.365 0.02 0 0.37 0.02 0 0.375 0.02 0 0.38 0.02 0 0.385 0.02 0 0.39 0.02 0 0.395 0.02 0 0.4 0.02 0 0.405 0.02 0 0.41 0.02 0 0.415 0.02 0 0.42 0.02 0 0.425 0.02 0 0.43 0.02 0 0.435 0.02 0 0.44 0.02 0 0.445 0.02 0 0.45 0.02 0 0.455 0.02 0 0.46 0.02 0 0.465 0.02 0 0.47 0.02 0 0.475 0.02 0 0.48 0.02 0 0.485 0.02 0 0.49 0.02 0 0.495 0.02 0 0.5 0.02 0 0.505 0.02 0 0.51 0.02 0 0.515 0.02 0 0.52 0.02 0 0.525 0.02 0 0.53 0.02 0 0.535 0.02 0 0.54 0.02 0 0.545 0.02 0 0.55 0.02 0 0.555 0.02 0 0.56 0.02 0 0.565 0.02 0 0.57 0.02 0 0.575 0.02 0 0.58 0.02 0 0.585 0.02 0 0.59 0.02 0 0.595 0.02 0 0.6 0.02 0 0.605 0.02 0 0.61 0.02 0 0.615 0.02 0 0.62 0.02 0 0.625 0.02 0 0.63 0.02 0 0.635 0.02 0 0.64 0.02 0 0.645 0.02 0 0.65 0.02 0 0.655 0.02 0 0.66 0.02 0 0.665 0.02 0 0.67 0.02 0 0.675 0.02 0 0.68 0.02 0 0.685 0.02 0 0.69 0.02 0 0.695 0.02 0 0.7 0.02 0 0.705 0.02 0 0.71 0.02 0 0.715 0.02 0 0.72 0.02 0 0.725 0.02 0 0.73 0.02 0 0.735 0.02 0 0.74 0.02 0 0.745 0.02 0 0.75 0.02 0 0.755 0.02 0 0.76 0.02 0 0.765 0.02 0 0.77 0.02 0 0.775 0.02 0 0.78 0.02 0 0.785 0.02 0 0.79 0.02 0 0.795 0.02 0 0.8 0.02 0 0.805 0.02 0 0.81 0.02 0 0.815 0.02 0 0.82 0.02 0 0.825 0.02 0 0.83 0.02 0 0.835 0.02 0 0.84 0.02 0 0.845 0.02 0 0.85 0.02 0 0.855 0.02 0 0.86 0.02 0 0.865 0.02 0 0.87 0.02 0 0.875 0.02 0 0.88 0.02 0 0.885 0.02 0 0.89 0.02 0 0.895 0.02 0 0.9 0.02 0 0.905 0.02 0 0.91 0.02 0 0.915 0.02 0 0.92 0.02 0 0.925 0.02 0 0.93 0.02 0 0.935 0.02 0 0.94 0.02 0 0.945 0.02 0 0.95 0.02 0 0.955 0.02 0 0.96 0.02 0 0.965 0.02 0 0.97 0.02 0 0.975 0.02 0 0.98 0.02 0 0.985 0.02 0 0.99 0.02 0 0.995 0.02 0 1 0.02 0 0 0.04 0 0.005 0.04 0 0.01 0.04 0 0.015 0.04 0 0.02 0.04 0 0.025 0.04 0 0.03 0.04 0 0.035 0.04 0 0.04 0.04 0 0.045 0.04 0 0.05 0.04 0 0.055 0.04 0 0.06 0.04 0 0.065 0.04 0 0.07 0.04 0 0.075 0.04 0 0.08 0.04 0 0.085 0.04 0 0.09 0.04 0 0.095 0.04 0 0.1 0.04 0 0.105 0.04 0 0.11 0.04 0 0.115 0.04 0 0.12 0.04 0 0.125 0.04 0 0.13 0.04 0 0.135 0.04 0 0.14 0.04 0 0.145 0.04 0 0.15 0.04 0 0.155 0.04 0 0.16 0.04 0 0.165 0.04 0 0.17 0.04 0 0.175 0.04 0 0.18 0.04 0 0.185 0.04 0 0.19 0.04 0 0.195 0.04 0 0.2 0.04 0 0.205 0.04 0 0.21 0.04 0 0.215 0.04 0 0.22 0.04 0 0.225 0.04 0 0.23 0.04 0 0.235 0.04 0 0.24 0.04 0 0.245 0.04 0 0.25 0.04 0 0.255 0.04 0 0.26 0.04 0 0.265 0.04 0 0.27 0.04 0 0.275 0.04 0 0.28 0.04 0 0.285 0.04 0 0.29 0.04 0 0.295 0.04 0 0.3 0.04 0 0.305 0.04 0 0.31 0.04 0 0.315 0.04 0 0.32 0.04 0 0.325 0.04 0 0.33 0.04 0 0.335 0.04 0 0.34 0.04 0 0.345 0.04 0 0.35 0.04 0 0.355 0.04 0 0.36 0.04 0 0.365 0.04 0 0.37 0.04 0 0.375 0.04 0 0.38 0.04 0 0.385 0.04 0 0.39 0.04 0 0.395 0.04 0 0.4 0.04 0 0.405 0.04 0 0.41 0.04 0 0.415 0.04 0 0.42 0.04 0 0.425 0.04 0 0.43 0.04 0 0.435 0.04 0 0.44 0.04 0 0.445 0.04 0 0.45 0.04 0 0.455 0.04 0 0.46 0.04 0 0.465 0.04 0 0.47 0.04 0 0.475 0.04 0 0.48 0.04 0 0.485 0.04 0 0.49 0.04 0 0.495 0.04 0 0.5 0.04 0 0.505 0.04 0 0.51 0.04 0 0.515 0.04 0 0.52 0.04 0 0.525 0.04 0 0.53 0.04 0 0.535 0.04 0 0.54 0.04 0 0.545 0.04 0 0.55 0.04 0 0.555 0.04 0 0.56 0.04 0 0.565 0.04 0 0.57 0.04 0 0.575 0.04 0 0.58 0.04 0 0.585 0.04 0 0.59 0.04 0 0.595 0.04 0 0.6 0.04 0 0.605 0.04 0 0.61 0.04 0 0.615 0.04 0 0.62 0.04 0 0.625 0.04 0 0.63 0.04 0 0.635 0.04 0 0.64 0.04 0 0.645 0.04 0 0.65 0.04 0 0.655 0.04 0 0.66 0.04 0 0.665 0.04 0 0.67 0.04 0 0.675 0.04 0 0.68 0.04 0 0.685 0.04 0 0.69 0.04 0 0.695 0.04 0 0.7 0.04 0 0.705 0.04 0 0.71 0.04 0 0.715 0.04 0 0.72 0.04 0 0.725 0.04 0 0.73 0.04 0 0.735 0.04 0 0.74 0.04 0 0.745 0.04 0 0.75 0.04 0 0.755 0.04 0 0.76 0.04 0 0.765 0.04 0 0.77 0.04 0 0.775 0.04 0 0.78 0.04 0 0.785 0.04 0 0.79 0.04 0 0.795 0.04 0 0.8 0.04 0 0.805 0.04 0 0.81 0.04 0 0.815 0.04 0 0.82 0.04 0 0.825 0.04 0 0.83 0.04 0 0.835 0.04 0 0.84 0.04 0 0.845 0.04 0 0.85 0.04 0 0.855 0.04 0 0.86 0.04 0 0.865 0.04 0 0.87 0.04 0 0.875 0.04 0 0.88 0.04 0 0.885 0.04 0 0.89 0.04 0 0.895 0.04 0 0.9 0.04 0 0.905 0.04 0 0.91 0.04 0 0.915 0.04 0 0.92 0.04 0 0.925 0.04 0 0.93 0.04 0 0.935 0.04 0 0.94 0.04 0 0.945 0.04 0 0.95 0.04 0 0.955 0.04 0 0.96 0.04 0 0.965 0.04 0 0.97 0.04 0 0.975 0.04 0 0.98 0.04 0 0.985 0.04 0 0.99 0.04 0 0.995 0.04 0 1 0.04 0 0 0.06 0 0.005 0.06 0 0.01 0.06 0 0.015 0.06 0 0.02 0.06 0 0.025 0.06 0 0.03 0.06 0 0.035 0.06 0 0.04 0.06 0 0.045 0.06 0 0.05 0.06 0 0.055 0.06 0 0.06 0.06 0 0.065 0.06 0 0.07 0.06 0 0.075 0.06 0 0.08 0.06 0 0.085 0.06 0 0.09 0.06 0 0.095 0.06 0 0.1 0.06 0 0.105 0.06 0 0.11 0.06 0 0.115 0.06 0 0.12 0.06 0 0.125 0.06 0 0.13 0.06 0 0.135 0.06 0 0.14 0.06 0 0.145 0.06 0 0.15 0.06 0 0.155 0.06 0 0.16 0.06 0 0.165 0.06 0 0.17 0.06 0 0.175 0.06 0 0.18 0.06 0 0.185 0.06 0 0.19 0.06 0 0.195 0.06 0 0.2 0.06 0 0.205 0.06 0 0.21 0.06 0 0.215 0.06 0 0.22 0.06 0 0.225 0.06 0 0.23 0.06 0 0.235 0.06 0 0.24 0.06 0 0.245 0.06 0 0.25 0.06 0 0.255 0.06 0 0.26 0.06 0 0.265 0.06 0 0.27 0.06 0 0.275 0.06 0 0.28 0.06 0 0.285 0.06 0 0.29 0.06 0 0.295 0.06 0 0.3 0.06 0 0.305 0.06 0 0.31 0.06 0 0.315 0.06 0 0.32 0.06 0 0.325 0.06 0 0.33 0.06 0 0.335 0.06 0 0.34 0.06 0 0.345 0.06 0 0.35 0.06 0 0.355 0.06 0 0.36 0.06 0 0.365 0.06 0 0.37 0.06 0 0.375 0.06 0 0.38 0.06 0 0.385 0.06 0 0.39 0.06 0 0.395 0.06 0 0.4 0.06 0 0.405 0.06 0 0.41 0.06 0 0.415 0.06 0 0.42 0.06 0 0.425 0.06 0 0.43 0.06 0 0.435 0.06 0 0.44 0.06 0 0.445 0.06 0 0.45 0.06 0 0.455 0.06 0 0.46 0.06 0 0.465 0.06 0 0.47 0.06 0 0.475 0.06 0 0.48 0.06 0 0.485 0.06 0 0.49 0.06 0 0.495 0.06 0 0.5 0.06 0 0.505 0.06 0 0.51 0.06 0 0.515 0.06 0 0.52 0.06 0 0.525 0.06 0 0.53 0.06 0 0.535 0.06 0 0.54 0.06 0 0.545 0.06 0 0.55 0.06 0 0.555 0.06 0 0.56 0.06 0 0.565 0.06 0 0.57 0.06 0 0.575 0.06 0 0.58 0.06 0 0.585 0.06 0 0.59 0.06 0 0.595 0.06 0 0.6 0.06 0 0.605 0.06 0 0.61 0.06 0 0.615 0.06 0 0.62 0.06 0 0.625 0.06 0 0.63 0.06 0 0.635 0.06 0 0.64 0.06 0 0.645 0.06 0 0.65 0.06 0 0.655 0.06 0 0.66 0.06 0 0.665 0.06 0 0.67 0.06 0 0.675 0.06 0 0.68 0.06 0 0.685 0.06 0 0.69 0.06 0 0.695 0.06 0 0.7 0.06 0 0.705 0.06 0 0.71 0.06 0 0.715 0.06 0 0.72 0.06 0 0.725 0.06 0 0.73 0.06 0 0.735 0.06 0 0.74 0.06 0 0.745 0.06 0 0.75 0.06 0 0.755 0.06 0 0.76 0.06 0 0.765 0.06 0 0.77 0.06 0 0.775 0.06 0 0.78 0.06 0 0.785 0.06 0 0.79 0.06 0 0.795 0.06 0 0.8 0.06 0 0.805 0.06 0 0.81 0.06 0 0.815 0.06 0 0.82 0.06 0 0.825 0.06 0 0.83 0.06 0 0.835 0.06 0 0.84 0.06 0 0.845 0.06 0 0.85 0.06 0 0.855 0.06 0 0.86 0.06 0 0.865 0.06 0 0.87 0.06 0 0.875 0.06 0 0.88 0.06 0 0.885 0.06 0 0.89 0.06 0 0.895 0.06 0 0.9 0.06 0 0.905 0.06 0 0.91 0.06 0 0.915 0.06 0 0.92 0.06 0 0.925 0.06 0 0.93 0.06 0 0.935 0.06 0 0.94 0.06 0 0.945 0.06 0 0.95 0.06 0 0.955 0.06 0 0.96 0.06 0 0.965 0.06 0 0.97 0.06 0 0.975 0.06 0 0.98 0.06 0 0.985 0.06 0 0.99 0.06 0 0.995 0.06 0 1 0.06 0 0 0.08 0 0.005 0.08 0 0.01 0.08 0 0.015 0.08 0 0.02 0.08 0 0.025 0.08 0 0.03 0.08 0 0.035 0.08 0 0.04 0.08 0 0.045 0.08 0 0.05 0.08 0 0.055 0.08 0 0.06 0.08 0 0.065 0.08 0 0.07 0.08 0 0.075 0.08 0 0.08 0.08 0 0.085 0.08 0 0.09 0.08 0 0.095 0.08 0 0.1 0.08 0 0.105 0.08 0 0.11 0.08 0 0.115 0.08 0 0.12 0.08 0 0.125 0.08 0 0.13 0.08 0 0.135 0.08 0 0.14 0.08 0 0.145 0.08 0 0.15 0.08 0 0.155 0.08 0 0.16 0.08 0 0.165 0.08 0
[...]
			<PointData Scalars="VitesseX">
				<DataArray Name="VitesseX" type="Float32" format="ascii">
 0 1.94003e-14 -3.56801e-15 2.44734e-15 -1.65349e-14 7.89681e-15 1.17725e-14 -8.47679e-14 4.3873e-15 3.3288e-15 -4.52865e-14 -4.6418e-14 7.72675e-15 3.00286e-14 -7.99926e-14 -7.19612e-14 -8.65418e-14 -2.15858e-13 -3.17144e-14 -1.35109e-13 -3.26808e-14 -1.38378e-13 -1.24346e-14 -5.96565e-14 -2.33305e-13 1.72688e-14 -1.78605e-13 -6.1186e-14 -1.93458e-13 -1.82967e-13 1.5294e-14 -1.0373e-13 -2.97799e-13 -1.83914e-13 -4.35406e-14 5.16812e-13 4.64686e-12 2.68481e-11 1.45235e-10 7.50361e-10 3.68773e-09 1.72133e-08 7.61704e-08 3.1877e-07 1.25829e-06 4.67064e-06 1.6246e-05 5.27404e-05 0.000159055 0.000443261 0.00113496 0.00265487 0.00564812 0.0109027 0.0191147 0.0305999 0.0451499 0.0621523 0.0808703 0.100679 0.121151 0.142026 0.163154 0.184463 0.205904 0.227439 0.249039 0.27068 0.292341 0.314002 0.335654 0.35729 0.378903 0.400487 0.422037 0.443547 0.465013 0.486427 0.507785 0.529079 0.550304 0.571451 0.592513 0.613479 0.634341 0.655088 0.675707 0.696187 0.716514 0.736674 0.756653 0.776439 0.796019 0.815385 0.834535 0.853472 0.872199 0.89069 0.909051 0.928213 0.939518 0.939291 0.938747 0.938037 0.937173 0.936186 0.935137 0.934075 0.933016 0.931994 0.931055 0.930227 0.929521 0.928951 0.928479 0.928132 0.927849 0.927623 0.927461 0.927344 0.927235 0.927144 0.927064 0.927015 0.926975 0.926961 0.926966 0.926954 0.926956 0.926946 0.926942 0.927189 0.926772 0.924586 0.918876 0.928573 0.926171 0.929239 0.928633 0.928942 0.929106 0.929108 0.929087 0.929029 0.928948 0.928865 0.928798 0.928763 0.928749 0.928744 0.928743 0.928744 0.928758 0.928809 0.928875 0.928943 0.929009 0.929017 0.929074 0.9291 0.929154 0.929113 0.928446 0.924665 0.912791 0.884122 0.828289 0.741138 0.624217 0.486634 0.344294 0.215976 0.118087 0.0562211 0.0239727 0.00958692 0.00371404 0.00141884 0.000538767 0.000203993 7.71042e-05 2.91031e-05 1.09701e-05 4.12907e-06 1.55164e-06 5.82031e-07 2.17883e-07 8.13801e-08 3.03196e-08 1.12645e-08 4.17259e-09 1.53985e-09 5.66392e-10 2.07664e-10 7.53818e-11 2.75857e-11 9.87675e-12 3.02568e-12 1.17915e-12 3.74148e-13 0 0 -1.892e-16 3.46104e-15 -3.58123e-15 -2.91995e-14 -3.83988e-14 -1.08176e-14 1.53651e-14 -4.63908e-14 -2.0596e-14 -3.95261e-14 3.73285e-14 -1.28537e-14 -9.12769e-14 -9.12291e-14 3.09032e-14 -1.12155e-13 -1.65591e-14 -1.48574e-13 -7.64742e-14 -1.3116e-13 8.37576e-14 -1.41369e-13 -1.75652e-13 5.14738e-14 -1.81053e-13 -5.67046e-14 -2.09406e-13 -1.5087e-13 -6.80777e-14 -1.47945e-13 -1.85265e-13 -6.4266e-14 -2.17552e-13 -1.89899e-13 4.97967e-13 4.69347e-12 2.68168e-11 1.45313e-10 7.50328e-10 3.68782e-09 1.72136e-08 7.617e-08 3.1877e-07 1.25829e-06 4.67064e-06 1.6246e-05 5.27404e-05 0.000159055 0.000443261 0.00113496 0.00265487 0.00564812 0.0109027 0.0191147 0.0305999 0.0451499 0.0621523 0.0808703 0.100679 0.121151 0.142026 0.163154 0.184463 0.205904 0.227439 0.249039 0.27068 0.292341 0.314002 0.335654 0.35729 0.378903 0.400487 0.422037 0.443547 0.465013 0.486427 0.507785 0.529079 0.550304 0.571451 0.592513 0.613479 0.634341 0.655088 0.675707 0.696187 0.716514 0.736674 0.756653 0.776439 0.796019 0.815385 0.834535 0.853472 0.872199 0.89069 0.909051 0.928213 0.939518 0.939291 0.938747 0.938037 0.937173 0.936186 0.935137 0.934075 0.933016 0.931994 0.931055 0.930227 0.929521 0.928951 0.928479 0.928132 0.927849 0.927623 0.927461 0.927344 0.927235 0.927144 0.927064 0.927015 0.926975 0.926961 0.926966 0.926954 0.926956 0.926946 0.926942 0.927189 0.926772 0.924586 0.918876 0.928573 0.926171 0.929239 0.928633 0.928942 0.929106 0.929108 0.929087 0.929029 0.928948 0.928865 0.928798 0.928763 0.928749 0.928744 0.928743 0.928744 0.928758 0.928809 0.928875 0.928943 0.929009 0.929017 0.929074 0.9291 0.929154 0.929113 0.928446 0.924665 0.912791 0.884122 0.828289 0.741138 0.624217 0.486634 0.344294 0.215976 0.118087 0.0562211 0.0239727 0.00958692 0.00371404 0.00141884 0.000538767 0.000203993 7.71042e-05 2.91031e-05 1.09701e-05 4.12907e-06 1.55164e-06 5.82032e-07 2.17883e-07 8.13801e-08 3.03196e-08 1.12648e-08 4.17206e-09 1.54041e-09 5.66447e-10 2.07276e-10 7.53548e-11 2.71436e-11 9.79725e-12 3.88518e-12 7.48565e-13 5.94197e-13 0 0 -1.83547e-15 -1.4928e-14 -1.35149e-14 7.2064e-15 -3.76493e-14 -5.87366e-14 -7.68052e-14 -5.11368e-15 -1.55263e-14 -1.59458e-14 -7.21108e-14 2.06773e-14 -1.40414e-14 -4.59149e-14 -3.98903e-14 -1.90814e-15 -1.6514e-13 3.0347e-14 1.38064e-14 -3.39001e-14 -8.791e-14 -1.53399e-14 -9.66414e-14 -2.03344e-13 -6.16723e-14 -1.52838e-13 -5.93043e-14 -2.76746e-13 -1.54408e-13 -1.26756e-13 -3.58512e-14 -2.11808e-13 -7.10298e-14 -1.78097e-13 4.61851e-13 4.69451e-12 2.67608e-11 1.45409e-10 7.5052e-10 3.68784e-09 1.72135e-08 7.61702e-08 3.1877e-07 1.25829e-06 4.67064e-06 1.6246e-05 5.27404e-05 0.000159055 0.000443261 0.00113496 0.00265487 0.00564812 0.0109027 0.0191147 0.0305999 0.0451499 0.0621523 0.0808703 0.100679 0.121151 0.142026 0.163154 0.184463 0.205904 0.227439 0.249039 0.27068 0.292341 0.314002 0.335654 0.35729 0.378903 0.400487 0.422037 0.443547 0.465013 0.486427 0.507785 0.529079 0.550304 0.571451 0.592513 0.613479 0.634341 0.655088 0.675707 0.696187 0.716514 0.736674 0.756653 0.776439 0.796019 0.815385 0.834535 0.853472 0.872199 0.89069 0.909051 0.928213 0.939518 0.939291 0.938747 0.938037 0.937173 0.936186 0.935137 0.934075 0.933016 0.931994 0.931055 0.930227 0.929521 0.928951 0.928479 0.928132 0.927849 0.927623 0.927461 0.927344 0.927235 0.927144 0.927064 0.927015 0.926975 0.926961 0.926966 0.926954 0.926956 0.926946 0.926942 0.927189 0.926772 0.924586 0.918876 0.928573 0.926171 0.929239 0.928633 0.928942 0.929106 0.929108 0.929087 0.929029 0.928948 0.928865 0.928798 0.928763 0.928749 0.928744 0.928743 0.928744 0.928758 0.928809 0.928875 0.928943 0.929009 0.929017 0.929074 0.9291 0.929154 0.929113 0.928446 0.924665 0.912791 0.884122 0.828289 0.741138 0.624217 0.486634 0.344294 0.215976 0.118087 0.0562211 0.0239727 0.00958692 0.00371404 0.00141884 0.000538767 0.000203993 7.71042e-05 2.91031e-05 1.09701e-05 4.12907e-06 1.55164e-06 5.82032e-07 2.17883e-07 8.13804e-08 3.03196e-08 1.12648e-08 4.17258e-09 1.53967e-09 5.66347e-10 2.07289e-10 7.55053e-11 2.71618e-11 9.72837e-12 3.27639e-12 1.14079e-12 4.59743e-13 0 0 -6.29014e-15 -1.46923e-14 -2.74307e-14 -2.8729e-14 -4.23217e-15 1.48566e-15 -1.06441e-13 -3.37459e-14 -3.21398e-14 -7.80067e-14 -8.06194e-15 4.80885e-14 -1.473e-14 -7.45161e-14 2.85793e-14 -3.26885e-14 -9.16176e-14 1.2182e-14 -9.25826e-14 -1.24235e-13 -8.98273e-14 -2.76201e-14 -2.39686e-14 -1.98903e-13 -1.08699e-13 -7.14438e-14 -2.97757e-13 -1.8822e-13 -5.93324e-14 6.57398e-14 -2.25177e-13 -1.31986e-13 -6.85666e-14 -1.29797e-13 6.11052e-13 4.62748e-12 2.67538e-11 1.4545e-10 7.50782e-10 3.68792e-09 1.72136e-08 7.61703e-08 3.1877e-07 1.25829e-06 4.67064e-06 1.6246e-05 5.27404e-05 0.000159055 0.000443261 0.00113496 0.00265487 0.00564812 0.0109027 0.0191147 0.0305999 0.0451499 0.0621523 0.0808703 0.100679 0.121151 0.142026 0.163154 0.184463 0.205904 0.227439 0.249039 0.27068 0.292341 0.314002 0.335654 0.35729 0.378903 0.400487 0.422037 0.443547 0.465013 0.486427 0.507785 0.529079 0.550304 0.571451 0.592513 0.613479 0.634341 0.655088 0.675707 0.696187 0.716514 0.736674 0.756653 0.776439 0.796019 0.815385 0.834535 0.853472 0.872199 0.89069 0.909051 0.928213 0.939518 0.939291 0.938747 0.938037 0.937173 0.936186 0.935137 0.934075 0.933016 0.931994 0.931055 0.930227 0.929521 0.928951 0.928479 0.928132 0.927849 0.927623 0.927461 0.927344 0.927235 0.927144 0.927064 0.927015 0.926975 0.926961 0.926966 0.926954 0.926956 0.926946 0.926942 0.927189 0.926772 0.924586 0.918876 0.928573 0.926171 0.929239 0.928633 0.928942 0.929106 0.929108 0.929087 0.929029 0.928948 0.928865 0.928798 0.928763 0.928749 0.928744 0.928743 0.928744 0.928758 0.928809 0.928875 0.928943 0.929009 0.929017 0.929074 0.9291 0.929154 0.929113 0.928446 0.924665 0.912791 0.884122 0.828289 0.741138 0.624217 0.486634 0.344294 0.215976 0.118087 0.0562211 0.0239727 0.00958692 0.00371404 0.00141884 0.000538767 0.000203993 7.71042e-05 2.91031e-05 1.09701e-05 4.12907e-06 1.55164e-06 5.82032e-07 2.17883e-07 8.13803e-08 3.032e-08 1.12644e-08 4.17218e-09 1.54013e-09 5.66241e-10 2.06889e-10 7.56962e-11 2.71101e-11 9.34757e-12 3.18671e-12 6.22884e-13 -2.4919e-13 0 0 -1.89975e-14 -1.4669e-14 -3.60171e-14 -7.53628e-14 -3.24411e-14 8.75665e-15 -6.55269e-15 -5.27439e-14 -1.59846e-14 -8.60659e-14 4.61796e-14 -1.11127e-14 -9.00998e-14 -8.65858e-14 2.99283e-14 -5.01259e-14 9.61509e-14 -7.35554e-14 -1.32935e-13 -2.14541e-13 2.88416e-14 -1.60294e-13 -1.60024e-13 3.54402e-14 -2.08964e-13 -6.78443e-14 -3.71569e-13 -9.72173e-14 -7.69718e-14 -5.9365e-14 -1.55041e-13 -6.51853e-14 -6.3871e-14 -4.2791e-14 6.13855e-13 4.60575e-12 2.68894e-11 1.45635e-10 7.50686e-10 3.68807e-09 1.72138e-08 7.61702e-08 3.1877e-07 1.25829e-06 4.67064e-06 1.6246e-05 5.27404e-05 0.000159055 0.000443261 0.00113496 0.00265487 0.00564812 0.0109027 0.0191147 0.0305999 0.0451499 0.0621523 0.0808703 0.100679 0.121151 0.142026 0.163154 0.184463 0.205904 0.227439 0.249039 0.27068 0.292341 0.314002 0.335654 0.35729 0.378903 0.400487 0.422037 0.443547 0.465013 0.486427 0.507785 0.529079 0.550304 0.571451 0.592513 0.613479 0.634341 0.655088 0.675707 0.696187 0.716514 0.736674 0.756653 0.776439 0.796019 0.815385 0.834535 0.853472 0.872199 0.89069 0.909051 0.928213 0.939518 0.939291 0.938747 0.938037 0.937173 0.936186 0.935137 0.934075 0.933016 0.931994 0.931055 0.930227 0.929521 0.928951 0.928479 0.928132 0.927849 0.927623 0.927461 0.927344 0.927235 0.927144 0.927064 0.927015 0.926975 0.926961 0.926966 0.926954 0.926956 0.926946 0.926942 0.927189 0.926772 0.924586 0.918876 0.928573 0.926171 0.929239 0.928633 0.928942 0.929106 0.929108 0.929087 0.929029 0.928948 0.928865 0.928798 0.928763 0.928749 0.928744 0.928743 0.928744 0.928758 0.928809 0.928875 0.928943 0.929009 0.929017 0.929074 0.9291 0.929154 0.929113 0.928446 0.924665 0.912791 0.884122 0.828289 0.741138 0.624217 0.486634 0.344294 0.215976 0.118087 0.0562211 0.0239727 0.00958692 0.00371404 0.00141884 0.000538767 0.000203993 7.71042e-05 2.91031e-05 1.09701e-05 4.12907e-06 1.55164e-06 5.82032e-07 2.17883e-07 8.13801e-08 3.03198e-08 1.12647e-08 4.17146e-09 1.54056e-09 5.66093e-10 2.07038e-10 7.52932e-11 2.69326e-11 9.29415e-12 3.72485e-12 7.32778e-14 -1.72708e-13 0 0 -9.30685e-15 -4.02994e-14 -3.45927e-14 -3.69907e-14 -4.70221e-14 -6.95234e-14 -6.93319e-14 4.89455e-14 4.57787e-14 -1.42444e-14 -1.56814e-13 -4.36136e-14 3.37602e-14 -1.35037e-14 -2.1085e-13 9.90767e-14 -1.37483e-13 1.54653e-13 -3.52533e-14 -1.87736e-14 -2.44376e-13 -2.57234e-14 -1.73746e-13 -2.74255e-13 5.55015e-14 -3.63673e-13 9.13952e-14 -2.63204e-13 -3.90906e-13 -1.92537e-13 3.3537e-13 -4.5928e-13 1.18523e-13 1.54076e-13 4.50185e-13 4.60549e-12 2.70073e-11 1.45796e-10 7.50554e-10 3.68808e-09 1.72135e-08 7.61706e-08 3.1877e-07 1.25829e-06 4.67064e-06 1.6246e-05 5.27404e-05 0.000159055 0.000443261 0.00113496 0.00265487 0.00564812 0.0109027 0.0191147 0.0305999 0.0451499 0.0621523 0.0808703 0.100679 0.121151 0.142026 0.163154 0.184463 0.205904 0.227439 0.249039 0.27068 0.292341 0.314002 0.335654 0.35729 0.378903 0.400487 0.422037 0.443547 0.465013 0.486427 0.507785 0.529079 0.550304 0.571451 0.592513 0.613479 0.634341 0.655088 0.675707 0.696187 0.716514 0.736674 0.756653 0.776439 0.796019 0.815385 0.834535 0.853472 0.872199 0.89069 0.909051 0.928213 0.939518 0.939291 0.938747 0.938037 0.937173 0.936185 0.935137 0.934075 0.933016 0.931994 0.931055 0.930227 0.929521 0.928951 0.928479 0.928132 0.927849 0.927623 0.927461 0.927344 0.927235 0.927144 0.927064 0.927015 0.926975 0.926961 0.926966 0.926954 0.926956 0.926946 0.926942 0.927189 0.926772 0.924586 0.918876 0.928573 0.926171 0.929239 0.928633 0.928942 0.929106 0.929108 0.929087 0.929029 0.928948 0.928865 0.928798 0.928763 0.928749 0.928744 0.928743 0.928744 0.928758 0.928809 0.928875 0.928943 0.929009 0.929017 0.929074 0.9291 0.929154 0.929113 0.928446 0.924665 0.912791 0.884122 0.828289 0.741138 0.624217 0.486634 0.344294 0.215976 0.118087 0.0562211 0.0239727 0.00958692 0.00371404 0.00141884 0.000538767 0.000203993 7.71042e-05 2.91031e-05 1.09701e-05 4.12907e-06 1.55164e-06 5.82032e-07 2.17883e-07 8.13802e-08 3.03192e-08 1.12649e-08 4.17218e-09 1.53923e-09 5.65893e-10 2.07987e-10 7.48767e-11 2.7267e-11 9.63216e-12 2.88438e-12 8.6438e-13 2.58204e-13 0
				</DataArray>
				<DataArray Name="VitesseY" type="Float32" format="ascii">