<?xml version="1.0"?>
<VTKFile type="PolyData">
	<PolyData>
		<Piece NumberOfPoints="1206" NumberOfPolys="1000">
			<Points>
				<DataArray type="Float32" NumberOfComponents="3" format="ascii">
 0 0 0 0.005 0 0 0.01 0 0 0.015 0 0 0.02 0 0 0.025 0 0 0.03 0 0 0.035 0 0 0.04 0 0 0.045 0 0 0.05 0 0 0.055 0 0 0.06 0 0 0.065 0 0 0.07 0 0 0.075 0 0 0.08 0 0 0.085 0 0 0.09 0 0 0.095 0 0 0.1 0 0 0.105 0 0 0.11 0 0 0.115 0 0 0.12 0 0 0.125 0 0 0.13 0 0 0.135 0 0 0.14 0 0 0.145 0 0 0.15 0 0 0.155 0 0 0.16 0 0 0.165 0 0 0.17 0 0 0.175 0 0 0.18 0 0 0.185 0 0 0.19 0 0 0.195 0 0 0.2 0 0 0.205 0 0 0.21 0 0 0.215 0 0 0.22 0 0 0.225 0 0 0.23 0 0 0.235 0 0 0.24 0 0 0.245 0 0 0.25 0 0 0.255 0 0 0.26 0 0 0.265 0 0 0.27 0 0 0.275 0 0 0.28 0 0 0.285 0 0 0.29 0 0 0.295 0 0 0.3 0 0 0.305 0 0 0.31 0 0 0.315 0 0 0.32 0 0 0.325 0 0 0.33 0 0 0.335 0 0 0.34 0 0 0.345 0 0 0.35 0 0 0.355 0 0 0.36 0 0 0.365 0 0 0.37 0 0 0.375 0 0 0.38 0 0 0.385 0 0 0.39 0 0 0.395 0 0 0.4 0 0 0.405 0 0 0.41 0 0 0.415 0 0 0.42 0 0 0.425 0 0 0.43 0 0 0.435 0 0 0.44 0 0 0.445 0 0 0.45 0 0 0.455 0 0 0.46 0 0 0.465 0 0 0.47 0 0 0.475 0 0 0.48 0 0 0.485 0 0 0.49 0 0 0.495 0 0 0.5 0 0 0.505 0 0 0.51 0 0 0.515 0 0 0.52 0 0 0.525 0 0 0.53 0 0 0.535 0 0 0.54 0 0 0.545 0 0 0.55 0 0 0.555 0 0 0.56 0 0 0.565 0 0 0.57 0 0 0.575 0 0 0.58 0 0 0.585 0 0 0.59 0 0 0.595 0 0 0.6 0 0 0.605 0 0 0.61 0 0 0.615 0 0 0.62 0 0 0.625 0 0 0.63 0 0 0.635 0 0 0.64 0 0 0.645 0 0 0.65 0 0 0.655 0 0 0.66 0 0 0.665 0 0 0.67 0 0 0.675 0 0 0.68 0 0 0.685 0 0 0.69 0 0 0.695 0 0 0.7 0 0 0.705 0 0 0.71 0 0 0.715 0 0 0.72 0 0 0.725 0 0 0.73 0 0 0.735 0 0 0.74 0 0 0.745 0 0 0.75 0 0 0.755 0 0 0.76 0 0 0.765 0 0 0.77 0 0 0.775 0 0 0.78 0 0 0.785 0 0 0.79 0 0 0.795 0 0 0.8 0 0 0.805 0 0 0.81 0 0 0.815 0 0 0.82 0 0 0.825 0 0 0.83 0 0 0.835 0 0 0.84 0 0 0.845 0 0 0.85 0 0 0.855 0 0 0.86 0 0 0.865 0 0 0.87 0 0 0.875 0 0 0.88 0 0 0.885 0 0 0.89 0 0 0.895 0 0 0.9 0 0 0.905 0 0 0.91 0 0 0.915 0 0 0.92 0 0 0.925 0 0 0.93 0 0 0.935 0 0 0.94 0 0 0.945 0 0 0.95 0 0 0.955 0 0 0.96 0 0 0.965 0 0 0.97 0 0 0.975 0 0 0.98 0 0 0.985 0 0 0.99 0 0 0.995 0 0 1 0 0 0 0.02 0 0.005 0.02 0 0.01 0.02 0 0.015 0.02 0 0.02 0.02 0 0.025 0.02 0 0.03 0.02 0 0.035 0.02 0 0.04 0.02 0 0.045 0.02 0 0.05 0.02 0 0.055 0.02 0 0.06 0.02 0 0.065 0.02 0 0.07 0.02 0 0.075 0.02 0 0.08 0.02 0 0.085 0.02 0 0.09 0.02 0 0.095 0.02 0 0.1 0.02 0 0.105 0.02 0 0.11 0.02 0 0.115 0.02 0 0.12 0.02 0 0.125 0.02 0 0.13 0.02 0 0.135 0.02 0 0.14 0.02 0 0.145 0.02 0 0.15 0.02 0 0.155 0.02 0 0.16 0.02 0 0.165 0.02 0 0.17 0.02 0 0.175 0.02 0 0.18 0.02 0 0.185 0.02 0 0.19 0.02 0 0.195 0.02 0 0.2 0.02 0 0.205 0.02 0 0.21 0.02 0 0.215 0.02 0 0.22 0.02 0 0.225 0.02 0 0.23 0.02 0 0.235 0.02 0 0.24 0.02 0 0.245 0.02 0 0.25 0.02 0 0.255 0.02 0 0.26 0.02 0 0.265 0.02 0 0.27 0.02 0 0.275 0.02 0 0.28 0.02 0 0.285 0.02 0 0.29 0.02 0 0.295 0.02 0 0.3 0.02 0 0.305 0.02 0 0.31 0.02 0 0.315 0.02 0 0.32 0.02 0 0.325 0.02 0 0.33 0.02 0 0.335 0.02 0 0.34 0.02 0 0.345 0.02 0 0.35 0.02 0 0.355 0.02 0 0.36 0.02 0 0.365 0.02 0 0.37 0.02 0 0.375 0.02 0 0.38 0.02 0 0.385 0.02 0 0.39 0.02 0 0.395 0.02 0 0.4 0.02 0 0.405 0.02 0 0.41 0.02 0 0.415 0.02 0 0.42 0.02 0 0.425 0.02 0 0.43 0.02 0 0.435 0.02 0 0.44 0.02 0 0.445 0.02 0 0.45 0.02 0 0.455 0.02 0 0.46 0.02 0 0.465 0.02 0 0.47 0.02 0 0.475 0.02 0 0.48 0.02 0 0.485 0.02 0 0.49 0.02 0 0.495 0.02 0 0.5 0.02 0 0.505 0.02 0 0.51 0.02 0 0.515 0.02 0 0.52 0.02 0 0.525 0.02 0 0.53 0.02 0 0.535 0.02 0 0.54 0.02 0 0.545 0.02 0 0.55 0.02 0 0.555 0.02 0 0.56 0.02 0 0.565 0.02 0 0.57 0.02 0 0.575 0.02 0 0.58 0.02 0 0.585 0.02 0 0.59 0.02 0 0.595 0.02 0 0.6 0.02 0 0.605 0.02 0 0.61 0.02 0 0.615 0.02 0 0.62 0.02 0 0.625 0.02 0 0.63 0.02 0 0.635 0.02 0 0.64 0.02 0 0.645 0.02 0 0.65 0.02 0 0.655 0.02 0 0.66 0.02 0 0.665 0.02 0 0.67 0.02 0 0.675 0.02 0 0.68 0.02 0 0.685 0.02 0 0.69 0.02 0 0.695 0.02 0 0.7 0.02 0 0.705 0.02 0 0.71 0.02 0 0.715 0.02 0 0.72 0.02 0 0.725 0.02 0 0.73 0.02 0 0.735 0.02 0 0.74 0.02 0 0.745 0.02 0 0.75 0.02 0 0.755 0.02 0 0.76 0.02 0 0.765 0.02 0 0.77 0.02 0 0.775 0.02 0 0.78 0.02 0 0.785 0.02 0 0.79 0.02 0 0.795 0.02 0 0.8 0.02 0 0.805 0.02 0 0.81 0.02 0 0.815 0.02 0 0.82 0.02 0 0.825 0.02 0 0.83 0.02 0 0.835 0.02 0 0.84 0.02 0 0.845 0.02 0 0.85 0.02 0 0.855 0.02 0 0.86 0.02 0 0.865 0.02 0 0.87 0.02 0 0.875 0.02 0 0.88 0.02 0 0.885 0.02 0 0.89 0.02 0 0.895 0.02 0 0.9 0.02 0 0.905 0.02 0 0.91 0.02 0 0.915 0.02 0 0.92 0.02 0 0.925 0.02 0 0.93 0.02 0 0.935 0.02 0 0.94 0.02 0 0.945 0.02 0 0.95 0.02 0 0.955 0.02 0 0.96 0.02 0 0.965 0.02 0 0.97 0.02 0 0.975 0.02 0 0.98 0.02 0 0.985 0.02 0 0.99 0.02 0 0.995 0.02 0 1 0.02 0 0 0.04 0 0.005 0.04 0 0.01 0.04 0 0.015 0.04 0 0.02 0.04 0 0.025 0.04 0 0.03 0.04 0 0.035 0.04 0 0.04 0.04 0 0.045 0.04 0 0.05 0.04 0 0.055 0.04 0 0.06 0.04 0 0.065 0.04 0 0.07 0.04 0 0.075 0.04 0 0.08 0.04 0 0.085 0.04 0 0.09 0.04 0 0.095 0.04 0 0.1 0.04 0 0.105 0.04 0 0.11 0.04 0 0.115 0.04 0 0.12 0.04 0 0.125 0.04 0 0.13 0.04 0 0.135 0.04 0 0.14 0.04 0 0.145 0.04 0 0.15 0.04 0 0.155 0.04 0 0.16 0.04 0 0.165 0.04 0 0.17 0.04 0 0.175 0.04 0 0.18 0.04 0 0.185 0.04 0 0.19 0.04 0 0.195 0.04 0 0.2 0.04 0 0.205 0.04 0 0.21 0.04 0 0.215 0.04 0 0.22 0.04 0 0.225 0.04 0 0.23 0.04 0 0.235 0.04 0 0.24 0.04 0 0.245 0.04 0 0.25 0.04 0 0.255 0.04 0 0.26 0.04 0 0.265 0.04 0 0.27 0.04 0 0.275 0.04 0 0.28 0.04 0 0.285 0.04 0 0.29 0.04 0 0.295 0.04 0 0.3 0.04 0 0.305 0.04 0 0.31 0.04 0 0.315 0.04 0 0.32 0.04 0 0.325 0.04 0 0.33 0.04 0 0.335 0.04 0 0.34 0.04 0 0.345 0.04 0 0.35 0.04 0 0.355 0.04 0 0.36 0.04 0 0.365 0.04 0 0.37 0.04 0 0.375 0.04 0 0.38 0.04 0 0.385 0.04 0 0.39 0.04 0 0.395 0.04 0 0.4 0.04 0 0.405 0.04 0 0.41 0.04 0 0.415 0.04 0 0.42 0.04 0 0.425 0.04 0 0.43 0.04 0 0.435 0.04 0 0.44 0.04 0 0.445 0.04 0 0.45 0.04 0 0.455 0.04 0 0.46 0.04 0 0.465 0.04 0 0.47 0.04 0 0.475 0.04 0 0.48 0.04 0 0.485 0.04 0 0.49 0.04 0 0.495 0.04 0 0.5 0.04 0 0.505 0.04 0 0.51 0.04 0 0.515 0.04 0 0.52 0.04 0 0.525 0.04 0 0.53 0.04 0 0.535 0.04 0 0.54 0.04 0 0.545 0.04 0 0.55 0.04 0 0.555 0.04 0 0.56 0.04 0 0.565 0.04 0 0.57 0.04 0 0.575 0.04 0 0.58 0.04 0 0.585 0.04 0 0.59 0.04 0 0.595 0.04 0 0.6 0.04 0 0.605 0.04 0 0.61 0.04 0 0.615 0.04 0 0.62 0.04 0 0.625 0.04 0 0.63 0.04 0 0.635 0.04 0 0.64 0.04 0 0.645 0.04 0 0.65 0.04 0 0.655 0.04 0 0.66 0.04 0 0.665 0.04 0 0.67 0.04 0 0.675 0.04 0 0.68 0.04 0 0.685 0.04 0 0.69 0.04 0 0.695 0.04 0 0.7 0.04 0 0.705 0.04 0 0.71 0.04 0 0.715 0.04 0 0.72 0.04 0 0.725 0.04 0 0.73 0.04 0 0.735 0.04 0 0.74 0.04 0 0.745 0.04 0 0.75 0.04 0 0.755 0.04 0 0.76 0.04 0 0.765 0.04 0 0.77 0.04 0 0.775 0.04 0 0.78 0.04 0 0.785 0.04 0 0.79 0.04 0 0.795 0.04 0 0.8 0.04 0 0.805 0.04 0 0.81 0.04 0 0.815 0.04 0 0.82 0.04 0 0.825 0.04 0 0.83 0.04 0 0.835 0.04 0 0.84 0.04 0 0.845 0.04 0 0.85 0.04 0 0.855 0.04 0 0.86 0.04 0 0.865 0.04 0 0.87 0.04 0 0.875 0.04 0 0.88 0.04 0 0.885 0.04 0 0.89 0.04 0 0.895 0.04 0 0.9 0.04 0 0.905 0.04 0 0.91 0.04 0 0.915 0.04 0 0.92 0.04 0 0.925 0.04 0 0.93 0.04 0 0.935 0.04 0 0.94 0.04 0 0.945 0.04 0 0.95 0.04 0 0.955 0.04 0 0.96 0.04 0 0.965 0.04 0 0.97 0.04 0 0.975 0.04 0 0.98 0.04 0 0.985 0.04 0 0.99 0.04 0 0.995 0.04 0 1 0.04 0 0 0.06 0 0.005 0.06 0 0.01 0.06 0 0.015 0.06 0 0.02 0.06 0 0.025 0.06 0 0.03 0.06 0 0.035 0.06 0 0.04 0.06 0 0.045 0.06 0 0.05 0.06 0 0.055 0.06 0 0.06 0.06 0 0.065 0.06 0 0.07 0.06 0 0.075 0.06 0 0.08 0.06 0 0.085 0.06 0 0.09 0.06 0 0.095 0.06 0 0.1 0.06 0 0.105 0.06 0 0.11 0.06 0 0.115 0.06 0 0.12 0.06 0 0.125 0.06 0 0.13 0.06 0 0.135 0.06 0 0.14 0.06 0 0.145 0.06 0 0.15 0.06 0 0.155 0.06 0 0.16 0.06 0 0.165 0.06 0 0.17 0.06 0 0.175 0.06 0 0.18 0.06 0 0.185 0.06 0 0.19 0.06 0 0.195 0.06 0 0.2 0.06 0 0.205 0.06 0 0.21 0.06 0 0.215 0.06 0 0.22 0.06 0 0.225 0.06 0 0.23 0.06 0 0.235 0.06 0 0.24 0.06 0 0.245 0.06 0 0.25 0.06 0 0.255 0.06 0 0.26 0.06 0 0.265 0.06 0 0.27 0.06 0 0.275 0.06 0 0.28 0.06 0 0.285 0.06 0 0.29 0.06 0 0.295 0.06 0 0.3 0.06 0 0.305 0.06 0 0.31 0.06 0 0.315 0.06 0 0.32 0.06 0 0.325 0.06 0 0.33 0.06 0 0.335 0.06 0 0.34 0.06 0 0.345 0.06 0 0.35 0.06 0 0.355 0.06 0 0.36 0.06 0 0.365 0.06 0 0.37 0.06 0 0.375 0.06 0 0.38 0.06 0 0.385 0.06 0 0.39 0.06 0 0.395 0.06 0 0.4 0.06 0 0.405 0.06 0 0.41 0.06 0 0.415 0.06 0 0.42 0.06 0 0.425 0.06 0 0.43 0.06 0 0.435 0.06 0 0.44 0.06 0 0.445 0.06 0 0.45 0.06 0 0.455 0.06 0 0.46 0.06 0 0.465 0.06 0 0.47 0.06 0 0.475 0.06 0 0.48 0.06 0 0.485 0.06 0 0.49 0.06 0 0.495 0.06 0 0.5 0.06 0 0.505 0.06 0 0.51 0.06 0 0.515 0.06 0 0.52 0.06 0 0.525 0.06 0 0.53 0.06 0 0.535 0.06 0 0.54 0.06 0 0.545 0.06 0 0.55 0.06 0 0.555 0.06 0 0.56 0.06 0 0.565 0.06 0 0.57 0.06 0 0.575 0.06 0 0.58 0.06 0 0.585 0.06 0 0.59 0.06 0 0.595 0.06 0 0.6 0.06 0 0.605 0.06 0 0.61 0.06 0 0.615 0.06 0 0.62 0.06 0 0.625 0.06 0 0.63 0.06 0 0.635 0.06 0 0.64 0.06 0 0.645 0.06 0 0.65 0.06 0 0.655 0.06 0 0.66 0.06 0 0.665 0.06 0 0.67 0.06 0 0.675 0.06 0 0.68 0.06 0 0.685 0.06 0 0.69 0.06 0 0.695 0.06 0 0.7 0.06 0 0.705 0.06 0 0.71 0.06 0 0.715 0.06 0 0.72 0.06 0 0.725 0.06 0 0.73 0.06 0 0.735 0.06 0 0.74 0.06 0 0.745 0.06 0 0.75 0.06 0 0.755 0.06 0 0.76 0.06 0 0.765 0.06 0 0.77 0.06 0 0.775 0.06 0 0.78 0.06 0 0.785 0.06 0 0.79 0.06 0 0.795 0.06 0 0.8 0.06 0 0.805 0.06 0 0.81 0.06 0 0.815 0.06 0 0.82 0.06 0 0.825 0.06 0 0.83 0.06 0 0.835 0.06 0 0.84 0.06 0 0.845 0.06 0 0.85 0.06 0 0.855 0.06 0 0.86 0.06 0 0.865 0.06 0 0.87 0.06 0 0.875 0.06 0 0.88 0.06 0 0.885 0.06 0 0.89 0.06 0 0.895 0.06 0 0.9 0.06 0 0.905 0.06 0 0.91 0.06 0 0.915 0.06 0 0.92 0.06 0 0.925 0.06 0 0.93 0.06 0 0.935 0.06 0 0.94 0.06 0 0.945 0.06 0 0.95 0.06 0 0.955 0.06 0 0.96 0.06 0 0.965 0.06 0 0.97 0.06 0 0.975 0.06 0 0.98 0.06 0 0.985 0.06 0 0.99 0.06 0 0.995 0.06 0 1 0.06 0 0 0.08 0 0.005 0.08 0 0.01 0.08 0 0.015 0.08 0 0.02 0.08 0 0.025 0.08 0 0.03 0.08 0 0.035 0.08 0 0.04 0.08 0 0.045 0.08 0 0.05 0.08 0 0.055 0.08 0 0.06 0.08 0 0.065 0.08 0 0.07 0.08 0 0.075 0.08 0 0.08 0.08 0 0.085 0.08 0 0.09 0.08 0 0.095 0.08 0 0.1 0.08 0 0.105 0.08 0 0.11 0.08 0 0.115 0.08 0 0.12 0.08 0 0.125 0.08 0 0.13 0.08 0 0.135 0.08 0 0.14 0.08 0 0.145 0.08 0 0.15 0.08 0 0.155 0.08 0 0.16 0.08 0 0.165 0.08 0
[...]
			<PointData Scalars="VitesseX">
				<DataArray Name="VitesseX" type="Float32" format="ascii">
 0 -5.99081e-15 7.0172e-16 -4.12498e-14 4.89777e-14 -4.50673e-14 -6.59255e-14 -2.80991e-14 -7.27228e-15 5.67624e-14 -3.63218e-14 -1.77719e-14 -2.02815e-13 2.52766e-14 -2.65338e-13 -1.86579e-14 1.53594e-13 -1.9564e-13 1.2092e-13 -1.00631e-13 -1.5317e-13 8.82763e-14 -1.53497e-13 -2.8568e-14 -3.17002e-13 7.76297e-14 -8.19381e-14 -8.4292e-14 -8.82039e-14 -6.43341e-14 -1.76293e-14 8.3913e-14 -4.67139e-14 -1.02296e-13 -1.96998e-13 -1.62593e-13 -5.57965e-14 -2.36936e-13 -3.06918e-13 -2.57187e-13 -1.73231e-13 -4.02397e-14 -2.50034e-13 -5.41142e-14 -2.28234e-13 1.90468e-13 1.33501e-13 -3.32328e-13 3.07915e-13 2.69283e-13 -2.82709e-14 1.04829e-13 -3.74325e-13 -6.01736e-13 -3.68936e-13 -3.45445e-13 -4.07884e-14 -3.55823e-13 3.69764e-12 2.56849e-11 1.93342e-10 1.35876e-09 8.91347e-09 5.43623e-08 3.0709e-07 1.59956e-06 7.64275e-06 3.32928e-05 0.000131266 0.000464446 0.00146046 0.00404129 0.00976567 0.0205704 0.037941 0.0620371 0.0916276 0.124895 0.160297 0.196832 0.233956 0.271405 0.30896 0.346479 0.383904 0.421181 0.45826 0.495094 0.531633 0.56782 0.603593 0.638881 0.673603 0.707673 0.740996 0.773473 0.805017 0.835573 0.865163 0.893912 0.922492 0.941701 0.941719 0.94094 0.939644 0.938203 0.936609 0.934951 0.933345 0.931855 0.930689 0.929722 0.928929 0.928469 0.928092 0.927913 0.928212 0.927323 0.921576 0.925157 0.925729 0.930174 0.928629 0.928872 0.92989 0.929931 0.929897 0.929889 0.929875 0.929614 0.929235 0.928959 0.929167 0.929181 0.928432 0.922245 0.902989 0.859531 0.784578 0.677647 0.545222 0.400878 0.263358 0.151223 0.0751178 0.0327903 0.0131473 0.00503791 0.00188749 0.00069875 0.000256605 9.35805e-05 3.38892e-05 1.21812e-05 4.3432e-06 1.53511e-06 5.37542e-07 1.86367e-07 6.39403e-08 2.16979e-08 7.27936e-09 2.41362e-09 7.9042e-10 2.55274e-10 8.11664e-11 2.53646e-11 7.68199e-12 2.7238e-12 -1.84337e-13 -2.31005e-13 -2.30363e-13 -3.52441e-13 -5.01372e-14 8.10178e-14 -2.6423e-13 -4.77502e-13 -6.21795e-13 1.0307e-12 -5.5459e-13 3.39814e-13 1.54211e-13 -3.64626e-13 2.79718e-13 -1.02324e-13 -2.08776e-13 -2.76489e-14 -6.22281e-13 -1.0546e-13 -7.5609e-14 -7.40674e-13 3.63102e-13 4.85104e-13 -6.34203e-13 1.1875e-12 2.61844e-13 2.69453e-13 6.23126e-13 4.49373e-13 -6.34833e-13 -2.30701e-13 0 0 -5.26882e-15 -2.36139e-14 1.09722e-14 -3.53598e-14 3.86056e-14 3.36141e-14 -4.25475e-14 -1.40871e-14 -3.6435e-14 -1.81443e-14 -8.64841e-14 4.70675e-14 -2.04591e-13 -1.31617e-14 1.23785e-15 -1.75743e-13 3.10328e-14 -1.20217e-13 -3.36686e-14 -1.9988e-14 -1.5091e-13 -2.96218e-14 -2.16158e-13 2.11092e-13 -2.27276e-13 -1.5781e-13 -1.11073e-13 -7.98223e-14 7.78299e-14 5.94021e-14 -1.1798e-13 -2.02917e-14 -5.47217e-14 -4.92081e-14 -2.32791e-13 -1.84768e-13 -1.2771e-13 -5.43721e-14 -1.61521e-13 -2.8867e-13 -3.94356e-13 7.2911e-14 -1.12965e-13 1.23901e-13 -2.24013e-13 -9.41013e-14 3.70217e-13 7.84866e-15 -9.35774e-14 1.32006e-13 -3.5587e-13 -3.23409e-14 -1.25338e-13 -2.7734e-13 -2.22139e-13 -5.54307e-13 5.27607e-13 3.00444e-12 2.59015e-11 1.93261e-10 1.35904e-09 8.91344e-09 5.43623e-08 3.07089e-07 1.59956e-06 7.64275e-06 3.32928e-05 0.000131266 0.000464446 0.00146046 0.00404129 0.00976567 0.0205704 0.037941 0.0620371 0.0916276 0.124895 0.160297 0.196832 0.233956 0.271405 0.30896 0.346479 0.383904 0.421181 0.45826 0.495094 0.531633 0.56782 0.603593 0.638881 0.673603 0.707673 0.740996 0.773473 0.805017 0.835573 0.865163 0.893912 0.922492 0.941701 0.941719 0.94094 0.939644 0.938203 0.936609 0.934951 0.933345 0.931855 0.930689 0.929722 0.928929 0.928469 0.928092 0.927913 0.928212 0.927323 0.921576 0.925157 0.925729 0.930174 0.928629 0.928872 0.92989 0.929931 0.929897 0.929889 0.929875 0.929614 0.929235 0.928959 0.929167 0.929181 0.928432 0.922245 0.902989 0.859531 0.784578 0.677647 0.545222 0.400878 0.263358 0.151223 0.0751178 0.0327903 0.0131473 0.00503791 0.00188749 0.00069875 0.000256605 9.35805e-05 3.38892e-05 1.21812e-05 4.3432e-06 1.53511e-06 5.37542e-07 1.86367e-07 6.39406e-08 2.1698e-08 7.27948e-09 2.41334e-09 7.90371e-10 2.55565e-10 8.14779e-11 2.51585e-11 7.46914e-12 1.73821e-12 7.61222e-13 -2.67233e-13 -2.67976e-13 -2.02519e-13 -2.834e-13 -3.88519e-13 1.8131e-13 -1.67009e-13 2.44958e-13 -5.16609e-13 4.20504e-13 -4.57141e-13 1.65847e-13 9.05476e-14 -2.35813e-13 -1.45995e-13 -1.27333e-14 -5.38194e-13 2.28872e-13 -6.11915e-13 -2.02577e-13 -1.57369e-13 -4.46916e-13 5.89364e-14 7.3929e-13 -2.53404e-13 5.61958e-13 3.40427e-13 2.42711e-13 2.05486e-13 2.23069e-13 1.24742e-13 0 0 -1.46789e-15 1.73942e-14 3.99724e-14 3.64444e-14 2.18901e-15 7.9823e-15 4.20296e-14 -3.29675e-15 -1.15072e-14 -4.54558e-14 -1.17258e-15 -1.32296e-13 3.36556e-14 -1.21277e-13 -9.13472e-14 6.20524e-15 -2.07723e-13 -2.72706e-14 -1.05007e-13 -9.39762e-14 1.02662e-13 -1.8274e-13 -3.94698e-14 -2.13164e-13 -2.57138e-14 -8.79323e-14 -5.95528e-14 -1.53315e-13 -2.15427e-15 4.91145e-14 6.20843e-14 -3.8391e-14 -4.7735e-14 -1.72949e-13 -9.96974e-14 -2.91079e-14 -9.32597e-14 -2.26714e-13 -2.20959e-13 -2.44499e-13 8.10602e-15 -9.42903e-15 -1.57967e-13 7.41966e-14 7.86402e-14 5.35502e-14 -3.52004e-13 -2.60363e-14 -1.59622e-13 -1.35236e-13 1.21438e-13 1.77014e-13 -2.96838e-13 -1.55401e-13 -1.16205e-13 -1.53274e-13 2.80699e-13 3.39203e-12 2.55568e-11 1.93478e-10 1.35929e-09 8.91362e-09 5.43623e-08 3.07089e-07 1.59956e-06 7.64275e-06 3.32928e-05 0.000131266 0.000464446 0.00146046 0.00404129 0.00976567 0.0205704 0.037941 0.0620371 0.0916276 0.124895 0.160297 0.196832 0.233956 0.271405 0.30896 0.346479 0.383904 0.421181 0.45826 0.495094 0.531633 0.56782 0.603593 0.638881 0.673603 0.707673 0.740996 0.773473 0.805017 0.835573 0.865163 0.893912 0.922492 0.941701 0.941719 0.94094 0.939644 0.938203 0.936609 0.934951 0.933345 0.931855 0.930689 0.929722 0.928929 0.928469 0.928092 0.927913 0.928212 0.927323 0.921576 0.925157 0.925729 0.930174 0.928629 0.928872 0.92989 0.929931 0.929897 0.929889 0.929875 0.929614 0.929235 0.928959 0.929167 0.929181 0.928432 0.922245 0.902989 0.859531 0.784578 0.677647 0.545222 0.400878 0.263358 0.151223 0.0751178 0.0327903 0.0131473 0.00503791 0.00188749 0.00069875 0.000256605 9.35805e-05 3.38892e-05 1.21812e-05 4.3432e-06 1.53511e-06 5.37542e-07 1.86367e-07 6.39405e-08 2.16981e-08 7.27944e-09 2.41358e-09 7.90389e-10 2.55638e-10 8.13822e-11 2.53079e-11 7.36439e-12 1.82891e-12 5.12264e-13 -3.07284e-13 -3.1219e-13 -1.50356e-13 -4.12575e-14 -3.59025e-13 -6.90641e-14 2.40724e-13 -1.11624e-13 -4.4216e-13 -4.16595e-14 4.77217e-14 -4.11007e-13 1.32233e-13 -1.26598e-15 -8.0754e-13 6.76955e-14 -3.14456e-13 -3.10309e-13 -3.20528e-13 6.22869e-14 -7.84998e-13 4.84237e-13 3.22438e-13 6.3456e-14 2.35752e-13 -9.92244e-14 4.64494e-13 -3.65523e-13 -1.00355e-13 2.7193e-13 2.11296e-13 0 0 3.08078e-14 4.36334e-14 5.32174e-14 8.76929e-14 3.17017e-14 -7.84415e-15 -8.69923e-15 3.01196e-14 -1.44934e-14 -2.58839e-14 -1.34641e-13 -4.48507e-14 2.73603e-15 -1.604e-13 -7.80502e-14 -1.0922e-14 -9.15305e-14 -8.64739e-14 -1.02768e-13 -7.12474e-14 1.79339e-14 -3.02687e-14 -1.49607e-13 -1.73891e-13 6.5058e-14 -1.4407e-13 7.50506e-14 -1.82447e-13 -4.47775e-14 -9.66432e-14 -2.63236e-15 8.69927e-14 -8.24131e-14 4.19305e-14 -1.56532e-13 -6.0147e-14 -1.60008e-13 -2.77018e-13 -1.67183e-13 -1.15149e-13 -1.69282e-13 -1.17967e-13 6.19994e-14 -4.29705e-15 -1.0551e-13 -6.00377e-14 -2.39012e-13 -1.13188e-13 2.14783e-13 -6.90466e-14 1.5508e-13 -2.58585e-13 -1.34192e-13 -1.23546e-13 -3.62099e-13 -1.02874e-13 2.54218e-13 3.60941e-12 2.5637e-11 1.93476e-10 1.35938e-09 8.91392e-09 5.43623e-08 3.07089e-07 1.59956e-06 7.64275e-06 3.32928e-05 0.000131266 0.000464446 0.00146046 0.00404129 0.00976567 0.0205704 0.037941 0.0620371 0.0916276 0.124895 0.160297 0.196832 0.233956 0.271405 0.30896 0.346479 0.383904 0.421181 0.45826 0.495094 0.531633 0.56782 0.603593 0.638881 0.673603 0.707673 0.740996 0.773473 0.805017 0.835573 0.865163 0.893912 0.922492 0.941701 0.941719 0.94094 0.939644 0.938203 0.936609 0.934951 0.933345 0.931855 0.930689 0.929722 0.928929 0.928469 0.928092 0.927913 0.928212 0.927323 0.921576 0.925157 0.925729 0.930174 0.928629 0.928872 0.92989 0.929931 0.929897 0.929889 0.929875 0.929614 0.929235 0.928959 0.929167 0.929181 0.928432 0.922245 0.902989 0.859531 0.784578 0.677647 0.545222 0.400878 0.263358 0.151223 0.0751178 0.0327903 0.0131473 0.00503791 0.00188749 0.00069875 0.000256605 9.35805e-05 3.38892e-05 1.21812e-05 4.3432e-06 1.53511e-06 5.37542e-07 1.86367e-07 6.39408e-08 2.16981e-08 7.27985e-09 2.41367e-09 7.9024e-10 2.55206e-10 8.13321e-11 2.56323e-11 7.29576e-12 2.44001e-12 1.24304e-14 -4.17249e-13 -1.75591e-13 5.69293e-14 1.35139e-13 -1.74705e-13 -1.85041e-13 -2.74427e-13 -1.56642e-13 2.55006e-13 -2.34448e-13 -4.59239e-13 -3.50812e-13 -1.0845e-13 -6.82837e-14 -7.49825e-14 -3.18674e-13 -4.67497e-13 -1.48928e-13 -2.86033e-13 -1.41688e-13 2.05326e-13 1.64806e-13 8.05547e-14 -1.81448e-13 8.85324e-13 4.89071e-13 1.3813e-13 -1.71495e-13 2.22884e-13 -7.46393e-13 -2.49554e-13 0 0 4.39272e-14 3.02915e-14 5.71341e-14 2.32701e-14 8.32359e-14 3.86869e-14 -5.13377e-14 2.59635e-14 -1.7272e-14 -4.2527e-14 -1.72862e-13 8.58807e-14 -2.46016e-13 -4.30861e-15 -4.47776e-14 -2.1553e-13 9.38241e-14 -7.55592e-14 -4.64974e-14 -2.75025e-14 -2.81527e-13 1.41758e-13 -2.04438e-13 2.84891e-13 -1.45013e-13 -6.50457e-14 -5.28131e-14 -9.82183e-14 5.32411e-14 -5.68582e-14 -2.88408e-13 -7.1747e-14 -6.49031e-15 -3.34903e-14 -1.74752e-13 -9.3443e-14 -6.06395e-14 -5.82607e-14 -7.9147e-14 -2.55529e-13 -4.73387e-13 5.56813e-14 -7.95232e-15 2.22707e-14 -4.08893e-13 -7.15171e-14 3.11015e-13 -2.36829e-13 4.87121e-14 1.18434e-13 -4.39431e-13 -1.19846e-13 1.27813e-13 -1.0906e-13 -2.73343e-13 -4.0412e-13 5.56625e-13 3.10326e-12 2.59025e-11 1.93414e-10 1.35941e-09 8.91391e-09 5.43625e-08 3.07089e-07 1.59956e-06 7.64275e-06 3.32928e-05 0.000131266 0.000464446 0.00146046 0.00404129 0.00976567 0.0205704 0.037941 0.0620371 0.0916276 0.124895 0.160297 0.196832 0.233956 0.271405 0.30896 0.346479 0.383904 0.421181 0.45826 0.495094 0.531633 0.56782 0.603593 0.638881 0.673603 0.707673 0.740996 0.773473 0.805017 0.835573 0.865163 0.893912 0.922492 0.941701 0.941719 0.94094 0.939644 0.938203 0.936609 0.934951 0.933345 0.931855 0.930689 0.929722 0.928929 0.928469 0.928092 0.927913 0.928212 0.927323 0.921576 0.925157 0.925729 0.930174 0.928629 0.928872 0.92989 0.929931 0.929897 0.929889 0.929875 0.929614 0.929235 0.928959 0.929167 0.929181 0.928432 0.922245 0.902989 0.859531 0.784578 0.677647 0.545222 0.400878 0.263358 0.151223 0.0751178 0.0327903 0.0131473 0.00503791 0.00188749 0.00069875 0.000256605 9.35805e-05 3.38892e-05 1.21812e-05 4.3432e-06 1.53511e-06 5.37542e-07 1.86367e-07 6.39405e-08 2.16981e-08 7.27966e-09 2.41311e-09 7.90508e-10 2.555e-10 8.1184e-11 2.53962e-11 7.44807e-12 2.31198e-12 3.31631e-13 -3.41059e-13 -2.41031e-13 -1.73228e-13 -1.20476e-13 4.12949e-14 -3.37183e-14 1.92661e-13 2.59914e-13 -4.71828e-13 3.7039e-13 -7.18508e-13 5.42219e-14 -2.40659e-13 -5.94843e-13 1.3578e-13 -2.52482e-13 -7.14428e-13 3.73264e-13 -2.0648e-13 -2.34161e-13 8.41817e-13 -7.90239e-13 -5.56853e-13 7.193e-13 -2.25474e-13 7.17965e-13 -1.99027e-13 1.58856e-13 2.53579e-13 -1.22512e-13 -2.83476e-13 0 0 2.785e-14 5.60342e-14 2.45839e-14 6.37405e-14 -1.48322e-14 -2.41271e-14 5.57783e-14 5.9963e-15 1.01061e-13 -1.24231e-13 7.64095e-14 -3.00078e-13 4.26484e-15 -1.69385e-13 -1.37283e-13 1.08274e-13 -3.02442e-13 3.28643e-13 -1.30768e-13 -2.13657e-13 -3.50254e-15 -1.1568e-13 2.15147e-13 -2.47949e-13 6.06113e-14 2.15864e-13 -2.3698e-13 -6.67327e-14 -2.82653e-14 4.13655e-14 -1.27509e-13 -4.00392e-13 6.3523e-14 -5.9532e-13 6.71543e-14 1.88931e-13 3.07019e-14 -2.14087e-13 -1.9999e-13 -3.65651e-13 1.56474e-13 -6.74174e-14 -2.84021e-13 -2.74508e-13 1.89008e-13 4.05845e-13 -6.76716e-13 -7.13708e-15 -1.94948e-13 -1.87794e-13 -1.29577e-13 3.21864e-13 -4.20726e-13 -9.60863e-14 4.39368e-14 1.58785e-13 -2.44825e-13 3.46051e-12 2.55267e-11 1.93651e-10 1.35933e-09 8.91383e-09 5.43626e-08 3.07089e-07 1.59956e-06 7.64275e-06 3.32928e-05 0.000131266 0.000464446 0.00146046 0.00404129 0.00976567 0.0205704 0.037941 0.0620371 0.0916276 0.124895 0.160297 0.196832 0.233956 0.271405 0.30896 0.346479 0.383904 0.421181 0.45826 0.495094 0.531633 0.56782 0.603593 0.638881 0.673603 0.707673 0.740996 0.773473 0.805017 0.835573 0.865163 0.893912 0.922492 0.941701 0.941719 0.94094 0.939644 0.938203 0.936609 0.934951 0.933345 0.931855 0.930689 0.929722 0.928929 0.928469 0.928092 0.927913 0.928212 0.927323 0.921576 0.925157 0.925729 0.930174 0.928629 0.928872 0.92989 0.929931 0.929897 0.929889 0.929875 0.929614 0.929235 0.928959 0.929167 0.929181 0.928432 0.922245 0.902989 0.859531 0.784578 0.677647 0.545222 0.400878 0.263358 0.151223 0.0751178 0.0327903 0.0131473 0.00503791 0.00188749 0.00069875 0.000256605 9.35805e-05 3.38892e-05 1.21812e-05 4.3432e-06 1.53511e-06 5.37542e-07 1.86368e-07 6.39398e-08 2.16982e-08 7.27891e-09 2.413e-09 7.90992e-10 2.56008e-10 8.06789e-11 2.51914e-11 7.77711e-12 2.64915e-12 -4.38535e-14 -1.58727e-13 -4.49672e-13 -7.0843e-13 -7.70835e-14 5.72006e-13 -4.62334e-13 1.27214e-12 -5.01846e-13 -2.74074e-13 -2.6924e-13 8.30999e-13 -1.89429e-13 -5.45675e-13 -3.04308e-13 -1.00389e-12 8.44647e-14 -7.40365e-14 -6.56261e-13 6.3642e-13 2.69172e-13 -7.2295e-13 3.15316e-13 -2.62708e-13 -1.84375e-13 -5.57828e-14 -6.02735e-13 -1.56728e-13 6.73603e-14 -1.0092e-13 7.1065e-13 -1.25437e-13 0
				</DataArray>
				<DataArray Name="VitesseY" type="Float32" format="ascii">