<?xml version="1.0"?>
<VTKFile type="PolyData">
	<PolyData>
		<Piece NumberOfPoints="1206" NumberOfPolys="1000">
			<Points>
				<DataArray type="Float32" NumberOfComponents="3" format="ascii">
 0 0 0 0.005 0 0 0.01 0 0 0.015 0 0 0.02 0 0 0.025 0 0 0.03 0 0 0.035 0 0 0.04 0 0 0.045 0 0 0.05 0 0 0.055 0 0 0.06 0 0 0.065 0 0 0.07 0 0 0.075 0 0 0.08 0 0 0.085 0 0 0.09 0 0 0.095 0 0 0.1 0 0 0.105 0 0 0.11 0 0 0.115 0 0 0.12 0 0 0.125 0 0 0.13 0 0 0.135 0 0 0.14 0 0 0.145 0 0 0.15 0 0 0.155 0 0 0.16 0 0 0.165 0 0 0.17 0 0 0.175 0 0 0.18 0 0 0.185 0 0 0.19 0 0 0.195 0 0 0.2 0 0 0.205 0 0 0.21 0 0 0.215 0 0 0.22 0 0 0.225 0 0 0.23 0 0 0.235 0 0 0.24 0 0 0.245 0 0 0.25 0 0 0.255 0 0 0.26 0 0 0.265 0 0 0.27 0 0 0.275 0 0 0.28 0 0 0.285 0 0 0.29 0 0 0.295 0 0 0.3 0 0 0.305 0 0 0.31 0 0 0.315 0 0 0.32 0 0 0.325 0 0 0.33 0 0 0.335 0 0 0.34 0 0 0.345 0 0 0.35 0 0 0.355 0 0 0.36 0 0 0.365 0 0 0.37 0 0 0.375 0 0 0.38 0 0 0.385 0 0 0.39 0 0 0.395 0 0 0.4 0 0 0.405 0 0 0.41 0 0 0.415 0 0 0.42 0 0 0.425 0 0 0.43 0 0 0.435 0 0 0.44 0 0 0.445 0 0 0.45 0 0 0.455 0 0 0.46 0 0 0.465 0 0 0.47 0 0 0.475 0 0 0.48 0 0 0.485 0 0 0.49 0 0 0.495 0 0 0.5 0 0 0.505 0 0 0.51 0 0 0.515 0 0 0.52 0 0 0.525 0 0 0.53 0 0 0.535 0 0 0.54 0 0 0.545 0 0 0.55 0 0 0.555 0 0 0.56 0 0 0.565 0 0 0.57 0 0 0.575 0 0 0.58 0 0 0.585 0 0 0.59 0 0 0.595 0 0 0.6 0 0 0.605 0 0 0.61 0 0 0.615 0 0 0.62 0 0 0.625 0 0 0.63 0 0 0.635 0 0 0.64 0 0 0.645 0 0 0.65 0 0 0.655 0 0 0.66 0 0 0.665 0 0 0.67 0 0 0.675 0 0 0.68 0 0 0.685 0 0 0.69 0 0 0.695 0 0 0.7 0 0 0.705 0 0 0.71 0 0 0.715 0 0 0.72 0 0 0.725 0 0 0.73 0 0 0.735 0 0 0.74 0 0 0.745 0 0 0.75 0 0 0.755 0 0 0.76 0 0 0.765 0 0 0.77 0 0 0.775 0 0 0.78 0 0 0.785 0 0 0.79 0 0 0.795 0 0 0.8 0 0 0.805 0 0 0.81 0 0 0.815 0 0 0.82 0 0 0.825 0 0 0.83 0 0 0.835 0 0 0.84 0 0 0.845 0 0 0.85 0 0 0.855 0 0 0.86 0 0 0.865 0 0 0.87 0 0 0.875 0 0 0.88 0 0 0.885 0 0 0.89 0 0 0.895 0 0 0.9 0 0 0.905 0 0 0.91 0 0 0.915 0 0 0.92 0 0 0.925 0 0 0.93 0 0 0.935 0 0 0.94 0 0 0.945 0 0 0.95 0 0 0.955 0 0 0.96 0 0 0.965 0 0 0.97 0 0 0.975 0 0 0.98 0 0 0.985 0 0 0.99 0 0 0.995 0 0 1 0 0 0 0.02 0 0.005 0.02 0 0.01 0.02 0 0.015 0.02 0 0.02 0.02 0 0.025 0.02 0 0.03 0.02 0 0.035 0.02 0 0.04 0.02 0 0.045 0.02 0 0.05 0.02 0 0.055 0.02 0 0.06 0.02 0 0.065 0.02 0 0.07 0.02 0 0.075 0.02 0 0.08 0.02 0 0.085 0.02 0 0.09 0.02 0 0.095 0.02 0 0.1 0.02 0 0.105 0.02 0 0.11 0.02 0 0.115 0.02 0 0.12 0.02 0 0.125 0.02 0 0.13 0.02 0 0.135 0.02 0 0.14 0.02 0 0.145 0.02 0 0.15 0.02 0 0.155 0.02 0 0.16 0.02 0 0.165 0.02 0 0.17 0.02 0 0.175 0.02 0 0.18 0.02 0 0.185 0.02 0 0.19 0.02 0 0.195 0.02 0 0.2 0.02 0 0.205 0.02 0 0.21 0.02 0 0.215 0.02 0 0.22 0.02 0 0.225 0.02 0 0.23 0.02 0 0.235 0.02 0 0.24 0.02 0 0.245 0.02 0 0.25 0.02 0 0.255 0.02 0 0.26 0.02 0 0.265 0.02 0 0.27 0.02 0 0.275 0.02 0 0.28 0.02 0 0.285 0.02 0 0.29 0.02 0 0.295 0.02 0 0.3 0.02 0 0.305 0.02 0 0.31 0.02 0 0.315 0.02 0 0.32 0.02 0 0.325 0.02 0 0.33 0.02 0 0.335 0.02 0 0.34 0.02 0 0.345 0.02 0 0.35 0.02 0 0.355 0.02 0 0.36 0.02 0 0.365 0.02 0 0.37 0.02 0 0.375 0.02 0 0.38 0.02 0 0.385 0.02 0 0.39 0.02 0 0.395 0.02 0 0.4 0.02 0 0.405 0.02 0 0.41 0.02 0 0.415 0.02 0 0.42 0.02 0 0.425 0.02 0 0.43 0.02 0 0.435 0.02 0 0.44 0.02 0 0.445 0.02 0 0.45 0.02 0 0.455 0.02 0 0.46 0.02 0 0.465 0.02 0 0.47 0.02 0 0.475 0.02 0 0.48 0.02 0 0.485 0.02 0 0.49 0.02 0 0.495 0.02 0 0.5 0.02 0 0.505 0.02 0 0.51 0.02 0 0.515 0.02 0 0.52 0.02 0 0.525 0.02 0 0.53 0.02 0 0.535 0.02 0 0.54 0.02 0 0.545 0.02 0 0.55 0.02 0 0.555 0.02 0 0.56 0.02 0 0.565 0.02 0 0.57 0.02 0 0.575 0.02 0 0.58 0.02 0 0.585 0.02 0 0.59 0.02 0 0.595 0.02 0 0.6 0.02 0 0.605 0.02 0 0.61 0.02 0 0.615 0.02 0 0.62 0.02 0 0.625 0.02 0 0.63 0.02 0 0.635 0.02 0 0.64 0.02 0 0.645 0.02 0 0.65 0.02 0 0.655 0.02 0 0.66 0.02 0 0.665 0.02 0 0.67 0.02 0 0.675 0.02 0 0.68 0.02 0 0.685 0.02 0 0.69 0.02 0 0.695 0.02 0 0.7 0.02 0 0.705 0.02 0 0.71 0.02 0 0.715 0.02 0 0.72 0.02 0 0.725 0.02 0 0.73 0.02 0 0.735 0.02 0 0.74 0.02 0 0.745 0.02 0 0.75 0.02 0 0.755 0.02 0 0.76 0.02 0 0.765 0.02 0 0.77 0.02 0 0.775 0.02 0 0.78 0.02 0 0.785 0.02 0 0.79 0.02 0 0.795 0.02 0 0.8 0.02 0 0.805 0.02 0 0.81 0.02 0 0.815 0.02 0 0.82 0.02 0 0.825 0.02 0 0.83 0.02 0 0.835 0.02 0 0.84 0.02 0 0.845 0.02 0 0.85 0.02 0 0.855 0.02 0 0.86 0.02 0 0.865 0.02 0 0.87 0.02 0 0.875 0.02 0 0.88 0.02 0 0.885 0.02 0 0.89 0.02 0 0.895 0.02 0 0.9 0.02 0 0.905 0.02 0 0.91 0.02 0 0.915 0.02 0 0.92 0.02 0 0.925 0.02 0 0.93 0.02 0 0.935 0.02 0 0.94 0.02 0 0.945 0.02 0 0.95 0.02 0 0.955 0.02 0 0.96 0.02 0 0.965 0.02 0 0.97 0.02 0 0.975 0.02 0 0.98 0.02 0 0.985 0.02 0 0.99 0.02 0 0.995 0.02 0 1 0.02 0 0 0.04 0 0.005 0.04 0 0.01 0.04 0 0.015 0.04 0 0.02 0.04 0 0.025 0.04 0 0.03 0.04 0 0.035 0.04 0 0.04 0.04 0 0.045 0.04 0 0.05 0.04 0 0.055 0.04 0 0.06 0.04 0 0.065 0.04 0 0.07 0.04 0 0.075 0.04 0 0.08 0.04 0 0.085 0.04 0 0.09 0.04 0 0.095 0.04 0 0.1 0.04 0 0.105 0.04 0 0.11 0.04 0 0.115 0.04 0 0.12 0.04 0 0.125 0.04 0 0.13 0.04 0 0.135 0.04 0 0.14 0.04 0 0.145 0.04 0 0.15 0.04 0 0.155 0.04 0 0.16 0.04 0 0.165 0.04 0 0.17 0.04 0 0.175 0.04 0 0.18 0.04 0 0.185 0.04 0 0.19 0.04 0 0.195 0.04 0 0.2 0.04 0 0.205 0.04 0 0.21 0.04 0 0.215 0.04 0 0.22 0.04 0 0.225 0.04 0 0.23 0.04 0 0.235 0.04 0 0.24 0.04 0 0.245 0.04 0 0.25 0.04 0 0.255 0.04 0 0.26 0.04 0 0.265 0.04 0 0.27 0.04 0 0.275 0.04 0 0.28 0.04 0 0.285 0.04 0 0.29 0.04 0 0.295 0.04 0 0.3 0.04 0 0.305 0.04 0 0.31 0.04 0 0.315 0.04 0 0.32 0.04 0 0.325 0.04 0 0.33 0.04 0 0.335 0.04 0 0.34 0.04 0 0.345 0.04 0 0.35 0.04 0 0.355 0.04 0 0.36 0.04 0 0.365 0.04 0 0.37 0.04 0 0.375 0.04 0 0.38 0.04 0 0.385 0.04 0 0.39 0.04 0 0.395 0.04 0 0.4 0.04 0 0.405 0.04 0 0.41 0.04 0 0.415 0.04 0 0.42 0.04 0 0.425 0.04 0 0.43 0.04 0 0.435 0.04 0 0.44 0.04 0 0.445 0.04 0 0.45 0.04 0 0.455 0.04 0 0.46 0.04 0 0.465 0.04 0 0.47 0.04 0 0.475 0.04 0 0.48 0.04 0 0.485 0.04 0 0.49 0.04 0 0.495 0.04 0 0.5 0.04 0 0.505 0.04 0 0.51 0.04 0 0.515 0.04 0 0.52 0.04 0 0.525 0.04 0 0.53 0.04 0 0.535 0.04 0 0.54 0.04 0 0.545 0.04 0 0.55 0.04 0 0.555 0.04 0 0.56 0.04 0 0.565 0.04 0 0.57 0.04 0 0.575 0.04 0 0.58 0.04 0 0.585 0.04 0 0.59 0.04 0 0.595 0.04 0 0.6 0.04 0 0.605 0.04 0 0.61 0.04 0 0.615 0.04 0 0.62 0.04 0 0.625 0.04 0 0.63 0.04 0 0.635 0.04 0 0.64 0.04 0 0.645 0.04 0 0.65 0.04 0 0.655 0.04 0 0.66 0.04 0 0.665 0.04 0 0.67 0.04 0 0.675 0.04 0 0.68 0.04 0 0.685 0.04 0 0.69 0.04 0 0.695 0.04 0 0.7 0.04 0 0.705 0.04 0 0.71 0.04 0 0.715 0.04 0 0.72 0.04 0 0.725 0.04 0 0.73 0.04 0 0.735 0.04 0 0.74 0.04 0 0.745 0.04 0 0.75 0.04 0 0.755 0.04 0 0.76 0.04 0 0.765 0.04 0 0.77 0.04 0 0.775 0.04 0 0.78 0.04 0 0.785 0.04 0 0.79 0.04 0 0.795 0.04 0 0.8 0.04 0 0.805 0.04 0 0.81 0.04 0 0.815 0.04 0 0.82 0.04 0 0.825 0.04 0 0.83 0.04 0 0.835 0.04 0 0.84 0.04 0 0.845 0.04 0 0.85 0.04 0 0.855 0.04 0 0.86 0.04 0 0.865 0.04 0 0.87 0.04 0 0.875 0.04 0 0.88 0.04 0 0.885 0.04 0 0.89 0.04 0 0.895 0.04 0 0.9 0.04 0 0.905 0.04 0 0.91 0.04 0 0.915 0.04 0 0.92 0.04 0 0.925 0.04 0 0.93 0.04 0 0.935 0.04 0 0.94 0.04 0 0.945 0.04 0 0.95 0.04 0 0.955 0.04 0 0.96 0.04 0 0.965 0.04 0 0.97 0.04 0 0.975 0.04 0 0.98 0.04 0 0.985 0.04 0 0.99 0.04 0 0.995 0.04 0 1 0.04 0 0 0.06 0 0.005 0.06 0 0.01 0.06 0 0.015 0.06 0 0.02 0.06 0 0.025 0.06 0 0.03 0.06 0 0.035 0.06 0 0.04 0.06 0 0.045 0.06 0 0.05 0.06 0 0.055 0.06 0 0.06 0.06 0 0.065 0.06 0 0.07 0.06 0 0.075 0.06 0 0.08 0.06 0 0.085 0.06 0 0.09 0.06 0 0.095 0.06 0 0.1 0.06 0 0.105 0.06 0 0.11 0.06 0 0.115 0.06 0 0.12 0.06 0 0.125 0.06 0 0.13 0.06 0 0.135 0.06 0 0.14 0.06 0 0.145 0.06 0 0.15 0.06 0 0.155 0.06 0 0.16 0.06 0 0.165 0.06 0 0.17 0.06 0 0.175 0.06 0 0.18 0.06 0 0.185 0.06 0 0.19 0.06 0 0.195 0.06 0 0.2 0.06 0 0.205 0.06 0 0.21 0.06 0 0.215 0.06 0 0.22 0.06 0 0.225 0.06 0 0.23 0.06 0 0.235 0.06 0 0.24 0.06 0 0.245 0.06 0 0.25 0.06 0 0.255 0.06 0 0.26 0.06 0 0.265 0.06 0 0.27 0.06 0 0.275 0.06 0 0.28 0.06 0 0.285 0.06 0 0.29 0.06 0 0.295 0.06 0 0.3 0.06 0 0.305 0.06 0 0.31 0.06 0 0.315 0.06 0 0.32 0.06 0 0.325 0.06 0 0.33 0.06 0 0.335 0.06 0 0.34 0.06 0 0.345 0.06 0 0.35 0.06 0 0.355 0.06 0 0.36 0.06 0 0.365 0.06 0 0.37 0.06 0 0.375 0.06 0 0.38 0.06 0 0.385 0.06 0 0.39 0.06 0 0.395 0.06 0 0.4 0.06 0 0.405 0.06 0 0.41 0.06 0 0.415 0.06 0 0.42 0.06 0 0.425 0.06 0 0.43 0.06 0 0.435 0.06 0 0.44 0.06 0 0.445 0.06 0 0.45 0.06 0 0.455 0.06 0 0.46 0.06 0 0.465 0.06 0 0.47 0.06 0 0.475 0.06 0 0.48 0.06 0 0.485 0.06 0 0.49 0.06 0 0.495 0.06 0 0.5 0.06 0 0.505 0.06 0 0.51 0.06 0 0.515 0.06 0 0.52 0.06 0 0.525 0.06 0 0.53 0.06 0 0.535 0.06 0 0.54 0.06 0 0.545 0.06 0 0.55 0.06 0 0.555 0.06 0 0.56 0.06 0 0.565 0.06 0 0.57 0.06 0 0.575 0.06 0 0.58 0.06 0 0.585 0.06 0 0.59 0.06 0 0.595 0.06 0 0.6 0.06 0 0.605 0.06 0 0.61 0.06 0 0.615 0.06 0 0.62 0.06 0 0.625 0.06 0 0.63 0.06 0 0.635 0.06 0 0.64 0.06 0 0.645 0.06 0 0.65 0.06 0 0.655 0.06 0 0.66 0.06 0 0.665 0.06 0 0.67 0.06 0 0.675 0.06 0 0.68 0.06 0 0.685 0.06 0 0.69 0.06 0 0.695 0.06 0 0.7 0.06 0 0.705 0.06 0 0.71 0.06 0 0.715 0.06 0 0.72 0.06 0 0.725 0.06 0 0.73 0.06 0 0.735 0.06 0 0.74 0.06 0 0.745 0.06 0 0.75 0.06 0 0.755 0.06 0 0.76 0.06 0 0.765 0.06 0 0.77 0.06 0 0.775 0.06 0 0.78 0.06 0 0.785 0.06 0 0.79 0.06 0 0.795 0.06 0 0.8 0.06 0 0.805 0.06 0 0.81 0.06 0 0.815 0.06 0 0.82 0.06 0 0.825 0.06 0 0.83 0.06 0 0.835 0.06 0 0.84 0.06 0 0.845 0.06 0 0.85 0.06 0 0.855 0.06 0 0.86 0.06 0 0.865 0.06 0 0.87 0.06 0 0.875 0.06 0 0.88 0.06 0 0.885 0.06 0 0.89 0.06 0 0.895 0.06 0 0.9 0.06 0 0.905 0.06 0 0.91 0.06 0 0.915 0.06 0 0.92 0.06 0 0.925 0.06 0 0.93 0.06 0 0.935 0.06 0 0.94 0.06 0 0.945 0.06 0 0.95 0.06 0 0.955 0.06 0 0.96 0.06 0 0.965 0.06 0 0.97 0.06 0 0.975 0.06 0 0.98 0.06 0 0.985 0.06 0 0.99 0.06 0 0.995 0.06 0 1 0.06 0 0 0.08 0 0.005 0.08 0 0.01 0.08 0 0.015 0.08 0 0.02 0.08 0 0.025 0.08 0 0.03 0.08 0 0.035 0.08 0 0.04 0.08 0 0.045 0.08 0 0.05 0.08 0 0.055 0.08 0 0.06 0.08 0 0.065 0.08 0 0.07 0.08 0 0.075 0.08 0 0.08 0.08 0 0.085 0.08 0 0.09 0.08 0 0.095 0.08 0 0.1 0.08 0 0.105 0.08 0 0.11 0.08 0 0.115 0.08 0 0.12 0.08 0 0.125 0.08 0 0.13 0.08 0 0.135 0.08 0 0.14 0.08 0 0.145 0.08 0 0.15 0.08 0 0.155 0.08 0 0.16 0.08 0 0.165 0.08 0
[...]
			<PointData Scalars="VitesseX">
				<DataArray Name="VitesseX" type="Float32" format="ascii">
 0 -5.3396e-15 1.17616e-14 -6.69484e-14 3.08728e-14 -2.46236e-14 -5.64217e-14 -7.88192e-14 -2.50727e-14 -1.61045e-14 -4.12099e-14 1.26947e-14 -2.17149e-13 7.12852e-14 -2.18917e-13 -1.19706e-13 9.67471e-14 -1.99319e-13 1.54647e-13 -1.02272e-13 -1.64095e-13 1.50533e-13 -1.11378e-13 9.1615e-16 -3.41475e-13 8.8084e-14 6.58033e-14 -1.53548e-13 -1.40878e-13 -6.85476e-15 5.00821e-14 6.02257e-14 -1.51489e-13 -3.51252e-15 -2.26168e-13 -1.98344e-13 9.81968e-15 -1.12478e-13 -4.183e-13 -8.0988e-14 -3.29145e-13 1.40339e-13 -2.65684e-13 -4.96452e-13 -6.64681e-14 -3.39849e-14 1.77258e-13 -1.82196e-13 3.22159e-14 1.93886e-13 1.09261e-13 2.66912e-13 -3.75267e-13 -5.20971e-13 -3.79529e-13 -3.96021e-13 -1.12992e-13 -4.64046e-13 2.61913e-13 6.05513e-14 4.9959e-13 4.34743e-12 3.58401e-11 2.84837e-10 2.0977e-09 1.43554e-08 9.08477e-08 5.29487e-07 2.82738e-06 1.37495e-05 6.04588e-05 0.000238345 0.00083405 0.00256247 0.00684204 0.0157875 0.0315441 0.0550955 0.0856356 0.121173 0.159701 0.199813 0.240693 0.281955 0.323294 0.36455 0.405648 0.446513 0.487075 0.527261 0.566993 0.606182 0.644728 0.682518 0.719427 0.755323 0.790074 0.823569 0.855766 0.886819 0.917439 0.941238 0.942754 0.942034 0.940401 0.938431 0.93633 0.934383 0.93271 0.931357 0.930209 0.929467 0.928841 0.9284 0.928659 0.927928 0.926618 0.920043 0.929153 0.928331 0.929221 0.928811 0.930013 0.93019 0.930031 0.929739 0.929381 0.928875 0.928956 0.929905 0.929862 0.927206 0.914931 0.883226 0.821552 0.727274 0.603659 0.461473 0.318242 0.193189 0.10156 0.0463645 0.0190343 0.0073572 0.00275608 0.00101557 0.000370247 0.000133786 4.79218e-05 1.70084e-05 5.97753e-06 2.07883e-06 7.1494e-07 2.43006e-07 8.15882e-08 2.70458e-08 8.84802e-09 2.85563e-09 9.08515e-10 2.84716e-10 8.82782e-11 2.68896e-11 7.93879e-12 1.22578e-12 5.06028e-13 -1.67054e-13 -1.40771e-13 3.01929e-13 -7.14051e-13 5.46209e-13 -3.46762e-13 -5.08968e-13 1.89278e-13 -7.90155e-13 6.57043e-13 -8.94952e-13 -5.08486e-13 8.81161e-13 -5.92701e-13 6.5425e-13 -6.90351e-13 1.16954e-13 6.04585e-13 -3.82296e-13 2.3094e-14 -2.31327e-13 -5.96117e-13 -3.77373e-13 1.20091e-14 -7.99838e-14 -3.58892e-13 -5.96345e-14 5.34338e-13 -2.18706e-13 3.40155e-13 -1.00222e-13 1.15273e-12 6.62882e-13 -1.20244e-12 -2.43284e-13 0 0 -4.00961e-15 -4.04103e-14 3.53295e-14 -6.82201e-14 -1.78101e-14 2.54424e-14 7.53747e-16 -5.633e-14 -2.49284e-14 -1.63932e-14 -1.03211e-13 5.79044e-14 -2.13895e-13 3.05181e-14 -2.12033e-14 -2.33024e-13 8.92698e-14 -2.09869e-13 2.71844e-14 -1.75339e-14 -1.54302e-13 1.08093e-14 -2.1328e-13 1.81269e-13 -1.84824e-13 -2.3805e-13 3.1727e-14 -6.18256e-14 6.49989e-14 -2.33138e-14 -6.10208e-14 3.87296e-14 -1.2684e-13 -9.91056e-14 -1.88927e-13 -1.40091e-13 -1.48012e-13 4.71578e-14 -1.87754e-13 -1.97493e-13 -5.43483e-13 -8.0172e-14 -5.94746e-15 -1.08569e-13 -3.93173e-14 -1.59109e-14 1.16765e-13 1.46351e-13 9.31301e-14 1.29003e-13 -3.97356e-13 -1.24089e-13 1.0366e-13 -3.02401e-13 -3.74153e-13 -5.3609e-13 2.006e-14 -1.21158e-13 1.46677e-13 4.88618e-13 4.26819e-12 3.59857e-11 2.84715e-10 2.09825e-09 1.43545e-08 9.0848e-08 5.29487e-07 2.82738e-06 1.37495e-05 6.04588e-05 0.000238345 0.00083405 0.00256247 0.00684204 0.0157875 0.0315441 0.0550955 0.0856356 0.121173 0.159701 0.199813 0.240693 0.281955 0.323294 0.36455 0.405648 0.446513 0.487075 0.527261 0.566993 0.606182 0.644728 0.682518 0.719427 0.755323 0.790074 0.823569 0.855766 0.886819 0.917439 0.941238 0.942754 0.942034 0.940401 0.938431 0.93633 0.934383 0.93271 0.931357 0.930209 0.929467 0.928841 0.9284 0.928659 0.927928 0.926618 0.920043 0.929153 0.928331 0.929221 0.928811 0.930013 0.93019 0.930031 0.929739 0.929381 0.928875 0.928956 0.929905 0.929862 0.927206 0.914931 0.883226 0.821552 0.727274 0.603659 0.461473 0.318242 0.193189 0.10156 0.0463645 0.0190343 0.0073572 0.00275608 0.00101557 0.000370247 0.000133786 4.79218e-05 1.70084e-05 5.97753e-06 2.07883e-06 7.14941e-07 2.43006e-07 8.15886e-08 2.70455e-08 8.84784e-09 2.85547e-09 9.09072e-10 2.85183e-10 8.7859e-11 2.6343e-11 7.66085e-12 2.7002e-12 -1.5385e-14 -1.05813e-13 -2.81244e-13 -4.57522e-13 3.16707e-13 -2.09662e-13 -4.5969e-14 -2.69995e-13 -5.22498e-13 1.71913e-13 -7.3886e-13 2.60765e-13 2.70443e-13 -7.00159e-13 7.33584e-13 -7.65057e-13 2.23725e-13 3.69579e-13 -2.38131e-13 -2.34565e-13 -7.77307e-14 -4.21166e-13 1.16541e-13 -2.91822e-13 -8.67805e-13 -2.6137e-13 1.99016e-13 -3.24956e-13 2.05993e-13 3.22009e-13 2.50846e-13 8.72031e-13 -7.82679e-13 1.01546e-13 6.02788e-13 5.08839e-13 0 0 -1.92285e-15 1.2438e-14 1.51542e-15 4.3015e-14 -3.07149e-14 1.47719e-14 -9.12116e-15 6.0748e-14 5.81289e-15 -2.03129e-14 -1.1587e-14 -1.28638e-13 7.91423e-14 -1.83084e-13 -8.54184e-14 -2.89162e-14 -2.18659e-13 -3.58487e-14 -8.68075e-14 -1.25362e-13 6.55115e-14 -2.10832e-13 2.47478e-14 -2.36541e-13 -8.46238e-14 -3.83829e-14 4.98497e-15 -1.54072e-13 -1.18099e-14 2.86041e-14 5.18202e-14 -4.47523e-14 -1.02532e-13 -1.79026e-14 -7.92987e-14 -5.45141e-14 -9.42661e-14 -2.94312e-13 -1.94379e-13 -1.25799e-13 -7.45793e-14 -9.50541e-14 -1.16137e-13 4.69576e-14 1.02559e-13 7.42059e-15 -1.81995e-13 -1.4109e-13 -1.80128e-13 -1.06458e-13 2.79523e-13 2.35605e-13 -3.21857e-13 -1.19445e-13 -1.45203e-13 -2.80066e-13 -4.18795e-13 3.41425e-13 8.64613e-14 4.88292e-13 4.23284e-12 3.60661e-11 2.85007e-10 2.09835e-09 1.43544e-08 9.08473e-08 5.29487e-07 2.82738e-06 1.37495e-05 6.04588e-05 0.000238345 0.00083405 0.00256247 0.00684204 0.0157875 0.0315441 0.0550955 0.0856356 0.121173 0.159701 0.199813 0.240693 0.281955 0.323294 0.36455 0.405648 0.446513 0.487075 0.527261 0.566993 0.606182 0.644728 0.682518 0.719427 0.755323 0.790074 0.823569 0.855766 0.886819 0.917439 0.941238 0.942754 0.942034 0.940401 0.938431 0.93633 0.934383 0.93271 0.931357 0.930209 0.929467 0.928841 0.9284 0.928659 0.927928 0.926618 0.920043 0.929153 0.928331 0.929221 0.928811 0.930013 0.93019 0.930031 0.929739 0.929381 0.928875 0.928956 0.929905 0.929862 0.927206 0.914931 0.883226 0.821552 0.727274 0.603659 0.461473 0.318242 0.193189 0.10156 0.0463645 0.0190343 0.0073572 0.00275608 0.00101557 0.000370247 0.000133786 4.79218e-05 1.70084e-05 5.97753e-06 2.07883e-06 7.14941e-07 2.43006e-07 8.15884e-08 2.70459e-08 8.84798e-09 2.85568e-09 9.08931e-10 2.85249e-10 8.80964e-11 2.68899e-11 7.71755e-12 1.88665e-12 6.6001e-13 -2.43056e-13 -6.03164e-13 1.58589e-13 -2.84944e-13 -2.90488e-13 -4.83285e-13 -5.62216e-13 -3.66302e-14 -2.88429e-13 -5.21292e-14 3.80569e-14 -2.84676e-13 1.89584e-13 -1.1525e-13 1.60359e-13 -1.53846e-13 -6.20772e-13 4.65618e-13 -4.51552e-13 -3.23678e-13 -2.22802e-13 -2.00582e-13 6.48746e-14 -3.75724e-13 -2.75624e-13 5.14927e-14 -2.74619e-13 3.2886e-13 5.11547e-13 4.3344e-14 -2.02842e-13 2.03579e-13 -1.13951e-13 2.01914e-13 -2.5732e-13 0 0 1.9928e-14 2.20851e-14 2.16147e-14 7.10156e-14 6.94929e-14 -1.77031e-14 1.51753e-14 4.48862e-14 -1.66881e-14 -3.71205e-14 -9.8751e-14 -6.29267e-14 3.09397e-14 -2.08533e-13 -8.71698e-14 -3.26472e-14 -1.58229e-13 -1.3337e-14 -1.48745e-13 -1.03632e-13 2.78933e-15 -3.34691e-14 -1.55047e-13 -1.48419e-13 2.42006e-14 -2.92082e-14 -7.68501e-14 -1.47931e-13 -4.63859e-14 1.056e-14 -6.86251e-14 8.00455e-14 6.31162e-14 3.77046e-14 -1.47474e-13 -5.62965e-14 -1.10305e-13 -4.44874e-13 -9.76742e-14 -6.99113e-14 -1.10193e-14 -5.04491e-14 -1.32683e-13 -8.93722e-14 -9.20686e-14 -1.42391e-13 -5.742e-14 -1.10014e-13 -6.93968e-14 -8.28907e-14 1.29778e-13 -6.52316e-14 2.06805e-14 -2.97842e-13 -2.71966e-13 -1.2917e-13 -3.01765e-13 1.90677e-13 3.17744e-13 7.32408e-13 4.20457e-12 3.60649e-11 2.85168e-10 2.09824e-09 1.43547e-08 9.08474e-08 5.29487e-07 2.82738e-06 1.37495e-05 6.04588e-05 0.000238345 0.00083405 0.00256247 0.00684204 0.0157875 0.0315441 0.0550955 0.0856356 0.121173 0.159701 0.199813 0.240693 0.281955 0.323294 0.36455 0.405648 0.446513 0.487075 0.527261 0.566993 0.606182 0.644728 0.682518 0.719427 0.755323 0.790074 0.823569 0.855766 0.886819 0.917439 0.941238 0.942754 0.942034 0.940401 0.938431 0.93633 0.934383 0.93271 0.931357 0.930209 0.929467 0.928841 0.9284 0.928659 0.927928 0.926618 0.920043 0.929153 0.928331 0.929221 0.928811 0.930013 0.93019 0.930031 0.929739 0.929381 0.928875 0.928956 0.929905 0.929862 0.927206 0.914931 0.883226 0.821552 0.727274 0.603659 0.461473 0.318242 0.193189 0.10156 0.0463645 0.0190343 0.0073572 0.00275608 0.00101557 0.000370247 0.000133786 4.79218e-05 1.70084e-05 5.97753e-06 2.07883e-06 7.14941e-07 2.43007e-07 8.15886e-08 2.70458e-08 8.84825e-09 2.85558e-09 9.08859e-10 2.85115e-10 8.82768e-11 2.6889e-11 8.11562e-12 1.48578e-12 5.4339e-13 -1.99678e-13 -3.12731e-13 5.19574e-13 -7.10349e-13 -4.25028e-13 -6.57449e-13 -2.55669e-13 -1.87967e-13 -1.92556e-13 3.87734e-13 -6.07667e-13 -5.80226e-13 6.97328e-13 6.17124e-14 -2.44937e-13 -2.56614e-13 -5.41899e-13 -2.00159e-13 1.93282e-13 -2.79026e-13 2.61607e-13 -7.88884e-13 -3.68456e-13 2.37083e-13 3.12527e-13 1.9594e-13 -3.18503e-13 6.48043e-13 -6.59183e-13 2.81763e-13 -6.43196e-13 1.58236e-12 3.24874e-13 -1.0718e-12 -7.19293e-13 0 0 2.13831e-14 7.9872e-15 8.7201e-14 -6.24592e-15 9.02052e-14 6.61842e-14 2.8412e-14 -3.82671e-14 -1.35189e-14 -4.5479e-14 -1.56067e-13 8.64538e-14 -2.92363e-13 1.63181e-15 -6.96465e-14 -2.73994e-13 8.31719e-14 -9.43638e-14 -5.90235e-14 -1.88425e-14 -2.69028e-13 1.77349e-13 -2.83376e-13 2.84294e-13 -1.14177e-13 -1.08619e-13 -5.7155e-14 -7.16813e-14 5.46625e-14 -2.91765e-14 -3.04535e-13 1.26993e-14 -3.9587e-14 1.02401e-14 -2.15579e-13 -6.85738e-14 -3.39179e-14 -4.03161e-14 -1.35475e-13 -1.86285e-13 -4.69144e-13 4.41387e-14 -5.90495e-14 -8.79184e-14 -1.3517e-13 -1.11443e-13 1.58676e-13 5.85635e-14 1.44654e-13 -1.5282e-14 -6.11937e-13 -2.31729e-13 2.40249e-13 -3.53173e-13 -3.49893e-13 -3.59158e-13 1.45662e-14 -1.11275e-13 2.9348e-13 7.2518e-13 4.26815e-12 3.62184e-11 2.85033e-10 2.09858e-09 1.43547e-08 9.0848e-08 5.29487e-07 2.82738e-06 1.37495e-05 6.04588e-05 0.000238345 0.00083405 0.00256247 0.00684204 0.0157875 0.0315441 0.0550955 0.0856356 0.121173 0.159701 0.199813 0.240693 0.281955 0.323294 0.36455 0.405648 0.446513 0.487075 0.527261 0.566993 0.606182 0.644728 0.682518 0.719427 0.755323 0.790074 0.823569 0.855766 0.886819 0.917439 0.941238 0.942754 0.942034 0.940401 0.938431 0.93633 0.934383 0.93271 0.931357 0.930209 0.929467 0.928841 0.9284 0.928659 0.927928 0.926618 0.920043 0.929153 0.928331 0.929221 0.928811 0.930013 0.93019 0.930031 0.929739 0.929381 0.928875 0.928956 0.929905 0.929862 0.927206 0.914931 0.883226 0.821552 0.727274 0.603659 0.461473 0.318242 0.193189 0.10156 0.0463645 0.0190343 0.0073572 0.00275608 0.00101557 0.000370247 0.000133786 4.79218e-05 1.70084e-05 5.97753e-06 2.07883e-06 7.14941e-07 2.43007e-07 8.15892e-08 2.70456e-08 8.84814e-09 2.85569e-09 9.09217e-10 2.85125e-10 8.76518e-11 2.64638e-11 7.82508e-12 2.742e-12 2.42545e-13 -1.11342e-13 -2.60999e-13 -3.85369e-13 9.95667e-14 -6.93568e-13 -4.09255e-13 -4.46933e-14 -8.70759e-13 1.50786e-13 -3.39245e-13 2.45547e-13 1.52622e-13 -5.84215e-13 1.01906e-12 -4.3157e-13 2.0717e-13 8.28826e-14 -1.35518e-12 1.88738e-13 -2.48973e-13 -2.05926e-13 -2.28834e-14 -3.17583e-13 -1.34966e-13 -1.40348e-13 6.51186e-13 -4.40944e-13 7.83403e-14 -6.30293e-13 3.70995e-13 4.44356e-13 1.56606e-13 1.2233e-13 1.86946e-13 1.74265e-13 0 0 1.74402e-15 8.92622e-14 -3.40397e-15 9.88201e-14 -9.00871e-15 9.00119e-14 -7.20956e-14 4.27767e-14 5.17164e-14 -6.57663e-14 8.13118e-14 -2.91472e-13 1.0755e-14 -2.25792e-13 -2.1309e-13 2.22698e-14 -3.32376e-13 3.40633e-13 -1.50812e-13 -2.10171e-13 4.65256e-14 -1.33025e-13 2.20312e-13 -3.11669e-13 1.17307e-14 3.06315e-13 -1.67641e-13 -1.72869e-13 4.16244e-14 7.44451e-14 -1.85912e-13 -4.53145e-13 -1.60303e-13 -1.18691e-13 -1.15298e-13 1.5642e-13 1.47789e-13 -2.92123e-13 -1.6984e-13 -4.18503e-13 1.61895e-13 -1.06272e-13 -5.69563e-13 2.47492e-13 1.63565e-13 2.85818e-13 -3.47525e-13 -2.05509e-13 7.5472e-14 -2.26444e-13 1.3724e-13 1.11259e-14 -9.32869e-13 -1.24279e-13 -9.39752e-14 -6.09206e-14 -7.09095e-13 5.83173e-13 -1.08406e-13 4.84483e-13 4.4039e-12 3.63078e-11 2.85152e-10 2.09858e-09 1.43552e-08 9.08474e-08 5.29487e-07 2.82738e-06 1.37495e-05 6.04588e-05 0.000238345 0.00083405 0.00256247 0.00684204 0.0157875 0.0315441 0.0550955 0.0856356 0.121173 0.159701 0.199813 0.240693 0.281955 0.323294 0.36455 0.405648 0.446513 0.487075 0.527261 0.566993 0.606182 0.644728 0.682518 0.719427 0.755323 0.790074 0.823569 0.855766 0.886819 0.917439 0.941238 0.942754 0.942034 0.940401 0.938431 0.93633 0.934383 0.93271 0.931357 0.930209 0.929467 0.928841 0.9284 0.928659 0.927928 0.926618 0.920043 0.929153 0.928331 0.929221 0.928811 0.930013 0.93019 0.930031 0.929739 0.929381 0.928875 0.928956 0.929905 0.929862 0.927206 0.914931 0.883226 0.821552 0.727274 0.603659 0.461473 0.318242 0.193189 0.10156 0.0463645 0.0190343 0.0073572 0.00275608 0.00101557 0.000370247 0.000133786 4.79218e-05 1.70084e-05 5.97753e-06 2.07883e-06 7.14941e-07 2.43006e-07 8.1589e-08 2.70461e-08 8.84808e-09 2.85626e-09 9.08949e-10 2.8487e-10 8.75028e-11 2.71331e-11 7.47111e-12 2.11113e-12 1.25513e-12 -2.64869e-13 -6.81145e-13 -2.75734e-13 -2.97523e-13 -1.52523e-13 -7.25007e-13 -6.71457e-13 -2.04572e-13 -1.02416e-12 5.76545e-13 3.6606e-13 -1.53027e-13 9.75609e-14 -3.7567e-13 2.13182e-12 -5.17927e-13 -6.14185e-13 -2.97949e-13 -8.25359e-13 -4.08695e-13 -7.69665e-13 3.01639e-13 4.37765e-13 2.52074e-13 -1.01424e-12 2.56555e-13 -2.03842e-13 -3.59333e-13 2.18148e-13 1.03616e-13 -7.4865e-14 2.73752e-13 -1.732e-13 5.1329e-13 1.15142e-14 0
				</DataArray>
				<DataArray Name="VitesseY" type="Float32" format="ascii">