<?xml version="1.0"?>
<VTKFile type="PolyData">
	<PolyData>
		<Piece NumberOfPoints="1206" NumberOfPolys="1000">
			<Points>
				<DataArray type="Float32" NumberOfComponents="3" format="ascii">
 0 0 0 0.005 0 0 0.01 0 0 0.015 0 0 0.02 0 0 0.025 0 0 0.03 0 0 0.035 0 0 0.04 0 0 0.045 0 0 0.05 0 0 0.055 0 0 0.06 0 0 0.065 0 0 0.07 0 0 0.075 0 0 0.08 0 0 0.085 0 0 0.09 0 0 0.095 0 0 0.1 0 0 0.105 0 0 0.11 0 0 0.115 0 0 0.12 0 0 0.125 0 0 0.13 0 0 0.135 0 0 0.14 0 0 0.145 0 0 0.15 0 0 0.155 0 0 0.16 0 0 0.165 0 0 0.17 0 0 0.175 0 0 0.18 0 0 0.185 0 0 0.19 0 0 0.195 0 0 0.2 0 0 0.205 0 0 0.21 0 0 0.215 0 0 0.22 0 0 0.225 0 0 0.23 0 0 0.235 0 0 0.24 0 0 0.245 0 0 0.25 0 0 0.255 0 0 0.26 0 0 0.265 0 0 0.27 0 0 0.275 0 0 0.28 0 0 0.285 0 0 0.29 0 0 0.295 0 0 0.3 0 0 0.305 0 0 0.31 0 0 0.315 0 0 0.32 0 0 0.325 0 0 0.33 0 0 0.335 0 0 0.34 0 0 0.345 0 0 0.35 0 0 0.355 0 0 0.36 0 0 0.365 0 0 0.37 0 0 0.375 0 0 0.38 0 0 0.385 0 0 0.39 0 0 0.395 0 0 0.4 0 0 0.405 0 0 0.41 0 0 0.415 0 0 0.42 0 0 0.425 0 0 0.43 0 0 0.435 0 0 0.44 0 0 0.445 0 0 0.45 0 0 0.455 0 0 0.46 0 0 0.465 0 0 0.47 0 0 0.475 0 0 0.48 0 0 0.485 0 0 0.49 0 0 0.495 0 0 0.5 0 0 0.505 0 0 0.51 0 0 0.515 0 0 0.52 0 0 0.525 0 0 0.53 0 0 0.535 0 0 0.54 0 0 0.545 0 0 0.55 0 0 0.555 0 0 0.56 0 0 0.565 0 0 0.57 0 0 0.575 0 0 0.58 0 0 0.585 0 0 0.59 0 0 0.595 0 0 0.6 0 0 0.605 0 0 0.61 0 0 0.615 0 0 0.62 0 0 0.625 0 0 0.63 0 0 0.635 0 0 0.64 0 0 0.645 0 0 0.65 0 0 0.655 0 0 0.66 0 0 0.665 0 0 0.67 0 0 0.675 0 0 0.68 0 0 0.685 0 0 0.69 0 0 0.695 0 0 0.7 0 0 0.705 0 0 0.71 0 0 0.715 0 0 0.72 0 0 0.725 0 0 0.73 0 0 0.735 0 0 0.74 0 0 0.745 0 0 0.75 0 0 0.755 0 0 0.76 0 0 0.765 0 0 0.77 0 0 0.775 0 0 0.78 0 0 0.785 0 0 0.79 0 0 0.795 0 0 0.8 0 0 0.805 0 0 0.81 0 0 0.815 0 0 0.82 0 0 0.825 0 0 0.83 0 0 0.835 0 0 0.84 0 0 0.845 0 0 0.85 0 0 0.855 0 0 0.86 0 0 0.865 0 0 0.87 0 0 0.875 0 0 0.88 0 0 0.885 0 0 0.89 0 0 0.895 0 0 0.9 0 0 0.905 0 0 0.91 0 0 0.915 0 0 0.92 0 0 0.925 0 0 0.93 0 0 0.935 0 0 0.94 0 0 0.945 0 0 0.95 0 0 0.955 0 0 0.96 0 0 0.965 0 0 0.97 0 0 0.975 0 0 0.98 0 0 0.985 0 0 0.99 0 0 0.995 0 0 1 0 0 0 0.02 0 0.005 0.02 0 0.01 0.02 0 0.015 0.02 0 0.02 0.02 0 0.025 0.02 0 0.03 0.02 0 0.035 0.02 0 0.04 0.02 0 0.045 0.02 0 0.05 0.02 0 0.055 0.02 0 0.06 0.02 0 0.065 0.02 0 0.07 0.02 0 0.075 0.02 0 0.08 0.02 0 0.085 0.02 0 0.09 0.02 0 0.095 0.02 0 0.1 0.02 0 0.105 0.02 0 0.11 0.02 0 0.115 0.02 0 0.12 0.02 0 0.125 0.02 0 0.13 0.02 0 0.135 0.02 0 0.14 0.02 0 0.145 0.02 0 0.15 0.02 0 0.155 0.02 0 0.16 0.02 0 0.165 0.02 0 0.17 0.02 0 0.175 0.02 0 0.18 0.02 0 0.185 0.02 0 0.19 0.02 0 0.195 0.02 0 0.2 0.02 0 0.205 0.02 0 0.21 0.02 0 0.215 0.02 0 0.22 0.02 0 0.225 0.02 0 0.23 0.02 0 0.235 0.02 0 0.24 0.02 0 0.245 0.02 0 0.25 0.02 0 0.255 0.02 0 0.26 0.02 0 0.265 0.02 0 0.27 0.02 0 0.275 0.02 0 0.28 0.02 0 0.285 0.02 0 0.29 0.02 0 0.295 0.02 0 0.3 0.02 0 0.305 0.02 0 0.31 0.02 0 0.315 0.02 0 0.32 0.02 0 0.325 0.02 0 0.33 0.02 0 0.335 0.02 0 0.34 0.02 0 0.345 0.02 0 0.35 0.02 0 0.355 0.02 0 0.36 0.02 0 0.365 0.02 0 0.37 0.02 0 0.375 0.02 0 0.38 0.02 0 0.385 0.02 0 0.39 0.02 0 0.395 0.02 0 0.4 0.02 0 0.405 0.02 0 0.41 0.02 0 0.415 0.02 0 0.42 0.02 0 0.425 0.02 0 0.43 0.02 0 0.435 0.02 0 0.44 0.02 0 0.445 0.02 0 0.45 0.02 0 0.455 0.02 0 0.46 0.02 0 0.465 0.02 0 0.47 0.02 0 0.475 0.02 0 0.48 0.02 0 0.485 0.02 0 0.49 0.02 0 0.495 0.02 0 0.5 0.02 0 0.505 0.02 0 0.51 0.02 0 0.515 0.02 0 0.52 0.02 0 0.525 0.02 0 0.53 0.02 0 0.535 0.02 0 0.54 0.02 0 0.545 0.02 0 0.55 0.02 0 0.555 0.02 0 0.56 0.02 0 0.565 0.02 0 0.57 0.02 0 0.575 0.02 0 0.58 0.02 0 0.585 0.02 0 0.59 0.02 0 0.595 0.02 0 0.6 0.02 0 0.605 0.02 0 0.61 0.02 0 0.615 0.02 0 0.62 0.02 0 0.625 0.02 0 0.63 0.02 0 0.635 0.02 0 0.64 0.02 0 0.645 0.02 0 0.65 0.02 0 0.655 0.02 0 0.66 0.02 0 0.665 0.02 0 0.67 0.02 0 0.675 0.02 0 0.68 0.02 0 0.685 0.02 0 0.69 0.02 0 0.695 0.02 0 0.7 0.02 0 0.705 0.02 0 0.71 0.02 0 0.715 0.02 0 0.72 0.02 0 0.725 0.02 0 0.73 0.02 0 0.735 0.02 0 0.74 0.02 0 0.745 0.02 0 0.75 0.02 0 0.755 0.02 0 0.76 0.02 0 0.765 0.02 0 0.77 0.02 0 0.775 0.02 0 0.78 0.02 0 0.785 0.02 0 0.79 0.02 0 0.795 0.02 0 0.8 0.02 0 0.805 0.02 0 0.81 0.02 0 0.815 0.02 0 0.82 0.02 0 0.825 0.02 0 0.83 0.02 0 0.835 0.02 0 0.84 0.02 0 0.845 0.02 0 0.85 0.02 0 0.855 0.02 0 0.86 0.02 0 0.865 0.02 0 0.87 0.02 0 0.875 0.02 0 0.88 0.02 0 0.885 0.02 0 0.89 0.02 0 0.895 0.02 0 0.9 0.02 0 0.905 0.02 0 0.91 0.02 0 0.915 0.02 0 0.92 0.02 0 0.925 0.02 0 0.93 0.02 0 0.935 0.02 0 0.94 0.02 0 0.945 0.02 0 0.95 0.02 0 0.955 0.02 0 0.96 0.02 0 0.965 0.02 0 0.97 0.02 0 0.975 0.02 0 0.98 0.02 0 0.985 0.02 0 0.99 0.02 0 0.995 0.02 0 1 0.02 0 0 0.04 0 0.005 0.04 0 0.01 0.04 0 0.015 0.04 0 0.02 0.04 0 0.025 0.04 0 0.03 0.04 0 0.035 0.04 0 0.04 0.04 0 0.045 0.04 0 0.05 0.04 0 0.055 0.04 0 0.06 0.04 0 0.065 0.04 0 0.07 0.04 0 0.075 0.04 0 0.08 0.04 0 0.085 0.04 0 0.09 0.04 0 0.095 0.04 0 0.1 0.04 0 0.105 0.04 0 0.11 0.04 0 0.115 0.04 0 0.12 0.04 0 0.125 0.04 0 0.13 0.04 0 0.135 0.04 0 0.14 0.04 0 0.145 0.04 0 0.15 0.04 0 0.155 0.04 0 0.16 0.04 0 0.165 0.04 0 0.17 0.04 0 0.175 0.04 0 0.18 0.04 0 0.185 0.04 0 0.19 0.04 0 0.195 0.04 0 0.2 0.04 0 0.205 0.04 0 0.21 0.04 0 0.215 0.04 0 0.22 0.04 0 0.225 0.04 0 0.23 0.04 0 0.235 0.04 0 0.24 0.04 0 0.245 0.04 0 0.25 0.04 0 0.255 0.04 0 0.26 0.04 0 0.265 0.04 0 0.27 0.04 0 0.275 0.04 0 0.28 0.04 0 0.285 0.04 0 0.29 0.04 0 0.295 0.04 0 0.3 0.04 0 0.305 0.04 0 0.31 0.04 0 0.315 0.04 0 0.32 0.04 0 0.325 0.04 0 0.33 0.04 0 0.335 0.04 0 0.34 0.04 0 0.345 0.04 0 0.35 0.04 0 0.355 0.04 0 0.36 0.04 0 0.365 0.04 0 0.37 0.04 0 0.375 0.04 0 0.38 0.04 0 0.385 0.04 0 0.39 0.04 0 0.395 0.04 0 0.4 0.04 0 0.405 0.04 0 0.41 0.04 0 0.415 0.04 0 0.42 0.04 0 0.425 0.04 0 0.43 0.04 0 0.435 0.04 0 0.44 0.04 0 0.445 0.04 0 0.45 0.04 0 0.455 0.04 0 0.46 0.04 0 0.465 0.04 0 0.47 0.04 0 0.475 0.04 0 0.48 0.04 0 0.485 0.04 0 0.49 0.04 0 0.495 0.04 0 0.5 0.04 0 0.505 0.04 0 0.51 0.04 0 0.515 0.04 0 0.52 0.04 0 0.525 0.04 0 0.53 0.04 0 0.535 0.04 0 0.54 0.04 0 0.545 0.04 0 0.55 0.04 0 0.555 0.04 0 0.56 0.04 0 0.565 0.04 0 0.57 0.04 0 0.575 0.04 0 0.58 0.04 0 0.585 0.04 0 0.59 0.04 0 0.595 0.04 0 0.6 0.04 0 0.605 0.04 0 0.61 0.04 0 0.615 0.04 0 0.62 0.04 0 0.625 0.04 0 0.63 0.04 0 0.635 0.04 0 0.64 0.04 0 0.645 0.04 0 0.65 0.04 0 0.655 0.04 0 0.66 0.04 0 0.665 0.04 0 0.67 0.04 0 0.675 0.04 0 0.68 0.04 0 0.685 0.04 0 0.69 0.04 0 0.695 0.04 0 0.7 0.04 0 0.705 0.04 0 0.71 0.04 0 0.715 0.04 0 0.72 0.04 0 0.725 0.04 0 0.73 0.04 0 0.735 0.04 0 0.74 0.04 0 0.745 0.04 0 0.75 0.04 0 0.755 0.04 0 0.76 0.04 0 0.765 0.04 0 0.77 0.04 0 0.775 0.04 0 0.78 0.04 0 0.785 0.04 0 0.79 0.04 0 0.795 0.04 0 0.8 0.04 0 0.805 0.04 0 0.81 0.04 0 0.815 0.04 0 0.82 0.04 0 0.825 0.04 0 0.83 0.04 0 0.835 0.04 0 0.84 0.04 0 0.845 0.04 0 0.85 0.04 0 0.855 0.04 0 0.86 0.04 0 0.865 0.04 0 0.87 0.04 0 0.875 0.04 0 0.88 0.04 0 0.885 0.04 0 0.89 0.04 0 0.895 0.04 0 0.9 0.04 0 0.905 0.04 0 0.91 0.04 0 0.915 0.04 0 0.92 0.04 0 0.925 0.04 0 0.93 0.04 0 0.935 0.04 0 0.94 0.04 0 0.945 0.04 0 0.95 0.04 0 0.955 0.04 0 0.96 0.04 0 0.965 0.04 0 0.97 0.04 0 0.975 0.04 0 0.98 0.04 0 0.985 0.04 0 0.99 0.04 0 0.995 0.04 0 1 0.04 0 0 0.06 0 0.005 0.06 0 0.01 0.06 0 0.015 0.06 0 0.02 0.06 0 0.025 0.06 0 0.03 0.06 0 0.035 0.06 0 0.04 0.06 0 0.045 0.06 0 0.05 0.06 0 0.055 0.06 0 0.06 0.06 0 0.065 0.06 0 0.07 0.06 0 0.075 0.06 0 0.08 0.06 0 0.085 0.06 0 0.09 0.06 0 0.095 0.06 0 0.1 0.06 0 0.105 0.06 0 0.11 0.06 0 0.115 0.06 0 0.12 0.06 0 0.125 0.06 0 0.13 0.06 0 0.135 0.06 0 0.14 0.06 0 0.145 0.06 0 0.15 0.06 0 0.155 0.06 0 0.16 0.06 0 0.165 0.06 0 0.17 0.06 0 0.175 0.06 0 0.18 0.06 0 0.185 0.06 0 0.19 0.06 0 0.195 0.06 0 0.2 0.06 0 0.205 0.06 0 0.21 0.06 0 0.215 0.06 0 0.22 0.06 0 0.225 0.06 0 0.23 0.06 0 0.235 0.06 0 0.24 0.06 0 0.245 0.06 0 0.25 0.06 0 0.255 0.06 0 0.26 0.06 0 0.265 0.06 0 0.27 0.06 0 0.275 0.06 0 0.28 0.06 0 0.285 0.06 0 0.29 0.06 0 0.295 0.06 0 0.3 0.06 0 0.305 0.06 0 0.31 0.06 0 0.315 0.06 0 0.32 0.06 0 0.325 0.06 0 0.33 0.06 0 0.335 0.06 0 0.34 0.06 0 0.345 0.06 0 0.35 0.06 0 0.355 0.06 0 0.36 0.06 0 0.365 0.06 0 0.37 0.06 0 0.375 0.06 0 0.38 0.06 0 0.385 0.06 0 0.39 0.06 0 0.395 0.06 0 0.4 0.06 0 0.405 0.06 0 0.41 0.06 0 0.415 0.06 0 0.42 0.06 0 0.425 0.06 0 0.43 0.06 0 0.435 0.06 0 0.44 0.06 0 0.445 0.06 0 0.45 0.06 0 0.455 0.06 0 0.46 0.06 0 0.465 0.06 0 0.47 0.06 0 0.475 0.06 0 0.48 0.06 0 0.485 0.06 0 0.49 0.06 0 0.495 0.06 0 0.5 0.06 0 0.505 0.06 0 0.51 0.06 0 0.515 0.06 0 0.52 0.06 0 0.525 0.06 0 0.53 0.06 0 0.535 0.06 0 0.54 0.06 0 0.545 0.06 0 0.55 0.06 0 0.555 0.06 0 0.56 0.06 0 0.565 0.06 0 0.57 0.06 0 0.575 0.06 0 0.58 0.06 0 0.585 0.06 0 0.59 0.06 0 0.595 0.06 0 0.6 0.06 0 0.605 0.06 0 0.61 0.06 0 0.615 0.06 0 0.62 0.06 0 0.625 0.06 0 0.63 0.06 0 0.635 0.06 0 0.64 0.06 0 0.645 0.06 0 0.65 0.06 0 0.655 0.06 0 0.66 0.06 0 0.665 0.06 0 0.67 0.06 0 0.675 0.06 0 0.68 0.06 0 0.685 0.06 0 0.69 0.06 0 0.695 0.06 0 0.7 0.06 0 0.705 0.06 0 0.71 0.06 0 0.715 0.06 0 0.72 0.06 0 0.725 0.06 0 0.73 0.06 0 0.735 0.06 0 0.74 0.06 0 0.745 0.06 0 0.75 0.06 0 0.755 0.06 0 0.76 0.06 0 0.765 0.06 0 0.77 0.06 0 0.775 0.06 0 0.78 0.06 0 0.785 0.06 0 0.79 0.06 0 0.795 0.06 0 0.8 0.06 0 0.805 0.06 0 0.81 0.06 0 0.815 0.06 0 0.82 0.06 0 0.825 0.06 0 0.83 0.06 0 0.835 0.06 0 0.84 0.06 0 0.845 0.06 0 0.85 0.06 0 0.855 0.06 0 0.86 0.06 0 0.865 0.06 0 0.87 0.06 0 0.875 0.06 0 0.88 0.06 0 0.885 0.06 0 0.89 0.06 0 0.895 0.06 0 0.9 0.06 0 0.905 0.06 0 0.91 0.06 0 0.915 0.06 0 0.92 0.06 0 0.925 0.06 0 0.93 0.06 0 0.935 0.06 0 0.94 0.06 0 0.945 0.06 0 0.95 0.06 0 0.955 0.06 0 0.96 0.06 0 0.965 0.06 0 0.97 0.06 0 0.975 0.06 0 0.98 0.06 0 0.985 0.06 0 0.99 0.06 0 0.995 0.06 0 1 0.06 0 0 0.08 0 0.005 0.08 0 0.01 0.08 0 0.015 0.08 0 0.02 0.08 0 0.025 0.08 0 0.03 0.08 0 0.035 0.08 0 0.04 0.08 0 0.045 0.08 0 0.05 0.08 0 0.055 0.08 0 0.06 0.08 0 0.065 0.08 0 0.07 0.08 0 0.075 0.08 0 0.08 0.08 0 0.085 0.08 0 0.09 0.08 0 0.095 0.08 0 0.1 0.08 0 0.105 0.08 0 0.11 0.08 0 0.115 0.08 0 0.12 0.08 0 0.125 0.08 0 0.13 0.08 0 0.135 0.08 0 0.14 0.08 0 0.145 0.08 0 0.15 0.08 0 0.155 0.08 0 0.16 0.08 0 0.165 0.08 0
[...]
			<PointData Scalars="VitesseX">
				<DataArray Name="VitesseX" type="Float32" format="ascii">
 0 -1.46756e-15 3.3271e-14 -1.7702e-13 1.17631e-13 -2.33499e-14 -9.60261e-14 -1.27114e-13 7.32119e-14 -1.70538e-15 -1.89577e-13 2.65454e-13 -4.35528e-13 4.68557e-13 -4.60606e-13 -1.01016e-15 2.98729e-13 -4.76767e-13 4.55873e-13 -2.8671e-13 -3.2581e-14 8.93453e-14 2.12745e-13 -1.37311e-13 -5.1078e-13 -2.49542e-13 3.25451e-13 1.77119e-13 -8.42652e-14 -2.50725e-13 1.35461e-13 -3.86671e-13 4.04944e-13 1.26261e-13 -6.02398e-13 5.63975e-14 -7.8171e-14 3.73246e-13 -4.60356e-13 1.84418e-13 -1.59571e-13 2.44686e-13 7.79349e-14 -8.5062e-13 -7.36195e-15 6.2407e-13 2.26892e-13 -4.20898e-14 -5.2642e-13 -3.35181e-13 3.20461e-14 7.30628e-13 -6.69973e-14 -3.97499e-14 -1.44466e-12 1.89646e-13 1.05603e-12 -4.43553e-13 3.49349e-13 -6.9147e-13 1.88048e-13 5.90008e-13 -2.54826e-13 1.5271e-16 -3.85287e-14 5.81959e-13 -8.01499e-13 -7.82482e-13 5.91971e-13 4.75222e-13 -1.4228e-13 1.66739e-13 -1.73335e-12 1.42527e-12 3.02956e-13 1.31729e-13 -5.81835e-13 -2.86555e-13 7.37659e-13 -2.52202e-13 -1.30705e-13 -2.79047e-15 -5.5111e-13 -1.20234e-13 -7.7123e-13 1.49232e-12 2.75303e-12 7.34558e-11 2.11548e-09 5.06731e-08 9.97457e-07 1.5761e-05 0.00019381 0.0017801 0.0116193 0.0516011 0.155496 0.343645 0.54608 0.690126 0.81397 0.874672 0.930035 0.931012 0.966706 0.911663 0.823134 0.671722 0.483928 0.297337 0.147787 0.056567 0.0169805 0.00432788 0.000997239 0.000213673 4.2978e-05 8.14413e-06 1.45693e-06 2.46463e-07 3.94841e-08 5.99878e-09 8.65729e-10 1.18851e-10 1.59496e-11 1.65869e-12 -7.60893e-13 3.72885e-13 4.58657e-13 2.17736e-13 1.51894e-13 -1.15288e-12 2.92185e-13 4.92135e-13 -2.08564e-13 -4.5209e-13 -1.69175e-12 1.32813e-13 7.64115e-13 2.8227e-13 -5.44435e-14 -6.69056e-13 -7.49012e-13 -9.39574e-14 1.47805e-12 2.64608e-13 -2.30903e-13 4.91091e-13 -1.50093e-13 1.30891e-12 -1.15935e-12 -2.35877e-13 3.29348e-13 -2.59761e-13 9.87898e-13 1.3183e-13 -1.3995e-12 -2.69344e-13 1.02406e-12 1.00654e-12 -8.50601e-13 -1.99524e-12 1.58922e-13 1.24837e-12 3.50321e-13 -9.16413e-13 -1.16807e-12 1.00353e-12 2.24719e-13 -4.18114e-13 9.69698e-13 5.01021e-13 -1.70484e-13 -7.18145e-13 -3.25382e-13 1.00676e-12 2.95359e-13 -1.69551e-13 -9.74831e-13 -6.05943e-14 1.10525e-12 4.39827e-13 -4.45804e-13 -1.03641e-12 -3.61089e-13 7.90771e-13 -9.09401e-13 -1.11719e-12 -1.26307e-12 -8.8522e-14 2.39468e-12 -1.00604e-12 -3.46718e-13 -1.84087e-12 2.43852e-12 4.39355e-13 -1.22632e-12 4.59449e-13 5.82891e-13 2.10471e-12 0 0 -1.47649e-14 -6.39718e-14 6.43422e-14 -1.46987e-13 -8.61374e-15 5.15954e-14 -5.42201e-14 -1.64613e-13 -8.23635e-14 3.54414e-14 -1.23105e-13 2.83369e-13 -4.95553e-13 2.82637e-13 -1.15263e-13 -3.30044e-13 3.33434e-13 -3.48026e-13 2.92285e-13 1.44121e-13 -7.06082e-14 -1.85113e-13 -1.81693e-14 1.74423e-13 -1.86764e-13 -6.46555e-13 2.75113e-13 3.01534e-13 2.02489e-14 -4.36402e-13 4.09877e-13 -4.26267e-13 -1.96519e-13 5.83287e-13 -9.05185e-14 -5.15064e-13 -1.51836e-13 1.23077e-13 9.83702e-14 3.7968e-13 -1.77515e-13 -4.99797e-13 2.51055e-13 -1.51442e-13 -1.57601e-13 -7.51547e-14 2.48869e-13 -9.55925e-15 -5.90637e-14 -1.36782e-15 -3.60229e-13 2.77936e-14 -5.59035e-13 3.53766e-13 -5.00815e-14 -3.80296e-13 4.16146e-13 -1.6101e-13 2.61732e-13 -3.69726e-13 5.17715e-14 4.74626e-13 1.15458e-13 2.06698e-13 -6.0008e-13 -6.24508e-14 1.56507e-13 -2.64986e-13 -4.76648e-13 4.3815e-13 -4.25532e-13 5.74688e-13 -6.54539e-13 1.45199e-13 -6.744e-14 3.26731e-13 1.22944e-13 -7.23021e-13 6.60804e-13 -5.25526e-13 -3.374e-13 2.54147e-13 -4.18274e-13 1.72506e-13 3.37927e-13 1.98349e-12 7.49438e-11 2.11641e-09 5.06719e-08 9.97457e-07 1.5761e-05 0.00019381 0.0017801 0.0116193 0.0516011 0.155496 0.343645 0.54608 0.690126 0.81397 0.874672 0.930035 0.931012 0.966706 0.911663 0.823134 0.671722 0.483928 0.297337 0.147787 0.056567 0.0169805 0.00432788 0.000997239 0.000213673 4.2978e-05 8.14413e-06 1.45693e-06 2.46461e-07 3.94849e-08 5.99881e-09 8.65497e-10 1.18701e-10 1.51501e-11 2.22642e-12 -9.3828e-14 3.03885e-13 4.95133e-14 -2.36942e-13 9.81751e-14 2.96297e-14 -2.16071e-14 -5.74721e-14 -4.0259e-13 -2.80457e-13 -5.15637e-13 -5.33029e-13 3.81401e-13 3.64561e-13 -1.93098e-13 -1.13954e-13 -6.41427e-13 8.21525e-14 -1.17775e-13 6.13852e-13 1.08358e-12 -4.89435e-13 3.53945e-13 -4.76848e-13 4.79144e-13 3.04258e-13 -6.58226e-13 5.61105e-13 -2.97183e-13 1.64405e-13 1.32305e-13 1.75207e-13 -3.60823e-13 -7.22113e-13 6.29899e-13 1.37984e-13 -4.33795e-13 -9.00368e-13 -4.81276e-13 6.274e-13 3.99157e-14 2.13631e-13 8.86266e-14 -2.11777e-13 1.43337e-13 2.66492e-13 -6.33891e-14 8.89187e-13 -5.42175e-13 -4.21353e-14 -4.53878e-14 -2.99641e-14 8.43579e-13 -5.2054e-13 -1.73506e-13 1.12746e-13 -1.85087e-13 7.39793e-13 -9.52018e-13 -5.00026e-13 -6.24633e-13 -8.00846e-13 2.19648e-13 -1.79452e-13 -7.31936e-13 9.71137e-13 -4.63121e-13 -2.76061e-14 -1.15818e-12 8.30872e-14 1.79215e-12 6.53911e-14 1.2832e-12 -1.18381e-12 0 0 -1.35293e-14 -2.44592e-14 -4.58634e-14 -5.82986e-15 -1.28261e-13 -1.1013e-13 -2.24941e-14 -7.86969e-14 -1.96654e-14 -9.29822e-14 -1.30239e-13 -1.30362e-13 1.51379e-14 -1.98032e-13 -3.56403e-14 2.41842e-14 5.52395e-14 1.053e-13 -1.038e-13 9.56387e-14 3.02897e-14 1.45898e-13 -1.83797e-13 -2.73263e-13 -1.52388e-13 -1.89274e-14 2.42875e-13 2.09327e-14 -1.26885e-13 -1.57258e-13 -5.95865e-14 1.72294e-13 -1.52173e-13 -9.48328e-14 8.30979e-14 6.43489e-14 -5.28433e-13 1.58772e-13 5.30621e-14 -5.64231e-14 3.34796e-15 -1.82609e-13 -3.0791e-13 2.76468e-13 -1.906e-13 4.36929e-13 -5.15288e-13 -5.78416e-14 -1.75864e-13 -5.89418e-14 -2.39966e-13 -1.60533e-13 1.35608e-13 2.938e-13 -3.7105e-13 -4.17049e-13 -3.56963e-13 7.63743e-13 1.84061e-13 -2.79457e-13 9.62894e-14 3.6628e-13 4.71343e-13 -3.22664e-13 -2.53495e-13 3.85951e-14 -2.69655e-13 1.41463e-13 -4.38508e-13 -7.38498e-13 6.199e-13 4.58884e-13 -4.02112e-13 -8.32525e-13 2.64779e-13 4.45439e-13 -2.50581e-13 -4.22434e-13 -7.05602e-13 9.24432e-13 -4.50921e-13 1.0359e-13 6.80183e-13 -7.53187e-14 -1.02851e-12 2.42454e-12 7.5089e-11 2.11631e-09 5.06726e-08 9.97456e-07 1.5761e-05 0.00019381 0.0017801 0.0116193 0.0516011 0.155496 0.343645 0.54608 0.690126 0.81397 0.874672 0.930035 0.931012 0.966706 0.911663 0.823134 0.671722 0.483928 0.297337 0.147787 0.056567 0.0169805 0.00432788 0.000997239 0.000213673 4.2978e-05 8.14413e-06 1.45693e-06 2.46462e-07 3.9484e-08 5.99974e-09 8.65439e-10 1.18093e-10 1.55297e-11 8.99801e-13 1.64933e-12 1.58531e-13 -6.00482e-13 -1.24159e-13 -9.85989e-13 1.54566e-12 3.50544e-14 -7.7579e-13 7.3533e-14 -1.27444e-12 9.75233e-13 -3.48163e-13 -1.0407e-12 4.78571e-13 -2.57655e-13 1.05495e-13 1.28453e-12 -1.2189e-12 -9.8449e-13 1.31703e-12 -6.72949e-14 1.16913e-12 -6.99459e-13 -5.85325e-13 6.36095e-13 -4.77853e-13 1.22527e-12 -3.51328e-13 -3.63983e-13 -1.08019e-12 1.39565e-12 9.08604e-13 -7.23921e-13 -7.74212e-13 -3.94527e-13 9.4885e-13 -4.69011e-13 -8.50417e-13 -5.87783e-13 2.03545e-13 9.69556e-13 -7.64806e-13 -7.2776e-13 7.13552e-13 -2.03215e-13 6.95337e-13 6.6976e-13 -6.14665e-13 2.61563e-13 -7.38662e-13 8.95123e-13 7.36314e-13 -9.28071e-13 2.7766e-13 -7.79477e-13 4.63974e-13 7.11787e-13 -8.19244e-13 -1.57978e-13 -1.13508e-12 -1.27448e-13 6.40269e-14 -8.15614e-13 7.84647e-13 -1.49873e-12 -1.2132e-13 2.06059e-12 -9.87331e-13 -1.87968e-12 4.92897e-13 1.48345e-12 1.68254e-12 -1.57259e-12 -2.01436e-13 0 0 -1.58944e-14 8.49519e-15 -9.83665e-14 -4.11212e-14 -4.0585e-14 -4.82168e-14 -5.04e-14 -1.9369e-13 -1.6316e-13 -2.1347e-13 2.41703e-13 -2.09559e-13 8.48417e-14 -3.44355e-13 -7.89473e-14 1.4827e-13 -2.70988e-13 2.66167e-13 8.64765e-14 7.91193e-14 -8.77484e-14 -1.86852e-13 -3.64567e-14 -1.76818e-13 -1.4908e-13 1.78673e-13 -1.68856e-13 5.24426e-14 8.32179e-14 -1.75209e-13 -3.46448e-13 2.49179e-13 -7.71795e-14 -5.74622e-14 6.53504e-14 9.70592e-14 2.88165e-13 -5.37529e-13 -3.35401e-13 -8.13757e-14 1.08378e-13 3.17891e-14 -4.81584e-13 4.77704e-14 5.34354e-13 -4.43206e-14 -4.55415e-14 -5.42787e-13 -6.26912e-13 -8.7469e-14 6.16776e-13 3.20638e-13 -5.26571e-13 -3.96917e-13 -2.33218e-15 3.43473e-13 1.43518e-13 -3.19908e-14 -5.32671e-13 -1.89416e-13 4.00584e-13 3.52303e-13 5.461e-13 -3.59065e-13 -1.38572e-13 -6.6015e-13 -2.88478e-13 3.11902e-14 9.32936e-13 -7.49044e-14 -3.07439e-13 -3.65988e-13 -7.0636e-14 2.39083e-13 -1.04801e-13 -8.57957e-13 3.6599e-13 -9.51013e-14 -9.03863e-13 -1.97572e-13 5.26385e-13 3.52391e-13 -6.25334e-13 1.24718e-13 2.84844e-13 1.96231e-12 7.37247e-11 2.1157e-09 5.06741e-08 9.97457e-07 1.5761e-05 0.00019381 0.0017801 0.0116193 0.0516011 0.155496 0.343645 0.54608 0.690126 0.81397 0.874672 0.930035 0.931012 0.966706 0.911663 0.823134 0.671722 0.483928 0.297337 0.147787 0.056567 0.0169805 0.00432788 0.000997239 0.000213673 4.2978e-05 8.14413e-06 1.45693e-06 2.46461e-07 3.94842e-08 5.99919e-09 8.65503e-10 1.18912e-10 1.49505e-11 1.56898e-12 5.08098e-13 1.68702e-13 3.10922e-13 -6.69677e-13 7.41128e-14 -1.51329e-13 2.43901e-13 3.14783e-13 -6.69507e-13 -3.74205e-13 -4.27991e-13 -2.63282e-13 -1.33803e-13 -1.25409e-12 3.71342e-13 1.15981e-12 -1.69061e-13 -2.75583e-13 -1.19512e-13 -3.31964e-13 5.0883e-13 6.69144e-13 -2.88411e-13 -2.20343e-13 -5.1064e-13 8.10174e-13 1.23034e-12 -2.49244e-13 -3.69572e-13 -8.13929e-13 -5.83691e-13 -2.47877e-13 1.35577e-12 7.03363e-13 -9.94294e-13 -1.33671e-12 -3.45551e-13 8.60187e-13 -2.7227e-13 -1.65488e-12 1.34816e-13 9.96081e-13 2.69768e-13 -1.47115e-12 4.90775e-13 1.44416e-12 7.61096e-13 -1.08156e-12 -6.35896e-13 5.52997e-13 1.08217e-12 1.70261e-13 -7.94563e-13 -1.3085e-12 6.93427e-13 1.48589e-12 -6.9896e-13 -1.20847e-12 -9.47958e-13 4.27391e-13 2.54683e-13 -1.23332e-12 -1.32647e-12 4.53973e-14 3.11979e-12 1.79733e-13 -2.17066e-12 -1.69572e-12 4.51102e-13 1.22483e-12 -9.38859e-14 -1.48622e-13 2.3908e-13 9.51915e-13 0 0 -1.19446e-14 -2.81413e-14 4.1845e-14 -2.05045e-13 -5.05103e-14 -1.02517e-14 -1.37789e-13 -1.99419e-13 -1.3003e-13 -9.19901e-15 -5.15127e-14 1.29676e-13 -4.8819e-13 2.56979e-13 -3.77549e-14 -4.9744e-14 2.60729e-13 -3.4661e-13 1.60121e-13 -4.90192e-14 -1.48582e-13 -4.85982e-13 -1.34409e-13 1.07439e-13 -9.70409e-14 -3.0614e-13 3.27766e-14 6.54217e-14 1.96705e-14 -1.80537e-13 2.37753e-13 -2.85204e-13 -5.48465e-14 7.92362e-13 -6.0106e-14 -4.35093e-14 3.5694e-13 -2.72902e-13 -5.36918e-13 4.52726e-14 -4.08054e-13 -5.05268e-13 2.16261e-13 -1.65528e-13 1.50811e-13 -1.3765e-13 1.98968e-13 -2.69362e-13 -5.09168e-13 1.81321e-13 9.78347e-14 1.61656e-15 -8.01659e-13 2.45899e-13 2.51255e-13 -2.14664e-13 4.66106e-13 -4.89451e-13 6.46952e-14 -2.11422e-13 1.34957e-13 4.55495e-13 2.39158e-13 1.08825e-13 -6.16771e-13 -6.1614e-13 2.55473e-13 -3.33575e-13 5.29233e-13 9.03863e-13 -4.57219e-13 6.43431e-13 -7.59393e-13 4.22989e-13 -5.63628e-13 -7.82694e-13 2.10465e-13 -1.12523e-12 5.63053e-14 -1.07849e-12 3.83711e-13 1.62453e-13 -1.40035e-12 5.296e-13 5.95336e-13 1.66378e-12 7.435e-11 2.11652e-09 5.06723e-08 9.97458e-07 1.5761e-05 0.00019381 0.0017801 0.0116193 0.0516011 0.155496 0.343645 0.54608 0.690126 0.81397 0.874672 0.930035 0.931012 0.966706 0.911663 0.823134 0.671722 0.483928 0.297337 0.147787 0.056567 0.0169805 0.00432788 0.000997239 0.000213673 4.2978e-05 8.14413e-06 1.45693e-06 2.46461e-07 3.94852e-08 5.99826e-09 8.65257e-10 1.19134e-10 1.50098e-11 2.71594e-12 -4.5522e-13 -2.71114e-13 1.95722e-13 -2.53703e-13 8.62779e-13 -7.28895e-13 -9.35154e-14 3.87485e-14 -5.5094e-13 2.80268e-13 -1.09967e-12 -9.08547e-13 2.55031e-13 -6.69309e-13 5.74039e-13 7.27284e-13 -1.67075e-12 3.99857e-13 5.5961e-13 3.57452e-13 1.5828e-12 -6.04465e-13 8.13973e-13 -4.38741e-13 2.69278e-13 6.29771e-13 -8.99597e-13 2.36229e-13 -4.68476e-13 -2.0838e-13 -1.65173e-12 -1.40413e-12 5.92668e-13 1.27685e-12 1.30018e-12 -1.18698e-12 -1.74299e-12 -1.73403e-12 -9.31405e-13 -1.12905e-13 4.37511e-13 2.0615e-12 5.4638e-13 -1.7062e-12 -1.87323e-14 -1.43461e-13 5.3246e-13 1.25559e-12 -1.23734e-13 3.48258e-13 -1.11719e-12 -4.16716e-13 2.01e-12 -3.54077e-13 -1.53487e-13 -2.42793e-13 -8.71744e-13 9.91214e-13 -3.9527e-13 -4.58251e-13 -1.70302e-12 -1.81039e-12 4.08783e-13 9.58172e-13 2.11789e-12 6.13768e-13 -3.41768e-12 -7.10772e-13 -4.22185e-13 1.23164e-12 1.56117e-12 -5.80179e-13 2.10865e-12 -9.36651e-13 0 0 8.90317e-15 3.90233e-14 -1.17008e-13 7.20983e-14 -2.82494e-13 -3.43546e-13 -2.38441e-13 2.33586e-13 1.89951e-13 -3.78831e-14 -3.35245e-13 -5.84521e-13 3.43876e-13 -2.19275e-13 2.4062e-13 6.11158e-13 3.02771e-14 1.36971e-13 -9.31589e-13 -3.85822e-13 1.69474e-13 2.76507e-13 -6.64471e-13 -8.3764e-13 -7.67127e-14 6.1108e-13 5.15908e-13 -6.19509e-13 -6.72089e-13 6.83094e-13 -1.57194e-13 5.33302e-13 2.59618e-13 -2.58989e-13 1.52718e-13 7.99517e-13 -2.42397e-13 1.40287e-13 -3.09233e-13 -7.78481e-13 -4.26453e-13 -3.61803e-13 -5.72862e-13 4.2186e-13 -2.09014e-13 1.0644e-12 -1.08138e-12 -7.61358e-14 -3.33293e-13 4.54479e-13 -6.67303e-14 -1.08169e-12 7.99359e-13 -2.7896e-13 5.48834e-14 -1.33751e-13 -1.34459e-12 1.28393e-12 3.47918e-13 3.24573e-13 1.4779e-13 -2.65135e-13 9.80389e-14 -1.61473e-13 3.18731e-13 -5.11388e-13 -5.46902e-13 6.75337e-13 -2.55903e-13 -5.3804e-13 1.95804e-12 5.38813e-14 5.52605e-13 -1.28468e-12 -1.21487e-13 -1.93894e-13 -1.34465e-12 -7.21416e-13 -1.06468e-12 1.00738e-12 -5.15183e-13 -1.2321e-12 5.26639e-13 -4.57115e-13 -6.19571e-13 3.03807e-12 7.49967e-11 2.11691e-09 5.06711e-08 9.97456e-07 1.5761e-05 0.00019381 0.0017801 0.0116193 0.0516011 0.155496 0.343645 0.54608 0.690126 0.81397 0.874672 0.930035 0.931012 0.966706 0.911663 0.823134 0.671722 0.483928 0.297337 0.147787 0.056567 0.0169805 0.00432788 0.000997239 0.000213673 4.2978e-05 8.14413e-06 1.45693e-06 2.46463e-07 3.94843e-08 5.99879e-09 8.65123e-10 1.18082e-10 1.68274e-11 1.29938e-12 7.98785e-13 -7.97454e-13 -1.07173e-12 1.27525e-12 -4.39102e-13 7.24049e-13 -2.69325e-13 -1.49657e-12 9.80815e-13 -1.1311e-12 -5.33795e-14 -7.87985e-13 -1.30242e-12 1.67986e-12 2.21836e-13 -1.09522e-12 9.95286e-14 -1.34518e-12 1.10286e-12 3.0498e-12 -3.84714e-13 1.26101e-12 -5.21325e-14 6.55164e-13 7.14383e-13 -2.1609e-12 -1.63534e-13 -1.11368e-12 6.56489e-13 -1.14627e-12 -1.00889e-12 -1.11505e-12 -1.22833e-12 2.04933e-12 1.6895e-12 -7.40657e-14 -2.70638e-12 -3.84015e-12 -1.18096e-12 1.31983e-12 1.2966e-12 1.17749e-12 -8.54831e-13 9.62454e-13 -7.4242e-13 -1.81652e-12 8.38542e-13 9.48441e-13 2.30641e-12 -7.95775e-13 -2.22235e-12 1.8905e-13 1.091e-12 3.44466e-12 -1.80052e-12 -2.31507e-12 1.00238e-12 2.4489e-13 2.33237e-12 -2.25063e-12 -3.83043e-12 -5.41598e-13 1.36921e-13 3.66523e-12 -1.1427e-12 -2.32288e-12 2.20667e-12 -1.79042e-12 -7.5105e-13 1.27261e-12 1.4664e-12 2.83064e-12 -1.38957e-12 2.92327e-13 0
				</DataArray>
				<DataArray Name="VitesseY" type="Float32" format="ascii">