<?xml version="1.0"?>
<VTKFile type="PolyData">
	<PolyData>
		<Piece NumberOfPoints="1206" NumberOfPolys="1000">
			<Points>
				<DataArray type="Float32" NumberOfComponents="3" format="ascii">
 0 0 0 0.005 0 0 0.01 0 0 0.015 0 0 0.02 0 0 0.025 0 0 0.03 0 0 0.035 0 0 0.04 0 0 0.045 0 0 0.05 0 0 0.055 0 0 0.06 0 0 0.065 0 0 0.07 0 0 0.075 0 0 0.08 0 0 0.085 0 0 0.09 0 0 0.095 0 0 0.1 0 0 0.105 0 0 0.11 0 0 0.115 0 0 0.12 0 0 0.125 0 0 0.13 0 0 0.135 0 0 0.14 0 0 0.145 0 0 0.15 0 0 0.155 0 0 0.16 0 0 0.165 0 0 0.17 0 0 0.175 0 0 0.18 0 0 0.185 0 0 0.19 0 0 0.195 0 0 0.2 0 0 0.205 0 0 0.21 0 0 0.215 0 0 0.22 0 0 0.225 0 0 0.23 0 0 0.235 0 0 0.24 0 0 0.245 0 0 0.25 0 0 0.255 0 0 0.26 0 0 0.265 0 0 0.27 0 0 0.275 0 0 0.28 0 0 0.285 0 0 0.29 0 0 0.295 0 0 0.3 0 0 0.305 0 0 0.31 0 0 0.315 0 0 0.32 0 0 0.325 0 0 0.33 0 0 0.335 0 0 0.34 0 0 0.345 0 0 0.35 0 0 0.355 0 0 0.36 0 0 0.365 0 0 0.37 0 0 0.375 0 0 0.38 0 0 0.385 0 0 0.39 0 0 0.395 0 0 0.4 0 0 0.405 0 0 0.41 0 0 0.415 0 0 0.42 0 0 0.425 0 0 0.43 0 0 0.435 0 0 0.44 0 0 0.445 0 0 0.45 0 0 0.455 0 0 0.46 0 0 0.465 0 0 0.47 0 0 0.475 0 0 0.48 0 0 0.485 0 0 0.49 0 0 0.495 0 0 0.5 0 0 0.505 0 0 0.51 0 0 0.515 0 0 0.52 0 0 0.525 0 0 0.53 0 0 0.535 0 0 0.54 0 0 0.545 0 0 0.55 0 0 0.555 0 0 0.56 0 0 0.565 0 0 0.57 0 0 0.575 0 0 0.58 0 0 0.585 0 0 0.59 0 0 0.595 0 0 0.6 0 0 0.605 0 0 0.61 0 0 0.615 0 0 0.62 0 0 0.625 0 0 0.63 0 0 0.635 0 0 0.64 0 0 0.645 0 0 0.65 0 0 0.655 0 0 0.66 0 0 0.665 0 0 0.67 0 0 0.675 0 0 0.68 0 0 0.685 0 0 0.69 0 0 0.695 0 0 0.7 0 0 0.705 0 0 0.71 0 0 0.715 0 0 0.72 0 0 0.725 0 0 0.73 0 0 0.735 0 0 0.74 0 0 0.745 0 0 0.75 0 0 0.755 0 0 0.76 0 0 0.765 0 0 0.77 0 0 0.775 0 0 0.78 0 0 0.785 0 0 0.79 0 0 0.795 0 0 0.8 0 0 0.805 0 0 0.81 0 0 0.815 0 0 0.82 0 0 0.825 0 0 0.83 0 0 0.835 0 0 0.84 0 0 0.845 0 0 0.85 0 0 0.855 0 0 0.86 0 0 0.865 0 0 0.87 0 0 0.875 0 0 0.88 0 0 0.885 0 0 0.89 0 0 0.895 0 0 0.9 0 0 0.905 0 0 0.91 0 0 0.915 0 0 0.92 0 0 0.925 0 0 0.93 0 0 0.935 0 0 0.94 0 0 0.945 0 0 0.95 0 0 0.955 0 0 0.96 0 0 0.965 0 0 0.97 0 0 0.975 0 0 0.98 0 0 0.985 0 0 0.99 0 0 0.995 0 0 1 0 0 0 0.02 0 0.005 0.02 0 0.01 0.02 0 0.015 0.02 0 0.02 0.02 0 0.025 0.02 0 0.03 0.02 0 0.035 0.02 0 0.04 0.02 0 0.045 0.02 0 0.05 0.02 0 0.055 0.02 0 0.06 0.02 0 0.065 0.02 0 0.07 0.02 0 0.075 0.02 0 0.08 0.02 0 0.085 0.02 0 0.09 0.02 0 0.095 0.02 0 0.1 0.02 0 0.105 0.02 0 0.11 0.02 0 0.115 0.02 0 0.12 0.02 0 0.125 0.02 0 0.13 0.02 0 0.135 0.02 0 0.14 0.02 0 0.145 0.02 0 0.15 0.02 0 0.155 0.02 0 0.16 0.02 0 0.165 0.02 0 0.17 0.02 0 0.175 0.02 0 0.18 0.02 0 0.185 0.02 0 0.19 0.02 0 0.195 0.02 0 0.2 0.02 0 0.205 0.02 0 0.21 0.02 0 0.215 0.02 0 0.22 0.02 0 0.225 0.02 0 0.23 0.02 0 0.235 0.02 0 0.24 0.02 0 0.245 0.02 0 0.25 0.02 0 0.255 0.02 0 0.26 0.02 0 0.265 0.02 0 0.27 0.02 0 0.275 0.02 0 0.28 0.02 0 0.285 0.02 0 0.29 0.02 0 0.295 0.02 0 0.3 0.02 0 0.305 0.02 0 0.31 0.02 0 0.315 0.02 0 0.32 0.02 0 0.325 0.02 0 0.33 0.02 0 0.335 0.02 0 0.34 0.02 0 0.345 0.02 0 0.35 0.02 0 0.355 0.02 0 0.36 0.02 0 0.365 0.02 0 0.37 0.02 0 0.375 0.02 0 0.38 0.02 0 0.385 0.02 0 0.39 0.02 0 0.395 0.02 0 0.4 0.02 0 0.405 0.02 0 0.41 0.02 0 0.415 0.02 0 0.42 0.02 0 0.425 0.02 0 0.43 0.02 0 0.435 0.02 0 0.44 0.02 0 0.445 0.02 0 0.45 0.02 0 0.455 0.02 0 0.46 0.02 0 0.465 0.02 0 0.47 0.02 0 0.475 0.02 0 0.48 0.02 0 0.485 0.02 0 0.49 0.02 0 0.495 0.02 0 0.5 0.02 0 0.505 0.02 0 0.51 0.02 0 0.515 0.02 0 0.52 0.02 0 0.525 0.02 0 0.53 0.02 0 0.535 0.02 0 0.54 0.02 0 0.545 0.02 0 0.55 0.02 0 0.555 0.02 0 0.56 0.02 0 0.565 0.02 0 0.57 0.02 0 0.575 0.02 0 0.58 0.02 0 0.585 0.02 0 0.59 0.02 0 0.595 0.02 0 0.6 0.02 0 0.605 0.02 0 0.61 0.02 0 0.615 0.02 0 0.62 0.02 0 0.625 0.02 0 0.63 0.02 0 0.635 0.02 0 0.64 0.02 0 0.645 0.02 0 0.65 0.02 0 0.655 0.02 0 0.66 0.02 0 0.665 0.02 0 0.67 0.02 0 0.675 0.02 0 0.68 0.02 0 0.685 0.02 0 0.69 0.02 0 0.695 0.02 0 0.7 0.02 0 0.705 0.02 0 0.71 0.02 0 0.715 0.02 0 0.72 0.02 0 0.725 0.02 0 0.73 0.02 0 0.735 0.02 0 0.74 0.02 0 0.745 0.02 0 0.75 0.02 0 0.755 0.02 0 0.76 0.02 0 0.765 0.02 0 0.77 0.02 0 0.775 0.02 0 0.78 0.02 0 0.785 0.02 0 0.79 0.02 0 0.795 0.02 0 0.8 0.02 0 0.805 0.02 0 0.81 0.02 0 0.815 0.02 0 0.82 0.02 0 0.825 0.02 0 0.83 0.02 0 0.835 0.02 0 0.84 0.02 0 0.845 0.02 0 0.85 0.02 0 0.855 0.02 0 0.86 0.02 0 0.865 0.02 0 0.87 0.02 0 0.875 0.02 0 0.88 0.02 0 0.885 0.02 0 0.89 0.02 0 0.895 0.02 0 0.9 0.02 0 0.905 0.02 0 0.91 0.02 0 0.915 0.02 0 0.92 0.02 0 0.925 0.02 0 0.93 0.02 0 0.935 0.02 0 0.94 0.02 0 0.945 0.02 0 0.95 0.02 0 0.955 0.02 0 0.96 0.02 0 0.965 0.02 0 0.97 0.02 0 0.975 0.02 0 0.98 0.02 0 0.985 0.02 0 0.99 0.02 0 0.995 0.02 0 1 0.02 0 0 0.04 0 0.005 0.04 0 0.01 0.04 0 0.015 0.04 0 0.02 0.04 0 0.025 0.04 0 0.03 0.04 0 0.035 0.04 0 0.04 0.04 0 0.045 0.04 0 0.05 0.04 0 0.055 0.04 0 0.06 0.04 0 0.065 0.04 0 0.07 0.04 0 0.075 0.04 0 0.08 0.04 0 0.085 0.04 0 0.09 0.04 0 0.095 0.04 0 0.1 0.04 0 0.105 0.04 0 0.11 0.04 0 0.115 0.04 0 0.12 0.04 0 0.125 0.04 0 0.13 0.04 0 0.135 0.04 0 0.14 0.04 0 0.145 0.04 0 0.15 0.04 0 0.155 0.04 0 0.16 0.04 0 0.165 0.04 0 0.17 0.04 0 0.175 0.04 0 0.18 0.04 0 0.185 0.04 0 0.19 0.04 0 0.195 0.04 0 0.2 0.04 0 0.205 0.04 0 0.21 0.04 0 0.215 0.04 0 0.22 0.04 0 0.225 0.04 0 0.23 0.04 0 0.235 0.04 0 0.24 0.04 0 0.245 0.04 0 0.25 0.04 0 0.255 0.04 0 0.26 0.04 0 0.265 0.04 0 0.27 0.04 0 0.275 0.04 0 0.28 0.04 0 0.285 0.04 0 0.29 0.04 0 0.295 0.04 0 0.3 0.04 0 0.305 0.04 0 0.31 0.04 0 0.315 0.04 0 0.32 0.04 0 0.325 0.04 0 0.33 0.04 0 0.335 0.04 0 0.34 0.04 0 0.345 0.04 0 0.35 0.04 0 0.355 0.04 0 0.36 0.04 0 0.365 0.04 0 0.37 0.04 0 0.375 0.04 0 0.38 0.04 0 0.385 0.04 0 0.39 0.04 0 0.395 0.04 0 0.4 0.04 0 0.405 0.04 0 0.41 0.04 0 0.415 0.04 0 0.42 0.04 0 0.425 0.04 0 0.43 0.04 0 0.435 0.04 0 0.44 0.04 0 0.445 0.04 0 0.45 0.04 0 0.455 0.04 0 0.46 0.04 0 0.465 0.04 0 0.47 0.04 0 0.475 0.04 0 0.48 0.04 0 0.485 0.04 0 0.49 0.04 0 0.495 0.04 0 0.5 0.04 0 0.505 0.04 0 0.51 0.04 0 0.515 0.04 0 0.52 0.04 0 0.525 0.04 0 0.53 0.04 0 0.535 0.04 0 0.54 0.04 0 0.545 0.04 0 0.55 0.04 0 0.555 0.04 0 0.56 0.04 0 0.565 0.04 0 0.57 0.04 0 0.575 0.04 0 0.58 0.04 0 0.585 0.04 0 0.59 0.04 0 0.595 0.04 0 0.6 0.04 0 0.605 0.04 0 0.61 0.04 0 0.615 0.04 0 0.62 0.04 0 0.625 0.04 0 0.63 0.04 0 0.635 0.04 0 0.64 0.04 0 0.645 0.04 0 0.65 0.04 0 0.655 0.04 0 0.66 0.04 0 0.665 0.04 0 0.67 0.04 0 0.675 0.04 0 0.68 0.04 0 0.685 0.04 0 0.69 0.04 0 0.695 0.04 0 0.7 0.04 0 0.705 0.04 0 0.71 0.04 0 0.715 0.04 0 0.72 0.04 0 0.725 0.04 0 0.73 0.04 0 0.735 0.04 0 0.74 0.04 0 0.745 0.04 0 0.75 0.04 0 0.755 0.04 0 0.76 0.04 0 0.765 0.04 0 0.77 0.04 0 0.775 0.04 0 0.78 0.04 0 0.785 0.04 0 0.79 0.04 0 0.795 0.04 0 0.8 0.04 0 0.805 0.04 0 0.81 0.04 0 0.815 0.04 0 0.82 0.04 0 0.825 0.04 0 0.83 0.04 0 0.835 0.04 0 0.84 0.04 0 0.845 0.04 0 0.85 0.04 0 0.855 0.04 0 0.86 0.04 0 0.865 0.04 0 0.87 0.04 0 0.875 0.04 0 0.88 0.04 0 0.885 0.04 0 0.89 0.04 0 0.895 0.04 0 0.9 0.04 0 0.905 0.04 0 0.91 0.04 0 0.915 0.04 0 0.92 0.04 0 0.925 0.04 0 0.93 0.04 0 0.935 0.04 0 0.94 0.04 0 0.945 0.04 0 0.95 0.04 0 0.955 0.04 0 0.96 0.04 0 0.965 0.04 0 0.97 0.04 0 0.975 0.04 0 0.98 0.04 0 0.985 0.04 0 0.99 0.04 0 0.995 0.04 0 1 0.04 0 0 0.06 0 0.005 0.06 0 0.01 0.06 0 0.015 0.06 0 0.02 0.06 0 0.025 0.06 0 0.03 0.06 0 0.035 0.06 0 0.04 0.06 0 0.045 0.06 0 0.05 0.06 0 0.055 0.06 0 0.06 0.06 0 0.065 0.06 0 0.07 0.06 0 0.075 0.06 0 0.08 0.06 0 0.085 0.06 0 0.09 0.06 0 0.095 0.06 0 0.1 0.06 0 0.105 0.06 0 0.11 0.06 0 0.115 0.06 0 0.12 0.06 0 0.125 0.06 0 0.13 0.06 0 0.135 0.06 0 0.14 0.06 0 0.145 0.06 0 0.15 0.06 0 0.155 0.06 0 0.16 0.06 0 0.165 0.06 0 0.17 0.06 0 0.175 0.06 0 0.18 0.06 0 0.185 0.06 0 0.19 0.06 0 0.195 0.06 0 0.2 0.06 0 0.205 0.06 0 0.21 0.06 0 0.215 0.06 0 0.22 0.06 0 0.225 0.06 0 0.23 0.06 0 0.235 0.06 0 0.24 0.06 0 0.245 0.06 0 0.25 0.06 0 0.255 0.06 0 0.26 0.06 0 0.265 0.06 0 0.27 0.06 0 0.275 0.06 0 0.28 0.06 0 0.285 0.06 0 0.29 0.06 0 0.295 0.06 0 0.3 0.06 0 0.305 0.06 0 0.31 0.06 0 0.315 0.06 0 0.32 0.06 0 0.325 0.06 0 0.33 0.06 0 0.335 0.06 0 0.34 0.06 0 0.345 0.06 0 0.35 0.06 0 0.355 0.06 0 0.36 0.06 0 0.365 0.06 0 0.37 0.06 0 0.375 0.06 0 0.38 0.06 0 0.385 0.06 0 0.39 0.06 0 0.395 0.06 0 0.4 0.06 0 0.405 0.06 0 0.41 0.06 0 0.415 0.06 0 0.42 0.06 0 0.425 0.06 0 0.43 0.06 0 0.435 0.06 0 0.44 0.06 0 0.445 0.06 0 0.45 0.06 0 0.455 0.06 0 0.46 0.06 0 0.465 0.06 0 0.47 0.06 0 0.475 0.06 0 0.48 0.06 0 0.485 0.06 0 0.49 0.06 0 0.495 0.06 0 0.5 0.06 0 0.505 0.06 0 0.51 0.06 0 0.515 0.06 0 0.52 0.06 0 0.525 0.06 0 0.53 0.06 0 0.535 0.06 0 0.54 0.06 0 0.545 0.06 0 0.55 0.06 0 0.555 0.06 0 0.56 0.06 0 0.565 0.06 0 0.57 0.06 0 0.575 0.06 0 0.58 0.06 0 0.585 0.06 0 0.59 0.06 0 0.595 0.06 0 0.6 0.06 0 0.605 0.06 0 0.61 0.06 0 0.615 0.06 0 0.62 0.06 0 0.625 0.06 0 0.63 0.06 0 0.635 0.06 0 0.64 0.06 0 0.645 0.06 0 0.65 0.06 0 0.655 0.06 0 0.66 0.06 0 0.665 0.06 0 0.67 0.06 0 0.675 0.06 0 0.68 0.06 0 0.685 0.06 0 0.69 0.06 0 0.695 0.06 0 0.7 0.06 0 0.705 0.06 0 0.71 0.06 0 0.715 0.06 0 0.72 0.06 0 0.725 0.06 0 0.73 0.06 0 0.735 0.06 0 0.74 0.06 0 0.745 0.06 0 0.75 0.06 0 0.755 0.06 0 0.76 0.06 0 0.765 0.06 0 0.77 0.06 0 0.775 0.06 0 0.78 0.06 0 0.785 0.06 0 0.79 0.06 0 0.795 0.06 0 0.8 0.06 0 0.805 0.06 0 0.81 0.06 0 0.815 0.06 0 0.82 0.06 0 0.825 0.06 0 0.83 0.06 0 0.835 0.06 0 0.84 0.06 0 0.845 0.06 0 0.85 0.06 0 0.855 0.06 0 0.86 0.06 0 0.865 0.06 0 0.87 0.06 0 0.875 0.06 0 0.88 0.06 0 0.885 0.06 0 0.89 0.06 0 0.895 0.06 0 0.9 0.06 0 0.905 0.06 0 0.91 0.06 0 0.915 0.06 0 0.92 0.06 0 0.925 0.06 0 0.93 0.06 0 0.935 0.06 0 0.94 0.06 0 0.945 0.06 0 0.95 0.06 0 0.955 0.06 0 0.96 0.06 0 0.965 0.06 0 0.97 0.06 0 0.975 0.06 0 0.98 0.06 0 0.985 0.06 0 0.99 0.06 0 0.995 0.06 0 1 0.06 0 0 0.08 0 0.005 0.08 0 0.01 0.08 0 0.015 0.08 0 0.02 0.08 0 0.025 0.08 0 0.03 0.08 0 0.035 0.08 0 0.04 0.08 0 0.045 0.08 0 0.05 0.08 0 0.055 0.08 0 0.06 0.08 0 0.065 0.08 0 0.07 0.08 0 0.075 0.08 0 0.08 0.08 0 0.085 0.08 0 0.09 0.08 0 0.095 0.08 0 0.1 0.08 0 0.105 0.08 0 0.11 0.08 0 0.115 0.08 0 0.12 0.08 0 0.125 0.08 0 0.13 0.08 0 0.135 0.08 0 0.14 0.08 0 0.145 0.08 0 0.15 0.08 0 0.155 0.08 0 0.16 0.08 0 0.165 0.08 0
[...]
			<PointData Scalars="VitesseX">
				<DataArray Name="VitesseX" type="Float32" format="ascii">
 0 -3.03563e-14 4.93899e-14 -1.49333e-13 5.08246e-14 -3.29846e-14 -1.68988e-14 -1.06764e-13 4.92956e-14 1.19746e-14 -2.20836e-13 2.37301e-13 -3.86381e-13 4.09328e-13 -3.02989e-13 -1.95977e-14 2.23815e-13 -3.15298e-13 2.96614e-13 -1.79613e-13 -3.87891e-14 7.0777e-14 -7.03584e-14 1.22854e-13 -1.50174e-13 -1.71775e-13 -8.84634e-15 -3.65578e-13 2.52261e-13 -5.22052e-13 7.38064e-13 -1.77484e-13 4.05803e-13 -2.41805e-13 -7.87305e-13 6.54564e-13 -8.01912e-13 1.05542e-12 -5.88702e-13 3.54468e-13 -7.29581e-13 6.58787e-13 -2.80821e-13 -1.28834e-13 -5.23996e-13 1.05672e-12 -1.21194e-12 1.30954e-12 -8.18258e-13 4.06661e-13 -3.10085e-14 -3.24696e-13 1.66966e-12 -2.43752e-12 8.16091e-13 -3.4177e-13 -1.48198e-12 2.31712e-12 -2.63406e-12 1.25109e-12 8.22804e-13 6.97641e-13 -1.32982e-13 -4.88707e-13 5.51087e-13 2.28155e-15 -1.30516e-13 -6.71837e-13 -1.55373e-12 8.83345e-13 1.30355e-12 -2.5659e-12 1.51388e-12 -4.18698e-13 2.39341e-12 -1.09069e-12 -1.51301e-13 6.31811e-13 -1.41731e-12 1.79865e-12 -2.24395e-12 3.06355e-13 8.8944e-13 -2.02698e-12 6.70156e-13 1.38555e-12 -6.03052e-13 -1.08878e-13 6.09117e-13 -1.32354e-12 2.6927e-12 7.05935e-11 4.27609e-09 1.99609e-07 6.97859e-06 0.000173689 0.00286382 0.0286846 0.166264 0.546183 0.654146 0.906217 0.939131 0.751383 0.510767 0.280364 0.110764 0.0293021 0.0056748 0.000919538 0.000133104 1.75259e-05 2.11181e-06 2.33721e-07 2.38338e-08 2.24572e-09 1.94721e-10 1.53194e-11 3.83295e-12 -1.31761e-12 2.1523e-12 -1.11649e-12 -7.3486e-13 2.22503e-12 -2.33448e-12 2.13575e-12 -1.06467e-12 -1.15478e-12 2.2413e-12 -2.17418e-12 1.94034e-12 -8.79322e-13 -8.34868e-13 1.98866e-12 -2.07832e-12 1.7257e-12 -1.13972e-12 -1.2756e-12 7.37311e-13 -2.29637e-12 2.01265e-12 -8.11966e-14 -2.52011e-12 3.32291e-12 8.5858e-13 -1.53338e-12 2.60703e-12 -3.48264e-12 2.45574e-12 2.17175e-13 -1.5763e-12 2.13204e-12 -3.3015e-12 3.13818e-12 -2.18118e-12 2.21769e-12 -1.95969e-12 -5.16523e-13 1.31401e-12 -5.13477e-13 1.11369e-12 -1.20464e-12 1.00091e-13 4.49373e-13 -1.08548e-12 -1.26169e-14 -8.06103e-13 2.92805e-13 2.2765e-12 -1.90989e-12 1.49915e-12 -8.84208e-14 -1.85927e-12 3.05104e-12 -2.67234e-12 1.76823e-12 -4.95464e-13 -1.45407e-12 2.65662e-12 -2.09966e-12 9.92869e-13 3.42915e-13 -2.04931e-12 3.00409e-12 -2.71282e-12 1.67597e-12 -3.00543e-14 -2.6761e-12 1.77287e-12 -4.07023e-12 1.21923e-12 3.67482e-12 -7.52029e-12 5.09835e-12 5.56043e-13 8.77167e-13 2.07124e-12 -4.60821e-12 4.20196e-12 -1.32879e-12 0 0 -7.81595e-15 -6.30678e-14 7.55054e-14 -1.57945e-13 -2.17862e-14 3.75583e-14 2.65361e-14 -1.73794e-13 -3.21912e-14 9.58112e-14 -2.05574e-13 4.06673e-13 -5.88705e-13 3.23263e-13 -1.4427e-13 -2.87798e-13 4.2318e-13 -3.96269e-13 2.22039e-13 1.5454e-13 -1.32672e-13 -1.81455e-13 2.63351e-14 4.39701e-13 -2.60111e-14 -7.97017e-13 -2.48199e-13 4.17417e-13 -2.45994e-14 -6.45043e-14 6.98346e-13 -4.75739e-13 -3.02719e-13 1.83491e-13 -4.15778e-14 -4.26589e-14 -4.9816e-13 9.09988e-13 -5.00097e-13 5.7415e-14 5.18509e-14 -5.02867e-13 4.22098e-13 3.31444e-14 -4.91561e-13 4.04387e-13 -4.53397e-13 6.61247e-13 1.15176e-13 1.1519e-13 -1.07608e-13 -8.6022e-13 8.66812e-13 -9.98757e-13 -6.9185e-13 7.47973e-13 -5.58446e-13 5.61451e-13 -6.72182e-13 4.60285e-13 5.63535e-13 2.58785e-13 4.64332e-13 -4.98319e-13 -2.97104e-13 1.78541e-13 -4.8913e-13 -1.67559e-13 -7.09019e-13 -7.21632e-14 8.19495e-13 -6.3122e-13 1.32289e-12 -7.24249e-13 7.43098e-13 3.54395e-13 -7.64499e-13 5.25018e-13 -1.29631e-12 8.50269e-13 -1.03074e-12 -1.07937e-12 1.72012e-12 -9.82691e-14 -1.45318e-12 1.15445e-12 8.35182e-13 -3.24292e-13 7.00745e-13 -5.11574e-13 7.21346e-11 4.27672e-09 1.99609e-07 6.97859e-06 0.000173689 0.00286382 0.0286846 0.166264 0.546183 0.654146 0.906217 0.939131 0.751383 0.510767 0.280364 0.110764 0.0293021 0.0056748 0.000919538 0.000133104 1.75259e-05 2.11181e-06 2.33721e-07 2.38312e-08 2.24626e-09 1.96416e-10 1.6397e-11 3.71865e-13 1.72985e-12 -1.08468e-12 1.48769e-12 2.06702e-13 -1.59205e-12 1.3159e-12 -1.25994e-12 1.16354e-12 5.19117e-13 -1.87157e-12 1.4184e-12 -1.28776e-12 1.32456e-12 3.74292e-13 -1.58416e-12 1.24703e-12 -1.19727e-12 9.28394e-13 -1.06909e-13 -2.43273e-12 3.75875e-13 -7.65682e-14 -8.75671e-13 2.85793e-12 -1.14292e-12 -2.88043e-13 1.58167e-12 -1.18544e-12 2.55392e-12 -1.95206e-12 -7.1968e-13 1.59088e-12 -1.22467e-12 2.41465e-12 -2.52041e-12 9.93189e-13 -1.14559e-12 1.2006e-12 7.20186e-14 -1.38413e-12 3.55177e-13 8.53731e-15 2.13225e-12 -1.01843e-12 -2.03026e-12 -3.31403e-13 -2.81951e-13 1.90913e-12 -2.45801e-13 -8.90246e-13 2.17087e-12 -1.71641e-12 -4.73312e-13 2.07089e-12 -1.64488e-12 2.15812e-12 -2.20552e-12 -7.07787e-14 1.72576e-12 -1.19178e-12 1.65531e-12 -1.54971e-12 -9.15104e-13 2.20444e-12 -1.73925e-12 2.05332e-12 -2.05496e-12 -5.22815e-13 1.51294e-12 -2.58791e-12 1.15303e-12 -2.71052e-12 3.9317e-13 3.66169e-12 -3.1953e-12 2.76837e-13 8.3924e-13 4.47053e-13 4.28067e-12 -3.79547e-12 -4.56707e-13 0 0 -1.82192e-15 1.57992e-14 -1.41553e-13 8.96e-14 -7.48303e-14 -1.88478e-13 -1.45474e-13 1.48426e-13 7.20416e-14 -1.29714e-13 9.44828e-14 -4.32159e-13 2.25411e-13 -4.64671e-13 6.83023e-14 3.34318e-13 -3.46286e-13 3.33989e-13 -2.72756e-13 -4.25763e-14 2.54781e-13 2.90781e-13 -7.82231e-14 -5.27518e-13 -6.06747e-14 3.12507e-13 -3.32357e-13 1.45234e-13 -4.47843e-13 4.24672e-13 -6.93172e-14 5.59629e-13 -3.86521e-13 -5.90797e-13 5.4527e-14 9.31711e-14 5.39235e-13 -4.491e-13 -4.84541e-14 -2.7317e-13 1.98335e-13 -7.5459e-14 -2.53218e-13 8.3604e-14 3.82078e-13 -1.86966e-13 8.17103e-14 -1.74545e-13 -2.74503e-13 -1.00647e-13 4.56581e-13 -3.31709e-15 -3.45533e-13 -1.3372e-12 -2.12485e-13 8.75909e-13 -3.61203e-14 -1.03263e-13 -4.33117e-13 6.15641e-13 7.27016e-13 -3.7956e-13 2.21092e-13 -2.2523e-13 3.95714e-13 3.23815e-15 -6.80255e-13 -5.24301e-13 5.91995e-14 3.41025e-14 -2.37457e-13 -8.32979e-13 8.59041e-13 9.9164e-13 -2.1999e-13 -7.89907e-13 -2.4714e-13 7.40178e-13 -5.49233e-14 -9.49911e-13 3.16697e-13 -1.74332e-13 -1.93635e-14 -1.23708e-12 1.6735e-12 6.44747e-13 -4.77967e-13 1.90959e-13 4.36437e-13 2.00954e-12 7.08671e-11 4.27499e-09 1.9961e-07 6.97859e-06 0.000173689 0.00286382 0.0286846 0.166264 0.546183 0.654146 0.906217 0.939131 0.751383 0.510767 0.280364 0.110764 0.0293021 0.0056748 0.000919538 0.000133104 1.75259e-05 2.11181e-06 2.33721e-07 2.3833e-08 2.24514e-09 1.95113e-10 1.66856e-11 1.78471e-12 1.6114e-14 7.08602e-13 -1.22179e-12 1.31798e-12 -3.49433e-14 -3.68442e-13 1.52245e-13 -1.41131e-12 1.21018e-12 8.23891e-14 -2.85001e-13 3.6753e-13 -1.40212e-12 1.47181e-12 1.26893e-13 -3.07435e-13 3.81227e-13 -1.40836e-12 7.49454e-13 -4.20606e-13 -1.43783e-12 7.72133e-13 -1.16277e-13 -1.57907e-13 5.38212e-13 8.76959e-13 -9.08167e-13 2.489e-13 4.22094e-13 -2.81007e-13 7.84325e-13 -1.17382e-12 3.17041e-13 8.1909e-13 -4.9206e-13 -9.80879e-14 5.078e-13 -1.15315e-12 1.0788e-12 2.07147e-13 8.05698e-13 -5.96757e-13 -2.3209e-12 5.27168e-13 9.51494e-13 9.48605e-15 -9.87855e-13 -1.12475e-12 4.38779e-13 4.98471e-13 -4.58002e-14 9.93878e-13 1.83748e-13 -4.46904e-14 -6.8733e-13 -2.74388e-13 1.44501e-12 -1.94777e-13 8.29294e-14 -6.65184e-13 -5.22918e-13 1.21253e-12 6.59761e-14 -3.17448e-13 -8.33272e-13 -2.6969e-14 1.19187e-12 -4.0214e-13 -4.54085e-13 -1.40584e-12 -1.38943e-12 1.24528e-12 2.23111e-13 -1.49116e-12 -5.98289e-13 1.97134e-12 7.62776e-13 -2.50046e-13 -2.06394e-13 9.14986e-15 1.03551e-12 0 0 -5.48862e-14 -6.20189e-14 -2.59449e-14 -5.33364e-14 -1.11727e-14 -1.58318e-14 -9.42822e-14 -7.30381e-14 -3.59486e-14 -2.07484e-13 -7.23761e-14 -2.09769e-13 3.50135e-14 -1.07544e-13 7.43418e-15 6.35658e-14 -1.23748e-13 4.20585e-14 1.34655e-13 1.05649e-13 6.81914e-14 -2.46008e-13 -8.8726e-14 -7.40474e-14 -1.08521e-13 -1.89677e-14 -1.984e-13 2.94937e-14 -7.71558e-14 1.76723e-13 1.79788e-13 4.56703e-14 -4.09698e-13 -8.40269e-14 9.50147e-16 -4.88414e-13 5.41878e-13 -5.63818e-13 2.37972e-13 -2.95669e-14 2.75235e-13 1.04322e-14 -1.17049e-13 -6.33933e-13 2.18297e-13 -6.5521e-13 8.8534e-13 -5.97908e-13 2.50217e-13 -3.06966e-13 -4.44658e-13 9.51152e-13 -1.03304e-12 -4.47369e-13 -4.09028e-13 3.17056e-13 1.00559e-12 -7.96434e-13 1.36403e-14 4.79005e-13 4.93779e-13 2.09581e-13 5.82155e-13 -4.19275e-13 -9.87156e-14 -2.78957e-13 -4.51156e-13 -3.72484e-13 -9.94812e-13 1.06487e-12 -1.17339e-12 -4.39179e-14 3.95464e-13 9.26087e-13 -1.0402e-12 5.74024e-13 -2.86322e-13 2.47638e-13 5.76445e-13 -2.41608e-12 -3.75697e-13 1.36891e-12 -5.60607e-13 -2.04219e-13 1.27755e-12 -2.94453e-13 9.50389e-14 1.12597e-12 -7.83829e-13 2.71625e-12 6.98704e-11 4.27622e-09 1.9961e-07 6.97859e-06 0.000173689 0.00286382 0.0286846 0.166264 0.546183 0.654146 0.906217 0.939131 0.751383 0.510767 0.280364 0.110764 0.0293021 0.0056748 0.000919538 0.000133104 1.75259e-05 2.11181e-06 2.3372e-07 2.38335e-08 2.24496e-09 1.95084e-10 1.6458e-11 1.63942e-12 -7.60586e-13 1.59065e-12 -1.56793e-12 1.19264e-12 -2.42549e-14 -9.97262e-13 1.35462e-12 -1.70678e-12 9.18348e-13 2.72496e-13 -8.86469e-13 1.42448e-12 -1.44821e-12 1.41298e-12 -3.83148e-14 -1.36153e-12 1.60074e-12 -1.64202e-12 2.98811e-13 -3.76478e-13 -1.29247e-12 3.69293e-13 2.05148e-13 -1.79602e-13 1.80809e-13 -1.54376e-13 -1.14836e-12 2.24638e-12 -4.23329e-13 -5.21757e-13 -4.98108e-13 -7.36356e-13 2.40437e-12 -4.48082e-14 3.08152e-13 -1.50245e-12 2.10487e-12 -1.50087e-12 7.87391e-13 -1.14293e-12 -5.14863e-13 1.70895e-12 -1.00876e-12 7.63767e-13 -1.72358e-12 -7.59162e-13 7.87603e-13 -1.21118e-12 1.25592e-12 6.41942e-13 -4.25048e-13 8.29393e-13 -1.2302e-12 -6.78045e-13 2.2088e-12 -1.0042e-12 1.06209e-12 -1.38883e-12 -2.5235e-13 1.88149e-12 -1.00276e-12 8.77411e-14 -1.09611e-12 -5.61183e-13 2.24091e-12 -1.34678e-12 7.26759e-13 -1.10208e-12 -9.6447e-13 1.27864e-12 -3.18661e-12 -6.913e-13 1.77827e-12 -6.66087e-13 2.07139e-13 -6.9281e-13 -2.5394e-13 2.14905e-12 7.15275e-13 -3.32102e-13 -2.25798e-12 0 0 -5.13728e-14 -1.29247e-13 1.10858e-13 -2.1994e-13 -7.48782e-14 4.04345e-14 7.75221e-14 -2.58878e-13 -1.58128e-13 -1.14352e-14 -5.12715e-13 4.18499e-13 -6.07406e-13 5.39208e-13 -1.49874e-14 -3.47583e-13 7.41612e-13 -5.46816e-13 2.46142e-13 1.63327e-14 -4.57943e-13 -3.81482e-13 -1.95741e-13 5.2524e-13 5.73933e-16 -6.10539e-13 -3.49542e-14 -2.77903e-14 4.51796e-13 -2.86732e-13 6.02332e-13 -7.89353e-13 -1.38136e-13 4.85747e-13 -8.78903e-14 2.43834e-13 -3.9724e-13 5.78194e-13 -5.70901e-13 2.02461e-13 -3.17669e-13 -3.54532e-13 2.19499e-13 -1.91399e-13 -5.6676e-13 2.49782e-13 -3.007e-13 1.9367e-13 3.43641e-13 -4.93735e-15 -1.71952e-13 -1.57507e-13 4.13181e-13 -8.21857e-13 -9.13966e-13 5.47229e-13 4.13685e-14 4.07329e-13 -2.73715e-13 4.6708e-13 3.85654e-13 5.4612e-13 4.13447e-13 -4.25306e-13 -5.10472e-13 -5.62517e-14 -4.37782e-13 -1.97628e-13 -1.22821e-12 2.75843e-13 5.19164e-13 -7.8891e-14 1.75396e-12 -5.53172e-13 -4.92896e-14 -1.38527e-13 -1.23492e-12 4.83812e-14 -8.79821e-13 7.97491e-14 -2.82258e-12 5.66288e-14 1.81887e-12 4.15945e-13 -2.1604e-12 4.47358e-13 1.51775e-12 -3.89126e-13 1.09904e-12 -6.36715e-14 7.10999e-11 4.27829e-09 1.99608e-07 6.97859e-06 0.000173689 0.00286382 0.0286846 0.166264 0.546183 0.654146 0.906217 0.939131 0.751383 0.510767 0.280364 0.110764 0.0293021 0.0056748 0.000919538 0.000133104 1.75259e-05 2.11181e-06 2.33721e-07 2.38314e-08 2.24628e-09 1.96665e-10 1.58112e-11 4.67956e-13 1.69448e-12 -1.21755e-12 1.72349e-12 -8.58708e-13 -1.33731e-12 1.65506e-12 -1.2171e-12 1.47922e-12 -1.65574e-13 -1.31964e-12 1.50339e-12 -1.40286e-12 1.67315e-12 -2.73962e-13 -1.45231e-12 1.1948e-12 -1.08548e-12 1.07991e-12 -1.06725e-12 -2.29391e-12 1.21526e-12 -1.11817e-12 -1.22172e-12 3.47225e-12 -1.92446e-12 -1.19556e-12 2.12627e-12 -1.20725e-12 3.62967e-12 -1.92781e-12 -7.46021e-13 1.70152e-12 -2.10567e-12 2.03134e-12 -2.73848e-12 1.39327e-12 -9.33399e-13 2.89408e-12 -7.49563e-13 -2.05648e-12 -1.03786e-12 5.14255e-13 3.87627e-12 -2.96018e-12 -3.02175e-12 -6.88179e-13 8.2356e-13 2.02089e-12 -3.32277e-12 -7.4241e-14 4.691e-12 -1.96129e-12 -1.5688e-12 1.34951e-12 6.10708e-13 3.47347e-12 -4.4332e-12 -4.08078e-13 1.12163e-12 1.17102e-13 3.48841e-12 -3.6686e-12 -2.19749e-12 1.6515e-12 5.36716e-13 3.18899e-12 -4.0214e-12 -5.49168e-13 9.46073e-13 -1.05712e-12 9.35745e-13 -6.4175e-12 9.5795e-13 7.16649e-12 -3.61839e-12 -1.80843e-12 4.0583e-13 1.82782e-12 6.67805e-12 -5.48316e-12 -2.77964e-12 0 0 -1.13415e-14 7.26671e-14 -3.09844e-13 2.12707e-13 -2.66484e-13 -3.56438e-13 -1.07175e-13 3.22058e-13 -2.39181e-14 -2.7979e-13 -4.32632e-14 -8.07509e-13 7.52721e-13 -5.85354e-13 3.60704e-13 6.45748e-13 -1.23511e-13 5.79382e-13 -9.4623e-13 -6.11654e-13 -2.06586e-13 6.03167e-13 -3.00293e-13 -8.86036e-13 -2.29112e-14 1.02706e-12 -2.07003e-13 -4.06673e-13 -3.10634e-13 7.89507e-13 -8.67723e-13 8.06491e-13 1.33715e-13 -1.19633e-12 6.69093e-13 9.34244e-13 1.25197e-12 -1.02285e-12 -3.59992e-13 -9.26695e-13 -2.34054e-13 -1.55935e-13 -8.06369e-13 4.61991e-13 1.23388e-12 -5.84667e-13 7.67175e-15 -9.06688e-13 -1.85849e-13 1.41375e-13 1.34909e-12 1.16615e-12 -1.96977e-12 -6.09776e-13 -3.92915e-13 -7.65756e-13 1.43334e-12 -1.55596e-12 1.15451e-12 1.10967e-12 8.08353e-13 -7.36594e-13 -1.3126e-12 1.0852e-12 5.64404e-13 -3.5711e-14 -1.02734e-12 -1.9175e-12 1.95298e-12 -6.19754e-14 -1.29469e-12 1.04041e-12 1.37059e-12 2.86667e-12 -1.03505e-12 -3.86501e-12 -2.30675e-13 -1.3855e-12 1.3689e-12 -8.52641e-13 -1.89254e-12 7.49501e-14 -7.46988e-13 -3.67145e-13 7.62993e-13 -1.38837e-13 1.10245e-13 -1.39058e-12 1.91359e-12 2.17509e-12 7.05176e-11 4.27677e-09 1.99607e-07 6.9786e-06 0.000173689 0.00286382 0.0286846 0.166264 0.546183 0.654146 0.906217 0.939131 0.751383 0.510767 0.280364 0.110764 0.0293021 0.0056748 0.000919538 0.000133104 1.75259e-05 2.11181e-06 2.33722e-07 2.38333e-08 2.24612e-09 1.9528e-10 1.4603e-11 4.31571e-12 1.65047e-13 1.22472e-13 4.73759e-14 -2.61499e-12 2.71312e-12 -3.98528e-13 -1.83331e-13 1.57624e-13 -1.94051e-12 2.96495e-12 -8.01256e-13 -4.0378e-13 -8.99393e-14 -2.01372e-12 2.58277e-12 -7.45948e-14 -4.89757e-13 -3.69364e-13 -2.29499e-12 9.26711e-13 -9.08316e-13 7.35127e-13 -1.41614e-12 -1.24808e-12 2.47465e-12 1.10622e-12 3.6187e-14 -1.43155e-12 3.59716e-13 2.98573e-12 2.72936e-12 -2.22995e-12 -3.80463e-12 -2.34032e-12 1.10161e-12 1.4277e-12 -5.52067e-13 2.12273e-12 -1.57686e-12 2.66944e-12 -6.58436e-13 -2.48629e-12 -3.40881e-13 -4.25661e-12 3.81653e-12 -2.61739e-13 -1.35251e-12 -4.09729e-13 -7.49542e-12 3.62157e-12 3.88886e-12 1.33836e-12 5.48495e-13 -2.03533e-12 1.76995e-12 1.41799e-12 -1.92129e-12 1.21805e-12 -1.99178e-12 1.81029e-13 2.52623e-12 -9.95328e-13 1.02304e-13 -2.66771e-12 1.40764e-12 2.19814e-12 -1.3267e-12 1.31713e-12 -2.78907e-12 -5.34509e-13 -9.10428e-13 -2.32159e-12 1.69406e-12 -2.16084e-12 2.64131e-12 1.71381e-12 2.04378e-12 3.45886e-14 -1.6568e-12 1.50907e-12 6.1233e-13 0
				</DataArray>
				<DataArray Name="VitesseY" type="Float32" format="ascii">