<?xml version="1.0"?>
<VTKFile type="PolyData">
	<PolyData>
		<Piece NumberOfPoints="1206" NumberOfPolys="1000">
			<Points>
				<DataArray type="Float32" NumberOfComponents="3" format="ascii">
 0 0 0 0.005 0 0 0.01 0 0 0.015 0 0 0.02 0 0 0.025 0 0 0.03 0 0 0.035 0 0 0.04 0 0 0.045 0 0 0.05 0 0 0.055 0 0 0.06 0 0 0.065 0 0 0.07 0 0 0.075 0 0 0.08 0 0 0.085 0 0 0.09 0 0 0.095 0 0 0.1 0 0 0.105 0 0 0.11 0 0 0.115 0 0 0.12 0 0 0.125 0 0 0.13 0 0 0.135 0 0 0.14 0 0 0.145 0 0 0.15 0 0 0.155 0 0 0.16 0 0 0.165 0 0 0.17 0 0 0.175 0 0 0.18 0 0 0.185 0 0 0.19 0 0 0.195 0 0 0.2 0 0 0.205 0 0 0.21 0 0 0.215 0 0 0.22 0 0 0.225 0 0 0.23 0 0 0.235 0 0 0.24 0 0 0.245 0 0 0.25 0 0 0.255 0 0 0.26 0 0 0.265 0 0 0.27 0 0 0.275 0 0 0.28 0 0 0.285 0 0 0.29 0 0 0.295 0 0 0.3 0 0 0.305 0 0 0.31 0 0 0.315 0 0 0.32 0 0 0.325 0 0 0.33 0 0 0.335 0 0 0.34 0 0 0.345 0 0 0.35 0 0 0.355 0 0 0.36 0 0 0.365 0 0 0.37 0 0 0.375 0 0 0.38 0 0 0.385 0 0 0.39 0 0 0.395 0 0 0.4 0 0 0.405 0 0 0.41 0 0 0.415 0 0 0.42 0 0 0.425 0 0 0.43 0 0 0.435 0 0 0.44 0 0 0.445 0 0 0.45 0 0 0.455 0 0 0.46 0 0 0.465 0 0 0.47 0 0 0.475 0 0 0.48 0 0 0.485 0 0 0.49 0 0 0.495 0 0 0.5 0 0 0.505 0 0 0.51 0 0 0.515 0 0 0.52 0 0 0.525 0 0 0.53 0 0 0.535 0 0 0.54 0 0 0.545 0 0 0.55 0 0 0.555 0 0 0.56 0 0 0.565 0 0 0.57 0 0 0.575 0 0 0.58 0 0 0.585 0 0 0.59 0 0 0.595 0 0 0.6 0 0 0.605 0 0 0.61 0 0 0.615 0 0 0.62 0 0 0.625 0 0 0.63 0 0 0.635 0 0 0.64 0 0 0.645 0 0 0.65 0 0 0.655 0 0 0.66 0 0 0.665 0 0 0.67 0 0 0.675 0 0 0.68 0 0 0.685 0 0 0.69 0 0 0.695 0 0 0.7 0 0 0.705 0 0 0.71 0 0 0.715 0 0 0.72 0 0 0.725 0 0 0.73 0 0 0.735 0 0 0.74 0 0 0.745 0 0 0.75 0 0 0.755 0 0 0.76 0 0 0.765 0 0 0.77 0 0 0.775 0 0 0.78 0 0 0.785 0 0 0.79 0 0 0.795 0 0 0.8 0 0 0.805 0 0 0.81 0 0 0.815 0 0 0.82 0 0 0.825 0 0 0.83 0 0 0.835 0 0 0.84 0 0 0.845 0 0 0.85 0 0 0.855 0 0 0.86 0 0 0.865 0 0 0.87 0 0 0.875 0 0 0.88 0 0 0.885 0 0 0.89 0 0 0.895 0 0 0.9 0 0 0.905 0 0 0.91 0 0 0.915 0 0 0.92 0 0 0.925 0 0 0.93 0 0 0.935 0 0 0.94 0 0 0.945 0 0 0.95 0 0 0.955 0 0 0.96 0 0 0.965 0 0 0.97 0 0 0.975 0 0 0.98 0 0 0.985 0 0 0.99 0 0 0.995 0 0 1 0 0 0 0.02 0 0.005 0.02 0 0.01 0.02 0 0.015 0.02 0 0.02 0.02 0 0.025 0.02 0 0.03 0.02 0 0.035 0.02 0 0.04 0.02 0 0.045 0.02 0 0.05 0.02 0 0.055 0.02 0 0.06 0.02 0 0.065 0.02 0 0.07 0.02 0 0.075 0.02 0 0.08 0.02 0 0.085 0.02 0 0.09 0.02 0 0.095 0.02 0 0.1 0.02 0 0.105 0.02 0 0.11 0.02 0 0.115 0.02 0 0.12 0.02 0 0.125 0.02 0 0.13 0.02 0 0.135 0.02 0 0.14 0.02 0 0.145 0.02 0 0.15 0.02 0 0.155 0.02 0 0.16 0.02 0 0.165 0.02 0 0.17 0.02 0 0.175 0.02 0 0.18 0.02 0 0.185 0.02 0 0.19 0.02 0 0.195 0.02 0 0.2 0.02 0 0.205 0.02 0 0.21 0.02 0 0.215 0.02 0 0.22 0.02 0 0.225 0.02 0 0.23 0.02 0 0.235 0.02 0 0.24 0.02 0 0.245 0.02 0 0.25 0.02 0 0.255 0.02 0 0.26 0.02 0 0.265 0.02 0 0.27 0.02 0 0.275 0.02 0 0.28 0.02 0 0.285 0.02 0 0.29 0.02 0 0.295 0.02 0 0.3 0.02 0 0.305 0.02 0 0.31 0.02 0 0.315 0.02 0 0.32 0.02 0 0.325 0.02 0 0.33 0.02 0 0.335 0.02 0 0.34 0.02 0 0.345 0.02 0 0.35 0.02 0 0.355 0.02 0 0.36 0.02 0 0.365 0.02 0 0.37 0.02 0 0.375 0.02 0 0.38 0.02 0 0.385 0.02 0 0.39 0.02 0 0.395 0.02 0 0.4 0.02 0 0.405 0.02 0 0.41 0.02 0 0.415 0.02 0 0.42 0.02 0 0.425 0.02 0 0.43 0.02 0 0.435 0.02 0 0.44 0.02 0 0.445 0.02 0 0.45 0.02 0 0.455 0.02 0 0.46 0.02 0 0.465 0.02 0 0.47 0.02 0 0.475 0.02 0 0.48 0.02 0 0.485 0.02 0 0.49 0.02 0 0.495 0.02 0 0.5 0.02 0 0.505 0.02 0 0.51 0.02 0 0.515 0.02 0 0.52 0.02 0 0.525 0.02 0 0.53 0.02 0 0.535 0.02 0 0.54 0.02 0 0.545 0.02 0 0.55 0.02 0 0.555 0.02 0 0.56 0.02 0 0.565 0.02 0 0.57 0.02 0 0.575 0.02 0 0.58 0.02 0 0.585 0.02 0 0.59 0.02 0 0.595 0.02 0 0.6 0.02 0 0.605 0.02 0 0.61 0.02 0 0.615 0.02 0 0.62 0.02 0 0.625 0.02 0 0.63 0.02 0 0.635 0.02 0 0.64 0.02 0 0.645 0.02 0 0.65 0.02 0 0.655 0.02 0 0.66 0.02 0 0.665 0.02 0 0.67 0.02 0 0.675 0.02 0 0.68 0.02 0 0.685 0.02 0 0.69 0.02 0 0.695 0.02 0 0.7 0.02 0 0.705 0.02 0 0.71 0.02 0 0.715 0.02 0 0.72 0.02 0 0.725 0.02 0 0.73 0.02 0 0.735 0.02 0 0.74 0.02 0 0.745 0.02 0 0.75 0.02 0 0.755 0.02 0 0.76 0.02 0 0.765 0.02 0 0.77 0.02 0 0.775 0.02 0 0.78 0.02 0 0.785 0.02 0 0.79 0.02 0 0.795 0.02 0 0.8 0.02 0 0.805 0.02 0 0.81 0.02 0 0.815 0.02 0 0.82 0.02 0 0.825 0.02 0 0.83 0.02 0 0.835 0.02 0 0.84 0.02 0 0.845 0.02 0 0.85 0.02 0 0.855 0.02 0 0.86 0.02 0 0.865 0.02 0 0.87 0.02 0 0.875 0.02 0 0.88 0.02 0 0.885 0.02 0 0.89 0.02 0 0.895 0.02 0 0.9 0.02 0 0.905 0.02 0 0.91 0.02 0 0.915 0.02 0 0.92 0.02 0 0.925 0.02 0 0.93 0.02 0 0.935 0.02 0 0.94 0.02 0 0.945 0.02 0 0.95 0.02 0 0.955 0.02 0 0.96 0.02 0 0.965 0.02 0 0.97 0.02 0 0.975 0.02 0 0.98 0.02 0 0.985 0.02 0 0.99 0.02 0 0.995 0.02 0 1 0.02 0 0 0.04 0 0.005 0.04 0 0.01 0.04 0 0.015 0.04 0 0.02 0.04 0 0.025 0.04 0 0.03 0.04 0 0.035 0.04 0 0.04 0.04 0 0.045 0.04 0 0.05 0.04 0 0.055 0.04 0 0.06 0.04 0 0.065 0.04 0 0.07 0.04 0 0.075 0.04 0 0.08 0.04 0 0.085 0.04 0 0.09 0.04 0 0.095 0.04 0 0.1 0.04 0 0.105 0.04 0 0.11 0.04 0 0.115 0.04 0 0.12 0.04 0 0.125 0.04 0 0.13 0.04 0 0.135 0.04 0 0.14 0.04 0 0.145 0.04 0 0.15 0.04 0 0.155 0.04 0 0.16 0.04 0 0.165 0.04 0 0.17 0.04 0 0.175 0.04 0 0.18 0.04 0 0.185 0.04 0 0.19 0.04 0 0.195 0.04 0 0.2 0.04 0 0.205 0.04 0 0.21 0.04 0 0.215 0.04 0 0.22 0.04 0 0.225 0.04 0 0.23 0.04 0 0.235 0.04 0 0.24 0.04 0 0.245 0.04 0 0.25 0.04 0 0.255 0.04 0 0.26 0.04 0 0.265 0.04 0 0.27 0.04 0 0.275 0.04 0 0.28 0.04 0 0.285 0.04 0 0.29 0.04 0 0.295 0.04 0 0.3 0.04 0 0.305 0.04 0 0.31 0.04 0 0.315 0.04 0 0.32 0.04 0 0.325 0.04 0 0.33 0.04 0 0.335 0.04 0 0.34 0.04 0 0.345 0.04 0 0.35 0.04 0 0.355 0.04 0 0.36 0.04 0 0.365 0.04 0 0.37 0.04 0 0.375 0.04 0 0.38 0.04 0 0.385 0.04 0 0.39 0.04 0 0.395 0.04 0 0.4 0.04 0 0.405 0.04 0 0.41 0.04 0 0.415 0.04 0 0.42 0.04 0 0.425 0.04 0 0.43 0.04 0 0.435 0.04 0 0.44 0.04 0 0.445 0.04 0 0.45 0.04 0 0.455 0.04 0 0.46 0.04 0 0.465 0.04 0 0.47 0.04 0 0.475 0.04 0 0.48 0.04 0 0.485 0.04 0 0.49 0.04 0 0.495 0.04 0 0.5 0.04 0 0.505 0.04 0 0.51 0.04 0 0.515 0.04 0 0.52 0.04 0 0.525 0.04 0 0.53 0.04 0 0.535 0.04 0 0.54 0.04 0 0.545 0.04 0 0.55 0.04 0 0.555 0.04 0 0.56 0.04 0 0.565 0.04 0 0.57 0.04 0 0.575 0.04 0 0.58 0.04 0 0.585 0.04 0 0.59 0.04 0 0.595 0.04 0 0.6 0.04 0 0.605 0.04 0 0.61 0.04 0 0.615 0.04 0 0.62 0.04 0 0.625 0.04 0 0.63 0.04 0 0.635 0.04 0 0.64 0.04 0 0.645 0.04 0 0.65 0.04 0 0.655 0.04 0 0.66 0.04 0 0.665 0.04 0 0.67 0.04 0 0.675 0.04 0 0.68 0.04 0 0.685 0.04 0 0.69 0.04 0 0.695 0.04 0 0.7 0.04 0 0.705 0.04 0 0.71 0.04 0 0.715 0.04 0 0.72 0.04 0 0.725 0.04 0 0.73 0.04 0 0.735 0.04 0 0.74 0.04 0 0.745 0.04 0 0.75 0.04 0 0.755 0.04 0 0.76 0.04 0 0.765 0.04 0 0.77 0.04 0 0.775 0.04 0 0.78 0.04 0 0.785 0.04 0 0.79 0.04 0 0.795 0.04 0 0.8 0.04 0 0.805 0.04 0 0.81 0.04 0 0.815 0.04 0 0.82 0.04 0 0.825 0.04 0 0.83 0.04 0 0.835 0.04 0 0.84 0.04 0 0.845 0.04 0 0.85 0.04 0 0.855 0.04 0 0.86 0.04 0 0.865 0.04 0 0.87 0.04 0 0.875 0.04 0 0.88 0.04 0 0.885 0.04 0 0.89 0.04 0 0.895 0.04 0 0.9 0.04 0 0.905 0.04 0 0.91 0.04 0 0.915 0.04 0 0.92 0.04 0 0.925 0.04 0 0.93 0.04 0 0.935 0.04 0 0.94 0.04 0 0.945 0.04 0 0.95 0.04 0 0.955 0.04 0 0.96 0.04 0 0.965 0.04 0 0.97 0.04 0 0.975 0.04 0 0.98 0.04 0 0.985 0.04 0 0.99 0.04 0 0.995 0.04 0 1 0.04 0 0 0.06 0 0.005 0.06 0 0.01 0.06 0 0.015 0.06 0 0.02 0.06 0 0.025 0.06 0 0.03 0.06 0 0.035 0.06 0 0.04 0.06 0 0.045 0.06 0 0.05 0.06 0 0.055 0.06 0 0.06 0.06 0 0.065 0.06 0 0.07 0.06 0 0.075 0.06 0 0.08 0.06 0 0.085 0.06 0 0.09 0.06 0 0.095 0.06 0 0.1 0.06 0 0.105 0.06 0 0.11 0.06 0 0.115 0.06 0 0.12 0.06 0 0.125 0.06 0 0.13 0.06 0 0.135 0.06 0 0.14 0.06 0 0.145 0.06 0 0.15 0.06 0 0.155 0.06 0 0.16 0.06 0 0.165 0.06 0 0.17 0.06 0 0.175 0.06 0 0.18 0.06 0 0.185 0.06 0 0.19 0.06 0 0.195 0.06 0 0.2 0.06 0 0.205 0.06 0 0.21 0.06 0 0.215 0.06 0 0.22 0.06 0 0.225 0.06 0 0.23 0.06 0 0.235 0.06 0 0.24 0.06 0 0.245 0.06 0 0.25 0.06 0 0.255 0.06 0 0.26 0.06 0 0.265 0.06 0 0.27 0.06 0 0.275 0.06 0 0.28 0.06 0 0.285 0.06 0 0.29 0.06 0 0.295 0.06 0 0.3 0.06 0 0.305 0.06 0 0.31 0.06 0 0.315 0.06 0 0.32 0.06 0 0.325 0.06 0 0.33 0.06 0 0.335 0.06 0 0.34 0.06 0 0.345 0.06 0 0.35 0.06 0 0.355 0.06 0 0.36 0.06 0 0.365 0.06 0 0.37 0.06 0 0.375 0.06 0 0.38 0.06 0 0.385 0.06 0 0.39 0.06 0 0.395 0.06 0 0.4 0.06 0 0.405 0.06 0 0.41 0.06 0 0.415 0.06 0 0.42 0.06 0 0.425 0.06 0 0.43 0.06 0 0.435 0.06 0 0.44 0.06 0 0.445 0.06 0 0.45 0.06 0 0.455 0.06 0 0.46 0.06 0 0.465 0.06 0 0.47 0.06 0 0.475 0.06 0 0.48 0.06 0 0.485 0.06 0 0.49 0.06 0 0.495 0.06 0 0.5 0.06 0 0.505 0.06 0 0.51 0.06 0 0.515 0.06 0 0.52 0.06 0 0.525 0.06 0 0.53 0.06 0 0.535 0.06 0 0.54 0.06 0 0.545 0.06 0 0.55 0.06 0 0.555 0.06 0 0.56 0.06 0 0.565 0.06 0 0.57 0.06 0 0.575 0.06 0 0.58 0.06 0 0.585 0.06 0 0.59 0.06 0 0.595 0.06 0 0.6 0.06 0 0.605 0.06 0 0.61 0.06 0 0.615 0.06 0 0.62 0.06 0 0.625 0.06 0 0.63 0.06 0 0.635 0.06 0 0.64 0.06 0 0.645 0.06 0 0.65 0.06 0 0.655 0.06 0 0.66 0.06 0 0.665 0.06 0 0.67 0.06 0 0.675 0.06 0 0.68 0.06 0 0.685 0.06 0 0.69 0.06 0 0.695 0.06 0 0.7 0.06 0 0.705 0.06 0 0.71 0.06 0 0.715 0.06 0 0.72 0.06 0 0.725 0.06 0 0.73 0.06 0 0.735 0.06 0 0.74 0.06 0 0.745 0.06 0 0.75 0.06 0 0.755 0.06 0 0.76 0.06 0 0.765 0.06 0 0.77 0.06 0 0.775 0.06 0 0.78 0.06 0 0.785 0.06 0 0.79 0.06 0 0.795 0.06 0 0.8 0.06 0 0.805 0.06 0 0.81 0.06 0 0.815 0.06 0 0.82 0.06 0 0.825 0.06 0 0.83 0.06 0 0.835 0.06 0 0.84 0.06 0 0.845 0.06 0 0.85 0.06 0 0.855 0.06 0 0.86 0.06 0 0.865 0.06 0 0.87 0.06 0 0.875 0.06 0 0.88 0.06 0 0.885 0.06 0 0.89 0.06 0 0.895 0.06 0 0.9 0.06 0 0.905 0.06 0 0.91 0.06 0 0.915 0.06 0 0.92 0.06 0 0.925 0.06 0 0.93 0.06 0 0.935 0.06 0 0.94 0.06 0 0.945 0.06 0 0.95 0.06 0 0.955 0.06 0 0.96 0.06 0 0.965 0.06 0 0.97 0.06 0 0.975 0.06 0 0.98 0.06 0 0.985 0.06 0 0.99 0.06 0 0.995 0.06 0 1 0.06 0 0 0.08 0 0.005 0.08 0 0.01 0.08 0 0.015 0.08 0 0.02 0.08 0 0.025 0.08 0 0.03 0.08 0 0.035 0.08 0 0.04 0.08 0 0.045 0.08 0 0.05 0.08 0 0.055 0.08 0 0.06 0.08 0 0.065 0.08 0 0.07 0.08 0 0.075 0.08 0 0.08 0.08 0 0.085 0.08 0 0.09 0.08 0 0.095 0.08 0 0.1 0.08 0 0.105 0.08 0 0.11 0.08 0 0.115 0.08 0 0.12 0.08 0 0.125 0.08 0 0.13 0.08 0 0.135 0.08 0 0.14 0.08 0 0.145 0.08 0 0.15 0.08 0 0.155 0.08 0 0.16 0.08 0 0.165 0.08 0
[...]
			<PointData Scalars="VitesseX">
				<DataArray Name="VitesseX" type="Float32" format="ascii">
 0 1.13784e-15 -1.36737e-14 -7.33403e-14 7.33821e-14 -7.14092e-14 -1.03567e-13 -4.52735e-14 -2.44818e-14 4.40693e-14 -3.69043e-14 -2.18501e-14 -1.74088e-13 1.07357e-13 -2.40737e-13 2.49207e-14 8.54827e-14 -2.40025e-13 2.60128e-13 -1.68364e-13 -3.01215e-14 6.57283e-14 1.5168e-13 -2.74475e-13 -4.03183e-13 -1.17329e-13 5.11161e-13 6.69497e-14 -2.07184e-13 4.14866e-14 -1.60736e-13 -4.2469e-13 3.43211e-13 6.06424e-14 -2.06344e-13 -1.35325e-13 4.69027e-13 -8.5616e-13 3.18821e-13 -6.66415e-14 -1.77741e-14 3.02745e-14 -3.56411e-15 -4.47374e-13 3.73673e-13 -1.05748e-13 9.5755e-13 -1.1475e-12 -1.75842e-13 -4.98014e-13 7.35704e-14 5.7206e-13 -7.41397e-13 1.03766e-12 -7.64356e-13 -2.12876e-13 1.26869e-12 -1.10252e-12 1.3485e-12 -8.56432e-13 -3.35265e-13 -2.97204e-13 1.19433e-13 3.86483e-14 -4.86797e-13 1.12498e-13 1.35794e-13 -2.93563e-13 1.4841e-12 -4.18748e-13 -8.6344e-13 1.11331e-12 -8.40478e-13 5.02634e-13 -1.65119e-12 5.73743e-13 -8.4914e-14 -1.97219e-13 8.32911e-13 -9.6136e-13 1.67669e-12 -8.2187e-13 -4.03143e-13 2.0908e-11 3.89291e-10 7.00211e-09 1.08749e-07 1.43454e-06 1.58092e-05 0.000142431 0.00102025 0.005617 0.0229887 0.0688959 0.156275 0.283435 0.422042 0.551843 0.666483 0.763228 0.836135 0.897324 0.939215 0.943855 0.957001 0.939919 0.941932 0.924675 0.908531 0.855967 0.74947 0.603457 0.435875 0.273549 0.143354 0.0608472 0.0212635 0.0065092 0.00183389 0.000487788 0.000123638 2.99568e-05 6.94718e-06 1.54323e-06 3.286e-07 6.71146e-08 1.31607e-08 2.47879e-09 4.47493e-10 7.94308e-11 1.12227e-11 3.49641e-12 -1.66955e-13 -1.28544e-12 8.31636e-13 -2.20195e-12 1.55844e-12 6.98753e-13 -1.89847e-12 1.71577e-12 -9.1108e-13 -8.098e-13 2.76823e-12 -2.21719e-12 -1.41318e-12 2.04392e-12 -1.31842e-12 2.96174e-12 -1.43655e-12 -3.3119e-13 1.34678e-12 -1.72782e-12 2.7222e-12 -2.0516e-12 1.43701e-12 -1.77435e-12 1.71992e-12 -2.19962e-13 -6.02486e-13 -3.31561e-13 -1.4197e-12 1.27554e-12 -6.29057e-13 -7.41795e-13 1.0535e-12 -5.79972e-13 4.21501e-13 -1.37621e-13 -1.23475e-12 2.32243e-12 -1.34104e-12 7.13618e-14 2.13892e-12 -2.67608e-12 2.54016e-12 -1.85274e-12 8.75354e-13 8.62742e-13 -2.06683e-12 1.97412e-12 -1.18602e-12 -8.7364e-14 1.20143e-12 -2.39805e-12 1.06199e-12 -1.96025e-12 -2.78708e-13 1.28522e-12 -2.04264e-12 2.97523e-12 -1.51413e-12 -1.72316e-12 4.65801e-12 -3.32745e-12 -1.30837e-12 3.79361e-13 -8.85395e-13 3.67376e-12 -3.28328e-12 1.44547e-12 0 0 -2.16379e-14 -2.94598e-14 -5.09884e-16 -9.2451e-14 4.12382e-16 1.48318e-14 -1.02826e-13 -9.24001e-14 -1.13788e-13 -4.11507e-14 -4.22812e-14 9.84407e-15 -1.66811e-13 5.35246e-14 -3.02175e-14 -1.57516e-13 1.63809e-14 -1.43628e-13 1.79053e-13 8.44962e-14 -2.98e-14 -1.54216e-13 -4.18331e-14 2.70299e-14 -1.70261e-13 -1.09391e-13 8.72581e-14 1.85284e-13 -5.82448e-14 -1.71749e-13 -4.04897e-14 -3.62554e-13 4.18953e-14 1.82625e-13 6.45605e-14 -5.01346e-13 4.96271e-13 -5.99582e-13 1.42065e-13 2.75462e-13 -5.55755e-14 -2.66043e-13 4.02483e-14 -7.29575e-14 1.82669e-13 -9.09554e-13 7.81145e-13 -5.49871e-13 -2.53038e-13 -4.45218e-13 -8.94372e-14 7.07598e-13 -8.733e-13 5.22947e-13 1.52808e-13 -4.00368e-13 1.04134e-12 -9.65332e-13 5.6881e-13 -3.20678e-13 -8.1522e-14 -1.17359e-13 -6.40271e-14 3.74023e-13 -2.06079e-13 -3.49364e-13 6.948e-13 -8.00425e-13 5.10743e-13 5.37777e-13 -1.30716e-12 5.39567e-13 -8.79563e-13 6.11137e-13 -7.91828e-13 -5.06862e-13 6.57824e-13 -1.15017e-13 1.08117e-12 -1.22066e-12 9.90049e-13 1.48757e-12 1.75373e-11 3.89012e-10 7.0069e-09 1.08746e-07 1.43454e-06 1.58092e-05 0.000142431 0.00102025 0.005617 0.0229887 0.0688959 0.156275 0.283435 0.422042 0.551843 0.666483 0.763228 0.836135 0.897324 0.939215 0.943855 0.957001 0.939919 0.941932 0.924675 0.908531 0.855967 0.74947 0.603457 0.435875 0.273549 0.143354 0.0608472 0.0212635 0.0065092 0.00183389 0.000487788 0.000123638 2.99568e-05 6.94718e-06 1.54323e-06 3.28598e-07 6.71171e-08 1.31583e-08 2.47827e-09 4.4992e-10 7.72552e-11 1.39347e-11 7.45912e-13 -1.1854e-13 3.76542e-13 -1.31239e-12 9.02214e-13 -8.71761e-13 -1.23536e-13 1.45006e-12 -1.1605e-12 4.50874e-13 4.02635e-13 -2.19465e-12 1.74254e-12 -3.45534e-14 -1.28061e-12 1.44869e-12 -1.22706e-12 1.53502e-12 4.55121e-13 -9.36738e-13 1.24089e-12 -1.71154e-12 1.73201e-12 -7.99912e-13 1.19165e-12 -1.0797e-12 1.65818e-14 1.13701e-13 -8.90524e-14 1.05019e-13 -1.68747e-12 -1.72807e-13 1.31077e-12 -2.19714e-13 -1.32144e-13 -6.95466e-13 -3.06175e-13 1.46528e-12 -1.37701e-12 1.25426e-12 5.1718e-13 -1.26723e-12 1.81058e-12 -1.56461e-12 1.36287e-12 -4.14327e-15 -1.13138e-12 1.18177e-12 -1.14862e-12 9.53719e-13 3.74613e-13 -2.01089e-12 7.20982e-13 -1.66757e-12 3.97765e-13 -7.80992e-14 -1.6598e-12 1.47391e-12 -1.65205e-12 1.78166e-12 5.65174e-13 -3.69994e-12 2.66069e-12 -4.37053e-13 -2.20215e-13 1.95479e-13 -2.92171e-12 3.30105e-12 -2.03082e-14 0 0 -1.77365e-14 -2.19183e-14 -5.10016e-15 -6.09245e-14 -1.19041e-13 -6.59079e-14 -4.64698e-14 -1.16345e-13 -5.43165e-14 -1.1073e-13 -1.867e-13 4.66763e-15 -8.87506e-14 -8.07025e-14 -6.04495e-14 7.43205e-14 2.58422e-14 2.92602e-15 -3.16233e-14 -3.37447e-14 -2.55118e-14 1.68833e-16 -9.41078e-14 -1.09402e-13 -2.8405e-14 -5.94375e-14 2.27558e-13 -1.17563e-13 -2.29924e-14 -2.03162e-13 -1.26202e-13 -2.33146e-14 -3.94756e-14 2.18089e-13 -1.85294e-13 -1.7489e-13 -7.34677e-14 4.12168e-14 -9.34984e-14 -5.65347e-14 -1.62257e-13 -4.38273e-14 -5.26758e-14 6.23259e-15 -3.20165e-13 -5.27775e-15 -1.94205e-13 5.08655e-14 -7.8567e-14 -2.07297e-13 -4.45004e-13 -1.56656e-13 8.00051e-13 2.50649e-13 -3.02947e-13 -2.85715e-13 -5.60711e-13 4.9025e-13 2.45658e-13 2.11389e-13 -1.32764e-13 -1.61825e-13 2.38788e-13 -1.75223e-13 4.74757e-14 -1.4156e-13 -1.4464e-14 -1.20298e-13 -2.07745e-14 -3.50203e-13 3.72901e-13 -2.9421e-13 2.83846e-13 -7.95948e-13 -1.92605e-13 -2.32723e-13 5.63116e-14 -6.66822e-14 -2.94208e-13 4.55445e-13 3.92439e-13 1.00953e-12 1.91298e-11 3.88766e-10 7.00535e-09 1.08747e-07 1.43454e-06 1.58092e-05 0.000142431 0.00102025 0.005617 0.0229887 0.0688959 0.156275 0.283435 0.422042 0.551843 0.666483 0.763228 0.836135 0.897324 0.939215 0.943855 0.957001 0.939919 0.941932 0.924675 0.908531 0.855967 0.74947 0.603457 0.435875 0.273549 0.143354 0.0608472 0.0212635 0.0065092 0.00183389 0.000487788 0.000123638 2.99568e-05 6.94718e-06 1.54323e-06 3.28599e-07 6.71164e-08 1.31592e-08 2.47846e-09 4.48116e-10 7.83174e-11 1.32308e-11 1.909e-12 -1.43954e-13 -9.31699e-13 -1.71116e-13 2.48985e-13 -5.25199e-13 -2.12181e-14 1.08663e-13 2.36964e-13 -1.61773e-13 -4.82336e-13 2.25882e-13 2.44247e-14 4.41604e-13 -5.48891e-13 1.38589e-14 2.4155e-13 1.10533e-13 3.98164e-13 2.16204e-13 1.51374e-13 -1.74542e-14 -5.60507e-13 4.07305e-13 3.39827e-13 1.60566e-13 -2.01089e-13 -1.02616e-12 2.38645e-15 4.36928e-13 2.64967e-13 -1.52856e-13 -1.15771e-12 2.39869e-14 3.58999e-13 -3.67784e-14 -1.18657e-14 -4.29926e-13 7.27791e-14 3.45777e-13 -4.79534e-13 6.59557e-13 5.71228e-13 4.80832e-13 -2.52809e-13 -1.22951e-12 5.7058e-13 5.84001e-13 7.30594e-13 -7.30675e-13 -1.23027e-12 1.95707e-13 -1.21266e-13 -5.9367e-13 -8.87985e-13 -1.10831e-12 5.49943e-13 1.12555e-12 -5.01388e-13 -1.06457e-12 -9.13366e-13 1.17998e-12 2.6493e-13 2.9262e-13 -1.18951e-12 -3.65879e-13 1.21514e-12 -5.17506e-13 -4.88092e-13 0 0 1.7602e-14 1.68982e-14 -6.47314e-14 -4.77275e-14 -8.00956e-14 -1.09469e-13 -5.9677e-14 -2.25449e-13 -1.24011e-13 -8.79975e-14 1.13246e-13 1.56748e-14 5.08654e-15 -2.89991e-13 -7.10596e-14 4.32543e-14 -1.4386e-13 1.49283e-13 -1.40383e-14 -1.16496e-13 -8.60511e-14 -4.55491e-14 7.88708e-14 -1.56816e-13 8.63556e-15 1.69059e-13 -3.11185e-13 -6.00234e-14 6.4575e-14 -9.48818e-14 -3.83011e-13 6.02707e-14 1.68891e-13 -1.8302e-13 1.10124e-13 3.78046e-13 -1.91279e-13 1.95111e-14 -2.33126e-13 -5.30857e-13 -1.6527e-13 -4.71174e-14 -1.29271e-13 3.52775e-13 8.3056e-14 3.66827e-13 -5.25957e-13 -2.80873e-13 -2.29743e-13 -3.82611e-14 8.27523e-14 -1.14172e-13 4.76375e-13 7.36233e-14 4.06316e-14 2.29258e-14 -7.87855e-13 3.8466e-13 -1.53676e-13 -7.55058e-14 -1.60547e-13 -2.92399e-13 -1.8409e-13 -8.79137e-14 1.9089e-13 2.11789e-13 -2.76021e-13 9.56303e-13 -8.63447e-14 -1.6432e-14 4.01238e-13 -3.41121e-13 1.09487e-13 -6.86926e-13 -1.09677e-13 -2.8311e-13 -1.09957e-12 -2.18546e-13 1.6252e-13 8.76906e-13 -1.33198e-13 3.55525e-13 1.98896e-11 3.88563e-10 7.00418e-09 1.08748e-07 1.43454e-06 1.58092e-05 0.000142431 0.00102025 0.005617 0.0229887 0.0688959 0.156275 0.283435 0.422042 0.551843 0.666483 0.763228 0.836135 0.897324 0.939215 0.943855 0.957001 0.939919 0.941932 0.924675 0.908531 0.855967 0.74947 0.603457 0.435875 0.273549 0.143354 0.0608472 0.0212635 0.0065092 0.00183389 0.000487788 0.000123638 2.99568e-05 6.94718e-06 1.54323e-06 3.28599e-07 6.71157e-08 1.31596e-08 2.47837e-09 4.48467e-10 7.87678e-11 1.22616e-11 2.07352e-12 -4.38523e-13 -3.84817e-13 6.94304e-13 -8.53846e-13 -2.46755e-13 -3.36207e-13 -4.96125e-13 1.25338e-12 -7.57827e-13 -8.18505e-13 1.3829e-12 -2.51451e-13 5.61852e-13 5.85857e-13 -1.62376e-12 7.30912e-13 7.3405e-14 1.1386e-12 7.60692e-13 -1.49646e-12 2.51516e-13 -4.89913e-13 7.44966e-13 -1.01215e-12 7.19789e-14 -1.35102e-13 2.34383e-14 -3.83833e-13 -9.85377e-13 3.45488e-13 -7.90244e-15 -2.89142e-13 3.19453e-13 -3.97511e-13 -7.29527e-13 -1.05156e-12 -1.8406e-13 1.54362e-12 2.14115e-13 -1.30852e-13 1.22983e-12 -1.25523e-12 1.07025e-12 -3.75634e-13 2.09915e-13 1.86756e-13 -5.91994e-13 1.25781e-14 5.88242e-13 -5.47861e-13 7.39562e-13 -1.7362e-12 -3.46213e-13 -9.51576e-13 -4.55978e-13 1.02912e-12 -2.23974e-13 1.25947e-12 -1.82418e-12 -6.65757e-13 1.76957e-12 -2.6379e-13 2.09333e-13 -2.50023e-13 -1.80419e-12 8.22586e-13 -1.41629e-13 1.55419e-12 0 0 1.33757e-14 1.15279e-14 -3.99911e-14 -1.19129e-13 -5.25082e-14 -6.9769e-14 -1.56123e-13 -1.99853e-13 -1.08539e-13 -2.34291e-14 1.18024e-13 3.38458e-14 -9.84149e-14 -6.70046e-14 1.95147e-14 -1.14956e-13 1.23716e-14 -1.92207e-13 3.44434e-14 -7.04413e-14 -1.38355e-13 -3.04161e-13 -9.56421e-14 3.05228e-14 -1.18601e-13 -2.34476e-13 -1.68058e-13 6.80648e-14 2.48128e-14 1.01056e-14 8.56048e-14 -9.3945e-14 3.15651e-13 5.71087e-14 2.98224e-13 -6.35302e-14 5.16411e-13 -6.19287e-13 -1.75861e-13 -3.65434e-13 -4.00794e-13 -2.2275e-13 7.62833e-14 7.24645e-15 2.16852e-13 -4.87792e-13 4.59091e-13 -5.0707e-13 -1.69561e-13 -4.81225e-13 -2.94519e-13 8.02147e-13 -1.0206e-12 7.50922e-13 5.13913e-13 -4.80765e-13 8.1846e-13 -1.12218e-12 1.47453e-13 -3.74185e-13 1.24529e-14 -1.03425e-13 -3.58564e-13 3.03504e-13 -1.54736e-13 1.85915e-13 5.47457e-13 -1.60763e-14 6.30392e-13 1.14368e-12 -1.10192e-12 2.7902e-13 -1.15274e-12 6.06993e-13 -1.03779e-12 -2.5326e-13 -4.47532e-13 -2.53273e-13 1.11643e-12 -1.06384e-12 4.75153e-13 1.25349e-12 1.77169e-11 3.88575e-10 7.00671e-09 1.08747e-07 1.43454e-06 1.58092e-05 0.000142431 0.00102025 0.005617 0.0229887 0.0688959 0.156275 0.283435 0.422042 0.551843 0.666483 0.763228 0.836135 0.897324 0.939215 0.943855 0.957001 0.939919 0.941932 0.924675 0.908531 0.855967 0.74947 0.603457 0.435875 0.273549 0.143354 0.0608472 0.0212635 0.0065092 0.00183389 0.000487788 0.000123638 2.99568e-05 6.94718e-06 1.54323e-06 3.28598e-07 6.71167e-08 1.31584e-08 2.47855e-09 4.49916e-10 7.73878e-11 1.33912e-11 6.28345e-13 9.74417e-14 4.21665e-13 -1.16509e-12 2.87602e-13 -9.93159e-13 -1.78938e-13 1.20232e-12 -8.13425e-13 1.83017e-13 2.26234e-13 -1.20637e-12 2.1331e-12 8.56516e-13 -7.69211e-13 6.915e-13 -1.2209e-12 1.55666e-12 1.19569e-12 -3.51386e-13 1.02831e-12 -2.09515e-12 1.19082e-12 -1.76291e-12 -2.63239e-13 -1.6005e-12 -2.33193e-13 8.14915e-13 -7.15999e-13 -1.02339e-12 -1.20866e-12 -3.02783e-13 2.02519e-12 -7.12102e-13 -7.60639e-13 -2.27969e-13 -3.2061e-13 1.38552e-12 -1.25032e-12 6.53501e-13 7.20235e-13 -1.32557e-12 7.57152e-13 -1.43095e-12 1.8365e-12 1.34831e-12 -8.9627e-13 3.04639e-13 -2.28029e-12 2.00696e-12 1.11255e-12 -1.20697e-12 -1.16339e-12 -2.09278e-12 1.94947e-13 5.69783e-13 -7.09419e-13 7.37673e-13 -8.71926e-13 1.94026e-12 7.51937e-13 -3.90576e-12 2.29223e-12 -2.55861e-13 3.74677e-13 -1.10364e-12 -2.73128e-12 3.78682e-12 1.43218e-12 0 0 4.88043e-16 -9.33134e-15 -3.30402e-14 -6.36752e-15 -2.5514e-13 -1.85647e-13 -1.25454e-13 -2.11818e-14 1.93954e-13 -4.69256e-14 -3.0113e-13 -1.48099e-13 5.64751e-14 -6.32171e-14 1.45605e-13 2.32734e-13 9.13614e-14 -1.29744e-13 -4.92753e-13 -1.74493e-13 -3.03035e-14 -5.67735e-14 -7.2805e-13 -3.0137e-13 -8.80891e-14 -1.96001e-13 6.33804e-13 -5.567e-13 3.24671e-14 -1.35881e-14 3.41116e-13 7.13258e-13 1.9142e-13 3.44842e-13 -2.58833e-13 2.38786e-13 -5.80259e-13 3.22823e-13 -4.23239e-13 -3.50922e-13 -6.54136e-13 8.96014e-14 -2.22115e-13 -1.59004e-13 -8.43824e-13 1.05686e-12 -1.12811e-12 5.73239e-13 -2.87098e-14 -3.36513e-13 -8.93616e-13 -6.37266e-13 1.39042e-12 4.56449e-14 -1.77822e-13 4.90617e-13 -1.094e-12 1.24598e-12 -9.0048e-13 1.3151e-13 -5.3687e-14 4.08449e-13 2.9533e-13 -8.02454e-13 -7.16435e-14 4.99655e-13 -6.51358e-14 8.99597e-13 -4.8308e-14 -3.19184e-13 1.46711e-12 -1.26775e-12 3.04994e-13 -1.87752e-12 -8.40421e-14 5.23063e-13 -9.61671e-14 8.60126e-13 -1.80428e-12 1.14739e-12 -8.00389e-13 4.36721e-13 1.97475e-11 3.88823e-10 7.00406e-09 1.08748e-07 1.43454e-06 1.58092e-05 0.000142431 0.00102025 0.005617 0.0229887 0.0688959 0.156275 0.283435 0.422042 0.551843 0.666483 0.763228 0.836135 0.897324 0.939215 0.943855 0.957001 0.939919 0.941932 0.924675 0.908531 0.855967 0.74947 0.603457 0.435875 0.273549 0.143354 0.0608472 0.0212635 0.0065092 0.00183389 0.000487788 0.000123638 2.99568e-05 6.94718e-06 1.54323e-06 3.286e-07 6.71152e-08 1.316e-08 2.47951e-09 4.46785e-10 7.87952e-11 1.2074e-11 2.93223e-12 8.54146e-13 -2.28896e-12 -6.04611e-13 -1.22551e-12 7.58761e-13 1.21793e-12 -1.18437e-12 3.7708e-13 -2.54686e-13 -4.90263e-13 2.43076e-12 -8.84312e-13 1.28461e-13 7.97219e-13 4.4244e-13 1.99532e-12 -1.31901e-12 -3.30933e-13 1.42851e-12 1.14268e-12 1.41705e-12 -3.27517e-12 -1.16431e-12 -1.98019e-12 8.55501e-13 -8.51486e-13 -1.29926e-12 -8.13015e-13 -8.31904e-13 2.07212e-12 -1.17892e-12 -1.05007e-12 -5.22212e-13 -3.23942e-13 2.74199e-12 1.91289e-12 -1.886e-12 -3.65864e-13 -2.27923e-12 -2.19893e-13 8.81681e-13 -1.13003e-12 1.62863e-12 -6.59834e-13 7.01413e-13 2.10061e-12 -1.46909e-12 1.14679e-12 -1.71736e-12 2.3701e-14 1.72157e-12 -2.93694e-12 -2.83352e-13 -2.2387e-12 -2.87606e-13 2.22763e-12 -8.16084e-13 1.01376e-12 3.22289e-13 -1.84485e-12 3.06719e-12 -3.00693e-12 -7.79409e-13 -3.09836e-13 -6.07005e-13 4.83973e-12 -3.06349e-12 2.65892e-13 0
				</DataArray>
				<DataArray Name="VitesseY" type="Float32" format="ascii">