<?xml version="1.0"?>
<VTKFile type="PolyData">
	<PolyData>
		<Piece NumberOfPoints="1206" NumberOfPolys="1000">
			<Points>
				<DataArray type="Float32" NumberOfComponents="3" format="ascii">
 0 0 0 0.005 0 0 0.01 0 0 0.015 0 0 0.02 0 0 0.025 0 0 0.03 0 0 0.035 0 0 0.04 0 0 0.045 0 0 0.05 0 0 0.055 0 0 0.06 0 0 0.065 0 0 0.07 0 0 0.075 0 0 0.08 0 0 0.085 0 0 0.09 0 0 0.095 0 0 0.1 0 0 0.105 0 0 0.11 0 0 0.115 0 0 0.12 0 0 0.125 0 0 0.13 0 0 0.135 0 0 0.14 0 0 0.145 0 0 0.15 0 0 0.155 0 0 0.16 0 0 0.165 0 0 0.17 0 0 0.175 0 0 0.18 0 0 0.185 0 0 0.19 0 0 0.195 0 0 0.2 0 0 0.205 0 0 0.21 0 0 0.215 0 0 0.22 0 0 0.225 0 0 0.23 0 0 0.235 0 0 0.24 0 0 0.245 0 0 0.25 0 0 0.255 0 0 0.26 0 0 0.265 0 0 0.27 0 0 0.275 0 0 0.28 0 0 0.285 0 0 0.29 0 0 0.295 0 0 0.3 0 0 0.305 0 0 0.31 0 0 0.315 0 0 0.32 0 0 0.325 0 0 0.33 0 0 0.335 0 0 0.34 0 0 0.345 0 0 0.35 0 0 0.355 0 0 0.36 0 0 0.365 0 0 0.37 0 0 0.375 0 0 0.38 0 0 0.385 0 0 0.39 0 0 0.395 0 0 0.4 0 0 0.405 0 0 0.41 0 0 0.415 0 0 0.42 0 0 0.425 0 0 0.43 0 0 0.435 0 0 0.44 0 0 0.445 0 0 0.45 0 0 0.455 0 0 0.46 0 0 0.465 0 0 0.47 0 0 0.475 0 0 0.48 0 0 0.485 0 0 0.49 0 0 0.495 0 0 0.5 0 0 0.505 0 0 0.51 0 0 0.515 0 0 0.52 0 0 0.525 0 0 0.53 0 0 0.535 0 0 0.54 0 0 0.545 0 0 0.55 0 0 0.555 0 0 0.56 0 0 0.565 0 0 0.57 0 0 0.575 0 0 0.58 0 0 0.585 0 0 0.59 0 0 0.595 0 0 0.6 0 0 0.605 0 0 0.61 0 0 0.615 0 0 0.62 0 0 0.625 0 0 0.63 0 0 0.635 0 0 0.64 0 0 0.645 0 0 0.65 0 0 0.655 0 0 0.66 0 0 0.665 0 0 0.67 0 0 0.675 0 0 0.68 0 0 0.685 0 0 0.69 0 0 0.695 0 0 0.7 0 0 0.705 0 0 0.71 0 0 0.715 0 0 0.72 0 0 0.725 0 0 0.73 0 0 0.735 0 0 0.74 0 0 0.745 0 0 0.75 0 0 0.755 0 0 0.76 0 0 0.765 0 0 0.77 0 0 0.775 0 0 0.78 0 0 0.785 0 0 0.79 0 0 0.795 0 0 0.8 0 0 0.805 0 0 0.81 0 0 0.815 0 0 0.82 0 0 0.825 0 0 0.83 0 0 0.835 0 0 0.84 0 0 0.845 0 0 0.85 0 0 0.855 0 0 0.86 0 0 0.865 0 0 0.87 0 0 0.875 0 0 0.88 0 0 0.885 0 0 0.89 0 0 0.895 0 0 0.9 0 0 0.905 0 0 0.91 0 0 0.915 0 0 0.92 0 0 0.925 0 0 0.93 0 0 0.935 0 0 0.94 0 0 0.945 0 0 0.95 0 0 0.955 0 0 0.96 0 0 0.965 0 0 0.97 0 0 0.975 0 0 0.98 0 0 0.985 0 0 0.99 0 0 0.995 0 0 1 0 0 0 0.02 0 0.005 0.02 0 0.01 0.02 0 0.015 0.02 0 0.02 0.02 0 0.025 0.02 0 0.03 0.02 0 0.035 0.02 0 0.04 0.02 0 0.045 0.02 0 0.05 0.02 0 0.055 0.02 0 0.06 0.02 0 0.065 0.02 0 0.07 0.02 0 0.075 0.02 0 0.08 0.02 0 0.085 0.02 0 0.09 0.02 0 0.095 0.02 0 0.1 0.02 0 0.105 0.02 0 0.11 0.02 0 0.115 0.02 0 0.12 0.02 0 0.125 0.02 0 0.13 0.02 0 0.135 0.02 0 0.14 0.02 0 0.145 0.02 0 0.15 0.02 0 0.155 0.02 0 0.16 0.02 0 0.165 0.02 0 0.17 0.02 0 0.175 0.02 0 0.18 0.02 0 0.185 0.02 0 0.19 0.02 0 0.195 0.02 0 0.2 0.02 0 0.205 0.02 0 0.21 0.02 0 0.215 0.02 0 0.22 0.02 0 0.225 0.02 0 0.23 0.02 0 0.235 0.02 0 0.24 0.02 0 0.245 0.02 0 0.25 0.02 0 0.255 0.02 0 0.26 0.02 0 0.265 0.02 0 0.27 0.02 0 0.275 0.02 0 0.28 0.02 0 0.285 0.02 0 0.29 0.02 0 0.295 0.02 0 0.3 0.02 0 0.305 0.02 0 0.31 0.02 0 0.315 0.02 0 0.32 0.02 0 0.325 0.02 0 0.33 0.02 0 0.335 0.02 0 0.34 0.02 0 0.345 0.02 0 0.35 0.02 0 0.355 0.02 0 0.36 0.02 0 0.365 0.02 0 0.37 0.02 0 0.375 0.02 0 0.38 0.02 0 0.385 0.02 0 0.39 0.02 0 0.395 0.02 0 0.4 0.02 0 0.405 0.02 0 0.41 0.02 0 0.415 0.02 0 0.42 0.02 0 0.425 0.02 0 0.43 0.02 0 0.435 0.02 0 0.44 0.02 0 0.445 0.02 0 0.45 0.02 0 0.455 0.02 0 0.46 0.02 0 0.465 0.02 0 0.47 0.02 0 0.475 0.02 0 0.48 0.02 0 0.485 0.02 0 0.49 0.02 0 0.495 0.02 0 0.5 0.02 0 0.505 0.02 0 0.51 0.02 0 0.515 0.02 0 0.52 0.02 0 0.525 0.02 0 0.53 0.02 0 0.535 0.02 0 0.54 0.02 0 0.545 0.02 0 0.55 0.02 0 0.555 0.02 0 0.56 0.02 0 0.565 0.02 0 0.57 0.02 0 0.575 0.02 0 0.58 0.02 0 0.585 0.02 0 0.59 0.02 0 0.595 0.02 0 0.6 0.02 0 0.605 0.02 0 0.61 0.02 0 0.615 0.02 0 0.62 0.02 0 0.625 0.02 0 0.63 0.02 0 0.635 0.02 0 0.64 0.02 0 0.645 0.02 0 0.65 0.02 0 0.655 0.02 0 0.66 0.02 0 0.665 0.02 0 0.67 0.02 0 0.675 0.02 0 0.68 0.02 0 0.685 0.02 0 0.69 0.02 0 0.695 0.02 0 0.7 0.02 0 0.705 0.02 0 0.71 0.02 0 0.715 0.02 0 0.72 0.02 0 0.725 0.02 0 0.73 0.02 0 0.735 0.02 0 0.74 0.02 0 0.745 0.02 0 0.75 0.02 0 0.755 0.02 0 0.76 0.02 0 0.765 0.02 0 0.77 0.02 0 0.775 0.02 0 0.78 0.02 0 0.785 0.02 0 0.79 0.02 0 0.795 0.02 0 0.8 0.02 0 0.805 0.02 0 0.81 0.02 0 0.815 0.02 0 0.82 0.02 0 0.825 0.02 0 0.83 0.02 0 0.835 0.02 0 0.84 0.02 0 0.845 0.02 0 0.85 0.02 0 0.855 0.02 0 0.86 0.02 0 0.865 0.02 0 0.87 0.02 0 0.875 0.02 0 0.88 0.02 0 0.885 0.02 0 0.89 0.02 0 0.895 0.02 0 0.9 0.02 0 0.905 0.02 0 0.91 0.02 0 0.915 0.02 0 0.92 0.02 0 0.925 0.02 0 0.93 0.02 0 0.935 0.02 0 0.94 0.02 0 0.945 0.02 0 0.95 0.02 0 0.955 0.02 0 0.96 0.02 0 0.965 0.02 0 0.97 0.02 0 0.975 0.02 0 0.98 0.02 0 0.985 0.02 0 0.99 0.02 0 0.995 0.02 0 1 0.02 0 0 0.04 0 0.005 0.04 0 0.01 0.04 0 0.015 0.04 0 0.02 0.04 0 0.025 0.04 0 0.03 0.04 0 0.035 0.04 0 0.04 0.04 0 0.045 0.04 0 0.05 0.04 0 0.055 0.04 0 0.06 0.04 0 0.065 0.04 0 0.07 0.04 0 0.075 0.04 0 0.08 0.04 0 0.085 0.04 0 0.09 0.04 0 0.095 0.04 0 0.1 0.04 0 0.105 0.04 0 0.11 0.04 0 0.115 0.04 0 0.12 0.04 0 0.125 0.04 0 0.13 0.04 0 0.135 0.04 0 0.14 0.04 0 0.145 0.04 0 0.15 0.04 0 0.155 0.04 0 0.16 0.04 0 0.165 0.04 0 0.17 0.04 0 0.175 0.04 0 0.18 0.04 0 0.185 0.04 0 0.19 0.04 0 0.195 0.04 0 0.2 0.04 0 0.205 0.04 0 0.21 0.04 0 0.215 0.04 0 0.22 0.04 0 0.225 0.04 0 0.23 0.04 0 0.235 0.04 0 0.24 0.04 0 0.245 0.04 0 0.25 0.04 0 0.255 0.04 0 0.26 0.04 0 0.265 0.04 0 0.27 0.04 0 0.275 0.04 0 0.28 0.04 0 0.285 0.04 0 0.29 0.04 0 0.295 0.04 0 0.3 0.04 0 0.305 0.04 0 0.31 0.04 0 0.315 0.04 0 0.32 0.04 0 0.325 0.04 0 0.33 0.04 0 0.335 0.04 0 0.34 0.04 0 0.345 0.04 0 0.35 0.04 0 0.355 0.04 0 0.36 0.04 0 0.365 0.04 0 0.37 0.04 0 0.375 0.04 0 0.38 0.04 0 0.385 0.04 0 0.39 0.04 0 0.395 0.04 0 0.4 0.04 0 0.405 0.04 0 0.41 0.04 0 0.415 0.04 0 0.42 0.04 0 0.425 0.04 0 0.43 0.04 0 0.435 0.04 0 0.44 0.04 0 0.445 0.04 0 0.45 0.04 0 0.455 0.04 0 0.46 0.04 0 0.465 0.04 0 0.47 0.04 0 0.475 0.04 0 0.48 0.04 0 0.485 0.04 0 0.49 0.04 0 0.495 0.04 0 0.5 0.04 0 0.505 0.04 0 0.51 0.04 0 0.515 0.04 0 0.52 0.04 0 0.525 0.04 0 0.53 0.04 0 0.535 0.04 0 0.54 0.04 0 0.545 0.04 0 0.55 0.04 0 0.555 0.04 0 0.56 0.04 0 0.565 0.04 0 0.57 0.04 0 0.575 0.04 0 0.58 0.04 0 0.585 0.04 0 0.59 0.04 0 0.595 0.04 0 0.6 0.04 0 0.605 0.04 0 0.61 0.04 0 0.615 0.04 0 0.62 0.04 0 0.625 0.04 0 0.63 0.04 0 0.635 0.04 0 0.64 0.04 0 0.645 0.04 0 0.65 0.04 0 0.655 0.04 0 0.66 0.04 0 0.665 0.04 0 0.67 0.04 0 0.675 0.04 0 0.68 0.04 0 0.685 0.04 0 0.69 0.04 0 0.695 0.04 0 0.7 0.04 0 0.705 0.04 0 0.71 0.04 0 0.715 0.04 0 0.72 0.04 0 0.725 0.04 0 0.73 0.04 0 0.735 0.04 0 0.74 0.04 0 0.745 0.04 0 0.75 0.04 0 0.755 0.04 0 0.76 0.04 0 0.765 0.04 0 0.77 0.04 0 0.775 0.04 0 0.78 0.04 0 0.785 0.04 0 0.79 0.04 0 0.795 0.04 0 0.8 0.04 0 0.805 0.04 0 0.81 0.04 0 0.815 0.04 0 0.82 0.04 0 0.825 0.04 0 0.83 0.04 0 0.835 0.04 0 0.84 0.04 0 0.845 0.04 0 0.85 0.04 0 0.855 0.04 0 0.86 0.04 0 0.865 0.04 0 0.87 0.04 0 0.875 0.04 0 0.88 0.04 0 0.885 0.04 0 0.89 0.04 0 0.895 0.04 0 0.9 0.04 0 0.905 0.04 0 0.91 0.04 0 0.915 0.04 0 0.92 0.04 0 0.925 0.04 0 0.93 0.04 0 0.935 0.04 0 0.94 0.04 0 0.945 0.04 0 0.95 0.04 0 0.955 0.04 0 0.96 0.04 0 0.965 0.04 0 0.97 0.04 0 0.975 0.04 0 0.98 0.04 0 0.985 0.04 0 0.99 0.04 0 0.995 0.04 0 1 0.04 0 0 0.06 0 0.005 0.06 0 0.01 0.06 0 0.015 0.06 0 0.02 0.06 0 0.025 0.06 0 0.03 0.06 0 0.035 0.06 0 0.04 0.06 0 0.045 0.06 0 0.05 0.06 0 0.055 0.06 0 0.06 0.06 0 0.065 0.06 0 0.07 0.06 0 0.075 0.06 0 0.08 0.06 0 0.085 0.06 0 0.09 0.06 0 0.095 0.06 0 0.1 0.06 0 0.105 0.06 0 0.11 0.06 0 0.115 0.06 0 0.12 0.06 0 0.125 0.06 0 0.13 0.06 0 0.135 0.06 0 0.14 0.06 0 0.145 0.06 0 0.15 0.06 0 0.155 0.06 0 0.16 0.06 0 0.165 0.06 0 0.17 0.06 0 0.175 0.06 0 0.18 0.06 0 0.185 0.06 0 0.19 0.06 0 0.195 0.06 0 0.2 0.06 0 0.205 0.06 0 0.21 0.06 0 0.215 0.06 0 0.22 0.06 0 0.225 0.06 0 0.23 0.06 0 0.235 0.06 0 0.24 0.06 0 0.245 0.06 0 0.25 0.06 0 0.255 0.06 0 0.26 0.06 0 0.265 0.06 0 0.27 0.06 0 0.275 0.06 0 0.28 0.06 0 0.285 0.06 0 0.29 0.06 0 0.295 0.06 0 0.3 0.06 0 0.305 0.06 0 0.31 0.06 0 0.315 0.06 0 0.32 0.06 0 0.325 0.06 0 0.33 0.06 0 0.335 0.06 0 0.34 0.06 0 0.345 0.06 0 0.35 0.06 0 0.355 0.06 0 0.36 0.06 0 0.365 0.06 0 0.37 0.06 0 0.375 0.06 0 0.38 0.06 0 0.385 0.06 0 0.39 0.06 0 0.395 0.06 0 0.4 0.06 0 0.405 0.06 0 0.41 0.06 0 0.415 0.06 0 0.42 0.06 0 0.425 0.06 0 0.43 0.06 0 0.435 0.06 0 0.44 0.06 0 0.445 0.06 0 0.45 0.06 0 0.455 0.06 0 0.46 0.06 0 0.465 0.06 0 0.47 0.06 0 0.475 0.06 0 0.48 0.06 0 0.485 0.06 0 0.49 0.06 0 0.495 0.06 0 0.5 0.06 0 0.505 0.06 0 0.51 0.06 0 0.515 0.06 0 0.52 0.06 0 0.525 0.06 0 0.53 0.06 0 0.535 0.06 0 0.54 0.06 0 0.545 0.06 0 0.55 0.06 0 0.555 0.06 0 0.56 0.06 0 0.565 0.06 0 0.57 0.06 0 0.575 0.06 0 0.58 0.06 0 0.585 0.06 0 0.59 0.06 0 0.595 0.06 0 0.6 0.06 0 0.605 0.06 0 0.61 0.06 0 0.615 0.06 0 0.62 0.06 0 0.625 0.06 0 0.63 0.06 0 0.635 0.06 0 0.64 0.06 0 0.645 0.06 0 0.65 0.06 0 0.655 0.06 0 0.66 0.06 0 0.665 0.06 0 0.67 0.06 0 0.675 0.06 0 0.68 0.06 0 0.685 0.06 0 0.69 0.06 0 0.695 0.06 0 0.7 0.06 0 0.705 0.06 0 0.71 0.06 0 0.715 0.06 0 0.72 0.06 0 0.725 0.06 0 0.73 0.06 0 0.735 0.06 0 0.74 0.06 0 0.745 0.06 0 0.75 0.06 0 0.755 0.06 0 0.76 0.06 0 0.765 0.06 0 0.77 0.06 0 0.775 0.06 0 0.78 0.06 0 0.785 0.06 0 0.79 0.06 0 0.795 0.06 0 0.8 0.06 0 0.805 0.06 0 0.81 0.06 0 0.815 0.06 0 0.82 0.06 0 0.825 0.06 0 0.83 0.06 0 0.835 0.06 0 0.84 0.06 0 0.845 0.06 0 0.85 0.06 0 0.855 0.06 0 0.86 0.06 0 0.865 0.06 0 0.87 0.06 0 0.875 0.06 0 0.88 0.06 0 0.885 0.06 0 0.89 0.06 0 0.895 0.06 0 0.9 0.06 0 0.905 0.06 0 0.91 0.06 0 0.915 0.06 0 0.92 0.06 0 0.925 0.06 0 0.93 0.06 0 0.935 0.06 0 0.94 0.06 0 0.945 0.06 0 0.95 0.06 0 0.955 0.06 0 0.96 0.06 0 0.965 0.06 0 0.97 0.06 0 0.975 0.06 0 0.98 0.06 0 0.985 0.06 0 0.99 0.06 0 0.995 0.06 0 1 0.06 0 0 0.08 0 0.005 0.08 0 0.01 0.08 0 0.015 0.08 0 0.02 0.08 0 0.025 0.08 0 0.03 0.08 0 0.035 0.08 0 0.04 0.08 0 0.045 0.08 0 0.05 0.08 0 0.055 0.08 0 0.06 0.08 0 0.065 0.08 0 0.07 0.08 0 0.075 0.08 0 0.08 0.08 0 0.085 0.08 0 0.09 0.08 0 0.095 0.08 0 0.1 0.08 0 0.105 0.08 0 0.11 0.08 0 0.115 0.08 0 0.12 0.08 0 0.125 0.08 0 0.13 0.08 0 0.135 0.08 0 0.14 0.08 0 0.145 0.08 0 0.15 0.08 0 0.155 0.08 0 0.16 0.08 0 0.165 0.08 0
[...]
			<PointData Scalars="VitesseX">
				<DataArray Name="VitesseX" type="Float32" format="ascii">
 0 -1.01114e-14 -1.12377e-14 -9.29967e-15 -1.11377e-13 4.73135e-15 -1.54018e-14 -7.91878e-14 -6.64573e-14 -8.84952e-14 -7.62955e-14 -4.07105e-14 -8.00022e-15 -1.50853e-13 3.98607e-14 -1.50839e-13 -2.15353e-13 7.49123e-15 -1.17686e-13 -9.0061e-14 -1.08549e-13 4.17127e-14 1.51418e-14 2.16408e-13 3.31019e-14 -3.28794e-14 -5.05319e-14 -1.98148e-13 -6.75444e-14 9.73632e-14 -1.69474e-13 5.68591e-14 -1.7798e-13 -3.83114e-13 2.41414e-13 -1.56835e-13 -2.10836e-13 1.35284e-13 -3.13699e-13 1.67006e-13 -2.82002e-13 -2.15113e-13 1.68482e-14 -4.75643e-14 -1.84567e-13 -3.44957e-13 -5.08148e-13 1.37259e-13 -9.40773e-15 -1.37714e-13 -4.26677e-13 2.01001e-13 1.05593e-13 -3.16333e-13 1.5734e-13 1.19584e-13 -4.34774e-13 3.42296e-13 -3.42546e-13 7.19862e-14 1.19434e-13 -6.11698e-14 -4.04039e-13 -5.81434e-14 2.79542e-13 -1.78575e-13 -3.97999e-13 3.10169e-13 -9.07693e-13 5.36339e-13 6.12592e-12 6.84073e-11 6.77285e-10 6.13198e-09 5.05909e-08 3.77853e-07 2.5369e-06 1.51848e-05 8.02188e-05 0.000369489 0.00146247 0.00489708 0.0136928 0.0318796 0.0624655 0.105162 0.156745 0.213446 0.272279 0.331548 0.390534 0.448953 0.506515 0.562919 0.617849 0.670953 0.721838 0.770098 0.815377 0.857487 0.89641 0.932234 0.945028 0.943587 0.941123 0.938766 0.936694 0.934282 0.932666 0.931921 0.932516 0.912365 0.944648 0.925016 0.925171 0.926567 0.928985 0.931476 0.934407 0.934637 0.933166 0.924897 0.89969 0.845234 0.756789 0.636214 0.49327 0.345243 0.212543 0.112758 0.0513777 0.0207285 0.00776885 0.00279176 0.000977789 0.000335866 0.000113344 3.75812e-05 1.22373e-05 3.91114e-06 1.22631e-06 3.77043e-07 1.13641e-07 3.3568e-08 9.71634e-09 2.75523e-09 7.64854e-10 2.08427e-10 5.56784e-11 1.4772e-11 2.84032e-12 5.45296e-13 6.7074e-14 4.36003e-13 -1.52564e-13 -5.01468e-13 -6.70899e-13 2.4423e-13 2.86446e-13 3.68183e-13 -8.31426e-13 -1.07739e-12 -2.32461e-13 7.63982e-13 -1.9678e-13 -3.54868e-13 -6.99083e-13 7.54395e-13 4.58719e-13 -3.89242e-13 1.91194e-13 4.51635e-13 -8.17201e-13 8.39381e-13 -1.20975e-12 9.34232e-13 -3.30676e-13 -4.62276e-13 -3.17285e-13 -5.74825e-13 5.19214e-13 8.31302e-13 -7.38905e-13 2.32264e-13 -2.49379e-13 -3.05182e-14 4.91298e-13 -8.64096e-13 -6.77779e-13 -8.46119e-13 4.82611e-13 -4.45708e-13 -6.18391e-13 -6.69232e-13 5.67103e-13 -2.71835e-13 -1.53492e-12 -2.23366e-13 5.03356e-13 1.21933e-12 0 0 -4.61278e-15 -2.04523e-14 -4.29597e-14 1.7115e-14 -1.1159e-13 -8.18162e-14 -3.04687e-14 -4.9206e-14 2.02541e-14 -6.77392e-14 -6.96825e-14 -7.2005e-14 1.20333e-14 -2.15275e-13 -4.30159e-14 2.88069e-14 -2.29254e-13 -6.49085e-14 -7.18216e-14 -5.65814e-14 6.25059e-15 3.02859e-14 -1.50335e-13 8.83721e-14 4.85822e-14 -1.62992e-13 -4.25494e-15 -8.81943e-14 -1.16495e-13 5.93102e-14 -1.24214e-13 -1.14244e-13 4.56182e-14 -4.82858e-13 6.14058e-14 1.82936e-13 -2.20015e-13 1.2756e-13 -3.6755e-13 -1.41558e-13 -2.09488e-13 -8.96449e-14 -2.16051e-13 -2.48781e-13 -1.61129e-13 6.67503e-14 -4.22087e-13 -1.2277e-14 2.57251e-13 3.55758e-13 -3.30023e-13 2.90042e-13 7.40708e-14 -2.66575e-13 -3.73487e-13 1.1972e-13 -6.1278e-13 3.41561e-13 -1.23136e-13 -1.68952e-13 -1.50192e-13 4.61468e-14 1.08452e-13 -1.59867e-13 -8.0067e-14 -8.96051e-14 -4.23443e-13 3.90689e-13 1.91579e-13 6.39037e-12 6.8728e-11 6.77356e-10 6.13178e-09 5.05916e-08 3.77852e-07 2.5369e-06 1.51848e-05 8.02188e-05 0.000369489 0.00146247 0.00489708 0.0136928 0.0318796 0.0624655 0.105162 0.156745 0.213446 0.272279 0.331548 0.390534 0.448953 0.506515 0.562919 0.617849 0.670953 0.721838 0.770098 0.815377 0.857487 0.89641 0.932234 0.945028 0.943587 0.941123 0.938766 0.936694 0.934282 0.932666 0.931921 0.932516 0.912365 0.944648 0.925016 0.925171 0.926567 0.928985 0.931476 0.934407 0.934637 0.933166 0.924897 0.89969 0.845234 0.756789 0.636214 0.49327 0.345243 0.212543 0.112758 0.0513777 0.0207285 0.00776885 0.00279176 0.000977789 0.000335866 0.000113344 3.75812e-05 1.22373e-05 3.91114e-06 1.22631e-06 3.77043e-07 1.13641e-07 3.35679e-08 9.71563e-09 2.7555e-09 7.66134e-10 2.08309e-10 5.49848e-11 1.39495e-11 4.0675e-12 6.37133e-13 -2.31438e-13 -2.06545e-13 -5.40768e-13 7.64412e-14 2.45505e-13 -5.15482e-13 -2.73721e-13 -6.32368e-13 -4.17231e-14 2.68738e-13 -1.77942e-13 -1.06178e-12 -2.66259e-13 -2.20087e-13 5.87463e-13 -6.95399e-14 3.33424e-13 -2.58888e-13 1.60351e-13 -4.05148e-13 9.67892e-13 -7.86242e-13 8.34348e-13 -9.7209e-13 3.21214e-14 -3.94801e-13 -7.21184e-15 2.40871e-13 -4.35121e-13 -1.29584e-13 4.85081e-13 -2.81929e-13 -5.83584e-14 2.44052e-13 -4.26785e-13 2.38733e-13 -3.20375e-13 2.12393e-13 -9.60146e-13 -2.86845e-13 3.21275e-13 -4.50136e-14 -1.71389e-12 -2.04652e-13 7.39684e-13 5.17104e-13 -7.43965e-13 -9.47856e-13 0 0 -2.77275e-14 -1.49535e-14 -1.6786e-14 -6.50426e-14 -2.28968e-14 -2.44157e-14 -8.75819e-14 -1.13428e-14 -6.06612e-14 -1.22768e-14 1.191e-14 2.33409e-15 -1.35698e-13 -1.408e-13 1.18108e-15 -8.56328e-14 -5.62296e-14 -8.76657e-14 -1.2589e-13 -1.62739e-13 -9.13849e-14 -7.31994e-14 -1.95275e-14 -3.3531e-14 3.6791e-14 -6.00885e-14 -1.58819e-13 -9.90589e-14 -6.3615e-14 -1.10905e-13 5.80191e-14 -2.32797e-13 -9.68035e-14 5.83786e-14 -1.70669e-13 3.32851e-14 -5.53601e-14 -3.06499e-13 9.03919e-14 -1.77931e-13 -1.78859e-13 -1.41637e-13 -1.18547e-13 -1.58319e-13 -2.75103e-13 -9.27632e-14 -1.46254e-13 1.68278e-13 2.04625e-13 9.58159e-14 4.79018e-14 1.0592e-14 -8.56455e-14 -1.91138e-14 -1.0272e-14 -4.81077e-13 3.07313e-14 -3.58726e-13 1.78036e-13 -2.83796e-13 -2.3168e-13 1.2436e-14 -1.60751e-14 7.74447e-14 -1.1991e-13 -6.07385e-14 4.31651e-13 -5.94382e-14 7.45716e-13 6.46899e-12 6.85699e-11 6.77498e-10 6.13243e-09 5.05914e-08 3.77852e-07 2.5369e-06 1.51848e-05 8.02188e-05 0.000369489 0.00146247 0.00489708 0.0136928 0.0318796 0.0624655 0.105162 0.156745 0.213446 0.272279 0.331548 0.390534 0.448953 0.506515 0.562919 0.617849 0.670953 0.721838 0.770098 0.815377 0.857487 0.89641 0.932234 0.945028 0.943587 0.941123 0.938766 0.936694 0.934282 0.932666 0.931921 0.932516 0.912365 0.944648 0.925016 0.925171 0.926567 0.928985 0.931476 0.934407 0.934637 0.933166 0.924897 0.89969 0.845234 0.756789 0.636214 0.49327 0.345243 0.212543 0.112758 0.0513777 0.0207285 0.00776885 0.00279176 0.000977789 0.000335866 0.000113344 3.75812e-05 1.22373e-05 3.91114e-06 1.22631e-06 3.77043e-07 1.13641e-07 3.35679e-08 9.71631e-09 2.75542e-09 7.65364e-10 2.08353e-10 5.54996e-11 1.43255e-11 3.29313e-12 4.89847e-13 -1.90376e-13 -5.52803e-13 -4.58107e-13 2.98755e-13 -2.55023e-13 -4.16295e-13 -1.60957e-13 -3.54365e-13 -4.96656e-13 -3.21631e-13 -2.82852e-13 2.01624e-13 -6.09536e-13 1.54719e-13 -1.94137e-13 -6.57019e-13 2.16648e-13 4.55236e-13 2.41208e-13 2.31431e-13 -2.85079e-13 1.94999e-13 -3.87188e-13 -1.67019e-13 -2.55148e-13 -1.71243e-13 -1.98979e-13 -9.82368e-14 2.51162e-13 -6.71662e-13 6.67677e-13 -4.70046e-13 4.49945e-13 -3.18209e-13 3.24104e-14 2.55405e-13 -4.30618e-14 4.41581e-14 4.64207e-13 -5.49593e-13 -7.52424e-13 -5.39801e-13 4.52632e-13 -2.14729e-13 4.01195e-14 3.45416e-13 -7.37088e-14 -1.28804e-13 0 0 -1.33581e-14 -1.77587e-14 -2.39784e-14 -8.19098e-14 -4.00442e-14 2.38781e-16 4.83356e-14 1.47497e-15 -2.92469e-14 -1.10691e-14 -1.40129e-14 -8.89386e-14 -1.37735e-13 1.65878e-14 -8.83747e-14 -1.74413e-13 -1.11585e-13 -1.68877e-13 -1.96922e-13 -2.67911e-13 -1.85847e-14 3.11769e-15 -1.58978e-14 9.14555e-14 -1.42351e-13 -5.81455e-14 -1.36858e-13 -1.90199e-13 6.17426e-14 9.03045e-15 1.98012e-14 -7.1222e-14 -3.03885e-13 9.13704e-14 -1.34235e-13 1.05106e-13 5.10291e-14 -2.15184e-13 -7.49572e-14 -1.92989e-13 -3.09668e-13 -1.61728e-13 8.08235e-14 -2.45116e-14 -1.03401e-13 -2.23147e-13 4.99917e-15 1.13512e-13 -3.21158e-13 3.11002e-14 -1.55306e-13 -3.86171e-13 2.45843e-13 2.0079e-13 -1.12763e-13 -2.23025e-13 1.6508e-13 -4.45763e-13 -4.09792e-13 9.43089e-14 8.24994e-14 -1.17505e-13 1.05535e-13 1.29404e-13 -1.67216e-13 -3.01736e-13 1.25042e-13 4.12704e-14 9.96283e-13 6.78349e-12 6.84582e-11 6.77243e-10 6.13261e-09 5.05912e-08 3.77853e-07 2.5369e-06 1.51848e-05 8.02188e-05 0.000369489 0.00146247 0.00489708 0.0136928 0.0318796 0.0624655 0.105162 0.156745 0.213446 0.272279 0.331548 0.390534 0.448953 0.506515 0.562919 0.617849 0.670953 0.721838 0.770098 0.815377 0.857487 0.89641 0.932234 0.945028 0.943587 0.941123 0.938766 0.936694 0.934282 0.932666 0.931921 0.932516 0.912365 0.944648 0.925016 0.925171 0.926567 0.928985 0.931476 0.934407 0.934637 0.933166 0.924897 0.89969 0.845234 0.756789 0.636214 0.49327 0.345243 0.212543 0.112758 0.0513777 0.0207285 0.00776885 0.00279176 0.000977789 0.000335866 0.000113344 3.75812e-05 1.22373e-05 3.91114e-06 1.22631e-06 3.77043e-07 1.13641e-07 3.3568e-08 9.7162e-09 2.75514e-09 7.6529e-10 2.08224e-10 5.55367e-11 1.43516e-11 3.20228e-12 1.22783e-13 -3.39158e-13 5.42759e-14 -2.77351e-13 -6.59076e-13 1.3513e-13 1.81786e-14 4.4105e-13 -1.25646e-13 -1.23696e-13 -4.77996e-13 -5.7575e-13 -3.10083e-14 3.18444e-15 -2.64469e-13 -7.1791e-13 4.70097e-13 -8.43335e-14 2.01944e-13 -2.83164e-13 -2.63067e-13 -6.57197e-13 4.29203e-13 -1.93946e-13 2.74442e-13 -7.33479e-13 -4.43231e-13 -2.91874e-13 -6.47635e-13 6.5015e-13 2.26162e-13 -4.61712e-13 -2.96478e-13 8.2823e-13 -1.41278e-13 3.26195e-13 2.89494e-13 -1.9064e-13 -8.17168e-13 -3.56908e-13 2.55852e-13 -2.43396e-13 -4.1311e-13 3.17902e-13 1.12851e-13 -1.08953e-12 -2.35366e-13 4.3452e-13 1.122e-12 0 0 -7.5244e-16 -3.01561e-14 -4.84094e-14 2.65235e-14 -9.85809e-14 -1.2459e-14 9.42599e-14 8.06566e-15 9.97017e-14 -8.00081e-14 -7.82236e-14 -1.19559e-13 5.0383e-14 -1.53649e-13 -1.52069e-13 -4.00301e-14 -2.90616e-13 -1.79202e-13 -1.5129e-13 -1.55553e-13 -3.68723e-14 -3.82953e-14 -2.15377e-13 6.22907e-14 -1.28087e-13 -7.21738e-14 2.02501e-14 -1.01445e-13 -1.05031e-14 4.61114e-14 -1.69134e-13 1.03699e-13 3.94841e-14 -4.24321e-13 1.82346e-13 2.12377e-13 -2.85668e-14 1.92181e-13 -6.41274e-13 -2.23607e-13 -4.25278e-13 -1.26578e-13 -8.37772e-14 -1.67284e-13 6.23107e-14 9.33424e-14 -2.96046e-13 -1.29542e-14 -1.53885e-13 4.13738e-13 -3.52428e-13 -9.81655e-14 8.24218e-14 -3.50449e-13 -4.81e-13 2.65635e-13 -7.14451e-13 2.38803e-13 -3.84052e-13 -3.54451e-14 2.35553e-13 1.26275e-13 1.96343e-13 -1.86097e-13 -4.99044e-14 -8.15214e-14 -7.20571e-13 3.85174e-13 6.05724e-13 7.05055e-12 6.8853e-11 6.7714e-10 6.13254e-09 5.05915e-08 3.77853e-07 2.5369e-06 1.51848e-05 8.02188e-05 0.000369489 0.00146247 0.00489708 0.0136928 0.0318796 0.0624655 0.105162 0.156745 0.213446 0.272279 0.331548 0.390534 0.448953 0.506515 0.562919 0.617849 0.670953 0.721838 0.770098 0.815377 0.857487 0.89641 0.932234 0.945028 0.943587 0.941123 0.938766 0.936694 0.934282 0.932666 0.931921 0.932516 0.912365 0.944648 0.925016 0.925171 0.926567 0.928985 0.931476 0.934407 0.934637 0.933166 0.924897 0.89969 0.845234 0.756789 0.636214 0.49327 0.345243 0.212543 0.112758 0.0513777 0.0207285 0.00776885 0.00279176 0.000977789 0.000335866 0.000113344 3.75812e-05 1.22373e-05 3.91114e-06 1.22631e-06 3.77044e-07 1.13641e-07 3.35682e-08 9.71525e-09 2.75519e-09 7.66014e-10 2.07984e-10 5.50768e-11 1.40952e-11 3.61493e-12 5.78372e-13 -5.37316e-13 -3.47228e-13 -4.73448e-13 -2.44064e-13 5.69012e-13 5.04472e-13 5.49925e-14 -3.37549e-13 4.54553e-13 9.05016e-15 -5.37677e-13 -1.03245e-12 9.88453e-14 -2.35526e-13 -1.87509e-13 4.07473e-13 -2.75392e-13 -4.30154e-13 3.88616e-13 -1.00045e-12 5.16012e-13 -9.19146e-13 5.60825e-13 -1.1164e-12 -4.09378e-13 -6.65478e-13 -1.43239e-13 1.20363e-13 -2.60011e-13 2.3039e-13 -1.8762e-13 4.57938e-13 9.3575e-14 5.46632e-13 -5.02641e-13 3.20372e-13 -8.95726e-14 -1.86186e-13 -1.18263e-12 2.93665e-13 3.50995e-13 1.39448e-14 -1.25721e-12 -2.00169e-13 5.22127e-13 2.38653e-13 1.11924e-13 -1.141e-13 0 0 -3.11296e-14 -2.5035e-14 -5.81438e-15 -5.88255e-14 6.50441e-14 7.40037e-14 -1.01566e-13 2.24506e-14 7.57138e-15 -1.03249e-13 -5.94712e-15 7.94366e-14 -7.00785e-14 -1.51662e-13 -1.89834e-13 -1.75467e-13 -4.52389e-15 -1.8385e-13 -1.06936e-13 -9.61489e-14 -1.90133e-13 -2.74655e-13 7.90651e-14 -2.69034e-13 -2.79339e-14 1.27219e-13 -1.93059e-13 8.82343e-14 5.86314e-14 -4.35742e-13 4.34538e-14 -6.52448e-14 1.87809e-14 2.92506e-13 1.21785e-14 -2.95594e-13 3.05403e-13 -3.67087e-13 -4.9742e-14 -4.15983e-13 -3.85078e-13 -1.6837e-14 -1.81758e-13 -2.89188e-13 -2.41484e-13 -1.94197e-13 8.6834e-14 9.87685e-14 9.15795e-14 -1.81285e-13 5.62605e-13 1.22702e-13 -9.62609e-13 -4.50217e-13 1.09541e-13 -6.59048e-13 -1.29744e-13 -3.73986e-13 7.2581e-13 -3.69763e-13 8.19605e-14 1.6099e-14 -1.25584e-13 1.23162e-13 -2.36369e-14 1.00163e-13 3.29132e-13 -1.12014e-12 8.63493e-13 6.81728e-12 6.88806e-11 6.77362e-10 6.13314e-09 5.05912e-08 3.77853e-07 2.5369e-06 1.51848e-05 8.02188e-05 0.000369489 0.00146247 0.00489708 0.0136928 0.0318796 0.0624655 0.105162 0.156745 0.213446 0.272279 0.331548 0.390534 0.448953 0.506515 0.562919 0.617849 0.670953 0.721838 0.770098 0.815377 0.857487 0.89641 0.932234 0.945028 0.943587 0.941123 0.938766 0.936694 0.934282 0.932666 0.931921 0.932516 0.912365 0.944648 0.925016 0.925171 0.926567 0.928985 0.931476 0.934407 0.934637 0.933166 0.924897 0.89969 0.845234 0.756789 0.636214 0.49327 0.345243 0.212543 0.112758 0.0513777 0.0207285 0.00776885 0.00279176 0.000977789 0.000335866 0.000113344 3.75812e-05 1.22373e-05 3.91114e-06 1.22631e-06 3.77043e-07 1.13641e-07 3.35685e-08 9.7158e-09 2.75517e-09 7.64762e-10 2.08036e-10 5.57881e-11 1.50112e-11 2.11689e-12 1.1619e-12 -2.47119e-13 -1.05952e-12 -3.79439e-13 7.73182e-13 -8.0419e-13 1.41519e-12 -2.60141e-13 5.00384e-13 -5.84793e-13 -1.28403e-12 -3.66135e-13 1.2879e-12 -6.92012e-13 4.52629e-13 -1.20148e-12 -5.45812e-13 -1.5695e-13 -2.2519e-13 1.69647e-12 2.50027e-13 -9.76724e-13 1.05165e-13 -2.14327e-12 -2.37317e-13 -2.57012e-13 -4.59654e-13 -4.03551e-13 2.82955e-13 7.14569e-14 -2.44397e-13 1.74471e-13 1.36486e-12 -7.02083e-13 2.20779e-13 -2.47981e-13 -7.68995e-13 7.89819e-14 7.93767e-14 1.67987e-12 -8.95577e-13 -1.57701e-12 -8.04699e-13 1.74991e-12 -9.18028e-13 2.89263e-13 3.81293e-13 1.19868e-12 3.85233e-13 0
				</DataArray>
				<DataArray Name="VitesseY" type="Float32" format="ascii">