<?xml version="1.0"?>
<VTKFile type="PolyData">
	<PolyData>
		<Piece NumberOfPoints="1206" NumberOfPolys="1000">
			<Points>
				<DataArray type="Float32" NumberOfComponents="3" format="ascii">
 0 0 0 0.005 0 0 0.01 0 0 0.015 0 0 0.02 0 0 0.025 0 0 0.03 0 0 0.035 0 0 0.04 0 0 0.045 0 0 0.05 0 0 0.055 0 0 0.06 0 0 0.065 0 0 0.07 0 0 0.075 0 0 0.08 0 0 0.085 0 0 0.09 0 0 0.095 0 0 0.1 0 0 0.105 0 0 0.11 0 0 0.115 0 0 0.12 0 0 0.125 0 0 0.13 0 0 0.135 0 0 0.14 0 0 0.145 0 0 0.15 0 0 0.155 0 0 0.16 0 0 0.165 0 0 0.17 0 0 0.175 0 0 0.18 0 0 0.185 0 0 0.19 0 0 0.195 0 0 0.2 0 0 0.205 0 0 0.21 0 0 0.215 0 0 0.22 0 0 0.225 0 0 0.23 0 0 0.235 0 0 0.24 0 0 0.245 0 0 0.25 0 0 0.255 0 0 0.26 0 0 0.265 0 0 0.27 0 0 0.275 0 0 0.28 0 0 0.285 0 0 0.29 0 0 0.295 0 0 0.3 0 0 0.305 0 0 0.31 0 0 0.315 0 0 0.32 0 0 0.325 0 0 0.33 0 0 0.335 0 0 0.34 0 0 0.345 0 0 0.35 0 0 0.355 0 0 0.36 0 0 0.365 0 0 0.37 0 0 0.375 0 0 0.38 0 0 0.385 0 0 0.39 0 0 0.395 0 0 0.4 0 0 0.405 0 0 0.41 0 0 0.415 0 0 0.42 0 0 0.425 0 0 0.43 0 0 0.435 0 0 0.44 0 0 0.445 0 0 0.45 0 0 0.455 0 0 0.46 0 0 0.465 0 0 0.47 0 0 0.475 0 0 0.48 0 0 0.485 0 0 0.49 0 0 0.495 0 0 0.5 0 0 0.505 0 0 0.51 0 0 0.515 0 0 0.52 0 0 0.525 0 0 0.53 0 0 0.535 0 0 0.54 0 0 0.545 0 0 0.55 0 0 0.555 0 0 0.56 0 0 0.565 0 0 0.57 0 0 0.575 0 0 0.58 0 0 0.585 0 0 0.59 0 0 0.595 0 0 0.6 0 0 0.605 0 0 0.61 0 0 0.615 0 0 0.62 0 0 0.625 0 0 0.63 0 0 0.635 0 0 0.64 0 0 0.645 0 0 0.65 0 0 0.655 0 0 0.66 0 0 0.665 0 0 0.67 0 0 0.675 0 0 0.68 0 0 0.685 0 0 0.69 0 0 0.695 0 0 0.7 0 0 0.705 0 0 0.71 0 0 0.715 0 0 0.72 0 0 0.725 0 0 0.73 0 0 0.735 0 0 0.74 0 0 0.745 0 0 0.75 0 0 0.755 0 0 0.76 0 0 0.765 0 0 0.77 0 0 0.775 0 0 0.78 0 0 0.785 0 0 0.79 0 0 0.795 0 0 0.8 0 0 0.805 0 0 0.81 0 0 0.815 0 0 0.82 0 0 0.825 0 0 0.83 0 0 0.835 0 0 0.84 0 0 0.845 0 0 0.85 0 0 0.855 0 0 0.86 0 0 0.865 0 0 0.87 0 0 0.875 0 0 0.88 0 0 0.885 0 0 0.89 0 0 0.895 0 0 0.9 0 0 0.905 0 0 0.91 0 0 0.915 0 0 0.92 0 0 0.925 0 0 0.93 0 0 0.935 0 0 0.94 0 0 0.945 0 0 0.95 0 0 0.955 0 0 0.96 0 0 0.965 0 0 0.97 0 0 0.975 0 0 0.98 0 0 0.985 0 0 0.99 0 0 0.995 0 0 1 0 0 0 0.02 0 0.005 0.02 0 0.01 0.02 0 0.015 0.02 0 0.02 0.02 0 0.025 0.02 0 0.03 0.02 0 0.035 0.02 0 0.04 0.02 0 0.045 0.02 0 0.05 0.02 0 0.055 0.02 0 0.06 0.02 0 0.065 0.02 0 0.07 0.02 0 0.075 0.02 0 0.08 0.02 0 0.085 0.02 0 0.09 0.02 0 0.095 0.02 0 0.1 0.02 0 0.105 0.02 0 0.11 0.02 0 0.115 0.02 0 0.12 0.02 0 0.125 0.02 0 0.13 0.02 0 0.135 0.02 0 0.14 0.02 0 0.145 0.02 0 0.15 0.02 0 0.155 0.02 0 0.16 0.02 0 0.165 0.02 0 0.17 0.02 0 0.175 0.02 0 0.18 0.02 0 0.185 0.02 0 0.19 0.02 0 0.195 0.02 0 0.2 0.02 0 0.205 0.02 0 0.21 0.02 0 0.215 0.02 0 0.22 0.02 0 0.225 0.02 0 0.23 0.02 0 0.235 0.02 0 0.24 0.02 0 0.245 0.02 0 0.25 0.02 0 0.255 0.02 0 0.26 0.02 0 0.265 0.02 0 0.27 0.02 0 0.275 0.02 0 0.28 0.02 0 0.285 0.02 0 0.29 0.02 0 0.295 0.02 0 0.3 0.02 0 0.305 0.02 0 0.31 0.02 0 0.315 0.02 0 0.32 0.02 0 0.325 0.02 0 0.33 0.02 0 0.335 0.02 0 0.34 0.02 0 0.345 0.02 0 0.35 0.02 0 0.355 0.02 0 0.36 0.02 0 0.365 0.02 0 0.37 0.02 0 0.375 0.02 0 0.38 0.02 0 0.385 0.02 0 0.39 0.02 0 0.395 0.02 0 0.4 0.02 0 0.405 0.02 0 0.41 0.02 0 0.415 0.02 0 0.42 0.02 0 0.425 0.02 0 0.43 0.02 0 0.435 0.02 0 0.44 0.02 0 0.445 0.02 0 0.45 0.02 0 0.455 0.02 0 0.46 0.02 0 0.465 0.02 0 0.47 0.02 0 0.475 0.02 0 0.48 0.02 0 0.485 0.02 0 0.49 0.02 0 0.495 0.02 0 0.5 0.02 0 0.505 0.02 0 0.51 0.02 0 0.515 0.02 0 0.52 0.02 0 0.525 0.02 0 0.53 0.02 0 0.535 0.02 0 0.54 0.02 0 0.545 0.02 0 0.55 0.02 0 0.555 0.02 0 0.56 0.02 0 0.565 0.02 0 0.57 0.02 0 0.575 0.02 0 0.58 0.02 0 0.585 0.02 0 0.59 0.02 0 0.595 0.02 0 0.6 0.02 0 0.605 0.02 0 0.61 0.02 0 0.615 0.02 0 0.62 0.02 0 0.625 0.02 0 0.63 0.02 0 0.635 0.02 0 0.64 0.02 0 0.645 0.02 0 0.65 0.02 0 0.655 0.02 0 0.66 0.02 0 0.665 0.02 0 0.67 0.02 0 0.675 0.02 0 0.68 0.02 0 0.685 0.02 0 0.69 0.02 0 0.695 0.02 0 0.7 0.02 0 0.705 0.02 0 0.71 0.02 0 0.715 0.02 0 0.72 0.02 0 0.725 0.02 0 0.73 0.02 0 0.735 0.02 0 0.74 0.02 0 0.745 0.02 0 0.75 0.02 0 0.755 0.02 0 0.76 0.02 0 0.765 0.02 0 0.77 0.02 0 0.775 0.02 0 0.78 0.02 0 0.785 0.02 0 0.79 0.02 0 0.795 0.02 0 0.8 0.02 0 0.805 0.02 0 0.81 0.02 0 0.815 0.02 0 0.82 0.02 0 0.825 0.02 0 0.83 0.02 0 0.835 0.02 0 0.84 0.02 0 0.845 0.02 0 0.85 0.02 0 0.855 0.02 0 0.86 0.02 0 0.865 0.02 0 0.87 0.02 0 0.875 0.02 0 0.88 0.02 0 0.885 0.02 0 0.89 0.02 0 0.895 0.02 0 0.9 0.02 0 0.905 0.02 0 0.91 0.02 0 0.915 0.02 0 0.92 0.02 0 0.925 0.02 0 0.93 0.02 0 0.935 0.02 0 0.94 0.02 0 0.945 0.02 0 0.95 0.02 0 0.955 0.02 0 0.96 0.02 0 0.965 0.02 0 0.97 0.02 0 0.975 0.02 0 0.98 0.02 0 0.985 0.02 0 0.99 0.02 0 0.995 0.02 0 1 0.02 0 0 0.04 0 0.005 0.04 0 0.01 0.04 0 0.015 0.04 0 0.02 0.04 0 0.025 0.04 0 0.03 0.04 0 0.035 0.04 0 0.04 0.04 0 0.045 0.04 0 0.05 0.04 0 0.055 0.04 0 0.06 0.04 0 0.065 0.04 0 0.07 0.04 0 0.075 0.04 0 0.08 0.04 0 0.085 0.04 0 0.09 0.04 0 0.095 0.04 0 0.1 0.04 0 0.105 0.04 0 0.11 0.04 0 0.115 0.04 0 0.12 0.04 0 0.125 0.04 0 0.13 0.04 0 0.135 0.04 0 0.14 0.04 0 0.145 0.04 0 0.15 0.04 0 0.155 0.04 0 0.16 0.04 0 0.165 0.04 0 0.17 0.04 0 0.175 0.04 0 0.18 0.04 0 0.185 0.04 0 0.19 0.04 0 0.195 0.04 0 0.2 0.04 0 0.205 0.04 0 0.21 0.04 0 0.215 0.04 0 0.22 0.04 0 0.225 0.04 0 0.23 0.04 0 0.235 0.04 0 0.24 0.04 0 0.245 0.04 0 0.25 0.04 0 0.255 0.04 0 0.26 0.04 0 0.265 0.04 0 0.27 0.04 0 0.275 0.04 0 0.28 0.04 0 0.285 0.04 0 0.29 0.04 0 0.295 0.04 0 0.3 0.04 0 0.305 0.04 0 0.31 0.04 0 0.315 0.04 0 0.32 0.04 0 0.325 0.04 0 0.33 0.04 0 0.335 0.04 0 0.34 0.04 0 0.345 0.04 0 0.35 0.04 0 0.355 0.04 0 0.36 0.04 0 0.365 0.04 0 0.37 0.04 0 0.375 0.04 0 0.38 0.04 0 0.385 0.04 0 0.39 0.04 0 0.395 0.04 0 0.4 0.04 0 0.405 0.04 0 0.41 0.04 0 0.415 0.04 0 0.42 0.04 0 0.425 0.04 0 0.43 0.04 0 0.435 0.04 0 0.44 0.04 0 0.445 0.04 0 0.45 0.04 0 0.455 0.04 0 0.46 0.04 0 0.465 0.04 0 0.47 0.04 0 0.475 0.04 0 0.48 0.04 0 0.485 0.04 0 0.49 0.04 0 0.495 0.04 0 0.5 0.04 0 0.505 0.04 0 0.51 0.04 0 0.515 0.04 0 0.52 0.04 0 0.525 0.04 0 0.53 0.04 0 0.535 0.04 0 0.54 0.04 0 0.545 0.04 0 0.55 0.04 0 0.555 0.04 0 0.56 0.04 0 0.565 0.04 0 0.57 0.04 0 0.575 0.04 0 0.58 0.04 0 0.585 0.04 0 0.59 0.04 0 0.595 0.04 0 0.6 0.04 0 0.605 0.04 0 0.61 0.04 0 0.615 0.04 0 0.62 0.04 0 0.625 0.04 0 0.63 0.04 0 0.635 0.04 0 0.64 0.04 0 0.645 0.04 0 0.65 0.04 0 0.655 0.04 0 0.66 0.04 0 0.665 0.04 0 0.67 0.04 0 0.675 0.04 0 0.68 0.04 0 0.685 0.04 0 0.69 0.04 0 0.695 0.04 0 0.7 0.04 0 0.705 0.04 0 0.71 0.04 0 0.715 0.04 0 0.72 0.04 0 0.725 0.04 0 0.73 0.04 0 0.735 0.04 0 0.74 0.04 0 0.745 0.04 0 0.75 0.04 0 0.755 0.04 0 0.76 0.04 0 0.765 0.04 0 0.77 0.04 0 0.775 0.04 0 0.78 0.04 0 0.785 0.04 0 0.79 0.04 0 0.795 0.04 0 0.8 0.04 0 0.805 0.04 0 0.81 0.04 0 0.815 0.04 0 0.82 0.04 0 0.825 0.04 0 0.83 0.04 0 0.835 0.04 0 0.84 0.04 0 0.845 0.04 0 0.85 0.04 0 0.855 0.04 0 0.86 0.04 0 0.865 0.04 0 0.87 0.04 0 0.875 0.04 0 0.88 0.04 0 0.885 0.04 0 0.89 0.04 0 0.895 0.04 0 0.9 0.04 0 0.905 0.04 0 0.91 0.04 0 0.915 0.04 0 0.92 0.04 0 0.925 0.04 0 0.93 0.04 0 0.935 0.04 0 0.94 0.04 0 0.945 0.04 0 0.95 0.04 0 0.955 0.04 0 0.96 0.04 0 0.965 0.04 0 0.97 0.04 0 0.975 0.04 0 0.98 0.04 0 0.985 0.04 0 0.99 0.04 0 0.995 0.04 0 1 0.04 0 0 0.06 0 0.005 0.06 0 0.01 0.06 0 0.015 0.06 0 0.02 0.06 0 0.025 0.06 0 0.03 0.06 0 0.035 0.06 0 0.04 0.06 0 0.045 0.06 0 0.05 0.06 0 0.055 0.06 0 0.06 0.06 0 0.065 0.06 0 0.07 0.06 0 0.075 0.06 0 0.08 0.06 0 0.085 0.06 0 0.09 0.06 0 0.095 0.06 0 0.1 0.06 0 0.105 0.06 0 0.11 0.06 0 0.115 0.06 0 0.12 0.06 0 0.125 0.06 0 0.13 0.06 0 0.135 0.06 0 0.14 0.06 0 0.145 0.06 0 0.15 0.06 0 0.155 0.06 0 0.16 0.06 0 0.165 0.06 0 0.17 0.06 0 0.175 0.06 0 0.18 0.06 0 0.185 0.06 0 0.19 0.06 0 0.195 0.06 0 0.2 0.06 0 0.205 0.06 0 0.21 0.06 0 0.215 0.06 0 0.22 0.06 0 0.225 0.06 0 0.23 0.06 0 0.235 0.06 0 0.24 0.06 0 0.245 0.06 0 0.25 0.06 0 0.255 0.06 0 0.26 0.06 0 0.265 0.06 0 0.27 0.06 0 0.275 0.06 0 0.28 0.06 0 0.285 0.06 0 0.29 0.06 0 0.295 0.06 0 0.3 0.06 0 0.305 0.06 0 0.31 0.06 0 0.315 0.06 0 0.32 0.06 0 0.325 0.06 0 0.33 0.06 0 0.335 0.06 0 0.34 0.06 0 0.345 0.06 0 0.35 0.06 0 0.355 0.06 0 0.36 0.06 0 0.365 0.06 0 0.37 0.06 0 0.375 0.06 0 0.38 0.06 0 0.385 0.06 0 0.39 0.06 0 0.395 0.06 0 0.4 0.06 0 0.405 0.06 0 0.41 0.06 0 0.415 0.06 0 0.42 0.06 0 0.425 0.06 0 0.43 0.06 0 0.435 0.06 0 0.44 0.06 0 0.445 0.06 0 0.45 0.06 0 0.455 0.06 0 0.46 0.06 0 0.465 0.06 0 0.47 0.06 0 0.475 0.06 0 0.48 0.06 0 0.485 0.06 0 0.49 0.06 0 0.495 0.06 0 0.5 0.06 0 0.505 0.06 0 0.51 0.06 0 0.515 0.06 0 0.52 0.06 0 0.525 0.06 0 0.53 0.06 0 0.535 0.06 0 0.54 0.06 0 0.545 0.06 0 0.55 0.06 0 0.555 0.06 0 0.56 0.06 0 0.565 0.06 0 0.57 0.06 0 0.575 0.06 0 0.58 0.06 0 0.585 0.06 0 0.59 0.06 0 0.595 0.06 0 0.6 0.06 0 0.605 0.06 0 0.61 0.06 0 0.615 0.06 0 0.62 0.06 0 0.625 0.06 0 0.63 0.06 0 0.635 0.06 0 0.64 0.06 0 0.645 0.06 0 0.65 0.06 0 0.655 0.06 0 0.66 0.06 0 0.665 0.06 0 0.67 0.06 0 0.675 0.06 0 0.68 0.06 0 0.685 0.06 0 0.69 0.06 0 0.695 0.06 0 0.7 0.06 0 0.705 0.06 0 0.71 0.06 0 0.715 0.06 0 0.72 0.06 0 0.725 0.06 0 0.73 0.06 0 0.735 0.06 0 0.74 0.06 0 0.745 0.06 0 0.75 0.06 0 0.755 0.06 0 0.76 0.06 0 0.765 0.06 0 0.77 0.06 0 0.775 0.06 0 0.78 0.06 0 0.785 0.06 0 0.79 0.06 0 0.795 0.06 0 0.8 0.06 0 0.805 0.06 0 0.81 0.06 0 0.815 0.06 0 0.82 0.06 0 0.825 0.06 0 0.83 0.06 0 0.835 0.06 0 0.84 0.06 0 0.845 0.06 0 0.85 0.06 0 0.855 0.06 0 0.86 0.06 0 0.865 0.06 0 0.87 0.06 0 0.875 0.06 0 0.88 0.06 0 0.885 0.06 0 0.89 0.06 0 0.895 0.06 0 0.9 0.06 0 0.905 0.06 0 0.91 0.06 0 0.915 0.06 0 0.92 0.06 0 0.925 0.06 0 0.93 0.06 0 0.935 0.06 0 0.94 0.06 0 0.945 0.06 0 0.95 0.06 0 0.955 0.06 0 0.96 0.06 0 0.965 0.06 0 0.97 0.06 0 0.975 0.06 0 0.98 0.06 0 0.985 0.06 0 0.99 0.06 0 0.995 0.06 0 1 0.06 0 0 0.08 0 0.005 0.08 0 0.01 0.08 0 0.015 0.08 0 0.02 0.08 0 0.025 0.08 0 0.03 0.08 0 0.035 0.08 0 0.04 0.08 0 0.045 0.08 0 0.05 0.08 0 0.055 0.08 0 0.06 0.08 0 0.065 0.08 0 0.07 0.08 0 0.075 0.08 0 0.08 0.08 0 0.085 0.08 0 0.09 0.08 0 0.095 0.08 0 0.1 0.08 0 0.105 0.08 0 0.11 0.08 0 0.115 0.08 0 0.12 0.08 0 0.125 0.08 0 0.13 0.08 0 0.135 0.08 0 0.14 0.08 0 0.145 0.08 0 0.15 0.08 0 0.155 0.08 0 0.16 0.08 0 0.165 0.08 0
[...]
			<PointData Scalars="VitesseX">
				<DataArray Name="VitesseX" type="Float32" format="ascii">
 0 -4.54259e-15 -8.82477e-15 1.28752e-14 3.56674e-14 -7.94348e-14 -1.64318e-15 -2.37833e-14 -4.8169e-14 -2.97527e-16 -1.87614e-14 -4.90119e-14 -8.39636e-14 -2.08945e-14 -1.47941e-13 2.98847e-14 -8.27582e-14 -2.76992e-14 -2.80159e-14 -1.75117e-13 -6.31382e-14 -3.56601e-14 -3.40545e-13 1.52898e-13 -2.75147e-13 -7.59986e-14 -1.24614e-13 -1.80807e-14 -3.00155e-13 -5.93955e-14 7.91943e-14 -6.14683e-14 -6.5899e-14 -7.86186e-14 -1.26568e-13 -3.00993e-13 -6.15263e-14 -2.0788e-13 -1.83836e-13 -2.40698e-13 -4.74173e-14 -3.57739e-13 -5.52997e-14 6.40027e-15 -7.24722e-14 -1.41555e-13 3.29095e-13 -2.68312e-13 -1.32019e-14 -8.05332e-14 5.16148e-14 -3.66298e-13 1.28409e-13 -4.10119e-13 3.62587e-14 2.05815e-12 1.71729e-11 1.2386e-10 8.37612e-10 5.30803e-09 3.14112e-08 1.73036e-07 8.83827e-07 4.16694e-06 1.80381e-05 7.12491e-05 0.000254912 0.000819099 0.00234224 0.0059105 0.0130995 0.025518 0.0440072 0.068151 0.096575 0.127728 0.16044 0.193988 0.228005 0.262299 0.296707 0.331111 0.36546 0.399711 0.433831 0.467786 0.50154 0.535057 0.568297 0.601215 0.633758 0.665871 0.69749 0.728547 0.758969 0.788688 0.817651 0.845836 0.87326 0.899989 0.926668 0.941637 0.941431 0.940521 0.939269 0.93772 0.936142 0.934607 0.933195 0.931967 0.930974 0.930095 0.929483 0.928929 0.928459 0.928141 0.927857 0.927678 0.927817 0.926949 0.916679 0.929544 0.92502 0.930554 0.927325 0.92895 0.929595 0.929519 0.929485 0.929628 0.929915 0.92991 0.929768 0.929555 0.92936 0.929217 0.929107 0.928803 0.925933 0.914774 0.88625 0.82936 0.74032 0.621108 0.481397 0.337795 0.209504 0.112885 0.0528345 0.0221432 0.00870708 0.00331441 0.00124204 0.000461467 0.000170411 6.25837e-05 2.28536e-05 8.29437e-06 2.99021e-06 1.07018e-06 3.80006e-07 1.33802e-07 4.66918e-08 1.61405e-08 5.52426e-09 1.87089e-09 6.26986e-10 2.07611e-10 6.80002e-11 2.10885e-11 7.10401e-12 1.33077e-12 3.24739e-13 -3.8474e-14 -1.09556e-13 -2.37415e-13 -2.69165e-13 -2.27192e-13 1.51113e-13 -3.86949e-13 -2.4449e-13 6.2964e-13 -7.40043e-13 2.34813e-13 2.56745e-13 -5.8248e-13 1.89118e-13 -4.79421e-13 2.90151e-13 -6.30846e-13 3.86442e-13 4.12321e-13 -8.74458e-15 8.43352e-13 5.03289e-13 4.73791e-13 5.78823e-14 1.99563e-13 1.29974e-13 -2.51496e-13 0 0 -8.91043e-15 1.30589e-14 7.8272e-16 -2.50361e-14 5.22312e-14 -6.81665e-15 -3.51227e-14 -2.02e-14 -7.11085e-14 -2.80119e-14 -4.56537e-14 1.15834e-14 -1.04744e-13 -2.75273e-14 -9.07606e-14 4.19756e-16 -9.49828e-14 -1.39725e-13 2.38171e-14 -1.74543e-13 -1.77363e-13 1.50187e-13 -3.98579e-13 7.50272e-14 -2.7265e-13 -7.25537e-14 -3.0853e-13 4.22145e-14 -3.7409e-14 -1.13706e-13 6.17258e-14 3.76102e-14 -1.97073e-13 -1.96074e-13 -1.74896e-13 -1.08517e-13 -1.34134e-13 -1.8444e-13 -5.60439e-14 -3.35538e-13 -8.13837e-14 -1.04448e-13 -7.43407e-14 -5.75266e-14 8.55904e-14 -2.93311e-13 1.79863e-13 -1.26023e-14 -6.53168e-14 -1.58702e-13 -2.76243e-14 -5.9401e-13 1.74697e-13 -1.82438e-13 2.21629e-12 1.75427e-11 1.23534e-10 8.37817e-10 5.30823e-09 3.14117e-08 1.73035e-07 8.83826e-07 4.16694e-06 1.80381e-05 7.12491e-05 0.000254912 0.000819099 0.00234224 0.0059105 0.0130995 0.025518 0.0440072 0.068151 0.096575 0.127728 0.16044 0.193988 0.228005 0.262299 0.296707 0.331111 0.36546 0.399711 0.433831 0.467786 0.50154 0.535057 0.568297 0.601215 0.633758 0.665871 0.69749 0.728547 0.758969 0.788688 0.817651 0.845836 0.87326 0.899989 0.926668 0.941637 0.941431 0.940521 0.939269 0.93772 0.936142 0.934607 0.933195 0.931967 0.930974 0.930095 0.929483 0.928929 0.928459 0.928141 0.927857 0.927678 0.927817 0.926949 0.916679 0.929544 0.92502 0.930554 0.927325 0.92895 0.929595 0.929519 0.929485 0.929628 0.929915 0.92991 0.929768 0.929555 0.92936 0.929217 0.929107 0.928803 0.925933 0.914774 0.88625 0.82936 0.74032 0.621108 0.481397 0.337795 0.209504 0.112885 0.0528345 0.0221432 0.00870708 0.00331441 0.00124204 0.000461467 0.000170411 6.25837e-05 2.28536e-05 8.29437e-06 2.99021e-06 1.07018e-06 3.80005e-07 1.33802e-07 4.66922e-08 1.61404e-08 5.52417e-09 1.8715e-09 6.26622e-10 2.07473e-10 6.76206e-11 2.19629e-11 6.02839e-12 2.19147e-12 -7.57792e-14 2.70736e-14 -6.37135e-14 -6.03532e-13 2.60026e-13 -2.16213e-13 -4.82552e-13 -4.72862e-14 4.89064e-13 -5.66907e-13 2.99458e-13 -1.71884e-13 -2.4285e-13 -1.05521e-13 -5.99468e-13 2.94506e-13 -1.99221e-13 2.01258e-13 -5.85561e-13 2.2944e-13 1.06487e-12 4.10686e-14 1.66807e-13 2.69176e-13 4.12093e-13 2.88944e-13 8.80055e-14 -2.14449e-13 0 0 2.09083e-14 1.79838e-14 4.5523e-14 2.90312e-14 7.50066e-15 4.55123e-14 -1.38699e-14 -2.35698e-14 -1.54364e-14 -6.23064e-14 -4.4523e-14 -4.55653e-14 3.03359e-14 -1.26047e-13 -7.54703e-14 -9.58115e-14 -1.38787e-13 2.92753e-14 -1.34892e-13 -1.5628e-13 -3.04477e-14 -1.95353e-13 -3.10332e-14 -2.06136e-13 -8.25238e-14 -1.80426e-13 6.27577e-14 -3.55549e-13 -1.02631e-13 5.46653e-14 -7.96499e-14 -8.22653e-14 1.70229e-14 -8.51087e-14 -3.31962e-13 -7.87174e-14 -7.84383e-14 -8.3698e-14 -1.56906e-13 7.05931e-14 -3.00325e-13 1.23099e-13 -2.387e-13 4.74859e-14 -2.80546e-13 1.52566e-13 -2.28532e-13 -6.55555e-14 -1.90376e-13 -1.86719e-13 -1.33034e-14 5.12565e-14 -3.69805e-13 1.98898e-13 2.2314e-12 1.73858e-11 1.23778e-10 8.3804e-10 5.30835e-09 3.1412e-08 1.73035e-07 8.83826e-07 4.16694e-06 1.80381e-05 7.12491e-05 0.000254912 0.000819099 0.00234224 0.0059105 0.0130995 0.025518 0.0440072 0.068151 0.096575 0.127728 0.16044 0.193988 0.228005 0.262299 0.296707 0.331111 0.36546 0.399711 0.433831 0.467786 0.50154 0.535057 0.568297 0.601215 0.633758 0.665871 0.69749 0.728547 0.758969 0.788688 0.817651 0.845836 0.87326 0.899989 0.926668 0.941637 0.941431 0.940521 0.939269 0.93772 0.936142 0.934607 0.933195 0.931967 0.930974 0.930095 0.929483 0.928929 0.928459 0.928141 0.927857 0.927678 0.927817 0.926949 0.916679 0.929544 0.92502 0.930554 0.927325 0.92895 0.929595 0.929519 0.929485 0.929628 0.929915 0.92991 0.929768 0.929555 0.92936 0.929217 0.929107 0.928803 0.925933 0.914774 0.88625 0.82936 0.74032 0.621108 0.481397 0.337795 0.209504 0.112885 0.0528345 0.0221432 0.00870708 0.00331441 0.00124204 0.000461467 0.000170411 6.25837e-05 2.28536e-05 8.29437e-06 2.99021e-06 1.07018e-06 3.80005e-07 1.33802e-07 4.66921e-08 1.61406e-08 5.52437e-09 1.8711e-09 6.26964e-10 2.07443e-10 6.77418e-11 2.14544e-11 6.90192e-12 1.674e-12 2.11152e-13 -4.05732e-13 6.97082e-14 -1.35346e-13 -1.75432e-13 1.21899e-13 -2.67895e-13 2.53843e-13 -1.93982e-13 -2.39184e-13 -3.12966e-13 -5.38468e-13 -2.40802e-13 -1.32056e-13 -1.20856e-13 1.52164e-13 1.56937e-13 -7.85197e-13 -5.22761e-14 2.3504e-13 -2.86184e-13 2.55692e-13 2.52124e-13 2.37126e-13 7.09821e-13 6.98108e-15 2.33423e-13 2.5634e-13 0 0 3.1603e-14 4.67244e-14 6.17428e-14 4.64843e-14 6.06845e-15 4.55401e-14 -1.62973e-14 -2.46853e-14 4.29923e-14 -6.13213e-14 -9.26315e-14 -2.67248e-14 -4.11002e-14 -1.64243e-13 3.03902e-14 -1.14101e-13 -9.46487e-14 -1.27391e-13 -1.34983e-13 -3.23703e-14 -1.91303e-13 -1.77214e-13 8.60126e-14 -9.24943e-14 3.99789e-14 -2.0201e-13 -2.78254e-13 -1.72164e-13 6.70621e-14 -8.8895e-14 -8.75465e-14 -6.88252e-14 -1.79676e-13 -1.8107e-13 -8.85924e-14 -1.55057e-13 -8.00051e-14 5.48108e-15 -1.91861e-13 -4.23784e-14 -9.59866e-14 -8.56008e-14 -4.36193e-14 -4.83265e-14 -9.94569e-14 -2.12774e-13 -2.76036e-13 2.73746e-13 -3.11292e-13 -2.27402e-14 -3.73713e-13 1.88511e-13 -1.2475e-13 1.28552e-13 2.26493e-12 1.72379e-11 1.24215e-10 8.37973e-10 5.30856e-09 3.14118e-08 1.73035e-07 8.83826e-07 4.16694e-06 1.80381e-05 7.12491e-05 0.000254912 0.000819099 0.00234224 0.0059105 0.0130995 0.025518 0.0440072 0.068151 0.096575 0.127728 0.16044 0.193988 0.228005 0.262299 0.296707 0.331111 0.36546 0.399711 0.433831 0.467786 0.50154 0.535057 0.568297 0.601215 0.633758 0.665871 0.69749 0.728547 0.758969 0.788688 0.817651 0.845836 0.87326 0.899989 0.926668 0.941637 0.941431 0.940521 0.939269 0.93772 0.936142 0.934607 0.933195 0.931967 0.930974 0.930095 0.929483 0.928929 0.928459 0.928141 0.927857 0.927678 0.927817 0.926949 0.916679 0.929544 0.92502 0.930554 0.927325 0.92895 0.929595 0.929519 0.929485 0.929628 0.929915 0.92991 0.929768 0.929555 0.92936 0.929217 0.929107 0.928803 0.925933 0.914774 0.88625 0.82936 0.74032 0.621108 0.481397 0.337795 0.209504 0.112885 0.0528345 0.0221432 0.00870708 0.00331441 0.00124204 0.000461467 0.000170411 6.25837e-05 2.28536e-05 8.29437e-06 2.99021e-06 1.07018e-06 3.80006e-07 1.33802e-07 4.66918e-08 1.61405e-08 5.52434e-09 1.87107e-09 6.26849e-10 2.07746e-10 6.7728e-11 2.13303e-11 7.02192e-12 1.90796e-12 4.43457e-13 2.63555e-13 -3.89672e-13 -2.25318e-13 -4.52727e-13 7.17804e-13 3.39758e-13 -6.99693e-13 -1.63352e-13 -2.41738e-14 -5.79251e-13 -5.54091e-13 -3.97719e-13 -5.20082e-13 2.17178e-13 -4.49942e-13 -3.12739e-13 -3.94132e-13 5.32087e-13 6.55781e-13 -6.46279e-13 4.73611e-14 7.81497e-13 -2.69929e-13 4.76579e-13 4.32743e-13 -4.23823e-13 4.23679e-14 0 0 1.30352e-14 5.19156e-14 2.57886e-14 8.67461e-15 8.35573e-14 -8.50775e-15 -2.03623e-14 9.09225e-15 8.94956e-15 -6.80371e-14 -7.9847e-14 1.88153e-14 -1.50758e-13 -9.21248e-14 -3.23799e-14 -8.17908e-14 -1.42088e-13 -9.30808e-14 3.05123e-14 -9.03559e-14 -2.32626e-13 1.36183e-13 -2.82714e-13 1.86162e-13 -1.25415e-13 -3.74486e-15 -4.96541e-13 1.35888e-13 4.98839e-14 -2.83774e-13 -6.92415e-14 -1.51911e-13 -3.22811e-13 -1.82068e-13 -1.39151e-13 -6.47017e-14 5.92485e-14 -1.39458e-13 -6.48531e-14 -4.85671e-13 7.44917e-14 -2.11866e-13 8.7432e-14 -1.32678e-13 2.467e-13 -4.71603e-13 7.10533e-14 4.58257e-14 -1.67475e-13 -1.13899e-13 -2.2618e-13 -5.89865e-13 3.78412e-13 -1.03336e-13 2.52471e-12 1.76085e-11 1.23953e-10 8.38035e-10 5.30853e-09 3.1412e-08 1.73035e-07 8.83826e-07 4.16694e-06 1.80381e-05 7.12491e-05 0.000254912 0.000819099 0.00234224 0.0059105 0.0130995 0.025518 0.0440072 0.068151 0.096575 0.127728 0.16044 0.193988 0.228005 0.262299 0.296707 0.331111 0.36546 0.399711 0.433831 0.467786 0.50154 0.535057 0.568297 0.601215 0.633758 0.665871 0.69749 0.728547 0.758969 0.788688 0.817651 0.845836 0.87326 0.899989 0.926668 0.941637 0.941431 0.940521 0.939269 0.93772 0.936142 0.934607 0.933195 0.931967 0.930974 0.930095 0.929483 0.928929 0.928459 0.928141 0.927857 0.927678 0.927817 0.926949 0.916679 0.929544 0.92502 0.930554 0.927325 0.92895 0.929595 0.929519 0.929485 0.929628 0.929915 0.92991 0.929768 0.929555 0.92936 0.929217 0.929107 0.928803 0.925933 0.914774 0.88625 0.82936 0.74032 0.621108 0.481397 0.337795 0.209504 0.112885 0.0528345 0.0221432 0.00870708 0.00331441 0.00124204 0.000461467 0.000170411 6.25837e-05 2.28536e-05 8.29437e-06 2.99021e-06 1.07018e-06 3.80006e-07 1.33802e-07 4.6692e-08 1.61404e-08 5.52425e-09 1.87118e-09 6.26424e-10 2.07575e-10 6.75559e-11 2.1828e-11 5.9814e-12 2.10385e-12 7.80406e-14 7.53153e-13 -7.23691e-14 -6.43317e-13 5.03539e-14 1.30939e-13 3.9936e-14 -3.45157e-13 3.22412e-13 -7.89674e-13 4.67733e-14 -4.25922e-13 -3.79374e-13 -3.17509e-13 -7.40172e-13 4.98344e-14 -2.10244e-13 2.7149e-13 -2.42986e-13 2.65103e-13 6.40449e-13 -2.27647e-13 4.58744e-13 -1.14702e-13 -8.68737e-14 2.60911e-13 -2.85889e-13 -2.05285e-13 0 0 1.79592e-14 1.14074e-14 3.04473e-14 6.81825e-14 -1.39184e-14 -5.0809e-15 1.05924e-14 1.26464e-14 4.29612e-14 -1.00782e-13 -2.11815e-14 -1.07181e-13 2.99512e-14 -2.00744e-13 -6.50746e-14 -2.10599e-13 -2.10187e-13 3.78605e-13 -1.61545e-13 -1.42585e-13 1.75524e-13 -4.04831e-13 1.50537e-13 -2.80162e-13 -2.65338e-14 5.61717e-14 2.87921e-13 -4.79579e-13 -2.24195e-13 2.61779e-14 -3.0761e-13 -4.71822e-13 6.33046e-14 9.33651e-14 -7.16242e-13 1.78783e-13 1.82018e-13 -2.72231e-13 -1.88408e-13 -1.21741e-13 -4.54666e-13 1.47262e-13 -6.02167e-14 -3.11498e-14 -1.81514e-13 7.03192e-13 -3.90923e-13 -5.74948e-13 -4.30191e-14 -1.86736e-13 -4.25902e-14 -1.37809e-13 -4.92799e-13 3.35157e-13 2.60792e-12 1.76003e-11 1.23825e-10 8.38182e-10 5.3082e-09 3.14121e-08 1.73036e-07 8.83827e-07 4.16694e-06 1.80381e-05 7.12491e-05 0.000254912 0.000819099 0.00234224 0.0059105 0.0130995 0.025518 0.0440072 0.068151 0.096575 0.127728 0.16044 0.193988 0.228005 0.262299 0.296707 0.331111 0.36546 0.399711 0.433831 0.467786 0.50154 0.535057 0.568297 0.601215 0.633758 0.665871 0.69749 0.728547 0.758969 0.788688 0.817651 0.845836 0.87326 0.899989 0.926668 0.941637 0.941431 0.940521 0.939269 0.93772 0.936142 0.934607 0.933195 0.931967 0.930974 0.930095 0.929483 0.928929 0.928459 0.928141 0.927857 0.927678 0.927817 0.926949 0.916679 0.929544 0.92502 0.930554 0.927325 0.92895 0.929595 0.929519 0.929485 0.929628 0.929915 0.92991 0.929768 0.929555 0.92936 0.929217 0.929107 0.928803 0.925933 0.914774 0.88625 0.82936 0.74032 0.621108 0.481397 0.337795 0.209504 0.112885 0.0528345 0.0221432 0.00870708 0.00331441 0.00124204 0.000461467 0.000170411 6.25837e-05 2.28536e-05 8.29437e-06 2.99021e-06 1.07018e-06 3.80005e-07 1.33802e-07 4.6692e-08 1.61408e-08 5.52446e-09 1.8703e-09 6.26821e-10 2.0721e-10 6.78985e-11 2.10668e-11 6.77003e-12 6.87614e-13 1.67768e-13 7.51114e-14 7.91894e-13 -1.37041e-13 -1.33917e-13 -7.24699e-13 -1.92185e-14 9.24382e-13 -6.39052e-13 -2.45914e-13 -7.12842e-13 -2.42018e-13 2.97532e-13 -2.30401e-13 -7.68358e-13 2.35447e-13 1.20746e-12 -1.27251e-12 -9.71336e-14 -3.57834e-13 -1.37394e-13 7.22582e-13 2.84163e-14 7.20144e-13 -4.73565e-13 -7.08026e-13 6.96678e-13 1.94774e-13 0
				</DataArray>
				<DataArray Name="VitesseY" type="Float32" format="ascii">