<?xml version="1.0"?>
<VTKFile type="PolyData">
	<PolyData>
		<Piece NumberOfPoints="1206" NumberOfPolys="1000">
			<Points>
				<DataArray type="Float32" NumberOfComponents="3" format="ascii">
 0 0 0 0.005 0 0 0.01 0 0 0.015 0 0 0.02 0 0 0.025 0 0 0.03 0 0 0.035 0 0 0.04 0 0 0.045 0 0 0.05 0 0 0.055 0 0 0.06 0 0 0.065 0 0 0.07 0 0 0.075 0 0 0.08 0 0 0.085 0 0 0.09 0 0 0.095 0 0 0.1 0 0 0.105 0 0 0.11 0 0 0.115 0 0 0.12 0 0 0.125 0 0 0.13 0 0 0.135 0 0 0.14 0 0 0.145 0 0 0.15 0 0 0.155 0 0 0.16 0 0 0.165 0 0 0.17 0 0 0.175 0 0 0.18 0 0 0.185 0 0 0.19 0 0 0.195 0 0 0.2 0 0 0.205 0 0 0.21 0 0 0.215 0 0 0.22 0 0 0.225 0 0 0.23 0 0 0.235 0 0 0.24 0 0 0.245 0 0 0.25 0 0 0.255 0 0 0.26 0 0 0.265 0 0 0.27 0 0 0.275 0 0 0.28 0 0 0.285 0 0 0.29 0 0 0.295 0 0 0.3 0 0 0.305 0 0 0.31 0 0 0.315 0 0 0.32 0 0 0.325 0 0 0.33 0 0 0.335 0 0 0.34 0 0 0.345 0 0 0.35 0 0 0.355 0 0 0.36 0 0 0.365 0 0 0.37 0 0 0.375 0 0 0.38 0 0 0.385 0 0 0.39 0 0 0.395 0 0 0.4 0 0 0.405 0 0 0.41 0 0 0.415 0 0 0.42 0 0 0.425 0 0 0.43 0 0 0.435 0 0 0.44 0 0 0.445 0 0 0.45 0 0 0.455 0 0 0.46 0 0 0.465 0 0 0.47 0 0 0.475 0 0 0.48 0 0 0.485 0 0 0.49 0 0 0.495 0 0 0.5 0 0 0.505 0 0 0.51 0 0 0.515 0 0 0.52 0 0 0.525 0 0 0.53 0 0 0.535 0 0 0.54 0 0 0.545 0 0 0.55 0 0 0.555 0 0 0.56 0 0 0.565 0 0 0.57 0 0 0.575 0 0 0.58 0 0 0.585 0 0 0.59 0 0 0.595 0 0 0.6 0 0 0.605 0 0 0.61 0 0 0.615 0 0 0.62 0 0 0.625 0 0 0.63 0 0 0.635 0 0 0.64 0 0 0.645 0 0 0.65 0 0 0.655 0 0 0.66 0 0 0.665 0 0 0.67 0 0 0.675 0 0 0.68 0 0 0.685 0 0 0.69 0 0 0.695 0 0 0.7 0 0 0.705 0 0 0.71 0 0 0.715 0 0 0.72 0 0 0.725 0 0 0.73 0 0 0.735 0 0 0.74 0 0 0.745 0 0 0.75 0 0 0.755 0 0 0.76 0 0 0.765 0 0 0.77 0 0 0.775 0 0 0.78 0 0 0.785 0 0 0.79 0 0 0.795 0 0 0.8 0 0 0.805 0 0 0.81 0 0 0.815 0 0 0.82 0 0 0.825 0 0 0.83 0 0 0.835 0 0 0.84 0 0 0.845 0 0 0.85 0 0 0.855 0 0 0.86 0 0 0.865 0 0 0.87 0 0 0.875 0 0 0.88 0 0 0.885 0 0 0.89 0 0 0.895 0 0 0.9 0 0 0.905 0 0 0.91 0 0 0.915 0 0 0.92 0 0 0.925 0 0 0.93 0 0 0.935 0 0 0.94 0 0 0.945 0 0 0.95 0 0 0.955 0 0 0.96 0 0 0.965 0 0 0.97 0 0 0.975 0 0 0.98 0 0 0.985 0 0 0.99 0 0 0.995 0 0 1 0 0 0 0.02 0 0.005 0.02 0 0.01 0.02 0 0.015 0.02 0 0.02 0.02 0 0.025 0.02 0 0.03 0.02 0 0.035 0.02 0 0.04 0.02 0 0.045 0.02 0 0.05 0.02 0 0.055 0.02 0 0.06 0.02 0 0.065 0.02 0 0.07 0.02 0 0.075 0.02 0 0.08 0.02 0 0.085 0.02 0 0.09 0.02 0 0.095 0.02 0 0.1 0.02 0 0.105 0.02 0 0.11 0.02 0 0.115 0.02 0 0.12 0.02 0 0.125 0.02 0 0.13 0.02 0 0.135 0.02 0 0.14 0.02 0 0.145 0.02 0 0.15 0.02 0 0.155 0.02 0 0.16 0.02 0 0.165 0.02 0 0.17 0.02 0 0.175 0.02 0 0.18 0.02 0 0.185 0.02 0 0.19 0.02 0 0.195 0.02 0 0.2 0.02 0 0.205 0.02 0 0.21 0.02 0 0.215 0.02 0 0.22 0.02 0 0.225 0.02 0 0.23 0.02 0 0.235 0.02 0 0.24 0.02 0 0.245 0.02 0 0.25 0.02 0 0.255 0.02 0 0.26 0.02 0 0.265 0.02 0 0.27 0.02 0 0.275 0.02 0 0.28 0.02 0 0.285 0.02 0 0.29 0.02 0 0.295 0.02 0 0.3 0.02 0 0.305 0.02 0 0.31 0.02 0 0.315 0.02 0 0.32 0.02 0 0.325 0.02 0 0.33 0.02 0 0.335 0.02 0 0.34 0.02 0 0.345 0.02 0 0.35 0.02 0 0.355 0.02 0 0.36 0.02 0 0.365 0.02 0 0.37 0.02 0 0.375 0.02 0 0.38 0.02 0 0.385 0.02 0 0.39 0.02 0 0.395 0.02 0 0.4 0.02 0 0.405 0.02 0 0.41 0.02 0 0.415 0.02 0 0.42 0.02 0 0.425 0.02 0 0.43 0.02 0 0.435 0.02 0 0.44 0.02 0 0.445 0.02 0 0.45 0.02 0 0.455 0.02 0 0.46 0.02 0 0.465 0.02 0 0.47 0.02 0 0.475 0.02 0 0.48 0.02 0 0.485 0.02 0 0.49 0.02 0 0.495 0.02 0 0.5 0.02 0 0.505 0.02 0 0.51 0.02 0 0.515 0.02 0 0.52 0.02 0 0.525 0.02 0 0.53 0.02 0 0.535 0.02 0 0.54 0.02 0 0.545 0.02 0 0.55 0.02 0 0.555 0.02 0 0.56 0.02 0 0.565 0.02 0 0.57 0.02 0 0.575 0.02 0 0.58 0.02 0 0.585 0.02 0 0.59 0.02 0 0.595 0.02 0 0.6 0.02 0 0.605 0.02 0 0.61 0.02 0 0.615 0.02 0 0.62 0.02 0 0.625 0.02 0 0.63 0.02 0 0.635 0.02 0 0.64 0.02 0 0.645 0.02 0 0.65 0.02 0 0.655 0.02 0 0.66 0.02 0 0.665 0.02 0 0.67 0.02 0 0.675 0.02 0 0.68 0.02 0 0.685 0.02 0 0.69 0.02 0 0.695 0.02 0 0.7 0.02 0 0.705 0.02 0 0.71 0.02 0 0.715 0.02 0 0.72 0.02 0 0.725 0.02 0 0.73 0.02 0 0.735 0.02 0 0.74 0.02 0 0.745 0.02 0 0.75 0.02 0 0.755 0.02 0 0.76 0.02 0 0.765 0.02 0 0.77 0.02 0 0.775 0.02 0 0.78 0.02 0 0.785 0.02 0 0.79 0.02 0 0.795 0.02 0 0.8 0.02 0 0.805 0.02 0 0.81 0.02 0 0.815 0.02 0 0.82 0.02 0 0.825 0.02 0 0.83 0.02 0 0.835 0.02 0 0.84 0.02 0 0.845 0.02 0 0.85 0.02 0 0.855 0.02 0 0.86 0.02 0 0.865 0.02 0 0.87 0.02 0 0.875 0.02 0 0.88 0.02 0 0.885 0.02 0 0.89 0.02 0 0.895 0.02 0 0.9 0.02 0 0.905 0.02 0 0.91 0.02 0 0.915 0.02 0 0.92 0.02 0 0.925 0.02 0 0.93 0.02 0 0.935 0.02 0 0.94 0.02 0 0.945 0.02 0 0.95 0.02 0 0.955 0.02 0 0.96 0.02 0 0.965 0.02 0 0.97 0.02 0 0.975 0.02 0 0.98 0.02 0 0.985 0.02 0 0.99 0.02 0 0.995 0.02 0 1 0.02 0 0 0.04 0 0.005 0.04 0 0.01 0.04 0 0.015 0.04 0 0.02 0.04 0 0.025 0.04 0 0.03 0.04 0 0.035 0.04 0 0.04 0.04 0 0.045 0.04 0 0.05 0.04 0 0.055 0.04 0 0.06 0.04 0 0.065 0.04 0 0.07 0.04 0 0.075 0.04 0 0.08 0.04 0 0.085 0.04 0 0.09 0.04 0 0.095 0.04 0 0.1 0.04 0 0.105 0.04 0 0.11 0.04 0 0.115 0.04 0 0.12 0.04 0 0.125 0.04 0 0.13 0.04 0 0.135 0.04 0 0.14 0.04 0 0.145 0.04 0 0.15 0.04 0 0.155 0.04 0 0.16 0.04 0 0.165 0.04 0 0.17 0.04 0 0.175 0.04 0 0.18 0.04 0 0.185 0.04 0 0.19 0.04 0 0.195 0.04 0 0.2 0.04 0 0.205 0.04 0 0.21 0.04 0 0.215 0.04 0 0.22 0.04 0 0.225 0.04 0 0.23 0.04 0 0.235 0.04 0 0.24 0.04 0 0.245 0.04 0 0.25 0.04 0 0.255 0.04 0 0.26 0.04 0 0.265 0.04 0 0.27 0.04 0 0.275 0.04 0 0.28 0.04 0 0.285 0.04 0 0.29 0.04 0 0.295 0.04 0 0.3 0.04 0 0.305 0.04 0 0.31 0.04 0 0.315 0.04 0 0.32 0.04 0 0.325 0.04 0 0.33 0.04 0 0.335 0.04 0 0.34 0.04 0 0.345 0.04 0 0.35 0.04 0 0.355 0.04 0 0.36 0.04 0 0.365 0.04 0 0.37 0.04 0 0.375 0.04 0 0.38 0.04 0 0.385 0.04 0 0.39 0.04 0 0.395 0.04 0 0.4 0.04 0 0.405 0.04 0 0.41 0.04 0 0.415 0.04 0 0.42 0.04 0 0.425 0.04 0 0.43 0.04 0 0.435 0.04 0 0.44 0.04 0 0.445 0.04 0 0.45 0.04 0 0.455 0.04 0 0.46 0.04 0 0.465 0.04 0 0.47 0.04 0 0.475 0.04 0 0.48 0.04 0 0.485 0.04 0 0.49 0.04 0 0.495 0.04 0 0.5 0.04 0 0.505 0.04 0 0.51 0.04 0 0.515 0.04 0 0.52 0.04 0 0.525 0.04 0 0.53 0.04 0 0.535 0.04 0 0.54 0.04 0 0.545 0.04 0 0.55 0.04 0 0.555 0.04 0 0.56 0.04 0 0.565 0.04 0 0.57 0.04 0 0.575 0.04 0 0.58 0.04 0 0.585 0.04 0 0.59 0.04 0 0.595 0.04 0 0.6 0.04 0 0.605 0.04 0 0.61 0.04 0 0.615 0.04 0 0.62 0.04 0 0.625 0.04 0 0.63 0.04 0 0.635 0.04 0 0.64 0.04 0 0.645 0.04 0 0.65 0.04 0 0.655 0.04 0 0.66 0.04 0 0.665 0.04 0 0.67 0.04 0 0.675 0.04 0 0.68 0.04 0 0.685 0.04 0 0.69 0.04 0 0.695 0.04 0 0.7 0.04 0 0.705 0.04 0 0.71 0.04 0 0.715 0.04 0 0.72 0.04 0 0.725 0.04 0 0.73 0.04 0 0.735 0.04 0 0.74 0.04 0 0.745 0.04 0 0.75 0.04 0 0.755 0.04 0 0.76 0.04 0 0.765 0.04 0 0.77 0.04 0 0.775 0.04 0 0.78 0.04 0 0.785 0.04 0 0.79 0.04 0 0.795 0.04 0 0.8 0.04 0 0.805 0.04 0 0.81 0.04 0 0.815 0.04 0 0.82 0.04 0 0.825 0.04 0 0.83 0.04 0 0.835 0.04 0 0.84 0.04 0 0.845 0.04 0 0.85 0.04 0 0.855 0.04 0 0.86 0.04 0 0.865 0.04 0 0.87 0.04 0 0.875 0.04 0 0.88 0.04 0 0.885 0.04 0 0.89 0.04 0 0.895 0.04 0 0.9 0.04 0 0.905 0.04 0 0.91 0.04 0 0.915 0.04 0 0.92 0.04 0 0.925 0.04 0 0.93 0.04 0 0.935 0.04 0 0.94 0.04 0 0.945 0.04 0 0.95 0.04 0 0.955 0.04 0 0.96 0.04 0 0.965 0.04 0 0.97 0.04 0 0.975 0.04 0 0.98 0.04 0 0.985 0.04 0 0.99 0.04 0 0.995 0.04 0 1 0.04 0 0 0.06 0 0.005 0.06 0 0.01 0.06 0 0.015 0.06 0 0.02 0.06 0 0.025 0.06 0 0.03 0.06 0 0.035 0.06 0 0.04 0.06 0 0.045 0.06 0 0.05 0.06 0 0.055 0.06 0 0.06 0.06 0 0.065 0.06 0 0.07 0.06 0 0.075 0.06 0 0.08 0.06 0 0.085 0.06 0 0.09 0.06 0 0.095 0.06 0 0.1 0.06 0 0.105 0.06 0 0.11 0.06 0 0.115 0.06 0 0.12 0.06 0 0.125 0.06 0 0.13 0.06 0 0.135 0.06 0 0.14 0.06 0 0.145 0.06 0 0.15 0.06 0 0.155 0.06 0 0.16 0.06 0 0.165 0.06 0 0.17 0.06 0 0.175 0.06 0 0.18 0.06 0 0.185 0.06 0 0.19 0.06 0 0.195 0.06 0 0.2 0.06 0 0.205 0.06 0 0.21 0.06 0 0.215 0.06 0 0.22 0.06 0 0.225 0.06 0 0.23 0.06 0 0.235 0.06 0 0.24 0.06 0 0.245 0.06 0 0.25 0.06 0 0.255 0.06 0 0.26 0.06 0 0.265 0.06 0 0.27 0.06 0 0.275 0.06 0 0.28 0.06 0 0.285 0.06 0 0.29 0.06 0 0.295 0.06 0 0.3 0.06 0 0.305 0.06 0 0.31 0.06 0 0.315 0.06 0 0.32 0.06 0 0.325 0.06 0 0.33 0.06 0 0.335 0.06 0 0.34 0.06 0 0.345 0.06 0 0.35 0.06 0 0.355 0.06 0 0.36 0.06 0 0.365 0.06 0 0.37 0.06 0 0.375 0.06 0 0.38 0.06 0 0.385 0.06 0 0.39 0.06 0 0.395 0.06 0 0.4 0.06 0 0.405 0.06 0 0.41 0.06 0 0.415 0.06 0 0.42 0.06 0 0.425 0.06 0 0.43 0.06 0 0.435 0.06 0 0.44 0.06 0 0.445 0.06 0 0.45 0.06 0 0.455 0.06 0 0.46 0.06 0 0.465 0.06 0 0.47 0.06 0 0.475 0.06 0 0.48 0.06 0 0.485 0.06 0 0.49 0.06 0 0.495 0.06 0 0.5 0.06 0 0.505 0.06 0 0.51 0.06 0 0.515 0.06 0 0.52 0.06 0 0.525 0.06 0 0.53 0.06 0 0.535 0.06 0 0.54 0.06 0 0.545 0.06 0 0.55 0.06 0 0.555 0.06 0 0.56 0.06 0 0.565 0.06 0 0.57 0.06 0 0.575 0.06 0 0.58 0.06 0 0.585 0.06 0 0.59 0.06 0 0.595 0.06 0 0.6 0.06 0 0.605 0.06 0 0.61 0.06 0 0.615 0.06 0 0.62 0.06 0 0.625 0.06 0 0.63 0.06 0 0.635 0.06 0 0.64 0.06 0 0.645 0.06 0 0.65 0.06 0 0.655 0.06 0 0.66 0.06 0 0.665 0.06 0 0.67 0.06 0 0.675 0.06 0 0.68 0.06 0 0.685 0.06 0 0.69 0.06 0 0.695 0.06 0 0.7 0.06 0 0.705 0.06 0 0.71 0.06 0 0.715 0.06 0 0.72 0.06 0 0.725 0.06 0 0.73 0.06 0 0.735 0.06 0 0.74 0.06 0 0.745 0.06 0 0.75 0.06 0 0.755 0.06 0 0.76 0.06 0 0.765 0.06 0 0.77 0.06 0 0.775 0.06 0 0.78 0.06 0 0.785 0.06 0 0.79 0.06 0 0.795 0.06 0 0.8 0.06 0 0.805 0.06 0 0.81 0.06 0 0.815 0.06 0 0.82 0.06 0 0.825 0.06 0 0.83 0.06 0 0.835 0.06 0 0.84 0.06 0 0.845 0.06 0 0.85 0.06 0 0.855 0.06 0 0.86 0.06 0 0.865 0.06 0 0.87 0.06 0 0.875 0.06 0 0.88 0.06 0 0.885 0.06 0 0.89 0.06 0 0.895 0.06 0 0.9 0.06 0 0.905 0.06 0 0.91 0.06 0 0.915 0.06 0 0.92 0.06 0 0.925 0.06 0 0.93 0.06 0 0.935 0.06 0 0.94 0.06 0 0.945 0.06 0 0.95 0.06 0 0.955 0.06 0 0.96 0.06 0 0.965 0.06 0 0.97 0.06 0 0.975 0.06 0 0.98 0.06 0 0.985 0.06 0 0.99 0.06 0 0.995 0.06 0 1 0.06 0 0 0.08 0 0.005 0.08 0 0.01 0.08 0 0.015 0.08 0 0.02 0.08 0 0.025 0.08 0 0.03 0.08 0 0.035 0.08 0 0.04 0.08 0 0.045 0.08 0 0.05 0.08 0 0.055 0.08 0 0.06 0.08 0 0.065 0.08 0 0.07 0.08 0 0.075 0.08 0 0.08 0.08 0 0.085 0.08 0 0.09 0.08 0 0.095 0.08 0 0.1 0.08 0 0.105 0.08 0 0.11 0.08 0 0.115 0.08 0 0.12 0.08 0 0.125 0.08 0 0.13 0.08 0 0.135 0.08 0 0.14 0.08 0 0.145 0.08 0 0.15 0.08 0 0.155 0.08 0 0.16 0.08 0 0.165 0.08 0
[...]
			<PointData Scalars="VitesseX">
				<DataArray Name="VitesseX" type="Float32" format="ascii">
 0 -5.01103e-15 3.23071e-15 -4.71004e-15 3.22948e-14 4.03439e-14 -2.47777e-14 -1.62765e-14 -2.74397e-16 3.49772e-15 8.0281e-14 -8.60916e-14 5.89776e-14 3.34498e-14 -1.3053e-13 -2.47663e-14 -1.09579e-13 -1.00697e-13 -1.21646e-13 -3.38798e-14 -5.3852e-14 1.12361e-14 -9.96655e-14 -1.126e-13 -9.22898e-14 -2.12891e-14 -1.81187e-13 -1.88499e-13 -5.47459e-14 -1.11254e-13 5.75347e-14 -1.94488e-13 -1.84029e-13 -1.17792e-13 -4.38478e-13 1.18879e-14 -7.00834e-14 -7.37482e-14 1.748e-13 1.15098e-13 3.49819e-14 2.10153e-12 1.27695e-11 7.60101e-11 4.25953e-10 2.26086e-09 1.13667e-08 5.39992e-08 2.41839e-07 1.01802e-06 4.01465e-06 1.47757e-05 5.05287e-05 0.000159734 0.000464066 0.00123111 0.00296343 0.00644093 0.0126117 0.0222822 0.0357552 0.0526863 0.0722832 0.0936716 0.11616 0.139302 0.162831 0.186613 0.210576 0.234663 0.25883 0.283041 0.307264 0.331477 0.35567 0.379832 0.403954 0.428027 0.452043 0.475994 0.49987 0.523661 0.547358 0.570949 0.594421 0.61776 0.640952 0.663979 0.686823 0.709464 0.731882 0.754056 0.775966 0.797592 0.818924 0.839958 0.860707 0.881204 0.9015 0.921974 0.939629 0.939874 0.939526 0.938692 0.937621 0.936419 0.935156 0.93392 0.932756 0.931666 0.930747 0.929954 0.929272 0.928711 0.928283 0.92804 0.927833 0.927712 0.927615 0.927532 0.927481 0.927423 0.927376 0.927332 0.9273 0.92729 0.927202 0.927313 0.927135 0.928391 0.909848 0.938581 0.922793 0.927131 0.928132 0.928992 0.929028 0.928954 0.928842 0.928763 0.928681 0.928803 0.928951 0.928957 0.928946 0.928932 0.928935 0.92898 0.929067 0.929194 0.929191 0.929249 0.929203 0.929196 0.929077 0.928169 0.923698 0.910201 0.878413 0.818547 0.727233 0.607114 0.468127 0.32683 0.201808 0.108465 0.050821 0.0214248 0.00850832 0.00328101 0.00124884 0.000472539 0.000178236 6.70799e-05 2.51957e-05 9.44429e-06 3.53215e-06 1.31773e-06 4.90242e-07 1.81826e-07 6.72077e-08 2.47492e-08 9.07629e-09 3.31381e-09 1.20403e-09 4.35042e-10 1.56475e-10 5.54631e-11 1.98271e-11 6.59386e-12 2.1089e-12 8.37381e-13 2.74593e-13 2.94789e-13 -2.33541e-13 1.02567e-12 6.80567e-13 -7.13738e-13 7.91673e-13 -7.6547e-14 0 0 -1.36731e-14 1.5318e-15 2.4445e-14 -1.0721e-14 -2.96913e-14 5.41234e-14 -4.19504e-14 -6.78023e-15 9.67865e-15 -1.89026e-14 1.34492e-13 -1.52852e-14 -1.32985e-13 3.05687e-14 -4.53551e-14 -6.12477e-14 -1.24141e-13 -3.40403e-15 -7.6209e-14 -9.58746e-14 -9.40435e-14 1.76009e-14 -1.15475e-13 -9.30567e-14 -1.06585e-13 -1.73944e-15 -9.45311e-14 -2.67168e-13 6.19349e-14 -1.63158e-13 -1.3759e-13 -2.79901e-13 -1.97908e-13 -5.7913e-14 -2.27222e-13 2.63916e-15 7.18726e-15 -7.3494e-15 5.85745e-14 2.8153e-13 1.77635e-12 1.28537e-11 7.60546e-11 4.25849e-10 2.26145e-09 1.13659e-08 5.39999e-08 2.41839e-07 1.01802e-06 4.01465e-06 1.47757e-05 5.05287e-05 0.000159734 0.000464066 0.00123111 0.00296343 0.00644093 0.0126117 0.0222822 0.0357552 0.0526863 0.0722832 0.0936716 0.11616 0.139302 0.162831 0.186613 0.210576 0.234663 0.25883 0.283041 0.307264 0.331477 0.35567 0.379832 0.403954 0.428027 0.452043 0.475994 0.49987 0.523661 0.547358 0.570949 0.594421 0.61776 0.640952 0.663979 0.686823 0.709464 0.731882 0.754056 0.775966 0.797592 0.818924 0.839958 0.860707 0.881204 0.9015 0.921974 0.939629 0.939874 0.939526 0.938692 0.937621 0.936419 0.935156 0.93392 0.932756 0.931666 0.930747 0.929954 0.929272 0.928711 0.928283 0.92804 0.927833 0.927712 0.927615 0.927532 0.927481 0.927423 0.927376 0.927332 0.9273 0.92729 0.927202 0.927313 0.927135 0.928391 0.909848 0.938581 0.922793 0.927131 0.928132 0.928992 0.929028 0.928954 0.928842 0.928763 0.928681 0.928803 0.928951 0.928957 0.928946 0.928932 0.928935 0.92898 0.929067 0.929194 0.929191 0.929249 0.929203 0.929196 0.929077 0.928169 0.923698 0.910201 0.878413 0.818547 0.727233 0.607114 0.468127 0.32683 0.201808 0.108465 0.050821 0.0214248 0.00850832 0.00328101 0.00124884 0.000472539 0.000178236 6.70799e-05 2.51957e-05 9.44429e-06 3.53215e-06 1.31773e-06 4.90242e-07 1.81826e-07 6.72082e-08 2.4749e-08 9.07649e-09 3.31378e-09 1.2039e-09 4.35013e-10 1.55961e-10 5.59189e-11 1.95307e-11 6.87909e-12 2.20636e-12 5.48979e-13 7.11627e-13 2.58673e-13 5.24734e-13 -2.56588e-13 2.40182e-13 6.42472e-13 -4.03662e-13 2.31186e-13 0 0 -5.64605e-15 -1.08035e-14 -1.15924e-14 -2.29584e-14 -3.59084e-14 -8.26334e-15 -1.32504e-14 1.65606e-14 4.97644e-14 -1.94367e-14 -3.44135e-14 2.75942e-14 2.73763e-14 -1.31417e-13 7.79722e-14 -3.50692e-14 -2.59154e-14 -7.99321e-14 -5.29191e-14 2.26538e-14 -7.40543e-14 -1.55145e-13 -3.28304e-14 -5.90409e-14 -1.3871e-14 -1.95787e-13 -9.43571e-14 -1.50756e-13 -2.23879e-13 2.8144e-14 -1.38838e-13 -4.09232e-14 -3.62678e-13 -1.00876e-13 -4.37993e-14 -7.33086e-14 -4.62393e-14 -7.5025e-14 1.29043e-14 2.61247e-14 2.08149e-12 1.28869e-11 7.60926e-11 4.26074e-10 2.26108e-09 1.13664e-08 5.39996e-08 2.41839e-07 1.01802e-06 4.01465e-06 1.47757e-05 5.05287e-05 0.000159734 0.000464066 0.00123111 0.00296343 0.00644093 0.0126117 0.0222822 0.0357552 0.0526863 0.0722832 0.0936716 0.11616 0.139302 0.162831 0.186613 0.210576 0.234663 0.25883 0.283041 0.307264 0.331477 0.35567 0.379832 0.403954 0.428027 0.452043 0.475994 0.49987 0.523661 0.547358 0.570949 0.594421 0.61776 0.640952 0.663979 0.686823 0.709464 0.731882 0.754056 0.775966 0.797592 0.818924 0.839958 0.860707 0.881204 0.9015 0.921974 0.939629 0.939874 0.939526 0.938692 0.937621 0.936419 0.935156 0.93392 0.932756 0.931666 0.930747 0.929954 0.929272 0.928711 0.928283 0.92804 0.927833 0.927712 0.927615 0.927532 0.927481 0.927423 0.927376 0.927332 0.9273 0.92729 0.927202 0.927313 0.927135 0.928391 0.909848 0.938581 0.922793 0.927131 0.928132 0.928992 0.929028 0.928954 0.928842 0.928763 0.928681 0.928803 0.928951 0.928957 0.928946 0.928932 0.928935 0.92898 0.929067 0.929194 0.929191 0.929249 0.929203 0.929196 0.929077 0.928169 0.923698 0.910201 0.878413 0.818547 0.727233 0.607114 0.468127 0.32683 0.201808 0.108465 0.050821 0.0214248 0.00850832 0.00328101 0.00124884 0.000472539 0.000178236 6.70799e-05 2.51957e-05 9.44429e-06 3.53215e-06 1.31773e-06 4.90242e-07 1.81826e-07 6.72081e-08 2.4749e-08 9.07651e-09 3.31358e-09 1.20413e-09 4.35191e-10 1.56511e-10 5.5386e-11 1.94628e-11 6.86381e-12 2.36164e-12 7.35253e-13 5.24426e-13 5.98239e-13 4.02422e-14 2.26941e-13 -1.57708e-13 -7.50234e-13 6.64363e-13 -7.44862e-14 0 0 -1.01053e-14 -1.94514e-14 -3.11628e-14 -3.10313e-14 -1.15205e-14 -5.42041e-14 -2.92842e-14 4.47338e-15 -1.12817e-14 4.48129e-14 -1.29167e-14 4.27879e-14 2.94012e-14 -2.88559e-14 2.10909e-15 -4.38213e-14 -3.36326e-14 -1.89327e-15 -2.87112e-14 -1.54189e-13 2.04193e-14 -1.52132e-14 -8.1072e-14 6.70487e-14 -1.57045e-13 -1.95128e-13 -1.77893e-13 -5.37371e-14 -1.66025e-13 -1.3319e-13 -8.36052e-14 5.11091e-14 -1.87796e-13 -3.5331e-13 3.72034e-14 -2.72002e-15 -1.33744e-13 -1.01734e-14 1.21803e-13 -3.24305e-14 1.92196e-12 1.29676e-11 7.63198e-11 4.26118e-10 2.2611e-09 1.13663e-08 5.39996e-08 2.41839e-07 1.01802e-06 4.01465e-06 1.47757e-05 5.05287e-05 0.000159734 0.000464066 0.00123111 0.00296343 0.00644093 0.0126117 0.0222822 0.0357552 0.0526863 0.0722832 0.0936716 0.11616 0.139302 0.162831 0.186613 0.210576 0.234663 0.25883 0.283041 0.307264 0.331477 0.35567 0.379832 0.403954 0.428027 0.452043 0.475994 0.49987 0.523661 0.547358 0.570949 0.594421 0.61776 0.640952 0.663979 0.686823 0.709464 0.731882 0.754056 0.775966 0.797592 0.818924 0.839958 0.860707 0.881204 0.9015 0.921974 0.939629 0.939874 0.939526 0.938692 0.937621 0.936419 0.935156 0.93392 0.932756 0.931666 0.930747 0.929954 0.929272 0.928711 0.928283 0.92804 0.927833 0.927712 0.927615 0.927532 0.927481 0.927423 0.927376 0.927332 0.9273 0.92729 0.927202 0.927313 0.927135 0.928391 0.909848 0.938581 0.922793 0.927131 0.928132 0.928992 0.929028 0.928954 0.928842 0.928763 0.928681 0.928803 0.928951 0.928957 0.928946 0.928932 0.928935 0.92898 0.929067 0.929194 0.929191 0.929249 0.929203 0.929196 0.929077 0.928169 0.923698 0.910201 0.878413 0.818547 0.727233 0.607114 0.468127 0.32683 0.201808 0.108465 0.050821 0.0214248 0.00850832 0.00328101 0.00124884 0.000472539 0.000178236 6.70799e-05 2.51957e-05 9.44429e-06 3.53215e-06 1.31773e-06 4.90242e-07 1.81826e-07 6.72081e-08 2.4749e-08 9.07663e-09 3.31396e-09 1.20409e-09 4.34995e-10 1.56481e-10 5.56045e-11 2.00499e-11 6.69997e-12 2.30853e-12 3.379e-13 6.16873e-13 -1.29039e-14 -7.10629e-13 7.50102e-14 4.89061e-13 -5.76914e-13 1.76515e-13 -6.84181e-13 0 0 -2.04034e-14 -2.5879e-14 -9.08782e-15 -2.58472e-14 -5.40571e-14 -1.39154e-14 -3.59449e-14 1.15279e-14 -1.20799e-14 -1.68203e-14 1.27971e-13 -1.26115e-14 -7.24537e-14 1.22075e-13 -6.45237e-14 3.11042e-14 -4.62253e-14 1.25081e-13 -5.92686e-14 -1.83293e-13 -1.88966e-14 4.3107e-14 -1.59986e-13 3.37773e-14 -2.10495e-13 -5.13163e-14 -6.86539e-14 -3.05433e-13 1.82172e-13 -2.8659e-13 -6.94616e-14 -2.62812e-13 3.33642e-14 -5.77134e-14 -3.07946e-13 -6.27038e-14 5.22907e-14 -6.30884e-14 1.6929e-14 1.68461e-13 1.58484e-12 1.2949e-11 7.64461e-11 4.2608e-10 2.26149e-09 1.13659e-08 5.40001e-08 2.41839e-07 1.01802e-06 4.01465e-06 1.47757e-05 5.05287e-05 0.000159734 0.000464066 0.00123111 0.00296343 0.00644093 0.0126117 0.0222822 0.0357552 0.0526863 0.0722832 0.0936716 0.11616 0.139302 0.162831 0.186613 0.210576 0.234663 0.25883 0.283041 0.307264 0.331477 0.35567 0.379832 0.403954 0.428027 0.452043 0.475994 0.49987 0.523661 0.547358 0.570949 0.594421 0.61776 0.640952 0.663979 0.686823 0.709464 0.731882 0.754056 0.775966 0.797592 0.818924 0.839958 0.860707 0.881204 0.9015 0.921974 0.939629 0.939874 0.939526 0.938692 0.937621 0.936419 0.935156 0.93392 0.932756 0.931666 0.930747 0.929954 0.929272 0.928711 0.928283 0.92804 0.927833 0.927712 0.927615 0.927532 0.927481 0.927423 0.927376 0.927332 0.9273 0.92729 0.927202 0.927313 0.927135 0.928391 0.909848 0.938581 0.922793 0.927131 0.928132 0.928992 0.929028 0.928954 0.928842 0.928763 0.928681 0.928803 0.928951 0.928957 0.928946 0.928932 0.928935 0.92898 0.929067 0.929194 0.929191 0.929249 0.929203 0.929196 0.929077 0.928169 0.923698 0.910201 0.878413 0.818547 0.727233 0.607114 0.468127 0.32683 0.201808 0.108465 0.050821 0.0214248 0.00850832 0.00328101 0.00124884 0.000472539 0.000178236 6.70799e-05 2.51957e-05 9.44429e-06 3.53215e-06 1.31773e-06 4.90242e-07 1.81826e-07 6.72086e-08 2.47491e-08 9.07664e-09 3.31406e-09 1.20404e-09 4.34695e-10 1.56167e-10 5.63409e-11 1.96765e-11 6.93301e-12 1.51389e-12 4.31368e-13 2.46976e-13 -2.62202e-13 -2.74763e-13 -8.37123e-13 -9.93304e-14 8.65447e-13 -9.57222e-13 -2.17183e-13 0 0 -9.55326e-15 -3.42948e-14 -3.26349e-14 1.81882e-14 -5.71636e-14 -6.89736e-14 2.78021e-14 6.05164e-14 8.20729e-14 -4.40535e-14 -1.42127e-13 3.39376e-14 1.50462e-13 -1.5264e-13 8.86227e-14 9.26291e-14 7.05694e-14 -2.07531e-14 -4.84147e-14 1.24997e-13 -2.74174e-14 -3.28517e-13 -1.05138e-13 -9.0801e-14 5.72399e-14 -2.8166e-13 3.03271e-14 -3.25313e-13 1.35107e-14 1.33339e-13 -1.68696e-13 -3.33915e-13 -5.01255e-15 6.67897e-14 -3.11566e-13 -3.41947e-13 1.91468e-13 -6.63811e-14 -1.8599e-13 -7.40459e-14 2.03757e-12 1.27987e-11 7.63385e-11 4.26327e-10 2.26089e-09 1.13668e-08 5.39995e-08 2.4184e-07 1.01802e-06 4.01465e-06 1.47757e-05 5.05287e-05 0.000159734 0.000464066 0.00123111 0.00296343 0.00644093 0.0126117 0.0222822 0.0357552 0.0526863 0.0722832 0.0936716 0.11616 0.139302 0.162831 0.186613 0.210576 0.234663 0.25883 0.283041 0.307264 0.331477 0.35567 0.379832 0.403954 0.428027 0.452043 0.475994 0.49987 0.523661 0.547358 0.570949 0.594421 0.61776 0.640952 0.663979 0.686823 0.709464 0.731882 0.754056 0.775966 0.797592 0.818924 0.839958 0.860707 0.881204 0.9015 0.921974 0.939629 0.939874 0.939526 0.938691 0.937621 0.936419 0.935156 0.93392 0.932756 0.931666 0.930747 0.929954 0.929272 0.928711 0.928283 0.92804 0.927833 0.927712 0.927615 0.927532 0.927481 0.927423 0.927376 0.927332 0.9273 0.92729 0.927202 0.927313 0.927135 0.928391 0.909848 0.938581 0.922793 0.927131 0.928132 0.928992 0.929028 0.928954 0.928842 0.928763 0.928681 0.928803 0.928951 0.928957 0.928946 0.928932 0.928935 0.92898 0.929067 0.929194 0.929191 0.929249 0.929203 0.929196 0.929077 0.928169 0.923698 0.910201 0.878413 0.818547 0.727233 0.607114 0.468127 0.32683 0.201808 0.108465 0.050821 0.0214248 0.00850832 0.00328101 0.00124884 0.000472539 0.000178236 6.70799e-05 2.51957e-05 9.44429e-06 3.53215e-06 1.31773e-06 4.90243e-07 1.81826e-07 6.72086e-08 2.47493e-08 9.07635e-09 3.31363e-09 1.20438e-09 4.34798e-10 1.56948e-10 5.587e-11 1.89446e-11 7.02939e-12 8.30196e-13 1.39686e-12 -8.39603e-13 4.75325e-13 -3.30792e-13 1.68466e-13 -1.292e-12 -6.14427e-13 6.60251e-13 2.46103e-13 0
				</DataArray>
				<DataArray Name="VitesseY" type="Float32" format="ascii">