<?xml version="1.0"?>
<VTKFile type="PolyData">
	<PolyData>
		<Piece NumberOfPoints="1206" NumberOfPolys="1000">
			<Points>
				<DataArray type="Float32" NumberOfComponents="3" format="ascii">
 0 0 0 0.005 0 0 0.01 0 0 0.015 0 0 0.02 0 0 0.025 0 0 0.03 0 0 0.035 0 0 0.04 0 0 0.045 0 0 0.05 0 0 0.055 0 0 0.06 0 0 0.065 0 0 0.07 0 0 0.075 0 0 0.08 0 0 0.085 0 0 0.09 0 0 0.095 0 0 0.1 0 0 0.105 0 0 0.11 0 0 0.115 0 0 0.12 0 0 0.125 0 0 0.13 0 0 0.135 0 0 0.14 0 0 0.145 0 0 0.15 0 0 0.155 0 0 0.16 0 0 0.165 0 0 0.17 0 0 0.175 0 0 0.18 0 0 0.185 0 0 0.19 0 0 0.195 0 0 0.2 0 0 0.205 0 0 0.21 0 0 0.215 0 0 0.22 0 0 0.225 0 0 0.23 0 0 0.235 0 0 0.24 0 0 0.245 0 0 0.25 0 0 0.255 0 0 0.26 0 0 0.265 0 0 0.27 0 0 0.275 0 0 0.28 0 0 0.285 0 0 0.29 0 0 0.295 0 0 0.3 0 0 0.305 0 0 0.31 0 0 0.315 0 0 0.32 0 0 0.325 0 0 0.33 0 0 0.335 0 0 0.34 0 0 0.345 0 0 0.35 0 0 0.355 0 0 0.36 0 0 0.365 0 0 0.37 0 0 0.375 0 0 0.38 0 0 0.385 0 0 0.39 0 0 0.395 0 0 0.4 0 0 0.405 0 0 0.41 0 0 0.415 0 0 0.42 0 0 0.425 0 0 0.43 0 0 0.435 0 0 0.44 0 0 0.445 0 0 0.45 0 0 0.455 0 0 0.46 0 0 0.465 0 0 0.47 0 0 0.475 0 0 0.48 0 0 0.485 0 0 0.49 0 0 0.495 0 0 0.5 0 0 0.505 0 0 0.51 0 0 0.515 0 0 0.52 0 0 0.525 0 0 0.53 0 0 0.535 0 0 0.54 0 0 0.545 0 0 0.55 0 0 0.555 0 0 0.56 0 0 0.565 0 0 0.57 0 0 0.575 0 0 0.58 0 0 0.585 0 0 0.59 0 0 0.595 0 0 0.6 0 0 0.605 0 0 0.61 0 0 0.615 0 0 0.62 0 0 0.625 0 0 0.63 0 0 0.635 0 0 0.64 0 0 0.645 0 0 0.65 0 0 0.655 0 0 0.66 0 0 0.665 0 0 0.67 0 0 0.675 0 0 0.68 0 0 0.685 0 0 0.69 0 0 0.695 0 0 0.7 0 0 0.705 0 0 0.71 0 0 0.715 0 0 0.72 0 0 0.725 0 0 0.73 0 0 0.735 0 0 0.74 0 0 0.745 0 0 0.75 0 0 0.755 0 0 0.76 0 0 0.765 0 0 0.77 0 0 0.775 0 0 0.78 0 0 0.785 0 0 0.79 0 0 0.795 0 0 0.8 0 0 0.805 0 0 0.81 0 0 0.815 0 0 0.82 0 0 0.825 0 0 0.83 0 0 0.835 0 0 0.84 0 0 0.845 0 0 0.85 0 0 0.855 0 0 0.86 0 0 0.865 0 0 0.87 0 0 0.875 0 0 0.88 0 0 0.885 0 0 0.89 0 0 0.895 0 0 0.9 0 0 0.905 0 0 0.91 0 0 0.915 0 0 0.92 0 0 0.925 0 0 0.93 0 0 0.935 0 0 0.94 0 0 0.945 0 0 0.95 0 0 0.955 0 0 0.96 0 0 0.965 0 0 0.97 0 0 0.975 0 0 0.98 0 0 0.985 0 0 0.99 0 0 0.995 0 0 1 0 0 0 0.02 0 0.005 0.02 0 0.01 0.02 0 0.015 0.02 0 0.02 0.02 0 0.025 0.02 0 0.03 0.02 0 0.035 0.02 0 0.04 0.02 0 0.045 0.02 0 0.05 0.02 0 0.055 0.02 0 0.06 0.02 0 0.065 0.02 0 0.07 0.02 0 0.075 0.02 0 0.08 0.02 0 0.085 0.02 0 0.09 0.02 0 0.095 0.02 0 0.1 0.02 0 0.105 0.02 0 0.11 0.02 0 0.115 0.02 0 0.12 0.02 0 0.125 0.02 0 0.13 0.02 0 0.135 0.02 0 0.14 0.02 0 0.145 0.02 0 0.15 0.02 0 0.155 0.02 0 0.16 0.02 0 0.165 0.02 0 0.17 0.02 0 0.175 0.02 0 0.18 0.02 0 0.185 0.02 0 0.19 0.02 0 0.195 0.02 0 0.2 0.02 0 0.205 0.02 0 0.21 0.02 0 0.215 0.02 0 0.22 0.02 0 0.225 0.02 0 0.23 0.02 0 0.235 0.02 0 0.24 0.02 0 0.245 0.02 0 0.25 0.02 0 0.255 0.02 0 0.26 0.02 0 0.265 0.02 0 0.27 0.02 0 0.275 0.02 0 0.28 0.02 0 0.285 0.02 0 0.29 0.02 0 0.295 0.02 0 0.3 0.02 0 0.305 0.02 0 0.31 0.02 0 0.315 0.02 0 0.32 0.02 0 0.325 0.02 0 0.33 0.02 0 0.335 0.02 0 0.34 0.02 0 0.345 0.02 0 0.35 0.02 0 0.355 0.02 0 0.36 0.02 0 0.365 0.02 0 0.37 0.02 0 0.375 0.02 0 0.38 0.02 0 0.385 0.02 0 0.39 0.02 0 0.395 0.02 0 0.4 0.02 0 0.405 0.02 0 0.41 0.02 0 0.415 0.02 0 0.42 0.02 0 0.425 0.02 0 0.43 0.02 0 0.435 0.02 0 0.44 0.02 0 0.445 0.02 0 0.45 0.02 0 0.455 0.02 0 0.46 0.02 0 0.465 0.02 0 0.47 0.02 0 0.475 0.02 0 0.48 0.02 0 0.485 0.02 0 0.49 0.02 0 0.495 0.02 0 0.5 0.02 0 0.505 0.02 0 0.51 0.02 0 0.515 0.02 0 0.52 0.02 0 0.525 0.02 0 0.53 0.02 0 0.535 0.02 0 0.54 0.02 0 0.545 0.02 0 0.55 0.02 0 0.555 0.02 0 0.56 0.02 0 0.565 0.02 0 0.57 0.02 0 0.575 0.02 0 0.58 0.02 0 0.585 0.02 0 0.59 0.02 0 0.595 0.02 0 0.6 0.02 0 0.605 0.02 0 0.61 0.02 0 0.615 0.02 0 0.62 0.02 0 0.625 0.02 0 0.63 0.02 0 0.635 0.02 0 0.64 0.02 0 0.645 0.02 0 0.65 0.02 0 0.655 0.02 0 0.66 0.02 0 0.665 0.02 0 0.67 0.02 0 0.675 0.02 0 0.68 0.02 0 0.685 0.02 0 0.69 0.02 0 0.695 0.02 0 0.7 0.02 0 0.705 0.02 0 0.71 0.02 0 0.715 0.02 0 0.72 0.02 0 0.725 0.02 0 0.73 0.02 0 0.735 0.02 0 0.74 0.02 0 0.745 0.02 0 0.75 0.02 0 0.755 0.02 0 0.76 0.02 0 0.765 0.02 0 0.77 0.02 0 0.775 0.02 0 0.78 0.02 0 0.785 0.02 0 0.79 0.02 0 0.795 0.02 0 0.8 0.02 0 0.805 0.02 0 0.81 0.02 0 0.815 0.02 0 0.82 0.02 0 0.825 0.02 0 0.83 0.02 0 0.835 0.02 0 0.84 0.02 0 0.845 0.02 0 0.85 0.02 0 0.855 0.02 0 0.86 0.02 0 0.865 0.02 0 0.87 0.02 0 0.875 0.02 0 0.88 0.02 0 0.885 0.02 0 0.89 0.02 0 0.895 0.02 0 0.9 0.02 0 0.905 0.02 0 0.91 0.02 0 0.915 0.02 0 0.92 0.02 0 0.925 0.02 0 0.93 0.02 0 0.935 0.02 0 0.94 0.02 0 0.945 0.02 0 0.95 0.02 0 0.955 0.02 0 0.96 0.02 0 0.965 0.02 0 0.97 0.02 0 0.975 0.02 0 0.98 0.02 0 0.985 0.02 0 0.99 0.02 0 0.995 0.02 0 1 0.02 0 0 0.04 0 0.005 0.04 0 0.01 0.04 0 0.015 0.04 0 0.02 0.04 0 0.025 0.04 0 0.03 0.04 0 0.035 0.04 0 0.04 0.04 0 0.045 0.04 0 0.05 0.04 0 0.055 0.04 0 0.06 0.04 0 0.065 0.04 0 0.07 0.04 0 0.075 0.04 0 0.08 0.04 0 0.085 0.04 0 0.09 0.04 0 0.095 0.04 0 0.1 0.04 0 0.105 0.04 0 0.11 0.04 0 0.115 0.04 0 0.12 0.04 0 0.125 0.04 0 0.13 0.04 0 0.135 0.04 0 0.14 0.04 0 0.145 0.04 0 0.15 0.04 0 0.155 0.04 0 0.16 0.04 0 0.165 0.04 0 0.17 0.04 0 0.175 0.04 0 0.18 0.04 0 0.185 0.04 0 0.19 0.04 0 0.195 0.04 0 0.2 0.04 0 0.205 0.04 0 0.21 0.04 0 0.215 0.04 0 0.22 0.04 0 0.225 0.04 0 0.23 0.04 0 0.235 0.04 0 0.24 0.04 0 0.245 0.04 0 0.25 0.04 0 0.255 0.04 0 0.26 0.04 0 0.265 0.04 0 0.27 0.04 0 0.275 0.04 0 0.28 0.04 0 0.285 0.04 0 0.29 0.04 0 0.295 0.04 0 0.3 0.04 0 0.305 0.04 0 0.31 0.04 0 0.315 0.04 0 0.32 0.04 0 0.325 0.04 0 0.33 0.04 0 0.335 0.04 0 0.34 0.04 0 0.345 0.04 0 0.35 0.04 0 0.355 0.04 0 0.36 0.04 0 0.365 0.04 0 0.37 0.04 0 0.375 0.04 0 0.38 0.04 0 0.385 0.04 0 0.39 0.04 0 0.395 0.04 0 0.4 0.04 0 0.405 0.04 0 0.41 0.04 0 0.415 0.04 0 0.42 0.04 0 0.425 0.04 0 0.43 0.04 0 0.435 0.04 0 0.44 0.04 0 0.445 0.04 0 0.45 0.04 0 0.455 0.04 0 0.46 0.04 0 0.465 0.04 0 0.47 0.04 0 0.475 0.04 0 0.48 0.04 0 0.485 0.04 0 0.49 0.04 0 0.495 0.04 0 0.5 0.04 0 0.505 0.04 0 0.51 0.04 0 0.515 0.04 0 0.52 0.04 0 0.525 0.04 0 0.53 0.04 0 0.535 0.04 0 0.54 0.04 0 0.545 0.04 0 0.55 0.04 0 0.555 0.04 0 0.56 0.04 0 0.565 0.04 0 0.57 0.04 0 0.575 0.04 0 0.58 0.04 0 0.585 0.04 0 0.59 0.04 0 0.595 0.04 0 0.6 0.04 0 0.605 0.04 0 0.61 0.04 0 0.615 0.04 0 0.62 0.04 0 0.625 0.04 0 0.63 0.04 0 0.635 0.04 0 0.64 0.04 0 0.645 0.04 0 0.65 0.04 0 0.655 0.04 0 0.66 0.04 0 0.665 0.04 0 0.67 0.04 0 0.675 0.04 0 0.68 0.04 0 0.685 0.04 0 0.69 0.04 0 0.695 0.04 0 0.7 0.04 0 0.705 0.04 0 0.71 0.04 0 0.715 0.04 0 0.72 0.04 0 0.725 0.04 0 0.73 0.04 0 0.735 0.04 0 0.74 0.04 0 0.745 0.04 0 0.75 0.04 0 0.755 0.04 0 0.76 0.04 0 0.765 0.04 0 0.77 0.04 0 0.775 0.04 0 0.78 0.04 0 0.785 0.04 0 0.79 0.04 0 0.795 0.04 0 0.8 0.04 0 0.805 0.04 0 0.81 0.04 0 0.815 0.04 0 0.82 0.04 0 0.825 0.04 0 0.83 0.04 0 0.835 0.04 0 0.84 0.04 0 0.845 0.04 0 0.85 0.04 0 0.855 0.04 0 0.86 0.04 0 0.865 0.04 0 0.87 0.04 0 0.875 0.04 0 0.88 0.04 0 0.885 0.04 0 0.89 0.04 0 0.895 0.04 0 0.9 0.04 0 0.905 0.04 0 0.91 0.04 0 0.915 0.04 0 0.92 0.04 0 0.925 0.04 0 0.93 0.04 0 0.935 0.04 0 0.94 0.04 0 0.945 0.04 0 0.95 0.04 0 0.955 0.04 0 0.96 0.04 0 0.965 0.04 0 0.97 0.04 0 0.975 0.04 0 0.98 0.04 0 0.985 0.04 0 0.99 0.04 0 0.995 0.04 0 1 0.04 0 0 0.06 0 0.005 0.06 0 0.01 0.06 0 0.015 0.06 0 0.02 0.06 0 0.025 0.06 0 0.03 0.06 0 0.035 0.06 0 0.04 0.06 0 0.045 0.06 0 0.05 0.06 0 0.055 0.06 0 0.06 0.06 0 0.065 0.06 0 0.07 0.06 0 0.075 0.06 0 0.08 0.06 0 0.085 0.06 0 0.09 0.06 0 0.095 0.06 0 0.1 0.06 0 0.105 0.06 0 0.11 0.06 0 0.115 0.06 0 0.12 0.06 0 0.125 0.06 0 0.13 0.06 0 0.135 0.06 0 0.14 0.06 0 0.145 0.06 0 0.15 0.06 0 0.155 0.06 0 0.16 0.06 0 0.165 0.06 0 0.17 0.06 0 0.175 0.06 0 0.18 0.06 0 0.185 0.06 0 0.19 0.06 0 0.195 0.06 0 0.2 0.06 0 0.205 0.06 0 0.21 0.06 0 0.215 0.06 0 0.22 0.06 0 0.225 0.06 0 0.23 0.06 0 0.235 0.06 0 0.24 0.06 0 0.245 0.06 0 0.25 0.06 0 0.255 0.06 0 0.26 0.06 0 0.265 0.06 0 0.27 0.06 0 0.275 0.06 0 0.28 0.06 0 0.285 0.06 0 0.29 0.06 0 0.295 0.06 0 0.3 0.06 0 0.305 0.06 0 0.31 0.06 0 0.315 0.06 0 0.32 0.06 0 0.325 0.06 0 0.33 0.06 0 0.335 0.06 0 0.34 0.06 0 0.345 0.06 0 0.35 0.06 0 0.355 0.06 0 0.36 0.06 0 0.365 0.06 0 0.37 0.06 0 0.375 0.06 0 0.38 0.06 0 0.385 0.06 0 0.39 0.06 0 0.395 0.06 0 0.4 0.06 0 0.405 0.06 0 0.41 0.06 0 0.415 0.06 0 0.42 0.06 0 0.425 0.06 0 0.43 0.06 0 0.435 0.06 0 0.44 0.06 0 0.445 0.06 0 0.45 0.06 0 0.455 0.06 0 0.46 0.06 0 0.465 0.06 0 0.47 0.06 0 0.475 0.06 0 0.48 0.06 0 0.485 0.06 0 0.49 0.06 0 0.495 0.06 0 0.5 0.06 0 0.505 0.06 0 0.51 0.06 0 0.515 0.06 0 0.52 0.06 0 0.525 0.06 0 0.53 0.06 0 0.535 0.06 0 0.54 0.06 0 0.545 0.06 0 0.55 0.06 0 0.555 0.06 0 0.56 0.06 0 0.565 0.06 0 0.57 0.06 0 0.575 0.06 0 0.58 0.06 0 0.585 0.06 0 0.59 0.06 0 0.595 0.06 0 0.6 0.06 0 0.605 0.06 0 0.61 0.06 0 0.615 0.06 0 0.62 0.06 0 0.625 0.06 0 0.63 0.06 0 0.635 0.06 0 0.64 0.06 0 0.645 0.06 0 0.65 0.06 0 0.655 0.06 0 0.66 0.06 0 0.665 0.06 0 0.67 0.06 0 0.675 0.06 0 0.68 0.06 0 0.685 0.06 0 0.69 0.06 0 0.695 0.06 0 0.7 0.06 0 0.705 0.06 0 0.71 0.06 0 0.715 0.06 0 0.72 0.06 0 0.725 0.06 0 0.73 0.06 0 0.735 0.06 0 0.74 0.06 0 0.745 0.06 0 0.75 0.06 0 0.755 0.06 0 0.76 0.06 0 0.765 0.06 0 0.77 0.06 0 0.775 0.06 0 0.78 0.06 0 0.785 0.06 0 0.79 0.06 0 0.795 0.06 0 0.8 0.06 0 0.805 0.06 0 0.81 0.06 0 0.815 0.06 0 0.82 0.06 0 0.825 0.06 0 0.83 0.06 0 0.835 0.06 0 0.84 0.06 0 0.845 0.06 0 0.85 0.06 0 0.855 0.06 0 0.86 0.06 0 0.865 0.06 0 0.87 0.06 0 0.875 0.06 0 0.88 0.06 0 0.885 0.06 0 0.89 0.06 0 0.895 0.06 0 0.9 0.06 0 0.905 0.06 0 0.91 0.06 0 0.915 0.06 0 0.92 0.06 0 0.925 0.06 0 0.93 0.06 0 0.935 0.06 0 0.94 0.06 0 0.945 0.06 0 0.95 0.06 0 0.955 0.06 0 0.96 0.06 0 0.965 0.06 0 0.97 0.06 0 0.975 0.06 0 0.98 0.06 0 0.985 0.06 0 0.99 0.06 0 0.995 0.06 0 1 0.06 0 0 0.08 0 0.005 0.08 0 0.01 0.08 0 0.015 0.08 0 0.02 0.08 0 0.025 0.08 0 0.03 0.08 0 0.035 0.08 0 0.04 0.08 0 0.045 0.08 0 0.05 0.08 0 0.055 0.08 0 0.06 0.08 0 0.065 0.08 0 0.07 0.08 0 0.075 0.08 0 0.08 0.08 0 0.085 0.08 0 0.09 0.08 0 0.095 0.08 0 0.1 0.08 0 0.105 0.08 0 0.11 0.08 0 0.115 0.08 0 0.12 0.08 0 0.125 0.08 0 0.13 0.08 0 0.135 0.08 0 0.14 0.08 0 0.145 0.08 0 0.15 0.08 0 0.155 0.08 0 0.16 0.08 0 0.165 0.08 0
[...]
			<PointData Scalars="VitesseX">
				<DataArray Name="VitesseX" type="Float32" format="ascii">
 0 -4.86811e-15 -7.61601e-15 3.3113e-14 5.74061e-15 -4.8537e-14 -2.82652e-14 1.05639e-14 1.46904e-14 7.31616e-14 -6.88722e-14 -1.5599e-14 -1.83568e-13 3.79125e-15 -1.97026e-13 1.02741e-16 1.06444e-13 -1.0497e-13 -6.41567e-15 -8.93318e-14 -1.37031e-13 4.22671e-14 -1.42348e-13 -3.71138e-15 -3.38291e-13 6.18748e-14 -2.01586e-13 -2.7721e-15 -1.53396e-13 -1.65094e-14 -1.04814e-13 2.85518e-14 3.93089e-14 -1.02391e-13 -1.88876e-13 -1.85579e-13 -1.36686e-13 -1.89127e-13 -1.78761e-13 -4.16972e-13 2.68815e-14 -2.84921e-13 -1.58282e-13 2.12531e-13 -1.92476e-13 2.512e-13 1.91221e-13 -4.64425e-13 4.27243e-13 1.62911e-13 -1.00013e-13 -1.25441e-13 -2.93522e-13 -5.27338e-13 -1.19566e-13 2.00081e-12 1.78933e-11 1.27903e-10 8.64353e-10 5.46864e-09 3.2316e-08 1.77754e-07 9.06538e-07 4.26726e-06 1.84419e-05 7.27185e-05 0.000259697 0.00083287 0.0023768 0.00598519 0.0132375 0.0257358 0.0443039 0.0685076 0.0969656 0.12813 0.160841 0.194379 0.228383 0.262663 0.297056 0.331445 0.36578 0.400016 0.434122 0.468062 0.501802 0.535305 0.568531 0.601433 0.63396 0.666056 0.697655 0.728689 0.759085 0.788774 0.817703 0.845848 0.873228 0.899908 0.926591 0.941655 0.9414 0.940467 0.93923 0.937728 0.93618 0.934662 0.933258 0.93203 0.931027 0.930123 0.929506 0.928956 0.928488 0.928165 0.927868 0.927651 0.927815 0.926978 0.917289 0.929145 0.925155 0.930565 0.92705 0.928374 0.929713 0.92976 0.929768 0.929773 0.929789 0.929731 0.929575 0.929376 0.929199 0.929096 0.929016 0.928761 0.925991 0.915024 0.886864 0.830542 0.742265 0.623903 0.484931 0.341634 0.213 0.115447 0.0543225 0.022846 0.00899954 0.00342869 0.00128541 0.000477708 0.000176447 6.48141e-05 2.36736e-05 8.59417e-06 3.09917e-06 1.10952e-06 3.94108e-07 1.38818e-07 4.84614e-08 1.67594e-08 5.73829e-09 1.94478e-09 6.51618e-10 2.15784e-10 7.08425e-11 2.23602e-11 6.88885e-12 1.98932e-12 2.13377e-13 2.95769e-13 -8.40808e-13 1.81292e-13 2.7919e-14 -2.09522e-13 7.72268e-14 1.73767e-13 -3.60414e-15 -2.43815e-13 2.26017e-13 -7.42208e-13 1.23705e-13 -2.99562e-13 -2.16698e-13 2.46823e-13 -2.9831e-13 -9.24235e-13 8.4683e-13 3.93702e-14 3.70175e-13 5.82267e-13 5.64109e-13 7.43525e-13 -2.10675e-13 4.1951e-13 2.16365e-13 -2.33539e-13 0 0 -2.82776e-15 1.31591e-14 -1.77742e-14 -5.02017e-16 4.49863e-14 3.5117e-14 -3.43959e-14 -1.0971e-14 -4.49019e-14 4.27951e-16 -1.06673e-13 6.08272e-14 -1.51806e-13 -1.56133e-14 -3.05673e-14 -1.57242e-13 3.31699e-14 -6.70127e-14 -7.84591e-14 -3.22841e-14 -1.54026e-13 -9.464e-14 -1.733e-13 1.67845e-13 -2.24748e-13 -5.93212e-14 -1.81762e-13 -1.00582e-13 4.81153e-14 8.79868e-15 -6.36058e-14 -8.38331e-14 -7.44394e-14 -7.0183e-14 -1.87533e-13 -1.63149e-13 -1.17606e-13 -9.84646e-14 -5.68347e-14 -3.17747e-13 -2.46397e-13 -1.89825e-14 -1.29501e-13 1.86679e-13 -1.70013e-13 -1.12701e-13 4.30062e-13 -2.87764e-13 -6.45012e-14 7.41612e-14 -1.95371e-13 -1.77293e-13 -1.2367e-13 -3.23461e-14 2.08745e-12 1.77945e-11 1.27833e-10 8.64579e-10 5.46881e-09 3.2316e-08 1.77754e-07 9.06538e-07 4.26725e-06 1.84419e-05 7.27185e-05 0.000259697 0.00083287 0.0023768 0.00598519 0.0132375 0.0257358 0.0443039 0.0685076 0.0969656 0.12813 0.160841 0.194379 0.228383 0.262663 0.297056 0.331445 0.36578 0.400016 0.434122 0.468062 0.501802 0.535305 0.568531 0.601433 0.63396 0.666056 0.697655 0.728689 0.759085 0.788774 0.817703 0.845848 0.873228 0.899908 0.926591 0.941655 0.9414 0.940467 0.93923 0.937728 0.93618 0.934662 0.933258 0.93203 0.931027 0.930123 0.929506 0.928956 0.928488 0.928165 0.927868 0.927651 0.927815 0.926978 0.917289 0.929145 0.925155 0.930565 0.92705 0.928374 0.929713 0.92976 0.929768 0.929773 0.929789 0.929731 0.929575 0.929376 0.929199 0.929096 0.929016 0.928761 0.925991 0.915024 0.886864 0.830542 0.742265 0.623903 0.484931 0.341634 0.213 0.115447 0.0543225 0.022846 0.00899954 0.00342869 0.00128541 0.000477708 0.000176447 6.48141e-05 2.36736e-05 8.59417e-06 3.09917e-06 1.10952e-06 3.94108e-07 1.38818e-07 4.84616e-08 1.67587e-08 5.73875e-09 1.94448e-09 6.51845e-10 2.15912e-10 7.03442e-11 2.26823e-11 6.92069e-12 1.97026e-12 3.93106e-13 -3.71133e-13 2.55253e-13 -6.21975e-13 2.37154e-13 2.26878e-13 -2.38267e-13 -1.52609e-13 -1.28956e-13 6.08532e-14 -2.83643e-13 7.4237e-14 -4.34122e-13 -2.61631e-13 1.33292e-14 -4.2517e-13 -2.28957e-13 8.40563e-13 -9.46975e-13 3.51318e-13 5.62342e-13 -1.9758e-13 3.97237e-13 3.22399e-14 1.08087e-12 1.98861e-13 -2.93136e-13 1.43458e-13 0 0 4.2852e-15 3.08261e-14 4.74942e-14 2.7314e-14 7.82919e-15 8.72362e-15 3.74992e-14 -1.29484e-14 -1.58149e-14 -7.63408e-14 -1.32842e-14 -9.66849e-14 9.17559e-14 -1.54482e-13 -6.01117e-14 2.76004e-14 -2.07912e-13 -2.49965e-14 -4.49537e-14 -1.24086e-13 4.25934e-14 -1.11403e-13 -7.89364e-14 -9.94784e-14 -2.05323e-14 -1.47522e-13 -9.47348e-14 -1.73763e-13 -3.21326e-14 2.81284e-14 3.83259e-14 -8.04165e-14 -2.54218e-14 -2.56791e-13 -8.93584e-14 4.18592e-14 -6.34468e-14 -2.29127e-13 -1.89819e-13 -2.53385e-13 6.2511e-14 -6.33454e-14 -1.56582e-13 -2.02366e-14 1.47801e-13 -1.05145e-14 -3.29981e-13 6.88991e-14 -1.5728e-13 -1.7606e-13 9.2179e-14 -1.20823e-13 -3.354e-14 -1.79079e-13 2.48394e-12 1.80543e-11 1.27733e-10 8.64424e-10 5.46925e-09 3.23163e-08 1.77754e-07 9.06538e-07 4.26725e-06 1.84419e-05 7.27185e-05 0.000259697 0.00083287 0.0023768 0.00598519 0.0132375 0.0257358 0.0443039 0.0685076 0.0969656 0.12813 0.160841 0.194379 0.228383 0.262663 0.297056 0.331445 0.36578 0.400016 0.434122 0.468062 0.501802 0.535305 0.568531 0.601433 0.63396 0.666056 0.697655 0.728689 0.759085 0.788774 0.817703 0.845848 0.873228 0.899908 0.926591 0.941655 0.9414 0.940467 0.93923 0.937728 0.93618 0.934662 0.933258 0.93203 0.931027 0.930123 0.929506 0.928956 0.928488 0.928165 0.927868 0.927651 0.927815 0.926978 0.917289 0.929145 0.925155 0.930565 0.92705 0.928374 0.929713 0.92976 0.929768 0.929773 0.929789 0.929731 0.929575 0.929376 0.929199 0.929096 0.929016 0.928761 0.925991 0.915024 0.886864 0.830542 0.742265 0.623903 0.484931 0.341634 0.213 0.115447 0.0543225 0.022846 0.00899954 0.00342869 0.00128541 0.000477708 0.000176447 6.48141e-05 2.36736e-05 8.59417e-06 3.09917e-06 1.10952e-06 3.94108e-07 1.38818e-07 4.84615e-08 1.67592e-08 5.73839e-09 1.94458e-09 6.5184e-10 2.16148e-10 7.05393e-11 2.26355e-11 7.1925e-12 2.08239e-12 2.93701e-13 -1.65742e-13 -3.87915e-14 -1.35763e-13 1.49103e-13 -2.57608e-13 -2.26069e-13 -3.25364e-13 -2.14946e-13 1.1931e-13 -6.18066e-13 3.63491e-13 -3.89105e-13 -3.18428e-13 -2.68989e-13 -1.89901e-13 -2.74536e-13 -2.57351e-13 5.12096e-13 -4.10645e-14 2.00376e-13 -1.24148e-13 2.73377e-13 5.29917e-14 2.5902e-13 3.80908e-14 9.53576e-14 2.3953e-13 0 0 2.62712e-14 5.39399e-14 6.2276e-14 5.64597e-14 -8.44351e-15 6.38931e-15 -1.68628e-14 1.32649e-14 -1.54279e-14 -2.13961e-14 -9.60169e-14 -3.73649e-14 2.94896e-14 -1.54809e-13 -4.72231e-15 -3.57581e-14 -8.2739e-14 -1.39371e-13 -1.74916e-14 -5.42703e-14 -4.66779e-14 1.97482e-14 -5.2554e-14 -1.41305e-13 -2.43714e-14 -1.84469e-13 1.60479e-14 -1.6203e-13 -6.56421e-14 -4.89082e-14 -9.26075e-14 6.33394e-14 -1.49565e-13 4.32335e-15 -1.78531e-13 -1.93588e-14 -1.16592e-13 -1.70987e-13 -1.91918e-13 -1.96736e-13 -2.30427e-13 -3.48507e-14 1.01259e-13 4.97197e-14 -1.58905e-13 -6.15397e-14 -4.20049e-13 2.05459e-13 1.41881e-13 -4.24447e-14 1.23651e-13 -2.97972e-13 -1.30494e-13 5.3397e-14 2.25226e-12 1.80225e-11 1.27791e-10 8.64663e-10 5.46922e-09 3.23163e-08 1.77754e-07 9.06538e-07 4.26725e-06 1.84419e-05 7.27185e-05 0.000259697 0.00083287 0.0023768 0.00598519 0.0132375 0.0257358 0.0443039 0.0685076 0.0969656 0.12813 0.160841 0.194379 0.228383 0.262663 0.297056 0.331445 0.36578 0.400016 0.434122 0.468062 0.501802 0.535305 0.568531 0.601433 0.63396 0.666056 0.697655 0.728689 0.759085 0.788774 0.817703 0.845848 0.873228 0.899908 0.926591 0.941655 0.9414 0.940467 0.93923 0.937728 0.93618 0.934662 0.933258 0.93203 0.931027 0.930123 0.929506 0.928956 0.928488 0.928165 0.927868 0.927651 0.927815 0.926978 0.917289 0.929145 0.925155 0.930565 0.92705 0.928374 0.929713 0.92976 0.929768 0.929773 0.929789 0.929731 0.929575 0.929376 0.929199 0.929096 0.929016 0.928761 0.925991 0.915024 0.886864 0.830542 0.742265 0.623903 0.484931 0.341634 0.213 0.115447 0.0543225 0.022846 0.00899954 0.00342869 0.00128541 0.000477708 0.000176447 6.48141e-05 2.36736e-05 8.59417e-06 3.09917e-06 1.10952e-06 3.94108e-07 1.38818e-07 4.84614e-08 1.67593e-08 5.73817e-09 1.94481e-09 6.51641e-10 2.15608e-10 7.09619e-11 2.29854e-11 7.28386e-12 2.27291e-12 6.10641e-13 -5.71855e-13 -2.09701e-13 3.3444e-14 9.58141e-14 3.1548e-14 -7.39053e-13 -3.15152e-14 -2.90142e-13 -2.93043e-13 1.5552e-13 -6.3791e-13 -1.17749e-13 -1.45262e-13 1.82864e-13 -3.1397e-13 -2.13765e-13 -6.04772e-13 -2.95656e-13 2.14525e-13 3.48809e-13 1.08098e-12 4.57248e-13 5.96905e-13 -2.55942e-13 -7.44618e-13 -1.63441e-13 -2.32102e-13 0 0 2.55487e-14 4.97567e-14 4.82813e-15 3.74119e-14 4.16318e-14 1.54757e-14 -4.60198e-14 1.37632e-14 -4.40533e-14 -1.25716e-14 -1.43178e-13 7.54868e-14 -1.95191e-13 3.3356e-14 -3.07291e-14 -2.06513e-13 1.06222e-13 -2.31176e-14 -4.73246e-14 2.92026e-14 -2.66468e-13 6.10913e-14 -1.61592e-13 2.61892e-13 -2.28186e-13 -5.68038e-14 -9.29549e-14 -4.25866e-14 5.46092e-14 -4.67976e-18 -2.99163e-13 -7.52727e-14 -1.12961e-13 -8.88349e-14 -1.75086e-13 -5.67349e-14 5.98174e-15 -1.69583e-13 1.83003e-14 -3.16109e-13 -3.4636e-13 5.46516e-14 -6.20106e-14 2.4948e-13 -5.58276e-13 -2.98741e-13 2.26832e-13 -2.89656e-13 7.26639e-14 1.8805e-13 -1.6382e-13 -1.21005e-13 4.73967e-14 3.28908e-13 2.12053e-12 1.78924e-11 1.27821e-10 8.64944e-10 5.46906e-09 3.23163e-08 1.77754e-07 9.06538e-07 4.26726e-06 1.84419e-05 7.27185e-05 0.000259697 0.00083287 0.0023768 0.00598519 0.0132375 0.0257358 0.0443039 0.0685076 0.0969656 0.12813 0.160841 0.194379 0.228383 0.262663 0.297056 0.331445 0.36578 0.400016 0.434122 0.468062 0.501802 0.535305 0.568531 0.601433 0.63396 0.666056 0.697655 0.728689 0.759085 0.788774 0.817703 0.845848 0.873228 0.899908 0.926591 0.941655 0.9414 0.940467 0.93923 0.937728 0.93618 0.934662 0.933258 0.93203 0.931027 0.930123 0.929506 0.928956 0.928488 0.928165 0.927868 0.927651 0.927815 0.926978 0.917289 0.929145 0.925155 0.930565 0.92705 0.928374 0.929713 0.92976 0.929768 0.929773 0.929789 0.929731 0.929575 0.929376 0.929199 0.929096 0.929016 0.928761 0.925991 0.915024 0.886864 0.830542 0.742265 0.623903 0.484931 0.341634 0.213 0.115447 0.0543225 0.022846 0.00899954 0.00342869 0.00128541 0.000477708 0.000176447 6.48141e-05 2.36736e-05 8.59417e-06 3.09917e-06 1.10952e-06 3.94108e-07 1.38818e-07 4.84615e-08 1.67588e-08 5.73872e-09 1.94457e-09 6.51641e-10 2.15924e-10 7.05488e-11 2.31085e-11 7.08216e-12 2.19948e-12 6.95678e-13 -3.07413e-13 5.65306e-13 -7.16094e-13 -2.7722e-13 7.30366e-13 -2.50458e-13 -4.97562e-13 -2.26662e-13 -1.74608e-13 3.67453e-13 -5.87532e-13 -2.62373e-13 -2.39903e-13 1.52606e-13 -5.80597e-13 -2.55806e-13 5.879e-13 -1.29592e-12 2.12275e-13 4.28282e-13 8.08047e-13 2.59287e-13 -1.87104e-13 3.50785e-13 -6.28951e-13 -2.95527e-13 -2.31885e-13 0 0 7.91284e-15 1.93516e-14 4.8754e-14 2.32772e-14 -2.27006e-14 -6.28792e-14 9.60401e-14 1.17322e-14 7.40849e-14 -2.04761e-13 7.68559e-14 -2.72889e-13 4.15553e-14 -9.84334e-14 -1.11e-13 1.3462e-13 -2.09213e-13 3.10124e-13 -8.19868e-14 -1.53688e-13 -4.07467e-15 -9.3188e-14 -3.3059e-14 -6.65429e-14 6.26771e-14 -1.22658e-13 -4.67226e-14 -6.08706e-14 6.34976e-14 3.16521e-14 -1.80695e-13 -2.31082e-13 6.88526e-14 -7.48407e-13 1.7661e-14 1.98578e-13 1.64338e-13 -4.37277e-13 -2.62505e-13 -8.31404e-14 1.01028e-13 -6.80031e-14 -1.68169e-13 -2.06785e-13 8.80851e-14 -7.88076e-14 -6.90748e-13 1.50341e-13 -1.6108e-13 -1.39465e-13 -1.25282e-13 1.73353e-13 8.70431e-15 1.3799e-13 2.5303e-12 1.81527e-11 1.27763e-10 8.64605e-10 5.4692e-09 3.23165e-08 1.77754e-07 9.06538e-07 4.26725e-06 1.84419e-05 7.27185e-05 0.000259697 0.00083287 0.0023768 0.00598519 0.0132375 0.0257358 0.0443039 0.0685076 0.0969656 0.12813 0.160841 0.194379 0.228383 0.262663 0.297056 0.331445 0.36578 0.400016 0.434122 0.468062 0.501802 0.535305 0.568531 0.601433 0.63396 0.666056 0.697655 0.728689 0.759085 0.788774 0.817703 0.845848 0.873228 0.899908 0.926591 0.941655 0.9414 0.940467 0.93923 0.937728 0.93618 0.934662 0.933258 0.93203 0.931027 0.930123 0.929506 0.928956 0.928488 0.928165 0.927868 0.927651 0.927815 0.926978 0.917289 0.929145 0.925155 0.930565 0.92705 0.928374 0.929713 0.92976 0.929768 0.929773 0.929789 0.929731 0.929575 0.929376 0.929199 0.929096 0.929016 0.928761 0.925991 0.915024 0.886864 0.830542 0.742265 0.623903 0.484931 0.341634 0.213 0.115447 0.0543225 0.022846 0.00899954 0.00342869 0.00128541 0.000477708 0.000176447 6.48141e-05 2.36736e-05 8.59417e-06 3.09917e-06 1.10952e-06 3.94107e-07 1.38818e-07 4.84613e-08 1.67594e-08 5.73866e-09 1.94453e-09 6.51609e-10 2.16888e-10 7.04065e-11 2.25129e-11 7.02908e-12 2.06673e-12 1.84642e-13 1.23544e-12 1.21119e-13 -3.45361e-13 -8.94251e-13 2.19141e-13 1.07881e-12 -1.10384e-12 -4.8624e-14 1.09969e-13 -1.89635e-14 -6.29428e-14 -7.55066e-14 -6.02438e-13 -8.41852e-13 1.84107e-13 -4.73549e-13 -7.34722e-13 1.76443e-12 -7.49894e-13 -1.9481e-13 1.83272e-13 -7.95331e-14 -7.82989e-13 -6.40912e-13 3.29303e-13 7.29182e-13 -4.09626e-14 0
				</DataArray>
				<DataArray Name="VitesseY" type="Float32" format="ascii">