<?xml version="1.0"?>
<VTKFile type="PolyData">
	<PolyData>
		<Piece NumberOfPoints="2601" NumberOfPolys="2500">
			<Points>
				<DataArray type="Float32" NumberOfComponents="3" format="ascii">
 0 0 0 0.504458 0 0 0.314047 0 0 0.449132 0 0 0.444767 0 0 0.476839 0 0 0.498556 0 0 0.519485 0 0 0.539194 0 0 0.554419 0 0 0.570935 0 0 0.583222 0 0 0.597548 0 0 0.608817 0 0 0.621638 0 0 0.631368 0 0 0.642551 0 0 0.650895 0 0 0.6609 0 0 0.668352 0 0 0.676879 0 0 0.683873 0 0 0.691361 0 0 0.69799 0 0 0.704638 0 0 0.710425 0 0 0.716062 0 0 0.721495 0 0 0.726803 0 0 0.731727 0 0 0.736493 0 0 0.740984 0 0 0.745257 0 0 0.749423 0 0 0.753377 0 0 0.757215 0 0 0.761031 0 0 0.765571 0 0 0.772169 0 0 0.783055 0 0 0.800141 0 0 0.82 0 0 0.84 0 0 0.86 0 0 0.88 0 0 0.9 0 0 0.92 0 0 0.94 0 0 0.96 0 0 0.98 0 0 1 0 0 0 0.504458 0 0.173795 0.173795 0 0.442145 0.20812 0 0.363499 0.180024 0 0.442666 0.112997 0 0.466666 0.10084 0 0.493615 0.089715 0 0.515799 0.0798027 0 0.534276 0.0742452 0 0.552632 0.0679945 0 0.566767 0.0628281 0 0.582837 0.0576894 0 0.59477 0.0535495 0 0.608548 0.0500759 0 0.619396 0.0474177 0 0.631383 0.0450815 0 0.640353 0.0428077 0 0.65108 0.040749 0 0.659016 0.0387307 0 0.668355 0.0369397 0 0.675505 0.0353085 0 0.683616 0.0339012 0 0.690479 0.0326697 0 0.697664 0.0315207 0 0.703951 0.0303962 0 0.709915 0.0292694 0 0.715589 0.0282338 0 0.721065 0.0272816 0 0.726384 0.0264148 0 0.73134 0.0256227 0 0.736127 0.0248974 0 0.740647 0.024212 0 0.744936 0.0235523 0 0.74912 0.0229174 0 0.753094 0.0223094 0 0.756942 0.0217343 0 0.760778 0.0211983 0 0.765351 0.0207211 0 0.772002 0.0203337 0 0.782972 0.02009 0 0.800133 0.0200076 0 0.82 0.02 0 0.84 0.02 0 0.86 0.02 0 0.88 0.02 0 0.9 0.02 0 0.92 0.02 0 0.94 0.02 0 0.96 0.02 0 0.98 0.02 0 1 0.02 0 0 0.314047 0 0.20812 0.442145 0 0.202596 0.202596 0 0.392491 0.275845 0 0.393228 0.224483 0 0.440419 0.190481 0 0.472396 0.169218 0 0.498544 0.158184 0 0.521812 0.143551 0 0.540467 0.133436 0 0.559791 0.122577 0 0.574322 0.113857 0 0.590337 0.105807 0 0.602634 0.0996101 0 0.616125 0.0943142 0 0.626382 0.0896164 0 0.637994 0.0853297 0 0.646806 0.081003 0 0.657208 0.0771098 0 0.665009 0.0734556 0 0.673851 0.0702755 0 0.681093 0.06753 0 0.688949 0.0650674 0 0.695745 0.0627781 0 0.702322 0.0604894 0 0.708331 0.0583325 0 0.714294 0.0563082 0 0.719748 0.0544317 0 0.725153 0.052716 0 0.730186 0.0511529 0 0.735047 0.0497142 0 0.739641 0.0483473 0 0.743981 0.0470262 0 0.748219 0.045758 0 0.75225 0.0445482 0 0.756127 0.0434057 0 0.760024 0.0423442 0 0.764694 0.0414011 0 0.771509 0.040639 0 0.782732 0.0401676 0 0.800111 0.040013 0 0.82 0.04 0 0.84 0.04 0 0.86 0.04 0 0.88 0.04 0 0.9 0.04 0 0.92 0.04 0 0.94 0.04 0 0.96 0.04 0 0.98 0.04 0 1 0.04 0 0 0.449132 0 0.180024 0.363499 0 0.275845 0.392491 0 0.232346 0.232346 0 0.34701 0.314028 0 0.407154 0.254893 0 0.443901 0.243061 0 0.476231 0.219437 0 0.502657 0.207462 0 0.526932 0.190394 0 0.546149 0.1782 0 0.565678 0.165496 0 0.58034 0.155895 0 0.596195 0.147 0 0.608205 0.139865 0 0.621237 0.133126 0 0.631301 0.126496 0 0.642948 0.12042 0 0.651771 0.114451 0 0.661848 0.109209 0 0.669573 0.104575 0 0.67828 0.100579 0 0.685608 0.0970727 0 0.692989 0.0936455 0 0.699438 0.0903297 0 0.706031 0.0871365 0 0.711996 0.0841392 0 0.717683 0.0813531 0 0.723089 0.0788268 0 0.728326 0.0765233 0 0.73325 0.0743764 0 0.737991 0.0723254 0 0.742415 0.070345 0 0.746734 0.0684495 0 0.750862 0.0666519 0 0.754784 0.0649593 0 0.758784 0.0633927 0 0.763618 0.0620034 0 0.77071 0.0608905 0 0.782359 0.0602225 0 0.800082 0.0600149 0 0.82 0.06 0 0.84 0.06 0 0.86 0.06 0 0.88 0.06 0 0.9 0.06 0 0.92 0.06 0 0.94 0.06 0 0.96 0.06 0 0.98 0.06 0 1 0.06 0 0 0.444767 0 0.112997 0.442666 0 0.224483 0.393228 0 0.314028 0.34701 0 0.297704 0.297704 0 0.367065 0.340756 0 0.418761 0.281066 0 0.453427 0.280094 0 0.483443 0.255676 0 0.508766 0.244132 0 0.532505 0.226814 0 0.550943 0.215086 0 0.569894 0.202474 0 0.584217 0.193107 0 0.599617 0.183436 0 0.611576 0.174728 0 0.624803 0.166357 0 0.635173 0.158158 0 0.646782 0.150783 0 0.65558 0.144013 0 0.665337 0.138178 0 0.673241 0.13314 0 0.681665 0.12843 0 0.688744 0.124001 0 0.69597 0.119655 0 0.702596 0.11554 0 0.708881 0.111587 0 0.714774 0.107982 0 0.720323 0.10468 0 0.725719 0.101662 0 0.730795 0.0988048 0 0.735698 0.0960741 0 0.740274 0.0934392 0 0.744687 0.0909365 0 0.748932 0.0885756 0 0.752933 0.0863558 0 0.757076 0.084308 0 0.762145 0.0824975 0 0.769638 0.0810674 0 0.781898 0.0802483 0 0.800053 0.0800134 0 0.82 0.08 0 0.84 0.08 0 0.86 0.08 0 0.88 0.08 0 0.9 0.08 0 0.92 0.08 0 0.94 0.08 0 0.96 0.08 0 0.98 0.08 0 1 0.08 0 0 0.476839 0 0.10084 0.466666 0 0.190481 0.440419 0 0.254893 0.407154 0 0.340756 0.367065 0 0.354186 0.354186 0 0.39576 0.35048 0 0.429848 0.308123 0 0.462742 0.309785 0 0.490478 0.285246 0 0.513818 0.275364 0 0.536376 0.258479 0 0.554128 0.247733 0 0.572769 0.234666 0 0.587042 0.22454 0 0.602544 0.213766 0 0.614798 0.203743 0 0.62817 0.194392 0 0.638504 0.185575 0 0.649772 0.177865 0 0.658489 0.171059 0 0.66801 0.164857 0 0.675816 0.159165 0 0.684029 0.153591 0 0.691384 0.148375 0 0.698434 0.143272 0 0.704858 0.138553 0 0.711122 0.134193 0 0.716838 0.130192 0 0.722422 0.126459 0 0.727712 0.122913 0 0.732789 0.119507 0 0.737568 0.116251 0 0.742107 0.113171 0 0.746472 0.110281 0 0.750593 0.107563 0 0.754923 0.105058 0 0.760306 0.102856 0 0.768339 0.101155 0 0.781402 0.100243 0 0.800029 0.10001 0 0.82 0.1 0 0.84 0.1 0 0.86 0.1 0 0.88 0.1 0 0.9 0.1 0 0.92 0.1 0 0.94 0.1 0 0.96 0.1 0 0.98 0.1 0 1 0.1 0 0 0.498556 0 0.089715 0.493615 0 0.169218 0.472396 0 0.243061 0.443901 0 0.281066 0.418761 0 0.35048 0.39576 0 0.379246 0.379246 0 0.41354 0.366999 0 0.44076 0.332581 0 0.470142 0.335814 0 0.496631 0.310218 0 0.518662 0.302397 0 0.540491 0.285103 0 0.557666 0.274845 0 0.5761 0.260954 0 0.590419 0.25024 0 0.605857 0.23891 0 0.618001 0.22864 0 0.63092 0.219243 0 0.640984 0.210643 0 0.651906 0.202797 0 0.66054 0.195682 0 0.669889 0.188786 0 0.67799 0.182453 0 0.686182 0.176212 0 0.693267 0.170386 0 0.700227 0.164914 0 0.706644 0.15991 0 0.712724 0.155213 0 0.718481 0.150801 0 0.724045 0.146585 0 0.7293 0.142554 0 0.734311 0.138726 0 0.73901 0.135119 0 0.743507 0.131732 0 0.747785 0.128542 0 0.752356 0.125607 0 0.758147 0.123055 0 0.766874 0.121146 0 0.780934 0.12021 0 0.800013 0.120006 0 0.82 0.12 0 0.84 0.12 0 0.86 0.12 0 0.88 0.12 0 0.9 0.12 0 0.92 0.12 0 0.94 0.12 0 0.96 0.12 0 0.98 0.12 0 1 0.12 0 0 0.519485 0 0.0798027 0.515799 0 0.158184 0.498544 0 0.219437 0.476231 0 0.280094 0.453427 0 0.308123 0.429848 0 0.366999 0.41354 0 0.398668 0.398668 0 0.427787 0.384317 0 0.451541 0.35458 0 0.476927 0.358753 0 0.50244 0.331311 0 0.523185 0.325692 0 0.54449 0.307379 0 0.561167 0.297663 0 0.579264 0.283451 0 0.593306 0.272753 0 0.608323 0.261504 0 0.6202 0.251444 0 0.632785 0.241996 0 0.642698 0.233395 0 0.653428 0.225056 0 0.662372 0.217589 0 0.671769 0.210167 0 0.679699 0.203333 0 0.687597 0.196722 0 0.694729 0.190686 0 0.701565 0.184963 0 0.707957 0.179644 0 0.714021 0.174561 0 0.719827 0.169753 0 0.725301 0.165165 0 0.730521 0.160835 0 0.735426 0.156746 0 0.740063 0.15289 0 0.744542 0.149252 0 0.749424 0.145921 0 0.755735 0.143077 0 0.765326 0.141048 0 0.780548 0.140158 0 0.800005 0.140003 0 0.82 0.14 0 0.84 0.14 0 0.86 0.14 0 0.88 0.14 0 0.9 0.14 0 0.92 0.14 0 0.94 0.14 0 0.96 0.14 0 0.98 0.14 0 1 0.14 0 0 0.539194 0 0.0742452 0.534276 0 0.143551 0.521812 0 0.207462 0.502657 0 0.255676 0.483443 0 0.309785 0.462742 0 0.332581 0.44076 0 0.384317 0.427787 0 0.415649 0.415649 0 0.441134 0.399635 0 0.463421 0.37462 0 0.485703 0.377295 0 0.50889 0.348916 0 0.528581 0.345385 0 0.549055 0.326123 0 0.565069 0.31729 0 0.582535 0.303056 0 0.596168 0.29273 0 0.610648 0.281568 0 0.622172 0.271764 0 0.634442 0.262034 0 0.644457 0.253488 0 0.655242 0.244854 0 0.664071 0.237099 0 0.6731 0.229329 0 0.681062 0.222363 0 0.688763 0.215574 0 0.695873 0.209323 0 0.702704 0.203338 0 0.709072 0.197719 0 0.715146 0.19238 0 0.720832 0.187328 0 0.726241 0.182538 0 0.731379 0.178011 0 0.736185 0.173704 0 0.740912 0.169651 0 0.746183 0.165976 0 0.753153 0.16292 0 0.763806 0.160879 0 0.780275 0.160101 0 0.800001 0.160001 0 0.82 0.16 0 0.84 0.16 0 0.86 0.16 0 0.88 0.16 0 0.9 0.16 0 0.92 0.16 0 0.94 0.16 0 0.96 0.16 0 0.98 0.16 0 1 0.16 0 0 0.554419 0 0.0679945 0.552632 0 0.133436 0.540467 0 0.190394 0.526932 0 0.244132 0.508766 0 0.285246 0.490478 0 0.335814 0.470142 0 0.35458 0.451541 0 0.399635 0.441134 0 0.430411 0.430411 0 0.45339 0.41316 0 0.475723 0.392198 0 0.496372 0.391465 0 0.516573 0.364352 0 0.535478 0.36164 0 0.554606 0.342017 0 0.569757 0.334155 0 0.586286 0.320074 0 0.59931 0.310279 0 0.613146 0.299066 0 0.624472 0.289678 0 0.63665 0.279812 0 0.646474 0.271317 0 0.656792 0.26239 0 0.665603 0.254632 0 0.674483 0.246787 0 0.682244 0.239663 0 0.689941 0.232779 0 0.69695 0.226361 0 0.703756 0.220262 0 0.709998 0.214498 0 0.715954 0.209015 0 0.72153 0.203804 0 0.726916 0.198856 0 0.731928 0.194135 0 0.736952 0.189717 0 0.742701 0.185771 0 0.750493 0.1826 0 0.762443 0.180672 0 0.780114 0.180052 0 0.8 0.18 0 0.82 0.18 0 0.84 0.18 0 0.86 0.18 0 0.88 0.18 0 0.9 0.18 0 0.92 0.18 0 0.94 0.18 0 0.96 0.18 0 0.98 0.18 0 1 0.18 0 0 0.570935 0 0.0628281 0.566767 0 0.122577 0.559791 0 0.1782 0.546149 0 0.226814 0.532505 0 0.275364 0.513818 0 0.310218 0.496631 0 0.358753 0.476927 0 0.37462 0.463421 0 0.41316 0.45339 0 0.443302 0.443302 0 0.464479 0.425221 0 0.486827 0.407708 0 0.506957 0.40314 0 0.524586 0.378389 0 0.542814 0.375542 0 0.560475 0.356091 0 0.574826 0.348924 0 0.59034 0.334964 0 0.602901 0.325785 0 0.616317 0.314578 0 0.627279 0.30554 0 0.638881 0.295457 0 0.648517 0.287141 0 0.658657 0.278252 0 0.667199 0.270477 0 0.675838 0.262643 0 0.683531 0.255546 0 0.690968 0.248648 0 0.697979 0.242257 0 0.704483 0.236067 0 0.710676 0.230213 0 0.71648 0.224588 0 0.722079 0.219258 0 0.727339 0.214168 0 0.732722 0.209458 0 0.739054 0.20533 0 0.747855 0.202155 0 0.761362 0.200456 0 0.780038 0.200021 0 0.8 0.2 0 0.82 0.2 0 0.84 0.2 0 0.86 0.2 0 0.88 0.2 0 0.9 0.2 0 0
[...]
			<PointData Scalars="VitesseX">
				<DataArray Name="VitesseX" type="Float32" format="ascii">
 0 1.63065 0.31968 1.01388 0.887365 0.976287 0.996706 1.02911 1.07787 1.14416 1.15874 1.20602 1.25794 1.24888 1.28338 1.3339 1.32785 1.33739 1.37643 1.42293 1.46164 1.46013 1.48123 1.47508 1.53477 1.60377 1.55778 1.59849 1.6075 1.63834 1.66668 1.67204 1.68668 1.70588 1.69564 1.72649 1.69224 1.5524 1.21755 0.610166 0.0560706 0.000123229 2.05656e-09 2.67845e-14 0 -7.38262e-20 7.38262e-20 -7.38262e-20 7.38262e-20 0 0 0 0.105964 1.29372 0.522728 0.924705 0.914287 1.0035 1.0181 1.09312 1.13 1.14904 1.21984 1.23434 1.24917 1.2841 1.32442 1.32921 1.33938 1.36971 1.43589 1.45108 1.46546 1.46473 1.48657 1.54638 1.58393 1.56338 1.59603 1.61214 1.63266 1.66666 1.67058 1.68543 1.70514 1.69605 1.7264 1.69083 1.5489 1.21065 0.599636 0.053287 0.000111232 1.87598e-09 2.48289e-14 0 -7.38262e-20 7.38262e-20 -7.38262e-20 7.38262e-20 0 0 0 0.773046 0.172108 1.06491 0.688786 0.871452 0.920149 0.988303 1.04433 1.09798 1.1261 1.18044 1.21693 1.22654 1.27278 1.32021 1.31778 1.3305 1.37548 1.42429 1.45797 1.44212 1.46363 1.50098 1.55413 1.54134 1.58281 1.58928 1.62269 1.61914 1.66453 1.66804 1.68123 1.70307 1.69788 1.72557 1.68612 1.5382 1.1898 0.56806 0.0456005 8.15868e-05 1.42291e-09 1.97416e-14 0 3.90845e-20 -3.90845e-20 3.90845e-20 -3.90845e-20 0 0 0 0.579384 0.781236 0.184132 0.62377 0.777721 0.885439 0.930933 1.01396 1.04988 1.11007 1.16672 1.1771 1.22147 1.26177 1.29801 1.30627 1.32491 1.36561 1.42897 1.43548 1.43723 1.46192 1.52224 1.52364 1.52635 1.59196 1.58926 1.6251 1.61131 1.65261 1.66716 1.67475 1.69966 1.702 1.72246 1.67739 1.51979 1.15456 0.515728 0.0348214 4.82477e-05 8.94733e-10 1.33922e-14 0 -7.67214e-20 7.67214e-20 -7.67214e-20 7.67214e-20 0 0 0 0.254087 0.49397 0.727928 0.579753 0.741543 0.825029 0.934988 0.968617 1.03397 1.08078 1.13189 1.16018 1.19697 1.25012 1.27848 1.2901 1.31929 1.36857 1.40767 1.42958 1.42399 1.478 1.49797 1.50366 1.5385 1.58014 1.5925 1.61708 1.61255 1.63246 1.66566 1.6688 1.69455 1.7065 1.71678 1.66414 1.49255 1.10405 0.444042 0.0233735 2.27192e-05 4.63155e-10 7.66562e-15 0 -7.23787e-22 7.23787e-22 -1.52719e-19 1.52719e-19 0 0 0 0.220682 0.390928 0.468187 0.786873 0.856242 0.834298 0.860998 0.974285 1.002 1.05682 1.08318 1.12979 1.18268 1.21558 1.25287 1.27426 1.30955 1.3536 1.39188 1.40741 1.4418 1.45866 1.46446 1.49449 1.55875 1.55457 1.59426 1.60266 1.61455 1.61583 1.65804 1.66545 1.68743 1.70964 1.70913 1.6453 1.45427 1.03658 0.3569 0.0135097 8.38549e-06 1.95074e-10 3.68245e-15 0 1.51995e-19 -1.51995e-19 1.51995e-19 -1.51995e-19 0 0 0 0.190882 0.326424 0.469675 0.498774 0.684909 0.863932 0.885626 0.908984 0.988473 1.01874 1.06645 1.09994 1.1537 1.19617 1.22061 1.25996 1.29481 1.3345 1.36317 1.40719 1.42483 1.43144 1.437 1.50644 1.5421 1.5443 1.58165 1.59174 1.60783 1.61199 1.64369 1.66464 1.67908 1.7101 1.69937 1.6195 1.40185 0.948788 0.26206 0.00655423 2.38994e-06 6.59636e-11 1.47422e-15 0 -1.51995e-19 0 1.51995e-19 -1.51995e-19 0 0 0 0.15849 0.314084 0.410292 0.540214 0.561293 0.717474 0.876163 0.907562 0.932815 0.987654 1.03065 1.08692 1.11586 1.15959 1.20395 1.23228 1.27436 1.31129 1.35435 1.38618 1.39745 1.39259 1.45482 1.49399 1.51769 1.54108 1.55957 1.58347 1.5937 1.61596 1.63007 1.66227 1.67166 1.7061 1.68647 1.58611 1.33269 0.835469 0.171017 0.00259101 5.25499e-07 1.78142e-11 4.62401e-16 0 -3.0399e-19 3.0399e-19 -3.0399e-19 3.0399e-19 0 0 0 0.162646 0.274177 0.416789 0.475287 0.615349 0.640335 0.754119 0.894317 0.933505 0.968962 1.00371 1.04529 1.09833 1.12732 1.1713 1.22252 1.25021 1.30082 1.34061 1.35722 1.35502 1.40518 1.45323 1.47385 1.5019 1.53766 1.53699 1.57585 1.5769 1.6207 1.62329 1.65638 1.66707 1.69675 1.66717 1.54409 1.24584 0.692204 0.0959707 0.000806766 9.33075e-08 3.93077e-12 9.22991e-17 3.0399e-19 -1.51995e-19 3.0399e-19 -6.07981e-19 6.07981e-19 -3.0399e-19 0 0 0.14584 0.265469 0.365277 0.486123 0.545067 0.692781 0.696913 0.799599 0.904414 0.951763 1.00939 1.02601 1.05887 1.12048 1.15403 1.19849 1.24678 1.28346 1.31381 1.31905 1.35675 1.41134 1.43838 1.44724 1.50563 1.51412 1.53821 1.556 1.57134 1.61623 1.62468 1.6456 1.66517 1.68255 1.63868 1.48865 1.14032 0.522348 0.0446194 0.00019011 1.50007e-08 7.57478e-13 7.82091e-22 0 3.0399e-19 -3.0399e-19 0 0 0 0 0 0.133674 0.241646 0.351481 0.449216 0.556064 0.603838 0.761982 0.762237 0.83866 0.927534 0.967789 1.04628 1.061 1.08134 1.15409 1.18384 1.22614 1.27395 1.28105 1.3125 1.37032 1.39996 1.4049 1.45751 1.4832 1.50237 1.54049 1.53663 1.5751 1.6028 1.62915 1.63328 1.66132 1.66575 1.60021 1.4117 1.00932 0.344242 0.0165139 3.23072e-05 2.33401e-09 1.35273e-13 -3.01664e-19 0 0 0 3.0399e-19 -6.07981e-19 6.07981e-19 0 0 0.126007 0.226305 0.336918 0.42891 0.520763 0.612928 0.658988 0.820334 0.811286 0.876017 0.961579 1.01191 1.07463 1.10501 1.11752 1.17883 1.22069 1.23753 1.27721 1.32882 1.36306 1.36475 1.40862 1.45062 1.46414 1.49708 1.53281 1.52792 1.57707 1.5904 1.62739 1.62511 1.65381 1.64273 1.55142 1.30865 0.838224 0.18863 0.00466121 3.77204e-06 3.13346e-10 2.13351e-14 -3.0399e-19 0 0 0 3.0399e-19 -3.0399e-19 0 0 0 0.114181 0.208167 0.313493 0.409207 0.50201 0.587281 0.676809 0.709237 0.845953 0.853459 0.925962 1.0057 1.0204 1.10889 1.11495 1.15383 1.20217 1.21981 1.28125 1.33219 1.32806 1.35351 1.41003 1.43632 1.44927 1.503 1.50481 1.53842 1.56124 1.58927 1.6132 1.62505 1.64153 1.60735 1.48366 1.18093 0.620386 0.081543 0.000952791 3.0578e-07 3.1733e-11 2.6294e-15 6.07981e-19 -3.0399e-19 3.0399e-19 -3.0399e-19 -3.0399e-19 9.10523e-19 -9.10523e-19 0 0 0.101261 0.200335 0.293003 0.408225 0.482678 0.576898 0.639706 0.729443 0.751967 0.869502 0.901774 0.94428 1.03718 1.05983 1.12557 1.1606 1.1687 1.234 1.28684 1.29011 1.30789 1.36561 1.40095 1.41351 1.46366 1.47708 1.50253 1.53454 1.54663 1.58572 1.59788 1.62203 1.62284 1.5614 1.38587 1.02006 0.383174 0.0264045 0.000131321 2.13289e-08 2.53732e-12 2.3567e-16 6.07981e-19 0 -3.0399e-19 0 -1.44757e-21 0 1.44757e-21 0 0 0.100196 0.189718 0.295865 0.386771 0.484099 0.538231 0.634565 0.677695 0.776046 0.793569 0.903658 0.943535 0.977802 1.04068 1.09648 1.12343 1.15947 1.21704 1.25794 1.2688 1.31425 1.36444 1.38264 1.42057 1.45095 1.46515 1.50306 1.52092 1.5393 1.57283 1.58863 1.61615 1.59332 1.50178 1.25908 0.801907 0.184211 0.00607541 1.12043e-05 1.639e-09 2.02722e-13 1.02597e-17 -3.0399e-19 0 0 0 -1.44757e-21 -3.02543e-19 6.07981e-19 0 0 0.0946142 0.191481 0.278188 0.383266 0.450447 0.53567 0.588341 0.687031 0.715925 0.818784 0.838198 0.916412 0.978 1.00074 1.08057 1.08529 1.16423 1.20686 1.22904 1.26419 1.316 1.33998 1.37749 1.42468 1.43011 1.4612 1.50061 1.49947 1.5458 1.54668 1.58604 1.59767 1.55235 1.41008 1.1032 0.528392 0.0645484 0.000926734 5.6939e-07 1.07373e-10 1.58693e-14 6.05664e-19 -3.0399e-19 0 -3.0399e-19 6.07981e-19 -6.07981e-19 6.07981e-19 0 0 0 0.0900482 0.180571 0.265587 0.357489 0.439164 0.50175 0.588542 0.639229 0.737759 0.751048 0.854221 0.871112 0.951736 0.991801 0.996111 1.09263 1.13808 1.1553 1.19996 1.24353 1.29621 1.32865 1.37979 1.40085 1.42007 1.46458 1.46676 1.50669 1.52439 1.53924 1.5759 1.56596 1.49326 1.28317 0.886219 0.266415 0.0155404 8.41727e-05 2.2362e-08 4.96133e-12 8.41731e-16 0 6.07981e-19 0 -6.07981e-19 6.07981e-19 0 -6.07981e-19 6.07981e-19 0 0 0.0859392 0.170645 0.254589 0.340437 0.423524 0.490416 0.560069 0.639295 0.687317 0.777901 0.78662 0.883101 0.893111 0.953505 1.04576 1.04583 1.102 1.15763 1.20514 1.23214 1.26003 1.32154 1.35482 1.3741 1.41806 1.43264 1.45837 1.49347 1.50444 1.53555 1.55456 1.51838 1.39513 1.12188 0.590285 0.094705 0.00239284 4.08636e-06 1.04282e-09 2.23635e-13 2.74837e-23 -6.07981e-19 0 6.07981e-19 0 0 -6.07981e-19 6.06533e-19 -6.06533e-19 0 0 0.0821969 0.166983 0.244513 0.333124 0.406436 0.479848 0.543017 0.622361 0.688503 0.727494 0.801903 0.799781 0.9176 0.933852 0.996851 1.04791 1.08198 1.14873 1.17159 1.22557 1.2608 1.29958 1.32527 1.37435 1.39852 1.40922 1.45431 1.47119 1.49149 1.53253 1.51294 1.45119 1.25446 0.887088 0.29053 0.0220516 0.000210882 1.11023e-07 3.89004e-11 1.03734e-14 0 6.07981e-19 -1.44757e-21 -6.06533e-19 6.07981e-19 -6.07981e-19 6.06533e-19 0 -6.06533e-19 0 0 0.0822546 0.161404 0.242383 0.317886 0.396882 0.459971 0.538896 0.602672 0.666478 0.709967 0.750902 0.843103 0.853865 0.938124 0.962828 0.994748 1.10284 1.10709 1.15518 1.19776 1.25414 1.26191 1.31291 1.35309 1.36391 1.40607 1.43199 1.44436 1.49735 1.49356 1.46946 1.33318 1.07725 0.558666 0.0954528 0.00312262 9.05854e-06 3.20038e-09 1.05774e-12 2.25473e-16 0 6.07981e-19 -1.44757e-21 -6.06533e-19 6.07981e-19 -6.07981e-19 6.06533e-19 -6.06533e-19 6.07981e-19 0 0 0.0792569 0.156737 0.229976 0.306412 0.379721 0.456272 0.521277 0.584169 0.628479 0.695045 0.757125 0.803113 0.859228 0.857238 0.960504 0.991776 1.0382 1.11004 1.12315 1.18856 1.23469 1.25703 1.30222 1.30984 1.34872 1.38812 1.40191 1.44974 1.47064 1.46218 1.37551 1.18505 0.800828 0.244133 0.0194857 0.000228604 1.88893e-07 9.30099e-11 3.44507e-14 -1.99802e-17 -6.07981e-19 6.07981e-19 -6.07981e-19 6.07981e-19 0 -6.07981e-19 0 6.07981e-19 0 0 0 0.075798 0.147804 0.21917 0.294882 0.375047 0.442127 0.500169 0.552193 0.620294 0.686812 0.743115 0.772757 0.805616 0.88675 0.905743 0.993636 1.02286 1.08066 1.11758 1.14201 1.19999 1.27293 1.26586 1.2979 1.33913 1.35336 1.39815 1.43853 1.43462 1.39281 1.24427 0.968188 0.43849 0.0675986 0.00214115 7.54598e-06 3.64712e-09 1.80255e-12 8.01913e-16 -6.07981e-19 6.06533e-19 1.44757e-21 -6.07981e-19 6.07981e-19 -6.07981e-19 6.06533e-19 1.44757e-21 -6.07981e-19 6.07981e-19 0 0 0.0707243 0.143004 0.216934 0.294153 0.366244 0.421075 0.476803 0.546246 0.617614 0.669446 0.706128 0.752978 0.810311 0.854835 0.91549 0.934835 1.02251 1.0712 1.08855 1.11977 1.17213 1.20728 1.26055 1.29239 1.30823 1.33866 1.39193 1.39736 1.38902 1.26851 1.06899 0.622649 0.156891 0.0101022 0.000116041 1.00436e-07 7.84878e-11 4.03675e-14 6.06429e-19 -6.07981e-19 1.21451e-18 -1.21451e-18 0 6.07981e-19 -6.07981e-19 1.21451e-18 -1.21451e-18 6.06533e-19 -6.06533e-19 0 0 0.0686384 0.145258 0.217919 0.285254 0.346306 0.406932 0.473771 0.54516 0.596008 0.643354 0.692266 0.749444 0.794698 0.837275 0.879417 0.958046 0.969941 1.03811 1.08573 1.12401 1.13639 1.17073 1.23705 1.26092 1.28778 1.33188 1.34797 1.35722 1.26652 1.12346 0.75734 0.275605 0.029577 0.000829423 2.00918e-06 1.65189e-09 1.00933e-12 7.18996e-16 -6.07981e-19 6.07981e-19 -6.07981e-19 6.06533e-19 1.44757e-21 -6.07981e-19 6.07981e-19 -6.07981e-19 6.06533e-19 0 -6.06533e-19 0 0 0.0729414 0.14379 0.208802 0.269568 0.337687 0.405833 0.470217 0.522116 0.578373 0.630673 0.687618 0.72497 0.773897 0.821117 0.881139 0.911821 0.967174 1.00471 1.06513 1.08709 1.12343 1.17598 1.19071 1.24508 1.2822 1.29546 1.30245 1.24311 1.13072 0.836329 0.395577 0.0615464 0.00340955 1.96044e-05 2.2216e-08 1.99414e-11 1.82636e-14 -2.05508e-17 -6.07981e-19 6.07981e-19 -6.07981e-19 6.06533e-19 1.44757e-21 -6.07981e-19 6.07981e-19 -6.07981e-19 6.06533e-19 -6.06533e-19 6.07981e-19 0 0 0.0693816 0.13226 0.197722 0.267427 0.335525 0.397962 0.452434 0.512422 0.568223 0.621487 0.656818 0.711191 0.759511 0.815252 0.841868 0.900427 0.939199 0.999199 1.01507 1.06485 1.11682 1.13954 1.18246 1.23271 1.25442 1.26162 1.21 1.10435 0.871812 0.481093 0.100097 0.00908229 0.000100475 2.52774e-07 2.2695e-10 2.45134e-13 1.63177e-16 1.21596e-18 0 0 0 -1.21596e-18 1.21596e-18 0 0 0 -1.21596e-18 1.82249e-18 -1.21451e-18 0 0 0.0637881 0.128735 0.196814 0.262341 0.322257 0.380295 0.442954 0.50042 0.55227 0.596249 0.651486 0.69802 0.748783 0.779664 0.840762 0.877174 0.928868 0.950392 1.01617 1.04783 1.07229 1.12782 1.17198 1.1932 1.22302 1.1717 1.08307 0.875476 0.521648 0.134641 0.0166655 0.000321838 1.80793e-06 1.43183e-09 2.50737e-12 2.27977e-15 6.06533e-19 -6.06533e-19 6.07981e-19 0 -6.07981e-19 6.06533e-19 -6.06533e-19 6.07981e-19 0 -6.07981e-19 0 6.06533e-19 0 0 0 0.0630652 0.126196 0.189468 0.253273 0.315228 0.374465 0.429119 0.483294 0.536654 0.591385 0.63475 0.680676 0.722863 0.78293 0.81533 0.864361 0.889488 0.963641 0.977811 1.02361 1.06941 1.1079 1.14772 1.15748 1.11357 1.05162 0.850503 0.538196 0.154519 0.0233891 0.000693395 6.64175e-06 6.02896e-09 1.82339e-11 1.6147e-14 6.08091e-19 0 0 -6.06533e-19 0 6.06533e-19 0 0 1.44757e-21 -6.07981e-19 0 1.21451e-18 -1.82249e-18 1.21451e-18 0 0 0.0620509 0.12468 0.186905 0.247454 0.306261 0.362652 0.418883 0.473173 0.524234 0.567863 0.616159 0.665014 0.719016 0.753806 0.801132 0.837151 0.900342 0.913372 0.975682 1.00089 1.0597 1.08206 1.09095 1.06752 0.989504 0.803281 0.522951 0.156284 0.0278706 0.00102034 1.42215e-05 1.78178e-08 7.22059e-11 7.06689e-14 1.23277e-16 6.07257e-19 -6.07257e-19 6.07257e-19 -6.07257e-19 6.07257e-19 0 -6.07257e-19 6.07257e-19 7.23787e-22 -1.21524e-18 1.82249e-18 -6.07981e-19 -1.21451e-18 1.21451e-18 0 0 0.0606391 0.120523 0.180012 0.239949 0.298367 0.353954 0.405644 0.456412 0.508044 0.562248 0.610761 0.655132 0.693634 0.74311 0.785367 0.833025 0.855834 0.920243 0.943114 1.00949 1.00076 1.03382 0.99069 0.919812 0.747534 0.470211 0.143797 0.0276075 0.00112502 2.13354e-05 3.26369e-08 1.64722e-10 2.05789e-13 6.99156e-16 0 -6.07257e-19 -7.23787e-22 7.23787e-22 6.07257e-19 -7.23787e-22 0 7.23787e-22 -6.07257e-19 -7.23787e-22 6.07257e-19 0 -1.21451e-18 1.21451e-18 0 0 0 0.059207 0.118517 0.177336 0.234308 0.289401 0.343559 0.397089 0.450377 0.503025 0.551039 0.597184 0.641016 0.687255 0.726261 0.7673 0.803038 0.859135 0.890843 0.939441 0.935154 0.968392 0.892701 0.846504 0.64913 0.39896 0.119113 0.0226186 0.00100538 2.13238e-05 3.82732e-08 2.55194e-10 3.69639e-13 1.66329e-15 6.0487e-19 -6.07981e-19 6.07981e-19 -1.44757e-21 1.44757e-21 -6.07981e-19 6.06533e-19 -1.21379e-18 1.82177e-18 -1.21451e-18 6.06533e-19 0 -1.21451e-18 1.21451e-18 1.21451e-18 -2.42903e-18 0 0 0.0577405 0.115429 0.17247 0.229322 0.284341 0.336964 0.387095 0.437727 0.489161 0.540763 0.587696 0.629399 0.66755 0.711017 0.752645 0.800932 0.830508 0.866637 0.870498 0.878978 0.805687 0.749991 0.523633 0.310118 0.0831743 0.015808 0.000677548 1.41914e-05 3.24557e-08 2.55077e-10 4.27289e-13 2.65019e-15 -6.04873e-19 6.07981e-19 -6.07981e-19 6.07981e-19 -1.44757e-21 1.44757e-21 -6.07981e-19 6.06533e-19 -1.21379e-18 1.21379e-18 0 0 -1.21451e-18 1.21451e-18 0 0 0 0 0 0.0562738 0.112432 0.1677 0.222008 0.27529 0.328123 0.380035 0.430567 0.478912 0.524459 0.568595 0.61265 0.655774 0.698156 0.735981 0.764398 0.791785 0.79197 0.778839 0.712614 0.619845 0.396325 0.207985 0.049034 0.00858613 0.00031186 6.61803e-06 1.76328e-08 1.64394e-10 3.67665e-13 2.6514e-15 -1.20831e-18 0 6.07981e-19 0 -6.07981e-19 6.06533e-19 -6.06533e-19 6.07981e-19 -1.21596e-18 2.42903e-18 -2.42903e-18 1.21451e-18 0 0 0 0 -1.21451e-18 1.21451e-18 0 0 0.0549355 0.109617 0.163622 0.216738 0.268624 0.319554 0.369606 0.419317 0.467777 0.513825 0.557661 0.599221 0.635357 0.66799 0.692269 0.706686 0.697487 0.669526 0.593883 0.46451 0.266856 0.115761 0.0239342 0.00323476 9.73047e-05 1.79878e-06 5.92117e-09 7.19364e-11 2.03859e-13 1.6645e-15 -6.04873e-19 0 1.21451e-18 -1.21451e-18 6.07981e-19 -1.21596e-18 1.82249e-18 -6.07981e-19 -6.06533e-19 6.06533e-19 0 -1.21451e-18 1.21451e-18 0 0 0 0 -1.21451e-18 1.21451e-18 0 0 0.0530736 0.106109 0.158931 0.211124 0.262983 0.314165 0.364141 0.411759 0.456241 0.497109 0.534655 0.567066 0.593838 0.609444 0.608675 0.587783 0.54074 0.440681 0.299949 0.148838 0.0506591 0.00857052 0.000792638 1.91402e-05 2.5039e-07 1.40045e-09 1.81258e-11 6.95195e-14 6.97946e-16 6.0487e-19 -6.07981e-19 6.07981e-19 -1.44757e-21 -6.06533e-19 0 6.06533e-19 -6.06533e-19 6.06533e-19 0 0 0 0 0 -1.21451e-18 1.21451e-18 0 -1.21451e-18 1.21451e-18 0 0 0 0.0523068 0.104404 0.155731 0.205801 0.255093 0.303112 0.349031 0.391218 0.428682 0.461362 0.488149 0.505232 0.508653 0.496176 0.457265 0.380462 0.270124 0.155306 0.0620782 0.0154471 0.00191444 0.000112162 1.96831e-06 2.1806e-08 2.22449e-10 2.47988e-12 1.58992e-14 1.24492e-16 0 -6.07257e-19 6.07257e-19 0 -6.07981e-19 7.23787e-22 6.06533e-19 0 0 -1.21451e-18 1.21451e-18 0 0 0 -1.21451e-18 1.21451e-18 0 0 -1.21451e-18 2.42903e-18 -2.42903e-18 0 0 0.0496811 0.0988317 0.14683 0.19334 0.238098 0.280236 0.318371 0.350764 0.375438 0.391142 0.396921 0.38813 0.355337 0.292852 0.211193 0.126643 0.0564238 0.0160836 0.00266996 0.000213667 7.3541e-06 9.73239e-08 1.61444e-09 1.94915e-11 2.40902e-13 2.27976e-15 6.08803e-19 -6.07257e-19 6.07981e-19 -6.07257e-19 6.07257e-19 -6.07981e-19 0 6.07257e-19 0 0 0 0 -1.21451e-18 1.21451e-18 -1.21451e-18 1.21451e-18 0 0 0 -1.21379e-18 1.21379e-18 0 0 0 0 0.0441309 0.0873998 0.128961 0.167969 0.203329 0.233603 0.257264 0.272587 0.276603 0.264972 0.234878 0.189718 0.136906 0.0826467 0.0369004 0.0109585 0.00197583 0.000192925 8.69163e-06 1.8193e-07 3.49557e-09 7.65831e-11 9.74649e-13 1.78925e-14 1.64392e-16 6.06533e-19 0 -6.06533e-19 0 1.21451e-18 -1.21451e-18 6.06533e-19 -6.06533e-19 6.06533e-19 0 0 -1.21451e-18 1.21451e-18 1.21451e-18 -2.42903e-18 0 1.21451e-18 1.21451e-18 -2.42903e-18 1.21451e-18 -1.21379e-18 2.4283e-18 -2.42903e-18 1.21451e-18 0 0 0.0331755 0.0650599 0.0943238 0.119429 0.13839 0.14885 0.148931 0.138575 0.119953 0.0955476 0.0668179 0.0375377 0.01542 0.00430988 0.000762163 7.61438e-05 3.87172e-06 1.04877e-07 3.01987e-09 8.95497e-11 1.7249e-12 3.88884e-14 7.61313e-16 -2.17668e-17 0 6.06533e-19 0 -6.06533e-19 0 1.21451e-18 -1.21451e-18 6.06533e-19 6.07981e-19 -1.82249e-18 1.21451e-18 0 -1.21451e-18 1.21451e-18 1.21451e-18 -2.42903e-18 1.21451e-18 0 -1.21379e-18 1.21379e-18 -1.21451e-18 2.42903e-18 -1.21451e-18 -1.21451e-18 1.21451e-18 0 0 0.0150471 0.0286444 0.0395234 0.0467181 0.0495698 0.0476573 0.040904 0.0302353 0.0182818 0.00855241 0.00294165 0.000706081 0.000109772 1.01059e-05 5.26837e-07 2.03611e-08 9.67476e-10 3.6872e-11 9.9097e-13 3.28081e-14 8.007e-16 6.06429e-19 -6.07981e-19 6.07981e-19 0 -6.07981e-19 6.06533e-19 -6.06533e-19 6.07981e-19 -6.07981e-19 6.07981e-19 -6.07981e-19 6.06533e-19 0 -1.21451e-18 1.21451e-18 1.21451e-18 -1.21451e-18 -1.21451e-18 1.21451e-18 0 0 -1.21379e-18 1.21379e-18 0 0 -1.21451e-18 1.21451e-18 0 0 0 0.00260824 0.00461117 0.00556168 0.00531946 0.00414025 0.00259608 0.00127944 0.000480058 0.000131974 2.53044e-05 3.19946e-06 2.66233e-07 1.82604e-08 1.4341e-09 9.79053e-11 4.536e-12 2.0338e-13 9.88128e-15 2.6665e-16 -1.99802e-17 -6.07981e-19 6.07981e-19 -6.07981e-19 6.07981e-19 0 0 -1.21596e-18 1.82249e-18 -1.21451e-18 6.06533e-19 -6.06533e-19 0 6.06533e-19 0 0 -1.21451e-18 2.42903e-18 -2.42903e-18 1.21451e-18 0 0 -1.21451e-18 1.21451e-18 0 0 0 -1.21451e-18 2.42903e-18 -2.42903e-18 0 0 1.19603e-05 1.76018e-05 1.56587e-05 9.82428e-06 4.49238e-06 1.49913e-06 3.64753e-07 6.74085e-08 1.09016e-08 1.76628e-09 2.54612e-10 2.70381e-11 2.16236e-12 1.72687e-13 1.41847e-14 8.42947e-16 2.00837e-23 -1.21524e-18 1.21524e-18 -6.07257e-19 6.06533e-19 7.23787e-22 -6.07257e-19 6.07257e-19 0 -6.07257e-19 6.06533e-19 0 0 -1.21379e-18 1.21379e-18 0 0 0 0 -1.21451e-18 0 1.21451e-18 0 0 -1.21379e-18 1.21379e-18 0 0 0 -1.21379e-18 1.21379e-18 0 0 0 0 1.80588e-10 2.7249e-10 2.55699e-10 1.7589e-10 9.21989e-11 3.69159e-11 1.12355e-11 2.64868e-12 5.24795e-13 9.74109e-14 1.65271e-14 2.17736e-15 2.16362e-16 1.02643e-17 -6.09581e-19 -7.23787e-22 6.07981e-19 -6.07257e-19 6.07257e-19 -6.07257e-19 1.21451e-18 -1.21524e-18 6.07257e-19 -6.07257e-19 0 6.07257e-19 0 -6.06533e-19 1.21451e-18 -1.82177e-18 1.21379e-18 0 -1.21451e-18 2.42903e-18 -2.42903e-18 1.21451e-18 -1.21451e-18 2.42903e-18 -2.42903e-18 1.21451e-18 -1.21379e-18 1.21379e-18 1.21451e-18 -2.42903e-18 1.21451e-18 -1.21379e-18 2.4283e-18 -2.42903e-18 1.21451e-18 0 0 1.95556e-15 3.13167e-15 3.2178e-15 2.50881e-15 1.47421e-15 7.34321e-16 2.77496e-16 9.19982e-17 6.04103e-19 -3.0166e-19 3.0399e-19 -6.07981e-19 6.07981e-19 -3.0399e-19 3.0399e-19 -6.07981e-19 0 1.21451e-18 -1.21451e-18 6.07981e-19 -6.07981e-19 0 1.21451e-18 -1.21451e-18 0 6.06533e-19 0 -6.06533e-19 6.07981e-19 -1.44757e-21 0 -1.21451e-18 1.21451e-18 0 -1.21451e-18 2.42903e-18 -1.21451e-18 -1.21379e-18 1.21379e-18 -1.21451e-18 2.42903e-18 -1.21451e-18 -1.21379e-18 1.21379e-18 -1.2145