<?xml version="1.0"?>
<VTKFile type="PolyData">
	<PolyData>
		<Piece NumberOfPoints="2601" NumberOfPolys="2500">
			<Points>
				<DataArray type="Float32" NumberOfComponents="3" format="ascii">
 0 0 0 0.486801 0 0 0.310628 0 0 0.437859 0 0 0.435186 0 0 0.466181 0 0 0.487875 0 0 0.508205 0 0 0.52738 0 0 0.542178 0 0 0.55823 0 0 0.570108 0 0 0.584133 0 0 0.595237 0 0 0.607583 0 0 0.617082 0 0 0.628245 0 0 0.636269 0 0 0.645694 0 0 0.652854 0 0 0.661159 0 0 0.66809 0 0 0.675384 0 0 0.681617 0 0 0.687628 0 0 0.693487 0 0 0.698991 0 0 0.704254 0 0 0.709161 0 0 0.713926 0 0 0.718497 0 0 0.722843 0 0 0.727039 0 0 0.73106 0 0 0.734829 0 0 0.738674 0 0 0.7434 0 0 0.750468 0 0 0.76222 0 0 0.780069 0 0 0.8 0 0 0.82 0 0 0.84 0 0 0.86 0 0 0.88 0 0 0.9 0 0 0.92 0 0 0.94 0 0 0.96 0 0 0.98 0 0 1 0 0 0 0.486801 0 0.172484 0.172484 0 0.428344 0.200038 0 0.357653 0.173778 0 0.432722 0.110329 0 0.456671 0.0984597 0 0.482865 0.0876856 0 0.504648 0.0780854 0 0.522363 0.0725057 0 0.54051 0.0664513 0 0.554192 0.0613882 0 0.569605 0.0563501 0 0.581554 0.0523371 0 0.594971 0.0489788 0 0.605317 0.0463218 0 0.617187 0.0440579 0 0.626046 0.0418325 0 0.6364 0.0398 0 0.643894 0.037815 0 0.652724 0.0360382 0 0.659925 0.0344572 0 0.667791 0.033092 0 0.674571 0.0318898 0 0.681153 0.0307266 0 0.687034 0.0296107 0 0.693036 0.0285439 0 0.698481 0.0275296 0 0.703824 0.0265918 0 0.708761 0.0257392 0 0.713555 0.0249675 0 0.718148 0.0242579 0 0.722514 0.0235868 0 0.726724 0.0229424 0 0.730758 0.0223213 0 0.734543 0.0217254 0 0.738413 0.0211698 0 0.743177 0.0206802 0 0.750307 0.0202951 0 0.76215 0.020071 0 0.780065 0.0200042 0 0.8 0.02 0 0.82 0.02 0 0.84 0.02 0 0.86 0.02 0 0.88 0.02 0 0.9 0.02 0 0.92 0.02 0 0.94 0.02 0 0.96 0.02 0 0.98 0.02 0 1 0.02 0 0 0.310628 0 0.200038 0.428344 0 0.200826 0.200826 0 0.381056 0.267505 0 0.385737 0.219141 0 0.430966 0.18629 0 0.462491 0.165729 0 0.487719 0.154751 0 0.510476 0.140572 0 0.528641 0.130574 0 0.547406 0.119906 0 0.561578 0.111396 0 0.577244 0.103563 0 0.589215 0.0973996 0 0.602212 0.0922214 0 0.612226 0.087555 0 0.623776 0.0833662 0 0.632215 0.0791209 0 0.642014 0.075257 0 0.649542 0.0716921 0 0.658257 0.0685977 0 0.665473 0.0659251 0 0.672867 0.0634684 0 0.679222 0.0611738 0 0.685648 0.0589832 0 0.691503 0.0568945 0 0.697105 0.0548911 0 0.702494 0.0530508 0 0.707605 0.0513702 0 0.712439 0.0498463 0 0.717114 0.0484365 0 0.721527 0.0470957 0 0.725787 0.0458066 0 0.729862 0.0445676 0 0.73369 0.0433826 0 0.737637 0.0422827 0 0.742515 0.0413168 0 0.749831 0.0405619 0 0.76195 0.0401311 0 0.780053 0.0400071 0 0.8 0.04 0 0.82 0.04 0 0.84 0.04 0 0.86 0.04 0 0.88 0.04 0 0.9 0.04 0 0.92 0.04 0 0.94 0.04 0 0.96 0.04 0 0.98 0.04 0 1 0.04 0 0 0.437859 0 0.173778 0.357653 0 0.267505 0.381056 0 0.230276 0.230276 0 0.340159 0.306139 0 0.398671 0.24976 0 0.434326 0.237961 0 0.466056 0.214964 0 0.491668 0.202956 0 0.515524 0.186403 0 0.534017 0.174359 0 0.553127 0.161881 0 0.567593 0.152482 0 0.58283 0.143787 0 0.594448 0.136638 0 0.607311 0.13012 0 0.617179 0.123613 0 0.628382 0.117607 0 0.636735 0.111752 0 0.646385 0.106589 0 0.654237 0.102113 0 0.662593 0.098176 0 0.669492 0.0946691 0 0.676546 0.0913052 0 0.683057 0.088096 0 0.6891 0.0849425 0 0.694839 0.0820065 0 0.700361 0.0792823 0 0.705685 0.0768212 0 0.710615 0.074563 0 0.715402 0.0724646 0 0.719905 0.0704545 0 0.724236 0.0685219 0 0.728389 0.0666709 0 0.732293 0.0649121 0 0.736364 0.0632899 0 0.741433 0.0618722 0 0.749063 0.0607758 0 0.761645 0.0601714 0 0.780037 0.0600078 0 0.8 0.06 0 0.82 0.06 0 0.84 0.06 0 0.86 0.06 0 0.88 0.06 0 0.9 0.06 0 0.92 0.06 0 0.94 0.06 0 0.96 0.06 0 0.98 0.06 0 1 0.06 0 0 0.435186 0 0.110329 0.432722 0 0.219141 0.385737 0 0.306139 0.340159 0 0.291398 0.291398 0 0.359078 0.332254 0 0.409782 0.275615 0 0.443277 0.27417 0 0.472932 0.250496 0 0.497504 0.238839 0 0.520752 0.221916 0 0.538761 0.210451 0 0.557239 0.198011 0 0.571119 0.188619 0 0.586075 0.179237 0 0.597822 0.17061 0 0.610808 0.162462 0 0.620693 0.154421 0 0.63179 0.147145 0 0.640384 0.140583 0 0.649962 0.134867 0 0.657637 0.129893 0 0.665587 0.125251 0 0.672621 0.120956 0 0.679497 0.116682 0 0.685702 0.112596 0 0.691799 0.108753 0 0.697446 0.105225 0 0.703011 0.102018 0 0.708109 0.0990535 0 0.713028 0.096265 0 0.717671 0.0935885 0 0.722095 0.0910189 0 0.726357 0.0885768 0 0.730377 0.0862698 0 0.734619 0.0841543 0 0.739958 0.0823165 0 0.748039 0.0809181 0 0.761278 0.0801868 0 0.780023 0.0800066 0 0.8 0.08 0 0.82 0.08 0 0.84 0.08 0 0.86 0.08 0 0.88 0.08 0 0.9 0.08 0 0.92 0.08 0 0.94 0.08 0 0.96 0.08 0 0.98 0.08 0 1 0.08 0 0 0.466181 0 0.0984597 0.456671 0 0.18629 0.430966 0 0.24976 0.398671 0 0.332254 0.359078 0 0.344995 0.344995 0 0.386632 0.343017 0 0.420464 0.301981 0 0.452178 0.303026 0 0.479592 0.279277 0 0.50239 0.269359 0 0.524623 0.252817 0 0.541795 0.242214 0 0.559881 0.229414 0 0.57389 0.219293 0 0.589014 0.208867 0 0.600934 0.198957 0 0.613826 0.189744 0 0.62377 0.181156 0 0.634675 0.173563 0 0.643221 0.166911 0 0.652366 0.160785 0 0.660147 0.155253 0 0.668027 0.149817 0 0.674824 0.144623 0 0.68164 0.139648 0 0.687895 0.135045 0 0.693864 0.130778 0 0.69957 0.126882 0 0.704955 0.123226 0 0.710006 0.119752 0 0.714854 0.116425 0 0.7194 0.113245 0 0.723787 0.110242 0 0.727961 0.107421 0 0.732426 0.104845 0 0.738126 0.102625 0 0.746809 0.100977 0 0.7609 0.100176 0 0.780011 0.100004 0 0.8 0.1 0 0.82 0.1 0 0.84 0.1 0 0.86 0.1 0 0.88 0.1 0 0.9 0.1 0 0.92 0.1 0 0.94 0.1 0 0.96 0.1 0 0.98 0.1 0 1 0.1 0 0 0.487875 0 0.0876856 0.482865 0 0.165729 0.462491 0 0.237961 0.434326 0 0.275615 0.409782 0 0.343017 0.386632 0 0.369911 0.369911 0 0.403879 0.359232 0 0.430872 0.325623 0 0.45946 0.328277 0 0.485661 0.303658 0 0.507038 0.295715 0 0.528496 0.278706 0 0.545159 0.26856 0 0.563148 0.255129 0 0.577174 0.244424 0 0.592156 0.23342 0 0.603865 0.223286 0 0.616386 0.214004 0 0.626128 0.205609 0 0.63666 0.19785 0 0.645287 0.190956 0 0.654398 0.184231 0 0.662057 0.177925 0 0.669661 0.171761 0 0.676698 0.166107 0 0.683338 0.160759 0 0.689558 0.155864 0 0.695491 0.151281 0 0.701126 0.146965 0 0.706404 0.142828 0 0.711459 0.138894 0 0.716187 0.13515 0 0.720704 0.13163 0 0.725069 0.128332 0 0.729818 0.125332 0 0.735987 0.122777 0 0.745443 0.12095 0 0.760562 0.120145 0 0.780005 0.120002 0 0.8 0.12 0 0.82 0.12 0 0.84 0.12 0 0.86 0.12 0 0.88 0.12 0 0.9 0.12 0 0.92 0.12 0 0.94 0.12 0 0.96 0.12 0 0.98 0.12 0 1 0.12 0 0 0.508205 0 0.0780854 0.504648 0 0.154751 0.487719 0 0.214964 0.466056 0 0.27417 0.443277 0 0.301981 0.420464 0 0.359232 0.403879 0 0.389157 0.389157 0 0.417899 0.376155 0 0.441449 0.347057 0 0.466225 0.350469 0 0.491211 0.324068 0 0.511417 0.318354 0 0.532378 0.300468 0 0.548606 0.290762 0 0.566172 0.277042 0 0.579901 0.266359 0 0.594418 0.255369 0 0.60588 0.245503 0 0.618068 0.236133 0 0.627851 0.227813 0 0.638409 0.219686 0 0.647013 0.212305 0 0.655755 0.204937 0 0.663508 0.198245 0 0.671122 0.191803 0 0.678018 0.185884 0 0.684656 0.180318 0 0.690817 0.175109 0 0.696717 0.170145 0 0.702264 0.165427 0 0.707531 0.160944 0 0.712482 0.156707 0 0.717144 0.152707 0 0.721734 0.148969 0 0.726843 0.145583 0 0.733613 0.142755 0 0.744035 0.140844 0 0.760303 0.140101 0 0.780002 0.140001 0 0.8 0.14 0 0.82 0.14 0 0.84 0.14 0 0.86 0.14 0 0.88 0.14 0 0.9 0.14 0 0.92 0.14 0 0.94 0.14 0 0.96 0.14 0 0.98 0.14 0 1 0.14 0 0 0.52738 0 0.0725057 0.522363 0 0.140572 0.510476 0 0.202956 0.491668 0 0.250496 0.472932 0 0.303026 0.452178 0 0.325623 0.430872 0 0.376155 0.417899 0 0.405948 0.405948 0 0.430991 0.390975 0 0.452903 0.366375 0 0.474829 0.368435 0 0.49763 0.341231 0 0.516654 0.337448 0 0.536781 0.31877 0 0.552322 0.309787 0 0.569235 0.29607 0 0.582497 0.285752 0 0.596487 0.274778 0 0.607779 0.265304 0 0.619897 0.255786 0 0.629608 0.24741 0 0.639741 0.238811 0 0.648353 0.231208 0 0.657068 0.223662 0 0.664687 0.216776 0 0.672237 0.210189 0 0.679123 0.204069 0 0.685694 0.198232 0 0.691796 0.192722 0 0.697641 0.187496 0 0.703111 0.182551 0 0.708308 0.177873 0 0.713149 0.173436 0 0.718009 0.169291 0 0.723562 0.165573 0 0.731093 0.162557 0 0.742709 0.160682 0 0.760136 0.160057 0 0.78 0.16 0 0.8 0.16 0 0.82 0.16 0 0.84 0.16 0 0.86 0.16 0 0.88 0.16 0 0.9 0.16 0 0.92 0.16 0 0.94 0.16 0 0.96 0.16 0 0.98 0.16 0 1 0.16 0 0 0.542178 0 0.0664513 0.54051 0 0.130574 0.528641 0 0.186403 0.515524 0 0.238839 0.497504 0 0.279277 0.479592 0 0.328277 0.45946 0 0.347057 0.441449 0 0.390975 0.430991 0 0.420599 0.420599 0 0.443063 0.404085 0 0.464798 0.383443 0 0.485254 0.382323 0 0.505075 0.356167 0 0.523288 0.353174 0 0.542023 0.334242 0 0.556712 0.326115 0 0.572692 0.312552 0 0.585462 0.302874 0 0.599074 0.291919 0 0.610077 0.282793 0 0.621678 0.272954 0 0.631193 0.264624 0 0.641272 0.255971 0 0.64972 0.248296 0 0.658199 0.240643 0 0.665877 0.233689 0 0.673251 0.226952 0 0.680101 0.220687 0 0.686475 0.214683 0 0.692565 0.209056 0 0.698277 0.203692 0 0.703702 0.198614 0 0.708774 0.193769 0 0.713963 0.189269 0 0.720059 0.185297 0 0.728531 0.182204 0 0.741598 0.180491 0 0.76005 0.180026 0 0.78 0.18 0 0.8 0.18 0 0.82 0.18 0 0.84 0.18 0 0.86 0.18 0 0.88 0.18 0 0.9 0.18 0 0.92 0.18 0 0.94 0.18 0 0.96 0.18 0 0.98 0.18 0 1 0.18 0 0 0.55823 0 0.0613882 0.554192 0 0.119906 0.547406 0 0.174359 0.534017 0 0.221916 0.520752 0 0.269359 0.50239 0 0.303658 0.485661 0 0.350469 0.466225 0 0.366375 0.452903 0 0.404085 0.443063 0 0.433176 0.433176 0 0.453865 0.415623 0 0.4755 0.398425 0 0.495348 0.393667 0 0.512853 0.369755 0 0.530257 0.366617 0 0.547536 0.347917 0 0.561572 0.340525 0 0.576641 0.327111 0 0.588947 0.318041 0 0.601862 0.3069 0 0.612438 0.298091 0 0.623826 0.28828 0 0.633145 0.280098 0 0.642775 0.27138 0 0.651193 0.263775 0 0.659431 0.256129 0 0.666976 0.249172 0 0.674164 0.242438 0 0.680761 0.236114 0 0.687111 0.230088 0 0.693069 0.224361 0 0.698725 0.218891 0 0.704067 0.213689 0 0.709669 0.2089 0 0.716442 0.204778 0 0.726054 0.201746 0 0.740798 0.200305 0 0.760014 0.200009 0 0.78 0.2 0 0.8 0.2 0 0.82 0.2 0 0.84 0.2 0 0.86 0.2 0 0.88 0.2 0 0.9 0.2 0 0.92 0.2 0 0.94 0.2 0 0.96 0.2 0 0.98 0.2 0 1 0.2 0 0 0.570108 0 0.056350
[...]
			<PointData Scalars="VitesseX">
				<DataArray Name="VitesseX" type="Float32" format="ascii">
 0 1.68973 0.322092 1.11041 0.91308 1.02158 1.01681 1.10262 1.13168 1.16438 1.23679 1.24064 1.26765 1.31701 1.34412 1.34447 1.37686 1.42554 1.48169 1.47099 1.49855 1.50309 1.55277 1.61178 1.6351 1.5789 1.64983 1.67561 1.68271 1.71526 1.71431 1.72576 1.74722 1.75575 1.78811 1.73947 1.5713 1.1841 0.512933 0.0310093 3.01274e-05 3.92745e-10 4.53332e-15 0 0 -6.93354e-20 6.93354e-20 -6.93354e-20 6.93354e-20 0 0 0 0.14088 1.29748 0.578099 0.943548 0.957968 1.02426 1.08529 1.13454 1.15746 1.21866 1.24998 1.25702 1.31439 1.34861 1.33806 1.37542 1.43425 1.47129 1.48136 1.48307 1.51176 1.55427 1.6136 1.61082 1.60023 1.64222 1.67535 1.67998 1.71485 1.71357 1.72446 1.74808 1.75641 1.78693 1.73707 1.56687 1.17617 0.501831 0.029226 2.69047e-05 3.57907e-10 4.19668e-15 0 0 -6.93354e-20 6.93354e-20 -6.93354e-20 6.93354e-20 0 0 0 0.744671 0.163408 1.08287 0.724687 0.89916 0.949422 1.04915 1.07922 1.13537 1.20048 1.20508 1.25515 1.30349 1.33001 1.3355 1.37133 1.42528 1.4767 1.46012 1.48248 1.50954 1.5731 1.58146 1.58708 1.63433 1.63111 1.67046 1.67373 1.71125 1.71442 1.7207 1.7495 1.75892 1.78271 1.72968 1.55347 1.1523 0.468905 0.0243884 1.91165e-05 2.70185e-10 3.3127e-15 -7.13747e-20 0 3.6707e-20 -3.6707e-20 3.6707e-20 -3.6707e-20 0 0 0 0.592811 0.776255 0.207491 0.67091 0.813229 0.918266 0.980723 1.05048 1.10284 1.16389 1.18991 1.23178 1.2913 1.31379 1.3182 1.36461 1.42284 1.4538 1.4572 1.46335 1.52952 1.55801 1.5523 1.58988 1.64414 1.62893 1.65819 1.66839 1.70099 1.71825 1.71601 1.75024 1.76208 1.77531 1.71712 1.53044 1.11196 0.415565 0.0178436 1.07343e-05 1.67764e-10 2.22045e-15 0 0 -7.20545e-20 7.20545e-20 -7.20545e-20 7.20545e-20 0 0 0 0.246063 0.513957 0.759026 0.606244 0.760575 0.863813 0.972779 1.00916 1.08475 1.12261 1.16185 1.22718 1.26072 1.28862 1.3084 1.35459 1.40563 1.4419 1.43815 1.47626 1.51253 1.53036 1.54777 1.60855 1.61729 1.6408 1.63872 1.66824 1.68313 1.72147 1.71412 1.74862 1.76378 1.76576 1.69888 1.49615 1.05384 0.345049 0.0112628 4.71695e-06 8.48051e-11 1.2592e-15 7.13747e-20 0 -6.79759e-22 6.79759e-22 -1.43429e-19 1.43429e-19 0 0 0 0.224653 0.39523 0.496784 0.802639 0.871262 0.886792 0.906388 1.00955 1.04049 1.09167 1.13258 1.19097 1.23432 1.25569 1.29349 1.34134 1.38619 1.41274 1.4452 1.46444 1.49002 1.49485 1.57229 1.59696 1.59616 1.6424 1.62664 1.66327 1.67021 1.71482 1.71799 1.74305 1.76343 1.75465 1.67377 1.44791 0.975145 0.263533 0.00599939 1.60716e-06 3.45546e-11 6.01455e-16 -1.42749e-19 0 1.42749e-19 -1.42749e-19 1.42749e-19 -1.42749e-19 0 0 0 0.191411 0.331756 0.492746 0.525674 0.720703 0.891826 0.929272 0.94571 1.01834 1.04906 1.11915 1.15478 1.19424 1.24045 1.27214 1.32146 1.36286 1.39935 1.42623 1.44692 1.44622 1.5077 1.56557 1.57057 1.5867 1.62754 1.62237 1.65243 1.66776 1.69759 1.72222 1.73658 1.76049 1.74125 1.64094 1.38303 0.871389 0.180613 0.00262473 4.25347e-07 1.13234e-11 2.36293e-16 1.42749e-19 0 -1.42749e-19 0 1.42749e-19 -1.42749e-19 0 0 0 0.164261 0.331782 0.429674 0.575313 0.596617 0.740237 0.911898 0.952533 0.966134 1.02567 1.07546 1.12629 1.16127 1.2049 1.25877 1.29273 1.34241 1.37799 1.39991 1.40119 1.45017 1.50898 1.54006 1.54632 1.58325 1.59625 1.62165 1.63997 1.66906 1.68101 1.71823 1.73317 1.75338 1.72319 1.60012 1.30036 0.738062 0.107705 0.000913692 9.07053e-08 3.04016e-12 6.68341e-17 1.42749e-19 0 -2.85499e-19 2.85499e-19 -2.85499e-19 2.85499e-19 0 0 0 0.161325 0.284563 0.429508 0.50102 0.65552 0.66355 0.782012 0.927385 0.972761 1.00721 1.03787 1.07586 1.14385 1.18429 1.22735 1.28101 1.31925 1.34955 1.35873 1.39426 1.45474 1.49444 1.49709 1.55108 1.5609 1.5773 1.61024 1.63513 1.66472 1.67415 1.70389 1.73174 1.74194 1.69799 1.54848 1.19971 0.57606 0.0539228 0.000243822 1.70404e-08 7.02013e-13 1.02646e-17 -1.42749e-19 2.85499e-19 -1.42749e-19 2.85499e-19 -5.70998e-19 5.70998e-19 -2.85499e-19 0 0 0.144269 0.275657 0.388034 0.508656 0.575378 0.723927 0.71905 0.8269 0.942999 0.992383 1.04371 1.06932 1.10129 1.17435 1.21395 1.25225 1.30356 1.31342 1.34315 1.40366 1.44922 1.44829 1.49588 1.53545 1.54521 1.57256 1.59315 1.63804 1.65366 1.67315 1.68635 1.72693 1.72861 1.66403 1.479 1.0769 0.399005 0.0218023 4.76851e-05 3.00846e-09 1.45769e-13 5.78073e-24 0 0 2.85499e-19 -2.85499e-19 0 0 0 0 0 0.136073 0.260033 0.36871 0.468708 0.572873 0.63443 0.795728 0.786105 0.870414 0.978677 1.02944 1.0842 1.11985 1.13104 1.20379 1.24602 1.26478 1.30541 1.35458 1.39923 1.40487 1.44412 1.49121 1.51509 1.53649 1.57332 1.57834 1.6424 1.63774 1.67172 1.67236 1.71786 1.71037 1.62104 1.38513 0.919239 0.234367 0.0068327 6.50434e-06 4.61488e-10 2.63555e-14 2.85499e-19 -2.85499e-19 0 0 0 2.85499e-19 -5.70998e-19 5.70998e-19 0 0 0.123047 0.235197 0.341989 0.444967 0.546452 0.644198 0.700021 0.842637 0.836568 0.93165 1.02209 1.03824 1.12458 1.13747 1.17145 1.22645 1.25289 1.30662 1.35809 1.36325 1.38703 1.44971 1.48365 1.48966 1.54893 1.551 1.58668 1.6273 1.63349 1.66147 1.66827 1.70519 1.67994 1.56268 1.26627 0.714537 0.111017 0.00158401 6.08526e-07 5.40171e-11 3.74163e-15 2.85499e-19 -2.85499e-19 0 0 0 2.85499e-19 -2.85499e-19 0 0 0 0.114118 0.216781 0.332174 0.432361 0.537008 0.613568 0.703475 0.737733 0.875174 0.894312 0.964096 1.05247 1.07362 1.14278 1.18161 1.18681 1.26088 1.31449 1.3177 1.33833 1.40118 1.44746 1.45355 1.50281 1.52928 1.54332 1.58617 1.60481 1.63477 1.64505 1.66914 1.68714 1.63598 1.47574 1.11817 0.476064 0.0402925 0.000255312 4.48593e-08 4.79697e-12 3.4939e-16 -2.85499e-19 5.70998e-19 -2.85499e-19 2.85499e-19 -2.85499e-19 -2.85499e-19 8.55137e-19 -8.55137e-19 0 0 0.105795 0.216915 0.311629 0.433318 0.50247 0.603525 0.659333 0.764272 0.78621 0.910737 0.945721 0.999691 1.06303 1.10555 1.151 1.19421 1.24402 1.28341 1.29873 1.34545 1.40885 1.42378 1.45212 1.49566 1.5116 1.54121 1.57327 1.58668 1.62979 1.63445 1.66858 1.65832 1.58012 1.35512 0.919085 0.253837 0.0106488 2.64058e-05 3.49937e-09 3.9471e-13 1.06292e-17 -5.70998e-19 5.70998e-19 0 -2.85499e-19 0 -1.35952e-21 0 1.35952e-21 0 0 0.104912 0.202457 0.308687 0.400485 0.501987 0.558496 0.665038 0.70644 0.817917 0.832446 0.928926 0.98423 1.02275 1.10678 1.094 1.19708 1.24062 1.25645 1.29864 1.35839 1.38776 1.41258 1.46034 1.47658 1.49811 1.54633 1.54356 1.58939 1.60508 1.63821 1.65688 1.61998 1.49781 1.20617 0.654207 0.101211 0.00192958 1.63808e-06 2.60296e-10 3.33238e-14 2.85499e-19 0 -2.85499e-19 0 0 0 -1.35952e-21 -2.84139e-19 5.70998e-19 0 0 0.0977083 0.195701 0.287909 0.39128 0.47252 0.559211 0.618274 0.725091 0.746962 0.858346 0.872308 0.962194 1.0052 1.01842 1.11391 1.16621 1.1927 1.23434 1.28263 1.34824 1.37033 1.41926 1.44431 1.45583 1.50751 1.51437 1.54584 1.57488 1.59035 1.63508 1.63129 1.56842 1.37808 1.00971 0.36864 0.0283766 0.000218225 6.82102e-08 1.37826e-11 2.128e-15 -5.70998e-19 5.70998e-19 -2.85499e-19 0 -2.85499e-19 5.70998e-19 -5.70998e-19 5.70998e-19 0 0 0 0.0944549 0.190905 0.280463 0.378067 0.462944 0.5331 0.615499 0.676646 0.77181 0.783748 0.891729 0.894454 0.974634 1.05809 1.07304 1.13945 1.17606 1.24562 1.27959 1.30604 1.36019 1.40177 1.41242 1.45251 1.48371 1.4994 1.54052 1.55635 1.58709 1.62106 1.59097 1.48659 1.22729 0.731524 0.150857 0.0052464 1.37122e-05 3.06919e-09 6.13607e-13 -1.9988e-17 -5.70998e-19 0 5.70998e-19 0 -5.70998e-19 5.70998e-19 0 -5.70998e-19 5.70998e-19 0 0 0.0936104 0.184912 0.276216 0.362018 0.449109 0.516411 0.595454 0.671088 0.723788 0.800615 0.805433 0.930172 0.938333 1.01479 1.07271 1.09215 1.17394 1.20104 1.2528 1.29361 1.34224 1.36807 1.40726 1.44187 1.45331 1.49552 1.52675 1.53671 1.59059 1.57976 1.53477 1.35666 1.02198 0.40914 0.0415642 0.000582801 4.504e-07 1.3502e-10 3.06514e-14 -4.08101e-17 0 -5.70998e-19 0 5.70998e-19 0 0 -5.70998e-19 5.69638e-19 -5.69638e-19 0 0 0.0900684 0.180742 0.261475 0.348344 0.423253 0.506359 0.573098 0.647483 0.700732 0.753365 0.843587 0.858883 0.950912 0.962419 1.01605 1.14075 1.12615 1.17799 1.22393 1.2755 1.30127 1.33658 1.38762 1.40525 1.44269 1.48353 1.49322 1.54685 1.55875 1.5418 1.42994 1.19354 0.713976 0.158474 0.00720639 3.33744e-05 1.16182e-08 3.94139e-12 1.11131e-15 -1.14064e-18 0 5.70998e-19 -1.35952e-21 -5.69638e-19 5.70998e-19 -5.70998e-19 5.69638e-19 0 -5.69638e-19 0 0 0.0858018 0.16746 0.2473 0.326117 0.412756 0.485548 0.557298 0.609316 0.684062 0.753011 0.806585 0.863544 0.863622 0.97542 0.997924 1.07221 1.14149 1.1557 1.22127 1.26437 1.28121 1.33286 1.34348 1.38035 1.43562 1.45338 1.49751 1.529 1.52593 1.46249 1.2888 0.951416 0.363815 0.0392249 0.000691107 8.9424e-07 3.69119e-10 1.19091e-13 -2.05069e-17 -5.69638e-19 0 5.70998e-19 -1.35952e-21 -5.69638e-19 5.70998e-19 -5.70998e-19 5.69638e-19 -5.69638e-19 5.70998e-19 0 0 0.0803752 0.159467 0.236091 0.320139 0.399777 0.46864 0.527283 0.599366 0.674578 0.743958 0.775773 0.811977 0.894186 0.918198 1.01777 1.03877 1.09841 1.14709 1.19344 1.22787 1.28694 1.30856 1.32254 1.37624 1.40618 1.44299 1.49269 1.4952 1.46807 1.34231 1.09663 0.595968 0.121013 0.00552462 3.18094e-05 1.53609e-08 8.04705e-12 3.53586e-15 -5.72501e-19 5.70998e-19 -5.70998e-19 5.70998e-19 -5.70998e-19 5.70998e-19 0 -5.70998e-19 0 5.70998e-19 0 0 0 0.0773295 0.157183 0.235886 0.314499 0.38566 0.447628 0.520167 0.59901 0.66332 0.705249 0.754484 0.814373 0.870799 0.931491 0.946225 1.03842 1.09156 1.11078 1.14717 1.20208 1.25108 1.28554 1.33323 1.35344 1.38044 1.4458 1.45948 1.4569 1.36266 1.17851 0.789035 0.25341 0.0229174 0.000406528 5.58517e-07 3.59029e-10 1.60002e-13 2.04995e-17 5.70998e-19 -5.70998e-19 5.69638e-19 1.35952e-21 -5.70998e-19 5.70998e-19 -5.70998e-19 5.69638e-19 1.35952e-21 -5.70998e-19 5.70998e-19 0 0 0.0785333 0.159113 0.231955 0.299096 0.371121 0.445003 0.521966 0.582531 0.634104 0.686248 0.750993 0.803962 0.847292 0.889677 0.967132 0.985762 1.05933 1.0973 1.14488 1.16773 1.19526 1.2749 1.30548 1.32354 1.37782 1.41 1.42469 1.35643 1.224 0.915237 0.409195 0.0604766 0.00246227 1.06025e-05 7.58552e-09 5.13526e-12 3.45252e-15 0 5.70998e-19 -5.70998e-19 1.14064e-18 -1.14064e-18 0 5.70998e-19 -5.70998e-19 1.14064e-18 -1.14064e-18 5.69638e-19 -5.69638e-19 0 0 0.0788012 0.151102 0.219295 0.29215 0.371342 0.445703 0.502899 0.559677 0.617548 0.684001 0.727565 0.776816 0.824122 0.889036 0.92554 0.976935 1.01276 1.08111 1.11172 1.14354 1.19965 1.22435 1.27465 1.32463 1.34715 1.36316 1.33049 1.23135 0.979919 0.552981 0.115904 0.00886367 8.88409e-05 1.29541e-07 1.10979e-10 8.2435e-14 4.16881e-17 1.35952e-21 -5.70998e-19 5.70998e-19 -5.70998e-19 5.69638e-19 1.35952e-21 -5.70998e-19 5.70998e-19 -5.70998e-19 5.69638e-19 0 -5.69638e-19 0 0 0.0710719 0.140403 0.216941 0.292823 0.362765 0.423029 0.485706 0.547941 0.611649 0.655223 0.708244 0.758774 0.822124 0.853497 0.906612 0.946275 1.01484 1.02872 1.0809 1.14364 1.17519 1.20395 1.26765 1.29521 1.31095 1.2845 1.19851 1.00544 0.649331 0.176838 0.0215619 0.000397182 1.59728e-06 1.1847e-09 1.25311e-12 9.45144e-16 5.68128e-19 1.35952e-21 -5.70998e-19 5.70998e-19 -5.70998e-19 5.69638e-19 1.35952e-21 -5.70998e-19 5.70998e-19 -5.70998e-19 5.69638e-19 -5.69638e-19 5.70998e-19 0 0 0.068327 0.141217 0.213677 0.281644 0.344251 0.40968 0.473667 0.533365 0.583722 0.642899 0.694927 0.751341 0.785085 0.845071 0.88539 0.943295 0.963108 1.02897 1.06686 1.10466 1.15465 1.20083 1.23875 1.27313 1.2357 1.1624 0.995864 0.686386 0.229409 0.0375642 0.00114426 1.06708e-05 7.56493e-09 1.52791e-11 1.27043e-14 -2.05803e-17 -1.142e-18 1.142e-18 0 0 0 -1.142e-18 1.142e-18 0 0 0 -1.142e-18 1.71163e-18 -1.14064e-18 0 0 0.0694889 0.137046 0.203937 0.272007 0.338684 0.399841 0.458019 0.514003 0.574466 0.626307 0.676953 0.719594 0.78236 0.822474 0.873817 0.896897 0.973399 0.996057 1.04989 1.0888 1.1383 1.18811 1.19619 1.18669 1.13555 0.960495 0.689817 0.257137 0.0508884 0.0023465 3.67147e-05 3.60594e-08 1.14066e-10 8.44299e-14 1.43872e-16 -5.70998e-19 5.69638e-19 -5.69638e-19 5.70998e-19 0 -5.70998e-19 5.69638e-19 -5.69638e-19 5.70998e-19 0 -5.70998e-19 0 5.69638e-19 0 0 0 0.0666281 0.133113 0.198204 0.261814 0.323646 0.385134 0.445046 0.504111 0.556865 0.609093 0.661006 0.718178 0.758371 0.805599 0.841177 0.908556 0.930145 0.992938 1.01919 1.08983 1.11573 1.12932 1.1307 1.06077 0.9202 0.67315 0.255754 0.0581324 0.00338184 7.51777e-05 1.2612e-07 4.4524e-10 3.81091e-13 1.02731e-15 0 5.69638e-19 0 0 -5.69638e-19 0 5.69638e-19 0 0 1.35952e-21 -5.70998e-19 0 1.14064e-18 -1.71163e-18 1.14064e-18 0 0 0.0640498 0.127508 0.191117 0.25557 0.318761 0.378162 0.435211 0.491209 0.550358 0.605776 0.655639 0.695248 0.742986 0.78747 0.840456 0.866725 0.929202 0.959284 1.03626 1.02888 1.07681 1.04691 0.986545 0.857597 0.609446 0.238902 0.0574991 0.00361459 0.000105245 2.554e-07 1.00948e-09 1.26396e-12 4.58546e-15 -1.13913e-18 0 5.70318e-19 -5.70318e-19 5.70318e-19 -5.70318e-19 5.70318e-19 0 -5.70318e-19 5.70318e-19 6.79759e-22 -1.14132e-18 1.71163e-18 -5.70998e-19 -1.14064e-18 1.14064e-18 0 0 0.0627575 0.125035 0.187178 0.248693 0.309477 0.369581 0.427043 0.482324 0.5352 0.585697 0.634649 0.685515 0.729303 0.772925 0.809212 0.867532 0.905845 0.962923 0.962848 1.01006 0.945929 0.916493 0.754812 0.525562 0.198632 0.048378 0.00331712 0.000105164 2.93976e-07 1.48375e-09 2.5277e-12 1.11425e-14 -5.67981e-19 5.70998e-19 0 -5.70318e-19 -6.79759e-22 6.79759e-22 5.70318e-19 -6.79759e-22 0 6.79759e-22 -5.70318e-19 -6.79759e-22 5.70318e-19 0 -1.14064e-18 1.14064e-18 0 0 0 0.0610529 0.122112 0.183419 0.24494 0.305259 0.361776 0.415431 0.468503 0.522653 0.575079 0.624092 0.6659 0.710436 0.756043 0.807123 0.845708 0.884465 0.89846 0.919535 0.858538 0.821206 0.628567 0.422292 0.141655 0.0347361 0.00226454 7.49103e-05 2.54449e-07 1.48301e-09 2.89276e-12 1.6404e-14 2.11644e-17 -5.70998e-19 5.70998e-19 -5.70998e-19 5.70998e-19 -1.35952e-21 1.35952e-21 -5.70998e-19 5.69638e-19 -1.13996e-18 1.71095e-18 -1.14064e-18 5.69638e-19 0 -1.14064e-18 1.14064e-18 1.14064e-18 -2.28127e-18 0 0 0.0596326 0.119435 0.178623 0.237598 0.295937 0.353054 0.407558 0.459097 0.508382 0.55696 0.605363 0.653362 0.699452 0.742932 0.774753 0.807836 0.819909 0.817706 0.765116 0.695916 0.496362 0.29674 0.0880854 0.019862 0.0010897 3.65307e-05 1.24992e-07 1.00695e-09 2.51709e-12 1.64451e-14 5.69638e-19 1.35952e-21 -5.70998e-19 5.70998e-19 -5.70998e-19 5.70998e-19 -1.35952e-21 1.35952e-21 -5.70998e-19 5.69638e-19 -1.13996e-18 1.13996e-18 0 0 -1.14064e-18 1.14064e-18 0 0 0 0 0 0.0587683 0.117588 0.17606 0.233799 0.28992 0.343959 0.397128 0.449603 0.500688 0.549434 0.596046 0.637379 0.673172 0.702848 0.724002 0.724185 0.706056 0.649463 0.543381 0.351345 0.176722 0.0464672 0.00818799 0.000378448 1.06136e-05 3.53981e-08 4.43481e-10 1.25089e-12 1.11013e-14 2.00224e-17 1.14064e-18 -1.14064e-18 0 5.70998e-19 0 -5.70998e-19 5.69638e-19 -5.69638e-19 5.70998e-19 -1.142e-18 2.28127e-18 -2.28127e-18 1.14064e-18 0 0 0 0 -1.14064e-18 1.14064e-18 0 0 0.0576418 0.115121 0.171928 0.227821 0.282723 0.336454 0.388253 0.437658 0.484439 0.527746 0.565358 0.597163 0.620004 0.628162 0.615294 0.580431 0.499673 0.369254 0.208708 0.0847525 0.0184762 0.00229643 8.58544e-05 1.58465e-06 7.36779e-09 1.13478e-10 3.73978e-13 4.58432e-15 -5.67978e-19 5.70998e-19 -5.70998e-19 0 1.14064e-18 -1.14064e-18 5.70998e-19 -1.142e-18 1.71163e-18 -5.70998e-19 -5.69638e-19 5.69638e-19 0 -1.14064e-18 1.14064e-18 0 0 0 0 -1.14064e-18 1.14064e-18 0 0 0.0566298 0.1126 0.167058 0.220117 0.271986 0.322226 0.369514 0.412758 0.451133 0.483416 0.506785 0.517521 0.51391 0.488066 0.426163 0.32311 0.203995 0.0951822 0.0290891 0.0047349 0.000385876 1.03585e-05 1.27418e-07 1.15676e-09 1.51371e-11 8.26607e-14 1.02845e-15 2.86949e-21 -5.70998e-19 5.70998e-19 -5.70998e-19 5.70998e-19 -1.35952e-21 -5.69638e-19 0 5.69638e-19 -5.69638e-19 5.69638e-19 0 0 0 0 0 -1.14064e-18 1.14064e-18 0 -1.14064e-18 1.14064e-18 0 0 0 0.0530234 0.105101 0.15556 0.204187 0.250688 0.294074 0.33259 0.36393 0.385888 0.397383 0.396 0.374471 0.323929 0.248005 0.161807 0.0823937 0.0281693 0.00584904 0.000627877 3.07223e-05 5.44248e-07 7.37599e-09 1.08659e-10 1.22996e-12 1.23754e-14 1.43872e-16 -1.14132e-18 1.14132e-18 0 -5.70318e-19 5.70318e-19 0 -5.70998e-19 6.79759e-22 5.69638e-19 0 0 -1.14064e-18 1.14064e-18 0 0 0 -1.14064e-18 1.14064e-18 0 0 -1.14064e-18 2.28127e-18 -2.28127e-18 0 0 0.0460402 0.0908615 0.13346 0.172959 0.208306 0.238048 0.260187 0.271588 0.267821 0.245286 0.205778 0.156326 0.102948 0.0526394 0.0185447 0.00410257 0.000516512 3.16178e-05 8.64891e-07 1.46684e-08 3.49227e-10 4.97906e-12 8.05847e-14 9.87443e-16 -2.05803e-17 -5.70998e-19 5.70318e-19 -5.70318e-19 5.70998e-19 -5.70318e-19 5.70318e-19 -5.70998e-19 0 5.70318e-19 0 0 0 0 -1.14064e-18 1.14064e-18 -1.14064e-18 1.14064e-18 0 0 0 -1.13996e-18 1.13996e-18 0 0 0 0 0.0330662 0.0644973 0.0926756 0.115829 0.131833 0.138538 0.134836 0.121663 0.101194 0.0751437 0.046297 0.0215765 0.00703905 0.0015065 0.000191282 1.28339e-05 4.28124e-07 1.09031e-08 3.53562e-10 7.74085e-12 1.5322e-13 3.37028e-15 4.16911e-17 -5.71148e-19 0 5.69638e-19 0 -5.69638e-19 0 1.14064e-18 -1.14064e-18 5.69638e-19 -5.69638e-19 5.69638e-19 0 0 -1.14064e-18 1.14064e-18 1.14064e-18 -2.28127e-18 0 1.14064e-18 1.14064e-18 -2.28127e-18 1.14064e-18 -1.13996e-18 2.28059e-18 -2.28127e-18 1.14064e-18 0 0 0.0133476 0.0252776 0.0345739 0.0402921 0.0417081 0.0383547 0.0305322 0.0201247 0.0104222 0.00403262 0.0011116 0.000204953 2.32453e-05 1.50779e-06 6.23587e-08 2.8079e-09 1.27425e-10 3.71254e-12 1.1202e-13 3.49372e-15 2.04995e-17 0 1.14064e-18 -1.14064e-18 0 5.69638e-19 0 -5.69638e-19 0 1.14064e-18 -1.14064e-18 5.69638e-19 5.70998e-19 -1.71163e-18 1.14064e-18 0 -1.14064e-18 1.14064e-18 1.14064e-18 -2.28127e-18 1.14064e-18 0 -1.13996e-18 1.13996e-18 -1.14064e-18 2.28127e-18 -1.14064e-18 -1.14064e-18 1.14064e-18 0 0 0.00169453 0.00291386 0.00335101 0.00299048 0.00212113 0.00118238 0.000504869 0.000159625 3.57524e-05 5.36852e-06 5.25348e-07 3.83623e-08 3.00583e-09 2.33957e-10 1.26186e-11 5.5469e-13 2.83073e-14 1.15232e-15 -2.16431e-17 5.69495e-19 -5.70998e-19 5.70998e-19 -5.70998e-19 5.70998e-19 0 -5.70998e-19 5.69638e-19 -5.69638e-19 5.70998e-19 -5.70998e-19 5.70998e-19 -5.70998e-19 5.69638e-19 0 -1.14064e-18 1.14064e-18 1.14064e-18 -1.14064e-18 -1.14064e-18 1.14064e-18 0 0 -1.13996e-18 1.13996e-18 0 0 -1.14064e-18 1.14064e-18 0 0 0 3.21808e-06 4.56014e-06 3.8131e-06 2.19954e-06 9.08731e-07 2.72799e-07 6.18186e-08 1.18481e-08 2.18485e-09 3.62359e-10 4.51563e-11 4.07064e-12 3.32297e-13 2.91101e-14 2.08635e-15 6.16322e-17 -4.08101e-17 -1.35952e-21 -5.69638e-19 5.70998e-19 -5.70998e-19 5.70998e-19 -5.70998e-19 5.70998e-19 0 0 -1.142e-18 1.71163e-18 -1.14064e-18 5.69638e-19 -5.69638e-19 0 5.69638e-19 0 0 -1.14064e-18 2.28127e-18 -2.28127e-18 1.14064e-18 0 0 -1.14064e-18 1.14064e-18 0 0 0 -1.14064e-18 2.28127e-18 -2.28127e-18 0 0 3.48392e-11 5.28841e-11 4.95393e-11 3.34215e-11 1.68303e-11 6.40169e-12 1.88186e-12 4.56402e-13 9.98624e-14 1.95509e-14 3.06297e-15 3.29273e-16 1.00582e-17 2.85499e-19 -5.70318e-19 5.70318e-19 0 -1.14132e-18 1.14132e-18 -5.70318e-19 5.69638e-19 6.79759e-22 -5.70318e-19 5.70318e-19 0 -5.70318e-19 5.69638e-19 0 0 -1.13996e-18 1.13996e-18 0 0 0 0 -1.14064e-18 0 1.14064e-18 0 0 -1.13996e-18 1.13996e-18 0 0 0 -1.13996e-18 1.13996e-18 0 0 0 0 3.36645e-16 5.47399e-16 5.4479e-16 4.16311e-16 2.41723e-16 1.23154e-16 4.63057e-17 1.02639e-17 6.8554e-22 2.84819e-19 -2.84819e-19 -2.86179e-19 5.70998e-19 0 -5.70318e-19 -6.79759e-22 5.70998e-19 -5.70318e-19 5.70318e-19 -5.70318e-19 1.14064e-18 -1.14132e-18 5.70318e-19 -5.70318e-19 0 5.70318e-19 0 -5.69638e-19 1.14064e-18 -1.71095e-18 1.13996e-18 0 -1.14064e-18 2.28127e-18 -2.28127e-18 1.14064e-18 -1.14064e-18 2.28127e-18 -2.28127e-18 1.14064e-18 -1.13996e-18 1.13996e-18 1.14064e-18 -2.28127e-18 1.14064e-18 -1.13996e-18 2.28059e-18 -2.28127e-18 1.14064e-18 0 0 0 2.03928e-21 0 -7.13747e-20 1.42749e-19 -1.42749e-19 1.42749e-19 -4.28248e-19 5.70998e-19 -2.85499e-19 2.85499e-19 -5.70998e-19 5.70998e-19 -2.85499e-19 2.85499e-19 -5.70998e-19 0 1.14064e-18 -1.14064e-18 5.70998e-19 -5.70998e-19 0 1.14064e-18 -1.14064e-18 0 5.69638e-19 0 -5.69638e-19 5.70998e-19 -1.35952e-21 0 -1.14064e-18 1.14064e