<?xml version="1.0"?>
<VTKFile type="PolyData">
	<PolyData>
		<Piece NumberOfPoints="2601" NumberOfPolys="2500">
			<Points>
				<DataArray type="Float32" NumberOfComponents="3" format="ascii">
 0 0 0 0.336306 0 0 0.264929 0 0 0.332285 0 0 0.342078 0 0 0.36317 0 0 0.38217 0 0 0.396785 0 0 0.411611 0 0 0.422187 0 0 0.434705 0 0 0.443274 0 0 0.453701 0 0 0.461458 0 0 0.470337 0 0 0.47748 0 0 0.484348 0 0 0.4903 0 0 0.496697 0 0 0.501869 0 0 0.506982 0 0 0.511637 0 0 0.515948 0 0 0.520032 0 0 0.523914 0 0 0.528273 0 0 0.534341 0 0 0.544237 0 0 0.560287 0 0 0.580001 0 0 0.6 0 0 0.62 0 0 0.64 0 0 0.66 0 0 0.68 0 0 0.7 0 0 0.72 0 0 0.74 0 0 0.76 0 0 0.78 0 0 0.8 0 0 0.82 0 0 0.84 0 0 0.86 0 0 0.88 0 0 0.9 0 0 0.92 0 0 0.94 0 0 0.96 0 0 0.98 0 0 1 0 0 0 0.336306 0 0.155242 0.155242 0 0.310114 0.135779 0 0.294982 0.120345 0 0.337895 0.0854086 0 0.358909 0.0760229 0 0.37699 0.0679372 0 0.394719 0.061189 0 0.407282 0.0562055 0 0.421171 0.0516442 0 0.431181 0.047345 0 0.442952 0.0436398 0 0.451251 0.0403289 0 0.461066 0.0376829 0 0.468753 0.0354878 0 0.476795 0.0335448 0 0.48326 0.0317645 0 0.489691 0.0301314 0 0.495781 0.0286182 0 0.501224 0.0271976 0 0.506366 0.0259525 0 0.511113 0.0248388 0 0.515449 0.0238261 0 0.51958 0.0228895 0 0.523501 0.0220186 0 0.527916 0.0212389 0 0.534066 0.0205998 0 0.544085 0.0201786 0 0.560266 0.0200199 0 0.580001 0.0200001 0 0.6 0.02 0 0.62 0.02 0 0.64 0.02 0 0.66 0.02 0 0.68 0.02 0 0.7 0.02 0 0.72 0.02 0 0.74 0.02 0 0.76 0.02 0 0.78 0.02 0 0.8 0.02 0 0.82 0.02 0 0.84 0.02 0 0.86 0.02 0 0.88 0.02 0 0.9 0.02 0 0.92 0.02 0 0.94 0.02 0 0.96 0.02 0 0.98 0.02 0 1 0.02 0 0 0.264929 0 0.135779 0.310114 0 0.177892 0.177892 0 0.28451 0.196924 0 0.309269 0.16745 0 0.339327 0.145211 0 0.363923 0.130553 0 0.381735 0.120559 0 0.399245 0.109956 0 0.412133 0.101145 0 0.426386 0.0931572 0 0.436477 0.0859444 0 0.448074 0.0799736 0 0.456616 0.074848 0 0.46603 0.0705389 0 0.473339 0.0666979 0 0.480788 0.0631413 0 0.487389 0.0599187 0 0.493499 0.0568789 0 0.49921 0.0541338 0 0.504587 0.0516748 0 0.509516 0.0494856 0 0.513985 0.0474878 0 0.518227 0.0456419 0 0.522271 0.04392 0 0.526854 0.0423824 0 0.533256 0.0411308 0 0.543648 0.0403239 0 0.56021 0.0400326 0 0.58 0.0400001 0 0.6 0.04 0 0.62 0.04 0 0.64 0.04 0 0.66 0.04 0 0.68 0.04 0 0.7 0.04 0 0.72 0.04 0 0.74 0.04 0 0.76 0.04 0 0.78 0.04 0 0.8 0.04 0 0.82 0.04 0 0.84 0.04 0 0.86 0.04 0 0.88 0.04 0 0.9 0.04 0 0.92 0.04 0 0.94 0.04 0 0.96 0.04 0 0.98 0.04 0 1 0.04 0 0 0.332285 0 0.120345 0.294982 0 0.196924 0.28451 0 0.201188 0.201188 0 0.271987 0.231881 0 0.315142 0.198219 0 0.341225 0.186404 0 0.366382 0.169662 0 0.384504 0.158372 0 0.402528 0.145827 0 0.415867 0.135233 0 0.430106 0.125817 0 0.440367 0.117603 0 0.451632 0.110666 0 0.460067 0.104585 0 0.468788 0.0989609 0 0.476307 0.093856 0 0.483701 0.0890201 0 0.489903 0.0845486 0 0.496076 0.0805414 0 0.501659 0.0769729 0 0.506897 0.0737751 0 0.511589 0.0708516 0 0.516001 0.0681303 0 0.52025 0.065594 0 0.525121 0.0633387 0 0.531957 0.06153 0 0.542985 0.0604095 0 0.56014 0.0600342 0 0.58 0.0600001 0 0.6 0.06 0 0.62 0.06 0 0.64 0.06 0 0.66 0.06 0 0.68 0.06 0 0.7 0.06 0 0.72 0.06 0 0.74 0.06 0 0.76 0.06 0 0.78 0.06 0 0.8 0.06 0 0.82 0.06 0 0.84 0.06 0 0.86 0.06 0 0.88 0.06 0 0.9 0.06 0 0.92 0.06 0 0.94 0.06 0 0.96 0.06 0 0.98 0.06 0 1 0.06 0 0 0.342078 0 0.0854086 0.337895 0 0.16745 0.309269 0 0.231881 0.271987 0 0.232869 0.232869 0 0.282934 0.253474 0 0.321757 0.220935 0 0.346333 0.214904 0 0.37024 0.197453 0 0.387984 0.186242 0 0.405713 0.173446 0 0.418817 0.162865 0 0.432574 0.153215 0 0.442664 0.144828 0 0.453397 0.137023 0 0.461946 0.130029 0 0.47078 0.123316 0 0.478235 0.117129 0 0.485365 0.111377 0 0.491779 0.106274 0 0.497757 0.101689 0 0.503265 0.0975843 0 0.508314 0.0937875 0 0.512942 0.0902367 0 0.517485 0.0869336 0 0.522773 0.0840268 0 0.530247 0.0817468 0 0.542195 0.0804226 0 0.560076 0.0800264 0 0.58 0.08 0 0.6 0.08 0 0.62 0.08 0 0.64 0.08 0 0.66 0.08 0 0.68 0.08 0 0.7 0.08 0 0.72 0.08 0 0.74 0.08 0 0.76 0.08 0 0.78 0.08 0 0.8 0.08 0 0.82 0.08 0 0.84 0.08 0 0.86 0.08 0 0.88 0.08 0 0.9 0.08 0 0.92 0.08 0 0.94 0.08 0 0.96 0.08 0 0.98 0.08 0 1 0.08 0 0 0.36317 0 0.0760229 0.358909 0 0.145211 0.339327 0 0.198219 0.315142 0 0.253474 0.282934 0 0.262243 0.262243 0 0.299583 0.267971 0 0.329112 0.240801 0 0.351847 0.236636 0 0.37423 0.219295 0 0.391069 0.209074 0 0.408046 0.196577 0 0.420728 0.186464 0 0.434001 0.17636 0 0.444112 0.167641 0 0.454887 0.159065 0 0.463464 0.151302 0 0.472048 0.143861 0 0.479621 0.137274 0 0.486533 0.131179 0 0.492886 0.125772 0 0.498739 0.12079 0 0.504183 0.116191 0 0.509124 0.111846 0 0.514055 0.10785 0 0.5199 0.104383 0 0.528234 0.101756 0 0.54141 0.100367 0 0.560033 0.100015 0 0.58 0.1 0 0.6 0.1 0 0.62 0.1 0 0.64 0.1 0 0.66 0.1 0 0.68 0.1 0 0.7 0.1 0 0.72 0.1 0 0.74 0.1 0 0.76 0.1 0 0.78 0.1 0 0.8 0.1 0 0.82 0.1 0 0.84 0.1 0 0.86 0.1 0 0.88 0.1 0 0.9 0.1 0 0.92 0.1 0 0.94 0.1 0 0.96 0.1 0 0.98 0.1 0 1 0.1 0 0 0.38217 0 0.0679372 0.37699 0 0.130553 0.363923 0 0.186404 0.341225 0 0.220935 0.321757 0 0.267971 0.299583 0 0.282727 0.282727 0 0.312278 0.281614 0 0.336295 0.257703 0 0.357001 0.254709 0 0.377924 0.237336 0 0.393906 0.228229 0 0.410146 0.215624 0 0.422477 0.205932 0 0.435581 0.19542 0 0.445685 0.186535 0 0.455943 0.177433 0 0.464649 0.169573 0 0.473082 0.162047 0 0.480306 0.155301 0 0.487213 0.14906 0 0.493379 0.1433 0 0.499298 0.137932 0 0.50461 0.132877 0 0.510061 0.128275 0 0.516628 0.12438 0 0.526065 0.121567 0 0.54076 0.120264 0 0.560011 0.120006 0 0.58 0.12 0 0.6 0.12 0 0.62 0.12 0 0.64 0.12 0 0.66 0.12 0 0.68 0.12 0 0.7 0.12 0 0.72 0.12 0 0.74 0.12 0 0.76 0.12 0 0.78 0.12 0 0.8 0.12 0 0.82 0.12 0 0.84 0.12 0 0.86 0.12 0 0.88 0.12 0 0.9 0.12 0 0.92 0.12 0 0.94 0.12 0 0.96 0.12 0 0.98 0.12 0 1 0.12 0 0 0.396785 0 0.061189 0.394719 0 0.120559 0.381735 0 0.169662 0.366382 0 0.214904 0.346333 0 0.240801 0.329112 0 0.281614 0.312278 0 0.298797 0.298797 0 0.322911 0.293806 0 0.343664 0.2723 0 0.362142 0.269739 0 0.381589 0.252308 0 0.396704 0.244273 0 0.412352 0.23141 0 0.424359 0.22224 0 0.43683 0.211343 0 0.446752 0.202658 0 0.45693 0.193668 0 0.465378 0.185842 0 0.473571 0.178309 0 0.4807 0.171446 0 0.487444 0.164947 0 0.493714 0.158932 0 0.499512 0.153249 0 0.505599 0.148184 0 0.513115 0.144015 0 0.523948 0.141233 0 0.540328 0.140149 0 0.560003 0.140002 0 0.58 0.14 0 0.6 0.14 0 0.62 0.14 0 0.64 0.14 0 0.66 0.14 0 0.68 0.14 0 0.7 0.14 0 0.72 0.14 0 0.74 0.14 0 0.76 0.14 0 0.78 0.14 0 0.8 0.14 0 0.82 0.14 0 0.84 0.14 0 0.86 0.14 0 0.88 0.14 0 0.9 0.14 0 0.92 0.14 0 0.94 0.14 0 0.96 0.14 0 0.98 0.14 0 1 0.14 0 0 0.411611 0 0.0562055 0.407282 0 0.109956 0.399245 0 0.158372 0.384504 0 0.197453 0.37024 0 0.236636 0.351847 0 0.257703 0.336295 0 0.293806 0.322911 0 0.312148 0.312148 0 0.332953 0.304073 0 0.351317 0.285073 0 0.368349 0.282039 0 0.385824 0.264757 0 0.399959 0.257583 0 0.414624 0.24443 0 0.426083 0.235921 0 0.438223 0.225174 0 0.447844 0.216813 0 0.457605 0.207922 0 0.466003 0.200253 0 0.473792 0.192619 0 0.480947 0.185693 0 0.487579 0.179046 0 0.49394 0.172955 0 0.50081 0.167569 0 0.509532 0.163335 0 0.522157 0.16083 0 0.540108 0.160062 0 0.56 0.16 0 0.58 0.16 0 0.6 0.16 0 0.62 0.16 0 0.64 0.16 0 0.66 0.16 0 0.68 0.16 0 0.7 0.16 0 0.72 0.16 0 0.74 0.16 0 0.76 0.16 0 0.78 0.16 0 0.8 0.16 0 0.82 0.16 0 0.84 0.16 0 0.86 0.16 0 0.88 0.16 0 0.9 0.16 0 0.92 0.16 0 0.94 0.16 0 0.96 0.16 0 0.98 0.16 0 1 0.16 0 0 0.422187 0 0.0516442 0.421171 0 0.101145 0.412133 0 0.145827 0.402528 0 0.186242 0.387984 0 0.219295 0.37423 0 0.254709 0.357001 0 0.2723 0.343664 0 0.304073 0.332953 0 0.323274 0.323274 0 0.341922 0.312535 0 0.358864 0.296369 0 0.374786 0.291724 0 0.390303 0.275145 0 0.403528 0.268511 0 0.417316 0.25559 0 0.428224 0.247791 0 0.439574 0.23718 0 0.449039 0.229239 0 0.458346 0.220462 0 0.466446 0.21285 0 0.474078 0.205293 0 0.481035 0.198354 0 0.488063 0.191941 0 0.495912 0.186489 0 0.506117 0.182433 0 0.520929 0.18045 0 0.540025 0.180018 0 0.56 0.18 0 0.58 0.18 0 0.6 0.18 0 0.62 0.18 0 0.64 0.18 0 0.66 0.18 0 0.68 0.18 0 0.7 0.18 0 0.72 0.18 0 0.74 0.18 0 0.76 0.18 0 0.78 0.18 0 0.8 0.18 0 0.82 0.18 0 0.84 0.18 0 0.86 0.18 0 0.88 0.18 0 0.9 0.18 0 0.92 0.18 0 0.94 0.18 0 0.96 0.18 0 0.98 0.18 0 1 0.18 0 0 0.434705 0 0.047345 0.431181 0 0.0931572 0.426386 0 0.135233 0.415867 0 0.173446 0.405713 0 0.209074 0.391069 0 0.237336 0.377924 0 0.269739 0.362142 0 0.285073 0.351317 0 0.312535 0.341922 0 0.332322 0.332322 0 0.349677 0.319865 0 0.365088 0.306134 0 0.380563 0.299684 0 0.394651 0.28446 0 0.407345 0.27813 0 0.41995 0.265434 0 0.430418 0.258188 0 0.441137 0.247899 0 0.450147 0.24015 0 0.459102 0.231629 0 0.466815 0.224098 0 0.474359 0.216766 0 0.482069 0.210347 0 0.491161 0.205005 0 0.50325 0.201503 0 0.520294 0.200178 0 0.540004 0.200003 0 0.56 0.2 0 0.58 0.2 0 0.6 0.2 0 0.62 0.2 0 0.64 0.2 0 0.66 0.2 0 0.68 0.2 0 0.7 0.2 0 0.72 0.2 0 0.74 0.2 0 0.76 0.2 0 0.78 0.2 0 0.8 0.2 0 0.82 0.2 0 0.84 0.2 0 0.86 0.2 0 0.88 0.2 0 0.9 0.2 0 0.92 0.2 0 0.94 0.2 0 0.96 0.2 0 0.98 0.2 0 1 0.2 0 0 0.443274 0 0.0436398 0.442952 0 0.0859444 0.436477 0 0.125817 0.430106 0 0.162865 0.418817 0 0.196577 0.408046 0 0.228229 0.393906 0 0.252308 0.381589 0 0.282039 0.368349 0 0.296369 0.358864 0 0.319865 0.349677 0 0.339658 0.339658 0 0.355905 0.326516 0 0.370498 0.314937 0 0.38581 0.307161 0 0.398451 0.293164 0 0.410666 0.286778 0 0.422447 0.274562 0 0.432334 0.267493 0 0.442494 0.257623 0 0.45118 0.250069 0 0.459558 0.241758 0 0.467557 0.234643 0 0.476265 0.228214 0 0.486829 0.223372 0 0.501321 0.220729 0 0.520064 0.220047 0 0.54 0.22 0 0.56 0.22 0 0.58 0.22 0 0.6 0.22 0 0.62 0.22 0 0.64 0.22 0 0.66 0.22 0 0.68 0.22 0 0.7 0.22 0 0.72 0.22 0 0.74 0.22 0 0.76 0.22 0 0.78 0.22 0 0.8 0.22 0 0.82 0.22 0 0.84 0.22 0 0.86 0.22 0 0.88 0.22 0 0.9 0.22 0 0.92 0.22 0 0.94 0.22 0 0.96 0.22 0 0.98 0.22 0 1 0.22 0 0 0.453701 0 0.0403289 0.451251 0 0.0799736 0.448074 0 0.117603 0.440367 0 0.153215 0.432574 0 0.186464 0.420728 0 0.215624 0.410146 0 0.244273 0.396704 0 0.264757 0.385824 0
[...]
			<PointData Scalars="VitesseX">
				<DataArray Name="VitesseX" type="Float32" format="ascii">
 0 2.03165 0.878783 1.52462 1.47887 1.59987 1.58837 1.77539 1.87317 1.87071 1.91086 1.99313 2.0666 2.04823 2.11017 2.19787 2.29441 2.23568 2.28791 2.36631 2.45799 2.45765 2.52931 2.54284 2.51273 2.34518 1.91776 1.09596 0.151812 0.000716805 1.21314e-08 9.91827e-14 1.42128e-22 -1.68611e-20 1.68611e-20 -3.43965e-20 3.43965e-20 -1.68611e-20 1.68611e-20 -1.68611e-20 1.68611e-20 -3.43965e-20 3.43965e-20 0 0 -3.43965e-20 3.43965e-20 -3.43965e-20 3.43965e-20 0 0 0 0.336968 1.63061 1.04896 1.49379 1.56532 1.57876 1.75238 1.85937 1.8477 1.90744 2.00331 2.0355 2.07231 2.10406 2.21872 2.25986 2.24034 2.30619 2.34388 2.44906 2.46117 2.52231 2.54161 2.50937 2.33767 1.9031 1.07342 0.142192 0.000628862 1.0663e-08 9.05256e-14 5.076e-24 -1.68611e-20 1.68611e-20 -3.43965e-20 3.43965e-20 -1.68611e-20 1.68611e-20 -1.68611e-20 1.68611e-20 -3.43965e-20 3.43965e-20 0 0 -3.43965e-20 3.43965e-20 -3.43965e-20 3.43965e-20 0 0 0 0.825139 0.443732 1.33588 1.24897 1.44413 1.52142 1.67107 1.78625 1.83316 1.88707 1.96433 2.02758 2.04467 2.14337 2.19424 2.19533 2.249 2.33775 2.31032 2.42363 2.46537 2.50423 2.53686 2.49902 2.31469 1.85855 1.00477 0.116122 0.000422839 7.25919e-09 6.86032e-14 3.53448e-20 -2.66405e-20 -8.76775e-21 -1.71983e-20 1.71983e-20 4.4176e-20 -4.4176e-20 8.76775e-21 -8.76775e-21 -1.71983e-20 5.26065e-20 -3.54082e-20 0 1.82099e-20 -1.82099e-20 1.82099e-20 -1.82099e-20 0 0 0 0.734787 0.983307 0.524753 1.10113 1.33534 1.42311 1.57312 1.70677 1.77458 1.85034 1.93073 1.97566 2.06386 2.12268 2.17087 2.1338 2.2806 2.3144 2.31957 2.38358 2.45995 2.48162 2.52668 2.47936 2.27503 1.78263 0.887994 0.0812057 0.000215154 3.85081e-09 4.27505e-14 5.076e-24 -1.82099e-20 1.82099e-20 -3.54082e-20 3.54082e-20 -1.85472e-20 1.85472e-20 -1.82099e-20 1.82099e-20 -3.54082e-20 3.54082e-20 0 0 -3.57454e-20 3.57454e-20 -3.57454e-20 3.57454e-20 0 0 0 0.397252 0.792869 1.0836 0.90165 1.18513 1.35827 1.49439 1.63442 1.72165 1.79531 1.87387 1.95403 2.02833 2.09652 2.10079 2.16234 2.24418 2.27585 2.33852 2.35107 2.43542 2.46118 2.50856 2.44616 2.21467 1.67347 0.724456 0.047254 8.10538e-05 1.59625e-09 2.15532e-14 -3.54057e-20 3.54082e-20 0 -3.54082e-20 3.54082e-20 3.5071e-20 -3.5071e-20 0 0 -3.54082e-20 0 3.54082e-20 0 -3.37221e-22 3.37221e-22 -7.11536e-20 7.11536e-20 0 0 0 0.36081 0.635764 0.839785 1.16696 1.17225 1.32823 1.4222 1.56208 1.65558 1.7393 1.81885 1.91754 1.99914 2.01157 2.10267 2.17734 2.18741 2.26109 2.32858 2.33704 2.39889 2.44015 2.48305 2.39515 2.12488 1.52531 0.526905 0.0220545 2.18669e-05 5.10131e-10 8.57915e-15 7.08164e-20 -3.54082e-20 -3.54082e-20 0 0 1.06225e-19 -1.06225e-19 3.54082e-20 -3.54082e-20 0 7.08164e-20 -7.08164e-20 0 7.08164e-20 -7.08164e-20 7.08164e-20 -7.08164e-20 0 0 0 0.306952 0.557729 0.798586 0.877122 1.15883 1.29169 1.44268 1.48887 1.59041 1.68073 1.77011 1.86409 1.91721 1.99598 2.09975 2.15454 2.13929 2.26175 2.2777 2.34978 2.34998 2.4215 2.44375 2.32759 1.99532 1.32193 0.325851 0.00791279 4.04452e-06 1.20946e-10 2.61139e-15 -7.08164e-20 7.08164e-20 -7.08164e-20 0 7.08164e-20 -1.41633e-19 1.41633e-19 -7.08164e-20 0 7.08164e-20 -7.08164e-20 7.08164e-20 0 -7.08164e-20 0 7.08164e-20 -7.08164e-20 0 0 0 0.276575 0.557178 0.719842 0.946547 0.978576 1.25191 1.39829 1.48571 1.52842 1.60553 1.71121 1.7796 1.86643 1.98553 2.0743 2.06978 2.15245 2.19952 2.25226 2.34096 2.31685 2.40042 2.38557 2.23639 1.82479 1.04273 0.161908 0.00207687 4.98266e-07 2.03274e-11 5.75804e-16 -7.08164e-20 0 7.08164e-20 -7.08164e-20 7.08164e-20 -1.41633e-19 1.41633e-19 -7.08164e-20 7.08164e-20 -7.08164e-20 0 7.08164e-20 0 -1.41633e-19 1.41633e-19 -1.41633e-19 1.41633e-19 0 0 0 0.267303 0.501855 0.726238 0.849672 1.08086 1.09745 1.32262 1.45384 1.51646 1.56161 1.64461 1.73001 1.86829 1.95413 1.97325 2.06341 2.11536 2.14419 2.23523 2.29802 2.31822 2.36858 2.31062 2.09983 1.60849 0.700012 0.060866 0.000372731 4.43619e-08 2.44406e-12 6.15407e-17 7.08164e-20 -7.08164e-20 0 7.08164e-20 -1.41633e-19 2.12112e-19 -2.12112e-19 7.08164e-20 1.41633e-19 -1.41633e-19 0 -7.08164e-20 1.41633e-19 -7.08164e-20 1.41633e-19 -2.83266e-19 2.83266e-19 -1.41633e-19 0 0 0.232606 0.479712 0.647888 0.850744 0.95439 1.19776 1.18109 1.3769 1.49595 1.58531 1.66193 1.76035 1.84559 1.87215 1.94054 2.03498 2.07859 2.11313 2.20831 2.24834 2.32801 2.3133 2.21854 1.91123 1.31015 0.369134 0.0162941 4.16429e-05 3.68633e-09 2.43977e-13 -1.04606e-17 0 7.08164e-20 -7.08164e-20 0 0 2.12112e-19 -2.12112e-19 7.08164e-20 -7.08164e-20 0 0 0 0 1.41633e-19 -1.41633e-19 0 0 0 0 0 0.218986 0.440279 0.621506 0.777203 0.964688 1.0592 1.28627 1.24217 1.45512 1.56312 1.67728 1.75745 1.77544 1.842 1.94619 1.99859 2.03583 2.13786 2.14141 2.25198 2.3005 2.25885 2.08134 1.68331 0.90344 0.141128 0.00289224 2.61112e-06 2.85454e-10 2.29191e-14 7.13849e-20 -1.41633e-19 1.41633e-19 7.08164e-20 -2.83266e-19 2.83266e-19 -1.41633e-19 0 1.41633e-19 -2.83266e-19 1.41633e-19 1.41633e-19 -1.41633e-19 0 0 0 1.41633e-19 -2.83266e-19 2.83266e-19 0 0 0.206458 0.40894 0.589833 0.74391 0.910496 1.07268 1.15209 1.34671 1.36148 1.52891 1.64331 1.73255 1.78573 1.83708 1.90703 1.95173 2.05145 2.09182 2.14375 2.23716 2.25262 2.16743 1.89418 1.36751 0.47356 0.0364089 0.000302599 9.39058e-08 1.48358e-11 1.63966e-15 0 1.41296e-19 -1.41296e-19 0 0 0 0 0 0 0 0 1.41633e-19 -1.41633e-19 0 0 0 1.41633e-19 -1.41633e-19 0 0 0 0.187573 0.38305 0.551232 0.722754 0.885409 1.03036 1.1466 1.21913 1.46559 1.45922 1.56891 1.67764 1.72911 1.84011 1.87739 1.9605 2.0374 2.06442 2.15576 2.21223 2.17488 2.01712 1.6503 0.913604 0.17082 0.00582685 1.61262e-05 3.16356e-09 5.43966e-13 5.15493e-17 -1.41633e-19 -3.37221e-22 3.37221e-22 0 1.41633e-19 -1.41633e-19 -1.41633e-19 2.83266e-19 -1.41633e-19 1.41633e-19 -1.41633e-19 -1.41633e-19 2.83266e-19 -1.41633e-19 1.41633e-19 -1.41633e-19 -1.41633e-19 4.24224e-19 -4.24224e-19 0 0 0.176063 0.356837 0.53809 0.70204 0.860437 0.978086 1.10543 1.2685 1.34104 1.47164 1.51869 1.56396 1.7836 1.77051 1.85964 1.95678 1.97901 2.06751 2.15691 2.14045 2.06597 1.79282 1.28077 0.436569 0.0386515 0.000514051 3.85877e-07 1.10455e-10 2.15462e-14 -1.02582e-17 1.41633e-19 -2.83266e-19 2.83266e-19 -1.41633e-19 0 1.41633e-19 -2.83266e-19 2.83266e-19 -1.41633e-19 0 1.41633e-19 -2.83266e-19 2.83266e-19 0 -1.41633e-19 0 -6.74442e-22 0 6.74442e-22 0 0 0.172381 0.351607 0.523257 0.676243 0.810616 0.947294 1.10217 1.22359 1.30537 1.36014 1.52547 1.57406 1.61491 1.811 1.84851 1.88959 1.97153 2.06151 2.0972 2.06564 1.863 1.50365 0.754079 0.131347 0.00508733 1.991e-05 6.74783e-09 2.27327e-12 6.27086e-16 0 0 1.41633e-19 -1.41633e-19 0 0 0 0 0 0 0 1.41633e-19 0 -1.41633e-19 0 0 0 -6.74442e-22 -1.40958e-19 2.83266e-19 0 0 0.17357 0.341551 0.497671 0.638988 0.78573 0.943912 1.06355 1.16319 1.24743 1.38322 1.42235 1.55583 1.59896 1.70805 1.83853 1.88572 1.95958 2.01583 1.99909 1.89169 1.6113 1.02608 0.28337 0.02355 0.000303002 3.17189e-07 1.43822e-10 4.76048e-14 -2.02886e-17 -1.41633e-19 0 1.41633e-19 -2.83266e-19 2.83266e-19 -1.41633e-19 0 0 0 0 1.41633e-19 -2.83266e-19 2.83266e-19 -1.41633e-19 0 -1.41633e-19 2.83266e-19 -2.83266e-19 2.83266e-19 0 0 0 0.163153 0.310985 0.46309 0.617761 0.774028 0.895006 1.01067 1.11823 1.25205 1.30792 1.40516 1.48759 1.60354 1.64754 1.76906 1.84115 1.90919 1.91838 1.86169 1.61557 1.21154 0.450341 0.0656605 0.00186862 7.619e-06 3.43087e-09 1.91378e-12 9.04624e-16 7.61399e-24 0 0 0 1.40958e-19 -1.40958e-19 0 -1.41633e-19 4.24224e-19 -1.40958e-19 -2.83266e-19 2.83266e-19 -2.83266e-19 0 2.83266e-19 0 -2.83266e-19 2.83266e-19 0 -2.83266e-19 2.83266e-19 0 0 0.148777 0.29803 0.458618 0.603358 0.722479 0.846369 0.97684 1.10554 1.17564 1.29379 1.35513 1.4907 1.51807 1.60951 1.74983 1.80194 1.80358 1.76491 1.59036 1.28741 0.571217 0.12793 0.00616262 7.41111e-05 5.20855e-08 5.17216e-11 2.49072e-14 2.08824e-17 -1.41633e-19 0 0 0 1.40958e-19 -2.82591e-19 2.83266e-19 -2.83266e-19 4.24224e-19 -4.24224e-19 1.41633e-19 1.41633e-19 0 -2.83266e-19 0 2.83266e-19 0 0 -2.83266e-19 2.82591e-19 -2.82591e-19 0 0 0.150324 0.295212 0.434678 0.565287 0.701834 0.83391 0.951795 1.04158 1.16305 1.24726 1.35963 1.38141 1.53131 1.60027 1.64658 1.74065 1.67742 1.51268 1.2476 0.641624 0.181773 0.0129609 0.000351316 4.88203e-07 6.41301e-10 3.42755e-13 2.67082e-16 1.41635e-19 0 1.40958e-19 -1.40958e-19 1.41633e-19 -2.83266e-19 1.41633e-19 1.41633e-19 0 -2.83266e-19 0 5.65857e-19 -5.65857e-19 0 2.83266e-19 -6.74442e-22 -2.82591e-19 2.83266e-19 -2.83266e-19 2.82591e-19 0 -2.82591e-19 0 0 0.143234 0.277863 0.410863 0.548825 0.678838 0.799394 0.913771 1.03709 1.12814 1.22324 1.2812 1.42897 1.45344 1.57202 1.57427 1.53057 1.4567 1.18763 0.636921 0.20038 0.0203322 0.000831443 2.32324e-06 4.32851e-09 3.03204e-12 4.52306e-15 1.41716e-19 -2.83266e-19 1.41633e-19 1.40958e-19 -1.40958e-19 0 0 1.41633e-19 -2.83266e-19 2.83266e-19 -6.74442e-22 6.74442e-22 -6.74442e-22 -2.82591e-19 0 2.83266e-19 -6.74442e-22 -2.82591e-19 2.83266e-19 -2.83266e-19 2.82591e-19 -2.82591e-19 2.83266e-19 0 0 0.135802 0.270306 0.399981 0.524563 0.651416 0.782314 0.906374 1.00306 1.10129 1.19272 1.30762 1.3469 1.44366 1.40743 1.43761 1.28769 1.06684 0.587699 0.194048 0.0225312 0.00113234 6.43248e-06 1.49675e-08 1.51128e-11 3.21646e-14 3.05844e-17 2.83266e-19 -1.41633e-19 1.41633e-19 -4.24898e-19 4.24898e-19 -1.41633e-19 1.41633e-19 0 -2.83266e-19 0 2.82591e-19 6.74442e-22 -2.83266e-19 2.83266e-19 -2.83266e-19 2.83266e-19 -2.83266e-19 2.83266e-19 0 -2.83266e-19 0 2.83266e-19 0 0 0 0.130203 0.260517 0.388971 0.514492 0.635886 0.750646 0.858562 0.973281 1.07713 1.17423 1.22957 1.30171 1.27661 1.27742 1.10837 0.928192 0.454293 0.163336 0.0196583 0.00112796 8.45787e-06 2.43614e-08 4.46423e-11 1.08943e-13 4.11439e-17 7.61399e-24 1.41633e-19 -1.41633e-19 1.41633e-19 -2.83266e-19 2.83266e-19 -2.83266e-19 2.83266e-19 0 -2.83266e-19 2.82591e-19 -2.82591e-19 0 2.83266e-19 -2.83266e-19 2.82591e-19 6.74442e-22 -2.83266e-19 2.83266e-19 -2.83266e-19 2.82591e-19 6.74442e-22 -2.83266e-19 2.83266e-19 0 0 0.127363 0.252631 0.375268 0.49615 0.616066 0.73286 0.846916 0.948752 1.02978 1.09486 1.14157 1.12761 1.09591 0.932666 0.707361 0.317437 0.111986 0.0119169 0.000822656 6.41355e-06 2.43288e-08 6.08765e-11 1.7277e-13 2.67176e-16 -5.07637e-22 1.41633e-19 -1.41633e-19 -1.41633e-19 2.83266e-19 0 -2.83266e-19 2.82591e-19 -2.82591e-19 2.83266e-19 -2.83266e-19 5.65857e-19 -5.65857e-19 0 2.83266e-19 -2.83266e-19 5.65857e-19 -5.65857e-19 0 2.83266e-19 -2.83266e-19 5.65857e-19 -5.65857e-19 2.82591e-19 -2.82591e-19 0 0 0.122376 0.244173 0.36474 0.482865 0.597124 0.704348 0.799838 0.883875 0.942335 0.968005 0.949906 0.888442 0.71308 0.470539 0.193783 0.0561046 0.0055698 0.00034747 2.30193e-06 1.49084e-08 4.45144e-11 1.72523e-13 3.90723e-16 4.30744e-23 0 0 1.40958e-19 -1.40958e-19 -1.41633e-19 2.83266e-19 -2.83266e-19 5.65857e-19 -5.65857e-19 0 2.83266e-19 -2.83266e-19 2.82591e-19 6.74442e-22 -2.83266e-19 2.83266e-19 -2.83266e-19 2.82591e-19 6.74442e-22 -2.83266e-19 2.83266e-19 -2.83266e-19 2.82591e-19 0 -2.82591e-19 0 0 0.115887 0.230622 0.342724 0.449751 0.549469 0.639051 0.712907 0.760836 0.777127 0.74496 0.642756 0.459525 0.258502 0.0920793 0.0201621 0.00172921 7.32231e-05 4.8084e-07 4.30444e-09 1.49597e-11 1.0849e-13 2.67175e-16 4.30744e-23 0 0 0 -6.74442e-22 1.42307e-19 -2.83266e-19 2.83266e-19 0 -2.83266e-19 2.83266e-19 -2.83266e-19 2.83266e-19 -2.83266e-19 2.82591e-19 6.74442e-22 -2.83266e-19 2.83266e-19 -2.83266e-19 2.82591e-19 6.74442e-22 -2.83266e-19 2.83266e-19 -2.83266e-19 2.82591e-19 -2.82591e-19 2.83266e-19 0 0 0.10323 0.204339 0.300538 0.387925 0.461943 0.519142 0.553209 0.549673 0.488905 0.3746 0.232529 0.105428 0.0290362 0.00449348 0.000288058 7.52207e-06 5.09109e-08 6.35969e-10 2.97672e-12 3.2144e-14 4.08616e-17 2.82758e-19 -2.83266e-19 2.83266e-19 0 0 -5.66531e-19 5.66531e-19 0 0 0 -5.66531e-19 5.66531e-19 0 0 0 -5.66531e-19 5.66531e-19 0 0 0 -5.66531e-19 5.66531e-19 0 0 0 -5.66531e-19 8.49123e-19 -5.65857e-19 0 0 0.0795071 0.155381 0.22346 0.278058 0.311422 0.315177 0.286506 0.230419 0.155461 0.0775089 0.0252822 0.00480545 0.000474356 1.92896e-05 3.10706e-07 3.33183e-09 5.10939e-11 3.34305e-13 4.46133e-15 3.08676e-17 7.61399e-24 1.41633e-19 -2.83266e-19 2.83266e-19 0 -2.83266e-19 2.82591e-19 -2.82591e-19 2.83266e-19 0 -2.83266e-19 2.82591e-19 -2.82591e-19 2.83266e-19 0 -2.83266e-19 2.82591e-19 -2.82591e-19 2.83266e-19 0 -2.83266e-19 2.82591e-19 -2.82591e-19 2.83266e-19 0 -2.83266e-19 0 2.82591e-19 0 0 0 0.0402554 0.0753438 0.100731 0.113322 0.111445 0.0943076 0.0642015 0.0320716 0.0108243 0.00229869 0.000270604 1.53683e-05 3.72868e-07 6.46832e-09 1.40135e-10 1.86623e-12 2.44136e-14 2.67648e-16 -1.41549e-19 0 1.41633e-19 -1.41633e-19 1.40958e-19 -2.82591e-19 0 2.82591e-19 0 0 -2.82591e-19 0 2.82591e-19 0 0 -2.82591e-19 0 2.82591e-19 0 0 -2.82591e-19 0 2.82591e-19 0 0 6.74442e-22 -2.83266e-19 0 5.65857e-19 -8.49123e-19 5.65857e-19 0 0 0.00890535 0.015287 0.0173044 0.0146916 0.00935836 0.00432796 0.00139467 0.000293389 3.65727e-05 2.42956e-06 8.78217e-08 2.9481e-09 1.06043e-10 2.18117e-12 4.57956e-14 8.63708e-16 2.03158e-17 1.41973e-19 0 1.41296e-19 -1.41296e-19 -1.41633e-19 4.23887e-19 -4.24224e-19 0 2.82928e-19 0 0 -2.82928e-19 0 2.82928e-19 -2.82928e-19 5.65857e-19 -5.65857e-19 0 2.82928e-19 -2.82928e-19 2.82928e-19 -2.82928e-19 2.82928e-19 0 -2.82928e-19 2.82928e-19 3.37221e-22 -5.66194e-19 8.49123e-19 -2.83266e-19 -5.65857e-19 5.65857e-19 0 0 8.73978e-05 0.000117465 8.92676e-05 4.43946e-05 1.46773e-05 3.12888e-06 4.16366e-07 3.7535e-08 3.14445e-09 2.56868e-10 1.37927e-11 5.02312e-13 2.02304e-14 6.6823e-16 -2.05718e-17 -3.29607e-22 1.41633e-19 -2.82928e-19 1.41633e-19 1.41296e-19 -1.41296e-19 0 -1.4197e-19 2.83266e-19 0 -2.82928e-19 2.82591e-19 -2.82591e-19 2.82928e-19 0 -2.82928e-19 2.82928e-19 -2.83266e-19 2.83266e-19 0 -2.82928e-19 -3.37221e-22 3.37221e-22 2.82928e-19 -3.37221e-22 0 3.37221e-22 -2.82928e-19 -3.37221e-22 2.82928e-19 0 -5.65857e-19 5.65857e-19 0 0 0 1.46835e-09 1.93551e-09 1.47291e-09 7.81685e-10 3.0446e-10 8.4737e-11 1.58854e-11 1.99895e-12 2.01274e-13 1.97631e-14 1.51633e-15 7.20657e-17 -1.05415e-17 2.83266e-19 -1.41633e-19 0 0 1.40958e-19 -1.40958e-19 -1.41633e-19 2.83266e-19 0 -2.83266e-19 2.83266e-19 0 0 -5.66531e-19 5.66531e-19 0 0 -2.83266e-19 2.83266e-19 -2.83266e-19 2.83266e-19 -2.83266e-19 2.83266e-19 -6.74442e-22 6.74442e-22 -2.83266e-19 2.82591e-19 -5.6552e-19 8.48785e-19 -5.65857e-19 2.82591e-19 0 -5.65857e-19 5.65857e-19 5.65857e-19 -1.13171e-18 0 0 8.65707e-15 1.32653e-14 1.25874e-14 8.60989e-15 4.36411e-15 1.60379e-15 4.318e-16 8.23215e-17 -1.03201e-17 -7.0248e-20 0 1.41633e-19 -1.41633e-19 0 0 0 0 1.40958e-19 -1.40958e-19 -1.41633e-19 2.83266e-19 -2.83266e-19 2.83266e-19 0 0 -2.83266e-19 2.82591e-19 -2.82591e-19 2.83266e-19 -2.83266e-19 2.82591e-19 6.74442e-22 -2.83266e-19 2.83266e-19 -2.83266e-19 2.83266e-19 -6.74442e-22 6.74442e-22 -2.83266e-19 2.82591e-19 -5.6552e-19 5.6552e-19 0 0 -5.65857e-19 5.65857e-19 0 0 0 0 0 1.37052e-22 9.43137e-22 0 -3.54057e-20 7.08164e-20 -7.08164e-20 7.08164e-20 -7.08164e-20 0 0 1.40958e-19 -2.82591e-19 2.83266e-19 -1.41633e-19 1.41633e-19 -2.83266e-19 2.83266e-19 -1.41633e-19 0 1.41633e-19 -2.83266e-19 2.82591e-19 6.74442e-22 -2.83266e-19 0 2.82591e-19 0 -2.82591e-19 2.83266e-19 -2.83266e-19 5.65857e-19 -5.65857e-19 0 2.83266e-19 0 -2.83266e-19 2.82591e-19 -2.82591e-19 2.83266e-19 -5.66531e-19 1.13171e-18 -1.13171e-18 5.65857e-19 0 0 0 0 -5.65857e-19 5.65857e-19 0 0 0 2.66405e-20 -5.26065e-20 3.54082e-20 3.54082e-20 -7.08164e-20 0 7.08164e-20 -7.08164e-20 0 1.40958e-19 -2.82591e-19 2.83266e-19 -1.41633e-19 0 1.40958e-19 -1.40958e-19 0 0 1.41633e-19 -2.83266e-19 2.82591e-19 6.74442e-22 -2.83266e-19 0 2.82591e-19 0 6.74442e-22 -2.83266e-19 2.83266e-19 -2.83266e-19 0 5.65857e-19 -5.65857e-19 2.83266e-19 -5.66531e-19 8.49123e-19 -2.83266e-19 -2.82591e-19 2.82591e-19 0 -5.65857e-19 5.65857e-19 0 0 0 0 -5.65857e-19 5.65857e-19 0 0 0 -8.76775e-21 1.82099e-20 0 -3.54082e-20 7.08164e-20 -7.08164e-20 0 7.08164e-20 7.08164e-20 -2.83266e-19 2.83266e-19 -1.41633e-19 0 0 1.40958e-19 -2.82591e-19 1.41633e-19 1.41633e-19 0 0 -2.83266e-19 0 2.83266e-19 0 -2.83266e-19 2.82591e-19 6.74442e-22 -2.83266e-19 2.83266e-19 -2.83266e-19 2.83266e-19 -6.74442e-22 -2.82591e-19 0 2.82591e-19 -2.82591e-19 2.82591e-19 0 0 0 0 0 -5.65857e-19 5.65857e-19 0 -5.65857e-19 5.65857e-19 0 0 0 0 -1.71983e-20 3.54082e-20 -3.54082e-20 0 0 7.08164e-20 -7.08164e-20 3.37221e-22 0 -3.37221e-22 1.41633e-19 -2.82928e-19 2.82928e-19 -1.41296e-19 -3.37221e-22 0 1.41633e-19 -2.82928e-19 2.82928e-19 -2.82928e-19 2.82928e-19 -2.83266e-19 2.83266e-19 0 0 -5.66194e-19 5.66194e-19 0 -2.82928e-19 2.82928e-19 0 -2.83266e-19 3.37221e-22 2.82591e-19 0 0 -5.65857e-19 5.65857e-19 0 0 0 -5.65857e-19 5.65857e-19 0 0 -5.65857e-19 1.13171e-18 -1.13171e-18 0 0 0 -1.71983e-20 3.54082e-20 -3.54082e-20 0 7.08164e-20 -7.08164e-20 0 3.37221e-22 0 -3.37221e-22 1.41633e-19 -1.41296e-19 -3.37221e-22 3.37221e-22 -1.4197e-19 2.83266e-19 0 -2.82928e-19 -3.37221e-22 2.82928e-19 3.37221e-22 -2.83266e-19 2.83266e-19 0 -2.83266e-19 2.82928e-19 -2.82928e-19 2.83266e-19 -2.82928e-19 2.82928e-19 -2.83266e-19 0 2.82928e-19 0 0 0 0 -5.65857e-19 5.65857e-19 -5.65857e-19 5.65857e-19 0 0 0 -5.6552e-19 5.6552e-19 0 0 0 0 0 2.66405e-20 -5.29437e-20 1.06562e-19 -1.06225e-19 0 0 7.0142e-20 7.14909e-20 -1.41633e-19 0 -1.41633e-19 2.83266e-19 -2.83266e-19 2.83266e-19 -1.42307e-19 1.42307e-19 -2.83266e-19 5.65857e-19 -8.49123e-19 8.49123e-19 -5.65857e-19 2.82591e-19 -2.82591e-19 0 2.82591e-19 0 -2.82591e-19 0 5.65857e-19 -5.65857e-19 2.82591e-19 -2.82591e-19 2.82591e-19 0 0 -5.65857e-19 5.65857e-19 5.65857e-19 -1.13171e-18 0 5.65857e-19 5.65857e-19 -1.13171e-18 5.65857e-19 -5.6552e-19 1.13138e-18 -1.13171e-18 5.65857e-19 0 0 0 2.66405e-20 -5.29437e-20 1.06562e-19 -1.06225e-19 0 0 7.0142e-20 7.14909e-20 -2.83266e-19 2.83266e-19 -2.83266e-19 2.83266e-19 -2.83266e-19 2.83266e-19 1.40958e-19 -4.24224e-19 0 5.65857e-19 -5.65857e-19 0 0 5.65857e-19 -5.65857e-19 0 2.82591e-19 0 -2.82591e-19 0 5.65857e-19 -5.65857e-19 2.82591e-19 2.83266e-19 -8.49123e-19 5.65857e-19 0 -5.65857e-19 5.65857e-19 5.65857e-19 -1.13171e-18 5.65857e-19 0 -5.6552e-19 5.6552e-19 -5.65857e-19 1.13171e-18 -5.65857e-19 -5.65857e-19 5.65857e-19 0 0 0 -8.76775e-21 1.82099e-20 0 -3.54082e-20 7.08164e-20 -7.08164e-20 -7.08164e-20 2.12449e-19 -1.41633e-19 0 1.41633e-19 -1.41633e-19 0 0 0 -1.41633e-19 5.65857e-19 -5.65857e-19 2.83266e-19 -2.83266e-19 2.83266e-19 -2.83266e-19 2.83266e-19 0 -2.83266e-19 2.82591e-19 -2.82591e-19 2.83266e-19 -2.83266e-19 2.83266e-19 -2.83266e-19 2.82591e-19 0 -5.65857e-19 5.65857e-19 5.65857e-19 -5.65857e-19 -5.65857e-19 5.65857e-19 0 0 -5.6552e-19 5.6552e-19 0 0 -5.65857e-19 5.65857e-19 0 0 0 0 -8.76775e-21 1.82099e-20 0 -3.54082e-20 0 7.08164e-20 0 -7.08164e-20 0 0 1.41633e-19 -2.83266e-19 2.83266e-19 -1.41633e-19 0 1.41633e-19 -6.74442e-22 -2.82591e-19 2.83266e-19 -2.83266e-19 2.83266e-19 -2.83266e-19 2.83266e-19 0 0 -5.66531e-19 8.49123e-19 -5.65857e-19 2.82591e-19 -2.82591e-19 0 2.82591e-19 0 0 -5.65857e-19 1.13171e-18 -1.13171e-18 5.65857e-19 0 0 -5.65857e-19 5.65857e-19 0 0 0 -5.65857e-19 1.13171e-18 -1.13171e-18 0 0 0 -1.71983e-20 3.54082e-20 -3.54082e-20 0 7.08164e-20 -7.04792e-20 1.41296e-19 -2.82928e-19 1.41296e-19 3.37221e-22 1.41296e-19 -1.41633e-19 1.41633e-19 -2.82928e-19 2.82928e-19 0 -5.66194e-19 5.66194e-19 -2.82928e-19 2.82591e-19 3.37221e-22 -2.82928e-19 2.82928e-19 0 -2.82928e-19 2.82591e-19 0 0 -5.6552e-19 5.6552e-19 0 0 0 0 -5.65857e-19 0 5.65857e-19 0 0 -5.6552e-19 5.6552e-19 0 0 0 -5.6552e-19 5.6552e-19 0 0 0 0 0 1.82099e-20 -3.54082e-20 0 7.08164e-20 -7.08164e-20 3.37221e-22 -3.37221e-22 3.37221e-22 1.41296e-19 -1.41296e-19 -1.4197e-19 2.83266e-19 0 -2.82928e-19 -3.37221e-22 2.83266e-19 -2.82928e-19 2.82928e-19 -2.82928e-19 5.65857e-19 -5.66194e-19 2.82928e-19 -2.82928e-19 0 2.82928e-19 0 -2.82591e-19 5.65857e-19 -8.48785e-19 5.6552e-19 0 -5.65857e-19 1.13171e-18 -1.13171e-18 5.65857e-19 -5.65857e-19 1.13171e-18 -1.1317