<?xml version="1.0"?>
<VTKFile type="PolyData">
	<PolyData>
		<Piece NumberOfPoints="2601" NumberOfPolys="2500">
			<Points>
				<DataArray type="Float32" NumberOfComponents="3" format="ascii">
 0 0 0 0.356479 0 0 0.272991 0 0 0.347681 0 0 0.355783 0 0 0.378865 0 0 0.398422 0 0 0.413422 0 0 0.429551 0 0 0.441076 0 0 0.45362 0 0 0.462571 0 0 0.47381 0 0 0.481904 0 0 0.491234 0 0 0.498451 0 0 0.506232 0 0 0.512881 0 0 0.51913 0 0 0.524738 0 0 0.530374 0 0 0.535596 0 0 0.54037 0 0 0.544875 0 0 0.549057 0 0 0.552865 0 0 0.556777 0 0 0.561673 0 0 0.569147 0 0 0.581639 0 0 0.600034 0 0 0.62 0 0 0.64 0 0 0.66 0 0 0.68 0 0 0.7 0 0 0.72 0 0 0.74 0 0 0.76 0 0 0.78 0 0 0.8 0 0 0.82 0 0 0.84 0 0 0.86 0 0 0.88 0 0 0.9 0 0 0.92 0 0 0.94 0 0 0.96 0 0 0.98 0 0 1 0 0 0 0.356479 0 0.15838 0.15838 0 0.326189 0.144103 0 0.305337 0.127701 0 0.35208 0.0893092 0 0.374225 0.0796572 0 0.393072 0.071082 0 0.411316 0.0638989 0 0.425118 0.0588688 0 0.439723 0.054011 0 0.450083 0.0495339 0 0.46233 0.0456586 0 0.471152 0.0421956 0 0.481693 0.0394592 0 0.489405 0.0371529 0 0.497995 0.0351604 0 0.505091 0.0333665 0 0.512198 0.0316576 0 0.518179 0.0300459 0 0.524114 0.0285826 0 0.529679 0.0272806 0 0.535015 0.0261146 0 0.539841 0.0250618 0 0.5444 0.0240901 0 0.548616 0.0231777 0 0.552461 0.0223195 0 0.556416 0.0215358 0 0.561373 0.0208605 0 0.56894 0.0203487 0 0.581562 0.0200746 0 0.600031 0.020003 0 0.62 0.02 0 0.64 0.02 0 0.66 0.02 0 0.68 0.02 0 0.7 0.02 0 0.72 0.02 0 0.74 0.02 0 0.76 0.02 0 0.78 0.02 0 0.8 0.02 0 0.82 0.02 0 0.84 0.02 0 0.86 0.02 0 0.88 0.02 0 0.9 0.02 0 0.92 0.02 0 0.94 0.02 0 0.96 0.02 0 0.98 0.02 0 1 0.02 0 0 0.272991 0 0.144103 0.326189 0 0.182088 0.182088 0 0.297818 0.206794 0 0.321185 0.175105 0 0.353504 0.151475 0 0.379184 0.136134 0 0.397649 0.125865 0 0.416381 0.114763 0 0.430308 0.105861 0 0.444933 0.0974117 0 0.45559 0.0898931 0 0.467921 0.0837101 0 0.476781 0.0783189 0 0.486747 0.0738616 0 0.494476 0.0699409 0 0.502666 0.0662888 0 0.509348 0.0628456 0 0.515989 0.0596562 0 0.522119 0.0568405 0 0.527809 0.0542865 0 0.533262 0.0520188 0 0.538296 0.0499518 0 0.542967 0.0480362 0 0.547305 0.0462303 0 0.551254 0.0445308 0 0.55534 0.0429794 0 0.560481 0.0416485 0 0.568331 0.0406508 0 0.581348 0.0401328 0 0.600023 0.0400046 0 0.62 0.04 0 0.64 0.04 0 0.66 0.04 0 0.68 0.04 0 0.7 0.04 0 0.72 0.04 0 0.74 0.04 0 0.76 0.04 0 0.78 0.04 0 0.8 0.04 0 0.82 0.04 0 0.84 0.04 0 0.86 0.04 0 0.88 0.04 0 0.9 0.04 0 0.92 0.04 0 0.94 0.04 0 0.96 0.04 0 0.98 0.04 0 1 0.04 0 0 0.347681 0 0.127701 0.305337 0 0.206794 0.297818 0 0.20639 0.20639 0 0.282468 0.24264 0 0.32809 0.206294 0 0.355442 0.194262 0 0.381535 0.176647 0 0.400868 0.165387 0 0.419981 0.152145 0 0.43407 0.141319 0 0.448895 0.131516 0 0.459743 0.122959 0 0.471677 0.115829 0 0.480488 0.109547 0 0.490134 0.10383 0 0.497774 0.0984846 0 0.505387 0.0933648 0 0.512335 0.0887499 0 0.518999 0.0845527 0 0.524833 0.0808376 0 0.530501 0.0775343 0 0.535742 0.0745241 0 0.54061 0.0717003 0 0.545141 0.0690382 0 0.549267 0.0665253 0 0.553575 0.0642409 0 0.55903 0.0622957 0 0.567361 0.0608658 0 0.581039 0.060162 0 0.600014 0.0600043 0 0.62 0.06 0 0.64 0.06 0 0.66 0.06 0 0.68 0.06 0 0.7 0.06 0 0.72 0.06 0 0.74 0.06 0 0.76 0.06 0 0.78 0.06 0 0.8 0.06 0 0.82 0.06 0 0.84 0.06 0 0.86 0.06 0 0.88 0.06 0 0.9 0.06 0 0.92 0.06 0 0.94 0.06 0 0.96 0.06 0 0.98 0.06 0 1 0.06 0 0 0.355783 0 0.0893092 0.35208 0 0.175105 0.321185 0 0.24264 0.282468 0 0.241506 0.241506 0 0.294472 0.265091 0 0.335321 0.229662 0 0.360833 0.223943 0 0.385971 0.205623 0 0.40481 0.194571 0 0.423339 0.181006 0 0.437138 0.170132 0 0.451571 0.160212 0 0.462205 0.151531 0 0.473876 0.143618 0 0.482768 0.136353 0 0.492032 0.129297 0 0.499789 0.122886 0 0.507634 0.11692 0 0.514465 0.111579 0 0.520962 0.106819 0 0.526725 0.102561 0 0.532286 0.0986463 0 0.537367 0.0949646 0 0.542161 0.091481 0 0.546537 0.0882007 0 0.551166 0.0852363 0 0.557075 0.0827444 0 0.566102 0.0809657 0 0.580702 0.0801575 0 0.600007 0.0800029 0 0.62 0.08 0 0.64 0.08 0 0.66 0.08 0 0.68 0.08 0 0.7 0.08 0 0.72 0.08 0 0.74 0.08 0 0.76 0.08 0 0.78 0.08 0 0.8 0.08 0 0.82 0.08 0 0.84 0.08 0 0.86 0.08 0 0.88 0.08 0 0.9 0.08 0 0.92 0.08 0 0.94 0.08 0 0.96 0.08 0 0.98 0.08 0 1 0.08 0 0 0.378865 0 0.0796572 0.374225 0 0.151475 0.353504 0 0.206294 0.32809 0 0.265091 0.294472 0 0.273928 0.273928 0 0.312564 0.279373 0 0.342838 0.250239 0 0.367049 0.247008 0 0.390414 0.228551 0 0.408085 0.218518 0 0.425795 0.205386 0 0.439232 0.194971 0 0.453374 0.184701 0 0.46408 0.17567 0 0.475383 0.166707 0 0.484423 0.158685 0 0.493777 0.150986 0 0.501522 0.144084 0 0.509091 0.137753 0 0.515943 0.132172 0 0.522097 0.126978 0 0.527953 0.122222 0 0.533323 0.117696 0 0.538414 0.113452 0 0.543122 0.109465 0 0.548175 0.105899 0 0.554701 0.102952 0 0.56466 0.100943 0 0.580403 0.100124 0 0.600003 0.100001 0 0.62 0.1 0 0.64 0.1 0 0.66 0.1 0 0.68 0.1 0 0.7 0.1 0 0.72 0.1 0 0.74 0.1 0 0.76 0.1 0 0.78 0.1 0 0.8 0.1 0 0.82 0.1 0 0.84 0.1 0 0.86 0.1 0 0.88 0.1 0 0.9 0.1 0 0.92 0.1 0 0.94 0.1 0 0.96 0.1 0 0.98 0.1 0 1 0.1 0 0 0.398422 0 0.071082 0.393072 0 0.136134 0.379184 0 0.194262 0.355442 0 0.229662 0.335321 0 0.279373 0.312564 0 0.295334 0.295334 0 0.326115 0.293594 0 0.350775 0.268341 0 0.372526 0.266258 0 0.394429 0.247595 0 0.411119 0.238674 0 0.428202 0.225581 0 0.441382 0.215577 0 0.455123 0.20469 0 0.465711 0.195462 0 0.476988 0.18613 0 0.486051 0.177977 0 0.494834 0.170053 0 0.502641 0.163145 0 0.510011 0.156638 0 0.516629 0.150694 0 0.522854 0.145086 0 0.528573 0.139818 0 0.533984 0.134865 0 0.539082 0.13026 0 0.544679 0.126183 0 0.55202 0.122898 0 0.563187 0.120811 0 0.58019 0.120078 0 0.600001 0.12 0 0.62 0.12 0 0.64 0.12 0 0.66 0.12 0 0.68 0.12 0 0.7 0.12 0 0.72 0.12 0 0.74 0.12 0 0.76 0.12 0 0.78 0.12 0 0.8 0.12 0 0.82 0.12 0 0.84 0.12 0 0.86 0.12 0 0.88 0.12 0 0.9 0.12 0 0.92 0.12 0 0.94 0.12 0 0.96 0.12 0 0.98 0.12 0 1 0.12 0 0 0.413422 0 0.0638989 0.411316 0 0.125865 0.397649 0 0.176647 0.381535 0 0.223943 0.360833 0 0.250239 0.342838 0 0.293594 0.326115 0 0.312371 0.312371 0 0.337522 0.306733 0 0.358603 0.283917 0 0.378031 0.282446 0 0.398292 0.263483 0 0.414156 0.25559 0 0.4306 0.242208 0 0.443326 0.232686 0 0.456811 0.221574 0 0.467321 0.212656 0 0.478035 0.20318 0 0.48687 0.195116 0 0.495601 0.187237 0 0.503198 0.180161 0 0.510533 0.173436 0 0.517043 0.167149 0 0.523228 0.161211 0 0.528922 0.155658 0 0.53451 0.150535 0 0.540774 0.146068 0 0.549166 0.142586 0 0.561876 0.140606 0 0.58007 0.140037 0 0.6 0.14 0 0.62 0.14 0 0.64 0.14 0 0.66 0.14 0 0.68 0.14 0 0.7 0.14 0 0.72 0.14 0 0.74 0.14 0 0.76 0.14 0 0.78 0.14 0 0.8 0.14 0 0.82 0.14 0 0.84 0.14 0 0.86 0.14 0 0.88 0.14 0 0.9 0.14 0 0.92 0.14 0 0.94 0.14 0 0.96 0.14 0 0.98 0.14 0 1 0.14 0 0 0.429551 0 0.0588688 0.425118 0 0.114763 0.416381 0 0.165387 0.400868 0 0.205623 0.385971 0 0.247008 0.367049 0 0.268341 0.350775 0 0.306733 0.337522 0 0.326507 0.326507 0 0.347825 0.31755 0 0.366775 0.297413 0 0.3844 0.295292 0 0.402798 0.276619 0 0.417716 0.269644 0 0.433345 0.256119 0 0.445652 0.247408 0 0.458426 0.236132 0 0.46849 0.227557 0 0.478931 0.218235 0 0.487544 0.210261 0 0.496096 0.202348 0 0.503704 0.195196 0 0.510783 0.188274 0 0.517292 0.181852 0 0.523365 0.175769 0 0.529511 0.170265 0 0.536623 0.165544 0 0.546316 0.162065 0 0.560904 0.160374 0 0.580019 0.160012 0 0.6 0.16 0 0.62 0.16 0 0.64 0.16 0 0.66 0.16 0 0.68 0.16 0 0.7 0.16 0 0.72 0.16 0 0.74 0.16 0 0.76 0.16 0 0.78 0.16 0 0.8 0.16 0 0.82 0.16 0 0.84 0.16 0 0.86 0.16 0 0.88 0.16 0 0.9 0.16 0 0.92 0.16 0 0.94 0.16 0 0.96 0.16 0 0.98 0.16 0 1 0.16 0 0 0.441076 0 0.054011 0.439723 0 0.105861 0.430308 0 0.152145 0.419981 0 0.194571 0.40481 0 0.228551 0.390414 0 0.266258 0.372526 0 0.283917 0.358603 0 0.31755 0.347825 0 0.338056 0.338056 0 0.357315 0.326643 0 0.374808 0.309375 0 0.391585 0.305649 0 0.407918 0.287844 0 0.422084 0.28149 0 0.436466 0.267936 0 0.447931 0.259876 0 0.460156 0.248812 0 0.469839 0.240648 0 0.479746 0.231389 0 0.48836 0.223615 0 0.49659 0.215697 0 0.504064 0.20855 0 0.510939 0.201613 0 0.517433 0.195212 0 0.524245 0.18942 0 0.532431 0.184648 0 0.543752 0.181434 0 0.560337 0.180178 0 0.580004 0.180003 0 0.6 0.18 0 0.62 0.18 0 0.64 0.18 0 0.66 0.18 0 0.68 0.18 0 0.7 0.18 0 0.72 0.18 0 0.74 0.18 0 0.76 0.18 0 0.78 0.18 0 0.8 0.18 0 0.82 0.18 0 0.84 0.18 0 0.86 0.18 0 0.88 0.18 0 0.9 0.18 0 0.92 0.18 0 0.94 0.18 0 0.96 0.18 0 0.98 0.18 0 1 0.18 0 0 0.45362 0 0.0495339 0.450083 0 0.0974117 0.444933 0 0.141319 0.43407 0 0.181006 0.423339 0 0.218518 0.408085 0 0.247595 0.394429 0 0.282446 0.378031 0 0.297413 0.366775 0 0.326643 0.357315 0 0.347567 0.347567 0 0.365609 0.334573 0 0.382126 0.320281 0 0.398307 0.314428 0 0.412923 0.297906 0 0.426172 0.291529 0 0.439542 0.278293 0 0.450499 0.270891 0 0.461867 0.259964 0 0.471308 0.252201 0 0.480788 0.243143 0 0.489086 0.23548 0 0.497138 0.227753 0 0.504255 0.22063 0 0.511314 0.213923 0 0.518913 0.208087 0 0.528419 0.203475 0 0.541805 0.200831 0 0.560091 0.20006 0 0.58 0.2 0 0.6 0.2 0 0.62 0.2 0 0.64 0.2 0 0.66 0.2 0 0.68 0.2 0 0.7 0.2 0 0.72 0.2 0 0.74 0.2 0 0.76 0.2 0 0.78 0.2 0 0.8 0.2 0 0.82 0.2 0 0.84 0.2 0 0.86 0.2 0 0.88 0.2 0 0.9 0.2 0 0.92 0.2 0 0.94 0.2 0 0.96 0.2 0 0.98 0.2 0 1 0.2 0 0 0.462571 0 0.0456586 0.46233 0 0.0898931 0.45559 0 0.131516 0.448895 0 0.170132 0.437138 0 0.205386 0.425795 0 0.238674 0.411119 0 0.263483 0.398292 0 0.295292 0.3844 0 0.309375 0.374808 0 0.334573 0.365609 0 0.355472 0.355472 0 0.372851 0.341933 0 0.388051 0.329731 0 0.40366 0.321947 0 0.417129 0.307069 0 0.43001 0.300725 0 0.442299 0.287758 0 0.452833 0.280772 0 0.46364 0.270202 0 0.472584 0.262595 0 0.481766 0.253876 0 0.489792 0.246365 0 0.497472 0.238793 0 0.505097 0.232114 0 0.513764 0.226355 0 0.524885 0.22225 0 0.540656 0.220371 0 0.560017 0.220013 0 0.58 0.22 0 0.6 0.22 0 0.62 0.22 0 0.64 0.22 0 0.66 0.22 0 0.68 0.22 0 0.7 0.22 0 0.72 0.22 0 0.74 0.22 0 0.76 0.22 0 0.78 0.22 0 0.8 0.22 0 0.82 0.22 0 0.84 0.22 0 0.86 0.22 0 0.88 0.22 0 0.9 0.22 0 0.92 0.22 0 0.94 0.22 0 0.96 0.22 0 0.98 0.22 0 1 0.22 0 0 0.47381 0 0.0
[...]
			<PointData Scalars="VitesseX">
				<DataArray Name="VitesseX" type="Float32" format="ascii">
 0 1.93865 0.751743 1.45434 1.30537 1.42825 1.59622 1.59039 1.63331 1.78639 1.84673 1.83308 1.88629 1.94403 2.01289 2.01204 2.01517 2.09284 2.21569 2.13135 2.21959 2.23039 2.2937 2.33874 2.38316 2.41912 2.3393 2.08491 1.51462 0.563369 0.0224682 9.31648e-06 7.33888e-11 5.49167e-16 1.89627e-20 -3.8684e-20 3.8684e-20 -1.89627e-20 1.89627e-20 -1.89627e-20 1.89627e-20 -3.8684e-20 3.8684e-20 0 0 -3.8684e-20 3.8684e-20 -3.8684e-20 3.8684e-20 0 0 0 0.30033 1.54975 0.958961 1.36471 1.39835 1.57438 1.59445 1.63145 1.75378 1.84293 1.83481 1.87506 1.95982 1.98496 2.01815 2.01265 2.12221 2.1811 2.14196 2.21204 2.23218 2.28332 2.3389 2.38105 2.41569 2.33409 2.07604 1.49955 0.54415 0.0205916 8.01944e-06 6.59001e-11 5.04787e-16 1.89627e-20 -3.8684e-20 3.8684e-20 -1.89627e-20 1.89627e-20 -1.89627e-20 1.89627e-20 -3.8684e-20 3.8684e-20 0 0 -3.8684e-20 3.8684e-20 -3.8684e-20 3.8684e-20 0 0 0 0.814003 0.37272 1.27799 1.13542 1.31876 1.4716 1.5217 1.57852 1.71033 1.78615 1.81278 1.87199 1.91664 1.97957 1.97589 2.05494 2.12018 2.11296 2.1675 2.20475 2.23405 2.2641 2.33366 2.37613 2.40498 2.31792 2.04843 1.45365 0.488056 0.0157665 5.10225e-06 4.73703e-11 3.92241e-16 -9.86062e-21 -1.9342e-20 1.9342e-20 4.96824e-20 -4.96824e-20 9.86062e-21 -9.86062e-21 -1.9342e-20 5.91637e-20 -3.98217e-20 0 2.04797e-20 -2.04797e-20 2.04797e-20 -2.04797e-20 0 0 0 0.705939 0.952775 0.503681 0.972031 1.20559 1.36466 1.44977 1.51652 1.64213 1.74205 1.77927 1.83733 1.90201 1.9273 1.988 2.06614 2.09189 2.06274 2.18773 2.19431 2.24366 2.24762 2.31901 2.36964 2.3867 2.28912 1.99911 1.37435 0.400731 0.00993005 2.38313e-06 2.67769e-11 2.49485e-16 2.04797e-20 -3.98217e-20 3.98217e-20 -2.0859e-20 2.0859e-20 -2.04797e-20 2.04797e-20 -3.98217e-20 3.98217e-20 0 0 -4.0201e-20 4.0201e-20 -4.0201e-20 4.0201e-20 0 0 0 0.378288 0.729419 1.04769 0.802408 1.08096 1.29538 1.38986 1.46339 1.58267 1.67774 1.74392 1.80093 1.84447 1.91419 1.97772 2.04953 2.0385 2.08942 2.14476 2.19247 2.24402 2.24481 2.29738 2.35849 2.36175 2.24645 1.92308 1.25587 0.293927 0.00502098 8.10745e-07 1.16761e-11 1.15727e-16 0 -3.98217e-20 3.98217e-20 3.94425e-20 -3.94425e-20 0 0 -3.98217e-20 0 3.98217e-20 0 -3.79255e-22 3.79255e-22 -8.00227e-20 8.00227e-20 0 0 0 0.342443 0.587565 0.747682 1.11088 1.12639 1.23159 1.31151 1.42515 1.53108 1.61168 1.69075 1.74504 1.81026 1.88819 1.9784 1.96519 2.04918 2.10561 2.10032 2.19261 2.21751 2.25638 2.27282 2.33846 2.33025 2.18908 1.81561 1.08887 0.185993 0.00197483 2.01849e-07 3.89263e-12 4.3677e-17 -3.98217e-20 0 0 1.19465e-19 -1.19465e-19 3.98217e-20 -3.98217e-20 0 7.96435e-20 -7.96435e-20 0 7.96435e-20 -7.96435e-20 7.96435e-20 -7.96435e-20 0 0 0 0.309135 0.538381 0.747604 0.828113 1.09874 1.19866 1.29426 1.35235 1.47612 1.56358 1.63026 1.69642 1.78543 1.87297 1.89695 1.94601 2.04808 2.08916 2.08349 2.17694 2.17861 2.26479 2.25316 2.31433 2.28418 2.11217 1.67502 0.866895 0.097184 0.000580661 3.87531e-08 1.01096e-12 1.55562e-17 -7.96435e-20 0 7.96435e-20 -1.59287e-19 1.59287e-19 -7.96435e-20 0 7.96435e-20 -7.96435e-20 7.96435e-20 0 -7.96435e-20 0 7.96435e-20 -7.96435e-20 0 0 0 0.263605 0.501872 0.669657 0.850922 0.902289 1.1208 1.27608 1.37101 1.41944 1.50669 1.58458 1.65986 1.74237 1.79399 1.84875 1.93921 2.02501 2.03587 2.09754 2.1198 2.16882 2.23875 2.2504 2.2839 2.21995 2.00161 1.49696 0.603472 0.0399151 0.000121088 6.41461e-09 2.16421e-13 -3.74885e-22 7.96435e-20 -7.96435e-20 7.96435e-20 -1.59287e-19 1.59287e-19 -7.96435e-20 7.96435e-20 -7.96435e-20 0 7.96435e-20 0 -1.59287e-19 1.59287e-19 -1.59287e-19 1.59287e-19 0 0 0 0.251746 0.441934 0.654014 0.760408 0.959902 0.992352 1.21304 1.3634 1.42652 1.47423 1.54022 1.62862 1.6613 1.73204 1.84001 1.93512 1.94971 2.03291 2.0659 2.0808 2.15629 2.19833 2.2456 2.24384 2.14266 1.84916 1.25952 0.345383 0.0122359 1.66874e-05 9.43438e-10 3.96161e-14 -7.96003e-20 0 7.96435e-20 -1.59287e-19 2.38551e-19 -2.38551e-19 7.96435e-20 1.59287e-19 -1.59287e-19 0 -7.96435e-20 1.59287e-19 -7.96435e-20 1.59287e-19 -3.18574e-19 3.18574e-19 -1.59287e-19 0 0 0.22905 0.44324 0.59336 0.78555 0.871104 1.08427 1.10345 1.28734 1.41677 1.44714 1.5145 1.56871 1.63058 1.74541 1.83537 1.86931 1.93611 2.00649 2.0275 2.07014 2.12422 2.17194 2.2342 2.19218 2.04297 1.66163 0.939353 0.151997 0.00263636 1.42204e-06 1.06103e-10 5.77771e-15 7.96462e-20 -7.96435e-20 0 0 2.38551e-19 -2.38551e-19 7.96435e-20 -7.96435e-20 0 0 0 0 1.59287e-19 -1.59287e-19 0 0 0 0 0 0.215667 0.402615 0.580307 0.714578 0.895856 0.962945 1.1982 1.18762 1.32731 1.44779 1.50894 1.57611 1.66376 1.74861 1.78829 1.8387 1.92373 1.97516 1.99647 2.08349 2.06901 2.17074 2.19572 2.12835 1.89605 1.42558 0.570821 0.0482006 0.000366648 7.88781e-08 8.07816e-12 5.65723e-16 1.59287e-19 7.96435e-20 -3.18574e-19 3.18574e-19 -1.59287e-19 0 1.59287e-19 -3.18574e-19 1.59287e-19 1.59287e-19 -1.59287e-19 0 0 0 1.59287e-19 -3.18574e-19 3.18574e-19 0 0 0.192216 0.370324 0.534271 0.692184 0.832124 0.988172 1.04917 1.27916 1.23047 1.39336 1.49016 1.54348 1.6837 1.73768 1.76294 1.84691 1.90063 1.92024 2.02502 2.0349 2.069 2.15208 2.14369 2.0288 1.70764 1.08807 0.258598 0.0103444 2.91898e-05 4.13559e-09 4.77776e-13 1.55652e-17 -1.58908e-19 0 0 0 0 0 0 0 0 1.59287e-19 -1.59287e-19 0 0 0 1.59287e-19 -1.59287e-19 0 0 0 0.177978 0.350251 0.504274 0.662809 0.799668 0.928776 1.08214 1.13335 1.29953 1.31074 1.42684 1.54651 1.67014 1.70039 1.73478 1.82099 1.84818 1.92886 1.98831 2.0145 2.07888 2.11624 2.06729 1.86981 1.45769 0.660797 0.080653 0.00137189 1.203e-06 2.1816e-10 2.90799e-14 -1.40799e-21 3.79255e-22 0 1.59287e-19 -1.59287e-19 -1.59287e-19 3.18574e-19 -1.59287e-19 1.59287e-19 -1.59287e-19 -1.59287e-19 3.18574e-19 -1.59287e-19 1.59287e-19 -1.59287e-19 -1.59287e-19 4.77102e-19 -4.77102e-19 0 0 0.171322 0.327858 0.487484 0.628798 0.776871 0.910319 1.0337 1.13167 1.16698 1.38082 1.41352 1.51651 1.5768 1.66694 1.77338 1.78505 1.84695 1.93127 1.9436 2.00797 2.08063 2.0509 1.94906 1.65489 1.07699 0.284461 0.0160085 9.83462e-05 2.98911e-08 7.47828e-12 1.36872e-15 -3.18571e-19 3.18574e-19 -1.59287e-19 0 1.59287e-19 -3.18574e-19 3.18574e-19 -1.59287e-19 0 1.59287e-19 -3.18574e-19 3.18574e-19 0 -1.59287e-19 0 -7.58509e-22 0 7.58509e-22 0 0 0.160487 0.314707 0.461719 0.612944 0.757271 0.891635 0.984296 1.07645 1.2247 1.27548 1.43792 1.44971 1.5107 1.63205 1.68765 1.7661 1.842 1.87355 1.92889 2.01412 2.01951 1.97975 1.75656 1.363 0.596011 0.078343 0.00184672 3.18775e-06 8.96126e-10 2.05867e-13 6.48034e-22 1.59287e-19 -1.59287e-19 0 0 0 0 0 0 0 1.59287e-19 0 -1.59287e-19 0 0 0 -7.58509e-22 -1.58528e-19 3.18574e-19 0 0 0.149986 0.296971 0.448176 0.600259 0.739358 0.840168 0.943551 1.07486 1.1851 1.27418 1.31486 1.43292 1.53764 1.51432 1.67389 1.74852 1.78814 1.84308 1.92564 1.97064 1.95586 1.80948 1.52452 0.904565 0.214519 0.0128956 9.9579e-05 5.15946e-08 2.12563e-11 6.48262e-15 6.21803e-22 1.59287e-19 -3.18574e-19 3.18574e-19 -1.59287e-19 0 0 0 0 1.59287e-19 -3.18574e-19 3.18574e-19 -1.59287e-19 0 -1.59287e-19 3.18574e-19 -3.18574e-19 3.18574e-19 0 0 0 0.143402 0.29355 0.443628 0.575919 0.69003 0.800025 0.938529 1.05175 1.14227 1.20988 1.33619 1.3637 1.48018 1.53695 1.57688 1.72732 1.76182 1.82796 1.88895 1.88287 1.82032 1.58663 1.13683 0.401553 0.0471304 0.00101669 2.22229e-06 9.36083e-10 3.5298e-13 1.13148e-16 0 0 1.58528e-19 -1.58528e-19 0 -1.59287e-19 4.77102e-19 -1.58528e-19 -3.18574e-19 3.18574e-19 -3.18574e-19 0 3.18574e-19 0 -3.18574e-19 3.18574e-19 0 -3.18574e-19 3.18574e-19 0 0 0.147421 0.288293 0.417452 0.53781 0.665169 0.799835 0.909173 1.01209 1.09552 1.21287 1.26821 1.34726 1.40887 1.52227 1.57295 1.61995 1.7744 1.81346 1.81202 1.77856 1.57265 1.27432 0.576301 0.112145 0.00481672 3.67108e-05 2.03509e-08 1.49261e-11 6.93552e-15 8.62732e-23 0 0 1.58528e-19 -3.17815e-19 3.18574e-19 -3.18574e-19 4.77102e-19 -4.77102e-19 1.59287e-19 1.59287e-19 0 -3.18574e-19 0 3.18574e-19 0 0 -3.18574e-19 3.17815e-19 -3.17815e-19 0 0 0.140607 0.26038 0.386767 0.519295 0.65189 0.762966 0.873017 0.978819 1.09721 1.14894 1.24141 1.29823 1.42127 1.45078 1.52227 1.62892 1.70881 1.73666 1.70831 1.5544 1.31464 0.687878 0.193546 0.0132837 0.000266224 3.18183e-07 3.09296e-10 1.50888e-13 5.14849e-17 1.58528e-19 -1.58528e-19 1.59287e-19 -3.18574e-19 1.59287e-19 1.59287e-19 0 -3.18574e-19 0 6.36389e-19 -6.36389e-19 0 3.18574e-19 -7.58509e-22 -3.17815e-19 3.18574e-19 -3.18574e-19 3.17815e-19 0 -3.17815e-19 0 0 0.128429 0.25092 0.380318 0.503135 0.613573 0.732352 0.847427 0.957157 1.03264 1.13453 1.20094 1.31083 1.32115 1.43512 1.52276 1.56027 1.63191 1.63274 1.48827 1.28375 0.755504 0.25535 0.0248635 0.000993996 2.52618e-06 3.20273e-09 2.11808e-12 2.23275e-15 1.59322e-19 1.58528e-19 -1.58528e-19 0 0 1.59287e-19 -3.18574e-19 3.18574e-19 -7.58509e-22 7.58509e-22 -7.58509e-22 -3.17815e-19 0 3.18574e-19 -7.58509e-22 -3.17815e-19 3.18574e-19 -3.18574e-19 3.17815e-19 -3.17815e-19 3.18574e-19 0 0 0.126148 0.24614 0.362615 0.48226 0.608252 0.722951 0.821222 0.907895 1.0182 1.10356 1.18701 1.2191 1.34861 1.37958 1.48688 1.516 1.47745 1.40668 1.23218 0.739955 0.28061 0.0362793 0.00201633 1.00793e-05 2.08455e-08 1.76712e-11 2.53866e-14 1.01764e-17 1.59287e-19 -4.77861e-19 4.77861e-19 -1.59287e-19 1.59287e-19 0 -3.18574e-19 0 3.17815e-19 7.58509e-22 -3.18574e-19 3.18574e-19 -3.18574e-19 3.18574e-19 -3.18574e-19 3.18574e-19 0 -3.18574e-19 0 3.18574e-19 0 0 0 0.120919 0.239455 0.355691 0.473 0.585424 0.692554 0.796285 0.899582 0.98359 1.06336 1.1295 1.24088 1.27996 1.37917 1.35786 1.39423 1.28159 1.09985 0.681782 0.272647 0.0387308 0.00275978 2.43538e-05 6.88064e-08 7.73948e-11 1.58565e-13 7.21111e-17 -1.59282e-19 1.59287e-19 -3.18574e-19 3.18574e-19 -3.18574e-19 3.18574e-19 0 -3.18574e-19 3.17815e-19 -3.17815e-19 0 3.18574e-19 -3.18574e-19 3.17815e-19 7.58509e-22 -3.18574e-19 3.18574e-19 -3.18574e-19 3.17815e-19 7.58509e-22 -3.18574e-19 3.18574e-19 0 0 0.116983 0.231855 0.344553 0.456579 0.571591 0.684157 0.784466 0.870498 0.960892 1.0457 1.13565 1.18215 1.25048 1.23689 1.25693 1.11651 0.985633 0.554971 0.226839 0.0345906 0.00274836 2.95066e-05 1.21223e-07 2.03631e-10 4.95016e-13 4.94089e-16 -1.59238e-19 -1.59287e-19 3.18574e-19 0 -3.18574e-19 3.17815e-19 -3.17815e-19 3.18574e-19 -3.18574e-19 6.36389e-19 -6.36389e-19 0 3.18574e-19 -3.18574e-19 6.36389e-19 -6.36389e-19 0 3.18574e-19 -3.18574e-19 6.36389e-19 -6.36389e-19 3.17815e-19 -3.17815e-19 0 0 0.113408 0.226836 0.338221 0.447563 0.552806 0.654946 0.754521 0.850431 0.940125 1.01505 1.06916 1.12018 1.11031 1.09284 0.962844 0.793608 0.405983 0.166139 0.0226095 0.00198526 2.42475e-05 1.21126e-07 2.51921e-10 8.40066e-13 1.44062e-15 1.66918e-22 1.58528e-19 -1.58528e-19 -1.59287e-19 3.18574e-19 -3.18574e-19 6.36389e-19 -6.36389e-19 0 3.18574e-19 -3.18574e-19 3.17815e-19 7.58509e-22 -3.18574e-19 3.18574e-19 -3.18574e-19 3.17815e-19 7.58509e-22 -3.18574e-19 3.18574e-19 -3.18574e-19 3.17815e-19 0 -3.17815e-19 0 0 0.110475 0.220334 0.329413 0.436486 0.539703 0.639665 0.733491 0.813694 0.886088 0.939384 0.970138 0.958976 0.918154 0.778606 0.56516 0.2662 0.0932283 0.0117047 0.000977858 9.98279e-06 6.85539e-08 2.02939e-10 8.39284e-13 1.83163e-15 -3.20145e-22 0 -7.58509e-22 1.60045e-19 -3.18574e-19 3.18574e-19 0 -3.18574e-19 3.18574e-19 -3.18574e-19 3.18574e-19 -3.18574e-19 3.17815e-19 7.58509e-22 -3.18574e-19 3.18574e-19 -3.18574e-19 3.17815e-19 7.58509e-22 -3.18574e-19 3.18574e-19 -3.18574e-19 3.17815e-19 -3.17815e-19 3.18574e-19 0 0 0.106507 0.212165 0.315896 0.416218 0.511803 0.600995 0.680411 0.746043 0.788725 0.802969 0.780998 0.709212 0.549087 0.344211 0.142884 0.0388611 0.00432836 0.000261654 2.49087e-06 2.07265e-08 7.67229e-11 4.93123e-13 1.4403e-15 3.18251e-19 0 0 -6.37148e-19 6.37148e-19 0 0 0 -6.37148e-19 6.37148e-19 0 0 0 -6.37148e-19 6.37148e-19 0 0 0 -6.37148e-19 6.37148e-19 0 0 0 -6.37148e-19 9.54963e-19 -6.36389e-19 0 0 0.0979214 0.194449 0.288017 0.376812 0.458621 0.529218 0.583045 0.614382 0.61551 0.567828 0.461424 0.312277 0.164047 0.0551651 0.0109481 0.000945146 3.61106e-05 3.12419e-07 3.17185e-09 1.74056e-11 1.57721e-13 4.94088e-16 -3.18407e-19 3.18574e-19 0 -3.18574e-19 3.17815e-19 -3.17815e-19 3.18574e-19 0 -3.18574e-19 3.17815e-19 -3.17815e-19 3.18574e-19 0 -3.18574e-19 3.17815e-19 -3.17815e-19 3.18574e-19 0 -3.18574e-19 3.17815e-19 -3.17815e-19 3.18574e-19 0 -3.18574e-19 0 3.17815e-19 0 0 0 0.0827735 0.163067 0.238116 0.305029 0.360573 0.399586 0.411849 0.385709 0.319513 0.228363 0.129785 0.0515059 0.0123986 0.00164837 9.51925e-05 2.1839e-06 1.97657e-08 3.05403e-10 2.07188e-12 2.5263e-14 7.2111e-17 -1.59238e-19 1.58528e-19 -3.17815e-19 0 3.17815e-19 0 0 -3.17815e-19 0 3.17815e-19 0 0 -3.17815e-19 0 3.17815e-19 0 0 -3.17815e-19 0 3.17815e-19 0 0 7.58509e-22 -3.18574e-19 0 6.36389e-19 -9.54963e-19 6.36389e-19 0 0 0.0564865 0.108959 0.152902 0.183229 0.195546 0.188231 0.162933 0.121628 0.0712318 0.0291383 0.00767476 0.00117639 9.20279e-05 3.08778e-06 4.97929e-08 9.07207e-10 1.46425e-11 1.46545e-13 2.2124e-15 1.04946e-17 -1.58905e-19 -1.59287e-19 4.76723e-19 -4.77102e-19 0 3.18195e-19 0 0 -3.18195e-19 0 3.18195e-19 -3.18195e-19 6.36389e-19 -6.36389e-19 0 3.18195e-19 -3.18195e-19 3.18195e-19 -3.18195e-19 3.18195e-19 0 -3.18195e-19 3.18195e-19 3.79255e-22 -6.36769e-19 9.54963e-19 -3.18574e-19 -6.36389e-19 6.36389e-19 0 0 0.0205241 0.0380575 0.0498864 0.053773 0.048389 0.0350314 0.0191604 0.00744868 0.0019383 0.000309675 2.68313e-05 1.14529e-06 2.81547e-08 8.54692e-10 2.05766e-11 3.39438e-13 6.83287e-15 5.11666e-17 1.59325e-19 1.58908e-19 -1.58908e-19 0 -1.59666e-19 3.18574e-19 0 -3.18195e-19 3.17815e-19 -3.17815e-19 3.18195e-19 0 -3.18195e-19 3.18195e-19 -3.18574e-19 3.18574e-19 0 -3.18195e-19 -3.79255e-22 3.79255e-22 3.18195e-19 -3.79255e-22 0 3.79255e-22 -3.18195e-19 -3.79255e-22 3.18195e-19 0 -6.36389e-19 6.36389e-19 0 0 0 0.00180632 0.00285107 0.00281105 0.00198235 0.00101274 0.000366914 9.01926e-05 1.39847e-05 1.27213e-06 7.10419e-08 3.71466e-09 2.03655e-10 7.08202e-12 1.93128e-13 6.25633e-15 1.13147e-16 8.62732e-23 1.58528e-19 -1.58528e-19 -1.59287e-19 3.18574e-19 0 -3.18574e-19 3.18574e-19 0 0 -6.37148e-19 6.37148e-19 0 0 -3.18574e-19 3.18574e-19 -3.18574e-19 3.18574e-19 -3.18574e-19 3.18574e-19 -7.58509e-22 7.58509e-22 -3.18574e-19 3.17815e-19 -6.3601e-19 9.54584e-19 -6.36389e-19 3.17815e-19 0 -6.36389e-19 6.36389e-19 6.36389e-19 -1.27278e-18 0 0 1.29622e-06 1.6193e-06 1.09859e-06 4.73334e-07 1.35476e-07 2.76145e-08 4.72497e-09 7.46545e-10 9.08563e-11 7.1791e-12 4.22383e-13 2.63431e-14 1.36841e-15 -5.92883e-22 6.16409e-22 0 0 1.58528e-19 -1.58528e-19 -1.59287e-19 3.18574e-19 -3.18574e-19 3.18574e-19 0 0 -3.18574e-19 3.17815e-19 -3.17815e-19 3.18574e-19 -3.18574e-19 3.17815e-19 7.58509e-22 -3.18574e-19 3.18574e-19 -3.18574e-19 3.18574e-19 -7.58509e-22 7.58509e-22 -3.18574e-19 3.17815e-19 -6.3601e-19 6.3601e-19 0 0 -6.36389e-19 6.36389e-19 0 0 0 0 0 7.48873e-12 1.10414e-11 9.55228e-12 5.54879e-12 2.23479e-12 6.4693e-13 1.47643e-13 2.91615e-14 4.67676e-15 5.35068e-16 1.55669e-17 -3.18847e-19 3.18577e-19 -1.59287e-19 1.59287e-19 -3.18574e-19 3.18574e-19 -1.59287e-19 0 1.59287e-19 -3.18574e-19 3.17815e-19 7.58509e-22 -3.18574e-19 0 3.17815e-19 0 -3.17815e-19 3.18574e-19 -3.18574e-19 6.36389e-19 -6.36389e-19 0 3.18574e-19 0 -3.18574e-19 3.17815e-19 -3.17815e-19 3.18574e-19 -6.37148e-19 1.27278e-18 -1.27278e-18 6.36389e-19 0 0 0 0 -6.36389e-19 6.36389e-19 0 0 4.43795e-17 6.81858e-17 7.4551e-17 5.92475e-17 1.28027e-17 1.53978e-17 -4.5583e-22 7.96812e-20 -7.96408e-20 0 1.58528e-19 -3.17815e-19 3.18574e-19 -1.59287e-19 0 1.58528e-19 -1.58528e-19 0 0 1.59287e-19 -3.18574e-19 3.17815e-19 7.58509e-22 -3.18574e-19 0 3.17815e-19 0 7.58509e-22 -3.18574e-19 3.18574e-19 -3.18574e-19 0 6.36389e-19 -6.36389e-19 3.18574e-19 -6.37148e-19 9.54963e-19 -3.18574e-19 -3.17815e-19 3.17815e-19 0 -6.36389e-19 6.36389e-19 0 0 0 0 -6.36389e-19 6.36389e-19 0 0 0 -9.86062e-21 2.04797e-20 0 -3.98217e-20 7.96435e-20 -7.96435e-20 0 7.96435e-20 7.96435e-20 -3.18574e-19 3.18574e-19 -1.59287e-19 0 0 1.58528e-19 -3.17815e-19 1.59287e-19 1.59287e-19 0 0 -3.18574e-19 0 3.18574e-19 0 -3.18574e-19 3.17815e-19 7.58509e-22 -3.18574e-19 3.18574e-19 -3.18574e-19 3.18574e-19 -7.58509e-22 -3.17815e-19 0 3.17815e-19 -3.17815e-19 3.17815e-19 0 0 0 0 0 -6.36389e-19 6.36389e-19 0 -6.36389e-19 6.36389e-19 0 0 0 0 -1.9342e-20 3.98217e-20 -3.98217e-20 0 0 7.96435e-20 -7.96435e-20 3.79255e-22 0 -3.79255e-22 1.59287e-19 -3.18195e-19 3.18195e-19 -1.58908e-19 -3.79255e-22 0 1.59287e-19 -3.18195e-19 3.18195e-19 -3.18195e-19 3.18195e-19 -3.18574e-19 3.18574e-19 0 0 -6.36769e-19 6.36769e-19 0 -3.18195e-19 3.18195e-19 0 -3.18574e-19 3.79255e-22 3.17815e-19 0 0 -6.36389e-19 6.36389e-19 0 0 0 -6.36389e-19 6.36389e-19 0 0 -6.36389e-19 1.27278e-18 -1.27278e-18 0 0 0 -1.9342e-20 3.98217e-20 -3.98217e-20 0 7.96435e-20 -7.96435e-20 0 3.79255e-22 0 -3.79255e-22 1.59287e-19 -1.58908e-19 -3.79255e-22 3.79255e-22 -1.59666e-19 3.18574e-19 0 -3.18195e-19 -3.79255e-22 3.18195e-19 3.79255e-22 -3.18574e-19 3.18574e-19 0 -3.18574e-19 3.18195e-19 -3.18195e-19 3.18574e-19 -3.18195e-19 3.18195e-19 -3.18574e-19 0 3.18195e-19 0 0 0 0 -6.36389e-19 6.36389e-19 -6.36389e-19 6.36389e-19 0 0 0 -6.3601e-19 6.3601e-19 0 0 0 0 0 2.99611e-20 -5.9543e-20 1.19844e-19 -1.19465e-19 0 0 7.8885e-20 8.0402e-20 -1.59287e-19 0 -1.59287e-19 3.18574e-19 -3.18574e-19 3.18574e-19 -1.60045e-19 1.60045e-19 -3.18574e-19 6.36389e-19 -9.54963e-19 9.54963e-19 -6.36389e-19 3.17815e-19 -3.17815e-19 0 3.17815e-19 0 -3.17815e-19 0 6.36389e-19 -6.36389e-19 3.17815e-19 -3.17815e-19 3.17815e-19 0 0 -6.36389e-19 6.36389e-19 6.36389e-19 -1.27278e-18 0 6.36389e-19 6.36389e-19 -1.27278e-18 6.36389e-19 -6.3601e-19 1.2724e-18 -1.27278e-18 6.36389e-19 0 0 0 2.99611e-20 -5.9543e-20 1.19844e-19 -1.19465e-19 0 0 7.8885e-20 8.0402e-20 -3.18574e-19 3.18574e-19 -3.18574e-19 3.18574e-19 -3.18574e-19 3.18574e-19 1.58528e-19 -4.77102e-19 0 6.36389e-19 -6.36389e-19 0 0 6.36389e-19 -6.36389e-19 0 3.17815e-19 0 -3.17815e-19 0 6.36389e-19 -6.36389e-19 3.17815e-19 3.18574e-19 -9.54963e-19 6.36389e-19 0 -6.36389e-19 6.36389e-19 6.36389e-19 -1.27278e-18 6.36389e-19 0 -6.3601e-19 6.3601e-19 -6.36389e-19 1.27278e-18 -6.36389e-19 -6.36389e-19 6.36389e-19 0 0 0 -9.86062e-21 2.04797e-20 0 -3.98217e-20 7.96435e-20 -7.96435e-20 -7.96435e-20 2.3893e-19 -1.59287e-19 0 1.59287e-19 -1.59287e-19 0 0 0 -1.59287e-19 6.36389e-19 -6.36389e-19 3.18574e-19 -3.18574e-19 3.18574e-19 -3.18574e-19 3.18574e-19 0 -3.18574e-19 3.17815e-19 -3.17815e-19 3.18574e-19 -3.18574e-19 3.18574e-19 -3.18574e-19 3.17815e-19 0 -6.36389e-19 6.36389e-19 6.36389e-19 -6.36389e-19 -6.36389e-19 6.36389e-19 0 0 -6.3601e-19 6.3601e-19 0 0 -6.36389e-19 6.36389e-19 0 0 0 0 -9.86062e-21 2.04797e-20 0 -3.98217e-20 0 7.96435e-20 0 -7.96435e-20 0 0 1.59287e-19 -3.18574e-19 3.18574e-19 -1.59287e-19 0 1.59287e-19 -7.58509e-22 -3.17815e-19 3.18574e-19 -3.18574e-19 3.18574e-19 -3.18574e-19 3.18574e-19 0 0 -6.37148e-19 9.54963e-19 -6.36389e-19 3.17815e-19 -3.17815e-19 0 3.17815e-19 0 0 -6.36389e-19 1.27278e-18 -1.27278e-18 6.36389e-19 0 0 -6.36389e-19 6.36389e-19 0 0 0 -6.36389e-19 1.27278e-18 -1.27278e-18 0 0 0 -1.9342e-20 3.98217e-20 -3.98217e-20 0 7.96435e-20 -7.92642e-20 1.58908e-19 -3.18195e-19 1.58908e-19 3.79255e-22 1.58908e-19 -1.59287e-19 1.59287e-19 -3.18195e-19 3.18195e-19 0 -6.36769e-19 6.36769e-19 -3.18195e-19 3.17815e-19 3.79255e-22 -3.18195e-19 3.18195e-19 0 -3.18195e-19 3.17815e-19 0 0 -6.3601e-19 6.3601e-19 0 0 0 0 -6.36389e-19 0 6.36389e-19 0 0 -6.3601e-19 6.3601e-19 0 0 0 -6.3601e-19 6.3601e-19 0 0 0 0 0 2.04797e-20 -3.98217e-20 0 7.96435e-20 -7.96435e-20 3.79255e-22 -3.79255e-22 3.79255e-22 1.58908e-19 -1.58908e-19 -1.59666e-19 3.18574e-19 0 -3.18195e-19 -3.79255e-22 3.18574e-19 -3.18195e-19 3.18195e-19 -3.18195e-19 6.36389e-19 -6.36769e-19 3.18195e-19 -3.18195e-19 0 3.18195e-19 0 -3.17815e-19 6.36389e-19 -9.54584e-19 6.3601e-19 0 -6.36389e-19 1.27278e-18 -1.27278e-18 6.36389e-19 -6.36389e-19 1.27278e-18 -1.27278e-18 6.36389e-19 -6.3601e-19 6.3601e-19 6.36389e-19 -1.272