<?xml version="1.0"?>
<VTKFile type="PolyData">
	<PolyData>
		<Piece NumberOfPoints="2601" NumberOfPolys="2500">
			<Points>
				<DataArray type="Float32" NumberOfComponents="3" format="ascii">
 0 0 0 0.504131 0 0 0.319336 0 0 0.448631 0 0 0.444208 0 0 0.475841 0 0 0.497452 0 0 0.518566 0 0 0.53836 0 0 0.553744 0 0 0.570433 0 0 0.582827 0 0 0.5973 0 0 0.60869 0 0 0.621468 0 0 0.631107 0 0 0.642265 0 0 0.650494 0 0 0.660439 0 0 0.667819 0 0 0.676346 0 0 0.683334 0 0 0.690805 0 0 0.697417 0 0 0.704063 0 0 0.709875 0 0 0.71551 0 0 0.720975 0 0 0.726283 0 0 0.731207 0 0 0.735977 0 0 0.74046 0 0 0.744723 0 0 0.748882 0 0 0.752817 0 0 0.75665 0 0 0.760464 0 0 0.765 0 0 0.771634 0 0 0.782722 0 0 0.800107 0 0 0.82 0 0 0.84 0 0 0.86 0 0 0.88 0 0 0.9 0 0 0.92 0 0 0.94 0 0 0.96 0 0 0.98 0 0 1 0 0 0 0.504131 0 0.173581 0.173581 0 0.433581 0.209898 0 0.360747 0.187484 0 0.441441 0.111683 0 0.465632 0.100466 0 0.492773 0.0889379 0 0.514958 0.079109 0 0.533552 0.0736176 0 0.552073 0.0673824 0 0.566323 0.0622925 0 0.582478 0.0573136 0 0.594516 0.0533639 0 0.60833 0.0501166 0 0.619124 0.0476269 0 0.63108 0.0453964 0 0.639984 0.0430884 0 0.650681 0.0409668 0 0.658518 0.0388582 0 0.667837 0.0369998 0 0.674965 0.0353456 0 0.68307 0.0339273 0 0.689927 0.0326811 0 0.697099 0.031502 0 0.703394 0.0303497 0 0.70937 0.029209 0 0.71505 0.0281768 0 0.720537 0.0272381 0 0.72586 0.0263865 0 0.73082 0.0256066 0 0.735609 0.0248855 0 0.740121 0.0241979 0 0.744401 0.0235352 0 0.748578 0.0228991 0 0.752536 0.0222919 0 0.756378 0.021719 0 0.760212 0.0211846 0 0.764779 0.0207071 0 0.771469 0.0203199 0 0.782644 0.0200822 0 0.800101 0.020006 0 0.82 0.02 0 0.84 0.02 0 0.86 0.02 0 0.88 0.02 0 0.9 0.02 0 0.92 0.02 0 0.94 0.02 0 0.96 0.02 0 0.98 0.02 0 1 0.02 0 0 0.319336 0 0.209898 0.433581 0 0.20367 0.20367 0 0.397039 0.275805 0 0.393713 0.224092 0 0.440045 0.188722 0 0.472204 0.167771 0 0.498402 0.15684 0 0.521616 0.142385 0 0.540294 0.132369 0 0.559579 0.12176 0 0.574062 0.113358 0 0.590043 0.105633 0 0.602318 0.0997348 0 0.615736 0.0947058 0 0.625933 0.0900908 0 0.637571 0.0858008 0 0.646326 0.0813589 0 0.65672 0.0773411 0 0.664469 0.0735888 0 0.673321 0.0703607 0 0.680548 0.0675828 0 0.688412 0.065078 0 0.695202 0.0627376 0 0.70178 0.0604043 0 0.707801 0.058228 0 0.713776 0.0562136 0 0.719218 0.0543611 0 0.724624 0.052674 0 0.729665 0.051129 0 0.73452 0.049691 0 0.739111 0.0483167 0 0.743442 0.0469904 0 0.747673 0.0457214 0 0.751695 0.0445141 0 0.755566 0.0433765 0 0.759459 0.0423179 0 0.764123 0.0413735 0 0.770979 0.0406116 0 0.782418 0.0401526 0 0.800084 0.0400103 0 0.82 0.04 0 0.84 0.04 0 0.86 0.04 0 0.88 0.04 0 0.9 0.04 0 0.92 0.04 0 0.94 0.04 0 0.96 0.04 0 0.98 0.04 0 1 0.04 0 0 0.448631 0 0.187484 0.360747 0 0.275805 0.397039 0 0.232301 0.232301 0 0.347338 0.314264 0 0.408568 0.253074 0 0.444416 0.241491 0 0.476392 0.218053 0 0.502732 0.206224 0 0.526784 0.189518 0 0.545884 0.177531 0 0.565335 0.16516 0 0.5799 0.155896 0 0.595665 0.147294 0 0.607638 0.1403 0 0.620687 0.133662 0 0.630746 0.126969 0 0.642441 0.120812 0 0.651229 0.114722 0 0.661324 0.10938 0 0.669041 0.104681 0 0.677754 0.100631 0 0.685085 0.0970621 0 0.692473 0.0935791 0 0.69892 0.0902281 0 0.705505 0.0870197 0 0.711486 0.0840334 0 0.717156 0.0812744 0 0.722568 0.0787818 0 0.727793 0.0764907 0 0.732718 0.0743393 0 0.737451 0.072278 0 0.741869 0.0702904 0 0.746181 0.0683962 0 0.750303 0.0666043 0 0.754226 0.0649184 0 0.758218 0.063354 0 0.763046 0.0619618 0 0.770187 0.0608498 0 0.782071 0.0602015 0 0.800061 0.0600116 0 0.82 0.06 0 0.84 0.06 0 0.86 0.06 0 0.88 0.06 0 0.9 0.06 0 0.92 0.06 0 0.94 0.06 0 0.96 0.06 0 0.98 0.06 0 1 0.06 0 0 0.444208 0 0.111683 0.441441 0 0.224092 0.393713 0 0.314264 0.347338 0 0.297647 0.297647 0 0.367164 0.340477 0 0.419357 0.280057 0 0.453835 0.278904 0 0.4834 0.254907 0 0.508568 0.243462 0 0.532062 0.226533 0 0.550346 0.215019 0 0.569196 0.202662 0 0.583479 0.193436 0 0.59888 0.183891 0 0.610871 0.175156 0 0.624171 0.166771 0 0.63455 0.158472 0 0.646225 0.15102 0 0.655019 0.144173 0 0.664812 0.138274 0 0.672716 0.133187 0 0.681149 0.128422 0 0.688238 0.123941 0 0.695452 0.119553 0 0.702069 0.115422 0 0.708347 0.11148 0 0.714248 0.107902 0 0.719805 0.104627 0 0.725178 0.101613 0 0.730257 0.0987484 0 0.735148 0.0960061 0 0.739715 0.0933667 0 0.744122 0.0908668 0 0.748369 0.0885143 0 0.752373 0.0863021 0 0.756507 0.0842547 0 0.76157 0.0824402 0 0.769124 0.0810138 0 0.781646 0.0802229 0 0.800038 0.0800102 0 0.82 0.08 0 0.84 0.08 0 0.86 0.08 0 0.88 0.08 0 0.9 0.08 0 0.92 0.08 0 0.94 0.08 0 0.96 0.08 0 0.98 0.08 0 1 0.08 0 0 0.475841 0 0.100466 0.465632 0 0.188722 0.440045 0 0.253074 0.408568 0 0.340477 0.367164 0 0.353512 0.353512 0 0.395391 0.350426 0 0.429688 0.307506 0 0.462481 0.309139 0 0.489964 0.285063 0 0.513215 0.275201 0 0.535676 0.25856 0 0.553333 0.247914 0 0.57195 0.234973 0 0.586254 0.224794 0 0.601824 0.21403 0 0.614128 0.203917 0 0.627581 0.194545 0 0.637919 0.185688 0 0.649228 0.177958 0 0.657944 0.171123 0 0.667488 0.16489 0 0.675291 0.159162 0 0.683509 0.153541 0 0.690849 0.148285 0 0.697896 0.143164 0 0.70431 0.138449 0 0.710588 0.134111 0 0.716311 0.130122 0 0.72188 0.126388 0 0.727161 0.122833 0 0.732227 0.11942 0 0.737001 0.116162 0 0.741529 0.113087 0 0.745906 0.110206 0 0.750029 0.107493 0 0.75435 0.104987 0 0.759731 0.102782 0 0.76784 0.10109 0 0.781196 0.100215 0 0.80002 0.100007 0 0.82 0.1 0 0.84 0.1 0 0.86 0.1 0 0.88 0.1 0 0.9 0.1 0 0.92 0.1 0 0.94 0.1 0 0.96 0.1 0 0.98 0.1 0 1 0.1 0 0 0.497452 0 0.0889379 0.492773 0 0.167771 0.472204 0 0.241491 0.444416 0 0.280057 0.419357 0 0.350426 0.395391 0 0.378763 0.378763 0 0.413134 0.366812 0 0.440175 0.332234 0 0.469359 0.335543 0 0.495753 0.310315 0 0.517737 0.302451 0 0.539632 0.285226 0 0.556849 0.27493 0 0.575341 0.261096 0 0.589711 0.250243 0 0.605208 0.238929 0 0.617371 0.228617 0 0.630352 0.219247 0 0.640405 0.210657 0 0.651353 0.202819 0 0.65999 0.195702 0 0.669355 0.188783 0 0.677452 0.182412 0 0.685633 0.176134 0 0.692707 0.170289 0 0.699674 0.164817 0 0.706095 0.159819 0 0.712185 0.155125 0 0.717937 0.15071 0 0.723479 0.146486 0 0.72873 0.142451 0 0.733739 0.138624 0 0.738427 0.135021 0 0.742935 0.131642 0 0.747216 0.128454 0 0.751781 0.125516 0 0.757575 0.122964 0 0.766398 0.121073 0 0.78078 0.120183 0 0.800009 0.120004 0 0.82 0.12 0 0.84 0.12 0 0.86 0.12 0 0.88 0.12 0 0.9 0.12 0 0.92 0.12 0 0.94 0.12 0 0.96 0.12 0 0.98 0.12 0 1 0.12 0 0 0.518566 0 0.079109 0.514958 0 0.15684 0.498402 0 0.218053 0.476392 0 0.278904 0.453835 0 0.307506 0.429688 0 0.366812 0.413134 0 0.398235 0.398235 0 0.427394 0.384062 0 0.450873 0.354396 0 0.47619 0.358451 0 0.501599 0.331333 0 0.522338 0.325611 0 0.5437 0.307321 0 0.560438 0.297522 0 0.578606 0.283388 0 0.592686 0.272565 0 0.607735 0.261364 0 0.619592 0.251326 0 0.632203 0.241941 0 0.642102 0.233377 0 0.652862 0.225043 0 0.661802 0.217567 0 0.671203 0.210119 0 0.67913 0.203256 0 0.687035 0.19663 0 0.694164 0.190587 0 0.700999 0.184861 0 0.707411 0.179543 0 0.713463 0.174454 0 0.719253 0.169638 0 0.724722 0.165047 0 0.729941 0.160718 0 0.734842 0.156633 0 0.739487 0.152781 0 0.743968 0.149143 0 0.748845 0.145811 0 0.75517 0.14297 0 0.764888 0.140972 0 0.780445 0.140134 0 0.800003 0.140002 0 0.82 0.14 0 0.84 0.14 0 0.86 0.14 0 0.88 0.14 0 0.9 0.14 0 0.92 0.14 0 0.94 0.14 0 0.96 0.14 0 0.98 0.14 0 1 0.14 0 0 0.53836 0 0.0736176 0.533552 0 0.142385 0.521616 0 0.206224 0.502732 0 0.254907 0.4834 0 0.309139 0.462481 0 0.332234 0.440175 0 0.384062 0.427394 0 0.415183 0.415183 0 0.440694 0.399513 0 0.462771 0.374394 0 0.485125 0.376889 0 0.50826 0.34877 0 0.527955 0.345052 0 0.548431 0.325855 0 0.564438 0.316987 0 0.581936 0.302876 0 0.595551 0.292482 0 0.610053 0.28138 0 0.621554 0.27162 0 0.633851 0.261947 0 0.643851 0.253431 0 0.654656 0.244787 0 0.663471 0.237024 0 0.672514 0.229249 0 0.680495 0.222274 0 0.688188 0.215468 0 0.695296 0.209208 0 0.702148 0.203225 0 0.708499 0.197597 0 0.714566 0.192253 0 0.720242 0.187194 0 0.725658 0.182405 0 0.730795 0.177879 0 0.735609 0.173575 0 0.740332 0.169523 0 0.745599 0.165848 0 0.7526 0.1628 0 0.763427 0.160806 0 0.780216 0.160083 0 0.800001 0.160001 0 0.82 0.16 0 0.84 0.16 0 0.86 0.16 0 0.88 0.16 0 0.9 0.16 0 0.92 0.16 0 0.94 0.16 0 0.96 0.16 0 0.98 0.16 0 1 0.16 0 0 0.553744 0 0.0673824 0.552073 0 0.132369 0.540294 0 0.189518 0.526784 0 0.243462 0.508568 0 0.285063 0.489964 0 0.335543 0.469359 0 0.354396 0.450873 0 0.399513 0.440694 0 0.429962 0.429962 0 0.452894 0.413182 0 0.475088 0.391795 0 0.495754 0.391137 0 0.516024 0.364009 0 0.534913 0.361233 0 0.554051 0.341661 0 0.569138 0.333828 0 0.58568 0.319851 0 0.598663 0.310037 0 0.612519 0.298872 0 0.623832 0.289529 0 0.636037 0.279686 0 0.645845 0.271208 0 0.656195 0.262279 0 0.665013 0.254524 0 0.673899 0.246677 0 0.681663 0.239545 0 0.68936 0.232651 0 0.69637 0.226227 0 0.703171 0.220123 0 0.709416 0.214356 0 0.715359 0.208865 0 0.720948 0.203654 0 0.726331 0.198706 0 0.73135 0.193987 0 0.736369 0.189571 0 0.742112 0.185628 0 0.749957 0.182471 0 0.762145 0.180605 0 0.780087 0.180041 0 0.8 0.18 0 0.82 0.18 0 0.84 0.18 0 0.86 0.18 0 0.88 0.18 0 0.9 0.18 0 0.92 0.18 0 0.94 0.18 0 0.96 0.18 0 0.98 0.18 0 1 0.18 0 0 0.570433 0 0.0622925 0.566323 0 0.12176 0.559579 0 0.177531 0.545884 0 0.226533 0.532062 0 0.275201 0.513215 0 0.310315 0.495753 0 0.358451 0.47619 0 0.374394 0.462771 0 0.413182 0.452894 0 0.442916 0.442916 0 0.46396 0.425296 0 0.486256 0.407066 0 0.506267 0.402974 0 0.524053 0.377848 0 0.542196 0.375198 0 0.559925 0.355691 0 0.574201 0.348607 0 0.589747 0.334687 0 0.602272 0.325504 0 0.615688 0.314337 0 0.626632 0.305351 0 0.638274 0.295286 0 0.647911 0.286991 0 0.658067 0.278093 0 0.666607 0.270317 0 0.675256 0.262498 0 0.682949 0.255405 0 0.690369 0.248501 0 0.697388 0.242106 0 0.703898 0.235911 0 0.710084 0.230049 0 0.715891 0.22442 0 0.721493 0.21909 0 0.726755 0.214003 0 0.732134 0.209296 0 0.738467 0.205172 0 0.747347 0.202025 0 0.761159 0.200401 0 0.780027 0.200016 0 0.8 0.2 0 0.82 0.2 0 0.84 0.2 0 0.86 0.2 0 0.88 0.2 0 0
[...]
			<PointData Scalars="VitesseX">
				<DataArray Name="VitesseX" type="Float32" format="ascii">
 0 1.63716 0.341716 1.01233 0.888738 0.982617 0.99009 1.03967 1.07865 1.14204 1.16729 1.21027 1.25324 1.25631 1.29098 1.33191 1.3257 1.33856 1.37927 1.41978 1.45798 1.4577 1.4818 1.47387 1.53246 1.6032 1.55888 1.59897 1.61102 1.63887 1.66971 1.67232 1.69236 1.70835 1.70135 1.72799 1.69435 1.55349 1.20735 0.571517 0.0441987 7.0791e-05 1.07746e-09 3.22664e-14 -1.87245e-14 -3.61636e-12 3.59761e-12 -3.59761e-12 3.61636e-12 1.88407e-14 0 0 0.112999 1.23923 0.524894 0.922512 0.91762 1.00044 1.02292 1.09483 1.12837 1.15413 1.22367 1.2314 1.25461 1.2916 1.32155 1.32701 1.34146 1.37206 1.43296 1.44797 1.46289 1.46475 1.48659 1.5438 1.58342 1.56457 1.5979 1.61357 1.63413 1.66913 1.6712 1.69073 1.70757 1.70135 1.72792 1.693 1.55008 1.20038 0.560735 0.0418854 6.36649e-05 9.83496e-10 3.12664e-14 -1.40492e-14 -3.61637e-12 3.60703e-12 -3.60703e-12 3.61639e-12 1.41431e-14 0 0 0.765083 0.174858 1.11645 0.692167 0.871628 0.919354 0.994183 1.0436 1.10017 1.13041 1.18112 1.21756 1.23179 1.27705 1.3182 1.31643 1.33245 1.37846 1.4206 1.45673 1.43944 1.46328 1.50197 1.55281 1.54046 1.58325 1.59312 1.62104 1.62207 1.66609 1.66898 1.68614 1.70536 1.70176 1.7272 1.68861 1.53959 1.17926 0.528514 0.0355375 4.61913e-05 7.46979e-10 -1.78889e-12 -9.19904e-15 1.33953e-14 -3.65024e-14 3.65103e-14 -1.33857e-14 9.22897e-15 0 0 0.633986 0.785909 0.185121 0.627403 0.783025 0.886544 0.932531 1.0158 1.05113 1.11087 1.16764 1.17967 1.22387 1.26383 1.2957 1.30617 1.32658 1.36772 1.42698 1.43418 1.43661 1.46114 1.52324 1.52464 1.52533 1.59182 1.59066 1.62439 1.61418 1.65455 1.66861 1.67924 1.70191 1.70328 1.72455 1.68028 1.52121 1.14336 0.475547 0.026748 2.68371e-05 4.68299e-10 3.02796e-15 2.3373e-16 -5.30487e-12 5.28628e-12 -5.28624e-12 5.30012e-12 9.2548e-15 0 0 0.253657 0.496171 0.733359 0.582633 0.739179 0.825909 0.935763 0.96894 1.03462 1.079 1.13052 1.1614 1.19626 1.24844 1.27727 1.29036 1.32028 1.36986 1.40624 1.42899 1.42429 1.47733 1.49907 1.50525 1.53845 1.57976 1.58875 1.61975 1.61483 1.63584 1.66767 1.67269 1.69672 1.70611 1.71889 1.66693 1.49337 1.0914 0.403991 0.0175907 1.23429e-05 2.40015e-10 1.80845e-12 -4.39294e-15 -5.309e-12 5.29988e-12 -7.1081e-12 7.1172e-12 9.32412e-15 0 0 0.22619 0.390595 0.462437 0.784126 0.854676 0.832964 0.861109 0.971083 1.00129 1.05613 1.08223 1.12853 1.18117 1.21428 1.25159 1.27565 1.30986 1.35394 1.39236 1.40639 1.4421 1.45838 1.46665 1.49657 1.55869 1.55321 1.58959 1.60652 1.61733 1.62064 1.65993 1.66907 1.68922 1.70909 1.71057 1.64753 1.45354 1.02095 0.318778 0.0099005 4.43289e-06 1.01913e-10 -1.82895e-12 1.36456e-14 1.81739e-12 -1.8312e-12 1.82181e-12 -1.80425e-12 5.56235e-15 0 0 0.192803 0.326302 0.468465 0.49602 0.686483 0.862775 0.885094 0.906825 0.985076 1.01787 1.06465 1.09807 1.15238 1.19623 1.22087 1.26088 1.29481 1.33514 1.36363 1.40668 1.4246 1.43339 1.43987 1.50892 1.54111 1.54305 1.57977 1.593 1.61284 1.61625 1.64544 1.66744 1.68026 1.70955 1.70073 1.62142 1.39882 0.927881 0.228543 0.0046483 1.23132e-06 2.29457e-11 1.0547e-11 -1.39801e-14 -1.77202e-12 -4.95731e-14 1.84886e-12 -1.81766e-12 1.89971e-14 0 0 0.159463 0.316394 0.408317 0.538761 0.560448 0.715814 0.87433 0.90895 0.933879 0.983898 1.02905 1.08646 1.11638 1.1597 1.20445 1.23389 1.27492 1.3128 1.35434 1.38633 1.39821 1.39629 1.45822 1.49471 1.51683 1.54199 1.55836 1.58308 1.6007 1.61841 1.63242 1.66351 1.67244 1.70571 1.68812 1.58817 1.3272 0.806917 0.144797 0.00176699 2.67695e-07 9.00103e-12 1.05463e-11 -9.46775e-15 -1.23226e-11 1.22955e-11 -1.22951e-11 1.22951e-11 8.64115e-14 0 0 0.162115 0.273256 0.415935 0.47458 0.615295 0.638556 0.751505 0.894937 0.93508 0.966873 1.00183 1.04564 1.10065 1.1287 1.17143 1.22368 1.25113 1.30116 1.34084 1.35787 1.35798 1.40961 1.45478 1.47304 1.50159 1.54073 1.53561 1.5773 1.58203 1.62285 1.62507 1.65621 1.6674 1.69701 1.6687 1.54582 1.23813 0.655523 0.0784393 0.000525461 4.86591e-08 2.03062e-12 -1.83078e-12 1.23772e-11 -1.05828e-11 1.23499e-11 -2.46678e-11 2.46679e-11 -1.22867e-11 0 0 0.14492 0.263788 0.366741 0.484827 0.546672 0.695789 0.698584 0.796621 0.908079 0.954254 1.00892 1.02491 1.06092 1.12186 1.15546 1.19866 1.24744 1.28326 1.3145 1.32115 1.36057 1.41199 1.4384 1.44752 1.5067 1.51561 1.53875 1.55897 1.57195 1.61955 1.62458 1.64622 1.66469 1.68401 1.63993 1.48834 1.12928 0.481085 0.0350058 0.000117355 8.25567e-09 3.74495e-13 3.22858e-14 -5.00686e-15 1.23532e-11 -1.23804e-11 3.224e-14 9.81064e-18 -1.31031e-16 0 0 0.132281 0.241688 0.350751 0.451341 0.555634 0.608371 0.762796 0.761936 0.838371 0.93173 0.969797 1.04755 1.05831 1.08192 1.15442 1.1852 1.22641 1.27482 1.2833 1.31493 1.37135 1.39896 1.40548 1.4596 1.483 1.50254 1.54354 1.53881 1.57332 1.60554 1.6285 1.63519 1.66073 1.66726 1.60185 1.40802 0.99075 0.305854 0.0123649 1.87536e-05 1.32936e-09 1.23641e-11 -1.22909e-11 3.19894e-14 -1.76477e-15 4.02666e-16 1.22604e-11 -2.46454e-11 2.47096e-11 0 0 0.124346 0.225432 0.338056 0.430022 0.524502 0.613327 0.662748 0.819925 0.813368 0.875784 0.963695 1.01561 1.07731 1.10259 1.11685 1.17937 1.22278 1.23963 1.27975 1.32988 1.36219 1.36539 1.41062 1.45144 1.46284 1.49832 1.5354 1.52851 1.57559 1.58985 1.62871 1.6271 1.65409 1.64303 1.55292 1.3024 0.807341 0.160525 0.00330862 2.05739e-06 1.72336e-10 1.23353e-11 -1.23772e-11 8.66217e-14 -1.94988e-15 -5.26448e-16 1.2261e-11 -1.23768e-11 8.61951e-14 0 0 0.113125 0.207934 0.317081 0.411114 0.505308 0.589788 0.677704 0.712558 0.848076 0.855295 0.926121 1.00882 1.02636 1.11183 1.11517 1.15441 1.20364 1.22425 1.2824 1.33141 1.32942 1.35709 1.41188 1.43543 1.44875 1.50386 1.50535 1.53928 1.56019 1.5875 1.61565 1.62639 1.64299 1.60785 1.48247 1.17169 0.578994 0.0660778 0.000635295 1.61975e-07 4.55019e-12 -2.10012e-11 3.33037e-11 -1.23003e-11 1.23212e-11 -1.23221e-11 -2.10032e-11 3.32724e-11 -2.46465e-11 0 0 0.101552 0.202347 0.296517 0.411306 0.483923 0.580952 0.641473 0.730523 0.75454 0.872884 0.901179 0.946985 1.04031 1.06011 1.12903 1.16219 1.17039 1.23542 1.28806 1.29151 1.3119 1.36894 1.40102 1.41247 1.464 1.47574 1.50277 1.53609 1.54531 1.5857 1.59886 1.6239 1.624 1.56327 1.38128 1.00143 0.34255 0.0202668 8.13034e-05 1.18728e-08 1.37304e-11 -3.33033e-11 3.32716e-11 8.63833e-14 -1.24186e-11 1.85691e-14 -2.093e-11 -2.97111e-14 2.101e-11 0 0 0.101138 0.192136 0.299368 0.389353 0.486179 0.540696 0.638511 0.677528 0.776893 0.793555 0.90763 0.9412 0.975978 1.0433 1.10116 1.12752 1.16156 1.21828 1.25838 1.27254 1.31956 1.36601 1.38271 1.42155 1.44982 1.46364 1.5046 1.52181 1.54002 1.57455 1.58769 1.61821 1.5943 1.50243 1.25317 0.767487 0.156433 0.00438538 6.3829e-06 9.40071e-10 1.25289e-11 -1.12129e-17 -1.23862e-11 8.43998e-14 9.83127e-16 -1.31378e-13 -2.08432e-11 -2.69534e-15 3.33064e-11 0 0 0.095522 0.1933 0.280981 0.385868 0.452327 0.537974 0.590741 0.688913 0.714766 0.820619 0.836134 0.920545 0.975178 1.00303 1.08096 1.08913 1.16049 1.20659 1.23163 1.26808 1.31959 1.34099 1.37785 1.42519 1.42876 1.46141 1.50216 1.49935 1.54808 1.54773 1.58624 1.59802 1.55478 1.40707 1.09134 0.485245 0.0517855 0.000621471 3.0497e-07 7.10707e-11 -3.32309e-11 3.33029e-11 -1.23857e-11 8.44297e-14 -2.10018e-11 3.32173e-11 -3.32722e-11 3.33863e-11 -8.14639e-14 0 0 0.0909134 0.182899 0.268307 0.360916 0.440895 0.503965 0.590605 0.641136 0.738617 0.749538 0.856941 0.869284 0.953538 0.99471 0.997121 1.0925 1.13427 1.15055 1.20164 1.24394 1.29608 1.32963 1.38014 1.3999 1.42042 1.46537 1.46665 1.50818 1.52556 1.54012 1.57658 1.56551 1.49357 1.27895 0.857484 0.232059 0.0117127 5.16685e-05 1.2479e-08 2.72937e-11 -3.3244e-11 -2.8302e-14 3.33e-11 -8.17567e-14 -3.3187e-11 3.31326e-11 1.68542e-13 -3.33858e-11 3.33883e-11 0 0 0.087108 0.172791 0.257415 0.343053 0.425322 0.491066 0.562285 0.640269 0.688765 0.778461 0.785431 0.886502 0.891366 0.955115 1.04694 1.04225 1.10207 1.15677 1.20314 1.23134 1.26177 1.32194 1.35401 1.37432 1.41849 1.43302 1.45968 1.49464 1.50481 1.53668 1.55357 1.51985 1.39097 1.11177 0.547655 0.0777213 0.00167601 2.28047e-06 6.20452e-10 1.2363e-11 5.90904e-14 -3.32991e-11 8.11724e-14 3.32187e-11 1.66323e-15 -2.84727e-15 -3.32176e-11 6.2929e-15 -4.47401e-15 0 0 0.0831888 0.168645 0.246576 0.335419 0.407533 0.481227 0.544718 0.624148 0.688687 0.72895 0.803348 0.800141 0.919477 0.93177 0.996265 1.04883 1.08378 1.14762 1.1691 1.22466 1.25868 1.29743 1.32475 1.37523 1.39873 1.41027 1.45568 1.47171 1.49168 1.53176 1.51292 1.44953 1.25005 0.857796 0.254725 0.0169502 0.000134877 6.0281e-08 5.44292e-11 -3.33292e-11 -5.37936e-14 3.33034e-11 -3.31362e-11 2.0249e-16 3.32182e-11 -3.32192e-11 5.36658e-15 3.5818e-16 -3.96515e-15 0 0 0.0826058 0.162039 0.243513 0.319044 0.398377 0.460798 0.540691 0.603891 0.668507 0.71129 0.753076 0.843667 0.852327 0.938681 0.962699 0.995643 1.10549 1.10636 1.15708 1.20002 1.25172 1.26176 1.31374 1.35381 1.36458 1.40841 1.43235 1.445 1.49718 1.49176 1.46958 1.32818 1.06439 0.515327 0.0784698 0.00221986 5.21524e-06 1.89911e-09 -3.26254e-11 -8.59298e-14 8.68766e-14 3.3131e-11 -3.3049e-11 -3.47807e-16 3.31315e-11 -3.31312e-11 3.832e-15 -5.48076e-15 3.33073e-11 0 0 0.0796809 0.157537 0.230919 0.307551 0.380666 0.457191 0.52273 0.586432 0.63085 0.697647 0.757321 0.803181 0.859719 0.857426 0.96384 0.990855 1.03845 1.11146 1.12546 1.18836 1.23314 1.25711 1.30367 1.31038 1.35118 1.38838 1.40232 1.45053 1.468 1.46258 1.37081 1.17949 0.765694 0.211505 0.014913 0.000147165 1.02484e-07 8.48549e-11 -3.32836e-11 3.33034e-11 -3.32172e-11 3.31316e-11 -3.30496e-11 3.31318e-11 -3.99473e-16 -3.3131e-11 -8.32865e-14 3.33868e-11 -8.11501e-14 0 0 0.0763003 0.148573 0.220015 0.296054 0.375856 0.44329 0.501906 0.55534 0.62394 0.68802 0.74334 0.773255 0.808405 0.889116 0.90602 0.993996 1.02487 1.07947 1.11881 1.13927 1.20226 1.27422 1.26733 1.30205 1.34047 1.35446 1.39912 1.437 1.435 1.39 1.24001 0.946681 0.395752 0.0546554 0.0014988 4.31406e-06 2.13378e-09 9.90852e-13 3.33005e-11 -3.32996e-11 -3.90305e-16 3.32181e-11 -3.31356e-11 3.31324e-11 -3.31319e-11 -8.32243e-14 3.33048e-11 -3.33041e-11 3.33883e-11 0 0 0.0710993 0.143647 0.217522 0.294744 0.366983 0.422655 0.479724 0.549633 0.619589 0.670059 0.706998 0.756042 0.812118 0.855759 0.915121 0.934149 1.02463 1.0702 1.08903 1.12267 1.17237 1.2071 1.26249 1.29415 1.30862 1.34037 1.39139 1.39698 1.38875 1.26397 1.05836 0.579866 0.132442 0.0075015 7.26542e-05 5.47859e-08 1.01783e-11 2.31535e-14 3.33e-11 -3.33857e-11 3.33894e-11 -3.33037e-11 6.51711e-16 3.33007e-11 -3.33867e-11 3.33897e-11 -3.3305e-11 8.80123e-14 -4.22636e-15 0 0 0.068922 0.145512 0.21814 0.285886 0.347425 0.408765 0.476454 0.547268 0.596909 0.644996 0.694237 0.7519 0.795444 0.83721 0.879385 0.958022 0.969425 1.03934 1.08824 1.12491 1.14043 1.17183 1.23665 1.26131 1.28842 1.33099 1.34763 1.35852 1.26176 1.11889 0.721 0.241081 0.022933 0.000558368 1.10101e-06 9.27912e-10 6.47438e-13 3.31359e-11 -3.33034e-11 3.33862e-11 -3.33005e-11 8.21748e-14 3.31356e-11 -3.33031e-11 3.33857e-11 -3.33002e-11 8.53667e-14 8.07946e-16 -3.56807e-15 0 0 0.0729807 0.143739 0.208886 0.26997 0.338802 0.407186 0.471706 0.523066 0.579825 0.63264 0.689389 0.725782 0.774809 0.822096 0.88146 0.91111 0.968061 1.0065 1.06716 1.08971 1.12679 1.17886 1.19103 1.24475 1.28174 1.29422 1.30312 1.23958 1.12871 0.807657 0.355833 0.0493442 0.00243069 1.1375e-05 1.24984e-08 -2.25235e-11 8.97148e-14 3.30489e-11 -3.30475e-11 3.32164e-11 -3.33004e-11 8.28543e-14 3.30487e-11 -3.30474e-11 3.32158e-11 -3.32995e-11 8.60873e-14 -1.7315e-13 3.34749e-11 0 0 0.0692525 0.13223 0.197663 0.26759 0.335976 0.398492 0.452999 0.513614 0.570165 0.622613 0.657353 0.712581 0.760891 0.815993 0.841537 0.901543 0.940023 1.00093 1.01754 1.0675 1.12038 1.13973 1.18345 1.23247 1.25408 1.26272 1.20639 1.10186 0.850405 0.441153 0.0825022 0.00675861 6.14993e-05 1.3545e-07 1.25764e-10 2.27404e-13 -6.6608e-11 6.65219e-11 1.69098e-13 -1.69301e-13 8.63374e-14 -6.6608e-11 6.65218e-11 1.69346e-13 -1.69531e-13 8.66568e-14 -6.66086e-11 6.65225e-11 -3.32189e-11 0 0 0.0637112 0.12853 0.196978 0.262567 0.322215 0.38084 0.444339 0.502405 0.55405 0.597287 0.653195 0.699682 0.749652 0.779812 0.842494 0.878511 0.930896 0.952071 1.0197 1.05028 1.07316 1.13081 1.17115 1.19206 1.22412 1.16916 1.08121 0.857435 0.483283 0.113531 0.012745 0.000206485 9.90353e-07 8.4826e-10 1.37477e-12 -3.33036e-11 8.7533e-14 -8.73475e-14 3.33043e-11 5.20045e-16 -3.3305e-11 8.75755e-14 -8.69406e-14 3.33044e-11 8.13048e-14 -3.3386e-11 -3.97804e-16 -1.16702e-15 8.61612e-16 0 0 0.0633818 0.126334 0.189352 0.252765 0.314962 0.375297 0.43017 0.484316 0.537953 0.593728 0.636778 0.682068 0.723768 0.784904 0.817156 0.866274 0.891603 0.967043 0.979414 1.02564 1.07239 1.1063 1.14841 1.1582 1.11017 1.04941 0.834167 0.501789 0.131701 0.0181748 0.000463855 3.76281e-06 3.42942e-09 9.76847e-12 8.25915e-15 8.69727e-14 -4.45236e-16 -2.13549e-16 -8.63977e-14 2.5059e-16 8.67241e-14 -3.0181e-16 -3.48012e-15 3.30492e-11 -3.30503e-11 -1.69131e-13 3.32173e-11 -6.64363e-11 3.32977e-11 0 0 0.0622758 0.124625 0.18672 0.247869 0.307495 0.363798 0.419984 0.475197 0.526651 0.569762 0.617421 0.666361 0.720596 0.754926 0.802381 0.839386 0.903504 0.915137 0.978934 1.00263 1.0602 1.08357 1.08991 1.06531 0.987148 0.78607 0.487696 0.133812 0.0218725 0.000695136 8.24365e-06 1.0038e-08 7.2914e-11 -3.33469e-11 8.56657e-14 8.68685e-14 -4.44831e-16 -2.13818e-16 -1.72698e-13 8.68421e-14 8.62813e-14 -4.12524e-15 1.33745e-16 3.30494e-11 -6.64364e-11 6.64343e-11 -3.33045e-11 -3.31311e-11 3.32969e-11 0 0 0.0607903 0.12087 0.180539 0.2406 0.299386 0.355623 0.408283 0.45899 0.509375 0.562812 0.611355 0.655894 0.694075 0.74436 0.787264 0.835336 0.857621 0.922954 0.944584 1.01069 1.00207 1.03467 0.988421 0.915922 0.728616 0.436394 0.122896 0.0216849 0.000771171 1.25437e-05 1.81071e-08 1.24771e-10 -3.31851e-11 3.33033e-11 8.60982e-14 -3.33044e-11 8.6966e-14 -8.70482e-14 3.32185e-11 -3.33512e-11 2.12854e-13 3.28301e-11 -3.28312e-11 -8.04284e-14 5.6739e-16 -8.84231e-14 -3.32169e-11 3.32174e-11 8.7451e-14 0 0 0.0595004 0.118849 0.177766 0.235082 0.290777 0.345097 0.398575 0.451897 0.504658 0.552484 0.597541 0.641355 0.688389 0.728249 0.768757 0.804573 0.861609 0.891865 0.941259 0.936622 0.969078 0.890526 0.843006 0.625905 0.366857 0.100992 0.0176342 0.000686141 1.25374e-05 2.11926e-08 1.10057e-10 3.32595e-11 -3.30474e-11 3.31344e-11 -3.32172e-11 3.32173e-11 -3.31382e-11 3.3138e-11 -3.32178e-11 -5.41655e-14 -8.40161e-11 1.16973e-10 -3.28251e-11 -7.97883e-14 1.19256e-16 -3.33066e-11 3.322e-11 3.31313e-11 -6.63495e-11 0 0 0.0579245 0.11558 0.172927 0.229954 0.285285 0.337897 0.388365 0.438962 0.489839 0.541081 0.588429 0.630784 0.668946 0.711798 0.754176 0.802437 0.831325 0.86871 0.87185 0.878891 0.803847 0.742961 0.497756 0.28143 0.0691365 0.0121551 0.000454537 8.22727e-06 1.80702e-08 1.0999e-10 1.61454e-13 3.32187e-11 -3.31352e-11 3.31352e-11 -3.3217e-11 3.32169e-11 -3.31378e-11 3.31378e-11 -3.33047e-11 1.17171e-13 -8.4268e-11 8.41791e-11 5.65818e-14 -8.49561e-17 -3.33043e-11 3.33036e-11 -8.65002e-14 -8.54373e-14 1.72935e-13 0 0 0.0565376 0.112742 0.168304 0.222791 0.276345 0.32916 0.380901 0.431146 0.479736 0.525575 0.569743 0.613558 0.657235 0.699714 0.737298 0.765749 0.793713 0.792311 0.778454 0.709451 0.606333 0.37023 0.184498 0.0397994 0.00643553 0.00020079 3.74955e-06 9.93402e-09 1.24748e-10 -3.31739e-11 3.33886e-11 -3.33036e-11 1.01783e-15 3.33038e-11 -8.65495e-14 -3.32172e-11 -8.0303e-16 -3.19557e-16 3.32173e-11 -6.65705e-11 6.63968e-11 -6.6482e-11 3.3428e-11 -7.7725e-14 1.47359e-15 8.39569e-14 -8.53509e-14 -3.32174e-11 3.32963e-11 0 0 0.0550413 0.109805 0.16404 0.217394 0.269428 0.320251 0.370236 0.419879 0.468385 0.514492 0.558513 0.600442 0.636521 0.66925 0.693941 0.707593 0.69725 0.668157 0.585563 0.445405 0.243599 0.0995235 0.0188461 0.00232296 5.97632e-05 9.85156e-07 3.36999e-09 7.25927e-11 -3.31859e-11 3.33865e-11 -3.33003e-11 -7.59105e-16 3.3304e-11 -3.33036e-11 3.3218e-11 -6.65219e-11 6.64346e-11 -3.31321e-11 -1.43589e-15 8.6209e-14 -2.59291e-13 -3.31296e-11 3.32076e-11 9.81987e-15 -2.21958e-16 8.4888e-14 -8.50567e-14 -3.32186e-11 3.32975e-11 0 0 0.0531909 0.106259 0.159123 0.211632 0.263602 0.314706 0.364652 0.412389 0.457268 0.49836 0.535671 0.568529 0.595344 0.61001 0.608232 0.586453 0.534544 0.425783 0.279669 0.13157 0.0418193 0.0064622 0.000537 1.11281e-05 1.34086e-07 7.64744e-10 9.87293e-12 3.30878e-11 -3.31299e-11 3.32993e-11 -3.33001e-11 3.33039e-11 -3.33052e-11 8.73456e-14 -8.77473e-14 8.55021e-14 -2.59999e-13 1.73619e-13 -3.13973e-17 8.25187e-14 -1.69404e-13 -8.56797e-14 8.51389e-14 -3.32173e-11 3.33048e-11 -1.01342e-14 -3.32938e-11 3.31301e-11 1.74536e-13 0 0 0.052301 0.104395 0.155956 0.206605 0.256066 0.304085 0.350008 0.392183 0.429837 0.462797 0.489384 0.505735 0.508434 0.494138 0.450421 0.367065 0.253218 0.139338 0.0523589 0.0120588 0.00135655 7.05376e-05 1.0781e-06 1.22702e-08 1.23483e-10 1.35822e-12 -6.65995e-11 6.65223e-11 8.62653e-14 -3.3389e-11 3.33892e-11 -8.62549e-14 -3.32178e-11 8.50952e-14 -4.07351e-17 -2.57122e-15 -8.53696e-14 -3.33053e-11 3.33061e-11 -8.85791e-14 1.92705e-15 -8.64412e-14 -3.31324e-11 3.33053e-11 -2.17876e-13 2.07488e-13 -3.34266e-11 6.64823e-11 -6.63497e-11 0 0 0.049736 0.0989906 0.147272 0.194136 0.239109 0.281365 0.31951 0.351597 0.375808 0.391157 0.396204 0.384856 0.347221 0.280251 0.196872 0.113448 0.0476803 0.0126679 0.00192783 0.000138643 4.21006e-06 5.29691e-08 9.07906e-10 4.36469e-11 2.25234e-13 -3.33044e-11 8.71519e-14 -8.71316e-14 3.33048e-11 -3.33893e-11 3.33893e-11 -3.339e-11 8.58059e-14 8.31031e-14 1.58457e-15 -8.75947e-14 -8.6548e-15 -7.88963e-14 -3.32178e-11 3.32188e-11 -3.32185e-11 3.31329e-11 4.86886e-18 1.72634e-13 -2.19136e-13 -8.39304e-11 8.40153e-11 4.74621e-14 8.76686e-14 0 0 0.0441628 0.087502 0.129163 0.168207 0.20349 0.233627 0.256998 0.271421 0.273397 0.25869 0.225739 0.179141 0.125984 0.072799 0.0306172 0.00848023 0.00140888 0.000124556 5.01714e-06 9.8334e-08 2.11643e-09 9.10725e-12 6.34176e-13 -7.43778e-14 -3.19804e-16 8.56708e-14 -2.39904e-16 1.56509e-16 -8.62831e-14 3.32983e-11 -3.32983e-11 5.96083e-16 -1.74144e-13 2.55908e-13 -8.46646e-14 -9.65427e-15 -3.33032e-11 3.32146e-11 1.07799e-14 -3.32185e-11 8.86731e-16 3.30845e-11 3.3351e-11 -6.64828e-11 3.33043e-11 -8.41879e-11 1.17149e-10 -6.62172e-11 3.32958e-11 0 0 0.0328926 0.0644615 0.0932787 0.117649 0.13548 0.144498 0.143173 0.131869 0.112791 0.0880677 0.0594475 0.0317306 0.012257 0.00319567 0.00052033 4.71958e-05 2.16437e-06 5.66901e-08 1.79888e-09 1.65212e-11 9.4591e-13 2.27751e-14 3.33006e-11 -3.33856e-11 8.61678e-14 8.54852e-14 -8.98663e-16 8.15404e-16 -8.63655e-14 3.32984e-11 -3.32982e-11 -6.49568e-16 3.31307e-11 -6.64378e-11 3.33048e-11 -9.60014e-14 -3.32179e-11 3.32155e-11 1.10825e-14 -3.32177e-11 3.31335e-11 3.76807e-14 -8.4017e-11 8.41031e-11 -3.33044e-11 6.64842e-11 -3.35217e-11 -3.2914e-11 3.32958e-11 0 0 0.0142226 0.0270447 0.0372263 0.0437971 0.0460657 0.0436076 0.0365041 0.0260302 0.0150286 0.00665895 0.00215441 0.000481951 6.90154e-05 5.79639e-06 2.81216e-07 1.13507e-08 5.3757e-10 5.3295e-11 -3.2836e-11 3.33226e-11 -3.31354e-11 3.31359e-11 -3.33032e-11 3.3387e-11 3.26343e-15 -3.33056e-11 8.65773e-14 -1.72961e-13 3.33918e-11 -3.33911e-11 3.33042e-11 -3.32192e-11 -1.27103e-15 1.2885e-15 -3.33071e-11 3.32183e-11 -1.01127e-14 8.97396e-15 -3.32172e-11 3.33065e-11 -1.73194e-13 3.88232e-14 -8.40166e-11 8.39313e-11 3.03919e-13 -1.79572e-13 -3.3208e-11 3.31293e-11 1.74822e-13 0 0 0.00217832 0.0038142 0.00452477 0.0042252 0.00318661 0.00192217 0.000905076 0.00032224 8.34241e-05 1.49281e-05 1.7553e-06 1.40021e-07 1.00827e-08 8.52399e-10 4.15135e-11 2.34279e-12 1.24161e-11 -3.32668e-11 -8.55914e-14 3.33033e-11 -3.3135e-11 3.3049e-11 -3.30477e-11 3.32176e-11 3.55694e-15 -8.24929e-16 -6.66092e-11 6.65231e-11 -3.33511e-11 2.12414e-13 -2.14866e-13 1.34166e-13 8.33748e-14 -8.56431e-14 -8.51541e-14 -3.32201e-11 3.32195e-11 -3.32195e-11 3.33072e-11 -2.18554e-13 2.17204e-13 -3.33993e-11 3.33991e-11 -1.32369e-13 1.20262e-16 1.23905e-13 -3.34276e-11 6.64823e-11 -6.63494e-11 0 0 7.10983e-06 1.03273