<?xml version="1.0"?>
<VTKFile type="PolyData">
	<PolyData>
		<Piece NumberOfPoints="2601" NumberOfPolys="2500">
			<Points>
				<DataArray type="Float32" NumberOfComponents="3" format="ascii">
 0 0 0 0.486447 0 0 0.315563 0 0 0.437522 0 0 0.434494 0 0 0.465206 0 0 0.486755 0 0 0.507218 0 0 0.526567 0 0 0.541466 0 0 0.557642 0 0 0.569719 0 0 0.583865 0 0 0.595002 0 0 0.607398 0 0 0.616838 0 0 0.627938 0 0 0.63584 0 0 0.645236 0 0 0.652354 0 0 0.66065 0 0 0.667549 0 0 0.674829 0 0 0.681067 0 0 0.687066 0 0 0.692915 0 0 0.698444 0 0 0.703695 0 0 0.708615 0 0 0.713383 0 0 0.717943 0 0 0.72227 0 0 0.726457 0 0 0.730461 0 0 0.734244 0 0 0.738088 0 0 0.742813 0 0 0.749938 0 0 0.761938 0 0 0.78005 0 0 0.8 0 0 0.82 0 0 0.84 0 0 0.86 0 0 0.88 0 0 0.9 0 0 0.92 0 0 0.94 0 0 0.96 0 0 0.98 0 0 1 0 0 0 0.486447 0 0.172258 0.172258 0 0.420293 0.201871 0 0.354961 0.180677 0 0.43142 0.108989 0 0.455677 0.098039 0 0.48198 0.0868755 0 0.503795 0.0773863 0 0.521641 0.0718827 0 0.539916 0.0658406 0 0.553706 0.0608695 0 0.569241 0.0559929 0 0.581271 0.0521564 0 0.594674 0.0490163 0 0.605024 0.046525 0 0.616908 0.0443619 0 0.62566 0.042101 0 0.635967 0.0400051 0 0.643405 0.0379347 0 0.652232 0.0360946 0 0.659407 0.0344897 0 0.667251 0.0331139 0 0.674016 0.0318977 0 0.680602 0.0307056 0 0.686491 0.0295635 0 0.692474 0.0284848 0 0.697927 0.0274712 0 0.703271 0.026545 0 0.708216 0.0257099 0 0.713009 0.0249494 0 0.717594 0.0242429 0 0.72194 0.0235698 0 0.726143 0.0229236 0 0.730163 0.0223025 0 0.733958 0.0217082 0 0.737827 0.021154 0 0.742589 0.0206652 0 0.749777 0.0202814 0 0.761874 0.0200642 0 0.780047 0.0200033 0 0.8 0.02 0 0.82 0.02 0 0.84 0.02 0 0.86 0.02 0 0.88 0.02 0 0.9 0.02 0 0.92 0.02 0 0.94 0.02 0 0.96 0.02 0 0.98 0.02 0 1 0.02 0 0 0.315563 0 0.201871 0.420293 0 0.201831 0.201831 0 0.385065 0.267426 0 0.386158 0.218718 0 0.430628 0.184551 0 0.462263 0.164272 0 0.487545 0.153397 0 0.510277 0.139412 0 0.528431 0.129524 0 0.547165 0.119098 0 0.561308 0.110903 0 0.576914 0.103384 0 0.588835 0.097505 0 0.601818 0.0925931 0 0.611788 0.088007 0 0.623335 0.0838076 0 0.631706 0.0794529 0 0.641524 0.0754727 0 0.64903 0.0718162 0 0.657732 0.0686723 0 0.66494 0.0659679 0 0.672319 0.0634706 0 0.678682 0.0611296 0 0.685112 0.0588971 0 0.69097 0.0567917 0 0.696551 0.054797 0 0.701953 0.0529806 0 0.707059 0.0513256 0 0.711889 0.049817 0 0.716555 0.0484082 0 0.720953 0.0470616 0 0.725208 0.045769 0 0.729273 0.0445302 0 0.733107 0.0433488 0 0.737049 0.0422518 0 0.741925 0.0412871 0 0.749305 0.0405348 0 0.761689 0.0401181 0 0.780038 0.0400054 0 0.8 0.04 0 0.82 0.04 0 0.84 0.04 0 0.86 0.04 0 0.88 0.04 0 0.9 0.04 0 0.92 0.04 0 0.94 0.04 0 0.96 0.04 0 0.98 0.04 0 1 0.04 0 0 0.437522 0 0.180677 0.354961 0 0.267426 0.385065 0 0.230213 0.230213 0 0.340448 0.306335 0 0.400031 0.248011 0 0.434812 0.236397 0 0.466213 0.213606 0 0.491713 0.201727 0 0.515363 0.185513 0 0.533752 0.173699 0 0.552747 0.161527 0 0.567121 0.152443 0 0.582282 0.144048 0 0.593878 0.137042 0 0.606765 0.13062 0 0.616606 0.124052 0 0.627851 0.117968 0 0.636193 0.112003 0 0.645871 0.106746 0 0.653708 0.102207 0 0.662066 0.0982176 0 0.668962 0.0946517 0 0.676015 0.091235 0 0.68253 0.0879906 0 0.688581 0.0848242 0 0.694307 0.0818998 0 0.699825 0.0792053 0 0.705131 0.0767701 0 0.710061 0.0745232 0 0.714833 0.0724194 0 0.719327 0.0703994 0 0.723659 0.068463 0 0.727806 0.0666151 0 0.73171 0.0648622 0 0.735772 0.063244 0 0.740839 0.0618274 0 0.748542 0.0607356 0 0.76141 0.0601532 0 0.780027 0.0600058 0 0.8 0.06 0 0.82 0.06 0 0.84 0.06 0 0.86 0.06 0 0.88 0.06 0 0.9 0.06 0 0.92 0.06 0 0.94 0.06 0 0.96 0.06 0 0.98 0.06 0 1 0.06 0 0 0.434494 0 0.108989 0.43142 0 0.218718 0.386158 0 0.306335 0.340448 0 0.291311 0.291311 0 0.35919 0.331994 0 0.410358 0.274632 0 0.443673 0.272996 0 0.47288 0.249728 0 0.497297 0.238182 0 0.520323 0.221609 0 0.53816 0.210362 0 0.556538 0.198184 0 0.570392 0.188916 0 0.585354 0.17966 0 0.597107 0.171002 0 0.610163 0.162836 0 0.620059 0.154707 0 0.631227 0.147357 0 0.639834 0.140727 0 0.649431 0.134948 0 0.657104 0.129925 0 0.665059 0.12523 0 0.672088 0.120883 0 0.678971 0.116576 0 0.685177 0.112476 0 0.69128 0.108647 0 0.696904 0.105143 0 0.702447 0.101956 0 0.707544 0.0989951 0 0.712448 0.0961973 0 0.717085 0.0935122 0 0.721517 0.0909412 0 0.725776 0.0885035 0 0.72979 0.0862033 0 0.734021 0.0840918 0 0.739361 0.082255 0 0.747529 0.0808654 0 0.76108 0.0801648 0 0.780016 0.0800048 0 0.8 0.08 0 0.82 0.08 0 0.84 0.08 0 0.86 0.08 0 0.88 0.08 0 0.9 0.08 0 0.92 0.08 0 0.94 0.08 0 0.96 0.08 0 0.98 0.08 0 1 0.08 0 0 0.465206 0 0.098039 0.455677 0 0.184551 0.430628 0 0.248011 0.400031 0 0.331994 0.35919 0 0.344341 0.344341 0 0.386278 0.342954 0 0.420302 0.30138 0 0.451938 0.302379 0 0.479084 0.279069 0 0.501788 0.269195 0 0.523927 0.25286 0 0.541018 0.242358 0 0.559074 0.229703 0 0.573105 0.21952 0 0.58829 0.209102 0 0.60025 0.199112 0 0.613231 0.189877 0 0.623177 0.181255 0 0.634127 0.173638 0 0.642674 0.166961 0 0.651829 0.160805 0 0.659603 0.155235 0 0.667475 0.149751 0 0.674285 0.144524 0 0.681108 0.139537 0 0.687372 0.134942 0 0.693307 0.130686 0 0.698997 0.126798 0 0.70437 0.123141 0 0.709421 0.11966 0 0.714259 0.116328 0 0.718816 0.113149 0 0.723206 0.110153 0 0.727372 0.107337 0 0.731825 0.104764 0 0.737529 0.102545 0 0.746319 0.100914 0 0.760745 0.100153 0 0.780008 0.100003 0 0.8 0.1 0 0.82 0.1 0 0.84 0.1 0 0.86 0.1 0 0.88 0.1 0 0.9 0.1 0 0.92 0.1 0 0.94 0.1 0 0.96 0.1 0 0.98 0.1 0 1 0.1 0 0 0.486755 0 0.0868755 0.48198 0 0.164272 0.462263 0 0.236397 0.434812 0 0.274632 0.410358 0 0.342954 0.386278 0 0.369437 0.369437 0 0.403468 0.359055 0 0.430293 0.325285 0 0.458711 0.32798 0 0.484791 0.303704 0 0.506131 0.295759 0 0.52765 0.278801 0 0.544352 0.268596 0 0.562384 0.25524 0 0.576454 0.244401 0 0.591499 0.233413 0 0.603227 0.223253 0 0.615809 0.213991 0 0.625543 0.205612 0 0.636102 0.197858 0 0.644713 0.190953 0 0.653828 0.184203 0 0.661491 0.177865 0 0.669102 0.171673 0 0.676149 0.166003 0 0.682792 0.160652 0 0.688991 0.155758 0 0.694906 0.151175 0 0.700531 0.146856 0 0.705814 0.142717 0 0.710862 0.138781 0 0.715598 0.135041 0 0.72012 0.131526 0 0.724476 0.128231 0 0.729215 0.12523 0 0.735398 0.122679 0 0.744986 0.12088 0 0.760454 0.120122 0 0.780003 0.120002 0 0.8 0.12 0 0.82 0.12 0 0.84 0.12 0 0.86 0.12 0 0.88 0.12 0 0.9 0.12 0 0.92 0.12 0 0.94 0.12 0 0.96 0.12 0 0.98 0.12 0 1 0.12 0 0 0.507218 0 0.0773863 0.503795 0 0.153397 0.487545 0 0.213606 0.466213 0 0.272996 0.443673 0 0.30138 0.420302 0 0.359055 0.403468 0 0.388724 0.388724 0 0.41749 0.375921 0 0.44077 0.346858 0 0.46552 0.35016 0 0.490394 0.324056 0 0.510558 0.318248 0 0.531581 0.30039 0 0.547875 0.290577 0 0.565505 0.27695 0 0.579261 0.26615 0 0.593821 0.255205 0 0.605259 0.245368 0 0.617477 0.236056 0 0.627238 0.22777 0 0.637806 0.219642 0 0.646403 0.21225 0 0.655171 0.204867 0 0.66294 0.198158 0 0.670545 0.191698 0 0.67745 0.185769 0 0.684083 0.180201 0 0.690216 0.174983 0 0.696118 0.170018 0 0.701668 0.165298 0 0.706934 0.160815 0 0.71189 0.156582 0 0.716556 0.152587 0 0.721137 0.148848 0 0.726238 0.145461 0 0.733037 0.14264 0 0.743633 0.140773 0 0.760237 0.140082 0 0.780001 0.140001 0 0.8 0.14 0 0.82 0.14 0 0.84 0.14 0 0.86 0.14 0 0.88 0.14 0 0.9 0.14 0 0.92 0.14 0 0.94 0.14 0 0.96 0.14 0 0.98 0.14 0 1 0.14 0 0 0.526567 0 0.0718827 0.521641 0 0.139412 0.510277 0 0.201727 0.491713 0 0.249728 0.47288 0 0.302379 0.451938 0 0.325285 0.430293 0 0.375921 0.41749 0 0.405461 0.405461 0 0.430529 0.390867 0 0.452272 0.366144 0 0.474257 0.368025 0 0.496979 0.34104 0 0.516007 0.337102 0 0.53614 0.318503 0 0.551688 0.309463 0 0.568621 0.295865 0 0.581869 0.285495 0 0.595884 0.274569 0 0.607146 0.26514 0 0.619276 0.255666 0 0.628964 0.247316 0 0.639123 0.238717 0 0.647753 0.231117 0 0.656481 0.223566 0 0.664092 0.216664 0 0.671648 0.210065 0 0.678534 0.203934 0 0.685087 0.19809 0 0.691194 0.192581 0 0.697039 0.187353 0 0.702518 0.182407 0 0.707714 0.177731 0 0.712557 0.173295 0 0.717409 0.169149 0 0.722955 0.165432 0 0.730536 0.16243 0 0.742384 0.160615 0 0.760103 0.160045 0 0.78 0.16 0 0.8 0.16 0 0.82 0.16 0 0.84 0.16 0 0.86 0.16 0 0.88 0.16 0 0.9 0.16 0 0.92 0.16 0 0.94 0.16 0 0.96 0.16 0 0.98 0.16 0 1 0.16 0 0 0.541466 0 0.0658406 0.539916 0 0.129524 0.528431 0 0.185513 0.515363 0 0.238182 0.497297 0 0.279069 0.479084 0 0.32798 0.458711 0 0.346858 0.44077 0 0.390867 0.430529 0 0.4201 0.4201 0 0.442547 0.404096 0 0.464157 0.383006 0 0.484641 0.38197 0 0.504512 0.355803 0 0.522704 0.352754 0 0.541451 0.333896 0 0.556087 0.325778 0 0.572077 0.312309 0 0.5848 0.30262 0 0.598422 0.291694 0 0.609403 0.282614 0 0.621041 0.272801 0 0.630564 0.264499 0 0.640663 0.255843 0 0.649112 0.248163 0 0.657594 0.24051 0 0.665275 0.233549 0 0.672643 0.226801 0 0.679502 0.220534 0 0.685869 0.214529 0 0.691962 0.2089 0 0.697679 0.203533 0 0.703105 0.198452 0 0.708179 0.193607 0 0.713362 0.189107 0 0.719456 0.18514 0 0.728002 0.182072 0 0.741366 0.180434 0 0.760036 0.180019 0 0.78 0.18 0 0.8 0.18 0 0.82 0.18 0 0.84 0.18 0 0.86 0.18 0 0.88 0.18 0 0.9 0.18 0 0.92 0.18 0 0.94 0.18 0 0.96 0.18 0 0.98 0.18 0 1 0.18 0 0 0.557642 0 0.0608695 0.553706 0 0.119098 0.547165 0 0.173699 0.533752 0 0.221609 0.520323 0 0.269195 0.501788 0 0.303704 0.484791 0 0.35016 0.46552 0 0.366144 0.452272 0 0.404096 0.442547 0 0.432759 0.432759 0 0.45332 0.415693 0 0.474918 0.397765 0 0.494688 0.393467 0 0.512314 0.369218 0 0.529629 0.366249 0 0.546964 0.347525 0 0.560935 0.340197 0 0.576025 0.326809 0 0.58829 0.317744 0 0.601218 0.306639 0 0.611788 0.297891 0 0.62321 0.288092 0 0.632518 0.279923 0 0.642171 0.271205 0 0.650594 0.263601 0 0.658821 0.255961 0 0.666364 0.249006 0 0.673568 0.242279 0 0.680154 0.235949 0 0.686505 0.229918 0 0.692463 0.224184 0 0.698127 0.218712 0 0.703467 0.213508 0 0.709064 0.20872 0 0.71585 0.204608 0 0.725574 0.201619 0 0.740659 0.200261 0 0.76001 0.200006 0 0.78 0.2 0 0.8 0.2 0 0.82 0.2 0 0.84 0.2 0 0.86 0.2 0 0.88 0.2 0 0.9 0.2 0 0.92 0.2 0 0.94 0.2 0 0.96 0.2 0 0.98 0.2 0 1 0.2 0 0 0.569719 0 0.0559929 0.569241 0 0.110903 0
[...]
			<PointData Scalars="VitesseX">
				<DataArray Name="VitesseX" type="Float32" format="ascii">
 0 1.68739 0.357174 1.10132 0.923042 1.01805 1.0238 1.1006 1.13042 1.17183 1.23882 1.23869 1.2782 1.32218 1.33955 1.34632 1.38132 1.42591 1.4776 1.46877 1.49791 1.50387 1.54917 1.60997 1.63694 1.5776 1.65092 1.67777 1.68424 1.71906 1.71835 1.73042 1.75356 1.75515 1.78839 1.74166 1.5723 1.17164 0.470788 0.0234879 1.60291e-05 1.91321e-10 3.61914e-12 1.75894e-14 -1.75856e-14 -3.61755e-12 3.59994e-12 -3.59994e-12 3.61755e-12 1.76812e-14 0 0 0.136621 1.25085 0.57484 0.947209 0.953682 1.03225 1.08004 1.13514 1.16399 1.21761 1.24985 1.2668 1.31715 1.34502 1.33928 1.37933 1.43492 1.46655 1.48038 1.48151 1.51244 1.55175 1.61141 1.61223 1.60065 1.64364 1.67597 1.68233 1.71782 1.71804 1.72871 1.75369 1.75631 1.78737 1.73934 1.56783 1.16349 0.459623 0.0220617 1.42609e-05 1.73937e-10 3.61466e-12 1.758e-14 -1.31919e-14 -3.61755e-12 3.60879e-12 -3.60879e-12 3.61757e-12 1.3269e-14 0 0 0.742001 0.173265 1.13206 0.727203 0.896532 0.953683 1.04869 1.08147 1.13795 1.20094 1.20741 1.26083 1.30575 1.32675 1.33729 1.37476 1.42535 1.47324 1.45971 1.48088 1.51013 1.57282 1.57947 1.58667 1.63675 1.63262 1.67036 1.6768 1.7136 1.71849 1.72399 1.75367 1.75956 1.78394 1.7322 1.55415 1.13881 0.426689 0.0182222 1.00226e-05 1.31977e-10 3.61437e-12 -1.80003e-12 -8.62796e-15 1.25608e-14 -3.42478e-14 3.42558e-14 -1.25475e-14 8.65551e-15 0 0 0.64454 0.77991 0.209542 0.673339 0.81966 0.920884 0.980273 1.05347 1.10272 1.1636 1.19467 1.23381 1.28998 1.31282 1.32016 1.36661 1.42338 1.4506 1.45816 1.46224 1.53015 1.55878 1.55203 1.58918 1.64516 1.62959 1.66129 1.67057 1.70397 1.72119 1.71837 1.75229 1.76354 1.77764 1.71981 1.53037 1.09683 0.373941 0.0131062 5.53312e-06 8.09552e-11 1.80875e-12 -3.47765e-15 2.40558e-16 -5.30575e-12 5.28829e-12 -5.28825e-12 5.30129e-12 8.68136e-15 0 0 0.247536 0.515168 0.758451 0.608462 0.760268 0.866273 0.97386 1.00964 1.08482 1.12239 1.1622 1.22543 1.25883 1.28742 1.31056 1.35515 1.40534 1.44061 1.43795 1.477 1.51287 1.53315 1.54836 1.60776 1.61584 1.64078 1.64531 1.66888 1.68744 1.72327 1.71564 1.74823 1.76636 1.76869 1.70157 1.4947 1.03574 0.305476 0.00807745 2.38203e-06 3.98252e-11 -6.7166e-16 1.80552e-12 -4.10352e-15 -5.30961e-12 5.30103e-12 -7.10984e-12 7.11839e-12 8.76493e-15 0 0 0.228959 0.393562 0.490021 0.802227 0.868348 0.88502 0.905915 1.00858 1.03948 1.09131 1.13152 1.1884 1.23322 1.25583 1.29419 1.34111 1.38645 1.41264 1.44492 1.46557 1.49172 1.49836 1.57255 1.59527 1.59363 1.64393 1.6332 1.66435 1.67432 1.71561 1.71887 1.74134 1.76615 1.75808 1.6766 1.44454 0.952226 0.228314 0.00417345 7.9675e-07 1.68894e-11 1.83448e-12 -1.82989e-12 1.28067e-14 1.81742e-12 -1.83039e-12 1.82158e-12 -1.80512e-12 5.26671e-15 0 0 0.194843 0.332494 0.491507 0.523243 0.720599 0.890982 0.9301 0.946613 1.01466 1.04697 1.11752 1.1538 1.19308 1.24033 1.27325 1.32088 1.36383 1.39924 1.42641 1.44872 1.44965 1.51055 1.56517 1.57006 1.58462 1.62963 1.62733 1.65563 1.66921 1.69862 1.72267 1.7349 1.76249 1.74509 1.64417 1.37757 0.841595 0.152281 0.0017597 2.09878e-07 7.38963e-12 -1.05477e-11 1.0548e-11 -1.3113e-14 -1.77486e-12 -4.65357e-14 1.84698e-12 -1.81771e-12 1.78832e-14 0 0 0.164028 0.331118 0.427209 0.573454 0.593788 0.739637 0.91354 0.953407 0.965566 1.02345 1.07314 1.12752 1.16108 1.20414 1.25942 1.29348 1.34318 1.37786 1.40164 1.40416 1.45446 1.50932 1.53874 1.54707 1.58415 1.59598 1.62675 1.64385 1.66836 1.68223 1.71823 1.73232 1.75499 1.72649 1.6032 1.2929 0.700539 0.0878824 0.000586556 4.5931e-08 -9.00519e-12 -2.53874e-14 1.05477e-11 -8.85334e-15 -1.23266e-11 1.23012e-11 -1.23008e-11 1.23008e-11 8.11175e-14 0 0 0.161364 0.284744 0.428234 0.501399 0.655382 0.663383 0.780467 0.930416 0.974141 1.00589 1.03837 1.0776 1.1447 1.18507 1.2274 1.28147 1.31988 1.35039 1.36117 1.39808 1.45634 1.49379 1.49648 1.55337 1.56277 1.57729 1.61501 1.63684 1.6655 1.67348 1.70465 1.73157 1.74398 1.70029 1.54968 1.18941 0.53322 0.0423447 0.000148845 9.09969e-09 -1.19747e-11 -8.91289e-17 -1.83007e-12 1.23779e-11 -1.0582e-11 1.23523e-11 -2.46745e-11 2.46745e-11 -1.22929e-11 0 0 0.144476 0.273485 0.388509 0.507254 0.578349 0.724832 0.71938 0.827421 0.947249 0.993017 1.04432 1.06831 1.10132 1.17556 1.21515 1.25248 1.30435 1.3158 1.34562 1.40531 1.44817 1.44851 1.49769 1.53714 1.54644 1.57501 1.59461 1.63735 1.6569 1.67082 1.68852 1.72684 1.73074 1.6661 1.4767 1.06028 0.357297 0.0163853 2.74804e-05 1.64652e-09 1.10453e-13 -3.01504e-14 3.03189e-14 -4.65307e-15 1.23552e-11 -1.23808e-11 3.02906e-14 -2.09829e-17 -8.25802e-17 0 0 0.134125 0.25833 0.367995 0.471508 0.573212 0.638527 0.79571 0.787473 0.872123 0.979967 1.03248 1.08376 1.1169 1.13105 1.20484 1.24811 1.2663 1.30758 1.35561 1.39864 1.40492 1.4466 1.49205 1.51455 1.53902 1.57613 1.57675 1.64188 1.64103 1.67155 1.67426 1.71777 1.71149 1.62328 1.37961 0.891165 0.201541 0.00488383 3.52703e-06 2.25265e-10 1.23675e-11 1.2297e-11 -1.22968e-11 3.00885e-14 -1.74722e-15 3.77738e-16 1.22683e-11 -2.46534e-11 2.47137e-11 0 0 0.121674 0.235269 0.343725 0.447422 0.549281 0.645806 0.703057 0.843316 0.839718 0.932985 1.02529 1.0433 1.12511 1.1364 1.17257 1.22789 1.25628 1.30733 1.35774 1.36436 1.39044 1.45083 1.48265 1.48909 1.55187 1.55173 1.58463 1.62739 1.63488 1.66425 1.66848 1.706 1.6803 1.56297 1.25815 0.6741 0.0911193 0.00106809 3.16975e-07 2.82841e-11 -2.75777e-14 1.23277e-11 -1.23779e-11 8.13578e-14 -1.86342e-15 -5.4504e-16 1.22689e-11 -1.23775e-11 8.09766e-14 0 0 0.11419 0.217409 0.335219 0.433052 0.540596 0.616187 0.706525 0.741562 0.876754 0.895215 0.967866 1.05575 1.07351 1.14621 1.18162 1.18853 1.26177 1.31519 1.31922 1.34193 1.40401 1.44629 1.45151 1.50332 1.52964 1.54352 1.58619 1.60462 1.63592 1.64844 1.66983 1.68778 1.63712 1.47193 1.1031 0.431885 0.0313999 0.00016066 2.41215e-08 1.48372e-11 -1.23255e-11 -2.10027e-11 3.33093e-11 -1.23057e-11 1.23253e-11 -1.23262e-11 -2.10033e-11 3.32798e-11 -2.46543e-11 0 0 0.105674 0.217852 0.313756 0.436105 0.50471 0.608273 0.660754 0.765406 0.786915 0.913469 0.945243 0.999996 1.06615 1.10968 1.15609 1.19521 1.24553 1.28427 1.30292 1.35039 1.40855 1.42282 1.45224 1.49504 1.51139 1.54263 1.57413 1.58694 1.63113 1.63583 1.67019 1.65803 1.58096 1.34893 0.888991 0.219358 0.00783167 1.53412e-05 1.97773e-09 1.56761e-13 1.23654e-11 -3.33091e-11 3.32791e-11 8.11402e-14 -1.24168e-11 1.74337e-14 -2.09348e-11 -2.78173e-14 2.10097e-11 0 0 0.105201 0.203989 0.31135 0.404123 0.504836 0.561369 0.668518 0.706129 0.819013 0.831232 0.933421 0.982265 1.02593 1.10679 1.09666 1.19491 1.24185 1.25992 1.30338 1.3616 1.38716 1.41271 1.46104 1.47557 1.49932 1.54875 1.54377 1.59171 1.6054 1.63812 1.65812 1.62149 1.49511 1.19676 0.610444 0.0827879 0.00132575 8.83109e-07 1.43977e-10 -9.46276e-14 1.24163e-11 -7.2991e-17 -1.23863e-11 7.92392e-14 9.07903e-16 -1.2331e-13 -2.08532e-11 -2.51734e-15 3.33117e-11 0 0 0.0990385 0.198316 0.291829 0.395094 0.475691 0.561314 0.62111 0.726667 0.746118 0.860531 0.87064 0.965499 1.00611 1.01824 1.11396 1.16179 1.19032 1.23721 1.28526 1.34789 1.37079 1.42065 1.44405 1.45713 1.51008 1.51553 1.54717 1.57703 1.58983 1.63541 1.63151 1.57024 1.37367 0.986879 0.327406 0.0218579 0.000138025 3.68499e-08 7.36582e-12 1.22462e-11 -3.32493e-11 3.33084e-11 -1.23859e-11 7.91969e-14 -2.1002e-11 3.32281e-11 -3.32796e-11 3.33867e-11 -7.6436e-14 0 0 0.0957996 0.193877 0.283735 0.381686 0.464397 0.535101 0.616777 0.678795 0.77245 0.783495 0.894816 0.892147 0.976748 1.05682 1.06782 1.13854 1.17506 1.24418 1.27881 1.30864 1.3619 1.40208 1.4136 1.45506 1.48529 1.50116 1.54228 1.55646 1.58674 1.62035 1.59212 1.48416 1.22076 0.69066 0.126491 0.00377341 7.8823e-06 1.76734e-09 -2.43408e-11 2.46321e-11 -3.32538e-11 -2.64316e-14 3.33056e-11 -7.66467e-14 -3.31997e-11 3.31486e-11 1.58035e-13 -3.3386e-11 3.33885e-11 0 0 0.094637 0.186884 0.278911 0.364396 0.451006 0.517782 0.59748 0.671772 0.726122 0.801888 0.805744 0.93207 0.935392 1.01455 1.07405 1.09234 1.17255 1.19829 1.24967 1.29302 1.34146 1.36857 1.40942 1.44374 1.45472 1.49748 1.52701 1.53587 1.58993 1.57919 1.53483 1.35228 1.0005 0.366789 0.0327285 0.000385263 2.41245e-07 4.12329e-11 2.09698e-11 1.2246e-11 5.53357e-14 -3.33049e-11 7.61449e-14 3.32294e-11 1.6427e-15 -2.76513e-15 -3.32284e-11 6.13521e-15 -4.24116e-15 0 0 0.0904748 0.181955 0.262998 0.350505 0.4247 0.507689 0.574136 0.649503 0.702654 0.755877 0.843993 0.857352 0.952226 0.960933 1.01665 1.145 1.12583 1.17939 1.22411 1.27368 1.30211 1.3393 1.38981 1.40612 1.44466 1.48411 1.49212 1.54647 1.55572 1.54263 1.42559 1.18594 0.672247 0.133581 0.00528082 1.99345e-05 6.57905e-09 2.1277e-12 3.33095e-11 -3.33387e-11 -5.05128e-14 3.33089e-11 -3.31519e-11 7.92586e-17 3.3229e-11 -3.32299e-11 5.23582e-15 3.58081e-16 -3.76651e-15 0 0 0.0862249 0.168678 0.248992 0.327887 0.414354 0.486711 0.559705 0.61166 0.687271 0.753508 0.807136 0.864089 0.864499 0.978563 0.996187 1.07125 1.14284 1.15859 1.22104 1.26221 1.28301 1.33507 1.34431 1.3827 1.43604 1.45213 1.49683 1.52627 1.52564 1.45918 1.28455 0.924542 0.323347 0.0309053 0.00046283 4.85709e-07 1.7627e-10 3.32896e-11 -3.32282e-11 -8.09638e-14 8.16507e-14 3.31471e-11 -3.30701e-11 -3.34388e-16 3.31475e-11 -3.31473e-11 3.80407e-15 -5.23389e-15 3.33126e-11 0 0 0.0807134 0.160433 0.237386 0.321615 0.401478 0.470563 0.53022 0.602711 0.676694 0.744693 0.776051 0.81506 0.896464 0.918334 1.01683 1.03925 1.09794 1.14917 1.19153 1.23077 1.29063 1.31029 1.32547 1.37781 1.40556 1.44248 1.49116 1.49466 1.46669 1.33729 1.08329 0.551334 0.100693 0.00401505 1.90504e-05 8.74599e-09 4.43628e-12 3.32304e-11 -3.3309e-11 3.33088e-11 -3.32279e-11 3.31476e-11 -3.30707e-11 3.31478e-11 -5.02366e-16 -3.3147e-11 -7.804e-14 3.33872e-11 -7.60813e-14 0 0 0.0775549 0.158222 0.236956 0.31596 0.38729 0.450359 0.523368 0.601343 0.664091 0.706526 0.75727 0.816046 0.871298 0.930007 0.94492 1.04071 1.09011 1.11262 1.1509 1.20395 1.24969 1.2877 1.33317 1.35241 1.38024 1.44535 1.45695 1.4576 1.35743 1.17242 0.75076 0.219923 0.017639 0.000267298 3.02462e-07 2.04338e-10 1.68898e-13 -5.20539e-16 3.33057e-11 -3.33053e-11 -3.07865e-16 3.32288e-11 -3.31515e-11 3.31485e-11 -3.3148e-11 -7.79773e-14 3.33102e-11 -3.33095e-11 3.33885e-11 0 0 0.0787941 0.159909 0.232555 0.300808 0.373122 0.447271 0.523858 0.583463 0.635647 0.688752 0.75314 0.804128 0.846796 0.889648 0.967185 0.985669 1.06072 1.10038 1.14741 1.17179 1.19431 1.27492 1.30603 1.3224 1.37817 1.4081 1.42662 1.35173 1.22104 0.886875 0.367313 0.0484869 0.00173389 6.107e-06 4.35684e-09 3.60981e-11 -3.32267e-11 4.08261e-17 3.33056e-11 -3.3386e-11 3.33897e-11 -3.33092e-11 5.35526e-16 3.33065e-11 -3.33872e-11 3.33899e-11 -3.33104e-11 8.27244e-14 -4.07586e-15 0 0 0.0789268 0.15159 0.219605 0.293303 0.372382 0.446654 0.503743 0.561002 0.619769 0.685918 0.728225 0.777139 0.824821 0.88948 0.924924 0.977968 1.01516 1.08407 1.11417 1.14636 1.20119 1.223 1.27412 1.32489 1.34498 1.3648 1.32795 1.22974 0.960193 0.509916 0.095873 0.00657054 5.46555e-05 7.009e-08 9.48786e-11 -3.32587e-11 7.69191e-14 3.31518e-11 -3.3309e-11 3.33867e-11 -3.33062e-11 7.7065e-14 3.31514e-11 -3.33086e-11 3.33861e-11 -3.33058e-11 8.03114e-14 7.46124e-16 -3.43106e-15 0 0 0.0708511 0.140358 0.217308 0.293146 0.363215 0.423759 0.486935 0.550295 0.613927 0.655816 0.709384 0.760018 0.823276 0.853263 0.907912 0.947844 1.0176 1.0311 1.08362 1.14743 1.17337 1.20428 1.26767 1.29447 1.31193 1.28245 1.19615 0.992839 0.610101 0.150151 0.0166301 0.000256808 8.71863e-07 6.48048e-10 3.39165e-11 -3.33059e-11 7.75024e-14 3.30702e-11 -3.30689e-11 3.32274e-11 -3.33061e-11 7.77104e-14 3.30699e-11 -3.30686e-11 3.32267e-11 -3.33052e-11 8.09569e-14 -1.6265e-13 3.34699e-11 0 0 0.0681929 0.140944 0.213812 0.281445 0.344159 0.41045 0.475283 0.535405 0.585566 0.644782 0.696916 0.7528 0.785834 0.84698 0.887414 0.945628 0.964637 1.03251 1.0695 1.10457 1.15634 1.2001 1.2374 1.27487 1.23475 1.15955 0.98631 0.650986 0.19912 0.0297614 0.000772319 6.13483e-06 4.35563e-09 8.40285e-12 -1.51434e-13 8.11281e-14 -6.66191e-11 6.65381e-11 1.58694e-13 -1.58918e-13 8.10221e-14 -6.66189e-11 6.6538e-11 1.58962e-13 -1.59065e-13 8.14031e-14 -6.66196e-11 6.65386e-11 -3.32295e-11 0 0 0.0697287 0.136787 0.203578 0.271955 0.339433 0.401358 0.459405 0.515514 0.576937 0.628573 0.677896 0.720537 0.784458 0.824578 0.875942 0.899002 0.976921 0.997507 1.05132 1.09084 1.13712 1.18792 1.19707 1.18496 1.13345 0.951943 0.657001 0.225645 0.0409579 0.00164742 2.20405e-05 1.96186e-08 6.30109e-11 3.33575e-11 3.50817e-16 -3.33103e-11 8.2204e-14 -8.20597e-14 3.33097e-11 5.19966e-16 -3.33104e-11 8.23287e-14 -8.17896e-14 3.33099e-11 7.62364e-14 -3.33863e-11 -4.59442e-16 -1.11236e-15 8.61559e-16 0 0 0.0666348 0.133052 0.198635 0.263024 0.325325 0.386885 0.447326 0.506883 0.558572 0.609862 0.661234 0.719527 0.759941 0.807051 0.842956 0.911875 0.931705 0.995027 1.01985 1.09126 1.11579 1.12903 1.12943 1.05855 0.910978 0.641682 0.225007 0.0471799 0.00241833 4.62962e-05 6.77252e-08 2.53429e-10 2.08976e-13 -7.70509e-14 -6.64314e-16 8.18969e-14 -4.31804e-16 -2.47616e-16 -8.13221e-14 3.12459e-16 8.16688e-14 -3.08819e-16 -3.58928e-15 3.30704e-11 -3.30715e-11 -1.58755e-13 3.32281e-11 -6.64578e-11 3.33035e-11 0 0 0.0641268 0.127996 0.191977 0.256334 0.319684 0.379688 0.437128 0.492617 0.550896 0.606693 0.656964 0.696543 0.744435 0.78958 0.842843 0.868208 0.931284 0.960527 1.03751 1.02995 1.07903 1.04455 0.983401 0.846258 0.578477 0.21008 0.0467231 0.00258994 6.56388e-05 1.3684e-07 5.82179e-10 6.15846e-13 3.3308e-11 -3.33874e-11 8.0446e-14 8.18134e-14 -3.08078e-16 -3.71211e-16 -1.62286e-13 8.1465e-14 8.13295e-14 -4.15349e-15 4.57484e-17 3.30704e-11 -6.64578e-11 6.64559e-11 -3.33101e-11 -3.31471e-11 3.33027e-11 0 0 0.0629552 0.125659 0.18816 0.24998 0.310802 0.370562 0.427797 0.483588 0.536803 0.587494 0.636049 0.687123 0.731099 0.774273 0.810106 0.868873 0.907107 0.963749 0.964304 1.01214 0.943636 0.915147 0.738028 0.494429 0.173207 0.0391017 0.00237698 6.55973e-05 1.56716e-07 8.5952e-10 -3.17657e-11 3.31556e-11 -3.3309e-11 3.33085e-11 8.07626e-14 -3.33097e-11 8.17605e-14 -8.18426e-14 3.32292e-11 -3.33538e-11 1.99623e-13 3.28647e-11 -3.28654e-11 -7.51893e-14 1.9108e-16 -8.29707e-14 -3.32278e-11 3.32282e-11 8.20741e-14 0 0 0.061287 0.122703 0.184323 0.245815 0.305804 0.362399 0.416338 0.469342 0.523031 0.576073 0.62576 0.667923 0.711731 0.75692 0.808609 0.846529 0.885927 0.90023 0.919972 0.857226 0.818293 0.607474 0.392162 0.121165 0.0277127 0.00159606 4.6154e-05 1.36351e-07 8.5914e-10 1.64626e-12 -3.32182e-11 3.30707e-11 -3.30697e-11 3.31505e-11 -3.32282e-11 3.32282e-11 -3.31541e-11 3.3154e-11 -3.32286e-11 -5.10576e-14 -8.40251e-11 1.17009e-10 -3.28596e-11 -7.45627e-14 -2.43695e-16 -3.3312e-11 3.32306e-11 3.31472e-11 -6.63759e-11 0 0 0.0598368 0.119638 0.179151 0.238086 0.296374 0.353583 0.408063 0.459939 0.509857 0.558592 0.606296 0.654479 0.7006 0.743929 0.776014 0.809802 0.820751 0.817164 0.763681 0.687445 0.472627 0.2697 0.0737545 0.0154621 0.000739183 2.19427e-05 6.70682e-08 5.80647e-10 3.46798e-11 -3.32198e-11 -7.71652e-14 3.32294e-11 -3.31511e-11 3.31512e-11 -3.32279e-11 3.32277e-11 -3.31537e-11 3.31537e-11 -3.33103e-11 1.10018e-13 -8.42615e-11 8.41778e-11 5.36732e-14 -3.32204e-16 -3.33097e-11 3.3309e-11 -8.1123e-14 -8.04645e-14 1.62544e-13 0 0 0.0587795 0.117564 0.17613 0.233814 0.289906 0.344155 0.397537 0.450363 0.501602 0.550322 0.597196 0.638529 0.673897 0.704101 0.725059 0.724155 0.705343 0.644315 0.527733 0.327434 0.156036 0.037887 0.0061296 0.000245993 6.10425e-06 1.92386e-08 2.52461e-10 6.12777e-13 3.33089e-11 -3.33861e-11 3.33889e-11 -3.33091e-11 9.63369e-16 3.33094e-11 -8.12339e-14 -3.32281e-11 -6.86902e-16 -3.19501e-16 3.32278e-11 -6.65835e-11 6.64204e-11 -6.65006e-11 3.34261e-11 -7.30398e-14 1.39845e-15 7.92235e-14 -8.05833e-14 -3.32282e-11 3.3302e-11 0 0 0.0574778 0.114877 0.171889 0.228178 0.283276 0.33725 0.389268 0.438919 0.485769 0.528778 0.566556 0.598658 0.620908 0.627649 0.614193 0.576334 0.487569 0.349566 0.188627 0.0720333 0.0144748 0.00163147 5.30304e-05 8.64663e-07 4.17973e-09 6.28452e-11 2.06549e-13 3.31531e-11 -3.33088e-11 3.3386e-11 -3.3306e-11 -6.63488e-16 3.33094e-11 -3.3309e-11 3.32288e-11 -6.65382e-11 6.64561e-11 -3.31481e-11 -1.08012e-15 8.07643e-14 -2.43578e-13 -3.31458e-11 3.3219e-11 9.29938e-15 -1.46663e-16 8.0285e-14 -8.04949e-14 -3.32293e-11 3.33033e-11 0 0 0.0566202 0.112639 0.167427 0.22081 0.272813 0.323294 0.370734 0.414021 0.452467 0.484621 0.507357 0.517446 0.512714 0.483148 0.414464 0.306307 0.18637 0.0823036 0.0234362 0.00349352 0.000255414 5.97586e-06 6.88644e-08 6.99461e-10 8.1667e-12 -3.32633e-11 7.85817e-14 3.30697e-11 -3.31463e-11 3.3305e-11 -3.33058e-11 3.33094e-11 -3.33107e-11 8.23386e-14 -8.23844e-14 8.03037e-14 -2.44471e-13 1.63016e-13 3.24533e-16 7.75939e-14 -1.59383e-13 -8.05422e-14 7.99193e-14 -3.32281e-11 3.33103e-11 -9.81204e-15 -3.32997e-11 3.31462e-11 1.64029e-13 0 0 0.0531522 0.105455 0.156214 0.205071 0.251691 0.295137 0.333509 0.364374 0.385809 0.396727 0.393573 0.367905 0.312358 0.233566 0.147334 0.0711941 0.0227828 0.00436783 0.000424982 1.84647e-05 2.94196e-07 4.30707e-09 2.71538e-11 3.39034e-11 1.05884e-14 -7.84413e-16 -6.66195e-11 6.65385e-11 8.11353e-14 -3.33895e-11 3.33896e-11 -8.10219e-14 -3.32286e-11 8.03619e-14 -1.23133e-16 -2.24214e-15 -8.08487e-14 -3.33107e-11 3.33115e-11 -8.27983e-14 1.53021e-15 -8.12286e-14 -3.31484e-11 3.33106e-11 -2.04337e-13 1.94312e-13 -3.34242e-11 6.6501e-11 -6.63763e-11 0 0 0.0461637 0.0911366 0.133823 0.173231 0.208326 0.237691 0.259061 0.268734 0.262095 0.236521 0.195239 0.145258 0.0922407 0.044645 0.0147154 0.00301484 0.00034569 1.89841e-05 4.68941e-07 8.35117e-09 1.99022e-10 3.60077e-11 -3.31039e-11 3.31519e-11 8.12585e-14 -3.33111e-11 8.19259e-14 -8.19262e-14 3.33103e-11 -3.33897e-11 3.33896e-11 -3.33902e-11 8.05656e-14 7.85344e-14 1.41982e-15 -8.24229e-14 -8.61371e-15 -7.40056e-14 -3.32285e-11 3.32295e-11 -3.32292e-11 3.3149e-11 -7.72343e-17 1.62037e-13 -2.05556e-13 -8.39446e-11 8.40242e-11 4.45939e-14 8.24557e-14 0 0 0.0327537 0.0637736 0.0912723 0.113322 0.127841 0.133015 0.128193 0.114461 0.0936658 0.0675146 0.0397226 0.0174665 0.00533523 0.0010575 0.000122545 7.41359e-06 2.28566e-07 6.1726e-09 2.34302e-10 -6.23496e-11 6.66214e-11 -3.32269e-11 7.74235e-14 -7.60834e-14 -3.47147e-16 8.0492e-14 -1.02858e-16 1.42774e-16 -8.12276e-14 3.33039e-11 -3.3304e-11 5.6183e-16 -1.63521e-13 2.40531e-13 -7.95e-14 -9.44883e-15 -3.33088e-11 3.32255e-11 1.04582e-14 -3.32293e-11 8.11709e-16 3.31035e-11 3.33536e-11 -6.65014e-11 3.33097e-11 -8.41863e-11 1.17174e-10 -6.6252e-11 3.33016e-11 0 0 0.0125994 0.0237999 0.0323781 0.03737 0.0380746 0.0341794 0.0263048 0.0166024 0.0081668 0.00298159 0.000769357 0.00013134 1.364e-05 8.12958e-07 3.34979e-08 1.62307e-09 3.70276e-11 2.00959e-12 3.32858e-11 -3.32263e-11 -1.81985e-16 -3.37576e-16 3.33063e-11 -3.3386e-11 8.09482e-14 8.03477e-14 -7.82268e-16 8.22315e-16 -8.131e-14 3.33039e-11 -3.33038e-11 -6.49473e-16 3.31467e-11 -6.64592e-11 3.33102e-11 -9.02205e-14 -3.32288e-11 3.32263e-11 1.08429e-14 -3.32284e-11 3.31494e-11 3.52884e-14 -8.40256e-11 8.41066e-11 -3.33099e-11 6.65027e-11 -3.35139e-11 -3.29432e-11 3.33016e-11 0 0 0.00136299 0.00231535 0.00260854 0.00226161 0.00154622 0.000824892 0.000334907 0.000100015 2.09916e-05 2.93699e-06 2.72442e-07 2.0444e-08 1.70417e-09 1.29985e-10 6.65675e-12 3.36835e-13 -2.10375e-11 3.33093e-11 -3.33897e-11 3.33091e-11 -3.31518e-11 3.31518e-11 -3.33087e-11 3.33874e-11 3.16071e-15 -3.3311e-11 8.13513e-14 -1.62399e-13 3.33919e-11 -3.33913e-11 3.33095e-11 -3.32299e-11 -7.51034e-16 7.68515e-16 -3.33123e-11 3.3229e-11 -9.62654e-15 8.40546e-15 -3.32278e-11 3.33117e-11 -1.62522e-13 3.64377e-14 -8.40254e-11 8.39453e-11 2.85578e-13 -1.68989e-13 -3.32193e-11 3.31454e-11 1.64274e-13 0 0 1.7664e-06 2.46803e-06 2.01808e-06 1.13131e-06 4.53446e-07 1.3334e-07 3.0606e-08 6.23033e-09 1.19863e-09 1.98105e-10 2.36651e-11 1.43779e-11 -2.44665e-11 2.46158e-11 -1.22445e-11 -8.2709e-14 1.23066e-11 -3.32797e-11 -8.06256e-14 3.33089e-11 -3.3151e-11 3.30702e-11 -3.3069e-11 3.32284e-11 3.43362e-15 -8.25072e-1