<?xml version="1.0"?>
<VTKFile type="PolyData">
	<PolyData>
		<Piece NumberOfPoints="2601" NumberOfPolys="2500">
			<Points>
				<DataArray type="Float32" NumberOfComponents="3" format="ascii">
 0 0 0 0.538681 0 0 0.320271 0 0 0.470776 0 0 0.463005 0 0 0.497394 0 0 0.519289 0 0 0.541472 0 0 0.561629 0 0 0.57795 0 0 0.595236 0 0 0.60805 0 0 0.623366 0 0 0.635062 0 0 0.648421 0 0 0.658581 0 0 0.670195 0 0 0.679021 0 0 0.689358 0 0 0.697064 0 0 0.706476 0 0 0.713941 0 0 0.722209 0 0 0.728993 0 0 0.735946 0 0 0.742069 0 0 0.748423 0 0 0.75458 0 0 0.76008 0 0 0.765424 0 0 0.770505 0 0 0.775392 0 0 0.780112 0 0 0.784512 0 0 0.788772 0 0 0.792844 0 0 0.796746 0 0 0.800497 0 0 0.804243 0 0 0.808552 0 0 0.814588 0 0 0.824413 0 0 0.840324 0 0 0.860001 0 0 0.88 0 0 0.9 0 0 0.92 0 0 0.94 0 0 0.96 0 0 0.98 0 0 1 0 0 0 0.538681 0 0.177243 0.177243 0 0.469395 0.225039 0 0.374951 0.192314 0 0.461833 0.118353 0 0.485811 0.105455 0 0.514662 0.0937063 0 0.537466 0.0831658 0 0.556964 0.0776063 0 0.575867 0.0709681 0 0.590995 0.0656474 0 0.60781 0.0602687 0 0.620163 0.0558908 0 0.634905 0.0522336 0 0.646019 0.0494983 0 0.658423 0.0469952 0 0.668056 0.0446731 0 0.679174 0.0425299 0 0.68735 0.0404099 0 0.697264 0.0385698 0 0.704883 0.0368751 0 0.713907 0.0354491 0 0.721084 0.0341702 0 0.728688 0.0329463 0 0.735161 0.0317632 0 0.741753 0.0306279 0 0.747934 0.0295933 0 0.754081 0.0285994 0 0.759629 0.0276788 0 0.765019 0.026858 0 0.770143 0.0261147 0 0.775027 0.0254101 0 0.779763 0.0247236 0 0.784192 0.0240544 0 0.788467 0.023413 0 0.792561 0.0228051 0 0.79648 0.0222359 0 0.800249 0.0217045 0 0.80401 0.0212071 0 0.808345 0.0207532 0 0.814424 0.0203722 0 0.824319 0.0201146 0 0.840309 0.0200139 0 0.860001 0.0200001 0 0.88 0.02 0 0.9 0.02 0 0.92 0.02 0 0.94 0.02 0 0.96 0.02 0 0.98 0.02 0 1 0.02 0 0 0.320271 0 0.225039 0.469395 0 0.206816 0.206816 0 0.416001 0.292182 0 0.407828 0.235098 0 0.458673 0.198801 0 0.491718 0.176169 0 0.519431 0.164807 0 0.543404 0.149219 0 0.563291 0.139016 0 0.583287 0.127606 0 0.598551 0.118481 0 0.615602 0.110173 0 0.6283 0.103776 0 0.642463 0.0981937 0 0.653259 0.0934957 0 0.66542 0.0890301 0 0.674748 0.0845511 0 0.685504 0.0805075 0 0.693646 0.0766586 0 0.703422 0.0734225 0 0.71113 0.0705946 0 0.719637 0.0680729 0 0.726493 0.0657039 0 0.733635 0.0633417 0 0.740178 0.0611147 0 0.746681 0.0589965 0 0.75254 0.057029 0 0.7584 0.0552397 0 0.763798 0.0536309 0 0.769067 0.0521522 0 0.773947 0.0507386 0 0.778735 0.049364 0 0.783234 0.0480256 0 0.78756 0.0467461 0 0.791725 0.0455419 0 0.795689 0.0444159 0 0.799503 0.0433621 0 0.803314 0.0423737 0 0.807725 0.0414723 0 0.813935 0.0407191 0 0.824043 0.0402162 0 0.840268 0.0400247 0 0.860001 0.0400001 0 0.88 0.04 0 0.9 0.04 0 0.92 0.04 0 0.94 0.04 0 0.96 0.04 0 0.98 0.04 0 1 0.04 0 0 0.470776 0 0.192314 0.374951 0 0.292182 0.416001 0 0.236783 0.236783 0 0.360758 0.329303 0 0.423318 0.264766 0 0.462469 0.25294 0 0.495697 0.228017 0 0.523619 0.216011 0 0.548817 0.197937 0 0.569199 0.185509 0 0.589572 0.172378 0 0.604999 0.162385 0 0.621679 0.15315 0 0.634047 0.145912 0 0.647804 0.138779 0 0.658558 0.13206 0 0.670644 0.125716 0 0.679821 0.119452 0 0.690566 0.114086 0 0.698883 0.109277 0 0.708438 0.105205 0 0.715944 0.101553 0 0.723834 0.0979975 0 0.730697 0.0946083 0 0.737825 0.0912924 0 0.74421 0.0881588 0 0.750334 0.0852315 0 0.756302 0.0826273 0 0.761884 0.0802424 0 0.767221 0.0780349 0 0.77221 0.075899 0 0.777042 0.0738289 0 0.781665 0.0718285 0 0.786079 0.0699306 0 0.790341 0.0681508 0 0.794386 0.0664869 0 0.798267 0.0649265 0 0.802161 0.0634593 0 0.806703 0.0621234 0 0.813138 0.0610163 0 0.823605 0.0602935 0 0.84021 0.0600302 0 0.86 0.0600001 0 0.88 0.06 0 0.9 0.06 0 0.92 0.06 0 0.94 0.06 0 0.96 0.06 0 0.98 0.06 0 1 0.06 0 0 0.463005 0 0.118353 0.461833 0 0.235098 0.407828 0 0.329303 0.360758 0 0.309126 0.309126 0 0.382632 0.35672 0 0.435946 0.291324 0 0.472918 0.291141 0 0.503625 0.265488 0 0.530222 0.254159 0 0.554763 0.235896 0 0.574362 0.223921 0 0.594093 0.211005 0 0.608937 0.201363 0 0.625211 0.191253 0 0.637804 0.182555 0 0.651731 0.173711 0 0.662626 0.165201 0 0.674717 0.157536 0 0.684061 0.150433 0 0.694714 0.144512 0 0.702987 0.139271 0 0.711999 0.134415 0 0.719354 0.129834 0 0.727241 0.125305 0 0.734166 0.121011 0 0.740939 0.116882 0 0.747285 0.113148 0 0.753464 0.109743 0 0.759195 0.106622 0 0.764674 0.103665 0 0.769818 0.100809 0 0.774736 0.0980406 0 0.779509 0.0954035 0 0.78405 0.0929137 0 0.788429 0.0905909 0 0.792583 0.0884144 0 0.79655 0.08636 0 0.80056 0.0844261 0 0.805293 0.0826746 0 0.812055 0.081242 0 0.823042 0.0803384 0 0.840147 0.0800297 0 0.86 0.0800001 0 0.88 0.08 0 0.9 0.08 0 0.92 0.08 0 0.94 0.08 0 0.96 0.08 0 0.98 0.08 0 1 0.08 0 0 0.497394 0 0.105455 0.485811 0 0.198801 0.458673 0 0.264766 0.423318 0 0.35672 0.382632 0 0.371943 0.371943 0 0.413207 0.364767 0 0.447851 0.319805 0 0.482842 0.322196 0 0.511214 0.296328 0 0.535643 0.286847 0 0.558915 0.269226 0 0.577634 0.25808 0 0.597014 0.244597 0 0.611962 0.234344 0 0.628435 0.22295 0 0.641291 0.212825 0 0.655263 0.203014 0 0.666152 0.193821 0 0.678134 0.185956 0 0.68741 0.178838 0 0.697681 0.172503 0 0.705812 0.166606 0 0.714644 0.160839 0 0.722199 0.155382 0 0.729829 0.150007 0 0.736731 0.145111 0 0.743573 0.140604 0 0.749788 0.136488 0 0.755813 0.132623 0 0.761425 0.128934 0 0.766815 0.125364 0 0.771862 0.121938 0 0.776795 0.118702 0 0.781496 0.115668 0 0.785999 0.112828 0 0.790294 0.110158 0 0.794362 0.107622 0 0.79853 0.105238 0 0.803521 0.103097 0 0.810726 0.101379 0 0.822403 0.100347 0 0.84009 0.100024 0 0.86 0.1 0 0.88 0.1 0 0.9 0.1 0 0.92 0.1 0 0.94 0.1 0 0.96 0.1 0 0.98 0.1 0 1 0.1 0 0 0.519289 0 0.0937063 0.514662 0 0.176169 0.491718 0 0.25294 0.462469 0 0.291324 0.435946 0 0.364767 0.413207 0 0.397096 0.397096 0 0.431601 0.381785 0 0.459354 0.345633 0 0.490628 0.349849 0 0.517903 0.322689 0 0.54081 0.315169 0 0.563201 0.297173 0 0.581421 0.28654 0 0.600711 0.272067 0 0.615713 0.261296 0 0.632027 0.249207 0 0.644697 0.238733 0 0.658268 0.229013 0 0.668944 0.22006 0 0.680588 0.212103 0 0.689741 0.204697 0 0.699865 0.19762 0 0.708159 0.190998 0 0.716781 0.184433 0 0.724278 0.178399 0 0.731995 0.172723 0 0.738914 0.167559 0 0.745511 0.162697 0 0.751695 0.158131 0 0.75759 0.153719 0 0.763209 0.149505 0 0.768476 0.145476 0 0.773549 0.141696 0 0.778438 0.138155 0 0.783069 0.134823 0 0.787528 0.131673 0 0.791728 0.128668 0 0.796097 0.12586 0 0.80142 0.123368 0 0.809198 0.121416 0 0.821751 0.120321 0 0.840048 0.120017 0 0.86 0.12 0 0.88 0.12 0 0.9 0.12 0 0.92 0.12 0 0.94 0.12 0 0.96 0.12 0 0.98 0.12 0 1 0.12 0 0 0.541472 0 0.0831658 0.537466 0 0.164807 0.519431 0 0.228017 0.495697 0 0.291141 0.472918 0 0.319805 0.447851 0 0.381785 0.431601 0 0.41659 0.41659 0 0.446402 0.400174 0 0.47087 0.36916 0 0.497415 0.374357 0 0.523873 0.344849 0 0.545589 0.33965 0 0.567488 0.320606 0 0.585213 0.310646 0 0.604158 0.295623 0 0.618775 0.28493 0 0.634641 0.272994 0 0.647096 0.262645 0 0.660384 0.252972 0 0.670949 0.243993 0 0.682477 0.235528 0 0.691795 0.227708 0 0.701687 0.219918 0 0.70989 0.212806 0 0.718525 0.205954 0 0.726185 0.199763 0 0.733662 0.193821 0 0.740531 0.188314 0 0.747014 0.182996 0 0.753206 0.177975 0 0.759058 0.173168 0 0.764586 0.168631 0 0.769815 0.164349 0 0.774901 0.160335 0 0.779684 0.15652 0 0.784306 0.152904 0 0.78868 0.149458 0 0.793299 0.146263 0 0.799039 0.143471 0 0.807536 0.141354 0 0.821155 0.140268 0 0.840021 0.140009 0 0.86 0.14 0 0.88 0.14 0 0.9 0.14 0 0.92 0.14 0 0.94 0.14 0 0.96 0.14 0 0.98 0.14 0 1 0.14 0 0 0.561629 0 0.0776063 0.556964 0 0.149219 0.543404 0 0.216011 0.523619 0 0.265488 0.503625 0 0.322196 0.482842 0 0.345633 0.459354 0 0.400174 0.446402 0 0.433868 0.433868 0 0.460242 0.41628 0 0.483346 0.390423 0 0.506388 0.394151 0 0.530627 0.36348 0 0.551271 0.360476 0 0.572342 0.340252 0 0.589308 0.331381 0 0.607665 0.316169 0 0.621852 0.305914 0 0.637192 0.294201 0 0.649396 0.284054 0 0.662475 0.27418 0 0.673043 0.265185 0 0.684352 0.256213 0 0.693469 0.248094 0 0.703273 0.240023 0 0.71172 0.232864 0 0.720122 0.225805 0 0.727695 0.219364 0 0.735118 0.21313 0 0.741801 0.207247 0 0.748366 0.20166 0 0.754393 0.196367 0 0.760224 0.191364 0 0.765646 0.186623 0 0.770924 0.18214 0 0.775893 0.177868 0 0.780671 0.17381 0 0.78525 0.169963 0 0.790178 0.166434 0 0.796439 0.163405 0 0.805818 0.161205 0 0.820672 0.160197 0 0.840008 0.160004 0 0.86 0.16 0 0.88 0.16 0 0.9 0.16 0 0.92 0.16 0 0.94 0.16 0 0.96 0.16 0 0.98 0.16 0 1 0.16 0 0 0.57795 0 0.0709681 0.575867 0 0.139016 0.563291 0 0.197937 0.548817 0 0.254159 0.530222 0 0.296328 0.511214 0 0.349849 0.490628 0 0.36916 0.47087 0 0.41628 0.460242 0 0.449076 0.449076 0 0.472973 0.430664 0 0.496569 0.409111 0 0.517599 0.409092 0 0.538594 0.379858 0 0.558554 0.377625 0 0.578271 0.35686 0 0.594328 0.349207 0 0.611815 0.334071 0 0.62542 0.324385 0 0.640172 0.31277 0 0.652145 0.302934 0 0.664862 0.292769 0 0.675083 0.283781 0 0.686173 0.274567 0 0.695455 0.266576 0 0.705078 0.258376 0 0.713322 0.251047 0 0.721669 0.243858 0 0.729114 0.237222 0 0.736292 0.230811 0 0.743009 0.22482 0 0.749341 0.219067 0 0.755393 0.21364 0 0.761109 0.208452 0 0.76655 0.203524 0 0.771744 0.198832 0 0.776655 0.194373 0 0.781473 0.19018 0 0.786782 0.186371 0 0.793696 0.183176 0 0.804148 0.180993 0 0.820335 0.180124 0 0.840002 0.180001 0 0.86 0.18 0 0.88 0.18 0 0.9 0.18 0 0.92 0.18 0 0.94 0.18 0 0.96 0.18 0 0.98 0.18 0 1 0.18 0 0 0.595236 0 0.0656474 0.590995 0 0.127606 0.583287 0 0.185509 0.569199 0 0.235896 0.554763 0 0.286847 0.535643 0 0.322689 0.517903 0 0.374357 0.497415 0 0.390423 0.483346 0 0.430664 0.472973 0 0.462371 0.462371 0 0.484432 0.443407 0 0.508419 0.425403 0 0.52878 0.421188 0 0.547038 0.394784 0 0.566403 0.392293 0 0.584668 0.37162 0 0.599954 0.364884 0 0.616423 0.349829 0 0.62954 0.340673 0 0.64367 0.329024 0 0.655122 0.319446 0 0.667405 0.309121 0 0.677628 0.300456 0 0.688482 0.291184 0 0.697457 0.283182 0 0.706829 0.274973 0 0.715006 0.267675 0 0.722984 0.260445 0 0.730336 0.253816 0 0.737314 0.247358 0 0.743899 0.241253 0 0.
[...]
			<PointData Scalars="VitesseX">
				<DataArray Name="VitesseX" type="Float32" format="ascii">
 0 1.59676 0.245894 0.9174 0.804247 0.909276 0.918725 0.984067 1.02522 1.05625 1.06421 1.13272 1.15019 1.16018 1.22615 1.23951 1.23313 1.27097 1.30498 1.30747 1.31833 1.32622 1.38542 1.40223 1.44969 1.44593 1.39666 1.49072 1.50031 1.54999 1.52425 1.55413 1.57273 1.57431 1.61184 1.61621 1.62908 1.64337 1.61488 1.50421 1.2327 0.713737 0.106832 0.000620694 1.79988e-08 2.5846e-13 8.29949e-20 -8.26174e-20 8.26174e-20 0 0 0 0.0943462 1.26085 0.474281 0.848853 0.83623 0.936227 0.964148 1.03338 1.03406 1.07481 1.13132 1.13195 1.17554 1.21348 1.23177 1.23575 1.26697 1.30179 1.31309 1.30835 1.33563 1.37675 1.41399 1.43617 1.43492 1.41831 1.49002 1.49692 1.54166 1.52864 1.55204 1.57341 1.57393 1.60972 1.61638 1.62787 1.64283 1.61379 1.50169 1.22748 0.705297 0.102741 0.000570268 1.63526e-08 2.40153e-13 8.29792e-20 -8.26174e-20 8.26174e-20 0 0 0 0.805518 0.149303 1.06235 0.62825 0.807894 0.850104 0.94015 0.976285 1.01917 1.05121 1.10164 1.1245 1.1519 1.20274 1.21385 1.22117 1.2641 1.29679 1.30031 1.31303 1.324 1.39023 1.41365 1.42352 1.40882 1.46104 1.4801 1.49118 1.52363 1.53799 1.54791 1.5747 1.57254 1.60379 1.61659 1.62504 1.64097 1.61047 1.49402 1.2116 0.679654 0.091149 0.000441036 1.23022e-08 1.92417e-13 -4.30939e-20 4.37386e-20 -4.37386e-20 0 0 0 0.564705 0.750191 0.178187 0.620607 0.709417 0.823989 0.870745 0.941788 0.976341 1.04097 1.06929 1.10167 1.156 1.172 1.19601 1.2161 1.25485 1.28726 1.29756 1.29891 1.33605 1.38392 1.41407 1.39928 1.41732 1.47304 1.46531 1.48606 1.50883 1.5429 1.54646 1.57365 1.57202 1.594 1.61594 1.62095 1.63815 1.60477 1.48086 1.1844 0.635988 0.0740172 0.000284779 7.72475e-09 1.32531e-13 8.59398e-20 -8.58572e-20 8.58572e-20 0 0 0 0.253954 0.47461 0.672906 0.551112 0.716228 0.758091 0.868876 0.899894 0.96074 0.998923 1.04613 1.08194 1.1236 1.15418 1.17084 1.20539 1.24628 1.27349 1.28125 1.30182 1.32997 1.38505 1.38438 1.39745 1.43286 1.45879 1.44937 1.48626 1.49755 1.54011 1.54777 1.56951 1.5729 1.58198 1.61342 1.61674 1.63395 1.59607 1.46154 1.14499 0.573505 0.0543047 0.00015152 4.08138e-09 7.81002e-14 4.44529e-22 -1.70905e-19 1.70905e-19 0 0 0 0.206143 0.384329 0.434144 0.70288 0.81932 0.788617 0.800129 0.900144 0.928595 0.973439 1.00978 1.06215 1.09509 1.11822 1.15872 1.18987 1.23089 1.25514 1.26907 1.29188 1.33244 1.35242 1.37707 1.40094 1.43334 1.42265 1.45169 1.47903 1.4969 1.5274 1.55115 1.562 1.57392 1.57135 1.60737 1.61463 1.62681 1.5832 1.43478 1.09229 0.492487 0.0353501 6.52691e-05 1.81644e-09 3.91337e-14 -1.70071e-19 1.70095e-19 -1.70095e-19 0 0 0 0.180874 0.309944 0.449122 0.448473 0.630249 0.826791 0.811073 0.828415 0.916459 0.950168 1.0008 1.0274 1.07106 1.10079 1.1368 1.18206 1.21009 1.23716 1.25708 1.28996 1.30668 1.33787 1.37369 1.41389 1.40001 1.40573 1.44983 1.47086 1.5017 1.51023 1.55205 1.55305 1.57234 1.56652 1.59693 1.61322 1.61758 1.56509 1.39825 1.02463 0.39596 0.0199529 2.22822e-05 6.73351e-10 1.64938e-14 3.93436e-24 1.70095e-19 -1.70095e-19 0 0 0 0.149866 0.30287 0.388759 0.497023 0.515376 0.657101 0.822028 0.835419 0.861091 0.92332 0.981633 1.00666 1.03597 1.08284 1.11982 1.15203 1.19286 1.21697 1.24568 1.26886 1.29153 1.32693 1.38431 1.38202 1.38175 1.40637 1.43494 1.46699 1.4999 1.49913 1.54532 1.5463 1.56491 1.5681 1.5843 1.61097 1.60745 1.54055 1.34846 0.938721 0.291367 0.00950198 5.89488e-06 2.03482e-10 5.72367e-15 3.40189e-19 -3.40189e-19 3.40189e-19 0 0 0 0.150332 0.259245 0.383281 0.442097 0.554164 0.57693 0.706418 0.825052 0.859584 0.900276 0.934102 0.981136 1.02522 1.05186 1.09872 1.13508 1.16114 1.20256 1.22329 1.24731 1.28451 1.3389 1.35291 1.35322 1.37299 1.41453 1.4139 1.47286 1.48155 1.50271 1.52671 1.54233 1.55133 1.5717 1.57591 1.60731 1.59488 1.50837 1.28194 0.828891 0.190672 0.00370088 1.19288e-06 4.91607e-11 1.49506e-15 3.40189e-19 -6.80378e-19 6.80378e-19 -3.40189e-19 0 0 0.127839 0.25193 0.334754 0.448596 0.497039 0.622257 0.649493 0.745322 0.843689 0.881453 0.941876 0.958853 1.00624 1.04213 1.07031 1.11274 1.15032 1.17528 1.20829 1.24022 1.29106 1.31801 1.32042 1.3345 1.38542 1.39352 1.41935 1.46342 1.4676 1.50519 1.50799 1.53406 1.54033 1.57025 1.57659 1.60004 1.57658 1.46733 1.19727 0.68946 0.107214 0.00113814 1.89932e-07 9.56226e-12 2.05898e-16 -3.40189e-19 0 0 0 0 0 0.12365 0.22622 0.331856 0.401945 0.511419 0.549476 0.703534 0.718176 0.785124 0.867442 0.903385 0.977844 0.99529 1.0191 1.06532 1.0907 1.13091 1.17078 1.19602 1.24557 1.2785 1.2862 1.29894 1.35199 1.36751 1.38569 1.4233 1.44469 1.46362 1.49855 1.49807 1.52002 1.53564 1.56138 1.58216 1.58923 1.54947 1.41331 1.09423 0.522187 0.0498319 0.000265143 2.67263e-08 1.59797e-12 1.02776e-17 0 3.40189e-19 -6.80378e-19 6.80378e-19 0 0 0.115392 0.212313 0.306577 0.392589 0.474952 0.578139 0.607701 0.760479 0.771515 0.824547 0.887009 0.917597 1.00098 1.0178 1.04465 1.08537 1.11357 1.15812 1.20235 1.23318 1.25623 1.26698 1.3136 1.34461 1.35434 1.38361 1.42141 1.42107 1.46808 1.48163 1.49761 1.50587 1.53331 1.55233 1.58261 1.57662 1.51358 1.33901 0.967496 0.344731 0.0183731 4.44873e-05 3.74744e-09 2.52222e-13 3.22431e-21 0 3.40189e-19 -3.40189e-19 0 0 0 0.102263 0.197852 0.287108 0.38115 0.465168 0.54222 0.629248 0.642376 0.796568 0.81226 0.84512 0.916145 0.941024 1.02524 1.04428 1.06664 1.11851 1.13987 1.18846 1.22487 1.2301 1.27401 1.32068 1.32633 1.34212 1.39208 1.39358 1.42513 1.4532 1.47171 1.49403 1.49994 1.5275 1.54988 1.57461 1.55774 1.46834 1.24081 0.803264 0.18866 0.00514549 5.09599e-06 4.77892e-10 3.69748e-14 3.40295e-19 -3.40189e-19 -3.40189e-19 1.01895e-18 -1.01895e-18 0 0 0.0970275 0.18816 0.28251 0.36895 0.452359 0.522366 0.594299 0.682011 0.693921 0.820284 0.838886 0.866692 0.938396 0.993238 1.03453 1.09121 1.10135 1.1379 1.17906 1.19028 1.22963 1.28488 1.30225 1.30942 1.34945 1.36764 1.38882 1.4248 1.43434 1.46796 1.48538 1.49931 1.51967 1.54905 1.56155 1.52531 1.40596 1.12018 0.594625 0.0812085 0.00103921 3.98567e-07 4.66678e-11 4.4087e-15 -3.40177e-19 0 -1.61995e-21 0 1.61995e-21 0 0 0.0957731 0.179052 0.276146 0.350348 0.436255 0.501882 0.579071 0.640346 0.721804 0.734917 0.83554 0.870076 0.905096 0.977009 0.994957 1.06955 1.08229 1.12962 1.16067 1.17105 1.23606 1.2783 1.27645 1.30997 1.33922 1.35071 1.39078 1.41661 1.42199 1.46846 1.4698 1.50156 1.5106 1.54384 1.54259 1.48305 1.31515 0.968911 0.36741 0.0261294 0.000140988 2.61852e-08 3.53895e-12 4.00854e-16 0 0 -1.61995e-21 -3.38569e-19 6.80378e-19 0 0 0.0869197 0.175981 0.255063 0.347592 0.408542 0.497687 0.550657 0.633571 0.673092 0.755434 0.773326 0.855222 0.895686 0.908378 1.00899 1.04454 1.07838 1.12845 1.13431 1.1844 1.22971 1.23791 1.26978 1.30541 1.31695 1.35089 1.3937 1.39184 1.43507 1.4483 1.46975 1.49309 1.5077 1.53309 1.51353 1.42654 1.19631 0.763229 0.17683 0.00597384 1.18013e-05 1.91415e-09 2.65633e-13 2.05822e-17 -3.40189e-19 6.80378e-19 -6.80378e-19 6.80378e-19 0 0 0 0.0833457 0.16283 0.251153 0.325534 0.408455 0.464426 0.552375 0.59204 0.676025 0.702727 0.78595 0.802965 0.888686 0.933219 0.952145 1.01821 1.06476 1.06719 1.11863 1.15599 1.19731 1.22175 1.26004 1.28202 1.30898 1.35705 1.36781 1.39666 1.42444 1.43707 1.46769 1.48096 1.503 1.51432 1.4712 1.33887 1.04853 0.504507 0.0621356 0.000906906 5.89944e-07 1.21759e-10 1.99372e-14 3.44649e-21 -6.80378e-19 6.80378e-19 0 -6.80378e-19 6.80378e-19 0 0 0.0794858 0.159399 0.240368 0.319404 0.387371 0.459439 0.517759 0.595932 0.627051 0.713957 0.729738 0.822154 0.842203 0.886515 0.969325 0.973772 1.02627 1.06968 1.1141 1.14059 1.18138 1.21703 1.23924 1.25809 1.30961 1.33653 1.35572 1.39496 1.40702 1.42952 1.45855 1.47005 1.49698 1.48024 1.41348 1.21591 0.843004 0.255541 0.0150239 8.25562e-05 2.30476e-08 5.51442e-12 1.02767e-15 6.80382e-19 0 0 -6.80378e-19 6.78758e-19 -6.78758e-19 0 0 0.0761562 0.15411 0.229664 0.305428 0.371462 0.438327 0.508127 0.565676 0.633124 0.661488 0.751943 0.757304 0.846871 0.870936 0.927356 0.970514 0.995151 1.07031 1.07832 1.11054 1.1628 1.18445 1.20958 1.2613 1.29546 1.31134 1.36164 1.37942 1.38896 1.43103 1.4328 1.46866 1.47215 1.43862 1.31833 1.06236 0.562798 0.0913168 0.00233717 4.0371e-06 1.08286e-09 2.46724e-13 2.05337e-17 -6.78758e-19 6.80378e-19 -6.80378e-19 6.78758e-19 0 -6.78758e-19 0 0 0.0729612 0.143924 0.219927 0.286082 0.358636 0.422004 0.493855 0.550009 0.604571 0.669339 0.700207 0.786042 0.789563 0.869381 0.894203 0.923909 1.01772 1.01765 1.06403 1.12066 1.14183 1.16565 1.20589 1.24995 1.26668 1.30831 1.3455 1.35249 1.39328 1.40241 1.43151 1.45129 1.44091 1.37365 1.18941 0.841717 0.278475 0.0214877 0.000207573 1.13057e-07 4.07791e-11 1.14281e-14 2.05243e-17 -6.78758e-19 6.80378e-19 -6.80378e-19 6.78758e-19 -6.78758e-19 6.80378e-19 0 0 0.0684992 0.138622 0.207331 0.279791 0.345015 0.418742 0.473535 0.536616 0.591746 0.653431 0.706059 0.730265 0.800648 0.797999 0.902231 0.92452 0.955401 1.00176 1.0565 1.10065 1.13239 1.1723 1.21495 1.2234 1.2571 1.30399 1.31448 1.35173 1.37595 1.39035 1.4193 1.42624 1.39064 1.27009 1.02306 0.535381 0.0928603 0.0030517 9.18021e-06 3.33605e-09 1.14802e-12 2.47317e-16 -6.80378e-19 6.80378e-19 0 -6.80378e-19 0 6.80378e-19 0 0 0 0.0670895 0.133822 0.205572 0.274242 0.343326 0.401889 0.464316 0.521887 0.593446 0.63565 0.677509 0.718733 0.75029 0.840338 0.850054 0.91708 0.963023 0.974643 1.02361 1.05979 1.11544 1.15919 1.18999 1.2173 1.26239 1.27889 1.30738 1.34414 1.35022 1.38097 1.4044 1.3836 1.31473 1.12622 0.769613 0.239504 0.0190623 0.000232374 1.92879e-07 1.00582e-10 3.83116e-14 5.6006e-21 -6.80378e-19 6.80378e-19 -6.80378e-19 6.78758e-19 1.61995e-21 -6.80378e-19 6.80378e-19 0 0 0.0666153 0.135898 0.205392 0.273873 0.33202 0.392399 0.455564 0.524236 0.571678 0.614316 0.648774 0.70604 0.765008 0.794385 0.853244 0.860138 0.949537 0.97158 0.984925 1.05505 1.07661 1.12233 1.15637 1.21091 1.23508 1.25979 1.30292 1.30847 1.33835 1.36947 1.36412 1.32829 1.18512 0.930401 0.433883 0.0667854 0.00224375 7.60103e-06 3.97668e-09 1.97461e-12 1.02899e-15 -1.35912e-18 0 6.80378e-19 -6.80378e-19 1.35914e-18 -1.35914e-18 6.78758e-19 -6.78758e-19 0 0 0.0666986 0.135568 0.199634 0.262207 0.321921 0.387281 0.453491 0.505774 0.545043 0.589275 0.647841 0.697349 0.739692 0.774638 0.805857 0.882402 0.889532 0.951691 0.991942 1.03674 1.07573 1.07643 1.14508 1.18489 1.20226 1.25172 1.26651 1.2903 1.32452 1.33422 1.31411 1.21848 1.0211 0.621014 0.155302 0.0111151 0.000117377 1.16826e-07 8.45577e-11 4.70674e-14 1.98927e-17 6.78758e-19 1.61995e-21 -6.80378e-19 6.80378e-19 -6.80378e-19 6.78758e-19 0 -6.78758e-19 0 0 0.0643209 0.129509 0.188873 0.251279 0.31873 0.380383 0.433762 0.477926 0.530052 0.584466 0.635039 0.673844 0.712098 0.758779 0.806194 0.830877 0.894703 0.921381 0.986708 1.01133 1.04672 1.10282 1.11873 1.14731 1.20671 1.21203 1.24374 1.27916 1.2901 1.28375 1.22723 1.05933 0.765206 0.269517 0.034422 0.000826436 2.6634e-06 1.78436e-09 1.24876e-12 7.40637e-16 -6.80343e-19 6.78758e-19 1.61995e-21 -6.80378e-19 6.80378e-19 -6.80378e-19 6.78758e-19 -6.78758e-19 6.80378e-19 0 0 0.0566781 0.120605 0.184238 0.249594 0.310186 0.362184 0.410475 0.468339 0.522939 0.572099 0.608043 0.656997 0.703384 0.7466 0.775994 0.825561 0.866039 0.933232 0.939979 0.997289 1.04895 1.06796 1.10516 1.15466 1.16292 1.20066 1.23614 1.25024 1.24929 1.20538 1.06833 0.854834 0.379003 0.0756989 0.00327091 3.05624e-05 2.33665e-08 2.84712e-11 2.12931e-14 -4.10849e-17 0 -1.36076e-18 1.36076e-18 0 0 0 -1.36076e-18 2.03951e-18 -1.35914e-18 0 0 0.0567228 0.120713 0.185397 0.241297 0.292498 0.345559 0.405896 0.460171 0.509475 0.549728 0.602665 0.646744 0.691129 0.719533 0.771074 0.813509 0.861035 0.88515 0.951179 0.98234 1.01895 1.05388 1.09278 1.11893 1.15349 1.19455 1.21361 1.21602 1.1796 1.06488 0.887313 0.464032 0.127203 0.00852634 0.000183273 2.4168e-07 3.93975e-10 2.76814e-13 2.88434e-16 1.18031e-23 -6.80378e-19 6.78758e-19 -6.78758e-19 6.80378e-19 0 -6.80378e-19 0 6.78758e-19 0 0 0 0.061182 0.119529 0.175082 0.229386 0.284199 0.342893 0.396317 0.446728 0.494829 0.548146 0.588517 0.630858 0.666855 0.722011 0.756813 0.800095 0.828556 0.896736 0.921229 0.96418 1.00094 1.04295 1.06914 1.09884 1.1393 1.1649 1.17904 1.15515 1.05009 0.894097 0.520586 0.172247 0.0164897 0.000628777 1.61643e-06 3.1497e-09 2.59581e-12 4.33678e-15 -6.80242e-19 0 6.78758e-19 0 0 1.61995e-21 -6.80378e-19 0 1.35914e-18 -2.03951e-18 1.35914e-18 0 0 0.0585684 0.114261 0.169986 0.225924 0.280981 0.334188 0.390078 0.444062 0.493119 0.531053 0.572327 0.614751 0.66768 0.699231 0.741564 0.775759 0.836884 0.859176 0.908447 0.938821 0.993602 1.01529 1.04269 1.09149 1.11753 1.11855 1.10604 1.02267 0.889756 0.545428 0.204743 0.0249969 0.00135338 6.68909e-06 1.64326e-08 1.7516e-11 3.90503e-14 6.82906e-19 -6.79568e-19 6.79568e-19 0 -6.79568e-19 6.79568e-19 8.09974e-22 -1.35995e-18 2.03951e-18 -6.80378e-19 -1.35914e-18 1.35914e-18 0 0 0.055964 0.110879 0.165976 0.220899 0.275504 0.330823 0.383048 0.431197 0.474993 0.52106 0.564763 0.608797 0.641752 0.687022 0.726437 0.777505 0.799533 0.854769 0.880904 0.940052 0.94991 0.997103 1.04137 1.05432 1.07531 1.06099 0.966168 0.85161 0.540848 0.222603 0.0310502 0.0021722 1.70252e-05 5.486e-08 7.81529e-11 2.02677e-13 1.43897e-16 8.25702e-22 6.79568e-19 -8.09974e-22 0 8.09974e-22 -6.79568e-19 -8.09974e-22 6.79568e-19 0 -1.35914e-18 1.35914e-18 0 0 0 0.053821 0.108515 0.16405 0.218639 0.271423 0.320952 0.370127 0.420395 0.470215 0.513108 0.552946 0.590079 0.635953 0.676616 0.717887 0.746805 0.800137 0.82986 0.881072 0.891959 0.957063 0.9734 1.00354 1.02235 0.995071 0.921188 0.804843 0.499042 0.21561 0.0332575 0.00280994 2.82102e-05 1.24933e-07 2.14889e-10 6.44698e-13 6.99579e-16 1.81769e-22 1.61995e-21 -6.80378e-19 6.78758e-19 -1.35833e-18 2.0387e-18 -1.35914e-18 6.78758e-19 0 -1.35914e-18 1.35914e-18 1.35914e-18 -2.71827e-18 0 0 0.0537207 0.107136 0.160466 0.21331 0.265306 0.316262 0.365352 0.411611 0.45474 0.497628 0.538594 0.580165 0.618459 0.659261 0.698187 0.745731 0.776676 0.821351 0.846227 0.907 0.910971 0.959321 0.944105 0.933912 0.85893 0.735687 0.446063 0.189671 0.0296019 0.00279614 3.43612e-05 2.01956e-07 3.73445e-10 1.40619e-12 2.4246e-15 6.80857e-19 -1.61995e-21 1.61995e-21 -6.80378e-19 6.78758e-19 -1.35833e-18 1.35833e-18 0 0 -1.35914e-18 1.35914e-18 0 0 0 0 0 0.0527978 0.105651 0.158015 0.208914 0.258009 0.305542 0.352918 0.399757 0.444972 0.485876 0.524711 0.56313 0.605617 0.647641 0.690179 0.723504 0.76652 0.800058 0.848867 0.856946 0.899332 0.87075 0.869284 0.767569 0.654966 0.368325 0.151844 0.0231651 0.0021476 2.80539e-05 2.01775e-07 4.62968e-10 2.23564e-12 4.25515e-15 -2.22345e-21 -6.80378e-19 6.78758e-19 -6.78758e-19 6.80378e-19 -1.36076e-18 2.71827e-18 -2.71827e-18 1.35914e-18 0 0 0 0 -1.35914e-18 1.35914e-18 0 0 0.0513914 0.102367 0.152865 0.202437 0.250844 0.29824 0.344317 0.388315 0.431163 0.473462 0.514442 0.554664 0.593622 0.633722 0.6729 0.714263 0.750809 0.785643 0.802719 0.828175 0.800776 0.782207 0.6732 0.547157 0.27293 0.108582 0.0148949 0.00133097 1.68836e-05 1.24616e-07 3.71784e-10 2.23355e-12 5.30396e-15 -1.34766e-18 6.80378e-19 -1.36076e-18 2.03951e-18 -6.80378e-19 -6.78758e-19 6.78758e-19 0 -1.35914e-18 1.35914e-18 0 0 0 0 -1.35914e-18 1.35914e-18 0 0 0.0503388 0.0999814 0.148755 0.19608 0.242336 0.288508 0.334783 0.380188 0.423656 0.463812 0.50354 0.544694 0.586452 0.625331 0.663852 0.694986 0.723023 0.740122 0.748657 0.720059 0.681705 0.565152 0.410209 0.183592 0.0638628 0.00756296 0.000617986 6.61188e-06 5.45871e-08 2.13366e-10 1.40253e-12 4.25512e-15 9.85557e-21 -6.78758e-19 0 6.78758e-19 -6.78758e-19 6.78758e-19 0 0 0 0 0 -1.35914e-18 1.35914e-18 0 -1.35914e-18 1.35914e-18 0 0 0 0.048686 0.0970003 0.144798 0.192116 0.238436 0.283903 0.327585 0.370234 0.412595 0.454779 0.495909 0.536301 0.573682 0.606759 0.634204 0.656403 0.666447 0.659452 0.625432 0.563591 0.430253 0.268902 0.106133 0.029053 0.0029463 0.000180428 1.58989e-06 1.63119e-08 7.72712e-11 6.41245e-13 2.42596e-15 -2.22345e-21 -6.80378e-19 8.09974e-22 6.78758e-19 0 0 -1.35914e-18 1.35914e-18 0 0 0 -1.35914e-18 1.35914e-18 0 0 -1.35914e-18 2.71827e-18 -2.71827e-18 0 0 0.0473538 0.0943534 0.140615 0.186671 0.23241 0.277505 0.321767 0.364644 0.405311 0.443375 0.480097 0.514787 0.544219 0.566885 0.57975 0.576489 0.557511 0.510126 0.418443 0.280901 0.146617 0.0479339 0.00959259 0.000768386 3.01227e-05 2.36191e-07 3.12012e-09 1.71895e-11 2.01569e-13 6.98221e-16 6.80067e-19 -6.80378e-19 0 6.79568e-19 0 0 0 0 -1.35914e-18 1.35914e-18 -1.35914e-18 1.35914e-18 0 0 0 -1.35833e-18 1.35833e-18 0 0 0 0 0.0460968 0.0920463 0.137485 0.182674 0.227017 0.269793 0.311236 0.350525 0.386666 0.419185 0.44826 0.472125 0.485852 0.486469 0.471856 0.434471 0.360984 0.257806 0.147207 0.0604449 0.0148212 0.00201457 0.000112202 2.62074e-06 2.26395e-08 3.89398e-10 2.52667e-12 3.87625e-14 1.43895e-16 1.36094e-18 -1.35914e-18 6.78758e-19 -6.78758e-19 6.78758e-19 0 0 -1.35914e-18 1.35914e-18 1.35914e-18 -2.71827e-18 0 1.35914e-18 1.35914e-18 -2.71827e-18 1.35914e-18 -1.35833e-18 2.71746e-18 -2.71827e-18 1.35914e-18 0 0 0.0438987 0.0875875 0.13075 0.17306 0.213943 0.252676 0.288718 0.321284 0.349103 0.370402 0.383378 0.386431 0.375114 0.340894 0.279665 0.201042 0.121158 0.054033 0.015668 0.00259156 0.000217346 7.37708e-06 1.13477e-07 1.73038e-09 2.79676e-11 2.68718e-13 4.33677e-15 -6.75456e-19 1.96628e-23 1.35914e-18 -1.35914e-18 6.78758e-19 6.80378e-19 -2.03951e-18 1.35914e-18 0 -1.35914e-18 1.35914e-18 1.35914e-18 -2.71827e-18 1.35914e-18 0 -1.35833e-18 1.35833e-18 -1.35914e-18 2.71827e-18 -1.35914e-18 -1.35914e-18 1.35914e-18 0 0 0.0395213 0.0786493 0.116855 0.153445 0.187488 0.21781 0.243214 0.262694 0.274931 0.276986 0.263898 0.23226 0.185618 0.132522 0.079405 0.0354701 0.0105518 0.00192701 0.000189375 8.80611e-06 1.85282e-07 3.81378e-09 8.21932e-11 1.2084e-12 2.06354e-14 2.87076e-16 6.77275e-19 -6.78758e-19 6.80378e-19 -6.80378e-19 6.80378e-19 -6.80378e-19 6.78758e-19 0 -1.35914e-18 1.35914e-18 1.35914e-18 -1.35914e-18 -1.35914e-18 1.35914e-18 0 0 -1.35833e-18 1.35833e-18 0 0 -1.35914e-18 1.35914e-18 0 0 0 0.0309211 0.0610827 0.0896046 0.115408 0.137105 0.152842 0.160398 0.157896 0.145129 0.124201 0.0978366 0.0677094 0.0376812 0.0153238 0.00424617 0.000745539 7.4631e-05 3.81871e-06 1.06658e-07 3.14089e-09 9.67979e-11 1.88401e-12 4.55451e-14 8.22807e-16 -4.10849e-17 1.18031e-23 -1.36076e-18 2.03951e-18 -1.35914e-18 6.78758e-19 -6.78758e-19 0 6.78758e-19 0 0 -1.35914e-18 2.71827e-18 -2.71827e-18 1.35914e-18 0 0 -1.35914e-18 1.35914e-18 0 0 0 -1.35914e-18 2.71827e-18 -2.71827e-18 0 0 0.0162037 0.0311882 0.0437727 0.0529326 0.0579609 0.0585305 0.0545476 0.0460665 0.0338617 0.0204535 0.00954566 0.00326172 0.00077348 0.000118256 1.06631e-05 5.4612e-07 2.09712e-08 1.00397e-09 3.85796e-11 1.0739e-12 3.62975e-14 9.86483e-16 1.98934e-17 6.796e-19 0 -6.79568e-19 6.78758e-19 0 0 -1.35833e-18 1.35833e-18 0 0 0 0 -1.35914e-18 0 1.35914e-18 0 0 -1.35833e-18 1.35833e-18 0 0 0 -1.35833e-18 1.35833e-18 0 0 0 0 0.00379843 0.00697258 0.0089757 0.00945311 0.00839573 0.00624785 0.00380635 0.00183935 0.000680273 0.000184774 3.49922e-05 4.3466e-06 3.49847e-07 2.25958e-08 1.68164e-09 1.11237e-10 5.0454e-12 2.2432e-13 1.09759e-14 2.45949e-16 1.3631e-18 -1.35993e-18 6.79568e-19 -6.79568e-19 0 6.79568e-19 0 -6.78758e-19 1.35914e-18 -2.0387e-18 1.35833e-18 0 -1.35914e-18 2.71827e-18 -2.71827e-18 1.35914e-18 -1.35914e-18 2.71827e-18 -2.71827e-18 1.35914e-18 -1.35833e-18 1.35833e-18 1.35914e-18 -2.71827e-18 1.35914e-18 -1.35833e-18 2.71746e-18 -2.71827e-18 1.35914e-18 0 0 5.00492e-05 7.82881e-05 7.70407e-05 5.55939e-05 3.03665e-05 1.25281e-05 3.83989e-06 8.59696e-07 1.43109e-07 2.01025e-08 2.87877e-09 3.91198e-10 4.00906e-11 3.04622e-12 2.27857e-13 1.78805e-14 1.02765e-15 -1.91573e-17 1.91668e-17 6.80378e-19 -6.80378e-19 0 1.35914e-18 -1.35914e-18 0 6.78758e-19 0 -6.78758e-19 6.80378e-19 -1.61995e-21 0 -1.35914e-18 1.35914e-18 0 -1.35914e-18 2.71827e-18 -1.35914e-18 -1.35833e-18 1.35833e-18 -1.35914e-18 2.71827e-18 -1.35914e-18 -1.35833e-18 1.35833e-18 -1.35914e-18 2.71827e-18 -1.35914e-18 -1.35914e-18 1.35914e-