<?xml version="1.0"?>
<VTKFile type="PolyData">
	<PolyData>
		<Piece NumberOfPoints="2601" NumberOfPolys="2500">
			<Points>
				<DataArray type="Float32" NumberOfComponents="3" format="ascii">
 0 0 0 0.133165 0 0 0.131624 0 0 0.150432 0 0 0.161187 0 0 0.168517 0 0 0.175286 0 0 0.180865 0 0 0.185559 0 0 0.191902 0 0 0.202661 0 0 0.220079 0 0 0.24 0 0 0.26 0 0 0.28 0 0 0.3 0 0 0.32 0 0 0.34 0 0 0.36 0 0 0.38 0 0 0.4 0 0 0.42 0 0 0.44 0 0 0.46 0 0 0.48 0 0 0.5 0 0 0.52 0 0 0.54 0 0 0.56 0 0 0.58 0 0 0.6 0 0 0.62 0 0 0.64 0 0 0.66 0 0 0.68 0 0 0.7 0 0 0.72 0 0 0.74 0 0 0.76 0 0 0.78 0 0 0.8 0 0 0.82 0 0 0.84 0 0 0.86 0 0 0.88 0 0 0.9 0 0 0.92 0 0 0.94 0 0 0.96 0 0 0.98 0 0 1 0 0 0 0.133165 0 0.0909936 0.0909936 0 0.134441 0.0550779 0 0.144919 0.0468711 0 0.157633 0.0383407 0 0.166161 0.0333146 0 0.173157 0.0294245 0 0.179169 0.0261502 0 0.184229 0.0234089 0 0.191089 0.0214071 0 0.202327 0.0203205 0 0.220064 0.0200146 0 0.24 0.02 0 0.26 0.02 0 0.28 0.02 0 0.3 0.02 0 0.32 0.02 0 0.34 0.02 0 0.36 0.02 0 0.38 0.02 0 0.4 0.02 0 0.42 0.02 0 0.44 0.02 0 0.46 0.02 0 0.48 0.02 0 0.5 0.02 0 0.52 0.02 0 0.54 0.02 0 0.56 0.02 0 0.58 0.02 0 0.6 0.02 0 0.62 0.02 0 0.64 0.02 0 0.66 0.02 0 0.68 0.02 0 0.7 0.02 0 0.72 0.02 0 0.74 0.02 0 0.76 0.02 0 0.78 0.02 0 0.8 0.02 0 0.82 0.02 0 0.84 0.02 0 0.86 0.02 0 0.88 0.02 0 0.9 0.02 0 0.92 0.02 0 0.94 0.02 0 0.96 0.02 0 0.98 0.02 0 1 0.02 0 0 0.131624 0 0.0550779 0.134441 0 0.102042 0.102042 0 0.132875 0.0853865 0 0.147779 0.0732025 0 0.158418 0.0640533 0 0.167545 0.0568415 0 0.17418 0.050798 0 0.180638 0.0457754 0 0.188813 0.0422415 0 0.201529 0.0404399 0 0.220033 0.0400149 0 0.24 0.04 0 0.26 0.04 0 0.28 0.04 0 0.3 0.04 0 0.32 0.04 0 0.34 0.04 0 0.36 0.04 0 0.38 0.04 0 0.4 0.04 0 0.42 0.04 0 0.44 0.04 0 0.46 0.04 0 0.48 0.04 0 0.5 0.04 0 0.52 0.04 0 0.54 0.04 0 0.56 0.04 0 0.58 0.04 0 0.6 0.04 0 0.62 0.04 0 0.64 0.04 0 0.66 0.04 0 0.68 0.04 0 0.7 0.04 0 0.72 0.04 0 0.74 0.04 0 0.76 0.04 0 0.78 0.04 0 0.8 0.04 0 0.82 0.04 0 0.84 0.04 0 0.86 0.04 0 0.88 0.04 0 0.9 0.04 0 0.92 0.04 0 0.94 0.04 0 0.96 0.04 0 0.98 0.04 0 1 0.04 0 0 0.150432 0 0.0468711 0.144919 0 0.0853865 0.132875 0 0.110405 0.110405 0 0.132765 0.101959 0 0.148271 0.0897758 0 0.158464 0.080974 0 0.167172 0.0727289 0 0.175485 0.0665288 0 0.185685 0.0621822 0 0.200714 0.0603299 0 0.220011 0.060007 0 0.24 0.06 0 0.26 0.06 0 0.28 0.06 0 0.3 0.06 0 0.32 0.06 0 0.34 0.06 0 0.36 0.06 0 0.38 0.06 0 0.4 0.06 0 0.42 0.06 0 0.44 0.06 0 0.46 0.06 0 0.48 0.06 0 0.5 0.06 0 0.52 0.06 0 0.54 0.06 0 0.56 0.06 0 0.58 0.06 0 0.6 0.06 0 0.62 0.06 0 0.64 0.06 0 0.66 0.06 0 0.68 0.06 0 0.7 0.06 0 0.72 0.06 0 0.74 0.06 0 0.76 0.06 0 0.78 0.06 0 0.8 0.06 0 0.82 0.06 0 0.84 0.06 0 0.86 0.06 0 0.88 0.06 0 0.9 0.06 0 0.92 0.06 0 0.94 0.06 0 0.96 0.06 0 0.98 0.06 0 1 0.06 0 0 0.161187 0 0.0383407 0.157633 0 0.0732025 0.147779 0 0.101959 0.132765 0 0.118393 0.118393 0 0.135112 0.111896 0 0.14864 0.100151 0 0.159084 0.0922322 0 0.169808 0.0854 0 0.182712 0.0814633 0 0.200219 0.0801407 0 0.220002 0.0800017 0 0.24 0.08 0 0.26 0.08 0 0.28 0.08 0 0.3 0.08 0 0.32 0.08 0 0.34 0.08 0 0.36 0.08 0 0.38 0.08 0 0.4 0.08 0 0.42 0.08 0 0.44 0.08 0 0.46 0.08 0 0.48 0.08 0 0.5 0.08 0 0.52 0.08 0 0.54 0.08 0 0.56 0.08 0 0.58 0.08 0 0.6 0.08 0 0.62 0.08 0 0.64 0.08 0 0.66 0.08 0 0.68 0.08 0 0.7 0.08 0 0.72 0.08 0 0.74 0.08 0 0.76 0.08 0 0.78 0.08 0 0.8 0.08 0 0.82 0.08 0 0.84 0.08 0 0.86 0.08 0 0.88 0.08 0 0.9 0.08 0 0.92 0.08 0 0.94 0.08 0 0.96 0.08 0 0.98 0.08 0 1 0.08 0 0 0.168517 0 0.0333146 0.166161 0 0.0640533 0.158418 0 0.0897758 0.148271 0 0.111896 0.135112 0 0.123868 0.123868 0 0.138377 0.117742 0 0.151525 0.108696 0 0.164664 0.10335 0 0.180847 0.100588 0 0.20004 0.100033 0 0.22 0.1 0 0.24 0.1 0 0.26 0.1 0 0.28 0.1 0 0.3 0.1 0 0.32 0.1 0 0.34 0.1 0 0.36 0.1 0 0.38 0.1 0 0.4 0.1 0 0.42 0.1 0 0.44 0.1 0 0.46 0.1 0 0.48 0.1 0 0.5 0.1 0 0.52 0.1 0 0.54 0.1 0 0.56 0.1 0 0.58 0.1 0 0.6 0.1 0 0.62 0.1 0 0.64 0.1 0 0.66 0.1 0 0.68 0.1 0 0.7 0.1 0 0.72 0.1 0 0.74 0.1 0 0.76 0.1 0 0.78 0.1 0 0.8 0.1 0 0.82 0.1 0 0.84 0.1 0 0.86 0.1 0 0.88 0.1 0 0.9 0.1 0 0.92 0.1 0 0.94 0.1 0 0.96 0.1 0 0.98 0.1 0 1 0.1 0 0 0.175286 0 0.0294245 0.173157 0 0.0568415 0.167545 0 0.080974 0.158464 0 0.100151 0.14864 0 0.117742 0.138377 0 0.129939 0.129939 0 0.14524 0.125166 0 0.161398 0.121141 0 0.180156 0.120137 0 0.200003 0.120003 0 0.22 0.12 0 0.24 0.12 0 0.26 0.12 0 0.28 0.12 0 0.3 0.12 0 0.32 0.12 0 0.34 0.12 0 0.36 0.12 0 0.38 0.12 0 0.4 0.12 0 0.42 0.12 0 0.44 0.12 0 0.46 0.12 0 0.48 0.12 0 0.5 0.12 0 0.52 0.12 0 0.54 0.12 0 0.56 0.12 0 0.58 0.12 0 0.6 0.12 0 0.62 0.12 0 0.64 0.12 0 0.66 0.12 0 0.68 0.12 0 0.7 0.12 0 0.72 0.12 0 0.74 0.12 0 0.76 0.12 0 0.78 0.12 0 0.8 0.12 0 0.82 0.12 0 0.84 0.12 0 0.86 0.12 0 0.88 0.12 0 0.9 0.12 0 0.92 0.12 0 0.94 0.12 0 0.96 0.12 0 0.98 0.12 0 1 0.12 0 0 0.180865 0 0.0261502 0.179169 0 0.050798 0.17418 0 0.0727289 0.167172 0 0.0922322 0.159084 0 0.108696 0.151525 0 0.125166 0.14524 0 0.141283 0.141283 0 0.160257 0.140255 0 0.180012 0.140011 0 0.2 0.14 0 0.22 0.14 0 0.24 0.14 0 0.26 0.14 0 0.28 0.14 0 0.3 0.14 0 0.32 0.14 0 0.34 0.14 0 0.36 0.14 0 0.38 0.14 0 0.4 0.14 0 0.42 0.14 0 0.44 0.14 0 0.46 0.14 0 0.48 0.14 0 0.5 0.14 0 0.52 0.14 0 0.54 0.14 0 0.56 0.14 0 0.58 0.14 0 0.6 0.14 0 0.62 0.14 0 0.64 0.14 0 0.66 0.14 0 0.68 0.14 0 0.7 0.14 0 0.72 0.14 0 0.74 0.14 0 0.76 0.14 0 0.78 0.14 0 0.8 0.14 0 0.82 0.14 0 0.84 0.14 0 0.86 0.14 0 0.88 0.14 0 0.9 0.14 0 0.92 0.14 0 0.94 0.14 0 0.96 0.14 0 0.98 0.14 0 1 0.14 0 0 0.185559 0 0.0234089 0.184229 0 0.0457754 0.180638 0 0.0665288 0.175485 0 0.0854 0.169808 0 0.10335 0.164664 0 0.121141 0.161398 0 0.140255 0.160257 0 0.160012 0.160012 0 0.18 0.16 0 0.2 0.16 0 0.22 0.16 0 0.24 0.16 0 0.26 0.16 0 0.28 0.16 0 0.3 0.16 0 0.32 0.16 0 0.34 0.16 0 0.36 0.16 0 0.38 0.16 0 0.4 0.16 0 0.42 0.16 0 0.44 0.16 0 0.46 0.16 0 0.48 0.16 0 0.5 0.16 0 0.52 0.16 0 0.54 0.16 0 0.56 0.16 0 0.58 0.16 0 0.6 0.16 0 0.62 0.16 0 0.64 0.16 0 0.66 0.16 0 0.68 0.16 0 0.7 0.16 0 0.72 0.16 0 0.74 0.16 0 0.76 0.16 0 0.78 0.16 0 0.8 0.16 0 0.82 0.16 0 0.84 0.16 0 0.86 0.16 0 0.88 0.16 0 0.9 0.16 0 0.92 0.16 0 0.94 0.16 0 0.96 0.16 0 0.98 0.16 0 1 0.16 0 0 0.191902 0 0.0214071 0.191089 0 0.0422415 0.188813 0 0.0621822 0.185685 0 0.0814633 0.182712 0 0.100588 0.180847 0 0.120137 0.180156 0 0.140011 0.180012 0 0.16 0.18 0 0.18 0.18 0 0.2 0.18 0 0.22 0.18 0 0.24 0.18 0 0.26 0.18 0 0.28 0.18 0 0.3 0.18 0 0.32 0.18 0 0.34 0.18 0 0.36 0.18 0 0.38 0.18 0 0.4 0.18 0 0.42 0.18 0 0.44 0.18 0 0.46 0.18 0 0.48 0.18 0 0.5 0.18 0 0.52 0.18 0 0.54 0.18 0 0.56 0.18 0 0.58 0.18 0 0.6 0.18 0 0.62 0.18 0 0.64 0.18 0 0.66 0.18 0 0.68 0.18 0 0.7 0.18 0 0.72 0.18 0 0.74 0.18 0 0.76 0.18 0 0.78 0.18 0 0.8 0.18 0 0.82 0.18 0 0.84 0.18 0 0.86 0.18 0 0.88 0.18 0 0.9 0.18 0 0.92 0.18 0 0.94 0.18 0 0.96 0.18 0 0.98 0.18 0 1 0.18 0 0 0.202661 0 0.0203205 0.202327 0 0.0404399 0.201529 0 0.0603299 0.200714 0 0.0801407 0.200219 0 0.100033 0.20004 0 0.120003 0.200003 0 0.14 0.2 0 0.16 0.2 0 0.18 0.2 0 0.2 0.2 0 0.22 0.2 0 0.24 0.2 0 0.26 0.2 0 0.28 0.2 0 0.3 0.2 0 0.32 0.2 0 0.34 0.2 0 0.36 0.2 0 0.38 0.2 0 0.4 0.2 0 0.42 0.2 0 0.44 0.2 0 0.46 0.2 0 0.48 0.2 0 0.5 0.2 0 0.52 0.2 0 0.54 0.2 0 0.56 0.2 0 0.58 0.2 0 0.6 0.2 0 0.62 0.2 0 0.64 0.2 0 0.66 0.2 0 0.68 0.2 0 0.7 0.2 0 0.72 0.2 0 0.74 0.2 0 0.76 0.2 0 0.78 0.2 0 0.8 0.2 0 0.82 0.2 0 0.84 0.2 0 0.86 0.2 0 0.88 0.2 0 0.9 0.2 0 0.92 0.2 0 0.94 0.2 0 0.96 0.2 0 0.98 0.2 0 1 0.2 0 0 0.220079 0 0.0200146 0.220064 0 0.0400149 0.220033 0 0.060007 0.220011 0 0.0800017 0.220002 0 0.1 0.22 0 0.12 0.22 0 0.14 0.22 0 0.16 0.22 0 0.18 0.22 0 0.2 0.22 0 0.22 0.22 0 0.24 0.22 0 0.26 0.22 0 0.28 0.22 0 0.3 0.22 0 0.32 0.22 0 0.34 0.22 0 0.36 0.22 0 0.38 0.22 0 0.4 0.22 0 0.42 0.22 0 0.44 0.22 0 0.46 0.22 0 0.48 0.22 0 0.5 0.22 0 0.52 0.22 0 0.54 0.22 0 0.56 0.22 0 0.58 0.22 0 0.6 0.22 0 0.62 0.22 0 0.64 0.22 0 0.66 0.22 0 0.68 0.22 0 0.7 0.22 0 0.72 0.22 0 0.74 0.22 0 0.76 0.22 0 0.78 0.22 0 0.8 0.22 0 0.82 0.22 0 0.84 0.22 0 0.86 0.22 0 0.88 0.22 0 0.9 0.22 0 0.92 0.22 0 0.94 0.22 0 0.96 0.22 0 0.98 0.22 0 1 0.22 0 0 0.24 0 0.02 0.24 0 0.04 0.24 0 0.06 0.24 0 0.08 0.24 0 0.1 0.24 0 0.12 0.24 0 0.14 0.24 0 0.16 0.24 0 0.18 0.24 0 0.2 0.24 0 0.22 0.24 0 0.24 0.24 0 0.26 0.24 0 0.28 0.24 0 0.3 0.24 0 0.32 0.24 0 0.34 0.24 0 0.36 0.24 0 0.38 0.24 0 0.4 0.24 0 0.42 0.24 0 0.44 0.24 0 0.46 0.24 0 0.48 0.24 0 0.5 0.24 0 0.52 0.24 0 0.54 0.24 0 0.56 0.24 0 0.58 0.24 0 0.6 0.24 0 0.62 0.24 0 0.64 0.24 0 0.66 0.24 0 0.68 0.24 0 0.7 0.24 0 0.72 0.24 0 0.74 0.24 0 0.76 0.24 0 0.78 0.24 0 0.8 0.24 0 0.82 0.24 0 0.84 0.24 0 0.86 0.24 0 0.88 0.24 0 0.9 0.24 0 0.92 0.24 0 0.94 0.24 0 0.96 0.24 0 0.98 0.24 0 1 0.24 0 0 0.26 0 0.02 0.26 0 0.04 0.26 0 0.06 0.26 0 0.08 0.26 0 0.1 0.26 0 0.12 0.26 0 0.14 0.26 0 0.16 0.26 0 0.18 0.26 0 0.2 0.26 0 0.22 0.26 0 0.24 0.26 0 0.26 0.26 0 0.28 0.26 0 0.3 0.26 0 0.32 0.26 0 0.34 0.26 0 0.36 0.26 0 0.38 0.26 0 0.4 0.26 0 0.42 0.26 0 0.44 0.26 0 0.46 0.26 0 0.48 0.26 0 0.5 0.26 0 0.52 0.26 0 0.54 0.26 0 0.56 0.26 0 0.58 0.26 0 0.6 0.26 0 0.62 0.26 0 0.64 0.26 0 0.66 0.26 0 0.68 0.26 0 0.7 0.26 0 0.72 0.26 0 0.74 0.26 0 0.76 0.26 0 0.78 0.26 0 0.8 0.26 0 0.82 0.26 0 0.84 0.26 0 0.86 0.26 0 0.88 0.26 0 0.9 0.26 0 0.92 0.26 0 0.94 0.26 0 0.96 0.26 0 0.98 0.26 0 1 0.26 0 0 0.28 0 0.02 0.28 0 0.04 0.28 0 0.06 0.28 0 0.08 0.28 0 0.1 0.28 0 0.12 0.28 0 0.14 0.28 0 0.16 0.28 0 0.18 0.28 0 0.2 0.28 0 0.22 0.28 0 0.24 0.28 0 0.26 0.28 0 0.28 0.28 0 0.3 0.28 0 0.32 0.28 0 0.34 0.28 0 0.36 0.28 0 0.38 0.28 0 0.4 0.28 0 0.42 0.28 0 0.44 0.28 0 0.46 0.28 0 0.48 0.28 0 0.5 0.28 0 0.52 0.28 0 0.54 0.28 0 0.56 0.28 0 0.58 0.28 0 0.6 0.28 0 0.62 0.28 0 0.64 0.28 0 0.66 0.28 0 0.68 0.28 0 0.7 0.28 0 0.72 0.28 0 0.74 0.28 0 0.76 0.28 0 0.78 0.28 0 0.8 0.28 0 0.82 0.28 0 0.84 0.28 0 0.86 0.28 0 0.88 0.28 0 0.9 0.28 0 0.92 0.28 0 0.94 0.28 0 0.96 0.28 0 0.98 0.28 0 1 0.28 0 0 0.3 0 0.02 0.3 0 0.04 0.3 0 0.06 0.3 0 0.08 0.3 0 0.1 0.3 0 0.12 0.3 0 0.14 0.3 0 0.16 0.3 0 0.18 0.3 0 0.2 0.3 0 0.22 0.3 0 0.24 0.3 0 0.26 0.3 0 0.28 0
[...]
			<PointData Scalars="VitesseX">
				<DataArray Name="VitesseX" type="Float32" format="ascii">
 0 5.34224 4.96551 5.12952 6.37833 7.36743 6.62049 7.555 7.18573 5.6647 2.67053 0.156181 0.00010552 2.13754e-10 -1.07651e-12 1.07688e-12 -1.36719e-21 -1.07688e-12 1.07688e-12 -6.29068e-19 -1.07687e-12 1.07657e-12 -1.07657e-12 5.56648e-22 1.07687e-12 1.31616e-17 -1.07689e-12 1.07584e-12 -3.63414e-12 3.63414e-12 -1.07584e-12 1.07689e-12 -3.99937e-21 -1.07689e-12 1.07584e-12 -3.63414e-12 3.63414e-12 -1.07584e-12 1.07659e-12 -1.07659e-12 1.07584e-12 -3.63414e-12 3.63444e-12 1.04396e-15 -1.04398e-15 -3.63444e-12 3.63339e-12 -3.63339e-12 3.63444e-12 1.04397e-15 0 0 2.73456 5.3036 5.00616 6.33204 7.08367 6.63725 7.45529 7.03946 5.49061 2.41978 0.127331 8.28494e-05 1.85126e-10 -1.07611e-12 1.07669e-12 -7.46007e-17 -1.07662e-12 1.07662e-12 6.75044e-17 -1.07671e-12 1.07648e-12 -1.07646e-12 -5.87524e-17 1.07675e-12 8.6051e-18 -1.07673e-12 1.07597e-12 -3.63423e-12 3.63421e-12 -1.07613e-12 1.07714e-12 -2.23564e-16 -1.07672e-12 1.07593e-12 -3.63421e-12 3.63422e-12 -1.07616e-12 1.07698e-12 -1.07698e-12 1.07614e-12 -3.6342e-12 3.63417e-12 1.00152e-15 -7.55364e-16 -3.63439e-12 3.63392e-12 -3.63391e-12 3.6344e-12 7.88445e-16 0 0 2.25978 3.46306 4.87677 5.90194 6.23916 6.78121 7.1101 6.56225 4.95323 1.74554 0.0682531 3.87068e-05 1.19214e-10 -2.35543e-12 1.81733e-12 5.38486e-13 -2.3558e-12 2.3558e-12 -5.38505e-13 -1.81734e-12 2.35552e-12 -5.38114e-13 -4.53849e-17 -1.27906e-12 3.36889e-18 1.27912e-12 5.37425e-13 -3.63398e-12 1.8171e-12 1.27953e-12 -1.27901e-12 1.81711e-12 -5.38165e-13 -1.2795e-12 -1.81711e-12 1.81654e-12 1.27994e-12 -1.27932e-12 1.27941e-12 -1.27949e-12 -1.81709e-12 3.63417e-12 -1.81675e-12 -5.04315e-16 7.14497e-16 -1.9115e-15 1.95522e-15 -7.31713e-16 5.58286e-16 0 0 1.95834 3.45934 3.73662 4.8202 5.81113 6.50509 6.55255 5.79169 3.93177 0.924208 0.023269 9.68239e-06 4.97487e-11 7.11825e-17 1.27865e-12 -1.27864e-12 1.39615e-16 -1.44395e-16 1.27863e-12 -1.27894e-12 1.8172e-12 -1.81717e-12 7.84166e-18 -3.85987e-16 2.68914e-16 1.18389e-16 -6.3653e-16 -1.81679e-12 1.81719e-12 5.9326e-16 -2.55014e-16 -2.02425e-16 1.04809e-16 -2.56564e-16 -1.81735e-12 1.81673e-12 -5.31759e-12 5.31823e-12 5.25128e-16 -5.88062e-16 -1.81726e-12 1.81712e-12 -1.43094e-16 2.07891e-17 -5.31787e-12 5.31679e-12 -5.31672e-12 5.31755e-12 6.02205e-16 0 0 1.62644 3.11778 4.09503 4.21961 5.24828 5.96455 5.67495 4.81124 2.39357 0.325261 0.00468402 1.1155e-06 1.18534e-11 4.42005e-16 1.81678e-12 -1.8172e-12 5.24631e-16 -5.60455e-16 1.81694e-12 -1.81684e-12 -1.29018e-16 2.96316e-16 -1.81752e-12 1.81704e-12 2.59577e-16 -9.2374e-17 -1.81734e-12 1.25554e-16 1.81712e-12 1.96594e-16 1.46626e-16 -1.81755e-12 1.81724e-12 -9.94303e-17 -1.8172e-12 1.8165e-12 -5.3179e-12 5.31838e-12 4.1441e-16 -2.95935e-16 -1.81714e-12 -2.42047e-16 1.81718e-12 -1.8662e-16 -5.318e-12 5.31746e-12 -7.13465e-12 7.13519e-12 6.74968e-16 0 0 1.45083 2.64149 3.71952 4.92757 4.81389 4.84899 4.72034 3.1849 0.953075 0.0687144 0.000463554 5.34224e-08 4.95278e-12 -3.63417e-12 1.81718e-12 1.81725e-12 -3.63445e-12 1.8172e-12 -2.94753e-16 -1.81695e-12 1.8175e-12 8.89338e-17 -3.19911e-16 -1.81725e-12 8.98426e-17 1.81555e-12 1.59512e-15 -1.81884e-12 1.45733e-15 1.81734e-12 -1.81863e-12 1.81853e-12 -1.54107e-15 -1.81578e-12 1.91608e-16 -2.15007e-15 1.81904e-12 -1.81876e-12 1.81899e-12 -1.81738e-12 -1.41324e-15 1.81848e-12 -1.81823e-12 7.79015e-16 1.81777e-12 -1.81852e-12 1.81805e-12 -1.81709e-12 5.5281e-16 0 0 1.22121 2.47151 3.63618 4.29973 4.80224 3.95567 3.12975 1.33591 0.218479 0.00701061 1.78501e-05 1.45251e-09 1.88578e-12 -2.0837e-17 -4.75519e-17 3.26829e-16 -1.81724e-12 -1.0499e-17 1.81665e-12 5.79459e-16 -4.8014e-16 7.11246e-16 -7.27119e-16 -1.81674e-12 -1.20418e-15 1.81685e-12 -1.05682e-11 1.05681e-11 -1.81726e-12 1.5274e-15 1.81577e-12 -1.05684e-11 1.05683e-11 -1.81721e-12 1.46929e-15 1.81542e-12 -1.23854e-11 1.23856e-11 -1.81564e-12 -1.49027e-15 1.81723e-12 -1.05685e-11 1.05686e-11 -7.68137e-16 -1.81542e-12 -2.53803e-15 1.81947e-12 -1.81771e-12 1.25991e-15 0 0 1.20279 2.31921 3.12729 3.69673 3.60499 3.11466 1.18332 0.322931 0.0204313 0.000281019 1.64357e-07 3.68575e-11 -1.81468e-12 1.8169e-12 -1.04904e-17 -1.81695e-12 1.81726e-12 -1.81777e-12 1.81719e-12 -1.54324e-15 1.56389e-15 -5.31793e-12 3.50069e-12 1.81726e-12 -8.14212e-16 -1.05685e-11 5.53496e-16 -6.16415e-16 1.05681e-11 -1.81566e-12 1.8156e-12 -1.05681e-11 5.12321e-17 1.05683e-11 -1.8187e-12 1.81853e-12 -1.2388e-11 1.23877e-11 -1.81642e-12 1.81658e-12 -1.0568e-11 -1.42625e-15 1.05683e-11 -5.3441e-16 -1.2384e-11 1.23827e-11 -1.23825e-11 1.23825e-11 4.77046e-15 0 0 1.00746 1.86351 2.47533 2.64098 2.23128 1.05774 0.321644 0.0202395 0.000836953 1.70033e-06 9.08804e-10 2.95309e-12 -1.8175e-12 1.81768e-12 -1.81798e-12 1.81794e-12 -5.28525e-18 -5.72367e-16 -7.13525e-12 7.1337e-12 -1.05675e-11 5.25087e-12 3.50091e-12 1.81726e-12 -7.64373e-16 -1.05684e-11 4.64076e-16 -5.58127e-16 1.05668e-11 -1.81444e-12 -1.43391e-15 1.8173e-12 -1.05682e-11 -5.79812e-17 1.05668e-11 -1.23853e-11 1.23851e-11 -1.23854e-11 1.05688e-11 3.6332e-12 -1.23848e-11 -1.10062e-16 -1.81853e-12 1.23869e-11 -1.05705e-11 1.23856e-11 -2.4769e-11 2.4769e-11 -1.23819e-11 0 0 0.699045 1.22805 1.41476 1.18798 0.618892 0.187167 0.0192135 0.000836681 1.82279e-06 4.30176e-09 4.94946e-12 -1.81537e-12 1.81681e-12 -5.31802e-12 5.31795e-12 4.41291e-16 -1.81725e-12 3.63307e-12 -7.13453e-12 -5.25107e-12 -1.22885e-16 1.05685e-11 -1.81636e-12 6.24633e-16 -1.26275e-15 1.81731e-12 -1.05688e-11 1.40514e-16 8.74835e-12 1.82124e-12 -1.82023e-12 1.40539e-15 1.81611e-12 -1.05684e-11 1.37703e-15 -3.35216e-15 1.23848e-11 -1.23834e-11 1.05655e-11 -1.05669e-11 1.898e-15 -1.79673e-15 1.80826e-15 -1.24577e-16 1.23852e-11 -1.23869e-11 2.01835e-15 -2.08493e-17 1.55824e-16 0 0 0.270996 0.423246 0.378111 0.193844 0.0546214 0.00645236 0.000277854 1.69352e-06 4.30471e-09 1.65217e-12 1.82591e-12 -1.81685e-12 3.63229e-12 -7.13355e-12 5.31722e-12 -1.81629e-12 6.74924e-17 1.81587e-12 -6.46486e-18 -1.23856e-11 1.23854e-11 -1.81685e-12 1.81806e-12 -1.81678e-12 1.93732e-16 -1.34627e-15 3.63347e-12 -1.42034e-11 1.23851e-11 -1.05667e-11 1.05666e-11 -1.2384e-11 1.23826e-11 1.81694e-12 -2.47691e-11 2.47693e-11 -1.23877e-11 3.24976e-15 1.23826e-11 -2.47677e-11 1.23853e-11 1.23825e-11 -1.23823e-11 2.31148e-15 -4.28418e-16 -2.52286e-16 1.23808e-11 -2.47679e-11 2.47717e-11 0 0 0.0273799 0.028928 0.0144536 0.00376309 0.000427598 1.75236e-05 1.62607e-07 9.08456e-10 1.30104e-12 1.82585e-12 4.14724e-17 -1.81788e-12 3.63342e-12 -7.13373e-12 3.49879e-12 1.81945e-12 -1.82022e-12 3.00209e-15 -2.42519e-15 1.1678e-15 1.81699e-12 -1.81834e-12 1.81946e-12 -1.81778e-12 1.29098e-15 -4.41428e-15 3.63619e-12 -3.63731e-12 -8.74932e-12 1.95819e-15 -1.57626e-15 1.41326e-15 -1.99624e-15 -1.58598e-15 3.78285e-15 -2.93147e-15 8.89746e-16 -4.42959e-15 4.8292e-15 1.54656e-15 -1.98851e-15 1.23843e-11 -1.2387e-11 5.35576e-15 -4.39807e-16 -5.24547e-16 1.23809e-11 -1.23868e-11 5.04966e-15 0 0 2.26456e-05 2.14484e-05 7.55266e-06 1.01144e-06 5.05836e-08 1.38846e-09 3.09597e-11 2.94934e-12 -1.81519e-12 1.81705e-12 -1.81806e-12 1.81746e-12 -1.0569e-11 5.25103e-12 5.31676e-12 -1.0568e-11 1.05669e-11 -1.23842e-11 1.23855e-11 1.81142e-16 -1.05685e-11 1.05672e-11 -1.23843e-11 1.23843e-11 1.07681e-15 -4.45477e-15 -3.15692e-11 3.15679e-11 -1.05646e-11 1.23839e-11 -1.23849e-11 -2.10022e-11 2.10015e-11 4.22918e-17 1.23855e-11 -1.23849e-11 -2.1004e-11 3.33844e-11 -1.23792e-11 1.23838e-11 -1.2384e-11 -2.10048e-11 3.33877e-11 -1.23824e-11 1.23836e-11 -1.23841e-11 -2.10046e-11 3.33859e-11 -2.47679e-11 0 0 2.8627e-11 3.72855e-11 2.85457e-11 9.34888e-12 1.18562e-12 -1.75309e-12 1.81968e-12 -1.81789e-12 1.81788e-12 -2.03316e-15 1.1249e-15 -1.05688e-11 -2.57071e-16 1.05685e-11 -7.62475e-16 -1.05677e-11 1.30399e-16 -4.623e-17 1.05668e-11 1.4907e-15 -1.05683e-11 1.05651e-11 -1.05652e-11 -1.6222e-15 -1.95937e-17 1.23825e-11 -3.33891e-11 3.33875e-11 -1.23813e-11 -3.21778e-15 1.23862e-11 -3.33892e-11 3.33876e-11 -1.23829e-11 -1.74403e-15 1.23846e-11 -3.33881e-11 3.33863e-11 -1.23793e-11 -3.38307e-15 1.23862e-11 -3.33877e-11 3.33859e-11 4.85079e-15 -1.23893e-11 9.10671e-16 -2.1001e-11 -1.95174e-15 2.10049e-11 0 0 -4.37624e-16 -1.27858e-12 2.64956e-17 -4.11816e-16 -2.82065e-16 -3.40914e-17 -1.81692e-12 1.81668e-12 -5.31807e-12 7.13387e-12 -7.13383e-12 -5.25144e-12 1.05686e-11 -1.81724e-12 7.33033e-17 1.81694e-12 -1.05683e-11 1.52363e-16 8.74887e-12 1.81936e-12 -1.61607e-15 -1.81918e-12 -8.74772e-12 -1.2078e-15 -1.63863e-15 -1.49892e-15 1.2385e-11 -1.23851e-11 -5.83855e-16 3.46925e-15 -2.97039e-15 1.2387e-11 -1.23869e-11 -7.19985e-16 3.54196e-15 -4.59987e-15 2.57245e-15 -2.57222e-15 4.58993e-15 -6.62743e-15 1.23892e-11 -5.20694e-17 -1.23874e-11 4.29274e-15 -2.68568e-16 -6.86741e-15 -2.09961e-11 -1.05327e-15 3.33883e-11 0 0 -2.17093e-16 -1.81749e-12 2.35575e-12 -1.81764e-12 -1.81727e-12 3.63388e-12 -3.63388e-12 1.81645e-12 -5.3176e-12 5.31713e-12 -7.13571e-12 8.95317e-12 -3.63606e-12 2.5152e-15 -5.21395e-17 -1.51301e-15 1.81745e-12 -1.05688e-11 8.75073e-12 -8.75065e-12 1.05667e-11 -1.23842e-11 1.81589e-12 1.23843e-11 -1.56577e-15 -2.47681e-11 2.47677e-11 -2.47676e-11 2.47677e-11 -1.23822e-11 1.12981e-17 1.2382e-11 -2.47676e-11 2.47676e-11 -1.23836e-11 1.47959e-15 -6.72054e-15 5.19656e-15 1.5149e-15 1.23786e-11 -3.3384e-11 3.33868e-11 -1.2387e-11 4.2936e-15 -2.10046e-11 3.33828e-11 -3.33856e-11 3.33917e-11 -3.41657e-15 0 0 -4.72368e-16 -5.38041e-13 -1.2795e-12 1.8172e-12 -1.81726e-12 -2.71923e-16 -1.81697e-12 1.81647e-12 8.1893e-16 -1.81875e-12 1.81748e-12 -1.05695e-11 1.05694e-11 -1.81748e-12 1.36625e-15 1.81685e-12 -1.81804e-12 1.81657e-12 -1.81752e-12 -8.75408e-12 3.46944e-15 -3.17872e-15 1.23872e-11 -1.23869e-11 1.36983e-16 -1.58292e-15 1.23851e-11 -1.23851e-11 3.10455e-15 2.05009e-15 -2.18559e-15 -3.67929e-15 3.77482e-15 -1.90139e-16 -1.57371e-15 -2.10037e-11 3.33808e-11 7.75177e-15 -2.47697e-11 2.47662e-11 -3.33848e-11 -1.41822e-15 3.33867e-11 -3.6078e-15 -3.33808e-11 3.33776e-11 8.95436e-15 -3.3391e-11 3.33924e-11 0 0 -2.87419e-16 -1.27885e-12 1.16927e-16 -5.90287e-16 -7.94839e-18 -1.81723e-12 1.81722e-12 -8.93615e-17 -1.81736e-12 1.54885e-17 1.81416e-12 -1.05664e-11 -1.74744e-16 1.05682e-11 -1.81699e-12 1.81807e-12 -1.81835e-12 1.81668e-12 -1.23866e-11 1.42004e-11 -2.47692e-11 2.477e-11 -1.23839e-11 -1.45876e-15 -5.13986e-17 1.23823e-11 -3.33877e-11 3.33876e-11 -1.23806e-11 2.21721e-15 -2.34273e-15 -3.64718e-15 3.70027e-15 -1.23858e-11 2.47661e-11 -3.33892e-11 3.33873e-11 -3.33849e-11 2.10021e-11 1.23793e-11 2.59946e-15 -3.33864e-11 3.29288e-15 3.33832e-11 7.97047e-16 -1.4043e-15 -3.33821e-11 1.95146e-15 -5.06002e-16 0 0 -2.91636e-16 -1.27885e-12 1.16322e-16 -6.20727e-16 -1.8172e-12 -3.71122e-17 1.81676e-12 2.93547e-16 -1.34038e-15 -1.81591e-12 -3.06543e-15 -8.7492e-12 -8.03488e-17 -1.49894e-16 1.05682e-11 -1.81719e-12 1.8167e-12 -1.05686e-11 1.80019e-16 -2.10063e-11 2.10064e-11 -7.51827e-16 1.92408e-15 -3.47851e-15 -1.66567e-16 1.23823e-11 -3.33876e-11 2.10048e-11 2.07037e-15 2.24847e-15 -2.32259e-15 1.23822e-11 -2.4768e-11 1.23808e-11 1.23848e-11 -1.22554e-15 -3.33879e-11 6.16094e-17 3.33877e-11 -3.3389e-11 -2.85965e-15 3.33876e-11 -3.33788e-11 -2.27826e-16 3.33829e-11 -3.33833e-11 2.00517e-15 3.57625e-16 -7.75508e-16 0 0 6.68123e-14 -5.38046e-13 -1.2795e-12 1.81689e-12 -3.63419e-12 1.81669e-12 -1.81718e-12 -3.501e-12 7.13432e-12 -3.63425e-12 -5.92814e-18 -8.75153e-12 1.05677e-11 -1.23857e-11 1.23866e-11 -1.81843e-12 -8.75099e-12 6.41559e-16 -6.08859e-15 -2.09986e-11 2.10035e-11 3.07799e-16 1.85013e-15 -3.55295e-15 -3.06113e-17 -1.6575e-15 1.23853e-11 -2.47679e-11 1.2381e-11 6.88116e-15 -5.36706e-15 2.91715e-15 7.5395e-16 1.23794e-11 -3.33859e-11 3.33801e-11 -3.33832e-11 3.33828e-11 -3.33825e-11 -4.77696e-15 4.86354e-15 3.33781e-11 -3.33738e-11 -1.65341e-16 3.33778e-11 -3.33776e-11 1.17077e-15 -1.63046e-15 3.33886e-11 0 0 6.70586e-14 -1.8175e-12 2.35548e-12 -1.81767e-12 -1.81698e-12 3.63396e-12 -3.63603e-12 -3.49936e-12 -5.25138e-12 8.7514e-12 -1.26215e-15 3.63664e-12 -3.63783e-12 1.8198e-12 -1.2387e-11 1.23835e-11 -1.05675e-11 -2.10029e-11 2.09988e-11 6.50797e-15 -3.16355e-15 1.23837e-11 -2.47679e-11 2.47681e-11 -3.08088e-17 -2.47681e-11 2.47662e-11 -1.23792e-11 1.23759e-11 -4.57679e-11 4.57658e-11 -1.2375e-11 1.2381e-11 -4.65969e-15 -3.33813e-11 -8.70158e-15 4.316e-15 3.33829e-11 -3.3387e-11 3.33869e-11 -3.33823e-11 3.3378e-11 -3.3374e-11 3.33781e-11 -4.82848e-16 -3.33774e-11 -4.19726e-15 3.33914e-11 -3.10334e-15 0 0 -1.59512e-16 -1.27916e-12 1.81722e-12 -3.63464e-12 1.81751e-12 -9.89153e-16 -1.15975e-15 -1.0568e-11 -1.64891e-16 8.75115e-12 1.81737e-12 -1.05684e-11 1.05687e-11 -2.20003e-15 -1.05667e-11 -3.51229e-15 1.38763e-15 -2.10029e-11 2.10036e-11 1.27989e-16 -3.34384e-16 -3.37436e-15 5.67669e-15 -3.53137e-15 -1.14326e-16 1.56512e-15 1.23805e-11 -1.23794e-11 1.23756e-11 -3.33853e-11 3.33832e-11 -3.33795e-11 3.33854e-11 -6.93454e-15 -3.33785e-11 -9.10185e-15 4.9689e-15 -1.67082e-18 3.33871e-11 -3.33873e-11 -7.99761e-17 3.33831e-11 -3.33787e-11 3.33791e-11 -3.33794e-11 -3.94832e-15 3.33877e-11 -3.3387e-11 3.33922e-11 0 0 -1.42518e-16 5.38208e-13 -1.81752e-12 2.33456e-16 6.26109e-17 -9.05043e-16 -5.31784e-12 -5.25155e-12 1.05684e-11 -1.81723e-12 1.81584e-12 -1.05669e-11 1.05652e-11 -1.81624e-12 -8.7494e-12 -3.01019e-15 1.3978e-15 1.96881e-15 -2.98374e-15 1.23834e-11 -2.47679e-11 1.23859e-11 2.21767e-15 -3.63576e-15 -1.97491e-15 1.23873e-11 -1.23859e-11 -1.23847e-11 2.47662e-11 -1.00564e-15 -3.33879e-11 4.61273e-15 -1.13237e-15 3.33842e-11 -3.33921e-11 3.33871e-11 -3.33825e-11 -1.03818e-16 3.33869e-11 -3.33917e-11 3.3392e-11 -3.33871e-11 -8.27453e-17 3.33881e-11 -3.33925e-11 3.33919e-11 -3.33875e-11 5.95671e-15 -6.30086e-16 0 0 -8.75748e-17 1.07651e-12 -3.63482e-12 1.81747e-12 -1.89093e-16 -4.38235e-16 -7.13552e-12 7.13515e-12 -1.81793e-12 1.81811e-12 -1.8196e-12 -8.74966e-12 1.0565e-11 -1.23828e-11 1.81568e-12 1.23842e-11 -1.23838e-11 2.23844e-15 -2.26769e-15 -3.60624e-15 5.63249e-15 -1.73475e-15 1.9762e-15 -3.63574e-15 -1.90056e-15 7.56598e-16 1.3551e-15 -4.83295e-15 -2.10003e-11 3.3385e-11 -3.33879e-11 3.33873e-11 -3.33875e-11 4.65948e-16 3.33878e-11 -3.33878e-11 3.9424e-15 3.33787e-11 -3.33877e-11 3.33922e-11 -3.33869e-11 4.08951e-15 3.33783e-11 -3.33873e-11 3.33915e-11 -3.33865e-11 5.25957e-15 2.10653e-16 -5.23199e-16 0 0 -2.71546e-16 -1.2791e-12 -4.81078e-16 -1.81697e-12 1.81717e-12 -1.8177e-12 1.81715e-12 -1.81731e-12 6.14534e-16 1.81659e-12 -1.81767e-12 -8.75326e-12 1.7059e-15 -1.56592e-15 1.23836e-11 -1.23836e-11 -1.50383e-15 3.79593e-15 -3.97357e-15 4.38893e-19 3.97315e-15 -3.63882e-15 3.63881e-15 -3.65785e-15 2.00745e-18 -4.43134e-15 -2.10004e-11 3.33784e-11 -3.33769e-11 3.33834e-11 -3.80889e-16 -3.3392e-11 3.33875e-11 -3.33785e-11 3.33835e-11 -3.33876e-11 4.00867e-15 3.33739e-11 -3.33738e-11 3.3383e-11 -3.33871e-11 4.17529e-15 3.33737e-11 -3.33735e-11 3.33822e-11 -3.3386e-11 5.30358e-15 -1.02727e-14 3.33971e-11 0 0 -4.0132e-16 -3.63478e-12 3.63414e-12 -3.63418e-12 -7.41081e-17 -1.25142e-15 3.6351e-12 -3.6352e-12 1.36728e-15 -1.10147e-16 -8.81915e-16 3.63184e-12 -2.47704e-11 2.47694e-11 -1.75415e-15 -2.47678e-11 2.47679e-11 -2.47678e-11 2.47677e-11 -3.01703e-17 -2.47677e-11 2.4766e-11 -2.4766e-11 2.47678e-11 -1.45676e-15 -3.72634e-15 -6.67731e-11 6.67701e-11 9.13706e-15 -4.17282e-15 -3.12825e-16 -6.67748e-11 6.677e-11 9.18377e-15 -8.95131e-15 4.63155e-15 -6.67749e-11 6.67701e-11 9.28589e-15 -9.2634e-15 4.7546e-15 -6.67748e-11 6.677e-11 9.43286e-15 -9.3493e-15 5.03124e-15 -6.67749e-11 6.677e-11 -3.33826e-11 0 0 -2.53371e-16 -1.27909e-12 -2.90289e-16 3.44397e-17 -1.81881e-12 1.8175e-12 -1.05686e-11 1.05687e-11 -1.81731e-12 1.36728e-15 -4.33011e-15 3.63503e-12 -1.23878e-11 1.16229e-15 -6.27061e-17 -1.28817e-15 1.23851e-11 -1.23851e-11 1.21571e-15 -4.11901e-17 1.94389e-15 1.23803e-11 -2.47668e-11 2.47654e-11 2.66555e-16 -3.33879e-11 5.726e-15 -5.49517e-15 3.33874e-11 1.44869e-16 -3.33876e-11 5.62145e-15 -5.72757e-15 3.33875e-11 2.03432e-17 -3.33874e-11 5.62052e-15 -5.62052e-15 3.33873e-11 2.525e-16 -3.33875e-11 5.55975e-15 -5.76669e-15 3.33878e-11 3.52798e-15 -3.33915e-11 -3.14379e-16 -7.17666e-16 9.451e-16 0 0 2.21489e-17 5.37951e-13 -3.63439e-12 1.81722e-12 -1.42673e-15 -1.05683e-11 5.95095e-16 -5.0752e-16 1.05683e-11 -6.11092e-16 -2.70348e-15 -3.1572e-11 3.33863e-11 -1.23828e-11 -9.01721e-18 1.23826e-11 -3.33876e-11 3.33876e-11 -1.23826e-11 -1.73367e-15 1.23876e-11 -1.23859e-11 9.77476e-17 -2.10084e-11 2.01504e-15 5.04861e-15 3.34549e-16 -2.29456e-16 -5.80525e-15 -1.36479e-18 5.72252e-15 -8.41459e-17 -1.19361e-15 -4.84337e-15 -1.0597e-16 6.24824e-15 2.92404e-16 -2.92404e-16 -6.33244e-15 2.9293e-16 6.06038e-15 2.71533e-16 -2.09248e-15 3.3374e-11 -3.33746e-11 -9.40324e-15 3.33821e-11 -6.67658e-11 3.33875e-11 0 0 6.05526e-17 -3.81103e-16 -1.81693e-12 -2.09038e-17 1.81578e-12 -1.05684e-11 6.05498e-16 -5.49056e-16 -2.31854e-16 1.05667e-11 -1.26606e-15 -3.15736e-11 3.33875e-11 -1.23825e-11 -8.95444e-18 1.23825e-11 -3.33877e-11 2.1005e-11 1.79723e-16 1.23852e-11 -1.23853e-11 -1.23847e-11 2.4766e-11 -3.33928e-11 5.27813e-15 5.02797e-15 2.29456e-16 -7.1325e-16 -5.36325e-15 -2.57288e-18 5.74652e-15 -5.53632e-15 3.33871e-11 -3.33925e-11 4.69422e-15 6.20583e-15 3.34374e-16 -3.34375e-16 -1.10048e-14 4.98831e-15 5.8898e-15 -7.3347e-16 -1.29757e-15 3.33739e-11 -6.67661e-11 6.67646e-11 -3.3388e-11 -3.33773e-11 3.33868e-11 0 0 4.19383e-17 -1.81722e-12 1.81719e-12 -1.81729e-12 -1.58313e-15 1.81723e-12 -1.05683e-11 1.05671e-11 -1.23856e-11 1.23854e-11 -1.23883e-11 1.42034e-11 -1.23867e-11 -2.05236e-16 3.52153e-15 -3.15029e-15 1.23869e-11 -2.47696e-11 1.2381e-11 1.23879e-11 -1.23886e-11 3.95521e-15 -2.10093e-11 3.33892e-11 9.6363e-16 -3.3388e-11 5.34648e-15 -5.87207e-15 3.33882e-11 -4.84354e-15 -3.33789e-11 3.33789e-11 -3.33876e-11 3.33873e-11 4.63697e-15 -3.33872e-11 5.21961e-15 -5.21831e-15 3.33828e-11 -3.33906e-11 1.06784e-14 3.33617e-11 -3.33623e-11 -2.37483e-15 -1.02821e-15 -6.03936e-15 -3.33826e-11 3.33828e-11 5.94953e-15 0 0 -1.83956e-16 -1.27843e-12 -4.54273e-16 -1.17632e-16 -1.81727e-12 -1.61229e-15 1.81871e-12 -1.82003e-12 1.81874e-12 -1.05702e-11 1.54982e-15 1.23802e-11 -2.47674e-11 2.4768e-11 -1.2382e-11 2.07084e-15 -1.88145e-15 1.85023e-15 -6.87949e-15 -2.10041e-11 3.33857e-11 4.59804e-15 -3.33905e-11 3.33923e-11 -3.7494e-15 -7.3493e-16 -6.67752e-11 6.67751e-11 -4.08611e-15 3.23042e-15 -3.33826e-11 3.33743e-11 -3.3374e-11 3.33787e-11 -3.3383e-11 3.3383e-11 -3.33803e-11 3.33803e-11 -3.33825e-11 -4.9286e-15 -8.41486e-11 1.17515e-10 -3.33597e-11 -2.16102e-15 -9.69152e-16 -3.33893e-11 3.33834e-11 3.33775e-11 -6.67592e-11 0 0 -2.26414e-16 -1.27887e-12 -1.99636e-16 -3.67296e-16 -1.81865e-12 1.81836e-12 -1.81862e-12 1.47652e-15 1.81411e-12 -1.05667e-11 -1.43592e-15 1.23818e-11 -1.23851e-11 3.17955e-15 9.2397e-18 2.12441e-15 -1.92504e-15 1.94522e-15 -5.38625e-15 -2.10091e-11 3.33908e-11 -3.33873e-11 3.33873e-11 5.07609e-16 5.24949e-16 -3.3388e-11 5.26376e-15 -5.32576e-15 3.33869e-11 -3.33834e-11 -4.53775e-15 3.33836e-11 -3.33786e-11 3.33788e-11 -3.33828e-11 3.33827e-11 -3.33801e-11 3.33801e-11 -3.3388e-11 3.67344e-15 -8.41605e-11 8.41549e-11 6.13686e-15 -3.34762e-16 -3.33873e-11 3.33869e-11 -5.161e-15 -4.65268e-15 1.06482e-14 0 0 -2.00542e-16 -1.81771e-12 8.50867e-17 -1.8176e-12 1.81588e-12 -1.05687e-11 1.05685e-11 -1.81729e-12 -1.8168e-15 -8.7494e-12 -1.48339e-15 -2.1005e-11 3.33859e-11 -1.23808e-11 1.2382e-11 -2.47678e-11 2.47678e-11 -1.2382e-11 -3.71558e-15 1.23825e-11 -3.33879e-11 4.44816e-15 3.33782e-11 -3.33822e-11 5.83521e-16 4.98606e-15 -8.41459e-17 -5.40604e-15 3.33867e-11 -3.33916e-11 3.33911e-11 -3.3387e-11 4.87919e-16 3.33877e-11 -4.7778e-15 -3.33828e-11 -2.09694e-16 -3.4004e-16 3.3382e-11 -6.6774e-11 6.67633e-11 -6.67678e-11 3.33943e-11 -3.52477e-15 8.38725e-16 5.326e-15 -6.04229e-15 -3.33829e-11 3.33862e-11 0 0 -2.56523e-16 5.38228e-13 -3.6349e-12 1.81717e-12 -1.59188e-15 -1.05682e-11 6.29922e-17 1.05683e-11 -1.81893e-12 -8.75121e-12 1.15551e-15 -2.10078e-11 3.33877e-1