<?xml version="1.0"?>
<VTKFile type="PolyData">
	<PolyData>
		<Piece NumberOfPoints="2601" NumberOfPolys="2500">
			<Points>
				<DataArray type="Float32" NumberOfComponents="3" format="ascii">
 0 0 0 0.314635 0 0 0.256959 0 0 0.315137 0 0 0.325112 0 0 0.345723 0 0 0.363313 0 0 0.376841 0 0 0.391648 0 0 0.401629 0 0 0.413412 0 0 0.421699 0 0 0.431611 0 0 0.439096 0 0 0.446899 0 0 0.453405 0 0 0.460311 0 0 0.46583 0 0 0.471023 0 0 0.47574 0 0 0.480348 0 0 0.484687 0 0 0.488773 0 0 0.49291 0 0 0.49823 0 0 0.506631 0 0 0.520772 0 0 0.540006 0 0 0.56 0 0 0.58 0 0 0.6 0 0 0.62 0 0 0.64 0 0 0.66 0 0 0.68 0 0 0.7 0 0 0.72 0 0 0.74 0 0 0.76 0 0 0.78 0 0 0.8 0 0 0.82 0 0 0.84 0 0 0.86 0 0 0.88 0 0 0.9 0 0 0.92 0 0 0.94 0 0 0.96 0 0 0.98 0 0 1 0 0 0 0.314635 0 0.150347 0.150347 0 0.289073 0.128607 0 0.281287 0.115411 0 0.32099 0.0803958 0 0.341734 0.0716691 0 0.358503 0.0638641 0 0.375196 0.0576794 0 0.387383 0.0529221 0 0.400892 0.0486758 0 0.410105 0.044616 0 0.421282 0.04119 0 0.429418 0.0381823 0 0.438377 0.0357174 0 0.445487 0.0336621 0 0.452743 0.0318537 0 0.459261 0.0301667 0 0.465005 0.0285082 0 0.470343 0.0270177 0 0.475129 0.0256735 0 0.47978 0.0244831 0 0.48419 0.0234228 0 0.488302 0.022458 0 0.492496 0.0215802 0 0.497897 0.0208332 0 0.50642 0.0202937 0 0.520721 0.0200477 0 0.540006 0.0200007 0 0.56 0.02 0 0.58 0.02 0 0.6 0.02 0 0.62 0.02 0 0.64 0.02 0 0.66 0.02 0 0.68 0.02 0 0.7 0.02 0 0.72 0.02 0 0.74 0.02 0 0.76 0.02 0 0.78 0.02 0 0.8 0.02 0 0.82 0.02 0 0.84 0.02 0 0.86 0.02 0 0.88 0.02 0 0.9 0.02 0 0.92 0.02 0 0.94 0.02 0 0.96 0.02 0 0.98 0.02 0 1 0.02 0 0 0.256959 0 0.128607 0.289073 0 0.173024 0.173024 0 0.270571 0.186333 0 0.29577 0.158433 0 0.323874 0.137123 0 0.346797 0.123225 0 0.363283 0.113448 0 0.380169 0.103698 0 0.392231 0.0952184 0 0.405696 0.0877839 0 0.415274 0.081169 0 0.426046 0.0756143 0 0.434084 0.0708685 0 0.442639 0.0668261 0 0.44987 0.0632758 0 0.456607 0.0598631 0 0.462581 0.0566846 0 0.468321 0.0537592 0 0.473293 0.0511026 0 0.478117 0.0487544 0 0.482692 0.0466666 0 0.48691 0.0447599 0 0.49127 0.043035 0 0.496913 0.0415736 0 0.505808 0.0405347 0 0.520584 0.0400804 0 0.540004 0.040001 0 0.56 0.04 0 0.58 0.04 0 0.6 0.04 0 0.62 0.04 0 0.64 0.04 0 0.66 0.04 0 0.68 0.04 0 0.7 0.04 0 0.72 0.04 0 0.74 0.04 0 0.76 0.04 0 0.78 0.04 0 0.8 0.04 0 0.82 0.04 0 0.84 0.04 0 0.86 0.04 0 0.88 0.04 0 0.9 0.04 0 0.92 0.04 0 0.94 0.04 0 0.96 0.04 0 0.98 0.04 0 1 0.04 0 0 0.315137 0 0.115411 0.281287 0 0.186333 0.270571 0 0.195024 0.195024 0 0.260132 0.220332 0 0.301658 0.188095 0 0.325963 0.176452 0 0.349229 0.160768 0 0.366195 0.149651 0 0.383348 0.138085 0 0.395687 0.12798 0 0.409061 0.119095 0 0.418646 0.111414 0 0.428932 0.104811 0 0.437165 0.0991182 0 0.445477 0.0938105 0 0.452197 0.0888145 0 0.458955 0.0841796 0 0.464874 0.0799091 0 0.470379 0.0760506 0 0.4754 0.0726309 0 0.480228 0.0695763 0 0.484628 0.0667767 0 0.489273 0.0642534 0 0.495331 0.0621395 0 0.504858 0.0606815 0 0.520404 0.0600887 0 0.540002 0.0600008 0 0.56 0.06 0 0.58 0.06 0 0.6 0.06 0 0.62 0.06 0 0.64 0.06 0 0.66 0.06 0 0.68 0.06 0 0.7 0.06 0 0.72 0.06 0 0.74 0.06 0 0.76 0.06 0 0.78 0.06 0 0.8 0.06 0 0.82 0.06 0 0.84 0.06 0 0.86 0.06 0 0.88 0.06 0 0.9 0.06 0 0.92 0.06 0 0.94 0.06 0 0.96 0.06 0 0.98 0.06 0 1 0.06 0 0 0.325112 0 0.0803958 0.32099 0 0.158433 0.29577 0 0.220332 0.260132 0 0.223126 0.223126 0 0.270447 0.240929 0 0.30738 0.210677 0 0.330229 0.203641 0 0.352695 0.187645 0 0.36933 0.176546 0 0.386062 0.164621 0 0.398158 0.154531 0 0.410939 0.145257 0 0.420567 0.137318 0 0.430677 0.12988 0 0.438822 0.123108 0 0.446804 0.116628 0 0.453867 0.110723 0 0.460382 0.105227 0 0.46638 0.100356 0 0.471759 0.0959685 0 0.476828 0.0920332 0 0.481507 0.0883945 0 0.486563 0.0851421 0 0.493237 0.0824639 0 0.503686 0.0807124 0 0.520231 0.0800733 0 0.540001 0.0800004 0 0.56 0.08 0 0.58 0.08 0 0.6 0.08 0 0.62 0.08 0 0.64 0.08 0 0.66 0.08 0 0.68 0.08 0 0.7 0.08 0 0.72 0.08 0 0.74 0.08 0 0.76 0.08 0 0.78 0.08 0 0.8 0.08 0 0.82 0.08 0 0.84 0.08 0 0.86 0.08 0 0.88 0.08 0 0.9 0.08 0 0.92 0.08 0 0.94 0.08 0 0.96 0.08 0 0.98 0.08 0 1 0.08 0 0 0.345723 0 0.0716691 0.341734 0 0.137123 0.323874 0 0.188095 0.301658 0 0.240929 0.270447 0 0.249559 0.249559 0 0.284962 0.255061 0 0.313466 0.229622 0 0.335036 0.224445 0 0.356147 0.208624 0 0.371938 0.198416 0 0.387888 0.186519 0 0.399706 0.176887 0 0.412224 0.167201 0 0.421825 0.158783 0 0.431681 0.150489 0 0.44005 0.143093 0 0.447857 0.135986 0 0.454858 0.129649 0 0.461397 0.12388 0 0.467217 0.118683 0 0.472572 0.113911 0 0.477623 0.109516 0 0.483231 0.105618 0 0.490754 0.102504 0 0.502461 0.100631 0 0.520106 0.100046 0 0.54 0.1 0 0.56 0.1 0 0.58 0.1 0 0.6 0.1 0 0.62 0.1 0 0.64 0.1 0 0.66 0.1 0 0.68 0.1 0 0.7 0.1 0 0.72 0.1 0 0.74 0.1 0 0.76 0.1 0 0.78 0.1 0 0.8 0.1 0 0.82 0.1 0 0.84 0.1 0 0.86 0.1 0 0.88 0.1 0 0.9 0.1 0 0.92 0.1 0 0.94 0.1 0 0.96 0.1 0 0.98 0.1 0 1 0.1 0 0 0.363313 0 0.0638641 0.358503 0 0.123225 0.346797 0 0.176452 0.325963 0 0.210677 0.30738 0 0.255061 0.284962 0 0.268503 0.268503 0 0.29655 0.267906 0 0.32004 0.245757 0 0.339584 0.241549 0 0.359405 0.225698 0 0.374347 0.216598 0 0.389725 0.204494 0 0.401235 0.195161 0 0.413286 0.184943 0 0.42307 0.176425 0 0.432762 0.16784 0 0.440788 0.160199 0 0.448567 0.153041 0 0.455418 0.146584 0 0.46185 0.14063 0 0.467528 0.13511 0 0.473101 0.130036 0 0.479414 0.12563 0 0.488045 0.122255 0 0.501386 0.120468 0 0.520037 0.120021 0 0.54 0.12 0 0.56 0.12 0 0.58 0.12 0 0.6 0.12 0 0.62 0.12 0 0.64 0.12 0 0.66 0.12 0 0.68 0.12 0 0.7 0.12 0 0.72 0.12 0 0.74 0.12 0 0.76 0.12 0 0.78 0.12 0 0.8 0.12 0 0.82 0.12 0 0.84 0.12 0 0.86 0.12 0 0.88 0.12 0 0.9 0.12 0 0.92 0.12 0 0.94 0.12 0 0.96 0.12 0 0.98 0.12 0 1 0.12 0 0 0.376841 0 0.0576794 0.375196 0 0.113448 0.363283 0 0.160768 0.349229 0 0.203641 0.330229 0 0.229622 0.313466 0 0.267906 0.29655 0 0.283606 0.283606 0 0.306886 0.279433 0 0.326928 0.259561 0 0.344552 0.255812 0 0.362788 0.239688 0 0.376783 0.231537 0 0.391451 0.219045 0 0.40277 0.21026 0 0.414615 0.199993 0 0.424074 0.191547 0 0.433397 0.182999 0 0.441308 0.175455 0 0.448815 0.168256 0 0.455675 0.161717 0 0.461856 0.155498 0 0.468068 0.149906 0 0.475318 0.145162 0 0.485342 0.14178 0 0.500626 0.140276 0 0.52001 0.140006 0 0.54 0.14 0 0.56 0.14 0 0.58 0.14 0 0.6 0.14 0 0.62 0.14 0 0.64 0.14 0 0.66 0.14 0 0.68 0.14 0 0.7 0.14 0 0.72 0.14 0 0.74 0.14 0 0.76 0.14 0 0.78 0.14 0 0.8 0.14 0 0.82 0.14 0 0.84 0.14 0 0.86 0.14 0 0.88 0.14 0 0.9 0.14 0 0.92 0.14 0 0.94 0.14 0 0.96 0.14 0 0.98 0.14 0 1 0.14 0 0 0.391648 0 0.0529221 0.387383 0 0.103698 0.380169 0 0.149651 0.366195 0 0.187645 0.352695 0 0.224445 0.335036 0 0.245757 0.32004 0 0.279433 0.306886 0 0.296453 0.296453 0 0.316166 0.288899 0 0.334025 0.271291 0 0.349982 0.266976 0 0.366415 0.250946 0 0.379674 0.243825 0 0.393696 0.231353 0 0.40445 0.223108 0 0.415708 0.212933 0 0.425003 0.20485 0 0.433761 0.19636 0 0.441622 0.188935 0 0.448938 0.181699 0 0.455694 0.175068 0 0.4627 0.169099 0 0.471149 0.164277 0 0.482982 0.161196 0 0.500214 0.160121 0 0.520002 0.160001 0 0.54 0.16 0 0.56 0.16 0 0.58 0.16 0 0.6 0.16 0 0.62 0.16 0 0.64 0.16 0 0.66 0.16 0 0.68 0.16 0 0.7 0.16 0 0.72 0.16 0 0.74 0.16 0 0.76 0.16 0 0.78 0.16 0 0.8 0.16 0 0.82 0.16 0 0.84 0.16 0 0.86 0.16 0 0.88 0.16 0 0.9 0.16 0 0.92 0.16 0 0.94 0.16 0 0.96 0.16 0 0.98 0.16 0 1 0.16 0 0 0.401629 0 0.0486758 0.400892 0 0.0952184 0.392231 0 0.138085 0.383348 0 0.176546 0.36933 0 0.208624 0.356147 0 0.241549 0.339584 0 0.259561 0.326928 0 0.288899 0.316166 0 0.306868 0.306868 0 0.324258 0.296604 0 0.340417 0.281212 0 0.355807 0.275978 0 0.370586 0.260692 0 0.383028 0.254157 0 0.395936 0.24181 0 0.406303 0.234221 0 0.416863 0.224276 0 0.425698 0.216401 0 0.434217 0.208129 0 0.441778 0.200732 0 0.449258 0.193729 0 0.457232 0.18773 0 0.467161 0.183095 0 0.481306 0.180649 0 0.500052 0.180036 0 0.52 0.18 0 0.54 0.18 0 0.56 0.18 0 0.58 0.18 0 0.6 0.18 0 0.62 0.18 0 0.64 0.18 0 0.66 0.18 0 0.68 0.18 0 0.7 0.18 0 0.72 0.18 0 0.74 0.18 0 0.76 0.18 0 0.78 0.18 0 0.8 0.18 0 0.82 0.18 0 0.84 0.18 0 0.86 0.18 0 0.88 0.18 0 0.9 0.18 0 0.92 0.18 0 0.94 0.18 0 0.96 0.18 0 0.98 0.18 0 1 0.18 0 0 0.413412 0 0.044616 0.410105 0 0.0877839 0.405696 0 0.12798 0.395687 0 0.164621 0.386062 0 0.198416 0.371938 0 0.225698 0.359405 0 0.255812 0.344552 0 0.271291 0.334025 0 0.296604 0.324258 0 0.315031 0.315031 0 0.331226 0.303376 0 0.346217 0.290221 0 0.361237 0.283696 0 0.374408 0.269387 0 0.386319 0.263176 0 0.398235 0.251202 0 0.407974 0.243872 0 0.417965 0.234312 0 0.426365 0.226594 0 0.434607 0.218615 0 0.442716 0.211754 0 0.451951 0.205868 0 0.463782 0.20188 0 0.480416 0.200256 0 0.500008 0.200007 0 0.52 0.2 0 0.54 0.2 0 0.56 0.2 0 0.58 0.2 0 0.6 0.2 0 0.62 0.2 0 0.64 0.2 0 0.66 0.2 0 0.68 0.2 0 0.7 0.2 0 0.72 0.2 0 0.74 0.2 0 0.76 0.2 0 0.78 0.2 0 0.8 0.2 0 0.82 0.2 0 0.84 0.2 0 0.86 0.2 0 0.88 0.2 0 0.9 0.2 0 0.92 0.2 0 0.94 0.2 0 0.96 0.2 0 0.98 0.2 0 1 0.2 0 0 0.421699 0 0.04119 0.421282 0 0.081169 0.415274 0 0.119095 0.409061 0 0.154531 0.398158 0 0.186519 0.387888 0 0.216598 0.374347 0 0.239688 0.362788 0 0.266976 0.349982 0 0.281212 0.340417 0 0.303376 0.331226 0 0.321655 0.321655 0 0.337544 0.309922 0 0.351036 0.298208 0 0.365665 0.29052 0 0.377768 0.27746 0 0.389041 0.271149 0 0.400111 0.259754 0 0.409469 0.252579 0 0.418732 0.243384 0 0.427287 0.236078 0 0.436452 0.229102 0 0.447144 0.223869 0 0.461504 0.220878 0 0.480089 0.220067 0 0.500001 0.220001 0 0.52 0.22 0 0.54 0.22 0 0.56 0.22 0 0.58 0.22 0 0.6 0.22 0 0.62 0.22 0 0.64 0.22 0 0.66 0.22 0 0.68 0.22 0 0.7 0.22 0 0.72 0.22 0 0.74 0.22 0 0.76 0.22 0 0.78 0.22 0 0.8 0.22 0 0.82 0.22 0 0.84 0.22 0 0.86 0.22 0 0.88 0.22 0 0.9 0.22 0 0.92 0.22 0 0.94 0.22 0 0.96 0.22 0 0.98 0.22 0 1 0.22 0 0 0.431611 0 0.0381823 0.429418 0 0.0756143 0.426046 0 0.111414 0.418646 0 0.145257 0.410939 0 0.176887 0.399706 0 0.204494 0.389725 0 0.231537 0.376783 0 0.250946 0.366415 0 0.275978 0.355807 0 0.290221 0.346217 0 0.309922 0.337544 0 0.327056 0.327056 0 0.342626 0.315827 0 0.355353 0.30544 0 0.369344 0.296902 0 0.3804
[...]
			<PointData Scalars="VitesseX">
				<DataArray Name="VitesseX" type="Float32" format="ascii">
 0 2.13414 1.09716 1.76823 1.55098 1.72647 1.87839 1.86336 1.9302 2.05554 2.0942 2.1115 2.21046 2.29952 2.39182 2.32174 2.38205 2.58736 2.58418 2.61928 2.67579 2.64079 2.69814 2.59476 2.25379 1.50104 0.365217 0.00552389 3.78964e-07 5.88299e-12 -1.06726e-12 1.07491e-12 -1.75787e-20 -1.07491e-12 1.06728e-12 -3.62555e-12 3.62554e-12 -1.06727e-12 1.07267e-12 -1.07267e-12 1.06727e-12 -3.62554e-12 3.62778e-12 7.64557e-15 -7.65075e-15 -3.62777e-12 3.62014e-12 -3.62014e-12 3.62777e-12 7.6636e-15 0 0 0.405634 1.701 1.22163 1.52231 1.69141 1.85417 1.83603 1.93621 2.04167 2.06823 2.13931 2.19046 2.31875 2.33783 2.34107 2.4189 2.54098 2.58774 2.61546 2.66827 2.64289 2.69483 2.58699 2.23921 1.4778 0.345699 0.00490074 3.20769e-07 5.65686e-12 -1.06939e-12 1.077e-12 -1.86938e-15 -1.07361e-12 1.06787e-12 -3.62611e-12 3.62611e-12 -1.06944e-12 1.07539e-12 -1.07539e-12 1.06942e-12 -3.62608e-12 3.62587e-12 7.60308e-15 -5.70969e-15 -3.62774e-12 3.62397e-12 -3.62396e-12 3.62775e-12 5.75697e-15 0 0 0.862452 0.50738 1.45121 1.33791 1.55956 1.74866 1.81198 1.89352 2.00159 2.05855 2.1111 2.22732 2.27146 2.2822 2.35931 2.47138 2.45251 2.59539 2.59717 2.6524 2.6458 2.6847 2.56299 2.19407 1.40596 0.291211 0.00340352 1.94761e-07 3.28043e-12 1.28185e-12 -1.27802e-12 1.81331e-12 -5.35546e-13 -1.28162e-12 -1.81329e-12 1.80905e-12 1.28579e-12 -1.2812e-12 1.28135e-12 -1.28174e-12 -1.81326e-12 3.62588e-12 -1.81013e-12 -3.7032e-15 5.34274e-15 -1.46816e-14 1.47204e-14 -5.36666e-15 3.76707e-15 0 0 0.813757 1.03944 0.642514 1.18319 1.4356 1.60401 1.72941 1.84204 1.93209 2.01688 2.12243 2.18749 2.24478 2.23217 2.38964 2.43055 2.43053 2.5644 2.5775 2.62839 2.64865 2.66508 2.52212 2.11436 1.27915 0.213959 0.00182136 8.54956e-08 2.6514e-12 3.7726e-15 -1.77123e-15 -6.95113e-16 5.90851e-16 -1.90529e-15 -1.81424e-12 1.80995e-12 -5.3108e-12 5.31569e-12 3.06112e-15 -3.69947e-15 -1.81395e-12 1.81339e-12 -1.36344e-15 1.12683e-16 -5.31318e-12 5.30556e-12 -5.30549e-12 5.3112e-12 3.82003e-15 0 0 0.376531 0.847476 1.16357 0.966734 1.27254 1.51981 1.64786 1.76139 1.87595 1.97802 2.07317 2.15335 2.16818 2.26297 2.33718 2.3799 2.44617 2.49628 2.56022 2.59778 2.64549 2.63444 2.46246 1.99659 1.08928 0.132711 0.000732238 2.79008e-08 2.18701e-12 4.00518e-16 1.80465e-15 -1.81589e-12 1.81393e-12 -5.081e-16 -1.8137e-12 1.80856e-12 -5.313e-12 5.31655e-12 2.18982e-15 -7.29403e-16 -1.81341e-12 -7.22447e-16 1.8127e-12 -1.74412e-15 -5.31474e-12 5.31096e-12 -7.12483e-12 7.12859e-12 3.90776e-15 0 0 0.367921 0.684712 0.895164 1.25663 1.24584 1.47445 1.57063 1.6829 1.79561 1.91574 2.01146 2.06888 2.17248 2.23562 2.27225 2.34893 2.44462 2.43432 2.533 2.5659 2.63538 2.58664 2.37539 1.83844 0.837356 0.0665971 0.000213166 7.16635e-09 1.41466e-13 1.8142e-12 -1.82327e-12 1.82477e-12 -1.27261e-14 -1.80326e-12 5.89968e-16 -1.49494e-14 1.82853e-12 -1.82661e-12 1.82683e-12 -1.81448e-12 -1.06201e-14 1.82476e-12 -1.82284e-12 5.56048e-15 1.81762e-12 -1.82326e-12 1.8195e-12 -1.81242e-12 2.50974e-15 0 0 0.33221 0.613536 0.899463 0.974993 1.32152 1.41875 1.53239 1.60212 1.7064 1.83197 1.93938 2.04009 2.1393 2.19579 2.20168 2.3547 2.38407 2.43394 2.47376 2.54788 2.60604 2.52011 2.24419 1.62718 0.5518 0.025757 4.25978e-05 1.51849e-09 -1.77929e-12 1.11111e-14 1.80451e-12 -1.05587e-11 1.05587e-11 -1.81552e-12 1.10223e-14 1.80089e-12 -1.23706e-11 1.23725e-11 -1.80276e-12 -1.10535e-14 1.81555e-12 -1.05603e-11 1.05605e-11 -5.67767e-15 -1.79939e-12 -1.99351e-14 1.8304e-12 -1.81777e-12 7.87993e-15 0 0 0.275638 0.595648 0.783379 1.05859 1.0866 1.37201 1.48097 1.58983 1.64129 1.76287 1.87699 2.00789 2.07797 2.1031 2.21616 2.27384 2.35021 2.43351 2.4207 2.53125 2.54734 2.43153 2.06528 1.32896 0.292622 0.00728061 5.44345e-06 2.44409e-10 1.05641e-11 -1.80277e-12 1.80271e-12 -1.05568e-11 5.43175e-17 1.05586e-11 -1.825e-12 1.82322e-12 -1.23909e-11 1.23889e-11 -1.8082e-12 1.80996e-12 -1.05566e-11 -1.10088e-14 1.05603e-11 -3.85992e-15 -1.23615e-11 1.23506e-11 -1.23502e-11 1.23502e-11 3.49065e-14 0 0 0.27169 0.538417 0.781439 0.929522 1.18782 1.17367 1.44764 1.53915 1.6949 1.7603 1.84566 1.94161 1.98214 2.08627 2.17045 2.21422 2.32038 2.40084 2.40829 2.50114 2.46835 2.2944 1.83967 0.930859 0.116689 0.00140594 4.25814e-07 2.71063e-11 1.05483e-11 -1.79369e-12 -1.09356e-14 1.81556e-12 -1.05585e-11 -4.74126e-17 1.05492e-11 -1.23722e-11 1.23719e-11 -1.23738e-11 1.05639e-11 3.61833e-12 -1.23684e-11 -1.40616e-16 -1.82312e-12 1.23834e-11 -1.05753e-11 1.23725e-11 -2.47316e-11 2.47317e-11 -1.23468e-11 0 0 0.254379 0.514881 0.719283 0.921922 1.06364 1.28702 1.26634 1.55002 1.64853 1.78759 1.82389 1.85206 1.9512 2.06471 2.12278 2.18511 2.30236 2.33716 2.4302 2.43653 2.37364 2.09432 1.52319 0.510194 0.0327048 0.000168014 2.35539e-08 2.02821e-12 8.72453e-12 1.84337e-12 -1.83606e-12 1.10048e-14 1.80643e-12 -1.05603e-11 1.09415e-14 -2.41445e-14 1.237e-11 -1.2359e-11 1.05381e-11 -1.05508e-11 1.47554e-14 -1.30897e-14 1.31345e-14 -1.86879e-15 1.23731e-11 -1.23843e-11 1.3275e-14 -3.12921e-17 9.68063e-17 0 0 0.231823 0.475668 0.680339 0.874608 1.05655 1.17837 1.39274 1.42344 1.62766 1.7524 1.76121 1.88197 1.96972 2.01515 2.09125 2.20762 2.23375 2.34522 2.39783 2.37999 2.22021 1.84997 1.063 0.199847 0.00598644 1.08901e-05 1.35189e-09 -1.40603e-11 1.23704e-11 -1.05491e-11 1.05487e-11 -1.23628e-11 1.23521e-11 1.81195e-12 -2.47335e-11 2.47354e-11 -1.23875e-11 2.41008e-14 1.23503e-11 -2.47224e-11 1.23739e-11 1.23486e-11 -1.23484e-11 1.34783e-14 -1.24928e-15 9.40217e-18 1.23363e-11 -2.47226e-11 2.47489e-11 0 0 0.217787 0.442226 0.657881 0.838851 1.01449 1.16699 1.29053 1.51295 1.50865 1.62485 1.83702 1.8341 1.91425 1.99313 2.09742 2.16833 2.24537 2.3219 2.35216 2.27509 2.01932 1.4954 0.553734 0.0516513 0.000633296 3.52789e-07 6.78602e-11 -3.63966e-12 -8.73206e-12 1.38655e-14 -1.04798e-14 1.05731e-14 -1.42894e-14 -1.27487e-14 2.69727e-14 -2.11256e-14 8.84377e-15 -3.48222e-14 3.52038e-14 1.19411e-14 -1.26233e-14 1.2362e-11 -1.23835e-11 3.56874e-14 -1.20709e-15 -6.0577e-16 1.23366e-11 -1.23832e-11 3.5366e-14 0 0 0.205973 0.429999 0.625179 0.807929 0.965603 1.13565 1.30034 1.39153 1.5246 1.58158 1.69785 1.91359 1.88292 1.99376 2.08875 2.13441 2.24476 2.29945 2.26397 2.10849 1.74521 0.97071 0.193245 0.0079842 3.29306e-05 8.09635e-09 -2.9676e-11 3.1525e-11 -1.05311e-11 1.2362e-11 -1.23693e-11 -2.09834e-11 2.09793e-11 2.28327e-16 1.23731e-11 -1.23692e-11 -2.09958e-11 3.33311e-11 -1.23262e-11 1.23604e-11 -1.23608e-11 -2.10043e-11 3.33569e-11 -1.2352e-11 1.23603e-11 -1.2361e-11 -2.10042e-11 3.3344e-11 -2.47227e-11 0 0 0.20196 0.407444 0.593067 0.765885 0.945376 1.11361 1.23894 1.344 1.42463 1.62885 1.61628 1.76994 1.90752 1.98102 2.02905 2.13809 2.21815 2.22882 2.13754 1.86231 1.30675 0.434649 0.0404919 0.000655407 6.8977e-07 2.40491e-10 -3.33167e-11 3.33567e-11 -1.23412e-11 -2.40788e-14 1.23782e-11 -3.33697e-11 3.33569e-11 -1.23524e-11 -1.30311e-14 1.23653e-11 -3.33573e-11 3.33442e-11 -1.23262e-11 -2.58578e-14 1.23782e-11 -3.33569e-11 3.33439e-11 3.51922e-14 -1.24004e-11 7.63132e-15 -2.09754e-11 -1.17695e-14 2.10067e-11 0 0 0.185354 0.375225 0.561856 0.749124 0.92389 1.05263 1.18153 1.29791 1.4431 1.49548 1.633 1.71327 1.85939 1.90189 2.01787 2.0997 2.16241 2.10181 1.9199 1.5092 0.707606 0.11571 0.00477938 2.1235e-05 9.02097e-09 3.8173e-12 1.23715e-11 -1.23703e-11 -4.04307e-15 2.60856e-14 -2.21559e-14 1.23835e-11 -1.23833e-11 -4.13859e-15 2.60663e-14 -3.50425e-14 2.18376e-14 -2.1827e-14 3.50319e-14 -4.81974e-14 1.24002e-11 -6.26459e-17 -1.23872e-11 3.39569e-14 4.73231e-16 -5.31757e-14 -2.094e-11 -1.79533e-15 3.33585e-11 0 0 0.172602 0.367495 0.560536 0.731673 0.86439 1.00339 1.14436 1.29435 1.35556 1.4927 1.57026 1.69788 1.77682 1.88278 1.95023 2.02175 2.01125 1.91908 1.57882 0.945732 0.223256 0.0182792 0.000218795 2.70221e-07 1.45789e-10 -2.46635e-11 2.47224e-11 -2.47222e-11 2.47224e-11 -1.23484e-11 6.03639e-17 1.23481e-11 -2.47223e-11 2.47224e-11 -1.23577e-11 9.43561e-15 -4.83033e-14 3.55021e-14 1.2831e-14 1.23256e-11 -3.33308e-11 3.3356e-11 -1.23867e-11 3.38426e-14 -2.10036e-11 3.33215e-11 -3.33436e-11 3.33892e-11 -3.16576e-14 0 0 0.181481 0.365163 0.532834 0.687583 0.83963 0.985127 1.11935 1.20937 1.36079 1.43199 1.57627 1.61024 1.73084 1.87851 1.87371 1.90293 1.80879 1.56344 1.09048 0.324779 0.0451193 0.00101072 4.32077e-06 2.13628e-09 1.53416e-12 -8.56878e-15 1.23703e-11 -1.23702e-11 2.21846e-14 1.32862e-14 -1.33829e-14 -2.6296e-14 2.63603e-14 -2.18551e-16 -9.52266e-15 -2.09954e-11 3.33083e-11 5.7323e-14 -2.47357e-11 2.47131e-11 -3.33336e-11 -1.08219e-14 3.33544e-11 -3.222e-14 -3.33095e-11 3.32873e-11 6.78467e-14 -3.33889e-11 3.33907e-11 0 0 0.175834 0.337585 0.497748 0.665265 0.811702 0.943633 1.06712 1.21385 1.31018 1.43157 1.47762 1.65329 1.67965 1.75146 1.82661 1.67826 1.51567 1.07804 0.391011 0.0759876 0.00267319 3.16443e-05 1.78859e-08 2.65304e-11 1.29602e-14 1.23518e-11 -3.33569e-11 3.33568e-11 -1.23389e-11 1.34357e-14 -1.35328e-14 -2.61913e-14 2.62445e-14 -1.23744e-11 2.47129e-11 -3.33662e-11 3.33564e-11 -3.3335e-11 2.09828e-11 1.23263e-11 2.3115e-14 -3.33537e-11 3.17392e-14 3.33223e-11 1.31299e-15 -2.20973e-15 -3.3321e-11 3.91008e-15 -2.23947e-15 0 0 0.161903 0.327041 0.486945 0.629617 0.763563 0.90569 1.05518 1.16691 1.285 1.37435 1.51878 1.52869 1.66234 1.60639 1.56623 1.43149 1.00064 0.409136 0.0881076 0.00489724 0.000104943 9.3926e-08 2.30844e-10 9.02594e-14 1.61539e-17 1.23518e-11 -3.33568e-11 2.10044e-11 1.3387e-14 1.34567e-14 -1.35412e-14 1.23483e-11 -2.47228e-11 1.23391e-11 1.23734e-11 -9.04372e-15 -3.33572e-11 2.36294e-17 3.3357e-11 -3.33695e-11 -2.18809e-14 3.33568e-11 -3.32894e-11 -8.4245e-17 3.3322e-11 -3.33227e-11 3.94153e-15 3.57658e-16 -2.26071e-15 0 0 0.154718 0.30785 0.455904 0.600892 0.741519 0.874913 0.996226 1.12922 1.24855 1.36648 1.41094 1.50874 1.43386 1.45111 1.21096 0.901066 0.36012 0.085155 0.00606332 0.000155051 3.08807e-07 9.16725e-10 5.75882e-13 -2.46077e-14 2.89011e-17 -9.53678e-15 1.23705e-11 -2.47226e-11 1.23392e-11 4.85595e-14 -3.5779e-14 2.20516e-14 1.01053e-14 1.23282e-11 -3.33439e-11 3.33e-11 -3.33221e-11 3.33218e-11 -3.33216e-11 -3.50778e-14 3.533e-14 3.32867e-11 -3.32539e-11 -2.31027e-17 3.32863e-11 -3.32861e-11 2.71508e-15 -3.62934e-15 3.33586e-11 0 0 0.147964 0.294386 0.437647 0.575716 0.712169 0.849716 0.987748 1.1094 1.20636 1.27298 1.33132 1.28885 1.26122 1.00798 0.726201 0.256325 0.070564 0.00478934 0.000154672 4.90506e-07 1.47728e-09 1.41521e-11 -2.47163e-11 2.47228e-11 -2.02682e-17 -2.47228e-11 2.47096e-11 -1.23237e-11 1.23013e-11 -4.56919e-11 4.56821e-11 -1.22935e-11 1.23392e-11 -3.31682e-14 -3.33106e-11 -6.77993e-14 3.46776e-14 3.33219e-11 -3.33564e-11 3.33562e-11 -3.33213e-11 3.32866e-11 -3.32543e-11 3.32871e-11 -4.61268e-16 -3.32861e-11 -3.30777e-14 3.33893e-11 -3.14887e-14 0 0 0.140203 0.28076 0.420678 0.558805 0.696255 0.827757 0.942365 1.04328 1.11304 1.14249 1.11315 1.03867 0.791589 0.494983 0.164168 0.0413108 0.00251867 0.000104497 3.07685e-07 1.47511e-09 2.88692e-12 -1.5573e-14 3.95576e-14 -2.60758e-14 -8.60769e-17 1.28015e-14 1.23354e-11 -1.2324e-11 1.2301e-11 -3.33398e-11 3.33299e-11 -3.32978e-11 3.33435e-11 -5.45471e-14 -3.32887e-11 -6.82419e-14 3.54359e-14 -6.4583e-17 3.33544e-11 -3.33546e-11 -1.21634e-16 3.33221e-11 -3.32893e-11 3.32879e-11 -3.32877e-11 -3.28895e-14 3.33571e-11 -3.33564e-11 3.33907e-11 0 0 0.13694 0.272527 0.40554 0.533129 0.654296 0.764031 0.856022 0.915812 0.938077 0.900801 0.77668 0.535928 0.284019 0.0862065 0.0165448 0.000953883 3.14901e-05 9.25555e-08 9.14241e-10 1.41435e-11 -2.47122e-11 1.23745e-11 1.34566e-14 -2.60929e-14 -1.31827e-14 1.23872e-11 -1.23745e-11 -1.23621e-11 2.47131e-11 -8.88552e-15 -3.33572e-11 3.30991e-14 -1.19372e-15 3.33251e-11 -3.33917e-11 3.33564e-11 -3.33215e-11 -1.0338e-16 3.33544e-11 -3.33894e-11 3.33915e-11 -3.33564e-11 -4.17457e-17 3.33556e-11 -3.33904e-11 3.33916e-11 -3.3357e-11 3.64639e-14 -2.19814e-15 0 0 0.125516 0.24865 0.367088 0.477204 0.572279 0.645886 0.691444 0.695176 0.627299 0.48263 0.291828 0.126676 0.0316437 0.00436095 0.000210507 4.28945e-06 1.7478e-08 2.29959e-10 5.39692e-13 -1.99116e-14 3.94362e-14 -1.3051e-14 1.32537e-14 -2.60928e-14 -1.30698e-14 1.16338e-14 1.28214e-14 -3.51506e-14 -2.09696e-11 3.3335e-11 -3.33571e-11 3.33548e-11 -3.33551e-11 5.89784e-16 3.33552e-11 -3.33553e-11 3.25749e-14 3.32891e-11 -3.33568e-11 3.339e-11 -3.33546e-11 3.26803e-14 3.32887e-11 -3.33564e-11 3.33895e-11 -3.33543e-11 3.54559e-14 2.72358e-16 -2.09082e-15 0 0 0.10279 0.201381 0.291582 0.367764 0.420596 0.436158 0.404092 0.327234 0.221902 0.111635 0.0365369 0.00668629 0.000613267 2.0711e-05 2.66259e-07 2.08647e-09 2.63261e-11 1.39951e-13 -2.50282e-14 1.1283e-17 2.65176e-14 -2.62504e-14 2.62503e-14 -2.62125e-14 8.94677e-17 -2.39264e-14 -2.09695e-11 3.3287e-11 -3.32755e-11 3.33236e-11 -3.19308e-16 -3.33916e-11 3.33566e-11 -3.32885e-11 3.3322e-11 -3.3355e-11 3.27239e-14 3.32539e-11 -3.32535e-11 3.33216e-11 -3.33547e-11 3.28496e-14 3.32537e-11 -3.32534e-11 3.33211e-11 -3.33538e-11 3.56251e-14 -7.10401e-14 3.34258e-11 0 0 0.062409 0.117699 0.158832 0.18012 0.178852 0.155181 0.111242 0.0595334 0.0213537 0.00473513 0.000567525 3.15698e-05 6.72413e-07 8.76458e-09 1.42862e-10 -2.32125e-11 2.47353e-11 -2.47223e-11 2.47224e-11 -3.96644e-17 -2.47224e-11 2.47095e-11 -2.47094e-11 2.47225e-11 -9.34634e-15 -2.27915e-14 -6.67004e-11 6.66783e-11 6.85021e-14 -3.32169e-14 -3.10695e-16 -6.67133e-11 6.66782e-11 6.84863e-14 -6.83369e-14 3.51795e-14 -6.67136e-11 6.66784e-11 6.83623e-14 -6.83803e-14 3.50948e-14 -6.67135e-11 6.66784e-11 6.84251e-14 -6.84038e-14 3.54342e-14 -6.67137e-11 6.66785e-11 -3.33218e-11 0 0 0.0183414 0.0326023 0.0392384 0.0363301 0.0256672 0.0131967 0.00469386 0.00108328 0.000146672 1.01994e-05 3.37157e-07 7.65479e-09 2.08307e-10 3.7215e-12 5.75088e-14 -8.2739e-15 1.23703e-11 -1.23703e-11 9.09486e-15 -6.15762e-17 1.31804e-14 1.23352e-11 -2.47105e-11 2.47012e-11 3.65363e-15 -3.33573e-11 3.62138e-14 -3.59828e-14 3.33569e-11 8.26802e-17 -3.33571e-11 3.61284e-14 -3.62149e-14 3.33569e-11 -6.1638e-17 -3.33568e-11 3.6108e-14 -3.60873e-14 3.33566e-11 3.14048e-16 -3.33569e-11 3.60889e-14 -3.61487e-14 3.33572e-11 3.19134e-14 -3.33892e-11 -2.95178e-16 -8.40968e-16 8.19976e-16 0 0 0.000612342 0.000861235 0.000700345 0.000378402 0.000137577 3.24772e-05 4.63513e-06 3.81281e-07 2.10068e-08 1.22367e-09 6.06017e-11 -2.97969e-11 3.33944e-11 -1.23509e-11 -9.58704e-18 1.23521e-11 -3.33568e-11 3.33569e-11 -1.23521e-11 -1.29705e-14 1.23874e-11 -1.23745e-11 1.098e-14 -2.10381e-11 1.31323e-14 3.53282e-14 2.30386e-16 -1.25274e-16 -3.60633e-14 -6.31411e-17 3.60424e-14 -8.41312e-17 -2.75953e-15 -3.34935e-14 -2.30234e-16 3.65886e-14 1.88229e-16 -1.88229e-16 -3.66727e-14 2.92373e-16 3.64012e-14 1.67363e-16 -3.47097e-15 3.32539e-11 -3.32549e-11 -6.82757e-14 3.33213e-11 -6.66439e-11 3.33536e-11 0 0 5.81895e-08 6.78078e-08 4.14515e-08 1.61419e-08 4.59266e-09 1.059e-09 1.94017e-10 2.32983e-11 1.78095e-12 1.06616e-11 1.4924e-15 -3.15682e-11 3.33567e-11 -1.2352e-11 -9.53426e-18 1.2352e-11 -3.33569e-11 2.10047e-11 2.14858e-16 1.23728e-11 -1.23729e-11 -1.23622e-11 2.47129e-11 -3.34002e-11 3.54912e-14 3.53074e-14 1.25274e-16 -6.09082e-16 -3.56421e-14 -2.79143e-18 3.61297e-14 -3.60234e-14 3.3355e-11 -3.33906e-11 3.49128e-14 3.65663e-14 2.29942e-16 -2.29933e-16 -7.16878e-14 3.54131e-14 3.61478e-14 -2.65068e-15 -8.62965e-16 3.32539e-11 -6.66442e-11 6.66424e-11 -3.33572e-11 -3.3286e-11 3.3353e-11 0 0 2.27209e-13 -1.47649e-12 2.10654e-12 -1.64274e-12 6.04014e-14 1.83841e-12 -1.05541e-11 1.05516e-11 -1.23741e-11 1.2374e-11 -1.23927e-11 1.41916e-11 -1.23814e-11 -3.66462e-15 2.61482e-14 -2.23846e-14 1.23834e-11 -2.47357e-11 1.23394e-11 1.23946e-11 -1.23953e-11 3.42111e-14 -2.10393e-11 3.33683e-11 2.28212e-15 -3.33574e-11 3.58128e-14 -3.63592e-14 3.33577e-11 -3.51855e-14 -3.32895e-11 3.32895e-11 -3.33568e-11 3.33564e-11 3.50622e-14 -3.33566e-11 3.57066e-14 -3.57672e-14 3.33219e-11 -3.3376e-11 8.52878e-14 3.3164e-11 -3.3165e-11 -3.02876e-14 -8.81478e-16 -3.66309e-14 -3.33214e-11 3.33218e-11 3.6147e-14 0 0 -1.0548e-15 -1.27341e-12 -3.64166e-15 -3.2164e-16 -1.81377e-12 -1.12589e-14 1.82502e-12 -1.83432e-12 1.82507e-12 -1.05718e-11 1.35457e-14 1.23343e-11 -2.47204e-11 2.47226e-11 -1.23481e-11 1.33071e-14 -1.31771e-14 1.31357e-14 -4.84806e-14 -2.09959e-11 3.33471e-11 3.49704e-14 -3.33789e-11 3.33907e-11 -3.28345e-14 -6.71857e-16 -6.6714e-11 6.6714e-11 -3.45516e-14 3.14105e-14 -3.33212e-11 3.32544e-11 -3.32538e-11 3.32888e-11 -3.33218e-11 3.33217e-11 -3.32913e-11 3.32912e-11 -3.33215e-11 -2.36566e-14 -8.41006e-11 1.17315e-10 -3.31608e-11 -3.00331e-14 -9.45095e-16 -3.33588e-11 3.33228e-11 3.3286e-11 -6.6607e-11 0 0 -1.10047e-15 -1.27714e-12 -1.73507e-15 -2.02443e-15 -1.82334e-12 1.823e-12 -1.82493e-12 1.10617e-14 1.79163e-12 -1.0546e-11 -8.44392e-15 1.23456e-11 -1.23703e-11 2.22876e-14 -1.8865e-17 1.33992e-14 -1.32697e-14 1.32409e-14 -3.57208e-14 -2.10313e-11 3.33824e-11 -3.33565e-11 3.33566e-11 5.28294e-16 5.25134e-16 -3.33575e-11 3.57919e-14 -3.5709e-14 3.33543e-11 -3.33226e-11 -3.27168e-14 3.33226e-11 -3.32889e-11 3.3289e-11 -3.33216e-11 3.33215e-11 -3.3291e-11 3.32911e-11 -3.33575e-11 4.5607e-14 -8.42013e-11 8.41645e-11 2.56418e-14 -2.93968e-16 -3.33568e-11 3.33563e-11 -3.52773e-14 -3.51574e-14 7.13921e-14 0 0 -8.83305e-16 -1.81721e-12 5.81115e-16 -1.81595e-12 1.80617e-12 -1.05622e-11 1.05604e-11 -1.81557e-12 -1.14154e-14 -8.73203e-12 -8.23504e-15 -2.10074e-11 3.33439e-11 -1.23391e-11 1.23481e-11 -2.47225e-11 2.47226e-11 -1.23482e-11 -2.2773e-14 1.2358e-11 -3.33634e-11 3.31428e-14 3.32886e-11 -3.33211e-11 3.96331e-16 3.52847e-14 -8.41312e-17 -3.56849e-14 3.33542e-11 -3.33893e-11 3.33907e-11 -3.33563e-11 5.91182e-16 3.33569e-11 -3.5079e-14 -3.33217e-11 -2.73188e-16 -3.39589e-16 3.3321e-11 -6.66986e-11 6.66273e-11 -6.66619e-11 3.34064e-11 -3.0282e-14 8.6005e-16 3.54815e-14 -3.64669e-14 -3.33216e-11 3.33525e-11 0 0 -1.44447e-15 5.36588e-13 -3.63108e-12 1.81385e-12 -9.63209e-15 -1.05585e-11 -5.99962e-18 1.05586e-11 -1.82519e-12 -8.74645e-12 1.3217e-14 -2.10292e-11 3.3357e-11 -1.23391e-11 -2.61893e-14 2.60656e-14 -2.59924e-14 2.58765e-14 9.83116e-15 1.2339e-11 -3.33444e-11 3.52028e-16 3.32892e-11 -3.33563e-11 3.54309e-14 3.5245e-14 -2.8016e-15 3.32889e-11 -3.33567e-11 3.33896e-11 -3.3355e-11 -1.26149e-16 3.33564e-11 -3.3356e-11 3.33217e-11 -6.66787e-11 6.66424e-11 -3.32868e-11 6.93913e-16 3.59412e-14 -1.08262e-13 -3.32856e-11 3.33164e-11 5.46855e-15 2.26204e-16 3.59227e-14 -3.62137e-14 -3.33222e-11 3.33534e-11 0 0 4.56578e-16 -1.27674e-12 -1.90011e-15 -5.96581e-16 -1.82459e-12 1.8156e-12 -1.05586e-11 -5.79338e-17 1.05381e-11 1.80812e-12 -2.47324e-11 2.4723e-11 -1.23702e-11 -3.84398e-15 2.60475e-14 -1.1239e-16 -1.23742e-11 1.23386e-11 1.24191e-11 -1.02567e-13 8.00513e-14 -3.33891e-11 2.95908e-16 3.33553e-11 2.38463e-15 -3.33577e-11 3.32029e-14 3.32536e-11 -3.32863e-11 3.33545e-11 -3.33548e-11 3.3357e-11 -3.33579e-11 3.68626e-14 -3.57512e-14 3.53985e-14 -1.08517e-13 7.08921e-14 1.97443e-15 3.60258e-14 -7.32893e-14 -3.46981e-14 3.44464e-14 -3.33213e-11 3.33574e-11 -5.94225e-15 -3.33512e-11 3.32856e-11 7.23408e-14 0 0 4.85966e-16 -1.81343e-12 1.81355e-12 -1.8141e-12 4.58723e-16 -1.12841e-14 1.80641e-12 -1.05495e-11 -1.09181e-14 -1.49647e-14 2.64409e-14 1.23233e-11 -2.47093e-11 2.47226e-11 -1.23577e-11 9.20862e-15 -3.52617e-14 1.23737e-11 -3.33442e-11 3.33326e-11 -3.33546e-11 3.33221e-11 -3.32886e-11 3.33219e-11 2.40725e-15 -1.03133e-15 -6.67141e-11 6.66789e-11 3.55584e-14 -3.33918e-11 3.33918e-11 -3.51579e-14 -3.33218e-11 3.61258e-14 2.47284e-19 -2.2639e-16 -3.81727e-14 -3.33578e-11 3.33586e-11 -3.41948e-14 -1.80695e-15 -3.49299e-14 -3.3287e-11 3.3358e-11 -8.8357e-14 8.19535e-14 -3.34051e-11 6.66624e-11 -6.66073e-11 0 0 4.8993e-16 -1.81768e-12 1.81774e-12 -1.81913e-12 -3.73864e-15 1.81918e-12 -1.83774e-12 -8.72661e-12 -2.399e-14 1.32009e-14 2.23161e-15 1.23456e-11 -1.23832e-11 3.52797e-14 -9.64802e-15 -2.09955e-11 3.33211e-11 3.49032e-14 -3.34137e-11 6.75864e-14 -6.80296e-14 3.33572e-11 -3.32884e-11 3