<?xml version="1.0"?>
<VTKFile type="PolyData">
	<PolyData>
		<Piece NumberOfPoints="2601" NumberOfPolys="2500">
			<Points>
				<DataArray type="Float32" NumberOfComponents="3" format="ascii">
 0 0 0 0.334722 0 0 0.263889 0 0 0.330966 0 0 0.340795 0 0 0.361885 0 0 0.380966 0 0 0.395464 0 0 0.410245 0 0 0.420884 0 0 0.433401 0 0 0.441925 0 0 0.452318 0 0 0.460106 0 0 0.468962 0 0 0.476055 0 0 0.482871 0 0 0.488867 0 0 0.495239 0 0 0.500366 0 0 0.505427 0 0 0.510086 0 0 0.514358 0 0 0.518441 0 0 0.522346 0 0 0.526812 0 0 0.533146 0 0 0.543555 0 0 0.560193 0 0 0.58 0 0 0.6 0 0 0.62 0 0 0.64 0 0 0.66 0 0 0.68 0 0 0.7 0 0 0.72 0 0 0.74 0 0 0.76 0 0 0.78 0 0 0.8 0 0 0.82 0 0 0.84 0 0 0.86 0 0 0.88 0 0 0.9 0 0 0.92 0 0 0.94 0 0 0.96 0 0 0.98 0 0 1 0 0 0 0.334722 0 0.154382 0.154382 0 0.308721 0.135147 0 0.293928 0.11985 0 0.336615 0.0851393 0 0.35765 0.0757713 0 0.375785 0.0677492 0 0.393418 0.0610095 0 0.405942 0.0560321 0 0.419876 0.0514954 0 0.429882 0.0472054 0 0.4416 0.0435078 0 0.449891 0.04021 0 0.459703 0.0375739 0 0.467381 0.0353806 0 0.475358 0.0334354 0 0.481804 0.0316607 0 0.488256 0.0300356 0 0.494313 0.0285218 0 0.499737 0.0271067 0 0.504816 0.0258676 0 0.50956 0.0247582 0 0.513863 0.0237475 0 0.517989 0.0228137 0 0.521934 0.0219466 0 0.526459 0.0211746 0 0.532881 0.0205503 0 0.543417 0.0201536 0 0.560177 0.0200144 0 0.58 0.02 0 0.6 0.02 0 0.62 0.02 0 0.64 0.02 0 0.66 0.02 0 0.68 0.02 0 0.7 0.02 0 0.72 0.02 0 0.74 0.02 0 0.76 0.02 0 0.78 0.02 0 0.8 0.02 0 0.82 0.02 0 0.84 0.02 0 0.86 0.02 0 0.88 0.02 0 0.9 0.02 0 0.92 0.02 0 0.94 0.02 0 0.96 0.02 0 0.98 0.02 0 1 0.02 0 0 0.263889 0 0.135147 0.308721 0 0.177084 0.177084 0 0.28318 0.196201 0 0.308157 0.166831 0 0.338159 0.144774 0 0.362775 0.130152 0 0.380506 0.120193 0 0.397958 0.109616 0 0.410862 0.100828 0 0.425098 0.0928686 0 0.435155 0.0856798 0 0.446722 0.0797321 0 0.45527 0.0746261 0 0.464633 0.0703207 0 0.471921 0.0664847 0 0.479376 0.062945 0 0.485951 0.0597298 0 0.492014 0.0566918 0 0.497746 0.0539583 0 0.503055 0.0515054 0 0.507961 0.0493234 0 0.51241 0.047331 0 0.516639 0.0454907 0 0.520712 0.043777 0 0.525412 0.0422554 0 0.532099 0.0410342 0 0.543023 0.040277 0 0.560138 0.0400231 0 0.58 0.0400001 0 0.6 0.04 0 0.62 0.04 0 0.64 0.04 0 0.66 0.04 0 0.68 0.04 0 0.7 0.04 0 0.72 0.04 0 0.74 0.04 0 0.76 0.04 0 0.78 0.04 0 0.8 0.04 0 0.82 0.04 0 0.84 0.04 0 0.86 0.04 0 0.88 0.04 0 0.9 0.04 0 0.92 0.04 0 0.94 0.04 0 0.96 0.04 0 0.98 0.04 0 1 0.04 0 0 0.330966 0 0.11985 0.293928 0 0.196201 0.28318 0 0.20055 0.20055 0 0.270921 0.231111 0 0.314052 0.197521 0 0.34014 0.185856 0 0.36522 0.169164 0 0.383286 0.157897 0 0.401287 0.145396 0 0.414607 0.134823 0 0.428805 0.125436 0 0.439054 0.117253 0 0.45028 0.110329 0 0.458688 0.10426 0 0.467387 0.098652 0 0.474937 0.0935666 0 0.482248 0.0887316 0 0.488434 0.0842749 0 0.494608 0.0802827 0 0.500153 0.0767216 0 0.505347 0.0735319 0 0.510029 0.0706181 0 0.514421 0.0679043 0 0.518702 0.0653817 0 0.523704 0.0631522 0 0.530847 0.0613912 0 0.542432 0.0603468 0 0.560089 0.0600235 0 0.58 0.06 0 0.6 0.06 0 0.62 0.06 0 0.64 0.06 0 0.66 0.06 0 0.68 0.06 0 0.7 0.06 0 0.72 0.06 0 0.74 0.06 0 0.76 0.06 0 0.78 0.06 0 0.8 0.06 0 0.82 0.06 0 0.84 0.06 0 0.86 0.06 0 0.88 0.06 0 0.9 0.06 0 0.92 0.06 0 0.94 0.06 0 0.96 0.06 0 0.98 0.06 0 1 0.06 0 0 0.340795 0 0.0851393 0.336615 0 0.166831 0.308157 0 0.231111 0.270921 0 0.232269 0.232269 0 0.282059 0.252646 0 0.320727 0.220249 0 0.345239 0.214288 0 0.36905 0.196894 0 0.386783 0.185683 0 0.404483 0.172937 0 0.417561 0.162377 0 0.431281 0.152751 0 0.441335 0.144383 0 0.452035 0.136598 0 0.460588 0.129631 0 0.469393 0.122931 0 0.476809 0.116753 0 0.483923 0.111024 0 0.490301 0.105929 0 0.496273 0.101358 0 0.501732 0.0972618 0 0.506768 0.0934782 0 0.511373 0.0899372 0 0.515958 0.086655 0 0.521393 0.0837862 0 0.529205 0.0815741 0 0.541744 0.0803522 0 0.560047 0.0800173 0 0.58 0.08 0 0.6 0.08 0 0.62 0.08 0 0.64 0.08 0 0.66 0.08 0 0.68 0.08 0 0.7 0.08 0 0.72 0.08 0 0.74 0.08 0 0.76 0.08 0 0.78 0.08 0 0.8 0.08 0 0.82 0.08 0 0.84 0.08 0 0.86 0.08 0 0.88 0.08 0 0.9 0.08 0 0.92 0.08 0 0.94 0.08 0 0.96 0.08 0 0.98 0.08 0 1 0.08 0 0 0.361885 0 0.0757713 0.35765 0 0.144774 0.338159 0 0.197521 0.314052 0 0.252646 0.282059 0 0.261578 0.261578 0 0.298658 0.267181 0 0.328087 0.240078 0 0.350754 0.235941 0 0.373069 0.218665 0 0.389889 0.20843 0 0.406832 0.195979 0 0.419467 0.18589 0 0.432697 0.175815 0 0.442804 0.167134 0 0.45353 0.158575 0 0.462072 0.150821 0 0.470655 0.143409 0 0.478193 0.136834 0 0.485064 0.130751 0 0.491412 0.125361 0 0.49723 0.12039 0 0.502652 0.115806 0 0.50757 0.111475 0 0.512559 0.107509 0 0.518575 0.104096 0 0.527283 0.101562 0 0.541082 0.100298 0 0.560019 0.100009 0 0.58 0.1 0 0.6 0.1 0 0.62 0.1 0 0.64 0.1 0 0.66 0.1 0 0.68 0.1 0 0.7 0.1 0 0.72 0.1 0 0.74 0.1 0 0.76 0.1 0 0.78 0.1 0 0.8 0.1 0 0.82 0.1 0 0.84 0.1 0 0.86 0.1 0 0.88 0.1 0 0.9 0.1 0 0.92 0.1 0 0.94 0.1 0 0.96 0.1 0 0.98 0.1 0 1 0.1 0 0 0.380966 0 0.0677492 0.375785 0 0.130152 0.362775 0 0.185856 0.34014 0 0.220249 0.320727 0 0.267181 0.298658 0 0.281999 0.281999 0 0.311309 0.280767 0 0.335267 0.256903 0 0.355938 0.253952 0 0.376803 0.236624 0 0.392739 0.227517 0 0.408927 0.214953 0 0.421226 0.205309 0 0.434285 0.194826 0 0.44433 0.185949 0 0.454563 0.176876 0 0.463291 0.169044 0 0.471653 0.161523 0 0.478873 0.154796 0 0.485736 0.148565 0 0.491902 0.142826 0 0.497781 0.137472 0 0.503082 0.132437 0 0.508608 0.127877 0 0.515382 0.124056 0 0.52524 0.121371 0 0.540557 0.120205 0 0.560006 0.120004 0 0.58 0.12 0 0.6 0.12 0 0.62 0.12 0 0.64 0.12 0 0.66 0.12 0 0.68 0.12 0 0.7 0.12 0 0.72 0.12 0 0.74 0.12 0 0.76 0.12 0 0.78 0.12 0 0.8 0.12 0 0.82 0.12 0 0.84 0.12 0 0.86 0.12 0 0.88 0.12 0 0.9 0.12 0 0.92 0.12 0 0.94 0.12 0 0.96 0.12 0 0.98 0.12 0 1 0.12 0 0 0.395464 0 0.0610095 0.393418 0 0.120193 0.380506 0 0.169164 0.36522 0 0.214288 0.345239 0 0.240078 0.328087 0 0.280767 0.311309 0 0.297989 0.297989 0 0.321976 0.292913 0 0.342656 0.27148 0 0.361107 0.268939 0 0.38049 0.251531 0 0.395556 0.243525 0 0.411146 0.230698 0 0.423078 0.221545 0 0.435498 0.210674 0 0.445434 0.202027 0 0.455572 0.193055 0 0.463995 0.185241 0 0.472159 0.17773 0 0.479234 0.170871 0 0.485993 0.164404 0 0.492213 0.158399 0 0.498022 0.152747 0 0.504203 0.147739 0 0.511976 0.14367 0 0.523298 0.141054 0 0.540228 0.140109 0 0.560001 0.140001 0 0.58 0.14 0 0.6 0.14 0 0.62 0.14 0 0.64 0.14 0 0.66 0.14 0 0.68 0.14 0 0.7 0.14 0 0.72 0.14 0 0.74 0.14 0 0.76 0.14 0 0.78 0.14 0 0.8 0.14 0 0.82 0.14 0 0.84 0.14 0 0.86 0.14 0 0.88 0.14 0 0.9 0.14 0 0.92 0.14 0 0.94 0.14 0 0.96 0.14 0 0.98 0.14 0 1 0.14 0 0 0.410245 0 0.0560321 0.405942 0 0.109616 0.397958 0 0.157897 0.383286 0 0.196894 0.36905 0 0.235941 0.350754 0 0.256903 0.335267 0 0.292913 0.321976 0 0.31129 0.31129 0 0.332027 0.303137 0 0.350314 0.284262 0 0.367309 0.281196 0 0.384731 0.263942 0 0.39877 0.25676 0 0.413382 0.243646 0 0.42483 0.235186 0 0.43692 0.224466 0 0.446517 0.216113 0 0.456266 0.20726 0 0.464608 0.199593 0 0.472359 0.191983 0 0.4795 0.185078 0 0.486102 0.178449 0 0.492499 0.172401 0 0.499501 0.167094 0 0.508529 0.162991 0 0.521721 0.160686 0 0.54007 0.160042 0 0.56 0.16 0 0.58 0.16 0 0.6 0.16 0 0.62 0.16 0 0.64 0.16 0 0.66 0.16 0 0.68 0.16 0 0.7 0.16 0 0.72 0.16 0 0.74 0.16 0 0.76 0.16 0 0.78 0.16 0 0.8 0.16 0 0.82 0.16 0 0.84 0.16 0 0.86 0.16 0 0.88 0.16 0 0.9 0.16 0 0.92 0.16 0 0.94 0.16 0 0.96 0.16 0 0.98 0.16 0 1 0.16 0 0 0.420884 0 0.0514954 0.419876 0 0.100828 0.410862 0 0.145396 0.401287 0 0.185683 0.386783 0 0.218665 0.373069 0 0.253952 0.355938 0 0.27148 0.342656 0 0.303137 0.332027 0 0.322372 0.322372 0 0.340946 0.311549 0 0.357795 0.295513 0 0.373681 0.290791 0 0.389146 0.274265 0 0.402354 0.267671 0 0.416099 0.254791 0 0.426952 0.247 0 0.438276 0.236436 0 0.447722 0.2285 0 0.456973 0.219747 0 0.465045 0.212153 0 0.472628 0.204615 0 0.479594 0.197708 0 0.486681 0.191352 0 0.494721 0.186004 0 0.505301 0.182128 0 0.520699 0.180353 0 0.540015 0.180011 0 0.56 0.18 0 0.58 0.18 0 0.6 0.18 0 0.62 0.18 0 0.64 0.18 0 0.66 0.18 0 0.68 0.18 0 0.7 0.18 0 0.72 0.18 0 0.74 0.18 0 0.76 0.18 0 0.78 0.18 0 0.8 0.18 0 0.82 0.18 0 0.84 0.18 0 0.86 0.18 0 0.88 0.18 0 0.9 0.18 0 0.92 0.18 0 0.94 0.18 0 0.96 0.18 0 0.98 0.18 0 1 0.18 0 0 0.433401 0 0.0472054 0.429882 0 0.0928686 0.425098 0 0.134823 0.414607 0 0.172937 0.404483 0 0.20843 0.389889 0 0.236624 0.376803 0 0.268939 0.361107 0 0.284262 0.350314 0 0.311549 0.340946 0 0.331364 0.331364 0 0.348638 0.318857 0 0.36397 0.305224 0 0.379454 0.298741 0 0.3935 0.283581 0 0.406133 0.277252 0 0.418706 0.264603 0 0.429154 0.257374 0 0.43981 0.247114 0 0.448816 0.239378 0 0.457702 0.230878 0 0.465383 0.223361 0 0.472952 0.216082 0 0.480773 0.209743 0 0.490113 0.20454 0 0.502687 0.20127 0 0.520206 0.20013 0 0.540002 0.200002 0 0.56 0.2 0 0.58 0.2 0 0.6 0.2 0 0.62 0.2 0 0.64 0.2 0 0.66 0.2 0 0.68 0.2 0 0.7 0.2 0 0.72 0.2 0 0.74 0.2 0 0.76 0.2 0 0.78 0.2 0 0.8 0.2 0 0.82 0.2 0 0.84 0.2 0 0.86 0.2 0 0.88 0.2 0 0.9 0.2 0 0.92 0.2 0 0.94 0.2 0 0.96 0.2 0 0.98 0.2 0 1 0.2 0 0 0.441925 0 0.0435078 0.4416 0 0.0856798 0.435155 0 0.125436 0.428805 0 0.162377 0.417561 0 0.195979 0.406832 0 0.227517 0.392739 0 0.251531 0.38049 0 0.281196 0.367309 0 0.295513 0.357795 0 0.318857 0.348638 0 0.338639 0.338639 0 0.354828 0.325512 0 0.369386 0.313984 0 0.38467 0.306187 0 0.397265 0.29226 0 0.409452 0.285896 0 0.421173 0.273708 0 0.431037 0.266641 0 0.441162 0.256819 0 0.449791 0.249248 0 0.458159 0.240988 0 0.466209 0.233929 0 0.475087 0.227622 0 0.485978 0.222972 0 0.501026 0.220585 0 0.520041 0.220031 0 0.54 0.22 0 0.56 0.22 0 0.58 0.22 0 0.6 0.22 0 0.62 0.22 0 0.64 0.22 0 0.66 0.22 0 0.68 0.22 0 0.7 0.22 0 0.72 0.22 0 0.74 0.22 0 0.76 0.22 0 0.78 0.22 0 0.8 0.22 0 0.82 0.22 0 0.84 0.22 0 0.86 0.22 0 0.88 0.22 0 0.9 0.22 0 0.92 0.22 0 0.94 0.22 0 0.96 0.22 0 0.98 0.22 0 1 0.22 0 0 0.452318 0 0.04021 0.449891 0 0.0797321 0.446722 0 0.117253 0.439054 0 0.152751 0.431281 0 0.18589 0.419467 0 0.214953 0.408927 0 0.243525 0.395556 0 0.263942 0.384731 0 0.290791 0.37368
[...]
			<PointData Scalars="VitesseX">
				<DataArray Name="VitesseX" type="Float32" format="ascii">
 0 2.03811 0.884221 1.52295 1.4964 1.58025 1.59467 1.79714 1.86437 1.86064 1.92037 1.99909 2.06517 2.0448 2.11836 2.21622 2.29773 2.21153 2.32134 2.36509 2.468 2.47173 2.526 2.54421 2.50615 2.31925 1.85595 0.991068 0.108502 0.000319911 4.01252e-09 3.3339e-14 0 -1.67733e-20 1.67733e-20 -3.42176e-20 3.42176e-20 -1.67733e-20 1.67733e-20 -1.67733e-20 1.67733e-20 -3.42176e-20 3.42176e-20 0 0 -3.42176e-20 3.42176e-20 -3.42176e-20 3.42176e-20 0 0 0 0.341096 1.63201 1.04747 1.50683 1.54847 1.58381 1.77127 1.85239 1.83979 1.91565 2.0089 2.03343 2.07123 2.1139 2.23139 2.2597 2.23004 2.32769 2.34657 2.45857 2.47587 2.51912 2.54289 2.50246 2.31133 1.84062 0.967689 0.101011 0.000278693 3.56127e-09 3.04541e-14 0 -1.67733e-20 1.67733e-20 -3.42176e-20 3.42176e-20 -1.67733e-20 1.67733e-20 -1.67733e-20 1.67733e-20 -3.42176e-20 3.42176e-20 0 0 -3.42176e-20 3.42176e-20 -3.42176e-20 3.42176e-20 0 0 0 0.823996 0.435502 1.33195 1.25774 1.43495 1.52437 1.68595 1.78428 1.82916 1.89399 1.96762 2.02739 2.04808 2.15547 2.19475 2.19442 2.2615 2.33788 2.31982 2.43141 2.48054 2.50254 2.5376 2.49095 2.28704 1.79421 0.896981 0.0809983 0.000183523 2.48586e-09 2.31456e-14 3.5224e-20 -2.65018e-20 -8.72213e-21 -1.71088e-20 1.71088e-20 4.39461e-20 -4.39461e-20 8.72213e-21 -8.72213e-21 -1.71088e-20 5.23328e-20 -3.5224e-20 0 1.81152e-20 -1.81152e-20 1.81152e-20 -1.81152e-20 0 0 0 0.733325 0.981036 0.524373 1.10532 1.33139 1.42296 1.5836 1.70929 1.7738 1.85365 1.93375 1.97852 2.07174 2.13068 2.16352 2.14017 2.29713 2.30758 2.33051 2.38972 2.47279 2.48435 2.52626 2.46881 2.24463 1.71548 0.778755 0.0549367 9.02489e-05 1.35708e-09 1.44877e-14 0 -1.81152e-20 1.81152e-20 -3.5224e-20 3.5224e-20 -1.84507e-20 1.84507e-20 -1.81152e-20 1.81152e-20 -3.5224e-20 3.5224e-20 0 0 -3.55594e-20 3.55594e-20 -3.55594e-20 3.55594e-20 0 0 0 0.398162 0.795848 1.08723 0.908055 1.18528 1.35516 1.50298 1.63743 1.72325 1.79718 1.87768 1.96092 2.03498 2.09635 2.10142 2.17143 2.24999 2.27891 2.34415 2.35787 2.44258 2.46976 2.50717 2.43201 2.17902 1.60184 0.61805 0.0306315 3.24331e-05 5.72036e-10 7.33312e-15 -3.5224e-20 3.5224e-20 0 -3.5224e-20 3.5224e-20 3.48885e-20 -3.48885e-20 0 0 -3.5224e-20 0 3.5224e-20 0 -3.35466e-22 3.35466e-22 -7.07834e-20 7.07834e-20 0 0 0 0.357081 0.633151 0.838243 1.16156 1.17395 1.33283 1.43107 1.56424 1.65758 1.74113 1.82403 1.92353 2.00037 2.01332 2.11445 2.17664 2.18784 2.2736 2.32749 2.34677 2.39921 2.45264 2.48072 2.37824 2.08134 1.44501 0.432337 0.0135425 8.24563e-06 1.81569e-10 2.90243e-15 7.04479e-20 -3.5224e-20 -3.5224e-20 0 0 1.05672e-19 -1.05672e-19 3.5224e-20 -3.5224e-20 0 7.04479e-20 -7.04479e-20 0 7.04479e-20 -7.04479e-20 7.04479e-20 -7.04479e-20 0 0 0 0.30719 0.558718 0.799651 0.874663 1.16323 1.29897 1.44676 1.48983 1.59373 1.68134 1.77403 1.86755 1.91936 2.00726 2.10764 2.14592 2.14595 2.26989 2.27963 2.35789 2.34786 2.43234 2.4399 2.30851 1.94394 1.22732 0.254055 0.00455167 1.43072e-06 4.18557e-11 8.55399e-16 -7.04479e-20 7.04479e-20 -7.04479e-20 0 7.04479e-20 -1.40896e-19 1.40896e-19 -7.04479e-20 0 7.04479e-20 -7.04479e-20 7.04479e-20 0 -7.04479e-20 0 7.04479e-20 -7.04479e-20 0 0 0 0.277681 0.560846 0.723426 0.952499 0.985973 1.25568 1.40344 1.48265 1.53009 1.60499 1.71404 1.78572 1.87597 1.99508 2.07181 2.06819 2.15922 2.20126 2.26455 2.34133 2.32041 2.40723 2.37951 2.21052 1.76702 0.935134 0.118576 0.00110485 1.70159e-07 6.86128e-12 1.74653e-16 -7.04479e-20 0 7.04479e-20 -7.04479e-20 7.04479e-20 -1.40896e-19 1.40896e-19 -7.04479e-20 7.04479e-20 -7.04479e-20 0 7.04479e-20 0 -1.40896e-19 1.40896e-19 -1.40896e-19 1.40896e-19 0 0 0 0.26552 0.501633 0.727191 0.852011 1.08413 1.0984 1.3217 1.45331 1.5225 1.56351 1.65337 1.73893 1.87671 1.95452 1.9723 2.07048 2.11472 2.14861 2.24902 2.29682 2.32604 2.36787 2.30032 2.06271 1.5385 0.596633 0.0414633 0.000180208 1.61199e-08 8.50088e-13 1.01389e-17 7.04479e-20 -7.04479e-20 0 7.04479e-20 -1.40896e-19 2.11008e-19 -2.11008e-19 7.04479e-20 1.40896e-19 -1.40896e-19 0 -7.04479e-20 1.40896e-19 -7.04479e-20 1.40896e-19 -2.81792e-19 2.81792e-19 -1.40896e-19 0 0 0.231856 0.479747 0.648906 0.851926 0.956683 1.20155 1.17978 1.38179 1.49769 1.59143 1.67367 1.76638 1.84757 1.87159 1.94781 2.0379 2.07684 2.12219 2.21369 2.25757 2.3326 2.30682 2.19974 1.86553 1.21757 0.29454 0.0102247 1.79568e-05 1.48868e-09 9.35392e-14 -5.26224e-18 0 7.04479e-20 -7.04479e-20 0 0 2.11008e-19 -2.11008e-19 7.04479e-20 -7.04479e-20 0 0 0 0 1.40896e-19 -1.40896e-19 0 0 0 0 0 0.219787 0.442366 0.62296 0.779181 0.965817 1.06094 1.28507 1.24455 1.45972 1.56878 1.68994 1.75637 1.77083 1.84648 1.95096 1.99767 2.04352 2.14196 2.14613 2.26572 2.29807 2.24888 2.04879 1.62482 0.798066 0.104127 0.00164537 1.00226e-06 1.1278e-10 9.1024e-15 7.04479e-20 -1.40896e-19 1.40896e-19 7.04479e-20 -2.81792e-19 2.81792e-19 -1.40896e-19 0 1.40896e-19 -2.81792e-19 1.40896e-19 1.40896e-19 -1.40896e-19 0 0 0 1.40896e-19 -2.81792e-19 2.81792e-19 0 0 0.206723 0.409633 0.591065 0.745973 0.913755 1.07421 1.15348 1.35329 1.37188 1.53573 1.65037 1.72356 1.79201 1.8482 1.90676 1.95765 2.0592 2.09158 2.15668 2.24389 2.24835 2.14776 1.85162 1.28104 0.389787 0.0245811 0.000152059 3.54114e-08 5.49087e-12 5.90738e-16 0 1.4056e-19 -1.4056e-19 0 0 0 0 0 0 0 0 1.40896e-19 -1.40896e-19 0 0 0 1.40896e-19 -1.40896e-19 0 0 0 0.18705 0.383401 0.552846 0.726252 0.888387 1.03179 1.15011 1.22635 1.47109 1.45998 1.5625 1.68496 1.73572 1.83666 1.87856 1.96915 2.03817 2.07263 2.16533 2.21086 2.16578 1.98493 1.5922 0.809214 0.129146 0.00353774 6.99051e-06 1.35227e-09 2.15212e-13 -1.01189e-17 -1.40896e-19 -3.35466e-22 3.35466e-22 0 1.40896e-19 -1.40896e-19 -1.40896e-19 2.81792e-19 -1.40896e-19 1.40896e-19 -1.40896e-19 -1.40896e-19 2.81792e-19 -1.40896e-19 1.40896e-19 -1.40896e-19 -1.40896e-19 4.22017e-19 -4.22017e-19 0 0 0.176114 0.358466 0.541365 0.705062 0.860736 0.979895 1.11206 1.27382 1.34264 1.46723 1.52463 1.5701 1.79268 1.77211 1.86759 1.96177 1.9825 2.08082 2.15853 2.13802 2.04235 1.75185 1.18969 0.358045 0.026488 0.00027234 1.49038e-07 4.47311e-11 9.05101e-15 -1.02588e-17 1.40896e-19 -2.81792e-19 2.81792e-19 -1.40896e-19 0 1.40896e-19 -2.81792e-19 2.81792e-19 -1.40896e-19 0 1.40896e-19 -2.81792e-19 2.81792e-19 0 -1.40896e-19 0 -6.70933e-22 0 6.70933e-22 0 0 0.173887 0.354716 0.525719 0.675992 0.81206 0.953835 1.1085 1.2232 1.30431 1.36231 1.53473 1.56871 1.62218 1.81726 1.85316 1.89168 1.982 2.06587 2.09539 2.04981 1.83045 1.43568 0.655896 0.0981132 0.0031002 8.89863e-06 2.91203e-09 8.92112e-13 2.36321e-16 0 0 1.40896e-19 -1.40896e-19 0 0 0 0 0 0 0 1.40896e-19 0 -1.40896e-19 0 0 0 -6.70933e-22 -1.40225e-19 2.81792e-19 0 0 0.174152 0.341554 0.496162 0.640397 0.791491 0.948545 1.0623 1.16311 1.25129 1.38571 1.42365 1.55489 1.60585 1.71687 1.83497 1.89452 1.96427 2.01593 1.98882 1.86425 1.56111 0.929163 0.225296 0.0158305 0.000157818 1.24172e-07 6.00055e-11 2.07421e-14 -2.02903e-17 -1.40896e-19 0 1.40896e-19 -2.81792e-19 2.81792e-19 -1.40896e-19 0 0 0 0 1.40896e-19 -2.81792e-19 2.81792e-19 -1.40896e-19 0 -1.40896e-19 2.81792e-19 -2.81792e-19 2.81792e-19 0 0 0 0.161264 0.310048 0.464768 0.621954 0.774933 0.892445 1.0111 1.12251 1.25419 1.30639 1.40957 1.49389 1.60552 1.65078 1.77936 1.84015 1.90648 1.91085 1.839 1.57585 1.12643 0.374264 0.0473655 0.00108658 3.29239e-06 1.52452e-09 7.65894e-13 3.59398e-16 0 0 0 0 1.40225e-19 -1.40225e-19 0 -1.40896e-19 4.22017e-19 -1.40225e-19 -2.81792e-19 2.81792e-19 -2.81792e-19 0 2.81792e-19 0 -2.81792e-19 2.81792e-19 0 -2.81792e-19 2.81792e-19 0 0 0.149011 0.300789 0.461734 0.604501 0.72257 0.849411 0.980507 1.106 1.17491 1.29903 1.35914 1.49186 1.52104 1.61567 1.75669 1.79845 1.79622 1.74277 1.55577 1.21473 0.488885 0.0971378 0.00386299 3.61705e-05 2.12961e-08 2.11586e-11 1.09205e-14 2.81265e-19 -1.40896e-19 0 0 0 1.40225e-19 -2.81121e-19 2.81792e-19 -2.81792e-19 4.22017e-19 -4.22017e-19 1.40896e-19 1.40896e-19 0 -2.81792e-19 0 2.81792e-19 0 0 -2.81792e-19 2.81121e-19 -2.81121e-19 0 0 0.152037 0.296064 0.434027 0.566169 0.705477 0.836616 0.95231 1.04365 1.16788 1.25002 1.36007 1.38601 1.54107 1.60253 1.64499 1.73608 1.65459 1.48203 1.18208 0.558552 0.142286 0.00854846 0.000188358 1.96846e-07 2.84995e-10 1.47308e-13 8.19347e-17 1.40896e-19 0 1.40225e-19 -1.40225e-19 1.40896e-19 -2.81792e-19 1.40896e-19 1.40896e-19 0 -2.81792e-19 0 5.62913e-19 -5.62913e-19 0 2.81792e-19 -6.70933e-22 -2.81121e-19 2.81792e-19 -2.81792e-19 2.81121e-19 0 -2.81121e-19 0 0 0.142623 0.278493 0.412969 0.550589 0.678927 0.800233 0.918488 1.04235 1.13021 1.22549 1.28878 1.435 1.45422 1.57047 1.56455 1.51114 1.42635 1.12322 0.558528 0.158646 0.0138856 0.000471832 9.80351e-07 1.95415e-09 1.23315e-12 1.9109e-15 1.40896e-19 -2.81792e-19 1.40896e-19 1.40225e-19 -1.40225e-19 0 0 1.40896e-19 -2.81792e-19 2.81792e-19 -6.70933e-22 6.70933e-22 -6.70933e-22 -2.81121e-19 0 2.81792e-19 -6.70933e-22 -2.81121e-19 2.81792e-19 -2.81792e-19 2.81121e-19 -2.81121e-19 2.81792e-19 0 0 0.136139 0.270982 0.400953 0.525979 0.653821 0.785001 0.906993 1.00316 1.10523 1.19907 1.31145 1.34578 1.44175 1.39521 1.41724 1.25306 1.00635 0.512919 0.153859 0.0156116 0.000652674 2.8466e-06 6.56649e-09 6.17819e-12 1.44651e-14 -2.81259e-19 2.81792e-19 -1.40896e-19 1.40896e-19 -4.22688e-19 4.22688e-19 -1.40896e-19 1.40896e-19 0 -2.81792e-19 0 2.81121e-19 6.70933e-22 -2.81792e-19 2.81792e-19 -2.81792e-19 2.81792e-19 -2.81792e-19 2.81792e-19 0 -2.81792e-19 0 2.81792e-19 0 0 0 0.130826 0.261619 0.390299 0.515415 0.635806 0.750042 0.860149 0.976816 1.08036 1.1729 1.22734 1.29574 1.26182 1.2549 1.07 0.863886 0.390145 0.129038 0.0134849 0.000650572 3.83121e-06 1.04477e-08 1.87785e-11 4.92821e-14 5.84888e-21 0 1.40896e-19 -1.40896e-19 1.40896e-19 -2.81792e-19 2.81792e-19 -2.81792e-19 2.81792e-19 0 -2.81792e-19 2.81121e-19 -2.81121e-19 0 2.81792e-19 -2.81792e-19 2.81121e-19 6.70933e-22 -2.81792e-19 2.81792e-19 -2.81792e-19 2.81121e-19 6.70933e-22 -2.81792e-19 2.81792e-19 0 0 0.12735 0.252576 0.375572 0.497312 0.618179 0.735083 0.849546 0.948465 1.02765 1.0907 1.13064 1.11041 1.06942 0.886878 0.642994 0.266892 0.0861788 0.00793701 0.00046788 2.83879e-06 1.04329e-08 2.61374e-11 7.73304e-14 1.12906e-16 0 1.40896e-19 -1.40896e-19 -1.40896e-19 2.81792e-19 0 -2.81792e-19 2.81121e-19 -2.81121e-19 2.81792e-19 -2.81792e-19 5.62913e-19 -5.62913e-19 0 2.81792e-19 -2.81792e-19 5.62913e-19 -5.62913e-19 0 2.81792e-19 -2.81792e-19 5.62913e-19 -5.62913e-19 2.81121e-19 -2.81121e-19 0 0 0.122526 0.244438 0.365039 0.482946 0.596466 0.702444 0.79772 0.879618 0.933709 0.953864 0.928956 0.854004 0.66109 0.41422 0.157519 0.0411955 0.00354002 0.000186731 9.71127e-07 6.54128e-09 1.87222e-11 7.73096e-14 1.23292e-16 0 0 0 1.40225e-19 -1.40225e-19 -1.40896e-19 2.81792e-19 -2.81792e-19 5.62913e-19 -5.62913e-19 0 2.81792e-19 -2.81792e-19 2.81121e-19 6.70933e-22 -2.81792e-19 2.81792e-19 -2.81792e-19 2.81121e-19 6.70933e-22 -2.81792e-19 2.81792e-19 -2.81792e-19 2.81121e-19 0 -2.81121e-19 0 0 0.115624 0.229948 0.341385 0.447473 0.54596 0.633467 0.703633 0.747197 0.758319 0.716107 0.600067 0.411202 0.217714 0.0708758 0.0138286 0.00101813 3.58156e-05 1.93514e-07 1.9443e-09 6.10878e-12 4.90563e-14 1.12906e-16 0 0 0 0 -6.70933e-22 1.41567e-19 -2.81792e-19 2.81792e-19 0 -2.81792e-19 2.81792e-19 -2.81792e-19 2.81792e-19 -2.81792e-19 2.81121e-19 6.70933e-22 -2.81792e-19 2.81792e-19 -2.81792e-19 2.81121e-19 6.70933e-22 -2.81792e-19 2.81792e-19 -2.81792e-19 2.81121e-19 -2.81121e-19 2.81792e-19 0 0 0.102125 0.201907 0.296299 0.381272 0.452467 0.506242 0.534647 0.521891 0.451989 0.335165 0.197966 0.082842 0.0205397 0.00278945 0.00015137 3.25316e-06 2.07703e-08 2.82845e-10 1.20804e-12 1.44651e-14 -2.75945e-19 2.81792e-19 -2.81792e-19 2.81792e-19 0 0 -5.63584e-19 5.63584e-19 0 0 0 -5.63584e-19 5.63584e-19 0 0 0 -5.63584e-19 5.63584e-19 0 0 0 -5.63584e-19 5.63584e-19 0 0 0 -5.63584e-19 8.44704e-19 -5.62913e-19 0 0 0.077025 0.150196 0.214951 0.265014 0.292453 0.290324 0.258519 0.20259 0.130257 0.0600184 0.0177373 0.0029948 0.000254628 8.65739e-06 1.21281e-07 1.48399e-09 2.08893e-11 1.4365e-13 1.9109e-15 5.32699e-22 0 1.40896e-19 -2.81792e-19 2.81792e-19 0 -2.81792e-19 2.81121e-19 -2.81121e-19 2.81792e-19 0 -2.81792e-19 2.81121e-19 -2.81121e-19 2.81792e-19 0 -2.81792e-19 2.81121e-19 -2.81121e-19 2.81792e-19 0 -2.81792e-19 2.81121e-19 -2.81121e-19 2.81792e-19 0 -2.81792e-19 0 2.81121e-19 0 0 0 0.0363295 0.0677783 0.0901463 0.100509 0.0969729 0.0788972 0.0503317 0.0231028 0.00708766 0.00134643 0.00013821 6.69934e-06 1.43417e-07 2.79524e-09 5.85354e-11 7.44936e-13 1.07561e-14 8.24982e-17 -1.40896e-19 0 1.40896e-19 -1.40896e-19 1.40225e-19 -2.81121e-19 0 2.81121e-19 0 0 -2.81121e-19 0 2.81121e-19 0 0 -2.81121e-19 0 2.81121e-19 0 0 -2.81121e-19 0 2.81121e-19 0 0 6.70933e-22 -2.81792e-19 0 5.62913e-19 -8.44704e-19 5.62913e-19 0 0 0.00697179 0.0117203 0.0127919 0.0103025 0.0061354 0.00262324 0.000772513 0.000145875 1.60136e-05 9.34181e-07 3.28046e-08 1.26494e-09 4.30047e-11 8.51902e-13 1.99821e-14 3.59681e-16 -2.82318e-19 1.41231e-19 0 1.4056e-19 -1.4056e-19 -1.40896e-19 4.21681e-19 -4.22017e-19 0 2.81456e-19 0 0 -2.81456e-19 0 2.81456e-19 -2.81456e-19 5.62913e-19 -5.62913e-19 0 2.81456e-19 -2.81456e-19 2.81456e-19 -2.81456e-19 2.81456e-19 0 -2.81456e-19 2.81456e-19 3.35466e-22 -5.63248e-19 8.44704e-19 -2.81792e-19 -5.62913e-19 5.62913e-19 0 0 4.10517e-05 5.37686e-05 3.92288e-05 1.8467e-05 5.69169e-06 1.11971e-06 1.40686e-07 1.33588e-08 1.27384e-09 1.02227e-10 5.07922e-12 1.97645e-13 8.51671e-15 2.77465e-16 -2.05721e-17 -3.35466e-22 1.40896e-19 -2.81456e-19 1.40896e-19 1.4056e-19 -1.4056e-19 0 -1.41231e-19 2.81792e-19 0 -2.81456e-19 2.81121e-19 -2.81121e-19 2.81456e-19 0 -2.81456e-19 2.81456e-19 -2.81792e-19 2.81792e-19 0 -2.81456e-19 -3.35466e-22 3.35466e-22 2.81456e-19 -3.35466e-22 0 3.35466e-22 -2.81456e-19 -3.35466e-22 2.81456e-19 0 -5.62913e-19 5.62913e-19 0 0 0 4.51253e-10 6.24164e-10 5.04636e-10 2.80422e-10 1.10053e-10 2.96643e-11 5.33145e-12 6.80074e-13 7.65054e-14 7.92092e-15 5.9074e-16 1.03986e-17 -1.05405e-17 2.81792e-19 -1.40896e-19 0 0 1.40225e-19 -1.40225e-19 -1.40896e-19 2.81792e-19 0 -2.81792e-19 2.81792e-19 0 0 -5.63584e-19 5.63584e-19 0 0 -2.81792e-19 2.81792e-19 -2.81792e-19 2.81792e-19 -2.81792e-19 2.81792e-19 -6.70933e-22 6.70933e-22 -2.81792e-19 2.81121e-19 -5.62577e-19 8.44369e-19 -5.62913e-19 2.81121e-19 0 -5.62913e-19 5.62913e-19 5.62913e-19 -1.12583e-18 0 0 2.88486e-15 4.42363e-15 4.23427e-15 2.92034e-15 1.51028e-15 5.36896e-16 1.43851e-16 2.05225e-17 -5.12134e-18 -7.04479e-20 0 1.40896e-19 -1.40896e-19 0 0 0 0 1.40225e-19 -1.40225e-19 -1.40896e-19 2.81792e-19 -2.81792e-19 2.81792e-19 0 0 -2.81792e-19 2.81121e-19 -2.81121e-19 2.81792e-19 -2.81792e-19 2.81121e-19 6.70933e-22 -2.81792e-19 2.81792e-19 -2.81792e-19 2.81792e-19 -6.70933e-22 6.70933e-22 -2.81792e-19 2.81121e-19 -5.62577e-19 5.62577e-19 0 0 -5.62913e-19 5.62913e-19 0 0 0 0 0 0 1.0064e-21 0 -3.5224e-20 7.04479e-20 -7.04479e-20 7.04479e-20 -7.04479e-20 0 0 1.40225e-19 -2.81121e-19 2.81792e-19 -1.40896e-19 1.40896e-19 -2.81792e-19 2.81792e-19 -1.40896e-19 0 1.40896e-19 -2.81792e-19 2.81121e-19 6.70933e-22 -2.81792e-19 0 2.81121e-19 0 -2.81121e-19 2.81792e-19 -2.81792e-19 5.62913e-19 -5.62913e-19 0 2.81792e-19 0 -2.81792e-19 2.81121e-19 -2.81121e-19 2.81792e-19 -5.63584e-19 1.12583e-18 -1.12583e-18 5.62913e-19 0 0 0 0 -5.62913e-19 5.62913e-19 0 0 0 2.65018e-20 -5.23328e-20 3.5224e-20 3.5224e-20 -7.04479e-20 0 7.04479e-20 -7.04479e-20 0 1.40225e-19 -2.81121e-19 2.81792e-19 -1.40896e-19 0 1.40225e-19 -1.40225e-19 0 0 1.40896e-19 -2.81792e-19 2.81121e-19 6.70933e-22 -2.81792e-19 0 2.81121e-19 0 6.70933e-22 -2.81792e-19 2.81792e-19 -2.81792e-19 0 5.62913e-19 -5.62913e-19 2.81792e-19 -5.63584e-19 8.44704e-19 -2.81792e-19 -2.81121e-19 2.81121e-19 0 -5.62913e-19 5.62913e-19 0 0 0 0 -5.62913e-19 5.62913e-19 0 0 0 -8.72213e-21 1.81152e-20 0 -3.5224e-20 7.04479e-20 -7.04479e-20 0 7.04479e-20 7.04479e-20 -2.81792e-19 2.81792e-19 -1.40896e-19 0 0 1.40225e-19 -2.81121e-19 1.40896e-19 1.40896e-19 0 0 -2.81792e-19 0 2.81792e-19 0 -2.81792e-19 2.81121e-19 6.70933e-22 -2.81792e-19 2.81792e-19 -2.81792e-19 2.81792e-19 -6.70933e-22 -2.81121e-19 0 2.81121e-19 -2.81121e-19 2.81121e-19 0 0 0 0 0 -5.62913e-19 5.62913e-19 0 -5.62913e-19 5.62913e-19 0 0 0 0 -1.71088e-20 3.5224e-20 -3.5224e-20 0 0 7.04479e-20 -7.04479e-20 3.35466e-22 0 -3.35466e-22 1.40896e-19 -2.81456e-19 2.81456e-19 -1.4056e-19 -3.35466e-22 0 1.40896e-19 -2.81456e-19 2.81456e-19 -2.81456e-19 2.81456e-19 -2.81792e-19 2.81792e-19 0 0 -5.63248e-19 5.63248e-19 0 -2.81456e-19 2.81456e-19 0 -2.81792e-19 3.35466e-22 2.81121e-19 0 0 -5.62913e-19 5.62913e-19 0 0 0 -5.62913e-19 5.62913e-19 0 0 -5.62913e-19 1.12583e-18 -1.12583e-18 0 0 0 -1.71088e-20 3.5224e-20 -3.5224e-20 0 7.04479e-20 -7.04479e-20 0 3.35466e-22 0 -3.35466e-22 1.40896e-19 -1.4056e-19 -3.35466e-22 3.35466e-22 -1.41231e-19 2.81792e-19 0 -2.81456e-19 -3.35466e-22 2.81456e-19 3.35466e-22 -2.81792e-19 2.81792e-19 0 -2.81792e-19 2.81456e-19 -2.81456e-19 2.81792e-19 -2.81456e-19 2.81456e-19 -2.81792e-19 0 2.81456e-19 0 0 0 0 -5.62913e-19 5.62913e-19 -5.62913e-19 5.62913e-19 0 0 0 -5.62577e-19 5.62577e-19 0 0 0 0 0 2.65018e-20 -5.26682e-20 1.06007e-19 -1.05672e-19 0 0 6.9777e-20 7.11189e-20 -1.40896e-19 0 -1.40896e-19 2.81792e-19 -2.81792e-19 2.81792e-19 -1.41567e-19 1.41567e-19 -2.81792e-19 5.62913e-19 -8.44704e-19 8.44704e-19 -5.62913e-19 2.81121e-19 -2.81121e-19 0 2.81121e-19 0 -2.81121e-19 0 5.62913e-19 -5.62913e-19 2.81121e-19 -2.81121e-19 2.81121e-19 0 0 -5.62913e-19 5.62913e-19 5.62913e-19 -1.12583e-18 0 5.62913e-19 5.62913e-19 -1.12583e-18 5.62913e-19 -5.62577e-19 1.12549e-18 -1.12583e-18 5.62913e-19 0 0 0 2.65018e-20 -5.26682e-20 1.06007e-19 -1.05672e-19 0 0 6.9777e-20 7.11189e-20 -2.81792e-19 2.81792e-19 -2.81792e-19 2.81792e-19 -2.81792e-19 2.81792e-19 1.40225e-19 -4.22017e-19 0 5.62913e-19 -5.62913e-19 0 0 5.62913e-19 -5.62913e-19 0 2.81121e-19 0 -2.81121e-19 0 5.62913e-19 -5.62913e-19 2.81121e-19 2.81792e-19 -8.44704e-19 5.62913e-19 0 -5.62913e-19 5.62913e-19 5.62913e-19 -1.12583e-18 5.62913e-19 0 -5.62577e-19 5.62577e-19 -5.62913e-19 1.12583e-18 -5.62913e-19 -5.62913e-19 5.62913e-19 0 0 0 -8.72213e-21 1.81152e-20 0 -3.5224e-20 7.04479e-20 -7.04479e-20 -7.04479e-20 2.11344e-19 -1.40896e-19 0 1.40896e-19 -1.40896e-19 0 0 0 -1.40896e-19 5.62913e-19 -5.62913e-19 2.81792e-19 -2.81792e-19 2.81792e-19 -2.81792e-19 2.81792e-19 0 -2.81792e-19 2.81121e-19 -2.81121e-19 2.81792e-19 -2.81792e-19 2.81792e-19 -2.81792e-19 2.81121e-19 0 -5.62913e-19 5.62913e-19 5.62913e-19 -5.62913e-19 -5.62913e-19 5.62913e-19 0 0 -5.62577e-19 5.62577e-19 0 0 -5.62913e-19 5.62913e-19 0 0 0 0 -8.72213e-21 1.81152e-20 0 -3.5224e-20 0 7.04479e-20 0 -7.04479e-20 0 0 1.40896e-19 -2.81792e-19 2.81792e-19 -1.40896e-19 0 1.40896e-19 -6.70933e-22 -2.81121e-19 2.81792e-19 -2.81792e-19 2.81792e-19 -2.81792e-19 2.81792e-19 0 0 -5.63584e-19 8.44704e-19 -5.62913e-19 2.81121e-19 -2.81121e-19 0 2.81121e-19 0 0 -5.62913e-19 1.12583e-18 -1.12583e-18 5.62913e-19 0 0 -5.62913e-19 5.62913e-19 0 0 0 -5.62913e-19 1.12583e-18 -1.12583e-18 0 0 0 -1.71088e-20 3.5224e-20 -3.5224e-20 0 7.04479e-20 -7.01125e-20 1.4056e-19 -2.81456e-19 1.4056e-19 3.35466e-22 1.4056e-19 -1.40896e-19 1.40896e-19 -2.81456e-19 2.81456e-19 0 -5.63248e-19 5.63248e-19 -2.81456e-19 2.81121e-19 3.35466e-22 -2.81456e-19 2.81456e-19 0 -2.81456e-19 2.81121e-19 0 0 -5.62577e-19 5.62577e-19 0 0 0 0 -5.62913e-19 0 5.62913e-19 0 0 -5.62577e-19 5.62577e-19 0 0 0 -5.62577e-19 5.62577e-19 0 0 0 0 0 1.81152e-20 -3.5224e-20 0 7.04479e-20 -7.04479e-20 3.35466e-22 -3.35466e-22 3.35466e-22 1.4056e-19 -1.4056e-19 -1.41231e-19 2.81792e-19 0 -2.81456e-19 -3.35466e-22 2.81792e-19 -2.81456e-19 2.81456e-19 -2.81456e-19 5.62913e-19 -5.63248e-19 2.81456e-19 -2.81456e-19 0 2.81456e-19 0 -2.81121e-19 5.62913e-19 -8.44369e-19 5.62577e-19 0 -5.62913e-19 1.12583e-18 -1.12583e-18 5.62913e-19 -5.62913e-19 1.12583e-18 -1.12583e-18 5.62913e-19 -5.62577e-19 5.62577e-19 5.62913e-19 -1.12583e-18 5.62913e-19 -5.