<?xml version="1.0"?>
<VTKFile type="PolyData">
	<PolyData>
		<Piece NumberOfPoints="2601" NumberOfPolys="2500">
			<Points>
				<DataArray type="Float32" NumberOfComponents="3" format="ascii">
 0 0 0 0.451838 0 0 0.303561 0 0 0.415573 0 0 0.416194 0 0 0.445105 0 0 0.466267 0 0 0.485176 0 0 0.5037 0 0 0.517594 0 0 0.532853 0 0 0.544392 0 0 0.557508 0 0 0.567982 0 0 0.579876 0 0 0.588381 0 0 0.598611 0 0 0.606234 0 0 0.615002 0 0 0.62196 0 0 0.629278 0 0 0.635596 0 0 0.642273 0 0 0.6484 0 0 0.653858 0 0 0.659189 0 0 0.664267 0 0 0.66912 0 0 0.673827 0 0 0.678231 0 0 0.682398 0 0 0.686344 0 0 0.690094 0 0 0.694115 0 0 0.699335 0 0 0.707491 0 0 0.721061 0 0 0.740014 0 0 0.76 0 0 0.78 0 0 0.8 0 0 0.82 0 0 0.84 0 0 0.86 0 0 0.88 0 0 0.9 0 0 0.92 0 0 0.94 0 0 0.96 0 0 0.98 0 0 1 0 0 0 0.451838 0 0.170673 0.170673 0 0.401654 0.184995 0 0.346173 0.161725 0 0.413389 0.1053 0 0.436967 0.0939133 0 0.461131 0.0836675 0 0.482256 0.0747926 0 0.498735 0.0693076 0 0.516078 0.0635473 0 0.529249 0.0587162 0 0.54367 0.0538975 0 0.554957 0.0499643 0 0.56781 0.0467881 0 0.577432 0.0441362 0 0.588507 0.0419243 0 0.596514 0.0397688 0 0.606169 0.0378007 0 0.613493 0.0359409 0 0.621601 0.0342389 0 0.628273 0.0327249 0 0.635218 0.0314134 0 0.641616 0.0302664 0 0.647807 0.0291404 0 0.653334 0.0280559 0 0.658731 0.0270383 0 0.663826 0.0260838 0 0.66871 0.0251994 0 0.67344 0.0243919 0 0.677867 0.0236514 0 0.68205 0.0229635 0 0.686022 0.0223127 0 0.689792 0.0216913 0 0.693842 0.0211123 0 0.699108 0.020607 0 0.70734 0.0202294 0 0.721016 0.0200428 0 0.740012 0.0200011 0 0.76 0.02 0 0.78 0.02 0 0.8 0.02 0 0.82 0.02 0 0.84 0.02 0 0.86 0.02 0 0.88 0.02 0 0.9 0.02 0 0.92 0.02 0 0.94 0.02 0 0.96 0.02 0 0.98 0.02 0 1 0.02 0 0 0.303561 0 0.184995 0.401654 0 0.197696 0.197696 0 0.359476 0.252158 0 0.370777 0.208445 0 0.412495 0.178018 0 0.442475 0.158798 0 0.465984 0.147832 0 0.487818 0.134479 0 0.504796 0.124735 0 0.522653 0.114501 0 0.536118 0.106298 0 0.550724 0.0988707 0 0.56213 0.0927993 0 0.574594 0.0878981 0 0.58362 0.08332 0 0.594287 0.0792297 0 0.602352 0.0752236 0 0.611531 0.07152 0 0.618726 0.0681343 0 0.62644 0.065119 0 0.633233 0.0625404 0 0.640005 0.0602044 0 0.645964 0.0580114 0 0.651905 0.055912 0 0.65731 0.053913 0 0.66255 0.0520256 0 0.667487 0.0502807 0 0.672291 0.0486847 0 0.676781 0.0472181 0 0.681019 0.0458502 0 0.685062 0.0445542 0 0.688893 0.0433154 0 0.693029 0.0421648 0 0.698435 0.0411673 0 0.706898 0.0404307 0 0.72089 0.0400768 0 0.74001 0.0400017 0 0.76 0.04 0 0.78 0.04 0 0.8 0.04 0 0.82 0.04 0 0.84 0.04 0 0.86 0.04 0 0.88 0.04 0 0.9 0.04 0 0.92 0.04 0 0.94 0.04 0 0.96 0.04 0 0.98 0.04 0 1 0.04 0 0 0.415573 0 0.161725 0.346173 0 0.252158 0.359476 0 0.225869 0.225869 0 0.32607 0.290613 0 0.381807 0.239389 0 0.415211 0.227439 0 0.445738 0.206004 0 0.46957 0.193947 0 0.492445 0.178219 0 0.509939 0.166642 0 0.527827 0.154596 0 0.541584 0.145367 0 0.556111 0.137232 0 0.566983 0.13011 0 0.578991 0.123808 0 0.588014 0.117549 0 0.598597 0.111767 0 0.606698 0.106271 0 0.615478 0.101301 0 0.622788 0.0970173 0 0.630396 0.0932266 0 0.636921 0.0898104 0 0.643305 0.0865486 0 0.649419 0.0834762 0 0.65505 0.0805025 0 0.660422 0.0777252 0 0.665504 0.0751473 0 0.670383 0.072792 0 0.674996 0.0706206 0 0.679328 0.0685858 0 0.68348 0.0666521 0 0.687413 0.064805 0 0.691697 0.0631006 0 0.697342 0.0616385 0 0.706194 0.0605804 0 0.720707 0.0600956 0 0.740006 0.0600017 0 0.76 0.06 0 0.78 0.06 0 0.8 0.06 0 0.82 0.06 0 0.84 0.06 0 0.86 0.06 0 0.88 0.06 0 0.9 0.06 0 0.92 0.06 0 0.94 0.06 0 0.96 0.06 0 0.98 0.06 0 1 0.06 0 0 0.416194 0 0.1053 0.413389 0 0.208445 0.370777 0 0.290613 0.32607 0 0.278386 0.278386 0 0.342865 0.315923 0 0.391801 0.264642 0 0.423151 0.261852 0 0.451867 0.2398 0 0.474953 0.228298 0 0.49723 0.212051 0 0.514111 0.200893 0 0.531597 0.189009 0 0.544945 0.17962 0 0.559066 0.170771 0 0.569858 0.162298 0 0.582042 0.154448 0 0.591388 0.146873 0 0.601775 0.139861 0 0.609955 0.133639 0 0.618642 0.128136 0 0.625855 0.123344 0 0.632979 0.118837 0 0.639575 0.114661 0 0.645987 0.110583 0 0.651895 0.106705 0 0.657501 0.103065 0 0.662768 0.0997171 0 0.667751 0.0966372 0 0.67253 0.0937896 0 0.677004 0.0910973 0 0.681299 0.0885367 0 0.685382 0.0860993 0 0.68988 0.0838709 0 0.69587 0.0819867 0 0.705278 0.0806632 0 0.720503 0.0800965 0 0.740003 0.0800012 0 0.76 0.08 0 0.78 0.08 0 0.8 0.08 0 0.82 0.08 0 0.84 0.08 0 0.86 0.08 0 0.88 0.08 0 0.9 0.08 0 0.92 0.08 0 0.94 0.08 0 0.96 0.08 0 0.98 0.08 0 1 0.08 0 0 0.445105 0 0.0939133 0.436967 0 0.178018 0.412495 0 0.239389 0.381807 0 0.315923 0.342865 0 0.326724 0.326724 0 0.367928 0.328002 0 0.401507 0.289503 0 0.43135 0.2892 0 0.45806 0.267124 0 0.479382 0.257282 0 0.500656 0.241316 0 0.517 0.230904 0 0.534118 0.218852 0 0.547364 0.208651 0 0.561528 0.198722 0 0.572606 0.189206 0 0.584784 0.18033 0 0.594221 0.17227 0 0.604373 0.164955 0 0.612473 0.158585 0 0.620637 0.152616 0 0.62789 0.147244 0 0.635117 0.142056 0 0.641577 0.137097 0 0.647981 0.132383 0 0.653767 0.127977 0 0.659329 0.123917 0 0.664438 0.120157 0 0.66941 0.116649 0 0.674081 0.11332 0 0.678546 0.11015 0 0.682829 0.107151 0 0.687617 0.10444 0 0.694072 0.10219 0 0.704219 0.100674 0 0.720315 0.100081 0 0.740001 0.100001 0 0.76 0.1 0 0.78 0.1 0 0.8 0.1 0 0.82 0.1 0 0.84 0.1 0 0.86 0.1 0 0.88 0.1 0 0.9 0.1 0 0.92 0.1 0 0.94 0.1 0 0.96 0.1 0 0.98 0.1 0 1 0.1 0 0 0.466267 0 0.0836675 0.461131 0 0.158798 0.442475 0 0.227439 0.415211 0 0.264642 0.391801 0 0.328002 0.367928 0 0.351022 0.351022 0 0.384407 0.343838 0 0.411339 0.312007 0 0.438233 0.313008 0 0.463522 0.290075 0 0.483657 0.282207 0 0.504282 0.265959 0 0.520086 0.25575 0 0.536949 0.243194 0 0.550161 0.232521 0 0.564252 0.222007 0 0.575279 0.212384 0 0.587144 0.203405 0 0.59641 0.195475 0 0.605992 0.187924 0 0.613957 0.181209 0 0.622313 0.174751 0 0.629577 0.168702 0 0.636642 0.162877 0 0.643222 0.157471 0 0.649361 0.152371 0 0.655166 0.147678 0 0.660534 0.143267 0 0.66568 0.139122 0 0.670603 0.135183 0 0.675245 0.131437 0 0.679784 0.127922 0 0.684948 0.124783 0 0.692013 0.122235 0 0.703108 0.120619 0 0.720168 0.120057 0 0.74 0.12 0 0.76 0.12 0 0.78 0.12 0 0.8 0.12 0 0.82 0.12 0 0.84 0.12 0 0.86 0.12 0 0.88 0.12 0 0.9 0.12 0 0.92 0.12 0 0.94 0.12 0 0.96 0.12 0 0.98 0.12 0 1 0.12 0 0 0.485176 0 0.0747926 0.482256 0 0.147832 0.465984 0 0.206004 0.445738 0 0.261852 0.423151 0 0.289503 0.401507 0 0.343838 0.384407 0 0.369943 0.369943 0 0.397858 0.359813 0 0.421165 0.332017 0 0.444812 0.333865 0 0.468859 0.309479 0 0.487717 0.303432 0 0.507743 0.286557 0 0.523123 0.276593 0 0.539558 0.263825 0 0.552589 0.253377 0 0.56638 0.242842 0 0.577232 0.233549 0 0.588592 0.224386 0 0.597647 0.216355 0 0.607253 0.208497 0 0.615442 0.201401 0 0.623536 0.194399 0 0.630902 0.187989 0 0.637842 0.181856 0 0.644291 0.176196 0 0.650389 0.170868 0 0.656076 0.165864 0 0.661423 0.161106 0 0.666598 0.156616 0 0.67144 0.152348 0 0.676287 0.148383 0 0.681924 0.144882 0 0.689772 0.142119 0 0.702058 0.140511 0 0.720075 0.140032 0 0.74 0.14 0 0.76 0.14 0 0.78 0.14 0 0.8 0.14 0 0.82 0.14 0 0.84 0.14 0 0.86 0.14 0 0.88 0.14 0 0.9 0.14 0 0.92 0.14 0 0.94 0.14 0 0.96 0.14 0 0.98 0.14 0 1 0.14 0 0 0.5037 0 0.0693076 0.498735 0 0.134479 0.487818 0 0.193947 0.46957 0 0.2398 0.451867 0 0.2892 0.43135 0 0.312007 0.411339 0 0.359813 0.397858 0 0.386451 0.386451 0 0.410453 0.37371 0 0.431938 0.349988 0 0.453 0.350814 0 0.474846 0.325656 0 0.4925 0.32117 0 0.511631 0.303858 0 0.526451 0.294509 0 0.542345 0.281768 0 0.555039 0.271869 0 0.568255 0.261228 0 0.578694 0.252193 0 0.589899 0.242898 0 0.599112 0.234868 0 0.608419 0.22666 0 0.616609 0.219336 0 0.624655 0.212167 0 0.631781 0.205536 0 0.638707 0.199257 0 0.645083 0.19339 0 0.651127 0.187821 0 0.656725 0.18255 0 0.662107 0.177567 0 0.66718 0.172853 0 0.672398 0.168508 0 0.678621 0.164726 0 0.687447 0.161855 0 0.701185 0.160371 0 0.720026 0.160014 0 0.74 0.16 0 0.76 0.16 0 0.78 0.16 0 0.8 0.16 0 0.82 0.16 0 0.84 0.16 0 0.86 0.16 0 0.88 0.16 0 0.9 0.16 0 0.92 0.16 0 0.94 0.16 0 0.96 0.16 0 0.98 0.16 0 1 0.16 0 0 0.517594 0 0.0635473 0.516078 0 0.124735 0.504796 0 0.178219 0.492445 0 0.228298 0.474953 0 0.267124 0.45806 0 0.313008 0.438233 0 0.332017 0.421165 0 0.37371 0.410453 0 0.400454 0.400454 0 0.421969 0.385569 0 0.442871 0.365614 0 0.462536 0.363883 0 0.481751 0.339628 0 0.498566 0.335857 0 0.51636 0.318548 0 0.530483 0.31002 0 0.5455 0.29732 0 0.557507 0.287982 0 0.570282 0.277288 0 0.580624 0.268669 0 0.59141 0.259198 0 0.600398 0.251146 0 0.609663 0.242929 0 0.617659 0.235512 0 0.625443 0.228238 0 0.632596 0.221535 0 0.639424 0.215135 0 0.645724 0.20913 0 0.651645 0.203424 0 0.657184 0.198028 0 0.662527 0.192933 0 0.66819 0.188279 0 0.675154 0.184313 0 0.68518 0.181479 0 0.70057 0.180227 0 0.720007 0.180005 0 0.74 0.18 0 0.76 0.18 0 0.78 0.18 0 0.8 0.18 0 0.82 0.18 0 0.84 0.18 0 0.86 0.18 0 0.88 0.18 0 0.9 0.18 0 0.92 0.18 0 0.94 0.18 0 0.96 0.18 0 0.98 0.18 0 1 0.18 0 0 0.532853 0 0.0587162 0.529249 0 0.114501 0.522653 0 0.166642 0.509939 0 0.212051 0.49723 0 0.257282 0.479382 0 0.290075 0.463522 0 0.333865 0.444812 0 0.349988 0.431938 0 0.385569 0.421969 0 0.412274 0.412274 0 0.432368 0.396009 0 0.452634 0.379382 0 0.471875 0.37467 0 0.488848 0.352321 0 0.504972 0.348466 0 0.521384 0.331491 0 0.534744 0.323614 0 0.548873 0.310965 0 0.56053 0.302325 0 0.572698 0.29151 0 0.582548 0.283088 0 0.593089 0.273702 0 0.601935 0.265773 0 0.610783 0.257533 0 0.618673 0.250159 0 0.626263 0.242905 0 0.633356 0.236222 0 0.639966 0.229797 0 0.646149 0.223764 0 0.651903 0.21799 0 0.657558 0.212582 0 0.663759 0.207693 0 0.671661 0.203668 0 0.683172 0.201055 0 0.70022 0.20011 0 0.720001 0.200001 0 0.74 0.2 0 0.76 0.2 0 0.78 0.2 0 0.8 0.2 0 0.82 0.2 0 0.84 0.2 0 0.86 0.2 0 0.88 0.2 0 0.9 0.2 0 0.92 0.2 0 0.94 0.2 0 0.96 0.2 0 0.98 0.2 0 1 0.2 0 0 0.544392 0 0.0538975 0.54367 0 0.106298 0.536118 0 0.154596 0.527827 0 0.200893 0.514111 0 0.241316 0.500656 0 0.282207 0.483657 0 0.309479 0.468859 0 0.350814 0.453 0 0.365614 0.442871 0 0.396009 0.432368 0 0.422418 0.422418 0 0.441502 0.40
[...]
			<PointData Scalars="VitesseX">
				<DataArray Name="VitesseX" type="Float32" format="ascii">
 0 1.77915 0.408729 1.17717 1.00833 1.14183 1.1332 1.21769 1.25723 1.25643 1.31839 1.34961 1.35451 1.39507 1.47566 1.51812 1.53055 1.53695 1.59864 1.63262 1.70551 1.68921 1.64798 1.7617 1.75871 1.80023 1.76585 1.81376 1.82948 1.84748 1.89556 1.90709 1.90077 1.82171 1.58981 1.09236 0.322907 0.00768925 1.29701e-06 1.26791e-11 1.32316e-16 -6.06463e-20 6.06463e-20 0 0 -6.06463e-20 6.06463e-20 -6.06463e-20 6.06463e-20 0 0 0 0.16498 1.3536 0.643583 1.00485 1.06966 1.13724 1.17863 1.2424 1.2527 1.30142 1.35496 1.36057 1.39204 1.48442 1.52323 1.51912 1.54709 1.58752 1.64532 1.68288 1.68137 1.67075 1.76011 1.74707 1.79798 1.7711 1.80798 1.83229 1.84676 1.89324 1.90586 1.89935 1.81865 1.58377 1.08224 0.312372 0.0071029 1.13753e-06 1.15377e-11 1.1621e-16 -6.06463e-20 6.06463e-20 0 0 -6.06463e-20 6.06463e-20 -6.06463e-20 6.06463e-20 0 0 0 0.746965 0.211041 1.13135 0.793516 0.99094 1.04391 1.14909 1.19572 1.22176 1.3066 1.33981 1.35434 1.4008 1.47533 1.51112 1.51661 1.5225 1.60255 1.63307 1.66338 1.65608 1.71874 1.7345 1.73483 1.78688 1.78378 1.79695 1.83722 1.84577 1.88519 1.9032 1.89529 1.80927 1.56523 1.05146 0.281939 0.00557894 7.67727e-07 8.66611e-12 7.9605e-17 -3.03232e-20 9.27532e-20 -6.243e-20 0 3.21069e-20 -3.21069e-20 3.21069e-20 -3.21069e-20 0 0 0 0.612071 0.772265 0.295667 0.770478 0.906016 0.994749 1.07591 1.15364 1.19468 1.27546 1.32191 1.33725 1.38782 1.46492 1.49228 1.49527 1.52815 1.58206 1.62897 1.62914 1.67252 1.72528 1.70123 1.73185 1.76867 1.79355 1.79288 1.83744 1.84567 1.87183 1.89993 1.8885 1.79304 1.53291 0.99865 0.235266 0.00368702 3.99905e-07 5.3369e-12 5.26941e-17 -6.243e-20 6.243e-20 0 0 -6.30246e-20 6.30246e-20 -6.30246e-20 6.30246e-20 0 0 0 0.250827 0.561673 0.775725 0.64744 0.865342 0.951444 1.04647 1.09454 1.17608 1.2499 1.27539 1.31756 1.36789 1.42943 1.45947 1.48225 1.50891 1.5693 1.58455 1.63363 1.68218 1.69556 1.68633 1.73053 1.74637 1.79522 1.79644 1.83211 1.84529 1.8561 1.89504 1.87842 1.76912 1.48483 0.921101 0.178673 0.00201569 1.62604e-07 2.68558e-12 1.80222e-17 -6.243e-20 0 6.243e-20 0 -5.94572e-22 5.94572e-22 -1.25455e-19 1.25455e-19 0 0 0 0.234922 0.440187 0.560215 0.849346 0.926373 0.964997 0.98483 1.07325 1.13355 1.20355 1.24033 1.2849 1.34808 1.39802 1.43122 1.46238 1.50049 1.52616 1.57502 1.63478 1.66981 1.64433 1.70527 1.71149 1.74128 1.78025 1.80431 1.82201 1.84466 1.84157 1.88719 1.86354 1.73631 1.41875 0.815093 0.120717 0.000890928 5.31799e-08 1.11208e-12 -5.11883e-18 0 1.2486e-19 -1.2486e-19 0 1.2486e-19 -1.2486e-19 1.2486e-19 -1.2486e-19 0 0 0 0.2011 0.35884 0.554296 0.588012 0.779142 0.964914 1.00737 1.01724 1.10211 1.14408 1.2137 1.26846 1.31356 1.37277 1.41043 1.44097 1.46925 1.5131 1.56975 1.63688 1.61533 1.63878 1.69898 1.69622 1.74701 1.75764 1.80601 1.81147 1.84156 1.83421 1.87488 1.84091 1.69213 1.33281 0.678268 0.0704274 0.000309387 1.47363e-08 3.86155e-13 -5.12786e-18 1.2486e-19 -1.2486e-19 1.2486e-19 0 -1.2486e-19 0 1.2486e-19 -1.2486e-19 0 0 0 0.165985 0.363338 0.476297 0.647966 0.644949 0.811929 0.975859 1.03488 1.04806 1.10431 1.16929 1.23621 1.29532 1.33215 1.38157 1.40292 1.44263 1.50273 1.57132 1.57471 1.59648 1.63933 1.66785 1.69084 1.7444 1.74016 1.79335 1.80608 1.83232 1.83625 1.85833 1.80757 1.63147 1.2246 0.515239 0.0342324 8.14669e-05 3.59856e-09 1.14259e-13 -5.00253e-18 -1.2486e-19 0 1.2486e-19 0 -2.4972e-19 2.4972e-19 -2.4972e-19 2.4972e-19 0 0 0 0.159127 0.325703 0.464434 0.558531 0.715395 0.712299 0.859165 1.00625 1.06861 1.07893 1.14598 1.1879 1.25833 1.31135 1.33536 1.37698 1.43203 1.4958 1.51818 1.53779 1.58815 1.63151 1.62985 1.69938 1.71919 1.73329 1.76787 1.80353 1.81917 1.84002 1.84001 1.76418 1.54748 1.08697 0.343567 0.0133214 1.55717e-05 7.50212e-10 2.84273e-14 2.4974e-19 -2.4972e-19 0 -1.2486e-19 2.4972e-19 -1.2486e-19 2.4972e-19 -4.9944e-19 4.9944e-19 -2.4972e-19 0 0 0.141795 0.302476 0.42599 0.547059 0.647215 0.788633 0.780836 0.916225 1.05258 1.08967 1.14134 1.17465 1.22833 1.2741 1.32496 1.36373 1.42367 1.45703 1.47524 1.52749 1.59042 1.58757 1.63412 1.68353 1.70159 1.72055 1.7471 1.79258 1.81288 1.83775 1.8184 1.71191 1.43738 0.906691 0.191929 0.00397419 2.07351e-06 1.22428e-10 5.66601e-15 -1.2486e-19 0 0 0 0 2.4972e-19 -2.4972e-19 0 0 0 0 0 0.13549 0.286669 0.414503 0.522374 0.632952 0.708992 0.846749 0.855665 0.97836 1.08526 1.11103 1.1758 1.22635 1.23789 1.31431 1.37087 1.38639 1.42156 1.473 1.54102 1.55052 1.58346 1.63055 1.66191 1.69395 1.70617 1.73677 1.77523 1.81071 1.82917 1.7856 1.64359 1.30313 0.67848 0.085398 0.000863263 1.96422e-07 1.48278e-11 7.81116e-16 -4.9944e-19 2.4972e-19 2.4972e-19 -2.4972e-19 0 0 0 2.4972e-19 -4.9944e-19 4.9944e-19 0 0 0.124585 0.27358 0.380379 0.500607 0.59036 0.70731 0.768202 0.915769 0.937023 1.02406 1.10634 1.14245 1.19843 1.26195 1.29665 1.33615 1.37428 1.42065 1.49104 1.51554 1.53222 1.58727 1.61988 1.63755 1.69395 1.68986 1.7396 1.75425 1.80574 1.81148 1.74168 1.54556 1.13636 0.428562 0.028775 0.000127535 1.61838e-08 1.44319e-12 2.06114e-17 0 0 2.4972e-19 -2.4972e-19 0 0 0 2.4972e-19 -2.4972e-19 0 0 0 0.119961 0.24429 0.369484 0.461682 0.593359 0.664574 0.788767 0.814371 0.953715 0.987862 1.06211 1.15378 1.13557 1.24869 1.30383 1.3148 1.37197 1.43857 1.4789 1.48257 1.53509 1.58547 1.58281 1.64479 1.66271 1.69662 1.73227 1.74544 1.79504 1.77934 1.68116 1.41462 0.910039 0.213725 0.00697934 1.17982e-05 1.4051e-09 1.36951e-13 1.00799e-17 2.4972e-19 -2.4972e-19 -2.4972e-19 4.9944e-19 -2.4972e-19 2.4972e-19 -2.4972e-19 -2.4972e-19 7.47971e-19 -7.47971e-19 0 0 0.113035 0.240833 0.347082 0.467767 0.557405 0.675033 0.729165 0.856123 0.865021 0.988101 1.0267 1.0723 1.17071 1.22186 1.26915 1.32662 1.36809 1.4362 1.45463 1.48058 1.53462 1.54711 1.58603 1.62575 1.64524 1.69816 1.71696 1.74774 1.77539 1.73106 1.58485 1.2497 0.618883 0.0788432 0.00114088 6.55202e-07 1.00946e-10 1.20103e-14 1.00753e-17 0 2.4972e-19 -4.9944e-19 4.9944e-19 0 -2.4972e-19 0 -1.18914e-21 0 1.18914e-21 0 0 0.116208 0.234896 0.34947 0.448145 0.556734 0.631186 0.740279 0.77725 0.903172 0.893715 1.0165 1.07842 1.1394 1.22074 1.2219 1.32366 1.3848 1.40723 1.42561 1.48558 1.50403 1.53176 1.58458 1.6053 1.64002 1.692 1.70289 1.75177 1.73775 1.66822 1.44586 1.02154 0.326523 0.0202481 0.00011387 2.70738e-08 5.05753e-12 6.98595e-16 0 0 2.4972e-19 0 -2.4972e-19 0 0 0 -1.18914e-21 -2.48531e-19 4.9944e-19 0 0 0.114749 0.225065 0.33618 0.428629 0.529621 0.619324 0.69247 0.784984 0.814486 0.950434 0.945679 1.05065 1.11786 1.14333 1.23957 1.27846 1.31039 1.37953 1.42537 1.46193 1.48321 1.53844 1.56674 1.58936 1.65093 1.6589 1.71121 1.72817 1.69605 1.56465 1.27348 0.703341 0.122864 0.00338825 6.17544e-06 1.30834e-09 2.37145e-13 1.14621e-21 0 2.4972e-19 -4.9944e-19 4.9944e-19 -2.4972e-19 0 -2.4972e-19 4.9944e-19 -4.9944e-19 4.9944e-19 0 0 0 0.107816 0.214343 0.314706 0.411953 0.501511 0.594054 0.664794 0.740483 0.836224 0.868098 0.979824 0.971174 1.07727 1.18291 1.18402 1.25828 1.29428 1.33132 1.40033 1.40834 1.46922 1.51603 1.5398 1.59901 1.61974 1.65915 1.69711 1.6916 1.62316 1.41872 1.02816 0.36387 0.0307172 0.000329213 1.82204e-07 5.31341e-11 1.18362e-14 1.00122e-17 -4.9944e-19 4.9944e-19 -4.9944e-19 0 4.9944e-19 0 -4.9944e-19 4.9944e-19 0 -4.9944e-19 4.9944e-19 0 0 0.102967 0.200398 0.304467 0.391298 0.484427 0.561327 0.648342 0.726487 0.808147 0.871311 0.889577 1.01863 1.01887 1.1383 1.17983 1.21338 1.29189 1.32144 1.34576 1.40261 1.4493 1.48892 1.54022 1.58297 1.60412 1.64847 1.66864 1.63238 1.50457 1.2281 0.675553 0.127938 0.00468739 1.61204e-05 4.96299e-09 1.49309e-12 3.60343e-16 -7.47971e-19 2.4972e-19 2.4972e-19 0 -4.9944e-19 0 4.9944e-19 0 0 -4.9944e-19 4.98251e-19 -4.98251e-19 0 0 0.0989709 0.197505 0.292709 0.380639 0.457389 0.547475 0.634213 0.723351 0.776377 0.831377 0.910416 0.950791 1.06828 1.0638 1.13526 1.21357 1.26664 1.29225 1.30573 1.38264 1.41527 1.47387 1.53526 1.55036 1.59973 1.6314 1.61384 1.54478 1.3345 0.939876 0.31448 0.0278098 0.000390099 3.56626e-07 1.53586e-10 4.7496e-14 -4.90887e-19 0 9.97691e-19 -9.97691e-19 0 4.9944e-19 -1.18914e-21 -4.98251e-19 4.9944e-19 -4.9944e-19 4.98251e-19 0 -4.98251e-19 0 0 0.0969288 0.191039 0.279012 0.359682 0.443895 0.539182 0.630589 0.690019 0.747251 0.81676 0.896151 0.962266 0.978972 1.06829 1.10393 1.15669 1.23503 1.26644 1.3422 1.341 1.4007 1.46825 1.49259 1.54648 1.5847 1.5854 1.54715 1.39108 1.10945 0.54273 0.0911731 0.00349112 1.39761e-05 6.44322e-09 2.95955e-12 1.19216e-15 -1.17241e-21 1.18914e-21 -1.18914e-21 -4.98251e-19 0 4.9944e-19 -1.18914e-21 -4.98251e-19 4.9944e-19 -4.9944e-19 4.98251e-19 -4.98251e-19 4.9944e-19 0 0 0.0913934 0.1814 0.263647 0.349916 0.443168 0.531608 0.599886 0.660399 0.73622 0.812977 0.867602 0.910868 0.979948 1.01461 1.1051 1.11191 1.17738 1.25529 1.30373 1.33931 1.38968 1.42223 1.4767 1.53302 1.54784 1.52247 1.42192 1.1963 0.748053 0.198008 0.0158028 0.000193413 2.17611e-07 1.3546e-10 6.33485e-14 2.05154e-17 4.98251e-19 1.18914e-21 -4.9944e-19 4.9944e-19 -4.9944e-19 4.9944e-19 -4.9944e-19 4.9944e-19 0 -4.9944e-19 0 4.9944e-19 0 0 0 0.0819662 0.171229 0.260047 0.349931 0.42982 0.502619 0.573223 0.656104 0.724345 0.783364 0.830691 0.902312 0.956713 1.00668 1.03556 1.11571 1.16989 1.19981 1.26312 1.33327 1.36076 1.41622 1.4645 1.49755 1.49234 1.42585 1.22733 0.90022 0.323053 0.0448563 0.001191 4.64174e-06 2.7172e-09 1.87121e-12 1.10897e-15 4.98281e-19 -4.98251e-19 0 4.9944e-19 -4.9944e-19 4.98251e-19 1.18914e-21 -4.9944e-19 4.9944e-19 -4.9944e-19 4.98251e-19 1.18914e-21 -4.9944e-19 4.9944e-19 0 0 0.0829119 0.172626 0.261036 0.334694 0.4056 0.483929 0.569255 0.636457 0.698082 0.752408 0.829078 0.878493 0.931183 0.966709 1.04749 1.07502 1.14181 1.20354 1.2518 1.27757 1.35199 1.38272 1.42423 1.43465 1.39688 1.23978 0.989291 0.434311 0.0911835 0.00412686 4.56928e-05 3.44881e-08 4.25755e-11 2.73289e-14 -2.10667e-17 9.97691e-19 -9.97691e-19 0 4.9944e-19 -4.9944e-19 9.97691e-19 -9.97691e-19 0 4.9944e-19 -4.9944e-19 9.97691e-19 -9.97691e-19 4.98251e-19 -4.98251e-19 0 0 0.0878302 0.168035 0.244303 0.320971 0.400447 0.480739 0.547608 0.613229 0.677667 0.750773 0.795938 0.852172 0.897815 0.973516 1.00229 1.06658 1.11411 1.1857 1.22794 1.26015 1.33001 1.36322 1.35538 1.32942 1.21176 1.01294 0.521574 0.14258 0.00967821 0.000231799 3.13464e-07 5.16513e-10 3.31732e-13 2.05476e-16 4.9945e-19 -4.9944e-19 4.98251e-19 1.18914e-21 -4.9944e-19 4.9944e-19 -4.9944e-19 4.98251e-19 1.18914e-21 -4.9944e-19 4.9944e-19 -4.9944e-19 4.98251e-19 0 -4.98251e-19 0 0 0.0814394 0.157841 0.236801 0.315665 0.388322 0.457073 0.532348 0.605376 0.673357 0.721416 0.779715 0.8304 0.898231 0.925804 0.998764 1.03741 1.11682 1.14091 1.20105 1.26495 1.28171 1.31983 1.2824 1.1556 0.978707 0.559668 0.18145 0.0175304 0.000668607 1.75343e-06 3.52385e-09 2.77066e-12 4.91143e-15 -2.10093e-17 4.9944e-19 -4.9944e-19 4.98251e-19 1.18914e-21 -4.9944e-19 4.9944e-19 -4.9944e-19 4.98251e-19 1.18914e-21 -4.9944e-19 4.9944e-19 -4.9944e-19 4.98251e-19 -4.98251e-19 4.9944e-19 0 0 0.0774362 0.153804 0.229217 0.303666 0.377017 0.452175 0.523522 0.589453 0.647517 0.709523 0.761526 0.816676 0.855792 0.928892 0.968845 1.04015 1.05836 1.14789 1.18307 1.20675 1.23974 1.20187 1.12611 0.946878 0.548811 0.1934 0.0241373 0.00124951 6.36591e-06 1.4936e-08 1.57726e-11 3.66768e-14 -1.95074e-17 0 0 0 -9.9888e-19 9.9888e-19 0 0 0 -9.9888e-19 9.9888e-19 0 0 0 -9.9888e-19 1.49713e-18 -9.97691e-19 0 0 0.0742559 0.147827 0.221889 0.296148 0.368484 0.436595 0.503706 0.568479 0.630454 0.683867 0.738551 0.792159 0.859261 0.90207 0.960704 0.993307 1.08144 1.09188 1.15556 1.1491 1.11752 1.03819 0.874796 0.519813 0.188767 0.0255791 0.00158446 1.34275e-05 3.98745e-08 6.12602e-11 1.52919e-13 1.03196e-16 -4.98241e-19 4.9944e-19 0 -4.9944e-19 4.98251e-19 -4.98251e-19 4.9944e-19 0 -4.9944e-19 4.98251e-19 -4.98251e-19 4.9944e-19 0 -4.9944e-19 0 4.98251e-19 0 0 0 0.0724883 0.143648 0.214585 0.286463 0.35862 0.429961 0.496154 0.556391 0.612022 0.670394 0.727885 0.785724 0.829719 0.887283 0.933784 1.00422 1.01825 1.08094 1.04823 1.05053 0.932313 0.778273 0.434421 0.164747 0.0233696 0.00157879 1.60061e-05 6.01014e-08 1.37744e-10 3.91039e-13 5.34694e-16 1.47313e-21 0 -4.98251e-19 0 4.98251e-19 0 0 -4.98251e-19 0 4.98251e-19 0 0 1.18914e-21 -4.9944e-19 0 9.97691e-19 -1.49713e-18 9.97691e-19 0 0 0.0704003 0.14103 0.211819 0.281922 0.350599 0.417063 0.482268 0.544001 0.601997 0.656416 0.710294 0.762309 0.820376 0.870919 0.922039 0.945643 0.988034 0.958687 0.948585 0.815601 0.667221 0.327691 0.123914 0.0162454 0.00123424 1.33865e-05 6.00377e-08 1.69372e-10 5.80873e-13 1.23281e-15 4.99036e-19 -4.98846e-19 9.97691e-19 -9.97691e-19 0 4.98846e-19 -4.98846e-19 4.98846e-19 -4.98846e-19 4.98846e-19 0 -4.98846e-19 4.98846e-19 5.94572e-22 -9.98286e-19 1.49713e-18 -4.9944e-19 -9.97691e-19 9.97691e-19 0 0 0.0691786 0.137949 0.206508 0.275207 0.343208 0.409317 0.471551 0.52971 0.586759 0.644732 0.700569 0.756271 0.801622 0.839209 0.866358 0.886113 0.859386 0.824431 0.689848 0.511801 0.225797 0.0784736 0.00873311 0.000658789 6.31578e-06 3.97214e-08 1.37363e-10 5.80462e-13 1.43878e-15 1.70052e-21 -4.98846e-19 4.98846e-19 -4.9944e-19 4.9944e-19 0 -4.98846e-19 -5.94572e-22 5.94572e-22 4.98846e-19 -5.94572e-22 0 5.94572e-22 -4.98846e-19 -5.94572e-22 4.98846e-19 0 -9.97691e-19 9.97691e-19 0 0 0 0.0683452 0.135866 0.202307 0.267573 0.331798 0.39506 0.457454 0.5174 0.575157 0.62922 0.678895 0.72124 0.755981 0.774712 0.774462 0.742619 0.681871 0.532488 0.342598 0.136271 0.0383467 0.00373043 0.000228803 1.73061e-06 1.48453e-08 6.07845e-11 3.89641e-13 1.2338e-15 1.70719e-21 0 -4.9944e-19 4.9944e-19 -4.9944e-19 4.9944e-19 -4.9944e-19 4.9944e-19 -1.18914e-21 1.18914e-21 -4.9944e-19 4.98251e-19 -9.97097e-19 1.49654e-18 -9.97691e-19 4.98251e-19 0 -9.97691e-19 9.97691e-19 9.97691e-19 -1.99538e-18 0 0 0.0665277 0.132466 0.197909 0.262566 0.326098 0.387815 0.446321 0.500651 0.550663 0.594575 0.631127 0.657349 0.664076 0.650324 0.6043 0.508699 0.352565 0.191595 0.0649149 0.0136465 0.00110522 4.51278e-05 3.07466e-07 3.49802e-09 1.55407e-11 1.52056e-13 5.34697e-16 -4.9806e-19 4.9944e-19 -4.9944e-19 4.98251e-19 1.18914e-21 -4.9944e-19 4.9944e-19 -4.9944e-19 4.9944e-19 -1.18914e-21 1.18914e-21 -4.9944e-19 4.98251e-19 -9.97097e-19 9.97097e-19 0 0 -9.97691e-19 9.97691e-19 0 0 0 0 0 0.0642321 0.12786 0.190362 0.251232 0.310014 0.365848 0.417447 0.463582 0.502082 0.528314 0.539437 0.533728 0.50241 0.428431 0.315501 0.187441 0.0814163 0.0212564 0.00311449 0.00018438 4.57871e-06 3.35444e-08 5.1169e-10 2.70738e-12 3.64314e-14 1.03194e-16 1.47313e-21 -4.98251e-19 4.9944e-19 -4.9944e-19 9.97691e-19 -9.97691e-19 0 4.9944e-19 0 -4.9944e-19 4.98251e-19 -4.98251e-19 4.9944e-19 -9.9888e-19 1.99538e-18 -1.99538e-18 9.97691e-19 0 0 0 0 -9.97691e-19 9.97691e-19 0 0 0.0594268 0.117852 0.174301 0.227978 0.278139 0.323479 0.36164 0.390021 0.405872 0.404238 0.376439 0.317731 0.236382 0.148764 0.0702521 0.0218366 0.00391531 0.000362368 1.3555e-05 2.12523e-07 2.63634e-09 4.19757e-11 3.22364e-13 4.91043e-15 -2.05063e-17 4.98261e-19 0 1.18914e-21 -4.9944e-19 4.9944e-19 -4.9944e-19 0 9.97691e-19 -9.97691e-19 4.9944e-19 -9.9888e-19 1.49713e-18 -4.9944e-19 -4.98251e-19 4.98251e-19 0 -9.97691e-19 9.97691e-19 0 0 0 0 -9.97691e-19 9.97691e-19 0 0 0.0496155 0.0975976 0.142394 0.18267 0.217212 0.244092 0.259505 0.257879 0.235534 0.195379 0.145244 0.0912559 0.0432533 0.0138049 0.00273893 0.000297185 1.54234e-05 3.44294e-07 6.18166e-09 1.31894e-10 1.81931e-12 2.68348e-14 2.46496e-16 -2.00104e-17 0 -4.9944e-19 4.98251e-19 1.18914e-21 -4.9944e-19 4.9944e-19 -4.9944e-19 4.9944e-19 -1.18914e-21 -4.98251e-19 0 4.98251e-19 -4.98251e-19 4.98251e-19 0 0 0 0 0 -9.97691e-19 9.97691e-19 0 -9.97691e-19 9.97691e-19 0 0 0 0.031937 0.0614726 0.0862454 0.104107 0.113459 0.113706 0.105245 0.0886618 0.0647771 0.0378919 0.0162922 0.00482559 0.000919362 0.000101745 5.8216e-06 1.72676e-07 4.66441e-09 1.47882e-10 2.83742e-12 6.11304e-14 1.1501e-15 -2.00684e-17 -4.9943e-19 4.9944e-19 0 0 -9.98286e-19 9.98286e-19 0 -4.98846e-19 4.98846e-19 0 -4.9944e-19 5.94572e-22 4.98251e-19 0 0 -9.97691e-19 9.97691e-19 0 0 0 -9.97691e-19 9.97691e-19 0 0 -9.97691e-19 1.99538e-18 -1.99538e-18 0 0 0.0103839 0.0193161 0.0255141 0.027998 0.026286 0.0208115 0.0133765 0.00665002 0.00243788 0.00062598 0.00010497 1.05363e-05 6.03706e-07 2.45696e-08 1.20539e-09 5.02628e-11 1.40116e-12 4.51537e-14 1.15013e-15 2.05148e-17 4.98869e-19 5.94572e-22 -4.9944e-19 4.9944e-19 0 -4.9944e-19 4.98846e-19 -4.98846e-19 4.9944e-19 -4.98846e-19 4.98846e-19 -4.9944e-19 0 4.98846e-19 0 0 0 0 -9.97691e-19 9.97691e-19 -9.97691e-19 9.97691e-19 0 0 0 -9.97097e-19 9.97097e-19 0 0 0 0 0.0005717 0.000916764 0.000936934 0.000707327 0.000404075 0.000172926 5.39791e-05 1.1778e-05 1.71017e-06 1.66689e-07 1.35681e-08 1.2131e-09 9.13037e-11 4.60763e-12 2.14153e-13 1.11366e-14 3.59829e-16 -4.90924e-19 9.97708e-19 -1.49713e-18 1.49713e-18 -9.97691e-19 4.98251e-19 -4.98251e-19 0 4.98251e-19 0 -4.98251e-19 0 9.97691e-19 -9.97691e-19 4.98251e-19 -4.98251e-19 4.98251e-19 0 0 -9.97691e-19 9.97691e-19 9.97691e-19 -1.99538e-18 0 9.97691e-19 9.97691e-19 -1.99538e-18 9.97691e-19 -9.97097e-19 1.99479e-18 -1.99538e-18 9.97691e-19 0 0 1.59441e-07 2.10282e-07 1.5748e-07 7.97976e-08 2.96218e-08 8.82208e-09 2.3161e-09 5.32414e-10 9.54155e-11 1.21942e-11 1.19193e-12 1.14327e-13 1.06133e-14 7.18615e-16 -2.00208e-17 1.05092e-17 -7.47971e-19 0 9.97691e-19 -9.97691e-19 0 0 9.97691e-19 -9.97691e-19 0 4.98251e-19 0 -4.98251e-19 0 9.97691e-19 -9.97691e-19 4.98251e-19 4.9944e-19 -1.49713e-18 9.97691e-19 0 -9.97691e-19 9.97691e-19 9.97691e-19 -1.99538e-18 9.97691e-19 0 -9.97097e-19 9.97097e-19 -9.97691e-19 1.99538e-18 -9.97691e-19 -9.97691e-19 9.97691e-19 0 0 1.14146e-12 1.73018e-12 1.59908e-12 1.05231e-12 5.21238e-13 2.0469e-13 6.72059e-14 1.86158e-14 4.14575e-15 7.39403e-16 2.06021e-17 -1.00706e-17 1.00753e-17 0 0 0 -2.4972e-19 9.97691e-19 -9.97691e-19 4.9944e-19 -4.9944e-19 4.9944e-19 -4.9944e-19 4.9944e-19 0 -4.9944e-19 4.98251e-19 -4.98251e-19 4.9944e-19 -4.9944e-19 4.9944e-19 -4.9944e-19 4.98251e-19 0 -9.97691e-19 9.97691e-19 9.97691e-19 -9.97691e-19 -9.97691e-19 9.97691e-19 0 0 -9.97097e-19 9.97097e-19 0 0 -9.97691e-19 9.97691e-19 0 0 0 1.6698e-17 2.04373e-17 6.53785e-18 2.8134e-17 -5.11791e-18 5.12695e-18 -5.00257e-18 2.00837e-23 -1.2486e-19 0 0 2.4972e-19 -4.9944e-19 4.9944e-19 -2.4972e-19 0 2.4972e-19 -1.18914e-21 -4.98251e-19 4.9944e-19 -4.9944e-19 4.9944e-19 -4.9944e-19 4.9944e-19 0 0 -9.9888e-19 1.49713e-18 -9.97691e-19 4.98251e-19 -4.98251e-19 0 4.98251e-19 0 0 -9.97691e-19 1.99538e-18 -1.99538e-18 9.97691e-19 0 0 -9.97691e-19 9.97691e-19 0 0 0 -9.97691e-19 1.99538e-18 -1.99538e-18 0 0 0 -3.03232e-20 6.243e-20 -6.243e-20 0 1.2486e-19 -1.24265e-19 2.49126e-19 -4.98846e-19 2.49126e-19 5.94572e-22 2.49126e-19 -2.4972e-19 2.4972e-19 -4.98846e-19 4.98846e-19 0 -9.98286e-19 9.98286e-19 -4.98846e-19 4.98251e-19 5.94572e-22 -4.98846e-19 4.98846e-19 0 -4.98846e-19 4.98251e-19 0 0 -9.97097e-19 9.97097e-19 0 0 0 0 -9.97691e-19 0 9.97691e-19 0 0 -9.97097e-19 9.97097e-19 0 0 0 -9.97097e-19 9.97097e-19 0 0 0 0 0 3.21069e-20 -6.243e-20 0 1.2486e-19 -1.2486e-19 5.94572e-22 -5.94572e-22 5.94572e-22 2.49126e-19 -2.49126e-19 -2.50315e-19 4.9944e-19 0 -4.98846e-19 -5.94572e-22 4.9944e-19 -4.98846e-19 4.98846e-19 -4.98846e-19 9.97691e-19 -9.98286e-19 4.98846e-19 -4.98846e-19 0 4.98846e-19 0 -4.98251e-19 9.97691e-19 -1.49654e-18 9.97097e-19 0 -9.97691e-19 1.99538e-18 -1.99538e-18 9.97691e-19 -9.97691e-19 1.99538e-18 -1.99538e-18 9.97691e-19 -9.97097e-19 9.97097e-19 9.97691e-19 -1.99538e-18 9.97691e-19 -9.97097e-19 1.99479e-18 -1.99538e-18 9.97691e-19 0 0 0 1.78372e-21 0 -6.243e-20 1.2486e-19 -1.2486e-19 1.2486e-19 -3.7458e-19 4.9944e-19 -2.4972e-19 2.4972e-19 -4.9944e-19 4.9944e-19 -2.4972e-19 2.4972e-19 -4.9944e-19 0 9.97691e-19 -9.97691e-19 4.9944e-19 -4.9944e-19 0 9.97691e-19 -9.97691e-19 0 4.98251e-19 0 -4.98251e-19 4.9944e-19 -1.18914e-21 0 -9.97691e-19 9.97691e-19 0 -9.97691e-19 1.99538e-18 -9.97691e-19 -9.97097e-19 9.97097e-19 -9