<?xml version="1.0"?>
<VTKFile type="PolyData">
	<PolyData>
		<Piece NumberOfPoints="2601" NumberOfPolys="2500">
			<Points>
				<DataArray type="Float32" NumberOfComponents="3" format="ascii">
 0 0 0 0.470613 0 0 0.308029 0 0 0.427823 0 0 0.426809 0 0 0.456822 0 0 0.478311 0 0 0.497831 0 0 0.516821 0 0 0.531064 0 0 0.546604 0 0 0.558487 0 0 0.572048 0 0 0.582685 0 0 0.594987 0 0 0.604226 0 0 0.614908 0 0 0.622515 0 0 0.631637 0 0 0.638844 0 0 0.646821 0 0 0.65356 0 0 0.660205 0 0 0.666191 0 0 0.672489 0 0 0.677886 0 0 0.683218 0 0 0.688137 0 0 0.692981 0 0 0.697635 0 0 0.702044 0 0 0.706289 0 0 0.710285 0 0 0.714012 0 0 0.717878 0 0 0.722677 0 0 0.729917 0 0 0.741974 0 0 0.760053 0 0 0.78 0 0 0.8 0 0 0.82 0 0 0.84 0 0 0.86 0 0 0.88 0 0 0.9 0 0 0.92 0 0 0.94 0 0 0.96 0 0 0.98 0 0 1 0 0 0 0.470613 0 0.172165 0.172165 0 0.41622 0.193018 0 0.352722 0.168233 0 0.424069 0.107978 0 0.447968 0.0963818 0 0.473216 0.0858352 0 0.494526 0.0765504 0 0.511768 0.0710209 0 0.529474 0.0650957 0 0.542766 0.0601331 0 0.557884 0.055215 0 0.569513 0.0512507 0 0.582463 0.0479709 0 0.592647 0.0453288 0 0.604375 0.0431122 0 0.612731 0.040911 0 0.622553 0.0388915 0 0.629959 0.0369604 0 0.638632 0.035229 0 0.645699 0.0336878 0 0.653143 0.0323287 0 0.659451 0.0311228 0 0.665803 0.0300047 0 0.671862 0.0289272 0 0.677408 0.0278579 0 0.68274 0.0268682 0 0.687737 0.0259548 0 0.69258 0.0251251 0 0.697273 0.02437 0 0.7017 0.0236733 0 0.705956 0.023013 0 0.709967 0.0223761 0 0.713716 0.021763 0 0.717609 0.0211899 0 0.722449 0.0206838 0 0.729754 0.0202893 0 0.741907 0.0200666 0 0.760049 0.0200035 0 0.78 0.02 0 0.8 0.02 0 0.82 0.02 0 0.84 0.02 0 0.86 0.02 0 0.88 0.02 0 0.9 0.02 0 0.92 0.02 0 0.94 0.02 0 0.96 0.02 0 0.98 0.02 0 1 0.02 0 0 0.308029 0 0.193018 0.41622 0 0.199949 0.199949 0 0.371499 0.260356 0 0.379166 0.214372 0 0.422759 0.182557 0 0.453574 0.162616 0 0.477909 0.1516 0 0.500366 0.13787 0 0.517815 0.127933 0 0.536145 0.117455 0 0.550166 0.109138 0 0.565207 0.101451 0 0.576798 0.0953029 0 0.5897 0.0902824 0 0.599428 0.0856647 0 0.610475 0.0815075 0 0.618486 0.0773384 0 0.628051 0.0735496 0 0.635662 0.0701017 0 0.643937 0.0670464 0 0.650806 0.0643757 0 0.657812 0.0619553 0 0.664192 0.0597596 0 0.67026 0.0575987 0 0.6759 0.0555272 0 0.681394 0.0535785 0 0.686521 0.051785 0 0.691416 0.050146 0 0.696187 0.048656 0 0.700668 0.0472673 0 0.704959 0.0459463 0 0.709028 0.0446759 0 0.712836 0.0434562 0 0.71681 0.0423197 0 0.721771 0.0413211 0 0.729275 0.0405488 0 0.741717 0.0401223 0 0.76004 0.0400057 0 0.78 0.04 0 0.8 0.04 0 0.82 0.04 0 0.84 0.04 0 0.86 0.04 0 0.88 0.04 0 0.9 0.04 0 0.92 0.04 0 0.94 0.04 0 0.96 0.04 0 0.98 0.04 0 1 0.04 0 0 0.427823 0 0.168233 0.352722 0 0.260356 0.371499 0 0.228713 0.228713 0 0.334141 0.298988 0 0.391241 0.245239 0 0.425734 0.233237 0 0.456936 0.210934 0 0.481752 0.19887 0 0.505056 0.182692 0 0.523107 0.170887 0 0.54179 0.15861 0 0.555777 0.149262 0 0.570593 0.140809 0 0.582033 0.133696 0 0.594646 0.127315 0 0.603963 0.120877 0 0.614711 0.114945 0 0.623 0.109272 0 0.632496 0.104225 0 0.640014 0.0998102 0 0.647846 0.0959055 0 0.654729 0.0924793 0 0.661584 0.0891756 0 0.66756 0.0859689 0 0.673565 0.0829116 0 0.679151 0.080046 0 0.68454 0.0773999 0 0.689514 0.0749857 0 0.694393 0.0727792 0 0.698962 0.0707091 0 0.703319 0.0687303 0 0.707486 0.0668316 0 0.711392 0.065016 0 0.7155 0.063336 0 0.720665 0.0618709 0 0.728503 0.0607529 0 0.741431 0.0601583 0 0.760028 0.0600062 0 0.78 0.06 0 0.8 0.06 0 0.82 0.06 0 0.84 0.06 0 0.86 0.06 0 0.88 0.06 0 0.9 0.06 0 0.92 0.06 0 0.94 0.06 0 0.96 0.06 0 0.98 0.06 0 1 0.06 0 0 0.426809 0 0.107978 0.424069 0 0.214372 0.379166 0 0.298988 0.334141 0 0.285235 0.285235 0 0.351816 0.324826 0 0.40176 0.270755 0 0.434189 0.268623 0 0.463464 0.245676 0 0.48727 0.234027 0 0.510183 0.217475 0 0.527653 0.206173 0 0.545531 0.193887 0 0.559182 0.184501 0 0.573865 0.175411 0 0.585246 0.166839 0 0.597739 0.158803 0 0.607262 0.150964 0 0.618108 0.143836 0 0.626623 0.137446 0 0.635695 0.131783 0 0.643211 0.126922 0 0.650918 0.122385 0 0.657553 0.118084 0 0.664097 0.113875 0 0.670261 0.109905 0 0.676136 0.106151 0 0.681742 0.102724 0 0.686921 0.0995716 0 0.691896 0.0966695 0 0.696615 0.0939239 0 0.701059 0.09129 0 0.705366 0.0887769 0 0.709411 0.0863893 0 0.713706 0.0841956 0 0.719162 0.0823009 0 0.727479 0.080883 0 0.741091 0.0801698 0 0.760016 0.080005 0 0.78 0.08 0 0.8 0.08 0 0.82 0.08 0 0.84 0.08 0 0.86 0.08 0 0.88 0.08 0 0.9 0.08 0 0.92 0.08 0 0.94 0.08 0 0.96 0.08 0 0.98 0.08 0 1 0.08 0 0 0.456822 0 0.0963818 0.447968 0 0.182557 0.422759 0 0.245239 0.391241 0 0.324826 0.351816 0 0.336495 0.336495 0 0.378168 0.33624 0 0.411949 0.296374 0 0.442687 0.296732 0 0.469857 0.273801 0 0.492027 0.263923 0 0.513786 0.247595 0 0.530484 0.237088 0 0.548178 0.224632 0 0.561911 0.21447 0 0.576603 0.204284 0 0.588042 0.194497 0 0.600586 0.185443 0 0.610282 0.177102 0 0.62084 0.169614 0 0.629247 0.163119 0 0.638141 0.157126 0 0.645544 0.151624 0 0.652866 0.146227 0 0.659703 0.141191 0 0.666198 0.136323 0 0.672343 0.131827 0 0.678183 0.127663 0 0.683628 0.123834 0 0.688739 0.120241 0 0.693646 0.116836 0 0.698228 0.113564 0 0.702694 0.110463 0 0.706918 0.107535 0 0.711457 0.104867 0 0.717302 0.102588 0 0.726258 0.100929 0 0.740748 0.100157 0 0.760008 0.100003 0 0.78 0.1 0 0.8 0.1 0 0.82 0.1 0 0.84 0.1 0 0.86 0.1 0 0.88 0.1 0 0.9 0.1 0 0.92 0.1 0 0.94 0.1 0 0.96 0.1 0 0.98 0.1 0 1 0.1 0 0 0.478311 0 0.0858352 0.473216 0 0.162616 0.453574 0 0.233237 0.425734 0 0.270755 0.40176 0 0.33624 0.378168 0 0.361193 0.361193 0 0.395031 0.352298 0 0.421999 0.319454 0 0.44982 0.321318 0 0.475646 0.297567 0 0.496406 0.289597 0 0.517511 0.272902 0 0.533804 0.262773 0 0.551295 0.249746 0 0.564975 0.239026 0 0.579475 0.228252 0 0.590824 0.218317 0 0.602999 0.209146 0 0.612566 0.200995 0 0.622887 0.193409 0 0.63124 0.1866 0 0.639673 0.179878 0 0.647169 0.173692 0 0.654684 0.167726 0 0.661349 0.162154 0 0.667895 0.15696 0 0.673895 0.152149 0 0.679655 0.147655 0 0.684973 0.143403 0 0.690094 0.13936 0 0.694872 0.135496 0 0.699494 0.131846 0 0.703936 0.128422 0 0.708789 0.125322 0 0.71514 0.122714 0 0.724914 0.120891 0 0.740451 0.120124 0 0.760003 0.120002 0 0.78 0.12 0 0.8 0.12 0 0.82 0.12 0 0.84 0.12 0 0.86 0.12 0 0.88 0.12 0 0.9 0.12 0 0.92 0.12 0 0.94 0.12 0 0.96 0.12 0 0.98 0.12 0 1 0.12 0 0 0.497831 0 0.0765504 0.494526 0 0.1516 0.477909 0 0.210934 0.456936 0 0.268623 0.434189 0 0.296374 0.411949 0 0.352298 0.395031 0 0.380271 0.380271 0 0.408755 0.368814 0 0.432244 0.340256 0 0.456457 0.342828 0 0.481029 0.317478 0 0.500665 0.311629 0 0.521263 0.294178 0 0.53707 0.284346 0 0.554115 0.271078 0 0.567465 0.260432 0 0.581568 0.249646 0 0.592765 0.240058 0 0.604769 0.230864 0 0.614312 0.222716 0 0.624224 0.2146 0 0.632519 0.207308 0 0.641094 0.200159 0 0.648625 0.193569 0 0.655966 0.18728 0 0.6627 0.181502 0 0.669039 0.176036 0 0.675026 0.17092 0 0.68068 0.166048 0 0.685997 0.161424 0 0.69103 0.157034 0 0.695801 0.152889 0 0.700496 0.149017 0 0.705744 0.145537 0 0.712748 0.142665 0 0.72355 0.140779 0 0.740232 0.140083 0 0.760001 0.140001 0 0.78 0.14 0 0.8 0.14 0 0.82 0.14 0 0.84 0.14 0 0.86 0.14 0 0.88 0.14 0 0.9 0.14 0 0.92 0.14 0 0.94 0.14 0 0.96 0.14 0 0.98 0.14 0 1 0.14 0 0 0.516821 0 0.0710209 0.511768 0 0.13787 0.500366 0 0.19887 0.481752 0 0.245676 0.463464 0 0.296732 0.442687 0 0.319454 0.421999 0 0.368814 0.408755 0 0.396981 0.396981 0 0.421646 0.383216 0 0.443296 0.358907 0 0.464927 0.36039 0 0.487292 0.334205 0 0.505699 0.330109 0 0.525384 0.312014 0 0.540545 0.302819 0 0.556929 0.289559 0 0.569912 0.279397 0 0.583675 0.268669 0 0.594698 0.259462 0 0.606265 0.249947 0 0.615596 0.241663 0 0.625522 0.233308 0 0.633884 0.225819 0 0.642211 0.218413 0 0.649797 0.211698 0 0.656993 0.205237 0 0.663617 0.199224 0 0.669914 0.193498 0 0.675877 0.188111 0 0.681444 0.182983 0 0.686712 0.178142 0 0.691665 0.173554 0 0.696654 0.169288 0 0.702386 0.165485 0 0.710216 0.16244 0 0.722296 0.160615 0 0.740098 0.160044 0 0.76 0.16 0 0.78 0.16 0 0.8 0.16 0 0.82 0.16 0 0.84 0.16 0 0.86 0.16 0 0.88 0.16 0 0.9 0.16 0 0.92 0.16 0 0.94 0.16 0 0.96 0.16 0 0.98 0.16 0 1 0.16 0 0 0.531064 0 0.0650957 0.529474 0 0.127933 0.517815 0 0.182692 0.505056 0 0.234027 0.48727 0 0.273801 0.469857 0 0.321318 0.44982 0 0.340256 0.432244 0 0.383216 0.421646 0 0.411454 0.411454 0 0.43348 0.395789 0 0.454808 0.375362 0 0.474924 0.373937 0 0.494529 0.348696 0 0.511998 0.345318 0 0.530329 0.327108 0 0.544731 0.318765 0 0.56028 0.305666 0 0.572839 0.296179 0 0.585985 0.285281 0 0.59653 0.276317 0 0.607899 0.266699 0 0.617255 0.258543 0 0.626778 0.250008 0 0.635105 0.242487 0 0.643347 0.235038 0 0.650744 0.228173 0 0.657818 0.221576 0 0.664365 0.215409 0 0.670646 0.209567 0 0.67647 0.204042 0 0.681961 0.19879 0 0.687141 0.193813 0 0.692486 0.189201 0 0.698812 0.185159 0 0.70766 0.182061 0 0.721285 0.180426 0 0.740033 0.180018 0 0.76 0.18 0 0.78 0.18 0 0.8 0.18 0 0.82 0.18 0 0.84 0.18 0 0.86 0.18 0 0.88 0.18 0 0.9 0.18 0 0.92 0.18 0 0.94 0.18 0 0.96 0.18 0 0.98 0.18 0 1 0.18 0 0 0.546604 0 0.0601331 0.542766 0 0.117455 0.536145 0 0.170887 0.523107 0 0.217475 0.510183 0 0.263923 0.492027 0 0.297567 0.475646 0 0.342828 0.456457 0 0.358907 0.443296 0 0.395789 0.43348 0 0.4237 0.4237 0 0.444004 0.406728 0 0.465077 0.389757 0 0.484636 0.38501 0 0.501923 0.361802 0 0.518734 0.358388 0 0.53562 0.340472 0 0.549383 0.332846 0 0.563994 0.319802 0 0.575881 0.31083 0 0.588565 0.299888 0 0.598948 0.291351 0 0.609785 0.281634 0 0.61888 0.273566 0 0.628251 0.265112 0 0.636369 0.257582 0 0.644381 0.25014 0 0.651577 0.243257 0 0.658515 0.236665 0 0.664998 0.230491 0 0.671128 0.224592 0 0.676829 0.218975 0 0.682288 0.213638 0 0.688075 0.208751 0 0.695149 0.204578 0 0.705232 0.201585 0 0.720598 0.200248 0 0.740008 0.200006 0 0.76 0.2 0 0.78 0.2 0 0.8 0.2 0 0.82 0.2 0 0.84 0.2 0 0.86 0.2 0 0.88 0.2 0 0.9 0.2 0 0.92 0.2 0 0.94 0.2 0 0.96 0.2 0 0.98 0.2 0 1 0.2 0 0 0.558487 0 0.055215 0.557884 0 0.109138 0.550166 0 0.15861 0.54179 0 0.206173 0.527653 0 0.247595 0.513786 0 0.289597 0.49640
[...]
			<PointData Scalars="VitesseX">
				<DataArray Name="VitesseX" type="Float32" format="ascii">
 0 1.71678 0.405789 1.11177 0.972151 1.0454 1.09569 1.15264 1.17497 1.24153 1.26031 1.26894 1.33467 1.36174 1.35564 1.4182 1.4811 1.50319 1.51154 1.52513 1.5614 1.61904 1.66556 1.64107 1.64208 1.71196 1.73389 1.72613 1.76061 1.75843 1.77407 1.80479 1.83192 1.84852 1.7916 1.60858 1.19419 0.488521 0.0253999 1.84307e-05 2.20124e-10 2.40697e-15 6.51823e-20 0 0 -6.51823e-20 6.51823e-20 -6.51823e-20 6.51823e-20 0 0 0 0.126481 1.34462 0.584744 0.987172 0.98208 1.10095 1.12085 1.17228 1.23444 1.23514 1.2821 1.33341 1.35562 1.36497 1.41731 1.47678 1.51344 1.495 1.5349 1.55475 1.62782 1.64822 1.63973 1.6589 1.6997 1.73128 1.72736 1.75779 1.75937 1.77366 1.80576 1.83088 1.84676 1.78885 1.60382 1.18573 0.476978 0.0238393 1.63697e-05 2.00234e-10 2.22842e-15 6.51823e-20 0 0 -6.51823e-20 6.51823e-20 -6.51823e-20 6.51823e-20 0 0 0 0.743563 0.201797 1.10441 0.77127 0.920879 1.01482 1.08302 1.12844 1.20132 1.22252 1.262 1.33059 1.34856 1.35248 1.41531 1.47563 1.49416 1.49543 1.51686 1.57644 1.61416 1.61813 1.63815 1.68924 1.67405 1.72406 1.72785 1.75233 1.7617 1.77288 1.80731 1.82869 1.8411 1.78067 1.58936 1.1602 0.442871 0.0196425 1.14444e-05 1.5026e-10 1.75701e-15 9.96906e-20 -6.70994e-20 0 3.45083e-20 -3.45083e-20 3.45083e-20 -3.45083e-20 0 0 0 0.599035 0.758131 0.238584 0.729037 0.848067 0.962785 1.01411 1.10447 1.15883 1.18683 1.26068 1.30242 1.32564 1.34743 1.4045 1.45892 1.48569 1.47244 1.52442 1.56875 1.59832 1.59098 1.66074 1.68033 1.66791 1.70426 1.7291 1.74438 1.76675 1.77177 1.80746 1.82567 1.83171 1.76689 1.56433 1.1169 0.388078 0.0140634 6.2601e-06 9.22616e-11 1.16867e-15 6.70994e-20 0 0 -6.77385e-20 6.77385e-20 -6.77385e-20 6.77385e-20 0 0 0 0.249402 0.542745 0.780702 0.625642 0.800908 0.904682 1.00671 1.05925 1.12452 1.16308 1.23237 1.28035 1.29532 1.32994 1.38987 1.43548 1.45562 1.47789 1.50832 1.55607 1.55857 1.61509 1.6569 1.65364 1.67594 1.67988 1.72877 1.7341 1.77214 1.77289 1.80285 1.82103 1.82039 1.74666 1.52664 1.054 0.31666 0.00860317 2.65739e-06 4.58619e-11 6.36963e-16 0 6.70994e-20 0 -6.39042e-22 6.39042e-22 -1.34838e-19 1.34838e-19 0 0 0 0.224626 0.405916 0.526136 0.811361 0.892875 0.936185 0.953378 1.0386 1.06952 1.14472 1.1984 1.23233 1.275 1.31119 1.36577 1.40986 1.4411 1.4643 1.50206 1.5091 1.56031 1.62411 1.62787 1.63856 1.6791 1.66492 1.72209 1.72643 1.76979 1.77838 1.79302 1.81563 1.8076 1.71859 1.47321 0.967976 0.235843 0.00439478 8.70929e-07 1.83075e-11 2.92834e-16 1.34199e-19 -1.34199e-19 0 1.34199e-19 -1.34199e-19 1.34199e-19 -1.34199e-19 0 0 0 0.200354 0.350275 0.525165 0.552122 0.753584 0.926314 0.968472 0.97181 1.05373 1.10624 1.16223 1.20059 1.24198 1.29848 1.34047 1.38852 1.42139 1.45082 1.46023 1.50135 1.56458 1.61034 1.58929 1.64046 1.65858 1.6697 1.70583 1.7254 1.75399 1.78462 1.78335 1.80957 1.79108 1.68181 1.40124 0.85367 0.156068 0.00182244 2.22967e-07 5.88912e-12 1.02863e-16 -1.34199e-19 1.34199e-19 0 -1.34199e-19 0 1.34199e-19 -1.34199e-19 0 0 0 0.163425 0.34175 0.444411 0.610879 0.6294 0.766179 0.945325 0.993194 1.00929 1.06508 1.10333 1.17579 1.22049 1.26357 1.32056 1.36142 1.39283 1.41013 1.44179 1.49955 1.56166 1.55821 1.588 1.6211 1.63401 1.67346 1.69254 1.72027 1.73784 1.78037 1.78164 1.8002 1.76861 1.63521 1.30973 0.707172 0.0887496 0.000593304 4.70396e-08 1.56901e-12 1.01298e-17 0 1.34199e-19 0 -2.68398e-19 2.68398e-19 -2.68398e-19 2.68398e-19 0 0 0 0.158306 0.302636 0.448525 0.533518 0.686692 0.67837 0.817596 0.957834 1.01469 1.03878 1.07669 1.13067 1.19574 1.24706 1.28455 1.33876 1.35377 1.38132 1.43894 1.50261 1.50499 1.5386 1.58383 1.59554 1.61732 1.6671 1.68582 1.70733 1.72875 1.76271 1.78443 1.78807 1.73798 1.57466 1.19795 0.532809 0.0417421 0.000145655 8.95551e-09 3.63871e-13 -2.65685e-19 0 -1.34199e-19 2.68398e-19 -1.34199e-19 2.68398e-19 -5.36795e-19 5.36795e-19 -2.68398e-19 0 0 0.146193 0.293481 0.409606 0.52346 0.600095 0.755459 0.7506 0.858962 0.993807 1.04712 1.08234 1.12828 1.14988 1.22662 1.27393 1.29518 1.33612 1.38128 1.43956 1.45677 1.48063 1.52999 1.57198 1.57083 1.62057 1.64711 1.68672 1.68745 1.72347 1.74267 1.7825 1.7754 1.6994 1.49297 1.05919 0.350247 0.015587 2.56732e-05 1.56813e-09 7.50686e-14 1.29473e-22 0 0 0 2.68398e-19 -2.68398e-19 0 0 0 0 0 0.131391 0.266793 0.379714 0.487072 0.60079 0.680603 0.822255 0.810296 0.922058 1.03578 1.06345 1.13396 1.15664 1.19477 1.24868 1.28637 1.3291 1.38396 1.40639 1.42341 1.47977 1.53297 1.53372 1.58276 1.60575 1.64164 1.67933 1.67411 1.71502 1.7305 1.77337 1.75593 1.65176 1.38633 0.878727 0.191397 0.0044243 3.09311e-06 2.25548e-10 1.28954e-14 2.67683e-19 2.68398e-19 -2.68398e-19 0 0 0 2.68398e-19 -5.36795e-19 5.36795e-19 0 0 0.120479 0.252484 0.362359 0.477839 0.575842 0.671472 0.724696 0.868579 0.878584 0.974767 1.06958 1.08685 1.15899 1.20283 1.2066 1.2856 1.33789 1.35024 1.37576 1.42895 1.49085 1.49887 1.53701 1.57809 1.59235 1.64027 1.66148 1.67305 1.70025 1.72546 1.75964 1.72109 1.58453 1.25497 0.650204 0.0825827 0.000906223 2.5801e-07 2.39881e-11 1.65439e-15 0 2.68398e-19 -2.68398e-19 0 0 0 2.68398e-19 -2.68398e-19 0 0 0 0.118601 0.234563 0.355371 0.448836 0.561836 0.631707 0.739281 0.776735 0.915983 0.941201 1.01286 1.08378 1.12323 1.17201 1.22947 1.26486 1.30847 1.33557 1.37293 1.44556 1.46852 1.48514 1.53932 1.5644 1.57927 1.63482 1.63639 1.68135 1.68265 1.72462 1.73663 1.67335 1.48349 1.0874 0.401958 0.0267368 0.000124871 1.85011e-08 2.00243e-12 1.74929e-16 -2.68398e-19 -2.68398e-19 5.36795e-19 -2.68398e-19 2.68398e-19 -2.68398e-19 -2.68398e-19 8.03915e-19 -8.03915e-19 0 0 0.108903 0.22805 0.323779 0.444631 0.521326 0.633311 0.689155 0.806781 0.82081 0.940813 0.985762 1.04616 1.12944 1.10813 1.22128 1.26702 1.28402 1.32913 1.38964 1.43388 1.44435 1.49071 1.52981 1.5351 1.58999 1.59884 1.63445 1.66886 1.68179 1.71846 1.70107 1.60747 1.34858 0.855884 0.193554 0.00616698 1.06393e-05 1.44466e-09 1.65163e-13 1.02633e-17 2.68398e-19 -5.36795e-19 5.36795e-19 0 -2.68398e-19 0 -1.27808e-21 0 1.27808e-21 0 0 0.106952 0.211214 0.319821 0.41643 0.525688 0.589625 0.701528 0.740204 0.859458 0.870236 0.972695 1.01607 1.04386 1.13871 1.18765 1.22881 1.27724 1.31992 1.39459 1.41305 1.44718 1.48729 1.49758 1.54179 1.56694 1.5857 1.62849 1.65065 1.68561 1.7017 1.65394 1.50569 1.17934 0.563044 0.0679128 0.000944142 5.41381e-07 9.47203e-11 1.3122e-14 -6.69681e-22 2.68398e-19 0 -2.68398e-19 0 0 0 -1.27808e-21 -2.6712e-19 5.36795e-19 0 0 0.105414 0.209207 0.312731 0.412579 0.503106 0.588856 0.6546 0.75945 0.780439 0.897316 0.894162 0.995824 1.06513 1.1031 1.17774 1.19374 1.2804 1.32667 1.35382 1.39071 1.44381 1.45581 1.48583 1.53442 1.54617 1.58239 1.61834 1.63773 1.68584 1.6669 1.59119 1.36601 0.943368 0.282336 0.0163202 8.62369e-05 2.12323e-08 4.37172e-12 7.50164e-16 2.68398e-19 -5.36795e-19 5.36795e-19 -2.68398e-19 0 -2.68398e-19 5.36795e-19 -5.36795e-19 5.36795e-19 0 0 0 0.10315 0.207044 0.30283 0.398723 0.483695 0.566241 0.646325 0.712115 0.795531 0.809101 0.939177 0.941149 1.02748 1.09221 1.11181 1.2 1.23677 1.28355 1.33208 1.38561 1.41592 1.43893 1.48626 1.50658 1.53379 1.5857 1.58859 1.6452 1.65616 1.62317 1.48403 1.19294 0.623159 0.0992416 0.0025029 4.16874e-06 9.91229e-10 1.96588e-13 2.00412e-17 5.36795e-19 -5.36795e-19 0 5.36795e-19 0 -5.36795e-19 5.36795e-19 0 -5.36795e-19 5.36795e-19 0 0 0.100426 0.195038 0.29044 0.373299 0.466233 0.541663 0.622775 0.684742 0.749214 0.840057 0.860788 0.965614 0.96469 1.04219 1.16094 1.15068 1.21529 1.25072 1.29771 1.35127 1.36321 1.42087 1.45649 1.48157 1.53621 1.55191 1.59464 1.62677 1.61896 1.54354 1.33658 0.93742 0.30245 0.0228114 0.000215822 1.11516e-07 3.67186e-11 9.33987e-15 2.66303e-19 2.68398e-19 0 -5.36795e-19 0 5.36795e-19 0 0 -5.36795e-19 5.35517e-19 -5.35517e-19 0 0 0.0925129 0.183596 0.26871 0.358869 0.441061 0.52629 0.58812 0.664122 0.73928 0.808137 0.868383 0.875875 0.991345 1.00346 1.10048 1.16991 1.17893 1.249 1.29113 1.30849 1.36112 1.38934 1.42316 1.48249 1.51353 1.54225 1.58559 1.59575 1.55706 1.41968 1.13946 0.58214 0.0978561 0.00312279 9.09372e-06 3.06261e-09 9.78837e-13 3.28865e-16 1.07231e-18 -1.07231e-18 0 5.36795e-19 -1.27808e-21 -5.35517e-19 5.36795e-19 -5.36795e-19 5.35517e-19 0 -5.35517e-19 0 0 0.0882012 0.174652 0.261527 0.345941 0.427894 0.497383 0.574793 0.651499 0.735848 0.779963 0.821012 0.89776 0.927558 1.04313 1.0482 1.11601 1.17913 1.23665 1.25439 1.29155 1.3494 1.3568 1.41375 1.46731 1.48811 1.54138 1.5638 1.54523 1.46154 1.2492 0.835168 0.249532 0.0191189 0.000225582 1.75576e-07 8.69649e-11 3.06217e-14 -4.09162e-21 -1.27808e-21 -5.35517e-19 0 5.36795e-19 -1.27808e-21 -5.35517e-19 5.36795e-19 -5.36795e-19 5.35517e-19 -5.35517e-19 5.36795e-19 0 0 0.0853668 0.173251 0.255341 0.334816 0.407969 0.485718 0.571306 0.649238 0.700636 0.752752 0.81358 0.881125 0.947921 0.960963 1.04932 1.10242 1.13522 1.18592 1.23422 1.29534 1.30826 1.36249 1.40523 1.42873 1.49208 1.52272 1.52332 1.47023 1.30886 1.00836 0.447437 0.0648339 0.00210478 6.67246e-06 3.34201e-09 1.55829e-12 7.40249e-16 1.28502e-21 -5.36795e-19 5.36795e-19 -5.36795e-19 5.36795e-19 -5.36795e-19 5.36795e-19 0 -5.36795e-19 0 5.36795e-19 0 0 0 0.0857231 0.171044 0.244813 0.319162 0.401242 0.488332 0.563504 0.62043 0.673389 0.743764 0.809752 0.857756 0.898962 0.971357 0.998798 1.08341 1.10202 1.15818 1.2098 1.23775 1.30547 1.34819 1.36898 1.41969 1.4722 1.48764 1.45297 1.34403 1.10366 0.638938 0.145935 0.00995698 9.57404e-05 9.13608e-08 6.40613e-11 3.44452e-14 -5.4061e-19 0 5.36795e-19 -5.36795e-19 5.35517e-19 1.27808e-21 -5.36795e-19 5.36795e-19 -5.36795e-19 5.35517e-19 1.27808e-21 -5.36795e-19 5.36795e-19 0 0 0.0815896 0.159063 0.235742 0.317582 0.404168 0.476446 0.537948 0.596774 0.670588 0.728353 0.780314 0.825713 0.892995 0.940143 0.990162 1.02007 1.09373 1.14041 1.16637 1.22054 1.26927 1.31044 1.36536 1.40243 1.42892 1.42247 1.34849 1.14257 0.790643 0.246654 0.0295398 0.000616725 1.87141e-06 1.22887e-09 8.52241e-13 5.35322e-16 -1.0723e-18 0 5.36795e-19 -5.36795e-19 1.07231e-18 -1.07231e-18 0 5.36795e-19 -5.36795e-19 1.07231e-18 -1.07231e-18 5.35517e-19 -5.35517e-19 0 0 0.0752908 0.15359 0.238003 0.316528 0.38407 0.45159 0.519644 0.592688 0.64898 0.704672 0.753903 0.825555 0.867021 0.916781 0.952563 1.02957 1.04902 1.10391 1.16782 1.21333 1.23276 1.29851 1.33886 1.36788 1.36509 1.31296 1.15469 0.880933 0.341918 0.0623646 0.00223936 1.93802e-05 1.3284e-08 1.71783e-11 1.25986e-14 2.0005e-17 5.35517e-19 1.27808e-21 -5.36795e-19 5.36795e-19 -5.36795e-19 5.35517e-19 1.27808e-21 -5.36795e-19 5.36795e-19 -5.36795e-19 5.35517e-19 0 -5.35517e-19 0 0 0.076963 0.15478 0.23089 0.299798 0.369801 0.441154 0.510738 0.566767 0.627315 0.685479 0.751452 0.790939 0.847553 0.889435 0.957925 0.980667 1.0421 1.08597 1.14281 1.1864 1.22611 1.28113 1.32073 1.30298 1.25971 1.13004 0.904639 0.417633 0.0995344 0.00550038 0.00010387 1.05859e-07 2.08399e-10 1.39733e-13 8.27411e-17 -5.36795e-19 5.35517e-19 1.27808e-21 -5.36795e-19 5.36795e-19 -5.36795e-19 5.35517e-19 1.27808e-21 -5.36795e-19 5.36795e-19 -5.36795e-19 5.35517e-19 -5.35517e-19 5.36795e-19 0 0 0.0759717 0.147561 0.218257 0.291763 0.361457 0.427058 0.488391 0.553028 0.61474 0.674186 0.718044 0.778088 0.826231 0.885675 0.908128 0.98035 1.01409 1.08106 1.10834 1.16633 1.22685 1.23787 1.26168 1.22901 1.08308 0.885058 0.451924 0.127804 0.0102176 0.000308318 5.86566e-07 1.38892e-09 1.01197e-12 1.9319e-15 1.51957e-21 0 -1.07359e-18 1.07359e-18 0 0 0 -1.07359e-18 1.07359e-18 0 0 0 -1.07359e-18 1.60911e-18 -1.07231e-18 0 0 0.071342 0.141997 0.211913 0.279566 0.345973 0.412667 0.480321 0.543365 0.602241 0.655307 0.715022 0.761926 0.811609 0.845183 0.914599 0.947893 1.01424 1.03408 1.1158 1.15048 1.16767 1.19492 1.14509 1.05039 0.864175 0.443376 0.138885 0.0140831 0.000581482 2.15059e-06 5.34116e-09 5.39606e-12 1.45502e-14 5.38783e-19 0 -5.36795e-19 5.35517e-19 -5.35517e-19 5.36795e-19 0 -5.36795e-19 5.35517e-19 -5.35517e-19 5.36795e-19 0 -5.36795e-19 0 5.35517e-19 0 0 0 0.0684723 0.136283 0.204347 0.273833 0.341784 0.406636 0.468161 0.52992 0.589317 0.646654 0.692487 0.740968 0.78738 0.847745 0.88213 0.940332 0.972762 1.05783 1.0619 1.11805 1.10911 1.06609 0.977682 0.791532 0.419731 0.136748 0.0147575 0.000754241 4.42992e-06 1.2853e-08 2.04637e-11 5.8244e-14 1.42022e-20 -5.35517e-19 0 5.35517e-19 0 0 -5.35517e-19 0 5.35517e-19 0 0 1.27808e-21 -5.36795e-19 0 1.07231e-18 -1.60911e-18 1.07231e-18 0 0 0.066852 0.132818 0.198685 0.264731 0.331177 0.396595 0.458877 0.515694 0.569377 0.62098 0.676238 0.729301 0.780047 0.818436 0.874096 0.917027 0.98483 0.991305 1.0506 1.00861 0.999286 0.876536 0.699662 0.353019 0.11811 0.0136961 0.000752885 5.05651e-06 1.88434e-08 4.413e-11 1.39241e-13 1.22701e-16 1.07233e-18 -1.07231e-18 0 5.36156e-19 -5.36156e-19 5.36156e-19 -5.36156e-19 5.36156e-19 0 -5.36156e-19 5.36156e-19 6.39042e-22 -1.07295e-18 1.60911e-18 -5.36795e-19 -1.07231e-18 1.07231e-18 0 0 0.0647526 0.129655 0.195236 0.261662 0.327113 0.38847 0.446422 0.502814 0.557719 0.612431 0.662021 0.709813 0.757043 0.811017 0.857659 0.905026 0.924833 0.962375 0.921501 0.904339 0.758295 0.590826 0.263171 0.0882782 0.00961872 0.000576622 4.41784e-06 1.88295e-08 5.10124e-11 2.00363e-13 3.69425e-16 5.36222e-19 -5.36795e-19 5.36795e-19 0 -5.36156e-19 -6.39042e-22 6.39042e-22 5.36156e-19 -6.39042e-22 0 6.39042e-22 -5.36156e-19 -6.39042e-22 5.36156e-19 0 -1.07231e-18 1.07231e-18 0 0 0 0.0637432 0.127446 0.191419 0.255598 0.319252 0.38078 0.439005 0.492216 0.543778 0.595804 0.648456 0.69948 0.749749 0.788648 0.824741 0.848226 0.862933 0.827609 0.78559 0.63273 0.445348 0.176704 0.054867 0.00506176 0.000305029 2.13553e-06 1.28056e-08 4.40073e-11 2.00281e-13 4.11002e-16 -5.36688e-19 5.36795e-19 -5.36795e-19 5.36795e-19 -5.36795e-19 5.36795e-19 -1.27808e-21 1.27808e-21 -5.36795e-19 5.35517e-19 -1.07167e-18 1.60847e-18 -1.07231e-18 5.35517e-19 0 -1.07231e-18 1.07231e-18 1.07231e-18 -2.14463e-18 0 0 0.0633372 0.126465 0.189339 0.2513 0.311238 0.368659 0.425085 0.480775 0.534914 0.587506 0.636556 0.679889 0.715324 0.744667 0.757567 0.752771 0.715403 0.644826 0.480914 0.291573 0.103775 0.0259386 0.00206103 0.00010288 5.78674e-07 5.3111e-09 2.03019e-11 1.38746e-13 3.70498e-16 -5.36688e-19 5.35517e-19 1.27808e-21 -5.36795e-19 5.36795e-19 -5.36795e-19 5.36795e-19 -1.27808e-21 1.27808e-21 -5.36795e-19 5.35517e-19 -1.07167e-18 1.07167e-18 0 0 -1.07231e-18 1.07231e-18 0 0 0 0 0 0.0624167 0.124215 0.185071 0.244464 0.30296 0.360029 0.415007 0.466851 0.5162 0.561502 0.600429 0.631864 0.652256 0.652506 0.63256 0.578444 0.473597 0.312956 0.158714 0.0479388 0.00883347 0.000580418 1.91943e-05 1.03505e-07 1.38021e-09 5.30892e-12 5.79975e-14 1.22702e-16 5.36854e-19 -5.36795e-19 1.07231e-18 -1.07231e-18 0 5.36795e-19 0 -5.36795e-19 5.35517e-19 -5.35517e-19 5.36795e-19 -1.07359e-18 2.14463e-18 -2.14463e-18 1.07231e-18 0 0 0 0 -1.07231e-18 1.07231e-18 0 0 0.0606152 0.120369 0.178609 0.235218 0.290558 0.343808 0.393659 0.439023 0.478854 0.511223 0.531812 0.538537 0.528099 0.489899 0.407215 0.289451 0.162789 0.0651493 0.0151331 0.00191848 9.21256e-05 1.84757e-06 1.29031e-08 2.06676e-10 9.86731e-13 1.45512e-14 1.41676e-20 1.29543e-21 -5.36795e-19 5.36795e-19 -5.36795e-19 0 1.07231e-18 -1.07231e-18 5.36795e-19 -1.07359e-18 1.60911e-18 -5.36795e-19 -5.35517e-19 5.35517e-19 0 -1.07231e-18 1.07231e-18 0 0 0 0 -1.07231e-18 1.07231e-18 0 0 0.0564558 0.11183 0.165461 0.216992 0.266019 0.311607 0.351832 0.383762 0.404978 0.413704 0.406061 0.37316 0.309727 0.224522 0.135263 0.0594682 0.0168414 0.00267561 0.000212392 6.49757e-06 8.90615e-08 1.19644e-09 1.69276e-11 1.36034e-13 1.9319e-15 -5.34808e-19 5.35517e-19 1.27808e-21 -5.36795e-19 5.36795e-19 -5.36795e-19 5.36795e-19 -1.27808e-21 -5.35517e-19 0 5.35517e-19 -5.35517e-19 5.35517e-19 0 0 0 0 0 -1.07231e-18 1.07231e-18 0 -1.07231e-18 1.07231e-18 0 0 0 0.0485694 0.0957632 0.140432 0.181579 0.218138 0.248723 0.270914 0.28044 0.271739 0.242111 0.196097 0.142269 0.0863696 0.0388179 0.011516 0.00207565 0.000197771 8.75277e-06 1.69184e-07 3.21855e-09 6.24487e-11 8.28196e-13 1.24742e-14 8.2738e-17 1.51957e-21 0 -1.07295e-18 1.07295e-18 0 -5.36156e-19 5.36156e-19 0 -5.36795e-19 6.39042e-22 5.35517e-19 0 0 -1.07231e-18 1.07231e-18 0 0 0 -1.07231e-18 1.07231e-18 0 0 -1.07231e-18 2.14463e-18 -2.14463e-18 0 0 0.0342197 0.0665927 0.0952785 0.118304 0.133487 0.138823 0.133541 0.118702 0.0961408 0.067637 0.0380115 0.0155978 0.00437044 0.000775569 7.8042e-05 3.95275e-06 1.0563e-07 2.89357e-09 8.39744e-11 1.49191e-12 3.34178e-14 4.93167e-16 2.0005e-17 5.36795e-19 0 -5.36795e-19 5.36156e-19 -5.36156e-19 5.36795e-19 -5.36156e-19 5.36156e-19 -5.36795e-19 0 5.36156e-19 0 0 0 0 -1.07231e-18 1.07231e-18 -1.07231e-18 1.07231e-18 0 0 0 -1.07167e-18 1.07167e-18 0 0 0 0 0.0132668 0.0250547 0.0340852 0.0393591 0.040112 0.035931 0.0274065 0.0169461 0.00804496 0.00279108 0.000671846 0.000104421 9.59498e-06 5.00969e-07 1.93293e-08 9.20047e-10 3.4838e-11 9.1973e-13 2.91433e-14 7.38115e-16 1.60399e-18 -1.0723e-18 5.35517e-19 -5.35517e-19 0 5.35517e-19 0 -5.35517e-19 0 1.07231e-18 -1.07231e-18 5.35517e-19 -5.35517e-19 5.35517e-19 0 0 -1.07231e-18 1.07231e-18 1.07231e-18 -2.14463e-18 0 1.07231e-18 1.07231e-18 -2.14463e-18 1.07231e-18 -1.07167e-18 2.14399e-18 -2.14463e-18 1.07231e-18 0 0 0.00149037 0.00252774 0.00283881 0.002447 0.00165658 0.000870015 0.000345144 9.96936e-05 1.99476e-05 2.61094e-06 2.23744e-07 1.57961e-08 1.26387e-09 8.63753e-11 3.99798e-12 1.78606e-13 8.68213e-15 3.28875e-16 1.06693e-18 -1.07231e-18 0 0 1.07231e-18 -1.07231e-18 0 5.35517e-19 0 -5.35517e-19 0 1.07231e-18 -1.07231e-18 5.35517e-19 5.36795e-19 -1.60911e-18 1.07231e-18 0 -1.07231e-18 1.07231e-18 1.07231e-18 -2.14463e-18 1.07231e-18 0 -1.07167e-18 1.07167e-18 -1.07231e-18 2.14463e-18 -1.07231e-18 -1.07231e-18 1.07231e-18 0 0 2.05884e-06 2.86162e-06 2.31861e-06 1.28205e-06 5.03798e-07 1.44063e-07 3.18591e-08 6.2265e-09 1.16142e-09 1.81291e-10 2.02914e-11 1.6972e-12 1.40399e-13 1.16629e-14 7.09004e-16 2.05821e-17 -2.70492e-19 1.07231e-18 -1.07231e-18 5.36795e-19 -5.36795e-19 5.36795e-19 -5.36795e-19 5.36795e-19 0 -5.36795e-19 5.35517e-19 -5.35517e-19 5.36795e-19 -5.36795e-19 5.36795e-19 -5.36795e-19 5.35517e-19 0 -1.07231e-18 1.07231e-18 1.07231e-18 -1.07231e-18 -1.07231e-18 1.07231e-18 0 0 -1.07167e-18 1.07167e-18 0 0 -1.07231e-18 1.07231e-18 0 0 0 1.98895e-11 3.00863e-11 2.79129e-11 1.84879e-11 9.0671e-12 3.35169e-12 9.6861e-13 2.36546e-13 5.22567e-14 9.91595e-15 1.3256e-15 1.54401e-16 9.72786e-18 5.36126e-19 -2.68398e-19 0 2.68398e-19 -1.27808e-21 -5.35517e-19 5.36795e-19 -5.36795e-19 5.36795e-19 -5.36795e-19 5.36795e-19 0 0 -1.07359e-18 1.60911e-18 -1.07231e-18 5.35517e-19 -5.35517e-19 0 5.35517e-19 0 0 -1.07231e-18 2.14463e-18 -2.14463e-18 1.07231e-18 0 0 -1.07231e-18 1.07231e-18 0 0 0 -1.07231e-18 2.14463e-18 -2.14463e-18 0 0 1.78553e-16 2.92855e-16 2.95482e-16 2.36229e-16 1.079e-16 8.23388e-17 1.01267e-17 2.68776e-19 -5.34594e-19 2.67044e-19 6.39042e-22 2.67759e-19 -2.68398e-19 2.68398e-19 -5.36156e-19 5.36156e-19 0 -1.07295e-18 1.07295e-18 -5.36156e-19 5.35517e-19 6.39042e-22 -5.36156e-19 5.36156e-19 0 -5.36156e-19 5.35517e-19 0 0 -1.07167e-18 1.07167e-18 0 0 0 0 -1.07231e-18 0 1.07231e-18 0 0 -1.07167e-18 1.07167e-18 0 0 0 -1.07167e-18 1.07167e-18 0 0 0 0 0 3.45083e-20 -6.70994e-20 0 1.34199e-19 -1.34199e-19 6.39042e-22 -6.39042e-22 6.39042e-22 2.67759e-19 -2.67759e-19 -2.69037e-19 5.36795e-19 0 -5.36156e-19 -6.39042e-22 5.36795e-19 -5.36156e-19 5.36156e-19 -5.36156e-19 1.07231e-18 -1.07295e-18 5.36156e-19 -5.36156e-19 0 5.36156e-19 0 -5.35517e-19 1.07231e-18 -1.60847e-18 1.07167e-18 0 -1.07231e-18 2.14463e-18 -2.14463e-18 1.07231e-18 -1.07231e-18 2.14463e-18 -2.14463e-18 1.07231e-18 -1.07167e-18 1.07167e-18 1.07231e-18 -2.14463e-18 1.07231e-18 -1.07167e-18 2.14399e-18 -2.14463e-18 1.07231e-18 0 0 0 1.91713e-21 0 -6.70994e-20 1.34199e-19 -1.34199e-19 1.34199e-19 -4.02597e-19 5.36795e-19 -2.68398e-19 2.68398e-19 -5.36795e-19 5.36795e-19 -2.68398e-19 2.68398e-19 -5.36795e-19 0 1.07231e-18 -1.07231e-18 5.36795e-19 -5.36795e-19 0 1.0723