<?xml version="1.0"?>
<VTKFile type="PolyData">
	<PolyData>
		<Piece NumberOfPoints="2601" NumberOfPolys="2500">
			<Points>
				<DataArray type="Float32" NumberOfComponents="3" format="ascii">
 0 0 0 0.415393 0 0 0.293853 0 0 0.390723 0 0 0.39408 0 0 0.420926 0 0 0.441826 0 0 0.459343 0 0 0.4772 0 0 0.4905 0 0 0.504902 0 0 0.515745 0 0 0.527968 0 0 0.537334 0 0 0.548576 0 0 0.55651 0 0 0.565683 0 0 0.572664 0 0 0.580349 0 0 0.587073 0 0 0.593744 0 0 0.59961 0 0 0.605786 0 0 0.611241 0 0 0.61654 0 0 0.621293 0 0 0.625879 0 0 0.630243 0 0 0.63441 0 0 0.638416 0 0 0.642277 0 0 0.646746 0 0 0.653108 0 0 0.66355 0 0 0.680195 0 0 0.7 0 0 0.72 0 0 0.74 0 0 0.76 0 0 0.78 0 0 0.8 0 0 0.82 0 0 0.84 0 0 0.86 0 0 0.88 0 0 0.9 0 0 0.92 0 0 0.94 0 0 0.96 0 0 0.98 0 0 1 0 0 0 0.415393 0 0.167053 0.167053 0 0.373298 0.169372 0 0.332078 0.148965 0 0.391444 0.0997947 0 0.414412 0.089018 0 0.436587 0.0793738 0 0.457169 0.0712453 0 0.472551 0.0659301 0 0.488906 0.0604122 0 0.501509 0.0557145 0 0.515073 0.0511854 0 0.525221 0.0473024 0 0.537255 0.044269 0 0.546118 0.0416818 0 0.556454 0.0395187 0 0.563842 0.0374598 0 0.572308 0.0355464 0 0.57921 0.0338122 0 0.586596 0.0322334 0 0.592889 0.0308035 0 0.599137 0.0295404 0 0.605145 0.0284172 0 0.610727 0.0273432 0 0.616025 0.0263306 0 0.620854 0.0253658 0 0.625442 0.0244633 0 0.629864 0.0236308 0 0.634043 0.0228677 0 0.63807 0.0221653 0 0.641959 0.0215131 0 0.646469 0.0209252 0 0.652896 0.0204395 0 0.663439 0.0201243 0 0.680183 0.0200119 0 0.7 0.02 0 0.72 0.02 0 0.74 0.02 0 0.76 0.02 0 0.78 0.02 0 0.8 0.02 0 0.82 0.02 0 0.84 0.02 0 0.86 0.02 0 0.88 0.02 0 0.9 0.02 0 0.92 0.02 0 0.94 0.02 0 0.96 0.02 0 0.98 0.02 0 1 0.02 0 0 0.293853 0 0.169372 0.373298 0 0.192675 0.192675 0 0.336062 0.235802 0 0.353295 0.196291 0 0.391529 0.168579 0 0.419922 0.150965 0 0.441554 0.140089 0 0.462364 0.127469 0 0.478236 0.118093 0 0.495003 0.108436 0 0.507675 0.10045 0 0.521226 0.0935013 0 0.531554 0.0875703 0 0.543428 0.0828916 0 0.551904 0.0785551 0 0.561523 0.0745862 0 0.568972 0.0708154 0 0.577193 0.0672883 0 0.584073 0.0640898 0 0.590985 0.0612242 0 0.597403 0.0587868 0 0.603494 0.0565686 0 0.609132 0.0544887 0 0.614539 0.0524893 0 0.619525 0.0505905 0 0.624185 0.0488071 0 0.628715 0.047164 0 0.632957 0.0456507 0 0.637036 0.0442567 0 0.641008 0.0429601 0 0.645642 0.0417935 0 0.65227 0.0408367 0 0.663119 0.0402289 0 0.680149 0.0400201 0 0.7 0.0400001 0 0.72 0.04 0 0.74 0.04 0 0.76 0.04 0 0.78 0.04 0 0.8 0.04 0 0.82 0.04 0 0.84 0.04 0 0.86 0.04 0 0.88 0.04 0 0.9 0.04 0 0.92 0.04 0 0.94 0.04 0 0.96 0.04 0 0.98 0.04 0 1 0.04 0 0 0.390723 0 0.148965 0.332078 0 0.235802 0.336062 0 0.219271 0.219271 0 0.309791 0.273716 0 0.362614 0.2275 0 0.393876 0.215461 0 0.422924 0.195768 0 0.444903 0.183957 0 0.466482 0.168911 0 0.483028 0.157747 0 0.499728 0.146469 0 0.512334 0.137288 0 0.525972 0.129628 0 0.536099 0.122733 0 0.547436 0.11664 0 0.555778 0.110722 0 0.565252 0.105165 0 0.57285 0.100016 0 0.580727 0.0953039 0 0.587647 0.0912286 0 0.594676 0.0876315 0 0.600713 0.0843673 0 0.606636 0.0812987 0 0.612085 0.0783556 0 0.617334 0.0755518 0 0.622151 0.0729213 0 0.626818 0.0704972 0 0.631178 0.0682644 0 0.63533 0.0661965 0 0.63944 0.064273 0 0.644288 0.062548 0 0.65126 0.0611522 0 0.662627 0.0602974 0 0.680105 0.0600221 0 0.7 0.06 0 0.72 0.06 0 0.74 0.06 0 0.76 0.06 0 0.78 0.06 0 0.8 0.06 0 0.82 0.06 0 0.84 0.06 0 0.86 0.06 0 0.88 0.06 0 0.9 0.06 0 0.92 0.06 0 0.94 0.06 0 0.96 0.06 0 0.98 0.06 0 1 0.06 0 0 0.39408 0 0.0997947 0.391444 0 0.196291 0.353295 0 0.273716 0.309791 0 0.264775 0.264775 0 0.324778 0.29792 0 0.371541 0.252192 0 0.40097 0.24813 0 0.428312 0.227642 0 0.44974 0.216519 0 0.470886 0.201066 0 0.486751 0.190018 0 0.502978 0.17891 0 0.515414 0.169599 0 0.528837 0.161221 0 0.538881 0.153157 0 0.550101 0.145554 0 0.558756 0.138412 0 0.56801 0.131686 0 0.575719 0.125802 0 0.5836 0.120584 0 0.590492 0.115998 0 0.597017 0.111693 0 0.603117 0.107679 0 0.608803 0.103795 0 0.61427 0.100138 0 0.619385 0.096709 0 0.624193 0.0935478 0 0.628728 0.0906305 0 0.632982 0.087912 0 0.637288 0.0853859 0 0.642442 0.0831363 0 0.649916 0.0813525 0 0.662029 0.0803206 0 0.680062 0.0800185 0 0.7 0.08 0 0.72 0.08 0 0.74 0.08 0 0.76 0.08 0 0.78 0.08 0 0.8 0.08 0 0.82 0.08 0 0.84 0.08 0 0.86 0.08 0 0.88 0.08 0 0.9 0.08 0 0.92 0.08 0 0.94 0.08 0 0.96 0.08 0 0.98 0.08 0 1 0.08 0 0 0.420926 0 0.089018 0.414412 0 0.168579 0.391529 0 0.2275 0.362614 0 0.29792 0.324778 0 0.30709 0.30709 0 0.347684 0.311032 0 0.380576 0.275765 0 0.40836 0.273991 0 0.433924 0.253295 0 0.453834 0.2437 0 0.473866 0.22858 0 0.489236 0.218025 0 0.505268 0.206823 0 0.517703 0.196892 0 0.531066 0.187415 0 0.541305 0.178481 0 0.552345 0.169913 0 0.561055 0.162288 0 0.570296 0.155318 0 0.578039 0.149261 0 0.585465 0.143588 0 0.592263 0.13842 0 0.598732 0.133442 0 0.604696 0.128713 0 0.610442 0.124241 0 0.615865 0.120093 0 0.62088 0.116242 0 0.625616 0.112681 0 0.630035 0.109336 0 0.634597 0.106239 0 0.64016 0.103514 0 0.648308 0.101417 0 0.661409 0.100298 0 0.680031 0.100012 0 0.7 0.1 0 0.72 0.1 0 0.74 0.1 0 0.76 0.1 0 0.78 0.1 0 0.8 0.1 0 0.82 0.1 0 0.84 0.1 0 0.86 0.1 0 0.88 0.1 0 0.9 0.1 0 0.92 0.1 0 0.94 0.1 0 0.96 0.1 0 0.98 0.1 0 1 0.1 0 0 0.441826 0 0.0793738 0.436587 0 0.150965 0.419922 0 0.215461 0.393876 0 0.252192 0.371541 0 0.311032 0.347684 0 0.330733 0.330733 0 0.363164 0.32623 0 0.389648 0.296719 0 0.414822 0.296413 0 0.438883 0.274824 0 0.457562 0.266788 0 0.476979 0.251664 0 0.491997 0.241309 0 0.507849 0.229644 0 0.5202 0.21939 0 0.533267 0.20922 0 0.543349 0.200135 0 0.554175 0.191498 0 0.562993 0.184022 0 0.571749 0.17684 0 0.579288 0.170403 0 0.58681 0.164258 0 0.593472 0.158462 0 0.599926 0.152952 0 0.605881 0.147791 0 0.611631 0.142989 0 0.6169 0.138515 0 0.621874 0.134336 0 0.626525 0.130399 0 0.631426 0.126777 0 0.637519 0.12365 0 0.646533 0.121343 0 0.660857 0.120238 0 0.680012 0.120006 0 0.7 0.12 0 0.72 0.12 0 0.74 0.12 0 0.76 0.12 0 0.78 0.12 0 0.8 0.12 0 0.82 0.12 0 0.84 0.12 0 0.86 0.12 0 0.88 0.12 0 0.9 0.12 0 0.92 0.12 0 0.94 0.12 0 0.96 0.12 0 0.98 0.12 0 1 0.12 0 0 0.459343 0 0.0712453 0.457169 0 0.140089 0.441554 0 0.195768 0.422924 0 0.24813 0.40097 0 0.275765 0.380576 0 0.32623 0.363164 0 0.349125 0.349125 0 0.375917 0.341085 0 0.398912 0.315164 0 0.420913 0.315664 0 0.443676 0.293008 0 0.461306 0.286412 0 0.480145 0.270992 0 0.494831 0.260935 0 0.510165 0.248918 0 0.52215 0.23891 0 0.534903 0.228658 0 0.545032 0.219925 0 0.555488 0.21117 0 0.564019 0.203506 0 0.572747 0.196045 0 0.580349 0.189209 0 0.587723 0.182617 0 0.594445 0.176504 0 0.600736 0.170702 0 0.606727 0.16533 0 0.612316 0.16027 0 0.617551 0.155518 0 0.622508 0.151034 0 0.627843 0.146962 0 0.634621 0.143534 0 0.644719 0.141152 0 0.660441 0.140159 0 0.680004 0.140002 0 0.7 0.14 0 0.72 0.14 0 0.74 0.14 0 0.76 0.14 0 0.78 0.14 0 0.8 0.14 0 0.82 0.14 0 0.84 0.14 0 0.86 0.14 0 0.88 0.14 0 0.9 0.14 0 0.92 0.14 0 0.94 0.14 0 0.96 0.14 0 0.98 0.14 0 1 0.14 0 0 0.4772 0 0.0659301 0.472551 0 0.127469 0.462364 0 0.183957 0.444903 0 0.227642 0.428312 0 0.273991 0.40836 0 0.296719 0.389648 0 0.341085 0.375917 0 0.364809 0.364809 0 0.387865 0.353749 0 0.408641 0.331284 0 0.428561 0.331271 0 0.449178 0.308231 0 0.465801 0.302806 0 0.483692 0.287157 0 0.497727 0.277683 0 0.512478 0.265585 0 0.524249 0.256256 0 0.536539 0.24595 0 0.546275 0.237363 0 0.556522 0.228503 0 0.565108 0.220756 0 0.573538 0.213002 0 0.581288 0.20602 0 0.588452 0.19923 0 0.595063 0.192949 0 0.601306 0.186996 0 0.607219 0.181429 0 0.61273 0.176145 0 0.618053 0.171205 0 0.62393 0.166779 0 0.631585 0.163178 0 0.643035 0.160887 0 0.660185 0.160085 0 0.680001 0.160001 0 0.7 0.16 0 0.72 0.16 0 0.74 0.16 0 0.76 0.16 0 0.78 0.16 0 0.8 0.16 0 0.82 0.16 0 0.84 0.16 0 0.86 0.16 0 0.88 0.16 0 0.9 0.16 0 0.92 0.16 0 0.94 0.16 0 0.96 0.16 0 0.98 0.16 0 1 0.16 0 0 0.4905 0 0.0604122 0.488906 0 0.118093 0.478236 0 0.168911 0.466482 0 0.216519 0.44974 0 0.253295 0.433924 0 0.296413 0.414822 0 0.315164 0.398912 0 0.353749 0.387865 0 0.37818 0.37818 0 0.398834 0.364617 0 0.418661 0.345561 0 0.437237 0.343407 0 0.455591 0.321345 0 0.471261 0.316394 0 0.487821 0.300801 0 0.50123 0.292217 0 0.515218 0.280124 0 0.526297 0.271309 0 0.538144 0.261 0 0.547825 0.252741 0 0.557609 0.24377 0 0.566089 0.236028 0 0.574513 0.228298 0 0.581921 0.221178 0 0.589022 0.214345 0 0.595479 0.207948 0 0.601711 0.201903 0 0.607487 0.196196 0 0.613257 0.190903 0 0.619791 0.186254 0 0.628541 0.182626 0 0.641667 0.180597 0 0.66006 0.180034 0 0.68 0.18 0 0.7 0.18 0 0.72 0.18 0 0.74 0.18 0 0.76 0.18 0 0.78 0.18 0 0.8 0.18 0 0.82 0.18 0 0.84 0.18 0 0.86 0.18 0 0.88 0.18 0 0.9 0.18 0 0.92 0.18 0 0.94 0.18 0 0.96 0.18 0 0.98 0.18 0 1 0.18 0 0 0.504902 0 0.0557145 0.501509 0 0.108436 0.495003 0 0.157747 0.483028 0 0.201066 0.470886 0 0.2437 0.453834 0 0.274824 0.438883 0 0.315664 0.420913 0 0.331284 0.408641 0 0.364617 0.398834 0 0.389319 0.389319 0 0.40872 0.37421 0 0.42757 0.35827 0 0.445605 0.353463 0 0.461896 0.333088 0 0.476987 0.328152 0 0.492217 0.312839 0 0.504751 0.304833 0 0.517951 0.292771 0 0.528769 0.284629 0 0.540057 0.274339 0 0.549328 0.266254 0 0.558929 0.257459 0 0.567166 0.249769 0 0.575249 0.242055 0 0.58254 0.23497 0 0.589409 0.228126 0 0.595822 0.221743 0 0.601921 0.215684 0 0.608199 0.210165 0 0.615572 0.205423 0 0.625662 0.201958 0 0.640744 0.200333 0 0.660015 0.20001 0 0.68 0.2 0 0.7 0.2 0 0.72 0.2 0 0.74 0.2 0 0.76 0.2 0 0.78 0.2 0 0.8 0.2 0 0.82 0.2 0 0.84 0.2 0 0.86 0.2 0 0.88 0.2 0 0.9 0.2 0 0.92 0.2 0 0.94 0.2 0 0.96 0.2 0 0.98 0.2 0 1 0.2 0 0 0.515745 0 0.0511854 0.515073 0 0.10045 0.507675 0 0.146469 0.499728 0 0.190018 0.486751 0 0.22858 0.473866 0 0.266788 0.457562 0 0.293008 0.443676 0 0.331271 0.428561 0 0.345561 0.418661 0 0.37421 0.40872 0 0.39859 0.39859 0 0.417276 0.382892 0 0.435015 0.369502 0 0.452691 0.36234 0 0.467731 0.344031 0 0.481983 0.338595 0 0.49607 0.323633 0 0.508353 0.316347 0 0.520826 0.304335 0 0.531057 0.296509 0 0.541942 0.286412 0 0.55096 0.278554 0 0.560038 0.269855 0 0.568125 0.262315 0
[...]
			<PointData Scalars="VitesseX">
				<DataArray Name="VitesseX" type="Float32" format="ascii">
 0 1.79647 0.552022 1.30321 1.11356 1.26377 1.24032 1.31748 1.37906 1.37369 1.43872 1.53588 1.55308 1.55616 1.61166 1.67764 1.72517 1.74651 1.74679 1.7797 1.87259 1.86808 1.84446 1.88838 1.95693 1.95398 2.01672 2.00099 2.01667 2.05928 2.02879 1.8762 1.49993 0.800048 0.0886259 0.000274859 4.36453e-09 4.70155e-14 2.55258e-20 -2.55133e-20 2.55133e-20 -5.20471e-20 5.20471e-20 0 0 -5.20471e-20 5.20471e-20 -5.20471e-20 5.20471e-20 0 0 0 0.22473 1.42372 0.770809 1.11352 1.1785 1.24858 1.29392 1.36691 1.38079 1.43841 1.52464 1.56055 1.55104 1.60138 1.6916 1.71151 1.75007 1.73469 1.8015 1.85896 1.85216 1.86447 1.88034 1.95794 1.95246 2.0121 2.00234 2.01595 2.05806 2.02604 1.87068 1.4897 0.784704 0.0836253 0.000244711 3.92436e-09 4.32792e-14 2.55258e-20 -2.55133e-20 2.55133e-20 -5.20471e-20 5.20471e-20 0 0 -5.20471e-20 5.20471e-20 -5.20471e-20 5.20471e-20 0 0 0 0.779662 0.269465 1.16738 0.901658 1.09828 1.15403 1.25962 1.33488 1.34731 1.42353 1.5147 1.53527 1.5435 1.59775 1.67006 1.71841 1.71357 1.75362 1.80864 1.82471 1.82737 1.90014 1.87078 1.95416 1.94858 1.99867 2.00722 2.01427 2.05468 2.01763 1.85397 1.45887 0.738462 0.0699541 0.00017211 2.8533e-09 3.36835e-14 -6.68386e-20 1.32669e-20 -1.32669e-20 -2.60236e-20 7.96015e-20 -5.35779e-20 0 2.75544e-20 -2.75544e-20 2.75544e-20 -2.75544e-20 0 0 0 0.646729 0.853782 0.343693 0.815254 0.99774 1.09189 1.18152 1.28275 1.31786 1.3949 1.48255 1.51792 1.52624 1.58533 1.65947 1.6795 1.71801 1.75315 1.80573 1.7752 1.83792 1.89573 1.88293 1.93714 1.94598 1.97707 2.01314 2.01369 2.0487 2.00296 1.82573 1.40705 0.66126 0.0512237 9.46661e-05 1.67574e-09 2.19896e-14 2.80646e-20 -2.75544e-20 2.75544e-20 -5.35779e-20 5.35779e-20 0 0 -5.40882e-20 5.40882e-20 -5.40882e-20 5.40882e-20 0 0 0 0.283348 0.619653 0.89722 0.691486 0.891459 1.02885 1.15151 1.21981 1.28059 1.3706 1.43633 1.47534 1.50528 1.56384 1.61342 1.6669 1.70409 1.75523 1.74917 1.77946 1.84167 1.86542 1.89834 1.91745 1.93818 1.95539 2.01086 2.01656 2.03854 1.98134 1.78483 1.33348 0.555022 0.0321629 4.0051e-05 7.89789e-10 1.18944e-14 -5.30677e-20 0 0 -5.35779e-20 0 5.35779e-20 0 -5.10266e-22 5.10266e-22 -1.07666e-19 1.07666e-19 0 0 0 0.255797 0.497454 0.617531 0.930921 0.99361 1.02522 1.08806 1.18136 1.23939 1.33187 1.39418 1.43009 1.47162 1.52858 1.58453 1.64109 1.7057 1.70083 1.72116 1.79332 1.82915 1.83738 1.90246 1.90021 1.92634 1.94224 1.99532 2.01995 2.02466 1.95154 1.72783 1.23555 0.426751 0.0168474 1.27397e-05 2.94037e-10 5.24397e-15 -1.60734e-19 5.35779e-20 -5.35779e-20 0 1.07156e-19 -1.07156e-19 0 1.07156e-19 -1.07156e-19 1.07156e-19 -1.07156e-19 0 0 0 0.220967 0.408268 0.61348 0.626761 0.900794 1.03108 1.08094 1.1031 1.21909 1.29072 1.34301 1.40095 1.43742 1.49605 1.5671 1.63308 1.65294 1.66909 1.7141 1.79814 1.78483 1.8401 1.87543 1.90039 1.91105 1.93941 1.97061 2.01617 2.00843 1.91231 1.64902 1.10628 0.291249 0.00712392 2.97005e-06 8.44429e-11 1.8118e-15 2.14312e-19 -1.07156e-19 0 1.07156e-19 -1.07156e-19 1.07156e-19 0 -1.07156e-19 0 1.07156e-19 -1.07156e-19 0 0 0 0.189572 0.401711 0.538874 0.703523 0.719709 0.924297 1.07897 1.11408 1.16494 1.23636 1.30537 1.34922 1.41459 1.46704 1.54433 1.58327 1.60955 1.64821 1.73257 1.74485 1.77969 1.82506 1.83824 1.90764 1.89778 1.93966 1.94895 2.00307 1.98575 1.86163 1.54419 0.934911 0.169572 0.00234163 5.0253e-07 1.83668e-11 4.56636e-16 2.14312e-19 -1.07156e-19 1.07156e-19 -1.07156e-19 0 1.07156e-19 0 -2.14312e-19 2.14312e-19 -2.14312e-19 2.14312e-19 0 0 0 0.184659 0.369089 0.524814 0.633472 0.770797 0.788036 0.990991 1.10815 1.15039 1.19941 1.26405 1.31853 1.37991 1.45076 1.49478 1.53317 1.5859 1.66331 1.68452 1.71495 1.78062 1.78905 1.81581 1.8991 1.89276 1.93571 1.93948 1.98471 1.94754 1.79252 1.41249 0.717302 0.080466 0.000571813 6.56741e-08 3.09311e-12 7.22168e-17 -3.20957e-19 1.07156e-19 2.14312e-19 -2.14312e-19 0 -1.07156e-19 2.14312e-19 -1.07156e-19 2.14312e-19 -4.28623e-19 4.28623e-19 -2.14312e-19 0 0 0.16796 0.340819 0.475527 0.606985 0.710085 0.856663 0.897457 1.03758 1.13539 1.18482 1.24291 1.30896 1.36928 1.40336 1.46906 1.52291 1.58685 1.63009 1.6446 1.70071 1.76644 1.74891 1.82398 1.85994 1.90108 1.9207 1.94108 1.95997 1.89478 1.69206 1.2469 0.473861 0.0296526 9.78249e-05 7.86962e-09 4.46155e-13 -9.91719e-18 -3.20957e-19 1.07156e-19 -1.07156e-19 0 0 0 0 2.14312e-19 -2.14312e-19 0 0 0 0 0 0.165155 0.311237 0.46817 0.572462 0.718708 0.795454 0.940254 0.971833 1.07947 1.18569 1.20583 1.31047 1.36101 1.39561 1.46082 1.53153 1.56585 1.58333 1.62998 1.70424 1.70909 1.76221 1.80992 1.83793 1.89415 1.90996 1.93871 1.92637 1.82911 1.55583 1.02458 0.253395 0.00807297 1.0905e-05 9.08717e-10 6.0023e-14 -1.04531e-17 0 2.14312e-19 -4.28623e-19 2.14312e-19 2.14312e-19 -2.14312e-19 0 0 0 2.14312e-19 -4.28623e-19 4.28623e-19 0 0 0.151588 0.309198 0.429843 0.575389 0.663199 0.803467 0.846879 1.0116 1.0327 1.117 1.23134 1.29845 1.35038 1.41548 1.46277 1.50209 1.53147 1.56657 1.6427 1.65937 1.7029 1.76498 1.79401 1.832 1.87329 1.90598 1.92733 1.88099 1.73657 1.38817 0.733563 0.102921 0.00152759 7.57029e-07 8.18726e-11 6.77731e-15 1.56448e-23 0 0 0 0 2.14312e-19 -2.14312e-19 0 0 0 2.14312e-19 -2.14312e-19 0 0 0 0.143453 0.280133 0.416088 0.525635 0.664111 0.734851 0.879209 0.890152 1.06281 1.10025 1.19247 1.29469 1.29534 1.39701 1.47063 1.48555 1.49753 1.57447 1.61891 1.63434 1.70872 1.75679 1.77628 1.83322 1.84908 1.90343 1.89505 1.82289 1.60157 1.16993 0.421025 0.0298904 0.00018379 3.79702e-08 5.17412e-12 5.23451e-16 -2.14312e-19 4.28623e-19 -2.14312e-19 2.14312e-19 -2.14312e-19 -2.14312e-19 4.28623e-19 -2.14312e-19 2.14312e-19 -2.14312e-19 -2.14312e-19 6.41915e-19 -6.41915e-19 0 0 0.131357 0.262935 0.388436 0.510974 0.621273 0.737089 0.804033 0.956313 0.949393 1.10698 1.16298 1.19956 1.31084 1.37208 1.38554 1.45023 1.509 1.56974 1.58635 1.65258 1.70752 1.71932 1.79188 1.7996 1.85211 1.88204 1.85164 1.73076 1.43248 0.862315 0.178218 0.00583844 1.25443e-05 2.07701e-09 2.90527e-13 1.04594e-17 -4.28623e-19 4.28623e-19 -2.14312e-19 0 2.14312e-19 -4.28623e-19 4.28623e-19 0 -2.14312e-19 0 -1.02053e-21 0 1.02053e-21 0 0 0.125519 0.257514 0.378705 0.499483 0.602804 0.704192 0.809293 0.879256 1.00307 0.991561 1.15938 1.2067 1.26002 1.35273 1.36851 1.43192 1.50912 1.53854 1.58764 1.65066 1.67567 1.72564 1.76552 1.78836 1.84143 1.84665 1.78712 1.59002 1.20628 0.49881 0.0517172 0.000696995 4.59156e-07 1.02891e-10 1.72116e-14 1.39793e-21 0 0 0 0 2.14312e-19 0 -2.14312e-19 0 0 0 -1.02053e-21 -2.13291e-19 4.28623e-19 0 0 0.125254 0.250667 0.374809 0.47752 0.587436 0.685856 0.790457 0.868065 0.92298 1.06291 1.05633 1.20418 1.2026 1.27596 1.36824 1.39937 1.44302 1.52599 1.60523 1.63177 1.66507 1.72214 1.73739 1.7811 1.82286 1.79244 1.68417 1.40766 0.870119 0.2039 0.00954914 4.44584e-05 1.2596e-08 3.35907e-12 7.39005e-16 0 0 0 0 2.14312e-19 -4.28623e-19 4.28623e-19 -2.14312e-19 0 -2.14312e-19 4.28623e-19 -4.28623e-19 4.28623e-19 0 0 0 0.120327 0.242456 0.352879 0.46325 0.564328 0.673445 0.752482 0.83161 0.922601 0.994169 1.10248 1.09093 1.17866 1.27182 1.30775 1.37813 1.41941 1.48577 1.57415 1.60227 1.66219 1.68031 1.71925 1.77751 1.76379 1.7202 1.51801 1.15166 0.469366 0.0537412 0.0010202 1.31056e-06 4.2999e-10 1.08073e-13 3.07246e-17 -2.14312e-19 6.41915e-19 -2.13291e-19 -4.28623e-19 4.28623e-19 -4.28623e-19 0 4.28623e-19 0 -4.28623e-19 4.28623e-19 0 -4.28623e-19 4.28623e-19 0 0 0.113791 0.226423 0.338143 0.445719 0.548655 0.633533 0.721147 0.807119 0.906987 0.979231 1.01399 1.10986 1.11982 1.23099 1.29912 1.33987 1.42704 1.47486 1.50118 1.59707 1.61997 1.65139 1.71387 1.7259 1.71116 1.57195 1.31322 0.758151 0.1664 0.00853793 5.16223e-05 2.3256e-08 1.00331e-11 3.49105e-15 4.27346e-19 -4.28623e-19 6.41915e-19 -6.41915e-19 2.14312e-19 2.14312e-19 0 -4.28623e-19 0 4.28623e-19 0 0 -4.28623e-19 4.27603e-19 -4.27603e-19 0 0 0.105426 0.217965 0.327153 0.428361 0.514144 0.597953 0.700247 0.803525 0.877103 0.932115 1.00039 1.05784 1.16442 1.15708 1.25157 1.35144 1.4183 1.41559 1.49817 1.54377 1.59221 1.64857 1.67789 1.67115 1.5919 1.38857 0.981776 0.339092 0.0362105 0.000672811 1.11797e-06 5.21897e-10 1.99799e-13 5.15085e-17 2.14312e-19 0 -4.28623e-19 0 8.56226e-19 -8.56226e-19 0 4.28623e-19 -1.02053e-21 -4.27603e-19 4.28623e-19 -4.28623e-19 4.27603e-19 0 -4.27603e-19 0 0 0.105596 0.215062 0.314195 0.400067 0.48642 0.588808 0.693279 0.776865 0.833423 0.91245 0.986678 1.05128 1.08348 1.18207 1.23769 1.29264 1.375 1.44616 1.4679 1.49891 1.58746 1.62815 1.62431 1.58622 1.4081 1.12412 0.519302 0.0953342 0.00388238 2.41851e-05 1.28812e-08 8.69518e-12 4.45691e-15 -2.03305e-17 -4.28623e-19 4.28623e-19 -1.02053e-21 1.02053e-21 -1.02053e-21 -4.27603e-19 0 4.28623e-19 -1.02053e-21 -4.27603e-19 4.28623e-19 -4.28623e-19 4.27603e-19 -4.27603e-19 4.28623e-19 0 0 0.104315 0.199734 0.292784 0.384222 0.487474 0.583623 0.668006 0.740378 0.829795 0.893977 0.957623 0.999812 1.09446 1.13998 1.22795 1.26362 1.32188 1.40888 1.43844 1.47708 1.53986 1.57357 1.55449 1.40718 1.19978 0.658722 0.180602 0.0125222 0.000216494 2.48846e-07 2.29984e-10 1.16355e-13 4.11842e-17 0 -4.28623e-19 0 4.27603e-19 1.02053e-21 -4.28623e-19 4.28623e-19 -4.28623e-19 4.28623e-19 -4.28623e-19 4.28623e-19 0 -4.28623e-19 0 4.28623e-19 0 0 0 0.094328 0.187337 0.287489 0.386635 0.473704 0.557007 0.643585 0.739864 0.806773 0.867441 0.916503 1.01187 1.05984 1.12705 1.17288 1.26155 1.30197 1.33317 1.43752 1.44737 1.49051 1.49161 1.38558 1.21351 0.752242 0.268966 0.0270655 0.000997456 2.62896e-06 2.92493e-09 1.9877e-12 1.99185e-15 4.2867e-19 0 -4.28623e-19 4.27603e-19 -4.27603e-19 0 4.28623e-19 -4.28623e-19 4.27603e-19 1.02053e-21 -4.28623e-19 4.28623e-19 -4.28623e-19 4.27603e-19 1.02053e-21 -4.28623e-19 4.28623e-19 0 0 0.0936519 0.188771 0.284103 0.373375 0.457916 0.545132 0.634533 0.703639 0.773762 0.839773 0.923084 0.969506 1.04455 1.08479 1.18149 1.20275 1.26481 1.34398 1.37777 1.41745 1.38813 1.33047 1.18784 0.798098 0.331503 0.0451769 0.00270808 1.38705e-05 2.47717e-08 2.18931e-11 2.73806e-14 2.10339e-17 -4.27603e-19 4.28623e-19 -4.28623e-19 8.56226e-19 -8.56226e-19 0 4.28623e-19 -4.28623e-19 8.56226e-19 -8.56226e-19 0 4.28623e-19 -4.28623e-19 8.56226e-19 -8.56226e-19 4.27603e-19 -4.27603e-19 0 0 0.0931868 0.183085 0.272778 0.364931 0.452296 0.532092 0.604366 0.684336 0.762787 0.835667 0.88357 0.956827 1.01143 1.0935 1.10818 1.20391 1.24327 1.29542 1.33755 1.32341 1.251 1.10438 0.792251 0.359229 0.0607205 0.00481565 4.47285e-05 1.38657e-07 1.29481e-10 2.23696e-13 -3.93372e-19 8.5623e-19 -8.56226e-19 0 4.28623e-19 -4.28623e-19 4.27603e-19 1.02053e-21 -4.28623e-19 4.28623e-19 -4.28623e-19 4.27603e-19 1.02053e-21 -4.28623e-19 4.28623e-19 -4.28623e-19 4.27603e-19 0 -4.27603e-19 0 0 0.091442 0.181594 0.269204 0.353346 0.434681 0.514803 0.598554 0.676673 0.746075 0.804988 0.874204 0.929828 0.996687 1.03243 1.12539 1.1501 1.23165 1.22737 1.23419 1.16617 1.03665 0.71785 0.338296 0.0675255 0.00642455 9.12651e-05 4.19943e-07 4.70533e-10 1.15695e-12 9.45077e-16 2.72707e-21 -4.28623e-19 4.28623e-19 -4.28623e-19 4.28623e-19 -4.28623e-19 4.27603e-19 1.02053e-21 -4.28623e-19 4.28623e-19 -4.28623e-19 4.27603e-19 1.02053e-21 -4.28623e-19 4.28623e-19 -4.28623e-19 4.27603e-19 -4.27603e-19 4.28623e-19 0 0 0.087533 0.172951 0.257605 0.340249 0.420341 0.498608 0.574148 0.650567 0.725537 0.79553 0.849957 0.911215 0.966914 1.0416 1.0719 1.13749 1.125 1.15409 1.04405 0.940269 0.61592 0.293063 0.0569955 0.00634724 0.0001253 7.66989e-07 1.06419e-09 3.41822e-12 4.21054e-15 -2.05986e-17 0 -8.57247e-19 8.57247e-19 0 0 0 -8.57247e-19 8.57247e-19 0 0 0 -8.57247e-19 8.57247e-19 0 0 0 -8.57247e-19 1.28485e-18 -8.56226e-19 0 0 0.0849179 0.167561 0.248355 0.326797 0.405923 0.485475 0.564554 0.638847 0.706513 0.768368 0.833526 0.893833 0.95562 0.988499 1.03713 1.0297 1.03391 0.925199 0.820034 0.480035 0.226321 0.040466 0.00471197 9.05553e-05 7.65992e-07 1.559e-09 6.33993e-12 9.81784e-15 2.09749e-17 0 -4.28623e-19 4.27603e-19 -4.27603e-19 4.28623e-19 0 -4.28623e-19 4.27603e-19 -4.27603e-19 4.28623e-19 0 -4.28623e-19 4.27603e-19 -4.27603e-19 4.28623e-19 0 -4.28623e-19 0 4.27603e-19 0 0 0 0.0808974 0.161218 0.241189 0.320218 0.397845 0.473554 0.546621 0.618485 0.686882 0.751997 0.810379 0.861131 0.900606 0.931218 0.920353 0.897366 0.795973 0.646597 0.346233 0.14797 0.0233066 0.00264058 4.41576e-05 4.18756e-07 1.05835e-09 6.32998e-12 1.47482e-14 6.17031e-17 -4.27603e-19 0 4.27603e-19 0 0 -4.27603e-19 0 4.27603e-19 0 0 -4.27603e-19 0 4.27603e-19 0 0 1.02053e-21 -4.28623e-19 0 8.56226e-19 -1.28485e-18 8.56226e-19 0 0 0.0786449 0.156738 0.234067 0.310946 0.388141 0.464391 0.538163 0.607141 0.668247 0.71944 0.765077 0.797979 0.812932 0.794241 0.7491 0.629415 0.449558 0.218101 0.0764121 0.0108296 0.000973588 1.36412e-05 1.37978e-07 4.66015e-10 3.40701e-12 9.73638e-15 6.17031e-17 0 -4.28113e-19 0 4.28113e-19 -4.28113e-19 8.56226e-19 -8.56226e-19 0 4.28113e-19 -4.28113e-19 4.28113e-19 -4.28113e-19 4.28113e-19 0 -4.28113e-19 4.28113e-19 5.10266e-22 -8.56737e-19 1.28485e-18 -4.28623e-19 -8.56226e-19 8.56226e-19 0 0 0.0773234 0.154237 0.230203 0.304466 0.376805 0.446972 0.513257 0.572004 0.621377 0.659291 0.679023 0.677662 0.647778 0.572253 0.430123 0.262603 0.109097 0.02929 0.00347459 0.000211596 2.58529e-06 2.4558e-08 1.27619e-10 1.15054e-12 4.12825e-15 2.01182e-17 4.27603e-19 -4.27603e-19 4.28113e-19 0 -4.28113e-19 4.28113e-19 -4.28623e-19 4.28623e-19 0 -4.28113e-19 -5.10266e-22 5.10266e-22 4.28113e-19 -5.10266e-22 0 5.10266e-22 -4.28113e-19 -5.10266e-22 4.28113e-19 0 -8.56226e-19 8.56226e-19 0 0 0 0.0737172 0.146734 0.217943 0.28621 0.350865 0.410865 0.463695 0.504976 0.531182 0.53944 0.522784 0.465283 0.363551 0.236542 0.118383 0.0380947 0.00723122 0.000625251 2.37119e-05 2.43489e-07 2.88546e-09 2.15024e-11 2.21765e-13 9.86279e-16 -2.05986e-17 0 -8.57247e-19 8.57247e-19 0 0 -4.28623e-19 4.28623e-19 -4.28623e-19 4.28623e-19 -4.28623e-19 4.28623e-19 -1.02053e-21 1.02053e-21 -4.28623e-19 4.27603e-19 -8.55716e-19 1.28434e-18 -8.56226e-19 4.27603e-19 0 -8.56226e-19 8.56226e-19 8.56226e-19 -1.71245e-18 0 0 0.0658938 0.130472 0.192049 0.24869 0.298364 0.339083 0.368368 0.381652 0.370492 0.32783 0.257695 0.174782 0.0930203 0.0340375 0.00754505 0.000917412 4.94241e-05 1.09363e-06 1.24421e-08 2.26288e-10 1.93684e-12 2.74217e-14 4.58433e-19 2.72397e-21 0 -4.28623e-19 4.27603e-19 -4.27603e-19 4.28623e-19 -4.28623e-19 4.27603e-19 1.02053e-21 -4.28623e-19 4.28623e-19 -4.28623e-19 4.28623e-19 -1.02053e-21 1.02053e-21 -4.28623e-19 4.27603e-19 -8.55716e-19 8.55716e-19 0 0 -8.56226e-19 8.56226e-19 0 0 0 0 0 0.0502396 0.0983265 0.141836 0.17781 0.202556 0.21197 0.203586 0.178952 0.142462 0.0975007 0.0517044 0.0189951 0.00447651 0.00060875 4.18756e-05 1.26581e-06 2.22486e-08 5.05117e-10 8.47513e-12 1.12494e-13 1.95064e-15 2.10339e-17 1.02366e-21 -4.28623e-19 0 4.27603e-19 0 -4.27603e-19 4.28623e-19 -4.28623e-19 8.56226e-19 -8.56226e-19 0 4.28623e-19 0 -4.28623e-19 4.27603e-19 -4.27603e-19 4.28623e-19 -8.57247e-19 1.71245e-18 -1.71245e-18 8.56226e-19 0 0 0 0 -8.56226e-19 8.56226e-19 0 0 0.0239468 0.0452097 0.0614255 0.0708877 0.0726119 0.0661114 0.051756 0.0327592 0.0155938 0.00525015 0.0011747 0.000159274 1.16492e-05 4.34979e-07 1.1762e-08 4.10517e-10 9.64905e-12 1.91152e-13 4.33388e-15 4.11841e-17 -4.2858e-19 4.27603e-19 1.02053e-21 -4.28623e-19 0 4.27603e-19 0 1.02053e-21 -4.28623e-19 4.28623e-19 -4.28623e-19 0 8.56226e-19 -8.56226e-19 4.28623e-19 -8.57247e-19 1.28485e-18 -4.28623e-19 -4.27603e-19 4.27603e-19 0 -8.56226e-19 8.56226e-19 0 0 0 0 -8.56226e-19 8.56226e-19 0 0 0.0046561 0.00810739 0.00947682 0.00856929 0.00608677 0.00332738 0.00135479 0.000394119 7.72992e-05 9.45921e-06 6.85126e-07 3.40244e-08 1.87825e-09 9.64137e-11 3.15112e-12 1.01295e-13 3.34737e-15 9.25981e-17 -2.03305e-17 0 0 -4.28623e-19 0 4.28623e-19 0 -4.28623e-19 4.27603e-19 1.02053e-21 -4.28623e-19 4.28623e-19 -4.28623e-19 4.28623e-19 -1.02053e-21 -4.27603e-19 0 4.27603e-19 -4.27603e-19 4.27603e-19 0 0 0 0 0 -8.56226e-19 8.56226e-19 0 -8.56226e-19 8.56226e-19 0 0 0 3.00205e-05 4.22998e-05 3.48968e-05 1.95902e-05 7.68054e-06 2.08156e-06 3.85237e-07 5.16016e-08 6.20678e-09 7.54867e-10 7.20839e-11 4.62708e-12 2.57541e-13 1.57951e-14 6.77554e-16 3.07266e-17 -1.27705e-21 2.14312e-19 -4.28113e-19 4.28113e-19 -4.28113e-19 4.28113e-19 -4.28623e-19 4.28623e-19 0 0 -8.56737e-19 8.56737e-19 0 -4.28113e-19 4.28113e-19 0 -4.28623e-19 5.10266e-22 4.27603e-19 0 0 -8.56226e-19 8.56226e-19 0 0 0 -8.56226e-19 8.56226e-19 0 0 -8.56226e-19 1.71245e-18 -1.71245e-18 0 0 4.4018e-10 6.30888e-10 5.46695e-10 3.39276e-10 1.56488e-10 5.31128e-11 1.2966e-11 2.30846e-12 3.38658e-13 4.74743e-14 5.75046e-15 5.03392e-16 1.00285e-17 8.93893e-22 5.10266e-22 -2.14822e-19 4.28623e-19 0 -4.28113e-19 -5.10266e-22 4.28113e-19 5.10266e-22 -4.28623e-19 4.28623e-19 0 -4.28623e-19 4.28113e-19 -4.28113e-19 4.28623e-19 -4.28113e-19 4.28113e-19 -4.28623e-19 0 4.28113e-19 0 0 0 0 -8.56226e-19 8.56226e-19 -8.56226e-19 8.56226e-19 0 0 0 -8.55716e-19 8.55716e-19 0 0 0 0 3.73629e-15 5.85949e-15 5.83429e-15 4.26104e-15 2.38953e-15 1.0421e-15 3.1306e-16 7.20006e-17 1.03477e-17 -1.04532e-17 1.56448e-23 -2.14312e-19 4.28623e-19 -4.28623e-19 4.28623e-19 -2.15332e-19 2.15332e-19 -4.28623e-19 8.56226e-19 -1.28485e-18 1.28485e-18 -8.56226e-19 4.27603e-19 -4.27603e-19 0 4.27603e-19 0 -4.27603e-19 0 8.56226e-19 -8.56226e-19 4.27603e-19 -4.27603e-19 4.27603e-19 0 0 -8.56226e-19 8.56226e-19 8.56226e-19 -1.71245e-18 0 8.56226e-19 8.56226e-19 -1.71245e-18 8.56226e-19 -8.55716e-19 1.71194e-18 -1.71245e-18 8.56226e-19 0 0 0 4.03173e-20 -8.01118e-20 1.61244e-19 -1.60734e-19 0 0 1.06135e-19 1.08176e-19 -4.28623e-19 4.28623e-19 -4.28623e-19 4.28623e-19 -4.28623e-19 4.28623e-19 2.13291e-19 -6.41915e-19 0 8.56226e-19 -8.56226e-19 0 0 8.56226e-19 -8.56226e-19 0 4.27603e-19 0 -4.27603e-19 0 8.56226e-19 -8.56226e-19 4.27603e-19 4.28623e-19 -1.28485e-18 8.56226e-19 0 -8.56226e-19 8.56226e-19 8.56226e-19 -1.71245e-18 8.56226e-19 0 -8.55716e-19 8.55716e-19 -8.56226e-19 1.71245e-18 -8.56226e-19 -8.56226e-19 8.56226e-19 0 0 0 -1.32669e-20 2.75544e-20 0 -5.35779e-20 1.07156e-19 -1.07156e-19 -1.07156e-19 3.21468e-19 -2.14312e-19 0 2.14312e-19 -2.14312e-19 0 0 0 -2.14312e-19 8.56226e-19 -8.56226e-19 4.28623e-19 -4.28623e-19 4.28623e-19 -4.28623e-19 4.28623e-19 0 -4.28623e-19 4.27603e-19 -4.27603e-19 4.28623e-19 -4.28623e-19 4.28623e-19 -4.28623e-19 4.27603e-19 0 -8.56226e-19 8.56226e-19 8.56226e-19 -8.56226e-19 -8.56226e-19 8.56226e-19 0 0 -8.55716e-19 8.55716e-19 0 0 -8.56226e-19 8.56226e-19 0 0 0 0 -1.32669e-20 2.75544e-20 0 -5.35779e-20 0 1.07156e-19 0 -1.07156e-19 0 0 2.14312e-19 -4.28623e-19 4.28623e-19 -2.14312e-19 0 2.14312e-19 -1.02053e-21 -4.27603e-19 4.28623e-19 -4.28623e-19 4.28623e-19 -4.28623e-19 4.28623e-19 0 0 -8.57247e-19 1.28485e-18 -8.56226e-19 4.27603e-19 -4.27603e-19 0 4.27603e-19 0 0 -8.56226e-19 1.71245e-18 -1.71245e-18 8.56226e-19 0 0 -8.56226e-19 8.56226e-19 0 0 0 -8.56226e-19 1.71245e-18 -1.71245e-18 0 0 0 -2.60236e-20 5.35779e-20 -5.35779e-20 0 1.07156e-19 -1.06646e-19 2.13801e-19 -4.28113e-19 2.13801e-19 5.10266e-22 2.13801e-19 -2.14312e-19 2.14312e-19 -4.28113e-19 4.28113e-19 0 -8.56737e-19 8.56737e-19 -4.28113e-19 4.27603e-19 5.10266e-22 -4.28113e-19 4.28113e-19 0 -4.28113e-19 4.27603e-19 0 0 -8.55716e-19 8.55716e-19 0 0 0 0 -8.56226e-19 0 8.56226e-19 0 0 -8.55716e-19 8.55716e-19 0 0 0 -8.55716e-19 8.55716e-19 0 0 0 0 0 2.75544e-20 -5.35779e-20 0 1.07156e-19 -1.07156e-19 5.10266e-22 -5.10266e-22 5.10266e-22 2.13801e-19 -2.13801e-19 -2.14822e-19 4.28623e-19 0 -4.28113e-19 -5.10266e-22 4.28623e-19 -4.28113e-19 4.28113e-19 -4.28113e-19 8.56226e-19 -8.56737e-19 4.28113e-19 -4.28113e-19 0 4.28113e-19 0 -4.27603e-19 8.56226e-19 -1.28434e-18 8.55716e-19 0 -8.56226e-19 1.71245e-18 -1.71245e-18 8.56226e-19 -8.56226e-19 1.71245e-18 -1.71245e-18 8.56226e-19 -8.55716e-19 8.55716e-19 8.56226e-19 -1.71245e-18 8.56226e-19 -8.55716e-19 1.71194e-18 -1.71245e-18 8.56226e-19 0 0 0 1.5308e-21 0 -5.35779e-20 1.07156e-19 -1.07156