<?xml version="1.0"?>
<VTKFile type="PolyData">
	<PolyData>
		<Piece NumberOfPoints="2601" NumberOfPolys="2500">
			<Points>
				<DataArray type="Float32" NumberOfComponents="3" format="ascii">
 0 0 0 0.431475 0 0 0.301996 0 0 0.401498 0 0 0.403049 0 0 0.430719 0 0 0.451754 0 0 0.469966 0 0 0.488437 0 0 0.502178 0 0 0.516954 0 0 0.52856 0 0 0.541492 0 0 0.551142 0 0 0.562639 0 0 0.570927 0 0 0.580758 0 0 0.587902 0 0 0.595937 0 0 0.602481 0 0 0.609587 0 0 0.61606 0 0 0.622055 0 0 0.627724 0 0 0.633109 0 0 0.638358 0 0 0.643118 0 0 0.647766 0 0 0.652106 0 0 0.656193 0 0 0.660172 0 0 0.663981 0 0 0.66828 0 0 0.674275 0 0 0.684141 0 0 0.700271 0 0 0.720001 0 0 0.74 0 0 0.76 0 0 0.78 0 0 0.8 0 0 0.82 0 0 0.84 0 0 0.86 0 0 0.88 0 0 0.9 0 0 0.92 0 0 0.94 0 0 0.96 0 0 0.98 0 0 1 0 0 0 0.431475 0 0.16763 0.16763 0 0.379465 0.178367 0 0.335659 0.1601 0 0.399982 0.101084 0 0.423444 0.0906955 0 0.446796 0.0805415 0 0.46758 0.0721678 0 0.48382 0.0669027 0 0.500683 0.0612915 0 0.513637 0.0566349 0 0.527872 0.0521367 0 0.53881 0.0483892 0 0.551007 0.0454685 0 0.560039 0.0429716 0 0.570944 0.0408726 0 0.578762 0.0387599 0 0.587654 0.0367589 0 0.594571 0.0348746 0 0.602101 0.0331831 0 0.608779 0.0317398 0 0.615494 0.0304444 0 0.621383 0.0292562 0 0.627237 0.0281461 0 0.632599 0.0270903 0 0.637902 0.0260968 0 0.642699 0.0251719 0 0.647357 0.0243248 0 0.651729 0.0235472 0 0.655844 0.0228317 0 0.659838 0.022164 0 0.663671 0.021531 0 0.668006 0.0209511 0 0.674061 0.020464 0 0.684022 0.0201378 0 0.700255 0.0200151 0 0.720001 0.0200001 0 0.74 0.02 0 0.76 0.02 0 0.78 0.02 0 0.8 0.02 0 0.82 0.02 0 0.84 0.02 0 0.86 0.02 0 0.88 0.02 0 0.9 0.02 0 0.92 0.02 0 0.94 0.02 0 0.96 0.02 0 0.98 0.02 0 1 0.02 0 0 0.301996 0 0.178367 0.379465 0 0.195127 0.195127 0 0.348664 0.243095 0 0.361407 0.201308 0 0.40059 0.171268 0 0.429888 0.153132 0 0.452343 0.142355 0 0.47377 0.129596 0 0.490162 0.120198 0 0.50723 0.110443 0 0.520535 0.102685 0 0.534655 0.0958423 0 0.545175 0.0900364 0 0.557229 0.0854797 0 0.566101 0.0811308 0 0.576466 0.0771143 0 0.584002 0.0731208 0 0.592475 0.0693781 0 0.599552 0.066039 0 0.606994 0.063097 0 0.613387 0.0605239 0 0.619757 0.0582057 0 0.62568 0.056074 0 0.631161 0.0540042 0 0.636501 0.0520525 0 0.641456 0.0502236 0 0.646138 0.0485432 0 0.650613 0.0470042 0 0.654803 0.045584 0 0.658845 0.0442539 0 0.662748 0.042994 0 0.667192 0.0418436 0 0.67343 0.0408846 0 0.68368 0.0402547 0 0.700212 0.0400258 0 0.72 0.0400001 0 0.74 0.04 0 0.76 0.04 0 0.78 0.04 0 0.8 0.04 0 0.82 0.04 0 0.84 0.04 0 0.86 0.04 0 0.88 0.04 0 0.9 0.04 0 0.92 0.04 0 0.94 0.04 0 0.96 0.04 0 0.98 0.04 0 1 0.04 0 0 0.401498 0 0.1601 0.335659 0 0.243095 0.348664 0 0.221885 0.221885 0 0.317065 0.281759 0 0.372316 0.231245 0 0.40393 0.219477 0 0.433318 0.199126 0 0.456225 0.187453 0 0.47814 0.172325 0 0.494986 0.161199 0 0.51234 0.149916 0 0.525495 0.140975 0 0.539273 0.133333 0 0.549616 0.126428 0 0.561511 0.120363 0 0.570287 0.114251 0 0.580161 0.108468 0 0.587916 0.103076 0 0.596349 0.0982044 0 0.603427 0.0939654 0 0.610427 0.0901804 0 0.616969 0.0868461 0 0.623162 0.0836674 0 0.62877 0.0806287 0 0.634229 0.0777456 0 0.63936 0.0750507 0 0.644161 0.0725607 0 0.648774 0.0702883 0 0.653093 0.0681806 0 0.657208 0.0661985 0 0.661231 0.0643236 0 0.665862 0.0626219 0 0.672411 0.0612225 0 0.683151 0.0603336 0 0.700153 0.0600294 0 0.72 0.0600001 0 0.74 0.06 0 0.76 0.06 0 0.78 0.06 0 0.8 0.06 0 0.82 0.06 0 0.84 0.06 0 0.86 0.06 0 0.88 0.06 0 0.9 0.06 0 0.92 0.06 0 0.94 0.06 0 0.96 0.06 0 0.98 0.06 0 1 0.06 0 0 0.403049 0 0.101084 0.399982 0 0.201308 0.361407 0 0.281759 0.317065 0 0.271162 0.271162 0 0.333035 0.305858 0 0.381085 0.256807 0 0.411334 0.253333 0 0.439016 0.232488 0 0.460973 0.221267 0 0.482454 0.205727 0 0.498881 0.194912 0 0.515561 0.183705 0 0.528252 0.174383 0 0.542004 0.165934 0 0.552522 0.157704 0 0.564319 0.149958 0 0.573263 0.142539 0 0.583134 0.135628 0 0.591048 0.12952 0 0.599124 0.124053 0 0.606178 0.11935 0 0.61321 0.114974 0 0.619473 0.110823 0 0.625535 0.106839 0 0.631095 0.103065 0 0.636457 0.099542 0 0.641449 0.0962969 0 0.646238 0.0933212 0 0.650732 0.0905509 0 0.654956 0.087929 0 0.659149 0.0854588 0 0.664051 0.083237 0 0.671052 0.081446 0 0.682497 0.0803648 0 0.700096 0.0800258 0 0.72 0.0800001 0 0.74 0.08 0 0.76 0.08 0 0.78 0.08 0 0.8 0.08 0 0.82 0.08 0 0.84 0.08 0 0.86 0.08 0 0.88 0.08 0 0.9 0.08 0 0.92 0.08 0 0.94 0.08 0 0.96 0.08 0 0.98 0.08 0 1 0.08 0 0 0.430719 0 0.0906955 0.423444 0 0.171268 0.40059 0 0.231245 0.372316 0 0.305858 0.333035 0 0.315704 0.315704 0 0.356546 0.318764 0 0.389921 0.281489 0 0.418615 0.280361 0 0.444397 0.259308 0 0.464986 0.249743 0 0.485616 0.234447 0 0.501313 0.223984 0 0.517727 0.212559 0 0.530541 0.202426 0 0.544434 0.192778 0 0.555121 0.183538 0 0.566856 0.174824 0 0.575909 0.166986 0 0.585349 0.159737 0 0.593221 0.153493 0 0.60129 0.147758 0 0.6082 0.142453 0 0.615004 0.137336 0 0.621343 0.132504 0 0.627221 0.127884 0 0.632791 0.123618 0 0.638043 0.119673 0 0.643024 0.116033 0 0.64774 0.112621 0 0.652119 0.109379 0 0.656543 0.106344 0 0.661807 0.103649 0 0.669419 0.101535 0 0.6818 0.100347 0 0.70005 0.100018 0 0.72 0.1 0 0.74 0.1 0 0.76 0.1 0 0.78 0.1 0 0.8 0.1 0 0.82 0.1 0 0.84 0.1 0 0.86 0.1 0 0.88 0.1 0 0.9 0.1 0 0.92 0.1 0 0.94 0.1 0 0.96 0.1 0 0.98 0.1 0 1 0.1 0 0 0.451754 0 0.0805415 0.446796 0 0.153132 0.429888 0 0.219477 0.40393 0 0.256807 0.381085 0 0.318764 0.356546 0 0.339673 0.339673 0 0.372463 0.334118 0 0.398942 0.303353 0 0.424854 0.303755 0 0.449531 0.281817 0 0.468743 0.273857 0 0.488742 0.258259 0 0.504145 0.247883 0 0.520449 0.235936 0 0.533326 0.225403 0 0.547043 0.215119 0 0.557605 0.205789 0 0.568788 0.196894 0 0.577622 0.189164 0 0.586977 0.181896 0 0.594906 0.175379 0 0.602579 0.16901 0 0.609682 0.163123 0 0.616393 0.157437 0 0.622635 0.152145 0 0.628451 0.147192 0 0.633973 0.14262 0 0.639176 0.138341 0 0.644138 0.134317 0 0.648735 0.130485 0 0.65346 0.126933 0 0.659194 0.123832 0 0.667595 0.121485 0 0.681153 0.120289 0 0.700021 0.12001 0 0.72 0.12 0 0.74 0.12 0 0.76 0.12 0 0.78 0.12 0 0.8 0.12 0 0.82 0.12 0 0.84 0.12 0 0.86 0.12 0 0.88 0.12 0 0.9 0.12 0 0.92 0.12 0 0.94 0.12 0 0.96 0.12 0 0.98 0.12 0 1 0.12 0 0 0.469966 0 0.0721678 0.46758 0 0.142355 0.452343 0 0.199126 0.433318 0 0.253333 0.411334 0 0.281489 0.389921 0 0.334118 0.372463 0 0.358378 0.358378 0 0.385611 0.349442 0 0.408523 0.322743 0 0.431278 0.323831 0 0.45456 0.300445 0 0.472633 0.294056 0 0.492072 0.27804 0 0.507153 0.267901 0 0.523146 0.255724 0 0.535722 0.245461 0 0.548902 0.235022 0 0.559153 0.225989 0 0.570139 0.217117 0 0.57909 0.209399 0 0.588102 0.201697 0 0.596029 0.194747 0 0.60377 0.187973 0 0.610709 0.18167 0 0.617451 0.175749 0 0.623487 0.170206 0 0.629321 0.165031 0 0.634756 0.160158 0 0.639976 0.155556 0 0.644845 0.151192 0 0.649957 0.147192 0 0.656293 0.143775 0 0.665688 0.141312 0 0.680637 0.140207 0 0.700007 0.140004 0 0.72 0.14 0 0.74 0.14 0 0.76 0.14 0 0.78 0.14 0 0.8 0.14 0 0.82 0.14 0 0.84 0.14 0 0.86 0.14 0 0.88 0.14 0 0.9 0.14 0 0.92 0.14 0 0.94 0.14 0 0.96 0.14 0 0.98 0.14 0 1 0.14 0 0 0.488437 0 0.0669027 0.48382 0 0.129596 0.47377 0 0.187453 0.456225 0 0.232488 0.439016 0 0.280361 0.418615 0 0.303353 0.398942 0 0.349442 0.385611 0 0.374337 0.374337 0 0.397789 0.362692 0 0.418846 0.339678 0 0.439218 0.339906 0 0.460448 0.315972 0 0.477471 0.310903 0 0.495964 0.294623 0 0.510466 0.285142 0 0.525749 0.272841 0 0.537776 0.26314 0 0.550591 0.25273 0 0.560786 0.2441 0 0.571377 0.235008 0 0.580199 0.227132 0 0.589222 0.219246 0 0.596974 0.21202 0 0.604612 0.205067 0 0.611596 0.198649 0 0.618072 0.192527 0 0.62414 0.18681 0 0.629878 0.181392 0 0.635318 0.176285 0 0.640508 0.171466 0 0.646094 0.167109 0 0.653209 0.163481 0 0.663849 0.16105 0 0.680292 0.160122 0 0.700002 0.160001 0 0.72 0.16 0 0.74 0.16 0 0.76 0.16 0 0.78 0.16 0 0.8 0.16 0 0.82 0.16 0 0.84 0.16 0 0.86 0.16 0 0.88 0.16 0 0.9 0.16 0 0.92 0.16 0 0.94 0.16 0 0.96 0.16 0 0.98 0.16 0 1 0.16 0 0 0.502178 0 0.0612915 0.500683 0 0.120198 0.490162 0 0.172325 0.47814 0 0.221267 0.460973 0 0.259308 0.444397 0 0.303755 0.424854 0 0.322743 0.408523 0 0.362692 0.397789 0 0.387899 0.387899 0 0.409015 0.374104 0 0.429233 0.354373 0 0.448393 0.352532 0 0.46715 0.329368 0 0.483307 0.32494 0 0.500481 0.308688 0 0.514143 0.300049 0 0.528602 0.287755 0 0.540243 0.278826 0 0.552479 0.26829 0 0.562273 0.259855 0 0.572727 0.25076 0 0.581451 0.242892 0 0.59007 0.234873 0 0.59791 0.22766 0 0.605363 0.220627 0 0.612209 0.214098 0 0.618578 0.207862 0 0.624587 0.202018 0 0.63024 0.196472 0 0.635795 0.191305 0 0.641956 0.186685 0 0.650059 0.182974 0 0.662266 0.180746 0 0.680106 0.180056 0 0.7 0.18 0 0.72 0.18 0 0.74 0.18 0 0.76 0.18 0 0.78 0.18 0 0.8 0.18 0 0.82 0.18 0 0.84 0.18 0 0.86 0.18 0 0.88 0.18 0 0.9 0.18 0 0.92 0.18 0 0.94 0.18 0 0.96 0.18 0 0.98 0.18 0 1 0.18 0 0 0.516954 0 0.0566349 0.513637 0 0.110443 0.50723 0 0.161199 0.494986 0 0.205727 0.482454 0 0.249743 0.464986 0 0.281817 0.449531 0 0.323831 0.431278 0 0.339678 0.418846 0 0.374104 0.409015 0 0.399489 0.399489 0 0.419003 0.384105 0 0.438723 0.367438 0 0.457121 0.362997 0 0.473938 0.341494 0 0.489307 0.33714 0 0.505115 0.321088 0 0.518191 0.31327 0 0.531782 0.30091 0 0.542747 0.292453 0 0.554549 0.281959 0 0.56418 0.273846 0 0.574093 0.264727 0 0.582674 0.256973 0 0.59111 0.249041 0 0.59874 0.241823 0 0.606021 0.234819 0 0.612657 0.228268 0 0.618925 0.222032 0 0.624807 0.216154 0 0.630799 0.210708 0 0.637676 0.205944 0 0.646998 0.202311 0 0.661109 0.200452 0 0.680029 0.200019 0 0.7 0.2 0 0.72 0.2 0 0.74 0.2 0 0.76 0.2 0 0.78 0.2 0 0.8 0.2 0 0.82 0.2 0 0.84 0.2 0 0.86 0.2 0 0.88 0.2 0 0.9 0.2 0 0.92 0.2 0 0.94 0.2 0 0.96 0.2 0 0.98 0.2 0 1 0.2 0 0 0.52856 0 0.0521367 0.527872 0 0.102685 0.520535 0 0.149916 0.51234 0 0.194912 0.498881 0 0.234447 0.485616 0 0.273857 0.468743 0 0.300445 0.45456 0 0.339906 0.439218 0 0.354373 0.429233 0 0.384105 0.419003 0 0.409338 0.409338 0 0.428083 0.39322 0 0.446753 0.379066 0 0.46478 0.372357 0 0.480072 0.352684 0 0.494872 0.348146 0 0.509514 0.332406 0 0
[...]
			<PointData Scalars="VitesseX">
				<DataArray Name="VitesseX" type="Float32" format="ascii">
 0 1.77461 0.523375 1.20573 1.1022 1.18116 1.21218 1.26137 1.29628 1.34464 1.35621 1.39298 1.46524 1.52514 1.52415 1.54741 1.62611 1.66 1.72053 1.71954 1.70883 1.77176 1.85179 1.79299 1.84132 1.85168 1.87743 1.92879 1.94377 1.95857 1.98145 1.95979 1.8328 1.5003 0.847058 0.112417 0.000514348 1.06287e-08 1.18911e-12 -1.06871e-12 1.05867e-12 -3.61686e-12 3.62103e-12 1.42264e-14 -1.42239e-14 -3.62103e-12 3.60681e-12 -3.60681e-12 3.62103e-12 1.42838e-14 0 0 0.160272 1.35049 0.677935 1.08347 1.09813 1.21526 1.22775 1.27823 1.35091 1.34905 1.38912 1.47672 1.51929 1.52369 1.55663 1.61178 1.6795 1.69761 1.71597 1.71342 1.78912 1.82041 1.8072 1.83412 1.85597 1.87479 1.92975 1.94199 1.95635 1.98112 1.95794 1.82833 1.49136 0.832884 0.106692 0.000461876 9.52727e-09 1.18489e-12 -1.0738e-12 1.06269e-12 -3.61791e-12 3.61748e-12 1.41998e-14 -1.06577e-14 -3.62102e-12 3.61395e-12 -3.61395e-12 3.62104e-12 1.07196e-14 0 0 0.771406 0.261448 1.18202 0.867794 1.0225 1.11475 1.19726 1.25039 1.31935 1.34647 1.38847 1.46281 1.5193 1.51658 1.53884 1.61782 1.66075 1.68888 1.68668 1.74463 1.78621 1.77234 1.82963 1.82574 1.86087 1.87196 1.92618 1.93884 1.9505 1.97989 1.95228 1.81493 1.46439 0.790067 0.0908678 0.000333339 6.8827e-09 -1.19636e-12 1.28336e-12 -1.28404e-12 -1.80939e-12 3.61751e-12 -1.80346e-12 -6.94704e-15 1.00823e-14 -2.75759e-14 2.76069e-14 -1.00946e-14 6.99031e-15 0 0 0.670094 0.800877 0.319608 0.79769 0.944878 1.05273 1.11821 1.21344 1.28913 1.31066 1.37449 1.45101 1.4921 1.50225 1.53733 1.59161 1.65551 1.6544 1.69931 1.74988 1.76066 1.74846 1.83509 1.82108 1.86268 1.87233 1.91191 1.93516 1.94362 1.97668 1.94231 1.79238 1.41903 0.718054 0.068673 0.000191456 4.02312e-09 5.36879e-12 5.49218e-15 -6.78545e-15 -1.81058e-12 1.80976e-12 -2.73568e-15 2.09794e-16 -5.30832e-12 5.29421e-12 -5.29415e-12 5.30469e-12 7.02909e-15 0 0 0.268994 0.60073 0.835683 0.671317 0.889142 0.99723 1.08893 1.16084 1.24426 1.28342 1.34403 1.41443 1.45687 1.47232 1.5158 1.57538 1.60621 1.65432 1.6965 1.73042 1.72266 1.76661 1.80167 1.82399 1.85721 1.87559 1.89121 1.92787 1.93835 1.96988 1.92661 1.75955 1.35447 0.617347 0.0452022 8.61209e-05 1.91235e-09 5.34477e-12 3.73146e-15 -9.22634e-16 -1.80974e-12 -1.00268e-15 1.80798e-12 -3.29675e-15 -5.31138e-12 5.30444e-12 -7.11497e-12 7.12189e-12 7.11033e-15 0 0 0.240228 0.460248 0.574721 0.877858 0.967134 0.990166 1.02475 1.13513 1.18257 1.24728 1.32072 1.36891 1.41861 1.45081 1.49355 1.53642 1.59359 1.64218 1.69472 1.66717 1.72471 1.77249 1.76862 1.82628 1.84398 1.87811 1.87442 1.91422 1.93497 1.95838 1.90301 1.71319 1.2685 0.492162 0.0252587 2.96732e-05 7.38415e-10 -1.8206e-12 1.83467e-12 -1.81144e-12 -1.99432e-14 1.83105e-12 -1.8275e-12 1.03508e-14 1.81748e-12 -1.82797e-12 1.82087e-12 -1.80758e-12 4.32649e-15 0 0 0.210323 0.385193 0.588506 0.607336 0.837331 0.9992 1.03991 1.06791 1.14551 1.20782 1.28292 1.34413 1.38072 1.42421 1.46445 1.51978 1.57845 1.64126 1.63693 1.65535 1.72315 1.74994 1.76209 1.81593 1.82927 1.87528 1.86739 1.89724 1.93076 1.94251 1.86976 1.64768 1.15527 0.353715 0.0116107 7.6204e-06 2.10942e-10 1.23632e-11 -1.78978e-12 -2.06806e-14 1.81385e-12 -1.05521e-11 1.05522e-11 -1.06054e-14 -1.78319e-12 -3.7493e-14 1.84136e-12 -1.81773e-12 1.44975e-14 0 0 0.17255 0.375136 0.501665 0.669889 0.670426 0.869221 1.02528 1.081 1.086 1.18081 1.23678 1.29741 1.35446 1.38374 1.43497 1.50398 1.56355 1.58311 1.6071 1.65661 1.70659 1.71271 1.77812 1.77789 1.82759 1.85753 1.87238 1.88104 1.92252 1.92175 1.82639 1.55754 1.00419 0.220966 0.00423338 1.42482e-06 3.95625e-11 1.23904e-11 -1.79993e-12 1.80335e-12 -1.05452e-11 -2.05367e-14 1.0552e-11 -7.18273e-15 -1.23385e-11 1.23181e-11 -1.23177e-11 1.23176e-11 6.54615e-14 0 0 0.163154 0.342028 0.48834 0.602548 0.748476 0.752113 0.926412 1.06949 1.10874 1.1462 1.20108 1.26756 1.30598 1.36819 1.41352 1.48008 1.51401 1.54171 1.59433 1.65865 1.65371 1.71854 1.75863 1.75001 1.8177 1.83755 1.87534 1.87393 1.91109 1.89217 1.76924 1.44126 0.806032 0.114878 0.00117377 1.9727e-07 2.15726e-11 -1.23618e-11 1.05588e-11 3.60343e-12 -1.2352e-11 -8.91221e-17 -1.82773e-12 1.23798e-11 -1.05798e-11 1.23592e-11 -2.46939e-11 2.4694e-11 -1.23112e-11 0 0 0.153736 0.326624 0.459657 0.581618 0.682452 0.811461 0.827589 0.989669 1.09577 1.13338 1.18469 1.2485 1.27798 1.34458 1.40973 1.43618 1.47514 1.5305 1.59996 1.60681 1.64481 1.70834 1.72718 1.74207 1.79289 1.82572 1.86545 1.87789 1.89742 1.85013 1.68776 1.29621 0.569802 0.0473877 0.000234733 2.30414e-08 1.36803e-11 -1.23343e-11 1.05105e-11 -1.05346e-11 2.75158e-14 -2.43336e-14 2.44612e-14 -3.67643e-15 1.23613e-11 -1.2382e-11 2.45356e-14 2.02829e-17 -5.16577e-17 0 0 0.145524 0.292479 0.434473 0.535569 0.668354 0.752411 0.897818 0.926348 1.03476 1.12167 1.16389 1.22511 1.29084 1.33609 1.36858 1.42131 1.47698 1.53668 1.5631 1.58649 1.64203 1.68553 1.69962 1.74924 1.76487 1.82138 1.84681 1.88042 1.87653 1.79942 1.5738 1.1056 0.334971 0.0147624 3.16267e-05 2.69002e-09 -1.22105e-11 4.50446e-14 1.23178e-11 -2.46768e-11 1.23623e-11 1.23145e-11 -1.23144e-11 2.44877e-14 -1.62374e-15 2.13134e-16 1.22914e-11 -2.46769e-11 2.47258e-11 0 0 0.13174 0.285756 0.397943 0.539172 0.629815 0.766781 0.811605 0.958544 0.987445 1.0768 1.17519 1.17136 1.28299 1.33927 1.35529 1.42112 1.49051 1.51466 1.52757 1.59031 1.63998 1.64131 1.71129 1.72961 1.76717 1.80515 1.83616 1.87349 1.84499 1.73153 1.43126 0.847386 0.154015 0.00328985 2.67856e-06 2.71416e-10 3.86676e-14 -6.52128e-14 6.54565e-14 2.26526e-14 -2.34889e-14 1.23393e-11 -1.23798e-11 6.58928e-14 -1.64757e-15 -6.07486e-16 1.22919e-11 -1.23795e-11 6.55837e-14 0 0 0.132245 0.267534 0.402226 0.503508 0.639834 0.70634 0.843071 0.858865 1.00678 1.03627 1.10196 1.20634 1.2591 1.31708 1.37593 1.42412 1.46408 1.48712 1.52734 1.59107 1.59657 1.64691 1.69434 1.71888 1.77135 1.78551 1.83091 1.85236 1.79882 1.62671 1.25126 0.540745 0.052158 0.00048685 1.47301e-07 7.35123e-12 -2.09849e-11 3.32772e-11 -1.22731e-11 1.23372e-11 -1.23376e-11 -2.10034e-11 3.33255e-11 -1.23213e-11 1.23371e-11 -1.2338e-11 -2.10037e-11 3.33017e-11 -2.46776e-11 0 0 0.126401 0.26141 0.379497 0.49692 0.597218 0.713199 0.766423 0.903372 0.891374 1.04247 1.09292 1.16935 1.26433 1.25941 1.36424 1.43999 1.44971 1.46738 1.53414 1.5576 1.58429 1.64472 1.67436 1.71466 1.76484 1.77168 1.82802 1.81222 1.73283 1.48293 0.99385 0.264719 0.0122649 4.31689e-05 7.47151e-09 1.34456e-11 -3.33257e-11 3.33016e-11 -1.22731e-11 -4.823e-14 1.23698e-11 -3.33254e-11 3.33012e-11 6.56342e-14 -1.24113e-11 1.41636e-14 -2.09487e-11 -2.22279e-14 2.10087e-11 0 0 0.121503 0.247918 0.362598 0.470692 0.579515 0.669026 0.766644 0.820043 0.960875 0.947399 1.08231 1.14369 1.17315 1.28076 1.32483 1.34491 1.42292 1.47081 1.51348 1.53639 1.60045 1.63078 1.65495 1.7269 1.72891 1.78278 1.80028 1.76772 1.62011 1.2994 0.650354 0.0921528 0.00186349 2.07539e-06 4.14287e-10 -3.28317e-15 4.12333e-14 -4.11506e-14 6.5509e-14 -8.97721e-14 1.24109e-11 -7.31833e-17 -1.23867e-11 6.3938e-14 7.23954e-16 -9.94618e-14 -2.08829e-11 -2.11742e-15 3.33276e-11 0 0 0.119487 0.235663 0.355177 0.452547 0.559896 0.64398 0.731859 0.828796 0.879657 0.995803 0.978437 1.12115 1.19291 1.22004 1.30641 1.3366 1.3867 1.45468 1.47697 1.5372 1.58059 1.60776 1.66844 1.68932 1.73083 1.76881 1.7641 1.69027 1.46794 1.02381 0.315447 0.021323 0.000162013 6.04543e-08 3.85808e-12 2.09738e-14 -8.97501e-14 6.56578e-14 2.42189e-14 1.22723e-11 -3.3277e-11 3.33247e-11 -1.23862e-11 6.38031e-14 -2.10027e-11 3.32599e-11 -3.33015e-11 3.33877e-11 -6.11962e-14 0 0 0.11576 0.233223 0.342257 0.443637 0.528966 0.62988 0.716516 0.805331 0.872476 0.910118 1.04812 1.03679 1.17454 1.18453 1.24684 1.3379 1.3531 1.38485 1.46598 1.5253 1.55932 1.60772 1.65136 1.67122 1.72014 1.7404 1.70497 1.56444 1.26419 0.642364 0.103701 0.00300055 7.03309e-06 1.96763e-09 4.79838e-13 -2.09864e-11 3.32353e-11 1.067e-13 -2.47013e-11 2.46596e-11 -3.3281e-11 -2.10478e-14 3.33222e-11 -6.15926e-14 -3.32372e-11 3.31959e-11 1.27311e-13 -3.3387e-11 3.33894e-11 0 0 0.114217 0.22279 0.330726 0.418938 0.51365 0.608596 0.70758 0.766655 0.837882 0.924364 0.978006 1.08411 1.07311 1.1533 1.25556 1.28063 1.33087 1.35531 1.42251 1.49028 1.54501 1.60145 1.61234 1.66309 1.70005 1.68494 1.61005 1.38866 0.942822 0.282548 0.0211235 0.000227008 1.46967e-07 4.77947e-11 2.4676e-11 -3.33427e-11 3.3325e-11 -3.32848e-11 2.09631e-11 1.22733e-11 4.43199e-14 -3.33214e-11 6.10294e-14 3.3261e-11 1.47808e-15 -2.70373e-15 -3.32598e-11 5.44685e-15 -3.42048e-15 0 0 0.107176 0.209911 0.307712 0.402563 0.498232 0.595594 0.670264 0.741094 0.818084 0.907583 0.968777 0.993876 1.09502 1.10549 1.18788 1.27135 1.30713 1.38397 1.39261 1.45144 1.53731 1.55321 1.60291 1.64513 1.64929 1.61421 1.44925 1.14205 0.520299 0.0775062 0.0024668 7.37397e-06 3.03808e-09 1.34834e-11 1.23617e-11 -1.69436e-14 -3.33259e-11 -1.54798e-16 3.33258e-11 -3.33493e-11 -4.08835e-14 3.33254e-11 -3.31987e-11 1.20602e-16 3.32606e-11 -3.32616e-11 4.9978e-15 3.5786e-16 -3.3045e-15 0 0 0.0969321 0.196707 0.296062 0.393333 0.482732 0.561886 0.640762 0.730577 0.811597 0.871835 0.922698 0.994849 1.03885 1.1299 1.13312 1.21044 1.3048 1.36669 1.38069 1.44267 1.4801 1.54167 1.59101 1.60622 1.58532 1.47782 1.24507 0.744544 0.180621 0.0126412 0.000126954 1.09349e-07 6.49403e-11 1.23034e-11 -3.33014e-11 3.32192e-11 -3.32604e-11 3.326e-11 -3.32599e-11 -6.54783e-14 6.59506e-14 3.31945e-11 -3.31326e-11 -7.88739e-17 3.31946e-11 -3.31945e-11 3.50419e-15 -4.74025e-15 3.33282e-11 0 0 0.0929429 0.193671 0.292114 0.37577 0.452931 0.5372 0.636011 0.717166 0.781809 0.834032 0.914632 0.975626 1.02732 1.05843 1.15321 1.20172 1.2389 1.32487 1.40379 1.41518 1.46304 1.53154 1.56217 1.55368 1.4817 1.27945 0.914591 0.307681 0.0387329 0.000899542 2.76105e-06 1.55016e-09 1.32118e-11 -6.17189e-14 -3.32389e-11 -1.2771e-13 6.53596e-14 3.32603e-11 -3.33253e-11 3.3325e-11 -3.32596e-11 3.31948e-11 -3.31333e-11 3.31954e-11 -4.61435e-16 -3.31944e-11 -6.271e-14 3.33879e-11 -6.09857e-14 0 0 0.0972775 0.190556 0.276978 0.357234 0.443021 0.539525 0.618229 0.688494 0.75203 0.833774 0.885929 0.943963 0.985506 1.073 1.105 1.18367 1.24205 1.28744 1.34038 1.40445 1.43019 1.47945 1.50482 1.45977 1.29358 1.01884 0.42314 0.0827876 0.00338064 3.14474e-05 2.12936e-08 -9.65986e-12 3.33158e-11 -1.03082e-13 -3.31978e-11 -1.28174e-13 6.60569e-14 -2.84939e-16 3.33222e-11 -3.33221e-11 -2.6606e-16 3.32606e-11 -3.31985e-11 3.3196e-11 -3.31954e-11 -6.26671e-14 3.33262e-11 -3.33255e-11 3.33893e-11 0 0 0.0918955 0.175811 0.263765 0.353247 0.440915 0.517984 0.59593 0.673941 0.753847 0.801912 0.859682 0.910485 0.995551 1.02671 1.09695 1.14862 1.22741 1.26596 1.29975 1.38765 1.39962 1.41473 1.39196 1.27333 1.05419 0.515745 0.133922 0.00824762 0.000177243 2.05598e-07 2.92898e-10 2.60164e-13 -1.09034e-15 3.32647e-11 -3.33909e-11 3.33252e-11 -3.32602e-11 4.08029e-17 3.33221e-11 -3.33872e-11 3.33904e-11 -3.33253e-11 3.41625e-16 3.33232e-11 -3.33883e-11 3.33906e-11 -3.33263e-11 6.71057e-14 -3.48128e-15 0 0 0.0857472 0.172923 0.262195 0.345881 0.420722 0.501697 0.586744 0.663756 0.719532 0.782335 0.838542 0.911872 0.946363 1.02433 1.06368 1.15142 1.173 1.23766 1.3078 1.32537 1.37085 1.31445 1.21585 1.02642 0.564909 0.174299 0.0153527 0.00054875 1.20562e-06 2.45619e-09 -3.15663e-11 3.33229e-11 -3.33229e-11 8.2983e-16 3.33229e-11 -3.33233e-11 6.17835e-14 3.31987e-11 -3.33255e-11 3.33879e-11 -3.33226e-11 6.20731e-14 3.3198e-11 -3.3325e-11 3.33875e-11 -3.33224e-11 6.5164e-14 6.63387e-16 -3.13357e-15 0 0 0.0844664 0.167443 0.24991 0.33227 0.414978 0.49225 0.56285 0.628822 0.700966 0.762837 0.824192 0.870052 0.94888 0.994236 1.06615 1.08395 1.18355 1.21362 1.24763 1.28663 1.24457 1.16997 0.970615 0.562583 0.190108 0.0219912 0.0010625 4.55759e-06 1.07386e-08 4.355e-11 2.35751e-14 -3.33903e-11 3.33251e-11 -3.31974e-11 3.32604e-11 -3.33231e-11 6.21928e-14 3.31327e-11 -3.31317e-11 3.32594e-11 -3.33226e-11 6.25036e-14 3.31322e-11 -3.31313e-11 3.32588e-11 -3.33218e-11 6.56358e-14 -1.31609e-13 3.3455e-11 0 0 0.0813759 0.163334 0.244369 0.32413 0.400283 0.474605 0.549436 0.623346 0.685295 0.743903 0.80075 0.87125 0.919563 0.980758 1.01656 1.10882 1.11977 1.1951 1.18254 1.15806 1.07815 0.900408 0.518373 0.18283 0.0244947 0.00141632 1.03317e-05 2.93539e-08 4.12406e-11 4.45486e-14 -3.73006e-16 -6.66506e-11 6.65853e-11 1.28116e-13 -1.27925e-13 6.54988e-14 -6.66513e-11 6.65859e-11 1.28094e-13 -1.28214e-13 6.55163e-14 -6.66512e-11 6.65858e-11 1.28383e-13 -1.28423e-13 6.58557e-14 -6.66517e-11 6.65862e-11 -3.32608e-11 0 0 0.0790241 0.157788 0.236393 0.313916 0.390622 0.465461 0.536619 0.60284 0.668582 0.730491 0.790824 0.839821 0.900964 0.953412 1.02458 1.04282 1.11086 1.07783 1.08747 0.960095 0.799136 0.42708 0.157743 0.0211875 0.00140866 1.38482e-05 4.78094e-08 9.88371e-11 3.36039e-11 4.52962e-16 -3.33264e-11 6.69346e-14 -6.69183e-14 3.3326e-11 1.45032e-16 -3.33261e-11 6.68732e-14 -6.67909e-14 3.33258e-11 3.54862e-16 -3.33262e-11 6.68541e-14 -6.66122e-14 3.3326e-11 6.10183e-14 -3.33872e-11 -4.38911e-16 -1.00013e-15 8.61398e-16 0 0 0.0776854 0.15475 0.230104 0.303585 0.376051 0.448814 0.521644 0.591729 0.653951 0.712756 0.770162 0.832031 0.88733 0.938934 0.966227 1.00983 0.982878 0.97497 0.836143 0.675562 0.316229 0.117026 0.0142241 0.00105007 1.02943e-05 4.77303e-08 1.38301e-10 4.50633e-13 -6.62239e-14 -6.29334e-17 6.63057e-14 -8.42472e-17 -3.84974e-15 -6.24065e-14 -4.07996e-16 6.67696e-14 -7.28605e-17 -5.65123e-16 -6.62157e-14 2.09431e-16 6.66651e-14 -9.37276e-17 -3.97747e-15 3.31327e-11 -3.31339e-11 -1.27857e-13 3.32598e-11 -6.65211e-11 3.33206e-11 0 0 0.0754041 0.14968 0.22316 0.296211 0.368459 0.439112 0.507218 0.572243 0.636379 0.697238 0.757989 0.80882 0.852338 0.882768 0.901045 0.87593 0.840085 0.697483 0.504124 0.214232 0.0716657 0.00744709 0.000541639 4.52036e-06 2.91718e-08 9.86269e-11 4.48059e-13 8.85691e-16 -6.58849e-14 3.83338e-17 6.66128e-14 -6.67056e-14 3.33232e-11 -3.33887e-11 6.51345e-14 6.67069e-14 -3.14115e-17 -6.06463e-16 -1.31715e-13 6.59175e-14 6.63068e-14 -3.93954e-15 -3.4155e-16 3.31328e-11 -6.65212e-11 6.65194e-11 -3.33262e-11 -3.31943e-11 3.33199e-11 0 0 0.0730903 0.145496 0.217017 0.288255 0.359452 0.43005 0.49762 0.562012 0.621221 0.673343 0.720214 0.759916 0.782232 0.782471 0.750844 0.682773 0.522823 0.324999 0.124854 0.0332479 0.00307117 0.000175172 1.18894e-06 1.07437e-08 4.07731e-11 -3.30483e-11 6.66605e-14 -6.71245e-14 3.33269e-11 -6.56274e-14 -3.31988e-11 3.31989e-11 -3.33254e-11 3.33248e-11 6.54217e-14 -3.33258e-11 6.64303e-14 -6.64915e-14 3.32607e-11 -3.33613e-11 1.60589e-13 3.29662e-11 -3.29667e-11 -5.98097e-14 -4.22949e-16 -6.73324e-14 -3.32597e-11 3.32601e-11 6.663e-14 0 0 0.071653 0.142922 0.213509 0.283078 0.351055 0.416725 0.478582 0.535108 0.584556 0.625023 0.652602 0.660804 0.648036 0.597673 0.491452 0.330375 0.172043 0.0557842 0.0109792 0.000839846 3.10757e-05 2.01417e-07 2.3726e-09 4.35099e-11 4.4396e-14 -3.83541e-16 -6.66519e-11 6.66519e-11 -6.4994e-14 6.0619e-14 -3.32594e-11 3.31332e-11 -3.31323e-11 3.31975e-11 -3.326e-11 3.326e-11 -3.32007e-11 3.32006e-11 -3.32601e-11 -4.16886e-14 -8.40513e-11 1.17113e-10 -3.29613e-11 -5.9439e-14 -6.02299e-16 -3.3328e-11 3.32618e-11 3.31945e-11 -6.64544e-11 0 0 0.0688735 0.136928 0.20341 0.267589 0.32867 0.385893 0.437819 0.481293 0.511795 0.526597 0.521271 0.48417 0.402306 0.287053 0.163796 0.0670531 0.0164095 0.00221742 0.000121564 2.72199e-06 2.06911e-08 2.89822e-10 3.5038e-11 2.42573e-14 6.69523e-16 -3.33267e-11 6.65775e-14 -6.61928e-14 3.33221e-11 -3.32609e-11 -6.20903e-14 3.32612e-11 -3.3198e-11 3.31981e-11 -3.32599e-11 3.32598e-11 -3.32005e-11 3.32005e-11 -3.33264e-11 8.82114e-14 -8.42415e-11 8.41737e-11 4.41297e-14 -3.33435e-16 -3.33257e-11 3.33252e-11 -6.58018e-14 -6.5009e-14 1.31685e-13 0 0 0.0623059 0.123246 0.18149 0.235617 0.284043 0.325112 0.357056 0.376288 0.37537 0.345065 0.284615 0.205758 0.123613 0.0544057 0.015552 0.00254935 0.00021238 7.16294e-06 1.06396e-07 1.52977e-09 -1.01503e-11 2.597e-13 3.31982e-11 -3.32592e-11 -8.40359e-17 6.55689e-14 -8.42472e-17 -6.58454e-14 3.3322e-11 -3.33872e-11 3.33896e-11 -3.33252e-11 8.3138e-16 3.33257e-11 -6.57271e-14 -3.32599e-11 -5.95588e-16 -2.16464e-16 3.32595e-11 -6.66227e-11 6.64907e-11 -6.65554e-11 3.34193e-11 -5.84888e-14 1.20394e-15 6.54011e-14 -6.66485e-14 -3.32599e-11 3.33192e-11 0 0 0.0486195 0.0951699 0.137586 0.17361 0.200341 0.214099 0.211469 0.191905 0.158646 0.115918 0.069043 0.0300376 0.00868638 0.00154362 0.000148079 6.74739e-06 1.41083e-07 2.93703e-09 6.31915e-11 1.31842e-11 -3.32877e-11 2.48655e-16 3.31986e-11 -3.33248e-11 6.53918e-14 6.54264e-14 -3.89202e-15 3.31984e-11 -3.33252e-11 3.33874e-11 -3.33227e-11 -4.07427e-16 3.33255e-11 -3.33251e-11 3.32603e-11 -6.65859e-11 6.65194e-11 -3.31951e-11 1.30548e-16 6.4685e-14 -1.9738e-13 -3.31934e-11 3.32521e-11 7.9235e-15 4.7713e-17 6.60629e-14 -6.63547e-14 -3.32608e-11 3.33203e-11 0 0 0.0245314 0.0464069 0.063335 0.0737111 0.0767338 0.0720888 0.0598005 0.0415296 0.0224596 0.00881615 0.00236781 0.000402943 3.91103e-05 1.95886e-06 5.66424e-08 1.85056e-09 4.55092e-11 1.34296e-11 1.24739e-11 -1.91713e-13 1.50858e-13 -3.33875e-11 5.77217e-16 3.33229e-11 3.39192e-15 -3.33269e-11 6.31599e-14 3.31321e-11 -3.31939e-11 3.33219e-11 -3.33224e-11 3.33257e-11 -3.33268e-11 6.72641e-14 -6.67361e-14 6.50054e-14 -1.9852e-13 1.3179e-13 1.45296e-15 6.30954e-14 -1.30457e-13 -6.49619e-14 6.46274e-14 -3.32598e-11 3.33263e-11 -8.46582e-15 -3.33172e-11 3.31936e-11 1.33018e-13 0 0 0.00530384 0.00938603 0.0113108 0.0107421 0.00819312 0.00492414 0.00225435 0.000755396 0.000175924 2.65252e-05 2.39807e-06 1.33186e-07 6.65177e-09 4.07608e-10 2.90283e-12 4.81724e-13 -4.88844e-14 1.2362e-11 -3.33017e-11 3.32813e-11 -3.33224e-11 3.32605e-11 -3.31975e-11 3.32602e-11 3.29113e-15 -9.07755e-16 -6.66518e-11 6.65863e-11 6.56711e-14 -3.33904e-11 3.33906e-11 -6.55988e-14 -3.32602e-11 6.60665e-14 4.59932e-19 -1.60453e-15 -6.70173e-14 -3.33268e-11 3.33276e-11 -6.60089e-14 -9.15299e-17 -6.54543e-14 -3.31954e-11 3.33269e-11 -1.6518e-13 1.56253e-13 -3.34178e-11 6.65557e-11 -6.64546e-11 0 0 5.21549e-05 7.56721e-05 6.55559e-05 3.94151e-05 1.69041e-05 5.12086e-06 1.07132e-06 1.5602e-07 1.82182e-08 2.16004e-09 2.34168e-10 2.9936e-11 -1.13975e-11 1.21342e-13 -1.45855e-14 -2.09865e-11 3.32593e-11 6.52215e-14 -3.34318e-11 1.26975e-13 -1.27439e-13 3.33258e-11 -3.31976e-11 3.31981e-11 6.57115e-14 -3.33268e-11 6.641e-14 -6.64311e-14 3.33262e-11 -3.33906e-11 3.33906e-11 -3.3391e-11 6.51508e-14 6.4589e-14 1.60453e-15 -6.75132e-14 -8.20218e-15 -5.98247e-14 -3.32598e-11 3.32609e-11 -3.32608e-11 3.31958e-11 1.28694e-16 1.3122e-13 -1.66275e-13 -8.3986e-11 8.405e-11 3.61594e-14 6.7011e-14 0 0 1.10144e-09 1.54424e-09 1.3022e-09 8.086e-10 3.75997e-10 1.26735e-10 4.45825e-11 -1.8337e-12 1.32842e-11 -1.21523e-11 -4.8517e-17 -2.09846e-11 3.32768e-11 -2.46349e-11 2.4635e-11 -3.33185e-11 3.33247e-11 -3.33253e-11 3.32603e-11 -6.65863e-11 6.6586e-11 -3.32605e-11 6.22883e-14 -6.11632e-14 -2.90811e-17 6.55498e-14 -7.28605e-17 3.04914e-17 -6.62855e-14 3.33205e-11 -3.33204e-11 2.64546e-16 -1.32212e-13 1.94968e-13 -6.38817e-14 -9.12062e-15 -3.33253e-11 3.32573e-11 9.35981e-15 -3.32607e-11 6.17683e-16 3.3159e-11 3.33613e-11 -6.6556e-11 3.33256e-11 -8.41811e-11 1.17246e-10 -6.63545e-11 3.33189e-11 0 0 8.36436e-15 -1.26518e-12 -5.29676e-12 5.3107e-12 -1.80733e-12 -8.74888e-12 8.71432e-12 -8.70766e-12 1.22935e-11 -2.4673e-11 2.46595e-11 -3.33253e-11 3.33011e-11 -2.4635e-11 2.46109e-11 7.17372e-14 -3.33673e-11 4.96613e-16 3.32601e-11 -3.32601e-11 -2.87609e-17 -3.37935e-16 3.33227e-11 -3.33871e-11 6.55954e-14 6.54675e-14 -7.10844e-16 6.68584e-16 -6.6347e-14 3.33205e-11 -3.33203e-11 -7.52132e-16 3.31939e-11 -6.65222e-11 3.33263e-11 -7.35131e-14 -3.32608e-11 3.32584e-11 9.5795e-15 -3.32599e-11 3.31962e-11 2.83498e-14 -8.40513e-11 8.41167e-11 -3.33258e-11 6.65573e-11 -3.34908e-11 -3.30298e-11 3.33189e-11 0 0 -9.44818e-16 -1.27997e-12 5.32042e-15 -1.71614e-14 -1.8139e-12 1.81702e-12 -1.83447e-12 -1.05524e-11 1.41174e-11 -1.23103e-11 