<?xml version="1.0"?>
<VTKFile type="PolyData">
	<PolyData>
		<Piece NumberOfPoints="2601" NumberOfPolys="2500">
			<Points>
				<DataArray type="Float32" NumberOfComponents="3" format="ascii">
 0 0 0 0.488131 0 0 0.311686 0 0 0.439323 0 0 0.436488 0 0 0.46746 0 0 0.489112 0 0 0.509466 0 0 0.528655 0 0 0.543409 0 0 0.559528 0 0 0.57138 0 0 0.585398 0 0 0.596532 0 0 0.608896 0 0 0.618357 0 0 0.629535 0 0 0.637607 0 0 0.647091 0 0 0.654228 0 0 0.66254 0 0 0.66946 0 0 0.676801 0 0 0.683093 0 0 0.68913 0 0 0.694917 0 0 0.700484 0 0 0.705757 0 0 0.710677 0 0 0.715469 0 0 0.720035 0 0 0.724389 0 0 0.728598 0 0 0.732618 0 0 0.736417 0 0 0.740225 0 0 0.744814 0 0 0.751562 0 0 0.762742 0 0 0.78011 0 0 0.8 0 0 0.82 0 0 0.84 0 0 0.86 0 0 0.88 0 0 0.9 0 0 0.92 0 0 0.94 0 0 0.96 0 0 0.98 0 0 1 0 0 0 0.488131 0 0.173589 0.173589 0 0.42978 0.200668 0 0.358742 0.174387 0 0.434003 0.11053 0 0.457953 0.0987 0 0.484094 0.0878486 0 0.505919 0.0782503 0 0.523606 0.0726709 0 0.541754 0.0665961 0 0.555461 0.0615226 0 0.570885 0.0564688 0 0.582801 0.0524459 0 0.596265 0.0490797 0 0.606626 0.0464195 0 0.618462 0.0441495 0 0.627334 0.0419211 0 0.637746 0.0398907 0 0.645281 0.0379042 0 0.654109 0.036122 0 0.661287 0.0345325 0 0.669171 0.0331617 0 0.675984 0.0319592 0 0.682631 0.030797 0 0.688514 0.0296757 0 0.694484 0.0286058 0 0.699966 0.0275921 0 0.705327 0.0266513 0 0.710274 0.0257969 0 0.715098 0.0250251 0 0.719683 0.024315 0 0.724059 0.0236431 0 0.728283 0.0229974 0 0.732316 0.0223742 0 0.73613 0.0217765 0 0.739962 0.0212174 0 0.744587 0.0207217 0 0.751393 0.0203256 0 0.762662 0.0200843 0 0.780104 0.0200063 0 0.8 0.02 0 0.82 0.02 0 0.84 0.02 0 0.86 0.02 0 0.88 0.02 0 0.9 0.02 0 0.92 0.02 0 0.94 0.02 0 0.96 0.02 0 0.98 0.02 0 1 0.02 0 0 0.311686 0 0.200668 0.42978 0 0.201792 0.201792 0 0.382785 0.268288 0 0.386868 0.219813 0 0.432116 0.18667 0 0.463647 0.166117 0 0.488905 0.155073 0 0.511679 0.140874 0 0.529835 0.13086 0 0.548658 0.120174 0 0.562798 0.111629 0 0.57849 0.103764 0 0.590495 0.0975961 0 0.603507 0.0924051 0 0.61349 0.0877321 0 0.625059 0.0835449 0 0.633549 0.0792981 0 0.643403 0.0754316 0 0.650904 0.0718513 0 0.659616 0.0687449 0 0.666844 0.0660653 0 0.674296 0.0636092 0 0.68067 0.0613095 0 0.687094 0.059108 0 0.692982 0.0570208 0 0.69858 0.0550143 0 0.703995 0.0531705 0 0.709109 0.0514859 0 0.713978 0.0499614 0 0.718648 0.0485503 0 0.723066 0.047208 0 0.727345 0.0459162 0 0.731422 0.0446731 0 0.735275 0.0434846 0 0.73918 0.0423773 0 0.743914 0.041399 0 0.750897 0.0406218 0 0.762432 0.0401563 0 0.780086 0.0400107 0 0.8 0.04 0 0.82 0.04 0 0.84 0.04 0 0.86 0.04 0 0.88 0.04 0 0.9 0.04 0 0.92 0.04 0 0.94 0.04 0 0.96 0.04 0 0.98 0.04 0 1 0.04 0 0 0.439323 0 0.174387 0.358742 0 0.268288 0.382785 0 0.230988 0.230988 0 0.341336 0.306923 0 0.399775 0.25049 0 0.435405 0.238463 0 0.467205 0.21543 0 0.492805 0.203377 0 0.516708 0.186802 0 0.535218 0.174738 0 0.554333 0.162216 0 0.568813 0.152796 0 0.584099 0.144082 0 0.595716 0.136922 0 0.608562 0.13038 0 0.618452 0.123868 0 0.629716 0.117866 0 0.638099 0.112001 0 0.647744 0.106824 0 0.655575 0.102332 0 0.663981 0.0983911 0 0.670911 0.094879 0 0.677965 0.0915013 0 0.684497 0.0882881 0 0.690591 0.0851326 0 0.696309 0.0821896 0 0.701855 0.079463 0 0.707179 0.0769972 0 0.712144 0.0747374 0 0.716937 0.0726357 0 0.721438 0.0706211 0 0.725795 0.0686848 0 0.72995 0.0668279 0 0.733871 0.0650637 0 0.737897 0.0634305 0 0.742813 0.0619936 0 0.750095 0.0608624 0 0.762078 0.0602061 0 0.780062 0.0600121 0 0.8 0.06 0 0.82 0.06 0 0.84 0.06 0 0.86 0.06 0 0.88 0.06 0 0.9 0.06 0 0.92 0.06 0 0.94 0.06 0 0.96 0.06 0 0.98 0.06 0 1 0.06 0 0 0.436488 0 0.11053 0.434003 0 0.219813 0.386868 0 0.306923 0.341336 0 0.291542 0.291542 0 0.359814 0.333152 0 0.410862 0.276298 0 0.444369 0.274709 0 0.474095 0.250985 0 0.498656 0.239347 0 0.521925 0.222384 0 0.539927 0.2109 0 0.558454 0.198432 0 0.572353 0.189027 0 0.587319 0.179605 0 0.59906 0.170959 0 0.61208 0.162799 0 0.62201 0.154753 0 0.633144 0.147471 0 0.64172 0.140889 0 0.651313 0.135166 0 0.659013 0.130183 0 0.666981 0.125522 0 0.674028 0.121214 0 0.680957 0.116939 0 0.687169 0.112846 0 0.693277 0.108997 0 0.698923 0.105465 0 0.704503 0.102256 0 0.709617 0.0992866 0 0.714566 0.0964935 0 0.719199 0.0938085 0 0.723651 0.0912334 0 0.72792 0.0887839 0 0.731945 0.0864689 0 0.736135 0.0843387 0 0.741309 0.0824741 0 0.749021 0.0810273 0 0.761645 0.0802275 0 0.780039 0.0800105 0 0.8 0.08 0 0.82 0.08 0 0.84 0.08 0 0.86 0.08 0 0.88 0.08 0 0.9 0.08 0 0.92 0.08 0 0.94 0.08 0 0.96 0.08 0 0.98 0.08 0 1 0.08 0 0 0.46746 0 0.0987 0.457953 0 0.18667 0.432116 0 0.25049 0.399775 0 0.333152 0.359814 0 0.345562 0.345562 0 0.38754 0.343819 0 0.421507 0.302672 0 0.453235 0.303637 0 0.480722 0.279845 0 0.503506 0.269945 0 0.52576 0.253366 0 0.54297 0.242746 0 0.561087 0.229894 0 0.575093 0.219747 0 0.590239 0.209287 0 0.602192 0.199368 0 0.61513 0.190151 0 0.62509 0.181548 0 0.636011 0.173949 0 0.644561 0.167285 0 0.653726 0.161143 0 0.661506 0.155591 0 0.669454 0.150149 0 0.67628 0.144948 0 0.683086 0.139957 0 0.689373 0.13535 0 0.695328 0.131074 0 0.701057 0.127177 0 0.706446 0.123515 0 0.711536 0.120037 0 0.716379 0.116698 0 0.720949 0.11351 0 0.72535 0.110498 0 0.729518 0.107666 0 0.73392 0.105071 0 0.739437 0.102815 0 0.747725 0.101103 0 0.761188 0.100219 0 0.78002 0.100007 0 0.8 0.1 0 0.82 0.1 0 0.84 0.1 0 0.86 0.1 0 0.88 0.1 0 0.9 0.1 0 0.92 0.1 0 0.94 0.1 0 0.96 0.1 0 0.98 0.1 0 1 0.1 0 0 0.489112 0 0.0878486 0.484094 0 0.166117 0.463647 0 0.238463 0.435405 0 0.276298 0.410862 0 0.343819 0.38754 0 0.370534 0.370534 0 0.4048 0.360047 0 0.43188 0.32637 0 0.460472 0.328919 0 0.486714 0.304314 0 0.508147 0.296364 0 0.529631 0.279314 0 0.546324 0.269123 0 0.564338 0.255636 0 0.578379 0.244917 0 0.593403 0.233894 0 0.605144 0.223755 0 0.617692 0.214471 0 0.627442 0.206061 0 0.637982 0.19829 0 0.646599 0.19137 0 0.655761 0.184637 0 0.663475 0.178329 0 0.671088 0.172144 0 0.678128 0.166477 0 0.684802 0.161124 0 0.691011 0.156218 0 0.696967 0.15163 0 0.70261 0.147308 0 0.707915 0.143164 0 0.712985 0.139219 0 0.717727 0.135464 0 0.722263 0.131935 0 0.726615 0.128623 0 0.731285 0.125597 0 0.737244 0.122994 0 0.746271 0.121083 0 0.760766 0.120185 0 0.780009 0.120004 0 0.8 0.12 0 0.82 0.12 0 0.84 0.12 0 0.86 0.12 0 0.88 0.12 0 0.9 0.12 0 0.92 0.12 0 0.94 0.12 0 0.96 0.12 0 0.98 0.12 0 1 0.12 0 0 0.509466 0 0.0782503 0.505919 0 0.155073 0.488905 0 0.21543 0.467205 0 0.274709 0.444369 0 0.302672 0.421507 0 0.360047 0.4048 0 0.389831 0.389831 0 0.418763 0.377038 0 0.442392 0.347805 0 0.467219 0.351156 0 0.492242 0.324812 0 0.5125 0.319037 0 0.533489 0.301101 0 0.54975 0.291361 0 0.567356 0.277605 0 0.581109 0.266919 0 0.595664 0.255923 0 0.607147 0.246048 0 0.619344 0.236666 0 0.629117 0.228315 0 0.639709 0.220177 0 0.648366 0.212789 0 0.657147 0.205401 0 0.664901 0.198691 0 0.672543 0.192237 0 0.679449 0.186307 0 0.686101 0.180731 0 0.692274 0.175513 0 0.698199 0.17054 0 0.703755 0.16581 0 0.709051 0.161318 0 0.714014 0.157068 0 0.718695 0.153058 0 0.723264 0.149302 0 0.728274 0.145883 0 0.7348 0.142993 0 0.74475 0.140976 0 0.76043 0.140134 0 0.780003 0.140002 0 0.8 0.14 0 0.82 0.14 0 0.84 0.14 0 0.86 0.14 0 0.88 0.14 0 0.9 0.14 0 0.92 0.14 0 0.94 0.14 0 0.96 0.14 0 0.98 0.14 0 1 0.14 0 0 0.528655 0 0.0726709 0.523606 0 0.140874 0.511679 0 0.203377 0.492805 0 0.250985 0.474095 0 0.303637 0.453235 0 0.32637 0.43188 0 0.377038 0.418763 0 0.406684 0.406684 0 0.431859 0.391887 0 0.453833 0.367124 0 0.475789 0.369187 0 0.498633 0.341991 0 0.517714 0.338171 0 0.537874 0.319446 0 0.553454 0.310451 0 0.570414 0.296705 0 0.583697 0.286392 0 0.597706 0.275404 0 0.608993 0.265897 0 0.621135 0.256361 0 0.630897 0.247974 0 0.641078 0.239358 0 0.649693 0.231728 0 0.658457 0.224167 0 0.666087 0.217268 0 0.673645 0.210663 0 0.680555 0.204535 0 0.687142 0.198686 0 0.693271 0.193167 0 0.699121 0.187925 0 0.704619 0.182968 0 0.709835 0.178278 0 0.714689 0.173829 0 0.719517 0.169662 0 0.724949 0.165902 0 0.732193 0.162807 0 0.743285 0.160802 0 0.760204 0.160081 0 0.780001 0.160001 0 0.8 0.16 0 0.82 0.16 0 0.84 0.16 0 0.86 0.16 0 0.88 0.16 0 0.9 0.16 0 0.92 0.16 0 0.94 0.16 0 0.96 0.16 0 0.98 0.16 0 1 0.16 0 0 0.543409 0 0.0665961 0.541754 0 0.13086 0.529835 0 0.186802 0.516708 0 0.239347 0.498656 0 0.279845 0.480722 0 0.328919 0.460472 0 0.347805 0.442392 0 0.391887 0.431859 0 0.421395 0.421395 0 0.443954 0.404984 0 0.465734 0.384163 0 0.48621 0.383141 0 0.506081 0.356949 0 0.524349 0.35394 0 0.543116 0.334962 0 0.55784 0.326833 0 0.573867 0.313237 0 0.586635 0.303549 0 0.600264 0.292573 0 0.611313 0.283432 0 0.622963 0.273576 0 0.632483 0.265214 0 0.642602 0.256541 0 0.651089 0.248861 0 0.659578 0.241181 0 0.667274 0.234217 0 0.674664 0.227463 0 0.681547 0.22119 0 0.687941 0.215173 0 0.694042 0.209529 0 0.699767 0.204149 0 0.705223 0.199062 0 0.710302 0.194201 0 0.715442 0.189673 0 0.721389 0.185646 0 0.729527 0.182454 0 0.742014 0.180593 0 0.760079 0.180039 0 0.78 0.18 0 0.8 0.18 0 0.82 0.18 0 0.84 0.18 0 0.86 0.18 0 0.88 0.18 0 0.9 0.18 0 0.92 0.18 0 0.94 0.18 0 0.96 0.18 0 0.98 0.18 0 1 0.18 0 0 0.559528 0 0.0615226 0.555461 0 0.120174 0.548658 0 0.174738 0.535218 0 0.222384 0.521925 0 0.269945 0.503506 0 0.304314 0.486714 0 0.351156 0.467219 0 0.367124 0.453833 0 0.404984 0.443954 0 0.434037 0.434037 0 0.454796 0.416535 0 0.476467 0.39918 0 0.49635 0.394541 0 0.513877 0.370566 0 0.531341 0.367407 0 0.548651 0.348665 0 0.562693 0.341267 0 0.577797 0.327815 0 0.590139 0.318753 0 0.603098 0.3076 0 0.613683 0.298751 0 0.625105 0.288913 0 0.63447 0.280724 0 0.644127 0.27198 0 0.652556 0.264365 0 0.66083 0.256704 0 0.668371 0.249729 0 0.675613 0.242988 0 0.68221 0.236646 0 0.688587 0.230606 0 0.694543 0.224859 0 0.700238 0.219379 0 0.705579 0.214158 0 0.711111 0.209332 0 0.717694 0.205138 0 0.72692 0.201979 0 0.741055 0.200383 0 0.760024 0.200014 0 0.78 0.2 0 0.8 0.2 0 0.82 0.2 0 0.84 0.2 0 0.86 0.2 0 0.88 0.2 0 0.9 0.2 0 0.92 0.2 0 0.94 0.2 0 0.96 0.2 0 0.98 0.2 0 1 0.2 0 0 0.57138 0 0.0564688 0.570885 0 
[...]
			<PointData Scalars="VitesseX">
				<DataArray Name="VitesseX" type="Float32" format="ascii">
 0 1.68208 0.322594 1.10723 0.912895 1.02548 1.01511 1.09794 1.13637 1.16258 1.23452 1.24875 1.26877 1.31179 1.34948 1.34924 1.3714 1.41767 1.48012 1.47758 1.50038 1.50254 1.54186 1.6068 1.64661 1.57314 1.65273 1.66839 1.68494 1.7157 1.71369 1.72861 1.74769 1.75083 1.78918 1.74828 1.5947 1.23351 0.589031 0.0468146 7.73031e-05 1.14406e-09 1.39697e-14 0 0 -6.95227e-20 6.95227e-20 -6.95227e-20 6.95227e-20 0 0 0 0.141931 1.29732 0.578574 0.943939 0.962545 1.02281 1.08197 1.13962 1.15495 1.21777 1.25731 1.25653 1.31016 1.35367 1.34231 1.37026 1.42584 1.47045 1.48811 1.48462 1.50998 1.54376 1.61103 1.61905 1.59517 1.64568 1.66921 1.68098 1.71599 1.71257 1.72727 1.74842 1.75149 1.78827 1.74613 1.59053 1.22586 0.577789 0.0443262 6.94133e-05 1.04268e-09 1.29353e-14 0 0 -6.95227e-20 6.95227e-20 -6.95227e-20 6.95227e-20 0 0 0 0.744985 0.165066 1.08789 0.723453 0.903011 0.947177 1.0478 1.08236 1.13208 1.20095 1.20974 1.25261 1.30017 1.33492 1.33888 1.36581 1.41741 1.47651 1.4672 1.48343 1.50395 1.56665 1.58356 1.58634 1.63245 1.63434 1.66801 1.67117 1.71401 1.71242 1.72327 1.74972 1.75408 1.78489 1.73944 1.57794 1.20282 0.544215 0.0375064 5.01208e-05 7.88083e-10 1.02501e-14 -7.15675e-20 0 3.68061e-20 -3.68061e-20 3.68061e-20 -3.68061e-20 0 0 0 0.594871 0.781077 0.208816 0.670684 0.815921 0.916989 0.980725 1.05104 1.10005 1.1668 1.19216 1.22775 1.2901 1.31789 1.32011 1.35904 1.41625 1.45472 1.46406 1.46201 1.52333 1.5575 1.55439 1.58201 1.64676 1.62963 1.66101 1.66205 1.70468 1.71551 1.71752 1.75091 1.75768 1.77856 1.72788 1.55647 1.164 0.489038 0.0280881 2.88757e-05 4.91414e-10 6.91224e-15 0 0 -7.22491e-20 7.22491e-20 -7.22491e-20 7.22491e-20 0 0 0 0.246946 0.513872 0.755854 0.59977 0.760465 0.864746 0.972189 1.00842 1.08465 1.12564 1.16146 1.22343 1.26121 1.29206 1.30905 1.34947 1.40165 1.44345 1.44259 1.474 1.51058 1.5314 1.54238 1.60443 1.62052 1.63981 1.64422 1.66187 1.68486 1.71975 1.71318 1.75023 1.76143 1.7689 1.71101 1.52482 1.10838 0.414446 0.0183213 1.31122e-05 2.50448e-10 3.92926e-15 7.15675e-20 0 -6.81595e-22 6.81595e-22 -1.43817e-19 1.43817e-19 0 0 0 0.226113 0.39685 0.497445 0.808158 0.870324 0.883923 0.904564 1.00994 1.04266 1.09246 1.13046 1.1892 1.23591 1.25727 1.29305 1.33713 1.38386 1.41384 1.44676 1.46504 1.49163 1.49116 1.5636 1.6004 1.59575 1.64272 1.63054 1.6603 1.66808 1.71534 1.71446 1.74482 1.76266 1.75773 1.6877 1.48039 1.03374 0.325505 0.0101828 4.62431e-06 1.03022e-10 1.86191e-15 -1.43135e-19 0 1.43135e-19 -1.43135e-19 1.43135e-19 -1.43135e-19 0 0 0 0.191668 0.331216 0.491806 0.526228 0.71837 0.890676 0.930461 0.947922 1.01912 1.04803 1.11837 1.15455 1.19589 1.24061 1.27102 1.31826 1.36109 1.39887 1.4281 1.45039 1.44547 1.49908 1.56146 1.57555 1.58311 1.62984 1.62299 1.65209 1.66386 1.69879 1.71812 1.7369 1.76074 1.74604 1.65691 1.42001 0.935913 0.23134 0.00469343 1.25252e-06 3.38294e-11 7.25039e-16 1.43135e-19 0 -1.43135e-19 0 1.43135e-19 -1.43135e-19 0 0 0 0.164568 0.331618 0.429963 0.574002 0.593863 0.742008 0.911622 0.951805 0.965447 1.02527 1.07641 1.1266 1.1616 1.20427 1.25753 1.28982 1.34049 1.37903 1.40405 1.40292 1.44384 1.50283 1.54117 1.54623 1.58213 1.5978 1.62077 1.63904 1.66692 1.68045 1.71596 1.73102 1.75534 1.73016 1.61853 1.34166 0.809331 0.144366 0.00173838 2.6339e-07 8.88958e-12 2.36598e-16 1.43135e-19 0 -2.8627e-19 2.8627e-19 -2.8627e-19 2.8627e-19 0 0 0 0.162979 0.28527 0.42968 0.499649 0.654473 0.665398 0.782166 0.928754 0.972691 1.0075 1.03892 1.07621 1.14349 1.18247 1.22544 1.27883 1.31869 1.35324 1.36112 1.39033 1.44877 1.49533 1.49636 1.54825 1.56404 1.57626 1.60994 1.63139 1.666 1.67178 1.70393 1.72793 1.74502 1.70776 1.57083 1.24523 0.651344 0.0763518 0.000498896 4.60513e-08 1.93831e-12 6.6895e-17 -1.43135e-19 2.8627e-19 -1.43135e-19 2.8627e-19 -5.7254e-19 5.7254e-19 -2.8627e-19 0 0 0.14464 0.274801 0.386944 0.50867 0.576013 0.723479 0.718193 0.828635 0.942132 0.991689 1.04391 1.06693 1.10147 1.17246 1.21172 1.25193 1.30486 1.31586 1.34122 1.39928 1.4492 1.44968 1.49119 1.53539 1.54688 1.57125 1.59301 1.63234 1.6575 1.67068 1.68719 1.72388 1.73147 1.67625 1.50745 1.12862 0.470478 0.0329145 0.000106193 7.51002e-09 3.76102e-13 1.0339e-17 0 0 2.8627e-19 -2.8627e-19 0 0 0 0 0 0.136707 0.260167 0.36983 0.469895 0.573101 0.633053 0.794231 0.787202 0.870124 0.976453 1.02778 1.08296 1.11866 1.12835 1.2038 1.24606 1.26556 1.30528 1.35106 1.39954 1.40682 1.43997 1.48873 1.51688 1.53397 1.5752 1.57505 1.63913 1.64051 1.67137 1.67197 1.71583 1.714 1.63536 1.42014 0.981309 0.291574 0.011101 1.59184e-05 1.14578e-09 6.6639e-14 2.86414e-19 -2.8627e-19 0 0 0 2.8627e-19 -5.7254e-19 5.7254e-19 0 0 0.124226 0.235773 0.342776 0.444488 0.545157 0.643345 0.700387 0.843647 0.836583 0.929085 1.01989 1.03971 1.12383 1.13745 1.17228 1.22611 1.25299 1.30428 1.35821 1.36613 1.3846 1.44466 1.48532 1.48785 1.54662 1.55411 1.58082 1.62851 1.63284 1.66421 1.66544 1.70436 1.6869 1.58128 1.3065 0.787612 0.14734 0.00280062 1.6132e-06 1.41119e-10 9.88446e-15 2.86288e-19 -2.8627e-19 0 0 0 2.8627e-19 -2.8627e-19 0 0 0 0.114081 0.215914 0.33078 0.431176 0.535815 0.613826 0.703406 0.738098 0.874435 0.892353 0.963666 1.05432 1.07077 1.14529 1.1791 1.18634 1.25977 1.31162 1.32108 1.33842 1.39509 1.44653 1.45408 1.49842 1.53096 1.54271 1.58292 1.60637 1.63273 1.6483 1.66691 1.68845 1.64543 1.50171 1.16562 0.550319 0.0575892 0.000498886 1.17851e-07 1.28473e-11 1.07988e-15 -2.8627e-19 5.7254e-19 -2.8627e-19 2.8627e-19 -2.8627e-19 -2.8627e-19 8.57447e-19 -8.57447e-19 0 0 0.105482 0.215957 0.311146 0.433471 0.503185 0.603779 0.659696 0.76358 0.786004 0.91038 0.944892 0.997096 1.06246 1.11061 1.1493 1.19485 1.24138 1.28443 1.30186 1.33956 1.40494 1.42503 1.44888 1.4948 1.51339 1.53807 1.57568 1.5843 1.62977 1.63432 1.66735 1.66226 1.59306 1.38782 0.980328 0.312271 0.0165322 5.80078e-05 8.31826e-09 9.8601e-13 7.23388e-17 -5.7254e-19 5.7254e-19 0 -2.8627e-19 0 -1.36319e-21 0 1.36319e-21 0 0 0.105282 0.202651 0.309337 0.401336 0.502349 0.558181 0.664004 0.705649 0.816627 0.830846 0.930021 0.985378 1.02551 1.10634 1.09286 1.19506 1.23681 1.25733 1.2943 1.3523 1.38797 1.41052 1.45858 1.47879 1.49564 1.54671 1.54534 1.58635 1.60597 1.63523 1.65836 1.62756 1.5187 1.24525 0.727838 0.134142 0.00329413 4.05208e-06 6.23843e-10 7.92057e-14 2.86694e-19 0 -2.8627e-19 0 0 0 -1.36319e-21 -2.84907e-19 5.7254e-19 0 0 0.097831 0.195759 0.287593 0.391389 0.471667 0.558369 0.61712 0.723422 0.746194 0.858015 0.873575 0.96188 1.0046 1.01655 1.11238 1.16452 1.19189 1.23361 1.28082 1.34843 1.36939 1.41629 1.44707 1.45503 1.50504 1.51753 1.54299 1.5756 1.58809 1.63208 1.63613 1.57948 1.40716 1.06276 0.43605 0.0409151 0.000418283 1.74682e-07 3.53473e-11 5.54417e-15 -5.72508e-19 5.7254e-19 -2.8627e-19 0 -2.8627e-19 5.7254e-19 -5.7254e-19 5.7254e-19 0 0 0 0.0940407 0.189842 0.278922 0.376608 0.461559 0.531299 0.614194 0.675014 0.771804 0.7845 0.891295 0.89441 0.976181 1.05557 1.07138 1.13978 1.17405 1.24004 1.27772 1.30168 1.35628 1.40251 1.41346 1.45007 1.486 1.49865 1.53848 1.55848 1.58209 1.62211 1.59704 1.50612 1.2627 0.802071 0.192608 0.00832375 3.01184e-05 7.05062e-09 1.50676e-12 1.65255e-16 -5.7254e-19 0 5.7254e-19 0 -5.7254e-19 5.7254e-19 0 -5.7254e-19 5.7254e-19 0 0 0.0929794 0.183845 0.274786 0.361299 0.448491 0.515583 0.594246 0.671367 0.724395 0.801375 0.805662 0.929129 0.937491 1.01301 1.07124 1.0909 1.16951 1.20303 1.25533 1.29041 1.3451 1.37166 1.40522 1.44296 1.45399 1.49194 1.52855 1.53342 1.58802 1.58397 1.54545 1.38381 1.07273 0.477801 0.057938 0.00103945 1.11581e-06 3.18824e-10 7.06787e-14 -4.0806e-17 0 -5.7254e-19 0 5.7254e-19 0 0 -5.7254e-19 5.71177e-19 -5.71177e-19 0 0 0.0899242 0.180666 0.261582 0.348936 0.42363 0.505729 0.573675 0.649601 0.70221 0.752715 0.842451 0.857455 0.951965 0.962911 1.01596 1.13408 1.12938 1.17992 1.2194 1.27755 1.30416 1.3351 1.38766 1.40685 1.43878 1.48429 1.49266 1.54315 1.56117 1.54778 1.45 1.22785 0.783696 0.200485 0.0110974 6.87761e-05 2.72602e-08 9.81784e-12 2.88107e-15 -1.14368e-18 0 5.7254e-19 -1.36319e-21 -5.71177e-19 5.7254e-19 -5.7254e-19 5.71177e-19 0 -5.71177e-19 0 0 0.08618 0.168096 0.248326 0.326616 0.413045 0.485788 0.559406 0.610711 0.682947 0.751206 0.806606 0.865613 0.865658 0.971768 0.99764 1.06947 1.14461 1.15165 1.21928 1.26609 1.27867 1.33277 1.34711 1.37743 1.43515 1.45468 1.49237 1.52953 1.52895 1.47628 1.31561 1.00515 0.428093 0.0543678 0.00120466 2.13543e-06 8.30324e-10 2.69735e-13 4.70984e-20 -5.71177e-19 0 5.7254e-19 -1.36319e-21 -5.71177e-19 5.7254e-19 -5.7254e-19 5.71177e-19 -5.71177e-19 5.7254e-19 0 0 0.0804776 0.159515 0.235518 0.319353 0.399971 0.470011 0.527888 0.597688 0.672505 0.744401 0.777935 0.812008 0.890891 0.914356 1.01934 1.03469 1.09714 1.1489 1.1933 1.22643 1.28931 1.31197 1.32137 1.37424 1.40708 1.43765 1.49033 1.49862 1.47656 1.36456 1.13489 0.666033 0.155044 0.00853752 6.466e-05 3.57659e-08 1.96477e-11 8.2897e-15 -5.72397e-19 5.7254e-19 -5.7254e-19 5.7254e-19 -5.7254e-19 5.7254e-19 0 -5.7254e-19 0 5.7254e-19 0 0 0 0.0769443 0.156063 0.234771 0.314463 0.386671 0.447372 0.517542 0.596527 0.664129 0.70659 0.753622 0.81124 0.868414 0.932136 0.946027 1.03534 1.0941 1.11423 1.14423 1.20294 1.25091 1.28499 1.33084 1.3555 1.3765 1.44185 1.462 1.46177 1.38093 1.20747 0.851725 0.306095 0.0325249 0.000719593 1.3261e-06 7.94807e-10 3.57734e-13 1.64516e-16 5.7254e-19 -5.7254e-19 5.71177e-19 1.36319e-21 -5.7254e-19 5.7254e-19 -5.7254e-19 5.71177e-19 1.36319e-21 -5.7254e-19 5.7254e-19 0 0 0.0776885 0.158273 0.232339 0.29977 0.370346 0.442177 0.51977 0.583468 0.635213 0.684779 0.748571 0.803671 0.847973 0.888384 0.965973 0.986287 1.06277 1.09575 1.1452 1.17085 1.19236 1.27359 1.30816 1.32277 1.37439 1.41125 1.42695 1.37174 1.24795 0.966563 0.473111 0.0806721 0.00393744 2.23803e-05 1.69221e-08 1.2318e-11 7.93884e-15 1.90411e-22 5.7254e-19 -5.7254e-19 1.14372e-18 -1.14372e-18 0 5.7254e-19 -5.7254e-19 1.14372e-18 -1.14372e-18 5.71177e-19 -5.71177e-19 0 0 0.0789045 0.15212 0.219862 0.290589 0.369154 0.444575 0.503668 0.559906 0.616053 0.68305 0.728584 0.776952 0.82262 0.888029 0.927325 0.978022 1.01183 1.08165 1.11441 1.14263 1.19742 1.2253 1.27287 1.32179 1.34822 1.36431 1.34257 1.25198 1.02153 0.619391 0.147695 0.0131582 0.00016829 3.09572e-07 2.49773e-10 1.79614e-13 2.11095e-17 1.36319e-21 -5.7254e-19 5.7254e-19 -5.7254e-19 5.71177e-19 1.36319e-21 -5.7254e-19 5.7254e-19 -5.7254e-19 5.71177e-19 0 -5.71177e-19 0 0 0.071312 0.140352 0.215759 0.291638 0.363538 0.424374 0.48553 0.547088 0.611918 0.656362 0.70752 0.756813 0.821752 0.855123 0.906344 0.944988 1.01604 1.03023 1.07955 1.14179 1.17682 1.20325 1.26291 1.29835 1.31291 1.29508 1.21654 1.03986 0.712068 0.217678 0.0303173 0.000695103 3.62048e-06 2.52046e-09 2.9132e-12 2.40624e-15 5.68259e-19 1.36319e-21 -5.7254e-19 5.7254e-19 -5.7254e-19 5.71177e-19 1.36319e-21 -5.7254e-19 5.7254e-19 -5.7254e-19 5.71177e-19 -5.71177e-19 5.7254e-19 0 0 0.0676815 0.140575 0.213779 0.282239 0.344247 0.408957 0.473255 0.534504 0.584396 0.642125 0.694037 0.752073 0.786088 0.843896 0.88456 0.945071 0.963644 1.02662 1.06696 1.10574 1.15144 1.19854 1.23929 1.27373 1.2472 1.18053 1.02666 0.743449 0.27546 0.0509185 0.00188705 2.22574e-05 1.65634e-08 3.58022e-11 2.77688e-14 -3.36502e-20 -1.14508e-18 1.14508e-18 0 0 0 -1.14508e-18 1.14508e-18 0 0 0 -1.14508e-18 1.71626e-18 -1.14372e-18 0 0 0.0694066 0.137052 0.203851 0.271804 0.338686 0.400305 0.458721 0.513903 0.574174 0.626894 0.678215 0.719273 0.780954 0.822832 0.87569 0.897 0.971129 0.99684 1.05106 1.08482 1.13594 1.18957 1.19792 1.19579 1.15233 0.990502 0.744274 0.304798 0.0674002 0.00369912 7.18522e-05 8.31629e-08 2.53584e-10 1.80868e-13 3.49668e-16 -5.72529e-19 5.71177e-19 -5.71177e-19 5.7254e-19 0 -5.7254e-19 5.71177e-19 -5.71177e-19 5.7254e-19 0 -5.7254e-19 0 5.71177e-19 0 0 0 0.0665415 0.133148 0.198601 0.262513 0.324169 0.38512 0.44492 0.504227 0.55697 0.608173 0.659 0.717187 0.759617 0.806615 0.839913 0.907784 0.931396 0.992505 1.01637 1.08784 1.1178 1.13171 1.14168 1.07732 0.948369 0.725713 0.302239 0.0762751 0.00519953 0.000141385 2.94173e-07 9.50103e-10 8.40432e-13 2.50911e-15 1.04171e-22 5.71177e-19 0 0 -5.71177e-19 0 5.71177e-19 0 0 1.36319e-21 -5.7254e-19 0 1.14372e-18 -1.71626e-18 1.14372e-18 0 0 0.0641375 0.127552 0.190881 0.255159 0.318441 0.377906 0.434837 0.490292 0.548881 0.604887 0.656272 0.696084 0.742562 0.786426 0.840984 0.867933 0.927506 0.957389 1.0362 1.0316 1.08012 1.0591 1.00343 0.888768 0.660023 0.282229 0.0753278 0.00553679 0.000195272 5.89674e-07 2.11722e-09 2.86856e-12 1.02655e-14 -1.14024e-18 0 5.71858e-19 -5.71858e-19 5.71858e-19 -5.71858e-19 5.71858e-19 0 -5.71858e-19 5.71858e-19 6.81595e-22 -1.1444e-18 1.71626e-18 -5.7254e-19 -1.14372e-18 1.14372e-18 0 0 0.0627918 0.125194 0.187595 0.249146 0.309371 0.368955 0.426573 0.482632 0.536267 0.586674 0.634627 0.684936 0.729443 0.773745 0.808535 0.865547 0.904317 0.964844 0.964754 1.01609 0.958745 0.934337 0.789416 0.57513 0.237384 0.0637265 0.00508249 0.000195081 6.8001e-07 3.12131e-09 5.7745e-12 2.3964e-14 -5.64941e-19 5.7254e-19 0 -5.71858e-19 -6.81595e-22 6.81595e-22 5.71858e-19 -6.81595e-22 0 6.81595e-22 -5.71858e-19 -6.81595e-22 5.71858e-19 0 -1.14372e-18 1.14372e-18 0 0 0 0.0610972 0.122072 0.183276 0.244883 0.30546 0.362044 0.415365 0.468176 0.52234 0.575144 0.625037 0.666892 0.710318 0.755047 0.806032 0.846717 0.88716 0.90198 0.928721 0.872365 0.842277 0.666393 0.470182 0.172699 0.0466233 0.0035497 0.000140769 5.87659e-07 3.11956e-09 6.63705e-12 3.53171e-14 6.23229e-17 -5.72529e-19 5.7254e-19 -5.7254e-19 5.7254e-19 -1.36319e-21 1.36319e-21 -5.7254e-19 5.71177e-19 -1.14304e-18 1.71558e-18 -1.14372e-18 5.71177e-19 0 -1.14372e-18 1.14372e-18 1.14372e-18 -2.28743e-18 0 0 0.0597321 0.119548 0.178667 0.237521 0.295574 0.352492 0.407206 0.459326 0.508874 0.557118 0.604672 0.652908 0.698481 0.743734 0.777216 0.811276 0.826524 0.829283 0.781093 0.722427 0.536721 0.339278 0.110333 0.0275879 0.00178237 7.14174e-05 2.91839e-07 2.11141e-09 5.75155e-12 3.54406e-14 5.77724e-19 1.37398e-21 -5.7254e-19 5.7254e-19 -5.7254e-19 5.7254e-19 -1.36319e-21 1.36319e-21 -5.7254e-19 5.71177e-19 -1.14304e-18 1.14304e-18 0 0 -1.14372e-18 1.14372e-18 0 0 0 0 0 0.0587753 0.117561 0.175991 0.233813 0.290024 0.343971 0.396796 0.449043 0.500407 0.548989 0.595858 0.638452 0.674738 0.70601 0.729719 0.734109 0.720255 0.67008 0.576345 0.390626 0.209481 0.060546 0.0119965 0.000656375 2.21227e-05 8.17723e-08 9.46059e-10 2.84128e-12 2.38405e-14 6.11779e-17 1.14373e-18 -1.14372e-18 0 5.7254e-19 0 -5.7254e-19 5.71177e-19 -5.71177e-19 5.7254e-19 -1.14508e-18 2.28743e-18 -2.28743e-18 1.14372e-18 0 0 0 0 -1.14372e-18 1.14372e-18 0 0 0.057479 0.114827 0.171598 0.227786 0.282467 0.336385 0.388583 0.438416 0.485526 0.52912 0.567857 0.600803 0.625692 0.637294 0.628027 0.598594 0.527577 0.40458 0.241023 0.105645 0.025563 0.00362603 0.000161515 3.59262e-06 1.61288e-08 2.52276e-10 8.24923e-13 1.02644e-14 -5.64956e-19 5.72551e-19 -5.7254e-19 0 1.14372e-18 -1.14372e-18 5.7254e-19 -1.14508e-18 1.71626e-18 -5.7254e-19 -5.71177e-19 5.71177e-19 0 -1.14372e-18 1.14372e-18 0 0 0 0 -1.14372e-18 1.14372e-18 0 0 0.0566675 0.11277 0.167463 0.220769 0.272414 0.32312 0.371108 0.415135 0.454279 0.487801 0.513503 0.527047 0.526319 0.505489 0.451577 0.353946 0.233259 0.116365 0.0390608 0.00715129 0.000676026 2.17922e-05 3.05088e-07 2.45493e-09 3.54996e-11 1.76547e-13 2.51024e-15 4.84489e-21 -5.7254e-19 5.7254e-19 -5.7254e-19 5.7254e-19 -1.36319e-21 -5.71177e-19 0 5.71177e-19 -5.71177e-19 5.71177e-19 0 0 0 0 0 -1.14372e-18 1.14372e-18 0 -1.14372e-18 1.14372e-18 0 0 0 0.0533387 0.105813 0.156713 0.205775 0.252777 0.296906 0.336601 0.369621 0.393551 0.407196 0.408995 0.392771 0.348148 0.274502 0.185934 0.100821 0.0377488 0.00875049 0.00107617 6.20634e-05 1.29423e-06 1.64522e-08 2.44351e-10 2.86318e-12 2.70694e-14 3.49668e-16 -1.14429e-18 1.1444e-18 0 -5.71858e-19 5.71858e-19 0 -5.7254e-19 6.81595e-22 5.71177e-19 0 0 -1.14372e-18 1.14372e-18 0 0 0 -1.14372e-18 1.14372e-18 0 0 -1.14372e-18 2.28743e-18 -2.28743e-18 0 0 0.0468169 0.0925039 0.136098 0.176737 0.213362 0.244519 0.268409 0.282425 0.282495 0.264085 0.22672 0.176522 0.120905 0.0662128 0.0255765 0.00629643 0.000902846 6.45615e-05 2.06686e-06 3.42384e-08 7.71209e-10 1.19794e-11 1.74841e-13 2.40744e-15 -3.36897e-20 -5.72533e-19 5.71858e-19 -5.71858e-19 5.7254e-19 -5.71858e-19 5.71858e-19 -5.7254e-19 0 5.71858e-19 0 0 0 0 -1.14372e-18 1.14372e-18 -1.14372e-18 1.14372e-18 0 0 0 -1.14304e-18 1.14304e-18 0 0 0 0 0.0345425 0.0675679 0.0975739 0.12288 0.141332 0.150455 0.148479 0.135805 0.114906 0.0881249 0.0575372 0.0290928 0.0104359 0.00248664 0.00035909 2.79322e-05 1.06343e-06 2.56567e-08 7.92236e-10 1.8964e-11 3.42226e-13 7.89776e-15 2.11154e-17 -5.74102e-19 0 5.71177e-19 0 -5.71177e-19 0 1.14372e-18 -1.14372e-18 5.71177e-19 -5.71177e-19 5.71177e-19 0 0 -1.14372e-18 1.14372e-18 1.14372e-18 -2.28743e-18 0 1.14372e-18 1.14372e-18 -2.28743e-18 1.14372e-18 -1.14304e-18 2.28675e-18 -2.28743e-18 1.14372e-18 0 0 0.0149962 0.0284715 0.0391207 0.0459568 0.0482671 0.0455396 0.0377784 0.0264069 0.0147297 0.00620947 0.00188478 0.000388685 5.01811e-05 3.71636e-06 1.6126e-07 6.43481e-09 2.99842e-10 9.30038e-12 2.53486e-13 7.95952e-15 1.64515e-16 1.90411e-22 1.14372e-18 -1.14372e-18 0 5.71177e-19 0 -5.71177e-19 0 1.14372e-18 -1.14372e-18 5.71177e-19 5.7254e-19 -1.71626e-18 1.14372e-18 0 -1.14372e-18 1.14372e-18 1.14372e-18 -2.28743e-18 1.14372e-18 0 -1.14304e-18 1.14304e-18 -1.14372e-18 2.28743e-18 -1.14372e-18 -1.14372e-18 1.14372e-18 0 0 0.00234251 0.00409404 0.00483968 0.00449175 0.00335225 0.00198795 0.000912355 0.000313305 7.71619e-05 1.29029e-05 1.39292e-06 1.02413e-07 7.14005e-09 5.56163e-10 3.24796e-11 1.37166e-12 6.48362e-14 2.88097e-15 -1.09553e-18 5.72683e-19 -5.7254e-19 5.7254e-19 -5.7254e-19 5.7254e-19 0 -5.7254e-19 5.71177e-19 -5.71177e-19 5.7254e-19 -5.7254e-19 5.7254e-19 -5.7254e-19 5.71177e-19 0 -1.14372e-18 1.14372e-18 1.14372e-18 -1.14372e-18 -1.14372e-18 1.14372e-18 0 0 -1.14304e-18 1.14304e-18 0 0 -1.14372e-18 1.14372e-18 0 0 0 7.87132e-06 1.13796e-05 9.82744e-06 5.91503e-06 2.56552e-06 8.04685e-07 1.84268e-07 3.30663e-08 5.47733e-09 8.87506e-10 1.17264e-10 1.10248e-11 8.38419e-13 6.85301e-14 5.13205e-15 2.46867e-16 -4.08061e-17 -1.33443e-21 -5.71177e-19 5.7254e-19 -5.7254e-19 5.7254e-19 -5.7254e-19 5.7254e-19 0 0 -1.14508e-18 1.71626e-18 -1.14372e-18 5.71177e-19 -5.71177e-19 0 5.71177e-19 0 0 -1.14372e-18 2.28743e-18 -2.28743e-18 1.14372e-18 0 0 -1.14372e-18 1.14372e-18 0 0 0 -1.14372e-18 2.28743e-18 -2.28743e-18 0 0 1.01375e-10 1.5323e-10 1.43445e-10 9.75258e-11 4.99044e-11 1.92909e-11 5.64988e-12 1.30173e-12 2.60597e-13 4.88863e-14 7.86824e-15 9.36346e-16 7.17654e-17 2.86633e-19 -5.7183e-19 5.71858e-19 0 -1.1444e-18 1.1444e-18 -5.71858e-19 5.71177e-19 6.81595e-22 -5.71858e-19 5.71858e-19 0 -5.71858e-19 5.71177e-19 0 0 -1.14304e-18 1.14304e-18 0 0 0 0 -1.14372e-18 0 1.14372e-18 0 0 -1.14304e-18 1.14304e-18 0 0 0 -1.14304e-18 1.14304e-18 0 0 0 0 1.0344e-15 1.65093e-15 1.68683e-15 1.296e-15 7.71632e-16 3.64955e-16 1.23487e-16 4.62165e-17 1.03394e-17 2.85707e-19 -2.85574e-19 -2.86952e-19 5.7254e-19 0 -5.71858e-19 -6.81595e-22 5.7254e-19 -5.71858e-19 5.71858e-19 -5.71858e-19 1.14372e-18 -1.1444e-18 5.71858e-19 -5.71858e-19 0 5.71858e-19 0 -5.71177e-19 1.14372e-18 -1.71558e-18 1.14304e-18 0 -1.14372e-18 2.28743e-18 -2.28743e-18 1.14372e-18 -1.14372e-18 2.28743e-18 -2.28743e-18 1.14372e-18 -1.14304e-18 1.14304e-18 1.14372e-18 -2.28743e-18 1.14372e-18 -1.14304e-18 2.28675e-18 -2.28743e-18 1.14372e-18 0 0 0 2.04479e-21 0 -7.15675e-20 1.43135e-19 -1.43135e-19 1.43135e-19 -4.29405e-19 5.7254e-19 -2.8627e-19 2.8627e-19 -5.7254e-19 5.7254e-19 -2.8627e-19 2.8627e-19 -5.7254e-19 0 1.14372e-18 -1.14372e-18 5.7254e-19 -5.7254e-19 0 1.14372e-18 -1.14372e-18 0 5.71177e-19 0 -5.71177e-19 5.7254e-19 -1.36319e-21 0 -1.14372e-18 1.14372e-18 0 -1.14372e-18 2.28743e-18 -1.14372e-18 -1.14304e-18 1.14304e-18 -1.14372e-18 2.28743e-18 -1.14372e-18