<?xml version="1.0"?>
<VTKFile type="PolyData">
	<PolyData>
		<Piece NumberOfPoints="2601" NumberOfPolys="2500">
			<Points>
				<DataArray type="Float32" NumberOfComponents="3" format="ascii">
 0 0 0 0.505694 0 0 0.315146 0 0 0.45052 0 0 0.446077 0 0 0.478105 0 0 0.49983 0 0 0.520703 0 0 0.540452 0 0 0.555689 0 0 0.572192 0 0 0.584503 0 0 0.598869 0 0 0.610083 0 0 0.622922 0 0 0.632691 0 0 0.643852 0 0 0.652179 0 0 0.662217 0 0 0.669722 0 0 0.678291 0 0 0.685264 0 0 0.692755 0 0 0.699368 0 0 0.706063 0 0 0.711932 0 0 0.71753 0 0 0.72299 0 0 0.728292 0 0 0.733246 0 0 0.738031 0 0 0.742525 0 0 0.746814 0 0 0.750987 0 0 0.754932 0 0 0.758792 0 0 0.762581 0 0 0.767005 0 0 0.773319 0 0 0.783677 0 0 0.800214 0 0 0.82 0 0 0.84 0 0 0.86 0 0 0.88 0 0 0.9 0 0 0.92 0 0 0.94 0 0 0.96 0 0 0.98 0 0 1 0 0 0 0.505694 0 0.17488 0.17488 0 0.443596 0.208764 0 0.364553 0.180642 0 0.443961 0.113206 0 0.467947 0.101086 0 0.494882 0.0898893 0 0.51703 0.0799674 0 0.535516 0.0744196 0 0.553904 0.0681485 0 0.568 0.0629637 0 0.584128 0.0578141 0 0.596057 0.0536625 0 0.609816 0.0501743 0 0.620675 0.047513 0 0.632704 0.0451745 0 0.641653 0.0428959 0 0.652366 0.0408344 0 0.660325 0.0388139 0 0.669736 0.0370216 0 0.676902 0.0353847 0 0.685014 0.0339713 0 0.691855 0.0327339 0 0.699049 0.0315824 0 0.70539 0.0304637 0 0.711405 0.0293359 0 0.717056 0.0282938 0 0.722558 0.0273397 0 0.727877 0.0264722 0 0.732854 0.0256801 0 0.737664 0.0249549 0 0.742186 0.0242691 0 0.746491 0.0236078 0 0.750683 0.0229702 0 0.754649 0.0223592 0 0.75852 0.0217823 0 0.762327 0.0212436 0 0.766781 0.0207617 0 0.773146 0.020365 0 0.783584 0.0201052 0 0.800202 0.0200107 0 0.82 0.02 0 0.84 0.02 0 0.86 0.02 0 0.88 0.02 0 0.9 0.02 0 0.92 0.02 0 0.94 0.02 0 0.96 0.02 0 0.98 0.02 0 1 0.02 0 0 0.315146 0 0.208764 0.443596 0 0.203615 0.203615 0 0.394264 0.276638 0 0.394366 0.225166 0 0.441578 0.19087 0 0.473572 0.169615 0 0.499698 0.158498 0 0.523018 0.143854 0 0.541669 0.133724 0 0.561002 0.122835 0 0.575564 0.114092 0 0.591602 0.106011 0 0.603878 0.0997969 0 0.617399 0.0944905 0 0.627687 0.0897958 0 0.639282 0.0855052 0 0.648079 0.0811705 0 0.658521 0.0772742 0 0.666373 0.0736133 0 0.675257 0.0704276 0 0.682463 0.0676684 0 0.690319 0.0651972 0 0.697136 0.062909 0 0.703772 0.0606215 0 0.70978 0.0584568 0 0.715771 0.0564278 0 0.721234 0.0545491 0 0.726655 0.0528326 0 0.731685 0.0512676 0 0.736582 0.0498288 0 0.741175 0.04846 0 0.745531 0.0471358 0 0.74978 0.045863 0 0.753805 0.0446479 0 0.757704 0.0435021 0 0.76157 0.0424351 0 0.766116 0.0414819 0 0.772635 0.0407005 0 0.783315 0.0401967 0 0.800172 0.0400185 0 0.82 0.0400001 0 0.84 0.04 0 0.86 0.04 0 0.88 0.04 0 0.9 0.04 0 0.92 0.04 0 0.94 0.04 0 0.96 0.04 0 0.98 0.04 0 1 0.04 0 0 0.45052 0 0.180642 0.364553 0 0.276638 0.394264 0 0.233079 0.233079 0 0.348184 0.314812 0 0.408271 0.25563 0 0.444979 0.243562 0 0.477361 0.219896 0 0.503794 0.207884 0 0.528101 0.190784 0 0.547333 0.178576 0 0.566913 0.165841 0 0.581555 0.156205 0 0.597426 0.147285 0 0.609459 0.140144 0 0.622522 0.133388 0 0.632572 0.126747 0 0.644218 0.120663 0 0.653073 0.114688 0 0.66322 0.109447 0 0.670954 0.104799 0 0.679645 0.100788 0 0.686971 0.0972733 0 0.694406 0.0938446 0 0.700862 0.0905218 0 0.707457 0.0873176 0 0.713482 0.0843219 0 0.719167 0.0815321 0 0.724595 0.079005 0 0.729813 0.0766966 0 0.734774 0.0745482 0 0.739521 0.0724921 0 0.743957 0.0705065 0 0.748292 0.0686051 0 0.752417 0.066801 0 0.756358 0.0651039 0 0.760322 0.0635285 0 0.765023 0.0621234 0 0.771805 0.0609802 0 0.782895 0.0602628 0 0.800129 0.0600218 0 0.82 0.0600001 0 0.84 0.06 0 0.86 0.06 0 0.88 0.06 0 0.9 0.06 0 0.92 0.06 0 0.94 0.06 0 0.96 0.06 0 0.98 0.06 0 1 0.06 0 0 0.446077 0 0.113206 0.443961 0 0.225166 0.394366 0 0.314812 0.348184 0 0.297767 0.297767 0 0.367794 0.341679 0 0.419842 0.281744 0 0.454511 0.280622 0 0.484597 0.256153 0 0.509904 0.244632 0 0.533679 0.22728 0 0.552128 0.21554 0 0.571082 0.202885 0 0.585418 0.193501 0 0.600865 0.183803 0 0.612838 0.175084 0 0.626062 0.166687 0 0.636437 0.158476 0 0.648092 0.151102 0 0.656932 0.144323 0 0.666708 0.138478 0 0.67459 0.133423 0 0.683045 0.128702 0 0.690141 0.124259 0 0.697373 0.119897 0 0.704027 0.115783 0 0.710356 0.111831 0 0.716252 0.108221 0 0.721825 0.104918 0 0.727205 0.101895 0 0.7323 0.0990325 0 0.737224 0.0962947 0 0.741807 0.0936514 0 0.74624 0.0911413 0 0.750489 0.0887729 0 0.754502 0.086547 0 0.758602 0.0844873 0 0.763526 0.0826542 0 0.770688 0.0811818 0 0.782367 0.0802962 0 0.800085 0.0800202 0 0.82 0.08 0 0.84 0.08 0 0.86 0.08 0 0.88 0.08 0 0.9 0.08 0 0.92 0.08 0 0.94 0.08 0 0.96 0.08 0 0.98 0.08 0 1 0.08 0 0 0.478105 0 0.101086 0.467947 0 0.19087 0.441578 0 0.25563 0.408271 0 0.341679 0.367794 0 0.35475 0.35475 0 0.396649 0.351269 0 0.430881 0.308797 0 0.463785 0.310374 0 0.491605 0.285804 0 0.514943 0.275954 0 0.53751 0.259022 0 0.555275 0.248246 0 0.573956 0.235139 0 0.588254 0.224995 0 0.603781 0.214183 0 0.616035 0.204145 0 0.629429 0.194783 0 0.6398 0.185961 0 0.651108 0.178253 0 0.659832 0.171429 0 0.669371 0.165216 0 0.677184 0.159508 0 0.685398 0.153911 0 0.692772 0.148683 0 0.699887 0.143581 0 0.70631 0.138854 0 0.712599 0.134492 0 0.718326 0.130488 0 0.72391 0.126749 0 0.729198 0.123193 0 0.734308 0.11978 0 0.739093 0.116513 0 0.743652 0.113424 0 0.748031 0.110526 0 0.752154 0.1078 0 0.756432 0.105279 0 0.761655 0.103046 0 0.76933 0.101289 0 0.781789 0.100294 0 0.800048 0.100015 0 0.82 0.1 0 0.84 0.1 0 0.86 0.1 0 0.88 0.1 0 0.9 0.1 0 0.92 0.1 0 0.94 0.1 0 0.96 0.1 0 0.98 0.1 0 1 0.1 0 0 0.49983 0 0.0898893 0.494882 0 0.169615 0.473572 0 0.243562 0.444979 0 0.281744 0.419842 0 0.351269 0.396649 0 0.379855 0.379855 0 0.414453 0.367816 0 0.441763 0.333322 0 0.471159 0.33645 0 0.497694 0.310875 0 0.519753 0.303033 0 0.541607 0.285701 0 0.558828 0.275401 0 0.577296 0.261462 0 0.591623 0.250729 0 0.607082 0.23937 0 0.619246 0.229096 0 0.632199 0.219699 0 0.642286 0.211087 0 0.65324 0.203241 0 0.661883 0.196108 0 0.671229 0.189186 0 0.679325 0.182831 0 0.687578 0.176587 0 0.694703 0.170759 0 0.701664 0.165273 0 0.708106 0.160266 0 0.714193 0.155561 0 0.71996 0.151142 0 0.725522 0.146916 0 0.730804 0.142877 0 0.735831 0.139037 0 0.740544 0.135419 0 0.745065 0.132024 0 0.749335 0.128823 0 0.753843 0.125867 0 0.759452 0.123274 0 0.767788 0.121292 0 0.781227 0.12026 0 0.800023 0.120009 0 0.82 0.12 0 0.84 0.12 0 0.86 0.12 0 0.88 0.12 0 0.9 0.12 0 0.92 0.12 0 0.94 0.12 0 0.96 0.12 0 0.98 0.12 0 1 0.12 0 0 0.520703 0 0.0799674 0.51703 0 0.158498 0.499698 0 0.219896 0.477361 0 0.280622 0.454511 0 0.308797 0.430881 0 0.367816 0.414453 0 0.399326 0.399326 0 0.428646 0.385205 0 0.452486 0.355328 0 0.477913 0.35942 0 0.503455 0.33204 0 0.524265 0.326369 0 0.545598 0.308014 0 0.562313 0.298257 0 0.580438 0.284005 0 0.594489 0.273301 0 0.609536 0.262041 0 0.621439 0.251978 0 0.634062 0.242532 0 0.643998 0.233912 0 0.654732 0.225549 0 0.663661 0.218048 0 0.673109 0.210615 0 0.681079 0.203776 0 0.689002 0.197149 0 0.696152 0.191109 0 0.703003 0.185377 0 0.709411 0.180047 0 0.715482 0.174951 0 0.721301 0.170132 0 0.72679 0.165533 0 0.732035 0.161194 0 0.736948 0.157092 0 0.741615 0.153227 0 0.746081 0.149574 0 0.750881 0.146216 0 0.75698 0.143318 0 0.766143 0.141195 0 0.780747 0.140202 0 0.800009 0.140004 0 0.82 0.14 0 0.84 0.14 0 0.86 0.14 0 0.88 0.14 0 0.9 0.14 0 0.92 0.14 0 0.94 0.14 0 0.96 0.14 0 0.98 0.14 0 1 0.14 0 0 0.540452 0 0.0744196 0.535516 0 0.143854 0.523018 0 0.207884 0.503794 0 0.256153 0.484597 0 0.310374 0.463785 0 0.333322 0.441763 0 0.385205 0.428646 0 0.416389 0.416389 0 0.441993 0.400551 0 0.464338 0.375364 0 0.486661 0.378045 0 0.509904 0.349682 0 0.529633 0.346101 0 0.550134 0.326793 0 0.566182 0.317937 0 0.583688 0.303672 0 0.597336 0.293356 0 0.611857 0.28219 0 0.623411 0.272375 0 0.635697 0.262621 0 0.645703 0.254034 0 0.656528 0.245381 0 0.665402 0.23762 0 0.674458 0.229828 0 0.682444 0.222851 0 0.690181 0.216052 0 0.697284 0.209787 0 0.704149 0.203794 0 0.710511 0.198156 0 0.716621 0.192807 0 0.72231 0.18774 0 0.72775 0.182941 0 0.732893 0.1784 0 0.73773 0.174084 0 0.742433 0.170012 0 0.747603 0.166301 0 0.754322 0.163177 0 0.764499 0.161018 0 0.780392 0.160135 0 0.800003 0.160002 0 0.82 0.16 0 0.84 0.16 0 0.86 0.16 0 0.88 0.16 0 0.9 0.16 0 0.92 0.16 0 0.94 0.16 0 0.96 0.16 0 0.98 0.16 0 1 0.16 0 0 0.555689 0 0.0681485 0.553904 0 0.133724 0.541669 0 0.190784 0.528101 0 0.244632 0.509904 0 0.285804 0.491605 0 0.33645 0.471159 0 0.355328 0.452486 0 0.400551 0.441993 0 0.431207 0.431207 0 0.454278 0.414065 0 0.476657 0.392925 0 0.497315 0.392282 0 0.517576 0.36513 0 0.536519 0.362393 0 0.555675 0.342728 0 0.570863 0.33486 0 0.587441 0.320746 0 0.600494 0.310965 0 0.61436 0.299733 0 0.625682 0.290303 0 0.637888 0.280415 0 0.647758 0.271908 0 0.65811 0.26296 0 0.666927 0.255184 0 0.675861 0.247328 0 0.683634 0.240192 0 0.691349 0.23329 0 0.698375 0.226861 0 0.705185 0.220743 0 0.711471 0.214971 0 0.717431 0.20947 0 0.72303 0.204248 0 0.728427 0.199287 0 0.733459 0.194554 0 0.738449 0.190111 0 0.744073 0.18612 0 0.75157 0.182863 0 0.762984 0.180794 0 0.780172 0.180074 0 0.800001 0.18 0 0.82 0.18 0 0.84 0.18 0 0.86 0.18 0 0.88 0.18 0 0.9 0.18 0 0.92 0.18 0 0.94 0.18 0 0.96 0.18 0 0.98 0.18 0 1 0.18 0 0 0.572192 0 0.0629637 0.568 0 0.122835 0.561002 0 0.178576 0.547333 0 0.22728 0.533679 0 0.275954 0.514943 0 0.310875 0.497694 0 0.35942 0.477913 0 0.375364 0.464338 0 0.414065 0.454278 0 0.444141 0.444141 0 0.465383 0.426106 0 0.487784 0.408446 0 0.507926 0.403998 0 0.525595 0.379185 0 0.543881 0.376319 0 0.561564 0.356831 0 0.575949 0.349671 0 0.591512 0.335676 0 0.604071 0.326485 0 0.617514 0.315255 0 0.628523 0.306201 0 0.640159 0.296097 0 0.649799 0.287751 0 0.659988 0.278847 0 0.668557 0.271068 0 0.677211 0.26321 0 0.684936 0.256107 0 0.692372 0.249184 0 0.699408 0.242783 0 0.705944 0.236581 0 0.712156 0.230713 0 0.717969 0.225072 0 0.723586 0.219729 0 0.728854 0.214624 0 0.734185 0.209882 0 0.740362 0.205694 0 0.748818 0.202411 0 0.761735 0.200555 0 0.780061 0.200032 0 0.8 0.2 0 0.82 0.2 0 0.84 0.
[...]
			<PointData Scalars="VitesseX">
				<DataArray Name="VitesseX" type="Float32" format="ascii">
 0 1.62584 0.317515 1.01401 0.886224 0.973996 1.00088 1.0309 1.07218 1.14876 1.16026 1.20087 1.26316 1.25296 1.27863 1.3339 1.33432 1.3378 1.37092 1.4155 1.46446 1.4632 1.48633 1.47145 1.52299 1.60065 1.5643 1.60257 1.60135 1.64108 1.66382 1.67092 1.69094 1.70381 1.6977 1.72616 1.69872 1.57239 1.26192 0.682501 0.0800665 0.000284528 5.77373e-09 7.76688e-14 1.48085e-23 -7.40115e-20 7.40115e-20 -7.40115e-20 7.40115e-20 0 0 0 0.107529 1.29333 0.522106 0.92454 0.912786 1.00838 1.01919 1.0889 1.1342 1.14997 1.21537 1.23915 1.25267 1.27914 1.32475 1.33559 1.33945 1.36402 1.42841 1.45412 1.46955 1.4687 1.48112 1.53706 1.58438 1.56512 1.60093 1.6064 1.63528 1.66414 1.66907 1.68977 1.70323 1.69759 1.72629 1.69755 1.56913 1.25529 0.672192 0.0764134 0.000258283 5.25198e-09 7.2016e-14 1.48085e-23 -7.40115e-20 7.40115e-20 -7.40115e-20 7.40115e-20 0 0 0 0.775062 0.176254 1.06967 0.691167 0.870827 0.92429 0.987846 1.04183 1.10153 1.12387 1.17861 1.2216 1.22717 1.2684 1.32099 1.3234 1.33029 1.36911 1.41743 1.46198 1.44756 1.46397 1.49376 1.55225 1.54249 1.57864 1.59411 1.61986 1.62021 1.66349 1.66513 1.68565 1.70167 1.69795 1.72629 1.69358 1.55912 1.23526 0.641103 0.0662289 0.000192656 3.95773e-09 5.73188e-14 1.11064e-23 3.91826e-20 -3.91826e-20 3.91826e-20 -3.91826e-20 0 0 0 0.580384 0.779676 0.187026 0.624407 0.777942 0.886922 0.929941 1.01323 1.05109 1.10767 1.16759 1.18077 1.21993 1.258 1.29954 1.31109 1.3236 1.35962 1.42363 1.44062 1.44205 1.45789 1.51849 1.5269 1.52205 1.58861 1.59111 1.62716 1.60956 1.65392 1.66245 1.6785 1.69929 1.7002 1.72465 1.686 1.54192 1.20135 0.588964 0.0516699 0.000117107 2.47566e-09 3.89654e-14 1.11064e-23 -7.69139e-20 7.69139e-20 -7.69139e-20 7.69139e-20 0 0 0 0.254131 0.49625 0.731992 0.571834 0.740696 0.825322 0.935142 0.968583 1.03333 1.0795 1.13436 1.16135 1.19388 1.24853 1.28045 1.29338 1.31738 1.36332 1.40491 1.43414 1.42558 1.47513 1.49927 1.50345 1.53179 1.58042 1.58988 1.62249 1.6101 1.63483 1.66061 1.6705 1.6953 1.70362 1.72029 1.67426 1.51672 1.15283 0.516159 0.0357547 5.72399e-05 1.28378e-09 2.24492e-14 7.40424e-24 -7.25603e-22 7.25603e-22 -1.53102e-19 1.53102e-19 0 0 0 0.220789 0.391442 0.469136 0.786559 0.857193 0.834969 0.86203 0.972679 1.00084 1.05773 1.08487 1.12905 1.17979 1.21577 1.25485 1.27593 1.30695 1.35025 1.39053 1.40868 1.44218 1.46068 1.4666 1.48673 1.55537 1.55641 1.59025 1.60762 1.61443 1.61664 1.65492 1.6645 1.68859 1.70766 1.71267 1.65725 1.48169 1.0884 0.425189 0.021502 2.2101e-05 5.47145e-10 1.08686e-14 0 1.52377e-19 -1.52377e-19 1.52377e-19 -1.52377e-19 0 0 0 0.192193 0.328287 0.470624 0.49793 0.685935 0.863294 0.883916 0.907243 0.989228 1.0214 1.06579 1.09868 1.15272 1.19735 1.22186 1.26076 1.29266 1.33218 1.36147 1.40651 1.42844 1.43579 1.4341 1.4981 1.54254 1.54441 1.57985 1.59352 1.61005 1.61044 1.64311 1.66204 1.67945 1.70899 1.70288 1.63348 1.43367 1.0054 0.3225 0.0109563 6.60605e-06 1.88588e-10 4.3528e-15 0 -1.52377e-19 0 1.52377e-19 -1.52377e-19 0 0 0 0.158976 0.313931 0.409734 0.539756 0.561431 0.716621 0.874758 0.907979 0.934298 0.987746 1.0291 1.08687 1.11581 1.16106 1.20437 1.23215 1.27282 1.30832 1.35196 1.38806 1.40313 1.3928 1.44814 1.49095 1.51708 1.54015 1.55993 1.58312 1.59629 1.61319 1.63049 1.66013 1.67007 1.70588 1.69151 1.60216 1.36934 0.898857 0.219302 0.00459277 1.50558e-06 5.16974e-11 1.40309e-15 0 -3.04753e-19 3.04753e-19 -3.04753e-19 3.04753e-19 0 0 0 0.162751 0.273681 0.416641 0.475001 0.613374 0.638429 0.755628 0.894376 0.932933 0.9675 1.00326 1.04709 1.09825 1.12755 1.17104 1.2215 1.24792 1.29768 1.34104 1.36209 1.35733 1.40005 1.45012 1.47431 1.49754 1.53966 1.53638 1.57686 1.57688 1.61873 1.62258 1.65677 1.66329 1.69806 1.67445 1.56274 1.28681 0.762651 0.129427 0.00153175 2.65424e-07 1.12794e-11 3.49299e-16 3.04753e-19 -1.52377e-19 3.04753e-19 -6.09507e-19 6.09507e-19 -3.04753e-19 0 0 0.146823 0.266577 0.365337 0.485613 0.543514 0.692434 0.698259 0.799645 0.905728 0.952256 1.00969 1.02651 1.0593 1.11999 1.15298 1.19681 1.24458 1.28251 1.31783 1.32143 1.35337 1.40789 1.4401 1.44503 1.5022 1.51681 1.53606 1.55984 1.56667 1.61667 1.62198 1.6488 1.66074 1.68488 1.64862 1.51162 1.18564 0.595667 0.0638699 0.000390985 3.96152e-08 2.05449e-12 5.13871e-17 0 3.04753e-19 -3.04753e-19 0 0 0 0 0 0.133995 0.240943 0.350698 0.448291 0.556603 0.605232 0.760827 0.761313 0.840123 0.926752 0.966789 1.04633 1.0584 1.08197 1.15234 1.18154 1.22602 1.27548 1.28279 1.31027 1.36761 1.40192 1.40461 1.45335 1.48395 1.50097 1.53996 1.54026 1.56849 1.60444 1.62593 1.63718 1.65912 1.66846 1.61214 1.44079 1.06167 0.411049 0.0253116 7.28584e-05 5.72872e-09 3.42344e-13 -3.00065e-19 0 0 0 3.04753e-19 -6.09507e-19 6.09507e-19 0 0 0.125887 0.225856 0.337383 0.429812 0.521441 0.612459 0.657507 0.81971 0.81269 0.875104 0.959844 1.01053 1.07358 1.10423 1.11527 1.17881 1.22083 1.23845 1.276 1.32627 1.36507 1.36673 1.40377 1.44972 1.46503 1.49277 1.53559 1.52726 1.57358 1.58976 1.62661 1.62694 1.65365 1.64722 1.56578 1.34353 0.901505 0.238569 0.0077195 9.38898e-06 7.78279e-10 5.32369e-14 -3.04598e-19 0 0 0 3.04753e-19 -3.04753e-19 0 0 0 0.114747 0.209192 0.314245 0.409623 0.501076 0.586396 0.676413 0.709968 0.847147 0.85328 0.923846 1.00286 1.02198 1.10726 1.11589 1.15482 1.20146 1.22007 1.27858 1.3331 1.33148 1.35102 1.40638 1.43776 1.4462 1.50129 1.50689 1.53545 1.56138 1.58622 1.61514 1.62467 1.64298 1.61551 1.50367 1.22093 0.692467 0.110379 0.00172518 8.1446e-07 8.33887e-11 6.88572e-15 6.09525e-19 -3.04753e-19 3.04753e-19 -3.04753e-19 -3.04753e-19 9.12809e-19 -9.12809e-19 0 0 0.101487 0.200207 0.292501 0.406635 0.481526 0.57584 0.640064 0.7294 0.752159 0.868704 0.900475 0.943918 1.03907 1.05645 1.1285 1.1585 1.16837 1.23257 1.28462 1.29387 1.30798 1.36102 1.40093 1.41221 1.46005 1.47907 1.49994 1.53457 1.54627 1.58343 1.59921 1.62148 1.62679 1.57205 1.41354 1.0694 0.450953 0.0385927 0.000264264 5.41623e-08 6.69318e-12 6.67493e-16 6.09507e-19 0 -3.04753e-19 0 -1.45121e-21 0 1.45121e-21 0 0 0.099741 0.188735 0.294901 0.386004 0.483888 0.538802 0.634785 0.678103 0.775708 0.793528 0.903338 0.942533 0.974729 1.04003 1.10197 1.12219 1.16043 1.21499 1.2595 1.27121 1.30973 1.36254 1.38185 1.41655 1.45185 1.46484 1.50014 1.52424 1.53648 1.57388 1.58656 1.61671 1.59977 1.51746 1.29272 0.866077 0.231846 0.0096772 2.54372e-05 3.82277e-09 4.91407e-13 4.11099e-17 -3.04753e-19 0 0 0 -1.45121e-21 -3.03302e-19 6.09507e-19 0 0 0.0945287 0.191388 0.27826 0.383884 0.4507 0.536017 0.588429 0.686279 0.715755 0.817748 0.836584 0.917604 0.979651 1.00413 1.0809 1.08458 1.16265 1.20484 1.22903 1.26016 1.31255 1.33929 1.37328 1.42373 1.43217 1.45736 1.5024 1.49939 1.54487 1.54831 1.58323 1.60064 1.56105 1.43416 1.14495 0.599702 0.0878811 0.00163392 1.43519e-06 2.61752e-10 3.78197e-14 6.06637e-19 -3.04753e-19 0 -3.04753e-19 6.09507e-19 -6.09507e-19 6.09507e-19 0 0 0 0.0903251 0.180955 0.266297 0.357945 0.439433 0.501371 0.588416 0.638314 0.73648 0.750248 0.854086 0.872244 0.951333 0.991412 0.994809 1.0907 1.13783 1.1554 1.19783 1.24441 1.29699 1.32556 1.37723 1.40319 1.4182 1.46344 1.4692 1.50328 1.5272 1.53717 1.57462 1.57036 1.50684 1.31347 0.944451 0.323461 0.0231073 0.000168094 5.47308e-08 1.26432e-11 2.19896e-15 3.70212e-24 6.09507e-19 0 -6.09507e-19 6.09507e-19 0 -6.09507e-19 6.09507e-19 0 0 0.0857833 0.170371 0.253989 0.339743 0.422329 0.489604 0.559105 0.638212 0.685788 0.778105 0.787312 0.882914 0.89298 0.955216 1.04344 1.04529 1.10376 1.15455 1.19949 1.23236 1.25479 1.31689 1.35594 1.37305 1.41686 1.43579 1.45614 1.49362 1.50591 1.53276 1.55745 1.52532 1.41727 1.16008 0.660876 0.124646 0.00394195 9.38271e-06 2.34921e-09 5.2385e-13 8.2199e-17 -6.09507e-19 0 6.09507e-19 0 0 -6.09507e-19 6.08055e-19 -6.08055e-19 0 0 0.0816874 0.166019 0.243295 0.331878 0.405515 0.478975 0.541933 0.620813 0.688589 0.728574 0.802405 0.800151 0.916948 0.933193 0.996305 1.04727 1.07921 1.14587 1.17447 1.2243 1.25751 1.30195 1.32668 1.3726 1.40174 1.40842 1.45239 1.47388 1.48789 1.53301 1.51688 1.46528 1.28238 0.943711 0.348716 0.0318017 0.000394652 2.75203e-07 9.41014e-11 2.42735e-14 -1.27763e-21 6.09507e-19 -1.45121e-21 -6.08055e-19 6.09507e-19 -6.09507e-19 6.08055e-19 0 -6.08055e-19 0 0 0.0816272 0.160509 0.241647 0.317548 0.396841 0.459262 0.53789 0.603442 0.668801 0.71106 0.750016 0.841688 0.853215 0.939902 0.962655 0.994079 1.09634 1.11073 1.15597 1.19446 1.25777 1.26356 1.31098 1.35567 1.36471 1.40262 1.43468 1.44257 1.49494 1.49745 1.4776 1.35562 1.116 0.627464 0.124666 0.00500747 1.9724e-05 7.12634e-09 2.54146e-12 6.7785e-16 3.70212e-24 6.09507e-19 -1.45121e-21 -6.08055e-19 6.09507e-19 -6.09507e-19 6.08055e-19 -6.08055e-19 6.09507e-19 0 0 0.0791758 0.157086 0.230847 0.307453 0.379683 0.455955 0.522068 0.587098 0.629896 0.693404 0.755975 0.803577 0.861871 0.859137 0.957114 0.993307 1.03676 1.10952 1.12112 1.18837 1.23331 1.25447 1.30382 1.31313 1.34608 1.39028 1.40273 1.4465 1.47262 1.46666 1.39254 1.21344 0.860856 0.296056 0.0280033 0.000419635 4.60046e-07 2.15781e-10 7.69742e-14 -1.99763e-17 -6.09507e-19 6.09507e-19 -6.09507e-19 6.09507e-19 0 -6.09507e-19 0 6.09507e-19 0 0 0 0.0760255 0.148459 0.219827 0.294699 0.37463 0.443261 0.50264 0.553286 0.618741 0.685315 0.744204 0.775123 0.805731 0.884483 0.903441 0.995657 1.01778 1.07778 1.12171 1.14015 1.19796 1.27504 1.26844 1.29642 1.34046 1.35514 1.39338 1.4384 1.43702 1.40466 1.26797 1.01328 0.50353 0.0896448 0.00346344 1.62869e-05 7.99973e-09 4.31154e-12 1.95344e-15 -6.09455e-19 6.08055e-19 1.45121e-21 -6.09507e-19 6.09507e-19 -6.09507e-19 6.08055e-19 1.45121e-21 -6.09507e-19 6.09507e-19 0 0 0.0708635 0.142763 0.215938 0.293465 0.366754 0.422754 0.476772 0.544031 0.616136 0.670951 0.707138 0.751915 0.808105 0.8538 0.915487 0.933235 1.01909 1.07289 1.09031 1.11734 1.17401 1.20728 1.25906 1.29184 1.31111 1.33507 1.38972 1.3999 1.39624 1.28852 1.10246 0.687852 0.195758 0.0149455 0.000217826 2.39904e-07 1.79896e-10 8.85256e-14 6.1482e-19 -6.09507e-19 1.21756e-18 -1.21756e-18 0 6.09507e-19 -6.09507e-19 1.21756e-18 -1.21756e-18 6.08055e-19 -6.08055e-19 0 0 0.0678339 0.144028 0.217305 0.286056 0.347083 0.405945 0.471345 0.543932 0.597201 0.643592 0.690371 0.747635 0.794938 0.837035 0.876813 0.957026 0.970708 1.03969 1.08371 1.12527 1.13898 1.1685 1.23638 1.2643 1.28578 1.33055 1.35019 1.36142 1.28358 1.14944 0.815053 0.328392 0.0410174 0.00139878 4.5131e-06 3.53562e-09 2.33382e-12 1.68541e-15 -6.06356e-19 6.09507e-19 -6.09507e-19 6.08055e-19 1.45121e-21 -6.09507e-19 6.09507e-19 -6.09507e-19 6.08055e-19 0 -6.08055e-19 0 0 0.0722541 0.144045 0.209642 0.269568 0.335795 0.403543 0.469428 0.522755 0.577838 0.629238 0.687336 0.725856 0.773103 0.819131 0.880737 0.91325 0.966847 1.00382 1.06736 1.08925 1.12177 1.17574 1.19337 1.24209 1.28044 1.29807 1.30584 1.25788 1.15251 0.885143 0.455596 0.0813422 0.00530837 3.97396e-05 5.08612e-08 4.65019e-11 4.00807e-14 -4.11371e-17 -6.09507e-19 6.09507e-19 -6.09507e-19 6.08055e-19 1.45121e-21 -6.09507e-19 6.09507e-19 -6.09507e-19 6.08055e-19 -6.08055e-19 6.09507e-19 0 0 0.0702654 0.133019 0.197279 0.265946 0.334396 0.398246 0.452434 0.51138 0.567441 0.622139 0.657548 0.709716 0.757854 0.815759 0.843284 0.899294 0.93854 1.00191 1.01579 1.06359 1.11744 1.14134 1.18104 1.2296 1.25784 1.26485 1.22385 1.12406 0.9136 0.541611 0.127511 0.013341 0.000187433 5.94966e-07 4.94892e-10 5.37438e-13 3.68831e-16 1.21902e-18 0 0 0 -1.21901e-18 1.21901e-18 0 0 0 -1.21901e-18 1.82707e-18 -1.21756e-18 0 0 0.0642734 0.128406 0.196426 0.262345 0.322565 0.380285 0.442805 0.501061 0.553536 0.595996 0.650102 0.697469 0.749643 0.779699 0.838939 0.876999 0.931066 0.950188 1.01408 1.04986 1.07414 1.12437 1.17081 1.19544 1.2247 1.18584 1.10245 0.913636 0.579595 0.167198 0.0235566 0.000563143 4.03092e-06 3.01515e-09 5.83763e-12 5.26131e-15 6.08388e-19 -6.08055e-19 6.09507e-19 0 -6.09507e-19 6.08055e-19 -6.08055e-19 6.09507e-19 0 -6.09507e-19 0 6.08055e-19 0 0 0 0.0629318 0.126092 0.18949 0.252838 0.314754 0.374234 0.429503 0.483541 0.536142 0.591393 0.635786 0.681722 0.721649 0.781631 0.81649 0.865979 0.888698 0.962422 0.979926 1.02462 1.0661 1.10667 1.14961 1.16079 1.12582 1.06905 0.887626 0.594679 0.189495 0.0323023 0.00115839 1.39793e-05 1.29281e-08 4.21174e-11 3.49209e-14 4.17306e-17 0 0 -6.08055e-19 0 6.08055e-19 0 0 1.45121e-21 -6.09507e-19 0 1.21756e-18 -1.82707e-18 1.21756e-18 0 0 0.0618364 0.124478 0.187079 0.247865 0.30701 0.363112 0.41911 0.473916 0.525683 0.569052 0.615863 0.663829 0.719049 0.755338 0.801358 0.835696 0.900808 0.915199 0.97452 0.999477 1.05942 1.08426 1.09492 1.08041 1.00755 0.838401 0.576805 0.191067 0.0380758 0.00166521 2.88256e-05 3.94132e-08 1.60779e-10 1.49404e-13 3.90579e-16 6.08792e-19 -6.08781e-19 6.08781e-19 -6.08781e-19 6.08781e-19 0 -6.08781e-19 6.08781e-19 7.25603e-22 -1.21829e-18 1.82707e-18 -6.09507e-19 -1.21756e-18 1.21756e-18 0 0 0.0607561 0.120747 0.180036 0.239803 0.298448 0.354397 0.406283 0.456742 0.507084 0.560457 0.609575 0.655285 0.693736 0.742285 0.785141 0.834637 0.856836 0.918391 0.941841 1.01089 1.00284 1.03948 1.00422 0.938288 0.784909 0.521553 0.175609 0.0376492 0.00183118 4.25672e-05 7.3348e-08 3.57032e-10 4.38255e-13 1.58337e-15 9.6125e-23 -6.08781e-19 -7.25603e-22 7.25603e-22 6.08781e-19 -7.25603e-22 0 7.25603e-22 -6.08781e-19 -7.25603e-22 6.08781e-19 0 -1.21756e-18 1.21756e-18 0 0 0 0.0592421 0.118616 0.177655 0.23483 0.289685 0.343331 0.396571 0.449973 0.503157 0.551491 0.597023 0.640124 0.686728 0.727055 0.768541 0.802324 0.858109 0.890937 0.942047 0.938105 0.97677 0.906876 0.866873 0.689209 0.447324 0.146983 0.0310952 0.00163608 4.25387e-05 8.70446e-08 5.48711e-10 7.9557e-13 3.8224e-15 6.05131e-19 -6.09507e-19 6.09507e-19 -1.45121e-21 1.45121e-21 -6.09507e-19 6.08055e-19 -1.21684e-18 1.82634e-18 -1.21756e-18 6.08055e-19 0 -1.21756e-18 1.21756e-18 1.21756e-18 -2.43512e-18 0 0 0.0578048 0.115451 0.172351 0.229075 0.284142 0.336982 0.38716 0.437562 0.488558 0.539959 0.587473 0.630115 0.668153 0.71066 0.752134 0.800571 0.832501 0.86903 0.875703 0.889858 0.820901 0.774884 0.565122 0.354118 0.104771 0.0221694 0.00112712 2.87562e-05 7.29641e-08 5.48438e-10 9.29535e-13 6.04293e-15 -6.04338e-19 6.09507e-19 -6.09507e-19 6.09507e-19 -1.45121e-21 1.45121e-21 -6.09507e-19 6.08055e-19 -1.21684e-18 1.21684e-18 0 0 -1.21756e-18 1.21756e-18 0 0 0 0 0 0.0564488 0.112693 0.167997 0.222287 0.275389 0.327958 0.379807 0.430754 0.479712 0.52545 0.569147 0.61264 0.655654 0.698318 0.738032 0.766832 0.796032 0.80021 0.791772 0.730642 0.65069 0.437096 0.244308 0.0636487 0.0124915 0.000542476 1.39257e-05 3.90208e-08 3.56317e-10 7.91129e-13 6.04414e-15 -1.21081e-18 0 6.09507e-19 0 -6.09507e-19 6.08055e-19 -6.08055e-19 6.09507e-19 -1.21901e-18 2.43512e-18 -2.43512e-18 1.21756e-18 0 0 0 0 -1.21756e-18 1.21756e-18 0 0 0.0549706 0.10963 0.163601 0.216755 0.268739 0.319628 0.369391 0.418741 0.467079 0.513597 0.557467 0.599759 0.637119 0.670588 0.696393 0.713974 0.708782 0.684939 0.617797 0.500061 0.303124 0.141418 0.0324534 0.00498659 0.00018039 4.01113e-06 1.26911e-08 1.60204e-10 4.33775e-13 3.8236e-15 -6.04338e-19 0 1.21756e-18 -1.21756e-18 6.09507e-19 -1.21901e-18 1.82707e-18 -6.09507e-19 -6.08055e-19 6.08055e-19 0 -1.21756e-18 1.21756e-18 0 0 0 0 -1.21756e-18 1.21756e-18 0 0 0.0531057 0.106062 0.158734 0.210818 0.26286 0.313888 0.36407 0.412103 0.457085 0.498443 0.536351 0.569947 0.598073 0.61634 0.61914 0.601773 0.561585 0.471149 0.334186 0.176204 0.0653896 0.012399 0.00132459 3.8639e-05 5.89981e-07 2.94276e-09 4.18902e-11 1.47021e-13 1.58216e-15 6.05131e-19 -6.09507e-19 6.09507e-19 -1.45121e-21 -6.08055e-19 0 6.08055e-19 -6.08055e-19 6.08055e-19 0 0 0 0 0 -1.21756e-18 1.21756e-18 0 -1.21756e-18 1.21756e-18 0 0 0 0.0522339 0.104326 0.155818 0.206174 0.255698 0.303641 0.350108 0.393076 0.431402 0.464943 0.493187 0.512778 0.518874 0.509667 0.47688 0.407738 0.300146 0.181358 0.0783194 0.0215798 0.00303996 0.000209087 4.41878e-06 4.99739e-08 4.8434e-10 5.77893e-12 3.42207e-14 3.91797e-16 1.07207e-22 -6.08781e-19 6.08781e-19 0 -6.09507e-19 7.25603e-22 6.08055e-19 0 0 -1.21756e-18 1.21756e-18 0 0 0 -1.21756e-18 1.21756e-18 0 0 -1.21756e-18 2.43512e-18 -2.43512e-18 0 0 0.0498472 0.0992634 0.147639 0.194578 0.239805 0.282527 0.32152 0.355268 0.381807 0.399547 0.407588 0.402466 0.375361 0.317767 0.236442 0.148323 0.0711807 0.02238 0.00418033 0.000387338 1.58248e-05 2.33272e-07 3.4482e-09 4.55161e-11 5.27736e-13 5.17906e-15 4.17312e-17 -6.08762e-19 6.09507e-19 -6.08781e-19 6.08781e-19 -6.09507e-19 0 6.08781e-19 0 0 0 0 -1.21756e-18 1.21756e-18 -1.21756e-18 1.21756e-18 0 0 0 -1.21684e-18 1.21684e-18 0 0 0 0 0.0447031 0.0886407 0.13101 0.170993 0.207526 0.239134 0.264273 0.281516 0.288512 0.281017 0.254672 0.210556 0.15618 0.0989851 0.0478044 0.0156534 0.00316426 0.000355481 1.88247e-05 4.44803e-07 7.6528e-09 1.75478e-10 2.25793e-12 3.92571e-14 3.70049e-16 6.08388e-19 0 -6.08055e-19 0 1.21756e-18 -1.21756e-18 6.08055e-19 -6.08055e-19 6.08055e-19 0 0 -1.21756e-18 1.21756e-18 1.21756e-18 -2.43512e-18 0 1.21756e-18 1.21756e-18 -2.43512e-18 1.21756e-18 -1.21684e-18 2.4344e-18 -2.43512e-18 1.21756e-18 0 0 0.0343779 0.0675527 0.0982903 0.125176 0.146334 0.159326 0.161798 0.152901 0.134386 0.109301 0.0795313 0.0477373 0.0213788 0.00658978 0.00130607 0.000149625 8.8475e-06 2.61545e-07 6.70801e-09 2.07477e-10 4.14185e-12 8.50725e-14 1.76891e-15 -4.23561e-17 1.10969e-23 6.08055e-19 0 -6.08055e-19 0 1.21756e-18 -1.21756e-18 6.08055e-19 6.09507e-19 -1.82707e-18 1.21756e-18 0 -1.21756e-18 1.21756e-18 1.21756e-18 -2.43512e-18 1.21756e-18 0 -1.21684e-18 1.21684e-18 -1.21756e-18 2.43512e-18 -1.21756e-18 -1.21756e-18 1.21756e-18 0 0 0.0167532 0.0319687 0.044277 0.0526242 0.0563368 0.0550552 0.048659 0.037693 0.024325 0.0123247 0.00463805 0.00123175 0.000215438 2.26592e-05 1.33055e-06 5.02384e-08 2.16689e-09 8.92143e-11 2.39285e-12 7.30286e-14 1.95222e-15 6.08519e-19 -6.06356e-19 6.09507e-19 0 -6.09507e-19 6.08055e-19 -6.08055e-19 6.09507e-19 -6.09507e-19 6.09507e-19 -6.09507e-19 6.08055e-19 0 -1.21756e-18 1.21756e-18 1.21756e-18 -1.21756e-18 -1.21756e-18 1.21756e-18 0 0 -1.21684e-18 1.21684e-18 0 0 -1.21756e-18 1.21756e-18 0 0 0 0.00339954 0.0060961 0.00753422 0.0074655 0.00608937 0.00404727 0.00213694 0.000867802 0.00026106 5.54971e-05 7.85772e-06 7.13338e-07 4.70269e-08 3.32438e-09 2.37534e-10 1.16467e-11 4.76862e-13 2.28767e-14 7.19022e-16 -1.99764e-17 -6.09458e-19 6.09507e-19 -6.09507e-19 6.09507e-19 0 0 -1.21901e-18 1.82707e-18 -1.21756e-18 6.08055e-19 -6.08055e-19 0 6.08055e-19 0 0 -1.21756e-18 2.43512e-18 -2.43512e-18 1.21756e-18 0 0 -1.21756e-18 1.21756e-18 0 0 0 -1.21756e-18 2.43512e-18 -2.43512e-18 0 0 2.61197e-05 3.92181e-05 3.60495e-05 2.36473e-05 1.1423e-05 4.05393e-06 1.04367e-06 1.96247e-07 2.95624e-08 4.32695e-09 6.24058e-10 7.0925e-11 5.78295e-12 4.20084e-13 3.35849e-14 2.03578e-15 8.22015e-17 -1.21958e-18 1.21829e-18 -6.08781e-19 6.08055e-19 7.25603e-22 -6.08781e-19 6.08781e-19 0 -6.08781e-19 6.08055e-19 0 0 -1.21684e-18 1.21684e-18 0 0 0 0 -1.21756e-18 0 1.21756e-18 0 0 -1.21684e-18 1.21684e-18 0 0 0 -1.21684e-18 1.21684e-18 0 0 0 0 5.21759e-10 7.72515e-10 7.09589e-10 4.82322e-10 2.54332e-10 1.04238e-10 3.26585e-11 7.76161e-12 1.46386e-12 2.48388e-13 4.07183e-14 5.63174e-15 5.86487e-16 4.11156e-17 -6.11673e-19 -7.18199e-22 6.09507e-19 -6.08781e-19 6.08781e-19 -6.08781e-19 1.21756e-18 -1.21829e-18 6.08781e-19 -6.08781e-19 0 6.08781e-19 0 -6.08055e-19 1.21756e-18 -1.82634e-18 1.21684e-18 0 -1.21756e-18 2.43512e-18 -2.43512e-18 1.21756e-18 -1.21756e-18 2.43512e-18 -2.43512e-18 1.21756e-18 -1.21684e-18 1.21684e-18 1.21756e-18 -2.43512e-18 1.21756e-18 -1.21684e-18 2.4344e-18 -2.43512e-18 1.21756e-18 0 0 5.65273e-15 9.04442e-15 9.3091e-15 7.20707e-15 4.37337e-15 2.14275e-15 8.06956e-16 2.46229e-16 5.19875e-17 -3.00342e-19 3.04875e-19 -6.09488e-19 6.09507e-19 -3.04753e-19 3.04753e-19 -6.09507e-19 0 1.21756e-18 -1.21756e-18 6.09507e-19 -6.09507e-19 0 1.21756e-18 -1.21756e-18 0 6.08055e-19 0 -6.08055e-19 6.09507e-19 -1.45121e-21 0 -1.21756e-18 1.