<?xml version="1.0"?>
<VTKFile type="PolyData">
	<PolyData>
		<Piece NumberOfPoints="2601" NumberOfPolys="2500">
			<Points>
				<DataArray type="Float32" NumberOfComponents="3" format="ascii">
 0 0 0 0.522051 0 0 0.317837 0 0 0.460801 0 0 0.45464 0 0 0.487777 0 0 0.509675 0 0 0.531075 0 0 0.550967 0 0 0.566969 0 0 0.583827 0 0 0.596235 0 0 0.611317 0 0 0.622673 0 0 0.635577 0 0 0.645726 0 0 0.65718 0 0 0.66557 0 0 0.67575 0 0 0.683457 0 0 0.69265 0 0 0.699784 0 0 0.707583 0 0 0.714136 0 0 0.720883 0 0 0.727237 0 0 0.73339 0 0 0.738782 0 0 0.744202 0 0 0.749394 0 0 0.754373 0 0 0.759114 0 0 0.763568 0 0 0.767817 0 0 0.771936 0 0 0.775836 0 0 0.779644 0 0 0.783426 0 0 0.7878 0 0 0.793974 0 0 0.804053 0 0 0.820267 0 0 0.840001 0 0 0.86 0 0 0.88 0 0 0.9 0 0 0.92 0 0 0.94 0 0 0.96 0 0 0.98 0 0 1 0 0 0 0.522051 0 0.176071 0.176071 0 0.456408 0.216723 0 0.369823 0.186446 0 0.452976 0.115746 0 0.476949 0.103279 0 0.504859 0.0918079 0 0.527253 0.0815683 0 0.5462 0.0760213 0 0.565057 0.0695985 0 0.579544 0.0643145 0 0.595984 0.0590501 0 0.608292 0.0548014 0 0.622409 0.0512018 0 0.633294 0.0484983 0 0.645652 0.046094 0 0.655006 0.0437949 0 0.665753 0.0416856 0 0.673791 0.0396135 0 0.683584 0.0378061 0 0.69116 0.0361511 0 0.699646 0.0347282 0 0.706527 0.0334548 0 0.713794 0.0322475 0 0.720278 0.031122 0 0.726836 0.0300267 0 0.732742 0.0289547 0 0.738389 0.0279583 0 0.743759 0.0270742 0 0.749036 0.0262771 0 0.753976 0.0255419 0 0.758761 0.024843 0 0.763233 0.024168 0 0.767501 0.0235133 0 0.771644 0.0228875 0 0.775562 0.0222944 0 0.779387 0.0217404 0 0.783184 0.0212257 0 0.787585 0.0207601 0 0.793805 0.0203711 0 0.803959 0.0201109 0 0.820254 0.0200124 0 0.840001 0.0200001 0 0.86 0.02 0 0.88 0.02 0 0.9 0.02 0 0.92 0.02 0 0.94 0.02 0 0.96 0.02 0 0.98 0.02 0 1 0.02 0 0 0.317837 0 0.216723 0.456408 0 0.205279 0.205279 0 0.405011 0.284389 0 0.401175 0.230125 0 0.450172 0.194801 0 0.482742 0.172905 0 0.509545 0.161634 0 0.53323 0.146535 0 0.552594 0.136383 0 0.572165 0.12522 0 0.587091 0.11629 0 0.603747 0.108103 0 0.616115 0.101788 0 0.629897 0.096336 0 0.640605 0.0916655 0 0.652504 0.0872988 0 0.661377 0.0828629 0 0.671992 0.0788964 0 0.680106 0.0751562 0 0.689619 0.0719618 0 0.696972 0.0691571 0 0.704933 0.0666268 0 0.71176 0.0642973 0 0.71889 0.0620117 0 0.725192 0.0598146 0 0.73124 0.0577025 0 0.737081 0.0557899 0 0.742557 0.0540434 0 0.74788 0.0524678 0 0.752853 0.0509994 0 0.757693 0.0496074 0 0.762246 0.0482539 0 0.76657 0.0469472 0 0.770769 0.045701 0 0.77475 0.044525 0 0.778613 0.0434273 0 0.78246 0.0424058 0 0.786943 0.0414825 0 0.793303 0.0407145 0 0.803684 0.0402082 0 0.820217 0.0400218 0 0.84 0.0400001 0 0.86 0.04 0 0.88 0.04 0 0.9 0.04 0 0.92 0.04 0 0.94 0.04 0 0.96 0.04 0 0.98 0.04 0 1 0.04 0 0 0.460801 0 0.186446 0.369823 0 0.284389 0.405011 0 0.234921 0.234921 0 0.35439 0.322125 0 0.415872 0.260227 0 0.453784 0.248248 0 0.486551 0.223952 0 0.513764 0.211984 0 0.538535 0.194398 0 0.558273 0.182037 0 0.578364 0.169153 0 0.593357 0.159332 0 0.609534 0.150196 0 0.621799 0.143035 0 0.635291 0.136114 0 0.645685 0.129415 0 0.657399 0.123184 0 0.666431 0.117069 0 0.677027 0.111792 0 0.685187 0.107084 0 0.694153 0.103007 0 0.701371 0.0993953 0 0.709186 0.0959398 0 0.716021 0.0926132 0 0.722679 0.0893054 0 0.728861 0.0862316 0 0.734986 0.083404 0 0.740556 0.0808331 0 0.745963 0.0784901 0 0.751027 0.0763026 0 0.755934 0.0742033 0 0.760624 0.0721739 0 0.76505 0.0702213 0 0.769331 0.0683721 0 0.77341 0.0666345 0 0.77733 0.0650101 0 0.781262 0.0634973 0 0.785884 0.0621314 0 0.792486 0.0610045 0 0.803252 0.0602802 0 0.820167 0.0600261 0 0.84 0.0600001 0 0.86 0.06 0 0.88 0.06 0 0.9 0.06 0 0.92 0.06 0 0.94 0.06 0 0.96 0.06 0 0.98 0.06 0 1 0.06 0 0 0.45464 0 0.115746 0.452976 0 0.230125 0.401175 0 0.322125 0.35439 0 0.303425 0.303425 0 0.37518 0.349332 0 0.427968 0.286604 0 0.463765 0.285922 0 0.49417 0.260847 0 0.520119 0.249429 0 0.544286 0.23165 0 0.563351 0.219782 0 0.582648 0.206967 0 0.597179 0.197469 0 0.61313 0.187575 0 0.625466 0.178873 0 0.638982 0.170243 0 0.649509 0.161838 0 0.661446 0.154342 0 0.670647 0.147425 0 0.680935 0.14154 0 0.688838 0.136353 0 0.697504 0.131561 0 0.704916 0.127092 0 0.712418 0.122618 0 0.719068 0.118383 0 0.72579 0.114386 0 0.731953 0.110718 0 0.73782 0.107359 0 0.743289 0.104279 0 0.748532 0.101364 0 0.753522 0.0985564 0 0.758392 0.0958567 0 0.762965 0.0932802 0 0.767352 0.0908522 0 0.771557 0.0885814 0 0.77555 0.0864507 0 0.779604 0.0844631 0 0.784429 0.0826743 0 0.791383 0.0812187 0 0.802702 0.0803192 0 0.820113 0.0800249 0 0.84 0.0800001 0 0.86 0.08 0 0.88 0.08 0 0.9 0.08 0 0.92 0.08 0 0.94 0.08 0 0.96 0.08 0 0.98 0.08 0 1 0.08 0 0 0.487777 0 0.103279 0.476949 0 0.194801 0.450172 0 0.260227 0.415872 0 0.349332 0.37518 0 0.363335 0.363335 0 0.404934 0.358073 0 0.439415 0.314346 0 0.473381 0.316361 0 0.501465 0.291114 0 0.525388 0.281454 0 0.548275 0.264182 0 0.566474 0.253186 0 0.585541 0.239876 0 0.600224 0.22974 0 0.616209 0.218623 0 0.628731 0.20851 0 0.642345 0.198927 0 0.65305 0.18993 0 0.664776 0.182161 0 0.673759 0.175175 0 0.683614 0.168886 0 0.691609 0.163113 0 0.700108 0.157411 0 0.707431 0.152008 0 0.714963 0.146807 0 0.721754 0.14204 0 0.728187 0.137581 0 0.734251 0.133525 0 0.739945 0.129705 0 0.745362 0.126078 0 0.750531 0.122574 0 0.755569 0.119239 0 0.760338 0.116077 0 0.764851 0.11311 0 0.769195 0.110334 0 0.773287 0.107713 0 0.777505 0.105268 0 0.782604 0.103082 0 0.790034 0.10134 0 0.802088 0.100322 0 0.820067 0.10002 0 0.84 0.1 0 0.86 0.1 0 0.88 0.1 0 0.9 0.1 0 0.92 0.1 0 0.94 0.1 0 0.96 0.1 0 0.98 0.1 0 1 0.1 0 0 0.509675 0 0.0918079 0.504859 0 0.172905 0.482742 0 0.248248 0.453784 0 0.286604 0.427968 0 0.358073 0.404934 0 0.388457 0.388457 0 0.423107 0.374867 0 0.450651 0.33956 0 0.480959 0.343249 0 0.507872 0.316861 0 0.530301 0.309104 0 0.552445 0.291474 0 0.570189 0.281038 0 0.589119 0.266798 0 0.603732 0.256043 0 0.619599 0.244319 0 0.632005 0.233926 0 0.645316 0.224404 0 0.655712 0.21561 0 0.667026 0.207704 0 0.675991 0.200469 0 0.685657 0.193445 0 0.693656 0.186891 0 0.702125 0.180494 0 0.709735 0.174642 0 0.717036 0.169049 0 0.72361 0.163942 0 0.729988 0.159162 0 0.735928 0.154655 0 0.741601 0.150329 0 0.746993 0.146196 0 0.752203 0.14227 0 0.757182 0.138582 0 0.761841 0.135107 0 0.766334 0.131846 0 0.770564 0.128753 0 0.774993 0.125875 0 0.78045 0.12333 0 0.788496 0.121358 0 0.801478 0.120291 0 0.820034 0.120013 0 0.84 0.12 0 0.86 0.12 0 0.88 0.12 0 0.9 0.12 0 0.92 0.12 0 0.94 0.12 0 0.96 0.12 0 0.98 0.12 0 1 0.12 0 0 0.531075 0 0.0815683 0.527253 0 0.161634 0.509545 0 0.223952 0.486551 0 0.285922 0.463765 0 0.314346 0.439415 0 0.374867 0.423107 0 0.407983 0.407983 0 0.437598 0.392721 0 0.461754 0.362284 0 0.487708 0.36694 0 0.513631 0.338475 0 0.535009 0.333051 0 0.55661 0.314351 0 0.573826 0.30452 0 0.592358 0.289833 0 0.606685 0.279134 0 0.622127 0.267551 0 0.634329 0.257324 0 0.647316 0.24779 0 0.657633 0.239025 0 0.668785 0.230602 0 0.677682 0.222856 0 0.687281 0.215214 0 0.69561 0.208337 0 0.703961 0.201619 0 0.711326 0.195473 0 0.718485 0.189638 0 0.725013 0.184191 0 0.731379 0.178998 0 0.737271 0.174055 0 0.742967 0.169362 0 0.74833 0.164925 0 0.75352 0.160751 0 0.758352 0.156803 0 0.763005 0.153072 0 0.767414 0.149526 0 0.772113 0.146249 0 0.778022 0.143402 0 0.786838 0.141277 0 0.800938 0.140235 0 0.820014 0.140007 0 0.84 0.14 0 0.86 0.14 0 0.88 0.14 0 0.9 0.14 0 0.92 0.14 0 0.94 0.14 0 0.96 0.14 0 0.98 0.14 0 1 0.14 0 0 0.550967 0 0.0760213 0.5462 0 0.146535 0.53323 0 0.211984 0.513764 0 0.260847 0.49417 0 0.316361 0.473381 0 0.33956 0.450651 0 0.392721 0.437598 0 0.425199 0.425199 0 0.451191 0.408455 0 0.473893 0.382907 0 0.496573 0.38615 0 0.520323 0.35668 0 0.540496 0.353316 0 0.561292 0.333532 0 0.577778 0.324705 0 0.595749 0.309959 0 0.609652 0.299658 0 0.624589 0.288252 0 0.636562 0.278289 0 0.649271 0.268488 0 0.659382 0.259615 0 0.670327 0.250735 0 0.679498 0.242887 0 0.689071 0.235008 0 0.697164 0.227889 0 0.70533 0.220983 0 0.712627 0.214614 0 0.719644 0.208466 0 0.726284 0.202728 0 0.73249 0.197227 0 0.738456 0.192076 0 0.744026 0.187172 0 0.749385 0.182546 0 0.754433 0.178142 0 0.759242 0.173958 0 0.763878 0.169997 0 0.768917 0.166374 0 0.775392 0.163295 0 0.785152 0.161112 0 0.80052 0.160165 0 0.820005 0.160003 0 0.84 0.16 0 0.86 0.16 0 0.88 0.16 0 0.9 0.16 0 0.92 0.16 0 0.94 0.16 0 0.96 0.16 0 0.98 0.16 0 1 0.16 0 0 0.566969 0 0.0695985 0.565057 0 0.136383 0.552594 0 0.194398 0.538535 0 0.249429 0.520119 0 0.291114 0.501465 0 0.343249 0.480959 0 0.362284 0.461754 0 0.408455 0.451191 0 0.440189 0.440189 0 0.463693 0.422404 0 0.486661 0.401023 0 0.50751 0.400714 0 0.528074 0.372545 0 0.547599 0.37005 0 0.56704 0.349813 0 0.58266 0.342096 0 0.599705 0.327468 0 0.613079 0.317738 0 0.627436 0.306362 0 0.63896 0.296637 0 0.651286 0.286537 0 0.661454 0.277873 0 0.672345 0.26886 0 0.681288 0.260929 0 0.690536 0.252879 0 0.698686 0.24569 0 0.706567 0.238595 0 0.713827 0.23207 0 0.720781 0.225792 0 0.72728 0.219903 0 0.733504 0.2143 0 0.739322 0.20898 0 0.744843 0.203901 0 0.75012 0.199075 0 0.755101 0.194474 0 0.76 0.190153 0 0.765457 0.186251 0 0.772644 0.183023 0 0.783554 0.180893 0 0.800244 0.180098 0 0.820001 0.180001 0 0.84 0.18 0 0.86 0.18 0 0.88 0.18 0 0.9 0.18 0 0.92 0.18 0 0.94 0.18 0 0.96 0.18 0 0.98 0.18 0 1 0.18 0 0 0.583827 0 0.0643145 0.579544 0 0.12522 0.572165 0 0.182037 0.558273 0 0.23165 0.544286 0 0.281454 0.525388 0 0.316861 0.507872 0 0.36694 0.487708 0 0.382907 0.473893 0 0.422404 0.463693 0 0.453287 0.453287 0 0.474935 0.434764 0 0.49815 0.416917 0 0.518365 0.412598 0 0.536349 0.387039 0 0.555219 0.384362 0 0.573194 0.364248 0 0.588051 0.357353 0 0.604105 0.342852 0 0.616879 0.333599 0 0.630534 0.32212 0 0.64185 0.312851 0 0.653976 0.30271 0 0.663824 0.294172 0 0.674253 0.285024 0 0.683164 0.277194 0 0.692136 0.269138 0 0.700038 0.261912 0 0.707817 0.254869 0 0.71484 0.248301 0 0.721731 0.242006 0 0.728133 0.23602 0 0.734257 0.230282 0 0.739956 0.224797 0 0.745445 0.219581 0 0.750618 0.214625 0 0.755825 0.210006 0 0.761
[...]
			<PointData Scalars="VitesseX">
				<DataArray Name="VitesseX" type="Float32" format="ascii">
 0 1.62042 0.229407 1.0185 0.819418 0.950006 0.95046 1.02573 1.03104 1.08493 1.14455 1.14524 1.19891 1.23809 1.24779 1.25803 1.29874 1.32332 1.32604 1.32953 1.3776 1.41798 1.44648 1.46552 1.45205 1.44328 1.55434 1.53656 1.5794 1.55346 1.59703 1.61778 1.62298 1.65662 1.6596 1.66663 1.68027 1.65245 1.53515 1.24625 0.699821 0.0935528 0.00043166 1.04063e-08 1.45352e-13 -7.81996e-20 7.82607e-20 -7.82607e-20 7.82607e-20 0 0 0 0.127646 1.25314 0.521575 0.868472 0.878848 0.968067 1.00924 1.04495 1.07334 1.13917 1.15255 1.18113 1.24126 1.23993 1.24977 1.30218 1.32157 1.31985 1.33887 1.36769 1.43007 1.43726 1.45916 1.44271 1.47257 1.54064 1.53559 1.5716 1.56224 1.59231 1.61836 1.62097 1.65496 1.65968 1.66513 1.68026 1.65161 1.53249 1.24049 0.690498 0.0896317 0.000394153 9.45853e-09 1.34896e-13 -7.82072e-20 7.82607e-20 -7.82607e-20 7.82607e-20 0 0 0 0.798531 0.152681 1.06363 0.660589 0.838412 0.89171 0.970013 0.993586 1.06083 1.0975 1.1183 1.18047 1.20325 1.22465 1.24557 1.28947 1.31398 1.31703 1.32598 1.3782 1.42224 1.44208 1.43158 1.44843 1.50551 1.51389 1.53253 1.55978 1.57859 1.58294 1.61749 1.61724 1.64905 1.6594 1.66203 1.67993 1.64875 1.52427 1.22292 0.662253 0.0786095 0.000299241 7.1191e-09 1.07701e-13 4.1478e-20 -4.14321e-20 4.14321e-20 -4.14321e-20 0 0 0 0.57185 0.759699 0.181095 0.612048 0.735386 0.859247 0.898732 0.969212 1.01796 1.07136 1.10696 1.15573 1.18971 1.2006 1.23499 1.28231 1.29972 1.30422 1.33077 1.37043 1.42969 1.41872 1.42821 1.46332 1.50814 1.48564 1.53547 1.54939 1.58942 1.57772 1.61116 1.61355 1.63945 1.65813 1.65884 1.67882 1.64313 1.50987 1.19291 0.614451 0.0625875 0.000187351 4.46096e-09 7.36826e-14 -8.12877e-20 8.13297e-20 -8.13297e-20 8.13297e-20 0 0 0 0.249782 0.487565 0.716276 0.554013 0.726089 0.789375 0.90332 0.932747 0.996549 1.03138 1.09075 1.13349 1.14978 1.19016 1.22424 1.26548 1.28554 1.29803 1.32426 1.37803 1.40421 1.41138 1.42699 1.47641 1.47677 1.48384 1.53183 1.54352 1.58622 1.58159 1.59849 1.60994 1.62827 1.65494 1.65756 1.67531 1.63384 1.48851 1.14957 0.546768 0.0446165 9.54637e-05 2.3355e-09 4.28863e-14 -7.44344e-22 7.67262e-22 -1.61892e-19 1.61892e-19 0 0 0 0.214836 0.388872 0.446252 0.734858 0.845082 0.812076 0.833263 0.933864 0.960165 1.01564 1.05147 1.09719 1.12701 1.16102 1.211 1.24255 1.26552 1.28618 1.32474 1.35502 1.38992 1.40118 1.44307 1.44437 1.45024 1.49643 1.52181 1.53957 1.57293 1.58623 1.58572 1.60555 1.61891 1.64796 1.65818 1.66874 1.61973 1.45858 1.09175 0.460471 0.0279372 3.88958e-05 1.0174e-09 2.10697e-14 1.61129e-19 -1.61125e-19 1.61125e-19 -1.61125e-19 0 0 0 0.187353 0.322475 0.459587 0.468718 0.664762 0.844952 0.837959 0.860632 0.956249 0.99459 1.03205 1.05686 1.10592 1.1488 1.18301 1.22448 1.24626 1.27515 1.30788 1.33739 1.36569 1.41605 1.42033 1.41623 1.43785 1.50007 1.5092 1.53791 1.55489 1.5855 1.57799 1.59956 1.61402 1.63657 1.65879 1.66008 1.59958 1.41728 1.0173 0.36022 0.0150007 1.24095e-05 3.63474e-10 8.66911e-15 -1.61125e-19 0 1.61125e-19 -1.61125e-19 0 0 0 0.158331 0.309774 0.397533 0.51496 0.541202 0.684508 0.845618 0.87105 0.904361 0.957019 0.997832 1.04572 1.07246 1.12395 1.16431 1.19033 1.23039 1.2563 1.28705 1.31758 1.37008 1.39309 1.38938 1.39846 1.45065 1.47319 1.51104 1.524 1.54565 1.57291 1.57628 1.59076 1.61369 1.62444 1.65713 1.64929 1.5722 1.361 0.92207 0.255408 0.0067147 3.03983e-06 1.04377e-10 2.89486e-15 -3.2225e-19 3.2225e-19 -3.2225e-19 3.2225e-19 0 0 0 0.155967 0.260846 0.397915 0.457538 0.578433 0.602305 0.735827 0.85625 0.894842 0.931397 0.966698 1.01773 1.06081 1.08912 1.13368 1.17467 1.20185 1.23847 1.27012 1.31946 1.35403 1.36021 1.35844 1.41662 1.43852 1.46049 1.50847 1.50724 1.54454 1.55032 1.57645 1.58204 1.61506 1.61658 1.65141 1.63482 1.53667 1.28692 0.799908 0.159209 0.00242678 5.70624e-07 2.38365e-11 7.44591e-16 -1.61125e-19 3.2225e-19 -6.445e-19 6.445e-19 -3.2225e-19 0 0 0.139111 0.259673 0.351749 0.467619 0.514291 0.65809 0.681045 0.770723 0.877509 0.917235 0.976942 0.99624 1.02879 1.08083 1.10653 1.14877 1.1951 1.21899 1.26805 1.30938 1.3225 1.32404 1.3754 1.40855 1.42467 1.45757 1.49635 1.49813 1.53986 1.52946 1.57244 1.57752 1.61286 1.61594 1.64107 1.61262 1.49092 1.19422 0.646727 0.0841788 0.00068266 8.69451e-08 4.44616e-12 1.23251e-16 3.2225e-19 -3.2225e-19 0 0 0 0 0 0.133467 0.234473 0.339188 0.421658 0.534646 0.58153 0.733074 0.737415 0.814901 0.892322 0.934028 1.0119 1.02028 1.05219 1.10251 1.13238 1.17706 1.22112 1.256 1.28578 1.29134 1.33204 1.37629 1.3936 1.41139 1.46235 1.4677 1.50717 1.52148 1.52475 1.55862 1.57949 1.60419 1.61947 1.62695 1.58041 1.42875 1.08135 0.469311 0.0362822 0.000143035 1.23578e-08 7.37615e-13 -2.04826e-17 0 0 3.2225e-19 -6.445e-19 6.445e-19 0 0 0.12001 0.212687 0.31978 0.41128 0.502256 0.594826 0.625777 0.789823 0.794237 0.847669 0.920061 0.951124 1.03925 1.05191 1.07192 1.135 1.15924 1.20714 1.25092 1.25574 1.29152 1.34526 1.36208 1.37028 1.42497 1.43767 1.45912 1.50304 1.50556 1.52549 1.54531 1.58023 1.59616 1.6173 1.61034 1.53864 1.34278 0.939185 0.291727 0.0122245 2.11662e-05 1.73153e-09 1.16464e-13 -1.0247e-17 0 0 3.2225e-19 -3.2225e-19 0 0 0 0.109932 0.204533 0.305069 0.400205 0.482141 0.56184 0.650647 0.678103 0.82565 0.830389 0.872721 0.948885 1.00068 1.05775 1.09644 1.10906 1.15712 1.20061 1.21423 1.25207 1.30777 1.33439 1.3346 1.376 1.41107 1.42314 1.45764 1.48639 1.49853 1.52405 1.53901 1.57431 1.59232 1.60813 1.58535 1.4857 1.23199 0.753043 0.147431 0.00307543 2.11289e-06 2.04979e-10 1.62304e-14 -3.22204e-19 3.2225e-19 -3.2225e-19 -3.2225e-19 9.65215e-19 -9.65215e-19 0 0 0.102008 0.195872 0.28735 0.384704 0.461807 0.545309 0.617857 0.704625 0.722115 0.841859 0.865502 0.91437 0.990139 1.00985 1.09135 1.09784 1.14299 1.18186 1.19375 1.25858 1.30828 1.30162 1.32854 1.3738 1.39225 1.41695 1.45894 1.46036 1.50548 1.5095 1.54092 1.56176 1.5881 1.59394 1.54787 1.41064 1.09747 0.525563 0.0574323 0.000544868 1.4972e-07 1.80921e-11 1.71491e-15 0 -3.2225e-19 0 -1.53452e-21 0 1.53452e-21 0 0 0.0969618 0.180157 0.281195 0.364159 0.458321 0.520059 0.608618 0.660317 0.746359 0.765898 0.863703 0.902343 0.925475 1.02572 1.05093 1.10467 1.14583 1.15239 1.20874 1.26039 1.26655 1.2872 1.33476 1.35842 1.37946 1.42975 1.43235 1.46666 1.49415 1.50291 1.5367 1.55056 1.57973 1.57227 1.50074 1.30555 0.9233 0.297961 0.0163872 6.27266e-05 1.00786e-08 1.32816e-12 1.1263e-16 0 0 0 -1.53452e-21 -3.20715e-19 6.445e-19 0 0 0.0884321 0.180127 0.263141 0.367165 0.430755 0.519299 0.570024 0.659407 0.692117 0.78195 0.79921 0.898249 0.938453 0.960092 1.02445 1.08773 1.0945 1.13344 1.18877 1.23103 1.24441 1.28663 1.32316 1.34352 1.3903 1.41171 1.42684 1.46627 1.47837 1.50364 1.52431 1.54302 1.56806 1.53689 1.43342 1.17369 0.687425 0.128057 0.00324031 4.32126e-06 7.32894e-10 1.02546e-13 9.99977e-18 0 -3.2225e-19 6.445e-19 -6.445e-19 6.445e-19 0 0 0 0.0875011 0.173926 0.26183 0.346684 0.426963 0.482472 0.570076 0.611786 0.702659 0.724734 0.82023 0.841263 0.903392 0.972743 0.985313 1.05368 1.0809 1.13565 1.17494 1.20381 1.23645 1.27691 1.29603 1.3413 1.38471 1.39192 1.42755 1.45534 1.46252 1.50597 1.50454 1.53906 1.54071 1.49087 1.32895 1.00454 0.414164 0.0391687 0.00040959 1.8333e-07 4.07846e-11 7.0114e-15 6.44549e-19 0 -6.445e-19 6.445e-19 0 -6.445e-19 6.445e-19 0 0 0.0835438 0.166422 0.248156 0.329876 0.403322 0.471489 0.536831 0.615418 0.652599 0.746545 0.754608 0.851696 0.871637 0.942013 0.98115 0.990651 1.08336 1.10773 1.12759 1.178 1.21298 1.2496 1.29175 1.33881 1.35634 1.3908 1.42344 1.42448 1.46999 1.47828 1.50372 1.52337 1.50382 1.41797 1.19257 0.761383 0.184558 0.00803946 2.94718e-05 7.3774e-09 1.70925e-12 2.25179e-16 0 6.445e-19 0 0 -6.445e-19 6.42965e-19 -6.42965e-19 0 0 0.0779185 0.157767 0.231889 0.31383 0.38389 0.456155 0.522147 0.587142 0.656661 0.694084 0.783085 0.789467 0.876686 0.893461 0.935801 1.03412 1.03052 1.07907 1.13763 1.17039 1.19464 1.22647 1.28464 1.30994 1.33839 1.38614 1.39022 1.42405 1.44873 1.46422 1.49459 1.49625 1.45156 1.3046 1.0131 0.457132 0.0563156 0.00101573 1.11353e-06 3.33628e-10 7.96225e-14 -1.99068e-17 -1.53452e-21 -6.42965e-19 6.445e-19 -6.445e-19 6.42965e-19 0 -6.42965e-19 0 0 0.0752781 0.147931 0.225692 0.298806 0.378559 0.440405 0.510095 0.570576 0.641641 0.699593 0.730411 0.802678 0.797676 0.908446 0.931101 0.978392 1.02355 1.073 1.1266 1.15303 1.19786 1.2374 1.26114 1.28758 1.34188 1.35899 1.37709 1.41703 1.42638 1.45332 1.48118 1.45461 1.37167 1.15713 0.74609 0.194703 0.0109168 6.94536e-05 2.80571e-08 1.04991e-11 3.12052e-15 6.44534e-19 -1.53452e-21 -6.42965e-19 6.445e-19 -6.445e-19 6.42965e-19 -6.42965e-19 6.445e-19 0 0 0.0727958 0.146478 0.220126 0.297698 0.36455 0.433012 0.492389 0.570439 0.625318 0.676624 0.71551 0.750158 0.84225 0.852257 0.929817 0.964403 0.982396 1.06014 1.08802 1.13641 1.17957 1.22882 1.23632 1.29088 1.32064 1.33266 1.37684 1.38863 1.40968 1.45239 1.43883 1.40142 1.24201 0.957272 0.415412 0.0534833 0.00123115 2.20207e-06 8.95967e-10 2.97555e-13 -7.47399e-19 6.445e-19 -6.445e-19 6.445e-19 0 -6.445e-19 0 6.445e-19 0 0 0 0.073256 0.145418 0.219493 0.288648 0.35663 0.420474 0.493445 0.553201 0.605201 0.642219 0.7003 0.761961 0.8008 0.856873 0.857999 0.953086 0.985806 1.00881 1.07846 1.09659 1.15603 1.19507 1.23807 1.27268 1.28453 1.32774 1.34834 1.36451 1.41037 1.41699 1.40161 1.29185 1.08285 0.647867 0.153197 0.00886838 6.64324e-05 3.97574e-08 2.17206e-11 9.44378e-15 6.43141e-19 1.53452e-21 -6.445e-19 6.445e-19 -6.445e-19 6.42965e-19 1.53452e-21 -6.445e-19 6.445e-19 0 0 0.0714846 0.142032 0.209109 0.277529 0.347263 0.417822 0.478932 0.528559 0.574348 0.636695 0.692921 0.742719 0.774269 0.804169 0.883614 0.897726 0.973083 1.00572 1.06105 1.09716 1.09888 1.17242 1.2389 1.22948 1.27807 1.30629 1.31591 1.35989 1.38775 1.37899 1.31644 1.1499 0.830871 0.303044 0.0349041 0.000738392 1.54991e-06 8.78616e-10 4.2519e-13 1.42968e-16 1.28746e-18 -1.28746e-18 0 6.445e-19 -6.445e-19 1.28746e-18 -1.28746e-18 6.42965e-19 -6.42965e-19 0 0 0.0667324 0.135379 0.200553 0.272962 0.343662 0.403112 0.451219 0.505919 0.568873 0.629099 0.672611 0.708199 0.755254 0.80803 0.842148 0.903646 0.926838 1.00605 1.04318 1.06699 1.11059 1.14788 1.17168 1.23556 1.25119 1.27259 1.3081 1.34129 1.34175 1.31834 1.17669 0.95098 0.463958 0.0901434 0.00401143 2.86556e-05 1.87566e-08 1.55088e-11 9.52592e-15 6.43163e-19 -6.445e-19 6.42965e-19 1.53452e-21 -6.445e-19 6.445e-19 -6.445e-19 6.42965e-19 0 -6.42965e-19 0 0 0.060712 0.13096 0.201395 0.268928 0.329606 0.379772 0.437337 0.501273 0.563232 0.603701 0.649326 0.69721 0.749026 0.78569 0.829483 0.87095 0.948025 0.955135 1.01711 1.07005 1.09894 1.11785 1.16349 1.1996 1.22564 1.26062 1.29255 1.29574 1.2884 1.17768 1.01708 0.594816 0.172413 0.0131004 0.000244585 3.35561e-07 3.50365e-10 2.13476e-13 8.14064e-17 6.445e-19 -6.445e-19 6.42965e-19 1.53452e-21 -6.445e-19 6.445e-19 -6.445e-19 6.42965e-19 -6.42965e-19 6.445e-19 0 0 0.0638437 0.133397 0.198383 0.255526 0.310042 0.371447 0.433441 0.492723 0.539099 0.591905 0.639104 0.690568 0.723229 0.77191 0.817871 0.872966 0.898869 0.958471 0.996603 1.04703 1.06827 1.10802 1.1506 1.16985 1.21998 1.24804 1.25529 1.24722 1.16148 1.02965 0.681262 0.262572 0.0296087 0.00115582 3.6441e-06 4.28974e-09 3.40272e-12 3.71747e-15 3.32699e-21 0 0 -1.289e-18 1.289e-18 0 0 0 -1.289e-18 1.93196e-18 -1.28746e-18 0 0 0.066407 0.126717 0.185416 0.244616 0.307267 0.368096 0.424506 0.4762 0.533376 0.581057 0.626644 0.661166 0.716917 0.760005 0.808936 0.834479 0.89875 0.933428 0.98465 1.00729 1.05536 1.09424 1.11409 1.16244 1.20069 1.21808 1.21578 1.13991 1.01638 0.728223 0.331727 0.0513175 0.00337076 2.12258e-05 3.94197e-08 3.88314e-11 5.09819e-14 -6.37751e-19 6.445e-19 0 -6.445e-19 6.42965e-19 -6.42965e-19 6.445e-19 0 -6.445e-19 0 6.42965e-19 0 0 0 0.0611679 0.120614 0.181609 0.243292 0.300824 0.357359 0.41563 0.474276 0.521051 0.564784 0.604476 0.659594 0.700676 0.745978 0.776093 0.838719 0.869818 0.918503 0.943704 1.00705 1.03303 1.05225 1.10941 1.14692 1.15496 1.17076 1.10771 1.00467 0.743438 0.372316 0.0719317 0.00652436 7.52533e-05 2.63784e-07 2.58907e-10 4.42443e-13 3.28508e-16 2.29182e-23 -6.42965e-19 0 6.42965e-19 0 0 1.53452e-21 -6.445e-19 0 1.28746e-18 -1.93196e-18 1.28746e-18 0 0 0.0585278 0.117316 0.176818 0.235844 0.294134 0.350929 0.405283 0.455064 0.505354 0.553937 0.602863 0.640693 0.684596 0.72533 0.781704 0.808593 0.858666 0.885367 0.954568 0.96336 1.00677 1.05471 1.08225 1.11128 1.11773 1.04679 0.967035 0.728461 0.393417 0.0849306 0.00959252 0.000170946 9.84066e-07 1.07489e-09 2.74973e-12 2.56707e-15 -6.4026e-19 6.43732e-19 -6.43732e-19 6.43732e-19 0 -6.43732e-19 6.43732e-19 7.67262e-22 -1.28823e-18 1.93196e-18 -6.445e-19 -1.28746e-18 1.28746e-18 0 0 0.0571369 0.116165 0.175182 0.233524 0.289176 0.342489 0.394522 0.448632 0.497968 0.542643 0.58094 0.626997 0.67241 0.72099 0.750627 0.799752 0.835045 0.892698 0.901494 0.965385 0.987568 1.03228 1.05397 1.05105 1.00337 0.915732 0.679589 0.38046 0.0880185 0.0118621 0.000260926 2.21007e-06 2.86241e-09 1.02915e-11 1.25038e-14 -4.16759e-17 -7.67262e-22 7.67262e-22 6.43732e-19 -7.67262e-22 0 7.67262e-22 -6.43732e-19 -7.67262e-22 6.43732e-19 0 -1.28746e-18 1.28746e-18 0 0 0 0.0573638 0.11413 0.170562 0.226937 0.282255 0.335364 0.385896 0.432619 0.478626 0.524746 0.571217 0.613352 0.65576 0.694874 0.74568 0.783232 0.827874 0.850276 0.913388 0.929289 0.984061 0.976051 0.990687 0.935074 0.848217 0.624859 0.339707 0.0796345 0.0117661 0.000301337 3.50407e-06 4.8732e-09 2.36491e-11 3.50694e-14 6.09572e-17 6.445e-19 -1.53452e-21 1.53452e-21 -6.445e-19 6.42965e-19 -1.2867e-18 1.9312e-18 -1.28746e-18 6.42965e-19 0 -1.28746e-18 1.28746e-18 1.28746e-18 -2.57493e-18 0 0 0.0561407 0.112389 0.168104 0.22191 0.273025 0.32328 0.372803 0.422835 0.471634 0.517099 0.558263 0.600587 0.643032 0.688877 0.725851 0.766501 0.80225 0.855226 0.876118 0.920565 0.907925 0.925864 0.841036 0.772556 0.534012 0.282469 0.0649165 0.00938653 0.000258252 3.50206e-06 5.85516e-09 3.82303e-11 6.01176e-14 2.26459e-16 -6.44481e-19 6.445e-19 -1.53452e-21 1.53452e-21 -6.445e-19 6.42965e-19 -1.2867e-18 1.2867e-18 0 0 -1.28746e-18 1.28746e-18 0 0 0 0 0 0.054572 0.108896 0.162351 0.214769 0.265839 0.315489 0.363537 0.410675 0.458181 0.505081 0.55035 0.591528 0.631787 0.670231 0.713193 0.752165 0.795178 0.816664 0.85079 0.841935 0.838837 0.752872 0.67249 0.416977 0.212953 0.0442674 0.00630892 0.000168425 2.20603e-06 4.84401e-09 3.82062e-11 7.20262e-14 3.69539e-16 6.44523e-19 0 -6.445e-19 6.42965e-19 -6.42965e-19 6.445e-19 -1.289e-18 2.57493e-18 -2.57493e-18 1.28746e-18 0 0 0 0 -1.28746e-18 1.28746e-18 0 0 0.053336 0.106334 0.158133 0.208584 0.258125 0.30733 0.356319 0.405008 0.451697 0.495261 0.537025 0.579226 0.62005 0.661129 0.699003 0.731338 0.755057 0.775373 0.763169 0.739956 0.656737 0.537646 0.301737 0.136238 0.0247361 0.00325201 7.37857e-05 9.80495e-07 2.8357e-09 2.3599e-11 5.98302e-14 3.69539e-16 1.2875e-18 -1.28746e-18 6.445e-19 -1.289e-18 1.93196e-18 -6.445e-19 -6.42965e-19 6.42965e-19 0 -1.28746e-18 1.28746e-18 0 0 0 0 -1.28746e-18 1.28746e-18 0 0 0.0516444 0.102883 0.153625 0.203445 0.252519 0.300382 0.347335 0.393384 0.43893 0.483264 0.52572 0.566307 0.604199 0.637204 0.66489 0.683868 0.690055 0.670295 0.630574 0.532285 0.384173 0.192278 0.0704709 0.0111235 0.00111844 2.07731e-05 2.62161e-07 1.05983e-09 1.02465e-11 3.4741e-14 2.2517e-16 6.44523e-19 -1.53452e-21 -6.42965e-19 0 6.42965e-19 -6.42965e-19 6.42965e-19 0 0 0 0 0 -1.28746e-18 1.28746e-18 0 -1.28746e-18 1.28746e-18 0 0 0 0.0499882 0.0996026 0.14869 0.197557 0.246059 0.294423 0.341944 0.38764 0.430359 0.470017 0.50698 0.541188 0.569634 0.591341 0.599073 0.590477 0.561 0.497798 0.378435 0.234057 0.0997194 0.0278659 0.00355287 0.000237768 3.5739e-06 3.89834e-08 2.54307e-10 2.73015e-12 1.22985e-14 6.09579e-17 6.43752e-19 0 -6.445e-19 7.67262e-22 6.42965e-19 0 0 -1.28746e-18 1.28746e-18 0 0 0 -1.28746e-18 1.28746e-18 0 0 -1.28746e-18 2.57493e-18 -2.57493e-18 0 0 0.0486604 0.0973073 0.145609 0.193516 0.240356 0.286107 0.330033 0.371275 0.408402 0.441345 0.470143 0.492038 0.502273 0.498097 0.476304 0.424075 0.334511 0.220227 0.112694 0.0375721 0.00745002 0.000682352 2.80197e-05 3.2774e-07 4.21956e-09 3.80524e-11 4.37885e-13 2.64785e-15 -4.03877e-17 -6.43732e-19 6.43732e-19 -6.445e-19 0 6.43732e-19 0 0 0 0 -1.28746e-18 1.28746e-18 -1.28746e-18 1.28746e-18 0 0 0 -1.2867e-18 1.2867e-18 0 0 0 0 0.0465187 0.092858 0.138591 0.183269 0.226397 0.267211 0.304766 0.337936 0.365255 0.384957 0.395718 0.395262 0.376863 0.331592 0.259516 0.17582 0.0955352 0.0365145 0.00851773 0.00109926 6.33923e-05 1.5147e-06 1.80928e-08 3.44073e-10 3.30885e-12 5.03249e-14 3.28501e-16 -6.39493e-19 0 1.28746e-18 -1.28746e-18 6.42965e-19 -6.42965e-19 6.42965e-19 0 0 -1.28746e-18 1.28746e-18 1.28746e-18 -2.57493e-18 0 1.28746e-18 1.28746e-18 -2.57493e-18 1.28746e-18 -1.2867e-18 2.57416e-18 -2.57493e-18 1.28746e-18 0 0 0.0419518 0.0834207 0.123735 0.162081 0.197442 0.228451 0.253718 0.272142 0.282133 0.28005 0.26083 0.222769 0.171856 0.116322 0.0633108 0.0243902 0.00606245 0.000877833 6.51111e-05 2.12578e-06 3.80724e-08 8.48831e-10 1.5108e-11 2.06206e-13 3.71618e-15 6.48133e-19 2.29182e-23 -6.42965e-19 0 1.28746e-18 -1.28746e-18 6.42965e-19 6.445e-19 -1.93196e-18 1.28746e-18 0 -1.28746e-18 1.28746e-18 1.28746e-18 -2.57493e-18 1.28746e-18 0 -1.2867e-18 1.2867e-18 -1.28746e-18 2.57493e-18 -1.28746e-18 -1.28746e-18 1.28746e-18 0 0 0.0326469 0.064355 0.0940607 0.1205 0.142041 0.156533 0.161635 0.155943 0.140242 0.117269 0.0892665 0.0580096 0.0291639 0.0103852 0.00244933 0.000351705 2.72921e-05 1.0597e-06 2.63275e-08 8.53915e-10 2.09074e-11 4.06588e-13 9.36182e-15 8.26888e-17 3.32699e-21 -6.445e-19 6.42965e-19 -6.42965e-19 6.445e-19 -6.445e-19 6.445e-19 -6.445e-19 6.42965e-19 0 -1.28746e-18 1.28746e-18 1.28746e-18 -1.28746e-18 -1.28746e-18 1.28746e-18 0 0 -1.2867e-18 1.2867e-18 0 0 -1.28746e-18 1.28746e-18 0 0 0 0.0165612 0.0317371 0.0442371 0.0530099 0.0573787 0.057028 0.0518594 0.0421033 0.0291533 0.0162213 0.00683703 0.00207203 0.000425426 5.43699e-05 3.96895e-06 1.69293e-07 6.73366e-09 3.13353e-10 9.92886e-12 2.78954e-13 9.15655e-15 1.4426e-16 -6.45837e-19 6.445e-19 0 0 -1.289e-18 1.93196e-18 -1.28746e-18 6.42965e-19 -6.42965e-19 0 6.42965e-19 0 0 -1.28746e-18 2.57493e-18 -2.57493e-18 1.28746e-18 0 0 -1.28746e-18 1.28746e-18 0 0 0 -1.28746e-18 2.57493e-18 -2.57493e-18 0 0 0.0036421 0.00660909 0.00833852 0.00852184 0.00725785 0.00510974 0.00290269 0.00128908 0.00043162 0.000104325 1.72061e-05 1.83214e-06 1.30977e-07 8.6934e-09 6.54769e-10 3.75321e-11 1.55678e-12 7.33388e-14 3.12202e-15 -7.46975e-19 6.43133e-19 7.67262e-22 -6.43732e-19 6.43732e-19 0 -6.43732e-19 6.42965e-19 0 0 -1.2867e-18 1.2867e-18 0 0 0 0 -1.28746e-18 0 1.28746e-18 0 0 -1.2867e-18 1.2867e-18 0 0 0 -1.2867e-18 1.2867e-18 0 0 0 0 3.728e-05 5.70993e-05 5.42576e-05 3.72884e-05 1.91321e-05 7.3118e-06 2.05007e-06 4.18332e-07 6.53201e-08 9.272e-09 1.35546e-09 1.71286e-10 1.56303e-11 1.13679e-12 8.90354e-14 6.51865e-15 2.67571e-16 -2.11951e-17 6.43778e-19 -6.43732e-19 1.28746e-18 -1.28823e-18 6.43732e-19 -6.43732e-19 0 6.43732e-19 0 -6.42965e-19 1.28746e-18 -1.9312e-18 1.2867e-18 0 -1.28746e-18 2.57493e-18 -2.57493e-18 1.28746e-18 -1.28746e-18 2.57493e-18 -2.57493e-18 1.28746e-18 -1.2867e-18 1.2867e-18 1.28746e-18 -2.57493e-18 1.28746e-18 -1.2867e-18 2.57416e-18 -2.57493e-18 1.28746e-18 0 0 9.47813e-10 1.39165e-09 1.26654e-09 8.58974e-10 4.5917e-10 1.94781e-10 6.43278e-11 1.62167e-11 3.17491e-12 5.33923e-13 8.72079e-14 1.30059e-14 1.50965e-15 9.1986e-17 1.06442e-17 -6.4445e-19 0 1.28746e-18 -1.28746e-18 6.445e-19 -6.445e-19 0 1.28746e-18 -1.28746e-18 0 6.42965e-19 0 -6.42965e-19 6.445e-19 -1.53452e-21 0 -1.28746e-18 1.28746e-18 0 -1.28746e-18 2.57493e-18 -1.28746e-18 -1.2867e-18 1.2867e-18 -1.28746e-18 2.57493e-18 -1.28746e-18 -1.2867e-18 1.2867e-18 -1.28746e-18 2.57493e-18 -1.28746e-18 -1.28746e-18 1.28746e-18 0 0 1.04561e-14 1.6739e-14 1.72795e-14 1.35168e-14 8.29963e-15 4.10127e-15 1.67298e-15 4.77297e-16 1.4