<?xml version="1.0"?>
<VTKFile type="PolyData">
	<PolyData>
		<Piece NumberOfPoints="2601" NumberOfPolys="2500">
			<Points>
				<DataArray type="Float32" NumberOfComponents="3" format="ascii">
 0 0 0 0.354914 0 0 0.271969 0 0 0.346318 0 0 0.354555 0 0 0.37762 0 0 0.397088 0 0 0.412157 0 0 0.428294 0 0 0.439728 0 0 0.452239 0 0 0.461242 0 0 0.472467 0 0 0.480527 0 0 0.489826 0 0 0.497063 0 0 0.504852 0 0 0.51145 0 0 0.517623 0 0 0.523291 0 0 0.528874 0 0 0.534094 0 0 0.538831 0 0 0.54331 0 0 0.547466 0 0 0.551252 0 0 0.55522 0 0 0.560286 0 0 0.56814 0 0 0.581265 0 0 0.600019 0 0 0.62 0 0 0.64 0 0 0.66 0 0 0.68 0 0 0.7 0 0 0.72 0 0 0.74 0 0 0.76 0 0 0.78 0 0 0.8 0 0 0.82 0 0 0.84 0 0 0.86 0 0 0.88 0 0 0.9 0 0 0.92 0 0 0.94 0 0 0.96 0 0 0.98 0 0 1 0 0 0 0.354914 0 0.157486 0.157486 0 0.324785 0.143447 0 0.304265 0.127189 0 0.350831 0.0890436 0 0.37299 0.0793986 0 0.391751 0.0708735 0 0.410053 0.0637172 0 0.423876 0.0586947 0 0.438392 0.0538506 0 0.448715 0.049385 0 0.460999 0.0455283 0 0.469818 0.0420753 0 0.480312 0.0393453 0 0.488016 0.0370465 0 0.4966 0.0350593 0 0.503713 0.0332686 0 0.510751 0.0315559 0 0.516696 0.0299487 0 0.52266 0.0284947 0 0.528185 0.0271958 0 0.533514 0.0260346 0 0.53831 0.0249849 0 0.542835 0.0240154 0 0.547025 0.0231045 0 0.550851 0.0222486 0 0.554862 0.0214706 0 0.559992 0.0208054 0 0.567943 0.0203112 0 0.581201 0.020061 0 0.600017 0.0200018 0 0.62 0.02 0 0.64 0.02 0 0.66 0.02 0 0.68 0.02 0 0.7 0.02 0 0.72 0.02 0 0.74 0.02 0 0.76 0.02 0 0.78 0.02 0 0.8 0.02 0 0.82 0.02 0 0.84 0.02 0 0.86 0.02 0 0.88 0.02 0 0.9 0.02 0 0.92 0.02 0 0.94 0.02 0 0.96 0.02 0 0.98 0.02 0 1 0.02 0 0 0.271969 0 0.143447 0.324785 0 0.18127 0.18127 0 0.296427 0.206052 0 0.320078 0.174476 0 0.352353 0.151043 0 0.377962 0.135712 0 0.396451 0.125516 0 0.415175 0.114445 0 0.429026 0.105544 0 0.44361 0.0971249 0 0.454281 0.0896364 0 0.46659 0.0834761 0 0.475426 0.0781007 0 0.485367 0.0736536 0 0.493112 0.0697453 0 0.501261 0.0660925 0 0.507905 0.0626507 0 0.514551 0.0594785 0 0.52065 0.0566702 0 0.526321 0.0541212 0 0.531761 0.0518597 0 0.536779 0.0497985 0 0.541407 0.0478864 0 0.545719 0.0460846 0 0.54965 0.04439 0 0.553798 0.0428502 0 0.559119 0.0415402 0 0.567364 0.0405784 0 0.581023 0.0401075 0 0.600013 0.0400027 0 0.62 0.04 0 0.64 0.04 0 0.66 0.04 0 0.68 0.04 0 0.7 0.04 0 0.72 0.04 0 0.74 0.04 0 0.76 0.04 0 0.78 0.04 0 0.8 0.04 0 0.82 0.04 0 0.84 0.04 0 0.86 0.04 0 0.88 0.04 0 0.9 0.04 0 0.92 0.04 0 0.94 0.04 0 0.96 0.04 0 0.98 0.04 0 1 0.04 0 0 0.346318 0 0.127189 0.304265 0 0.206052 0.296427 0 0.205688 0.205688 0 0.281424 0.241853 0 0.327024 0.205609 0 0.354312 0.193701 0 0.380381 0.176151 0 0.399717 0.164934 0 0.418747 0.151721 0 0.432788 0.140907 0 0.447605 0.131146 0 0.458435 0.122616 0 0.470338 0.1155 0 0.479147 0.10924 0 0.488766 0.103532 0 0.496361 0.0981887 0 0.503962 0.0930833 0 0.510932 0.0884881 0 0.517518 0.0842957 0 0.523353 0.0805936 0 0.528995 0.0772969 0 0.534237 0.0742955 0 0.539061 0.0714767 0 0.54356 0.0688203 0 0.547676 0.0663159 0 0.552052 0.0640499 0 0.5577 0.0621376 0 0.566448 0.0607642 0 0.580773 0.0601289 0 0.600008 0.0600025 0 0.62 0.06 0 0.64 0.06 0 0.66 0.06 0 0.68 0.06 0 0.7 0.06 0 0.72 0.06 0 0.74 0.06 0 0.76 0.06 0 0.78 0.06 0 0.8 0.06 0 0.82 0.06 0 0.84 0.06 0 0.86 0.06 0 0.88 0.06 0 0.9 0.06 0 0.92 0.06 0 0.94 0.06 0 0.96 0.06 0 0.98 0.06 0 1 0.06 0 0 0.354555 0 0.0890436 0.350831 0 0.174476 0.320078 0 0.241853 0.281424 0 0.240984 0.240984 0 0.293617 0.264245 0 0.334245 0.228951 0 0.35974 0.223344 0 0.384833 0.205093 0 0.403628 0.194021 0 0.4221 0.180502 0 0.43588 0.169646 0 0.450289 0.159756 0 0.46091 0.151105 0 0.472545 0.143209 0 0.481408 0.135957 0 0.490631 0.128916 0 0.498399 0.122527 0 0.506215 0.11657 0 0.513015 0.111238 0 0.519486 0.106493 0 0.52522 0.102244 0 0.530784 0.0983425 0 0.535834 0.0946686 0 0.540587 0.0911926 0 0.544964 0.0879254 0 0.549671 0.0849866 0 0.555796 0.0825419 0 0.565267 0.080844 0 0.580507 0.0801218 0 0.600004 0.0800016 0 0.62 0.08 0 0.64 0.08 0 0.66 0.08 0 0.68 0.08 0 0.7 0.08 0 0.72 0.08 0 0.74 0.08 0 0.76 0.08 0 0.78 0.08 0 0.8 0.08 0 0.82 0.08 0 0.84 0.08 0 0.86 0.08 0 0.88 0.08 0 0.9 0.08 0 0.92 0.08 0 0.94 0.08 0 0.96 0.08 0 0.98 0.08 0 1 0.08 0 0 0.37762 0 0.0793986 0.37299 0 0.151043 0.352353 0 0.205609 0.327024 0 0.264245 0.293617 0 0.273255 0.273255 0 0.311639 0.278553 0 0.341816 0.249522 0 0.365995 0.246351 0 0.389264 0.227935 0 0.406908 0.217874 0 0.424577 0.204795 0 0.437995 0.194412 0 0.452105 0.184174 0 0.462772 0.175166 0 0.474021 0.166217 0 0.483076 0.158228 0 0.492379 0.150542 0 0.500094 0.143646 0 0.507673 0.137338 0 0.514471 0.13176 0 0.520612 0.126585 0 0.526445 0.121841 0 0.531806 0.117329 0 0.536855 0.113094 0 0.541571 0.109126 0 0.546719 0.105595 0 0.553494 0.102712 0 0.563936 0.100813 0 0.58028 0.100092 0 0.600001 0.100001 0 0.62 0.1 0 0.64 0.1 0 0.66 0.1 0 0.68 0.1 0 0.7 0.1 0 0.72 0.1 0 0.74 0.1 0 0.76 0.1 0 0.78 0.1 0 0.8 0.1 0 0.82 0.1 0 0.84 0.1 0 0.86 0.1 0 0.88 0.1 0 0.9 0.1 0 0.92 0.1 0 0.94 0.1 0 0.96 0.1 0 0.98 0.1 0 1 0.1 0 0 0.397088 0 0.0708735 0.391751 0 0.135712 0.377962 0 0.193701 0.354312 0 0.228951 0.334245 0 0.278553 0.311639 0 0.294643 0.294643 0 0.325185 0.292783 0 0.349785 0.267577 0 0.371475 0.265529 0 0.393306 0.246892 0 0.409961 0.237967 0 0.427008 0.22493 0 0.440138 0.21496 0 0.453826 0.204096 0 0.464404 0.194909 0 0.475654 0.1856 0 0.484655 0.177442 0 0.493417 0.169538 0 0.501236 0.162649 0 0.508552 0.156148 0 0.515174 0.150227 0 0.521344 0.144627 0 0.527071 0.139381 0 0.532443 0.134439 0 0.537562 0.129861 0 0.543274 0.125832 0 0.550907 0.122633 0 0.562611 0.120686 0 0.580125 0.120055 0 0.6 0.12 0 0.62 0.12 0 0.64 0.12 0 0.66 0.12 0 0.68 0.12 0 0.7 0.12 0 0.72 0.12 0 0.74 0.12 0 0.76 0.12 0 0.78 0.12 0 0.8 0.12 0 0.82 0.12 0 0.84 0.12 0 0.86 0.12 0 0.88 0.12 0 0.9 0.12 0 0.92 0.12 0 0.94 0.12 0 0.96 0.12 0 0.98 0.12 0 1 0.12 0 0 0.412157 0 0.0637172 0.410053 0 0.125516 0.396451 0 0.176151 0.380381 0 0.223344 0.35974 0 0.249522 0.341816 0 0.292783 0.325185 0 0.311618 0.311618 0 0.33658 0.305838 0 0.357598 0.283089 0 0.376991 0.281649 0 0.397198 0.262712 0 0.413007 0.254832 0 0.429399 0.241497 0 0.442092 0.232026 0 0.455544 0.220944 0 0.465997 0.21203 0 0.476658 0.202564 0 0.485498 0.194523 0 0.494194 0.18666 0 0.501783 0.179603 0 0.50909 0.172898 0 0.515555 0.166622 0 0.521731 0.160706 0 0.527403 0.155168 0 0.533034 0.150082 0 0.539444 0.14568 0 0.548171 0.142312 0 0.561475 0.140497 0 0.580044 0.140024 0 0.6 0.14 0 0.62 0.14 0 0.64 0.14 0 0.66 0.14 0 0.68 0.14 0 0.7 0.14 0 0.72 0.14 0 0.74 0.14 0 0.76 0.14 0 0.78 0.14 0 0.8 0.14 0 0.82 0.14 0 0.84 0.14 0 0.86 0.14 0 0.88 0.14 0 0.9 0.14 0 0.92 0.14 0 0.94 0.14 0 0.96 0.14 0 0.98 0.14 0 1 0.14 0 0 0.428294 0 0.0586947 0.423876 0 0.114445 0.415175 0 0.164934 0.399717 0 0.205093 0.384833 0 0.246351 0.365995 0 0.267577 0.349785 0 0.305838 0.33658 0 0.325657 0.325657 0 0.346882 0.316607 0 0.365758 0.296575 0 0.383367 0.294439 0 0.4017 0.275804 0 0.416593 0.268863 0 0.432171 0.255381 0 0.444405 0.246681 0 0.457117 0.235419 0 0.467178 0.226869 0 0.477568 0.217565 0 0.486171 0.209608 0 0.494713 0.201731 0 0.502275 0.194589 0 0.509327 0.187689 0 0.515802 0.181282 0 0.521876 0.175225 0 0.528089 0.169767 0 0.535395 0.165135 0 0.54548 0.161809 0 0.560675 0.160293 0 0.580011 0.160008 0 0.6 0.16 0 0.62 0.16 0 0.64 0.16 0 0.66 0.16 0 0.68 0.16 0 0.7 0.16 0 0.72 0.16 0 0.74 0.16 0 0.76 0.16 0 0.78 0.16 0 0.8 0.16 0 0.82 0.16 0 0.84 0.16 0 0.86 0.16 0 0.88 0.16 0 0.9 0.16 0 0.92 0.16 0 0.94 0.16 0 0.96 0.16 0 0.98 0.16 0 1 0.16 0 0 0.439728 0 0.0538506 0.438392 0 0.105544 0.429026 0 0.151721 0.418747 0 0.194021 0.403628 0 0.227935 0.389264 0 0.265529 0.371475 0 0.283089 0.357598 0 0.316607 0.346882 0 0.337142 0.337142 0 0.356372 0.32569 0 0.37378 0.308563 0 0.390542 0.304769 0 0.406828 0.287017 0 0.420919 0.280647 0 0.43524 0.267123 0 0.446682 0.2591 0 0.458861 0.248066 0 0.468504 0.239902 0 0.4784 0.230687 0 0.48699 0.222926 0 0.495184 0.215037 0 0.502626 0.207907 0 0.509459 0.200986 0 0.51598 0.194622 0 0.522891 0.188895 0 0.531329 0.184239 0 0.543129 0.181222 0 0.560236 0.180131 0 0.580002 0.180002 0 0.6 0.18 0 0.62 0.18 0 0.64 0.18 0 0.66 0.18 0 0.68 0.18 0 0.7 0.18 0 0.72 0.18 0 0.74 0.18 0 0.76 0.18 0 0.78 0.18 0 0.8 0.18 0 0.82 0.18 0 0.84 0.18 0 0.86 0.18 0 0.88 0.18 0 0.9 0.18 0 0.92 0.18 0 0.94 0.18 0 0.96 0.18 0 0.98 0.18 0 1 0.18 0 0 0.452239 0 0.049385 0.448715 0 0.0971249 0.44361 0 0.140907 0.432788 0 0.180502 0.4221 0 0.217874 0.406908 0 0.246892 0.393306 0 0.281649 0.376991 0 0.296575 0.365758 0 0.32569 0.356372 0 0.346618 0.346618 0 0.364621 0.333593 0 0.381066 0.319422 0 0.397199 0.313485 0 0.411759 0.297022 0 0.424981 0.290661 0 0.43832 0.277468 0 0.449224 0.270072 0 0.460558 0.259187 0 0.469985 0.251434 0 0.47941 0.242402 0 0.487718 0.234768 0 0.495701 0.227056 0 0.502802 0.219955 0 0.509904 0.213299 0 0.517657 0.207553 0 0.527474 0.203098 0 0.541427 0.20068 0 0.56006 0.20004 0 0.58 0.2 0 0.6 0.2 0 0.62 0.2 0 0.64 0.2 0 0.66 0.2 0 0.68 0.2 0 0.7 0.2 0 0.72 0.2 0 0.74 0.2 0 0.76 0.2 0 0.78 0.2 0 0.8 0.2 0 0.82 0.2 0 0.84 0.2 0 0.86 0.2 0 0.88 0.2 0 0.9 0.2 0 0.92 0.2 0 0.94 0.2 0 0.96 0.2 0 0.98 0.2 0 1 0.2 0 0 0.461242 0 0.0455283 0.460999 0 0.0896364 0.454281 0 0.131146 0.447605 0 0.169646 0.43588 0 0.204795 0.424577 0 0.237967 0.409961 0 0.262712 0.397198 0 0.294439 0.383367 0 0.308563 0.37378 0 0.333593 0.364621 0 0.35449 0.35449 0 0.371827 0.340954 0 0.386935 0.328785 0 0.402508 0.320966 0 0.415956 0.306172 0 0.428783 0.299828 0 0.44104 0.286904 0 0.451564 0.27994 0 0.462305 0.269397 0 0.47124 0.261798 0 0.4804 0.253122 0 0.48837 0.245608 0 0.496054 0.238083 0 0.503755 0.23147 0 0.512634 0.225837 0 0.524165 0.221944 0 0.540485 0.220285 0 0.56001 0.220008 0 0.58 0.22 0 0.6 0.22 0 0.62 0.22 0 0.64 0.22 0 0.66 0.22 0 0.68 0.22 0 0.7 0.22 0 0.72 0.22 0 0.74 0.22 0 0.76 0.22 0 0.78 0.22 0 0.8 0.22 0 0.82 0.22 0 0.84 0.22 0 0.86 0.22 0 0.88 0.22 0 0.9 0.22 0 0.92 0.22 0 0.94 0.22 0 0.96 0.22 0 0.98 0.22 0 1 0.22 0 0 0.472467 0 0.0420753 0.469818
[...]
			<PointData Scalars="VitesseX">
				<DataArray Name="VitesseX" type="Float32" format="ascii">
 0 1.94146 0.746104 1.4643 1.29496 1.44428 1.59648 1.57602 1.64609 1.80267 1.83918 1.82691 1.89188 1.95273 2.01215 2.00554 2.02063 2.11097 2.22373 2.12104 2.22137 2.24507 2.29499 2.34547 2.39642 2.41438 2.32284 2.04675 1.43953 0.466838 0.0134239 3.00002e-06 2.19776e-11 1.63428e-16 1.88727e-20 -3.85003e-20 3.85003e-20 -1.88727e-20 1.88727e-20 -1.88727e-20 1.88727e-20 -3.85003e-20 3.85003e-20 0 0 -3.85003e-20 3.85003e-20 -3.85003e-20 3.85003e-20 0 0 0 0.292863 1.54666 0.966979 1.35552 1.41103 1.57464 1.58033 1.64246 1.76859 1.83645 1.8301 1.88011 1.968 1.98398 2.01352 2.02174 2.13562 2.18288 2.14043 2.2113 2.24518 2.28617 2.34537 2.39419 2.41091 2.31732 2.03711 1.42375 0.448963 0.0122215 2.57272e-06 1.97583e-11 1.48598e-16 1.88727e-20 -3.85003e-20 3.85003e-20 -1.88727e-20 1.88727e-20 -1.88727e-20 1.88727e-20 -3.85003e-20 3.85003e-20 0 0 -3.85003e-20 3.85003e-20 -3.85003e-20 3.85003e-20 0 0 0 0.812017 0.375062 1.27504 1.1289 1.32666 1.47339 1.51272 1.58687 1.72284 1.78371 1.80995 1.87791 1.92203 1.97809 1.9776 2.06742 2.1209 2.11266 2.17822 2.20038 2.24259 2.27015 2.33921 2.39027 2.39905 2.30033 2.0071 1.3755 0.397387 0.00917479 1.62035e-06 1.42546e-11 1.15765e-16 -9.8138e-21 -1.92501e-20 1.92501e-20 4.94464e-20 -4.94464e-20 9.8138e-21 -9.8138e-21 -1.92501e-20 5.88828e-20 -3.96326e-20 0 2.03825e-20 -2.03825e-20 2.03825e-20 -2.03825e-20 0 0 0 0.706768 0.954773 0.497416 0.972899 1.21061 1.367 1.44367 1.52261 1.65145 1.74251 1.77899 1.84128 1.90382 1.92798 1.99618 2.07473 2.08363 2.07041 2.1974 2.19365 2.24528 2.25653 2.32303 2.38225 2.381 2.27043 1.95368 1.29158 0.318937 0.00559388 7.47509e-07 8.118e-12 6.94469e-17 2.03825e-20 -3.96326e-20 3.96326e-20 -2.076e-20 2.076e-20 -2.03825e-20 2.03825e-20 -3.96326e-20 3.96326e-20 0 0 -4.00101e-20 4.00101e-20 -4.00101e-20 4.00101e-20 0 0 0 0.377344 0.726008 1.04268 0.81111 1.08598 1.29836 1.38536 1.46821 1.59002 1.67998 1.74387 1.80276 1.84517 1.92163 1.98416 2.04944 2.03695 2.09687 2.14747 2.20158 2.23897 2.25554 2.2997 2.36687 2.35842 2.22651 1.8724 1.16569 0.226314 0.00270521 2.53279e-07 3.59797e-12 2.06062e-17 0 -3.96326e-20 3.96326e-20 3.92552e-20 -3.92552e-20 0 0 -3.96326e-20 0 3.96326e-20 0 -3.77454e-22 3.77454e-22 -7.96427e-20 7.96427e-20 0 0 0 0.344244 0.590682 0.750064 1.11446 1.12694 1.23233 1.30657 1.43065 1.53586 1.61531 1.69113 1.74605 1.81492 1.89641 1.97652 1.96556 2.0597 2.10375 2.10241 2.20425 2.2129 2.26612 2.27431 2.34437 2.32568 2.16687 1.75987 0.989806 0.137046 0.00100582 6.47618e-08 1.24297e-12 5.10286e-18 -3.96326e-20 0 0 1.18898e-19 -1.18898e-19 3.96326e-20 -3.96326e-20 0 7.92653e-20 -7.92653e-20 0 7.92653e-20 -7.92653e-20 7.92653e-20 -7.92653e-20 0 0 0 0.308861 0.538855 0.748934 0.831261 1.09428 1.20125 1.29787 1.35908 1.47883 1.56761 1.63157 1.69858 1.79129 1.87472 1.89475 1.95504 2.05813 2.08194 2.09043 2.17998 2.18367 2.26912 2.25692 2.31787 2.27531 2.08433 1.6144 0.76303 0.0677973 0.000276123 1.34668e-08 3.44309e-13 5.22091e-18 -7.92653e-20 0 7.92653e-20 -1.58531e-19 1.58531e-19 -7.92653e-20 0 7.92653e-20 -7.92653e-20 7.92653e-20 0 -7.92653e-20 0 7.92653e-20 -7.92653e-20 0 0 0 0.261576 0.50077 0.667532 0.85029 0.898711 1.12341 1.28287 1.37685 1.42192 1.51096 1.58476 1.66187 1.74413 1.79351 1.8555 1.94995 2.02674 2.03548 2.10142 2.11873 2.18058 2.23907 2.25595 2.28283 2.2077 1.96466 1.42723 0.5076 0.0261055 5.29966e-05 2.44758e-09 7.94863e-14 -2.80502e-22 7.92653e-20 -7.92653e-20 7.92653e-20 -1.58531e-19 1.58531e-19 -7.92653e-20 7.92653e-20 -7.92653e-20 0 7.92653e-20 0 -1.58531e-19 1.58531e-19 -1.58531e-19 1.58531e-19 0 0 0 0.252352 0.444925 0.656566 0.763186 0.964736 0.997999 1.21714 1.36859 1.42376 1.47593 1.53883 1.62974 1.66294 1.73765 1.85056 1.93841 1.95075 2.03823 2.06221 2.08545 2.16383 2.20278 2.25012 2.23757 2.12597 1.80395 1.17304 0.273955 0.00742976 6.6346e-06 3.66737e-10 1.50384e-14 -7.92653e-20 0 7.92653e-20 -1.58531e-19 2.37418e-19 -2.37418e-19 7.92653e-20 1.58531e-19 -1.58531e-19 0 -7.92653e-20 1.58531e-19 -7.92653e-20 1.58531e-19 -3.17061e-19 3.17061e-19 -1.58531e-19 0 0 0.229579 0.445958 0.596398 0.788576 0.874306 1.08814 1.10621 1.28608 1.41739 1.45007 1.51438 1.57294 1.63436 1.75595 1.84051 1.86888 1.94338 2.00726 2.02504 2.07736 2.12508 2.18355 2.2343 2.18278 2.01561 1.60824 0.839197 0.11235 0.00146616 5.19632e-07 3.92223e-11 2.11596e-15 7.92653e-20 -7.92653e-20 0 0 2.37418e-19 -2.37418e-19 7.92653e-20 -7.92653e-20 0 0 0 0 1.58531e-19 -1.58531e-19 0 0 0 0 0 0.214373 0.402656 0.580722 0.715906 0.897476 0.965825 1.20313 1.18635 1.33035 1.44878 1.51028 1.5861 1.67467 1.75453 1.7873 1.84387 1.92745 1.97206 2.00395 2.08214 2.07289 2.18138 2.19161 2.11467 1.85737 1.3539 0.480178 0.0328687 0.000182909 2.93182e-08 2.90266e-12 1.90331e-16 1.58531e-19 7.92653e-20 -3.17061e-19 3.17061e-19 -1.58531e-19 0 1.58531e-19 -3.17061e-19 1.58531e-19 1.58531e-19 -1.58531e-19 0 0 0 1.58531e-19 -3.17061e-19 3.17061e-19 0 0 0.191811 0.370634 0.535495 0.692297 0.833188 0.98916 1.05042 1.27743 1.23021 1.39609 1.49152 1.55672 1.68703 1.7317 1.7652 1.85267 1.89814 1.92508 2.03188 2.02965 2.08035 2.15597 2.13939 2.00442 1.66081 0.992678 0.201693 0.00643102 1.27889e-05 1.72999e-09 1.86925e-13 1.59277e-19 -1.58153e-19 0 0 0 0 0 0 0 0 1.58531e-19 -1.58531e-19 0 0 0 1.58531e-19 -1.58531e-19 0 0 0 0.178386 0.352121 0.505976 0.663679 0.800339 0.931181 1.08293 1.13383 1.30134 1.31952 1.43505 1.5535 1.66984 1.70585 1.74191 1.81959 1.84875 1.93806 1.98615 2.019 2.08668 2.1139 2.05587 1.83502 1.39097 0.566133 0.0576584 0.000760168 4.66567e-07 8.85209e-11 1.20158e-14 -1.50657e-21 3.77454e-22 0 1.58531e-19 -1.58531e-19 -1.58531e-19 3.17061e-19 -1.58531e-19 1.58531e-19 -1.58531e-19 -1.58531e-19 3.17061e-19 -1.58531e-19 1.58531e-19 -1.58531e-19 -1.58531e-19 4.74837e-19 -4.74837e-19 0 0 0.171693 0.329072 0.487855 0.629427 0.779501 0.913893 1.03435 1.132 1.17029 1.39061 1.41575 1.51607 1.57802 1.6687 1.77217 1.78388 1.85509 1.93404 1.94402 2.01891 2.08062 2.0469 1.92402 1.61106 0.982976 0.225007 0.0103558 4.71772e-05 1.20678e-08 2.86037e-12 5.15056e-16 -3.17061e-19 3.17061e-19 -1.58531e-19 0 1.58531e-19 -3.17061e-19 3.17061e-19 -1.58531e-19 0 1.58531e-19 -3.17061e-19 3.17061e-19 0 -1.58531e-19 0 -7.54907e-22 0 7.54907e-22 0 0 0.160151 0.314422 0.462277 0.616169 0.761124 0.892224 0.984051 1.08008 1.23161 1.28095 1.43291 1.45563 1.50997 1.64116 1.68734 1.77129 1.84736 1.87271 1.93855 2.01837 2.0172 1.9631 1.723 1.29159 0.507519 0.056451 0.00105632 1.30348e-06 3.88486e-10 8.6982e-14 -1.02708e-17 1.58531e-19 -1.58531e-19 0 0 0 0 0 0 0 1.58531e-19 0 -1.58531e-19 0 0 0 -7.54907e-22 -1.57776e-19 3.17061e-19 0 0 0.149846 0.297961 0.45099 0.60299 0.73856 0.839715 0.947521 1.08169 1.18825 1.27288 1.31643 1.43957 1.53447 1.51533 1.68252 1.75166 1.78519 1.85052 1.93 1.96991 1.94637 1.7821 1.4735 0.810261 0.16712 0.00834525 4.86085e-05 2.07361e-08 8.37552e-12 2.65631e-15 0 1.58531e-19 -3.17061e-19 3.17061e-19 -1.58531e-19 0 0 0 0 1.58531e-19 -3.17061e-19 3.17061e-19 -1.58531e-19 0 -1.58531e-19 3.17061e-19 -3.17061e-19 3.17061e-19 0 0 0 0.14512 0.296377 0.445894 0.575327 0.69022 0.804569 0.944658 1.05332 1.14212 1.21256 1.33961 1.36328 1.47968 1.54046 1.5816 1.73223 1.77024 1.83323 1.88906 1.87683 1.79761 1.54822 1.05354 0.330782 0.033241 0.000570294 9.12386e-07 4.1273e-10 1.49254e-13 3.08624e-17 0 0 1.57776e-19 -1.57776e-19 0 -1.58531e-19 4.74837e-19 -1.57776e-19 -3.17061e-19 3.17061e-19 -3.17061e-19 0 3.17061e-19 0 -3.17061e-19 3.17061e-19 0 -3.17061e-19 3.17061e-19 0 0 0.148846 0.287917 0.415916 0.537946 0.669535 0.804245 0.910048 1.01259 1.0991 1.21503 1.2663 1.34713 1.41574 1.52546 1.56948 1.63272 1.77434 1.81155 1.80893 1.75998 1.54084 1.20554 0.493764 0.0842682 0.00297353 1.72487e-05 8.63729e-09 5.94692e-12 2.91376e-15 0 0 0 1.57776e-19 -3.16306e-19 3.17061e-19 -3.17061e-19 4.74837e-19 -4.74837e-19 1.58531e-19 1.58531e-19 0 -3.17061e-19 0 3.17061e-19 0 0 -3.17061e-19 3.16306e-19 -3.16306e-19 0 0 0.139154 0.259443 0.388151 0.521739 0.652343 0.7615 0.873632 0.981496 1.09762 1.14654 1.24477 1.30289 1.42307 1.45106 1.52592 1.63529 1.71032 1.72954 1.68887 1.52658 1.25726 0.604133 0.152023 0.00876034 0.000140182 1.27946e-07 1.34476e-10 6.64606e-14 6.18798e-21 1.57776e-19 -1.57776e-19 1.58531e-19 -3.17061e-19 1.58531e-19 1.58531e-19 0 -3.17061e-19 0 6.33367e-19 -6.33367e-19 0 3.17061e-19 -7.54907e-22 -3.16306e-19 3.17061e-19 -3.17061e-19 3.16306e-19 0 -3.16306e-19 0 0 0.127818 0.252417 0.381738 0.50306 0.61417 0.735335 0.849378 0.955719 1.03166 1.13857 1.20434 1.30979 1.3207 1.44223 1.52618 1.55827 1.63119 1.6165 1.45957 1.23013 0.673108 0.205608 0.0171401 0.000568078 1.07125e-06 1.45149e-09 8.70525e-13 9.26405e-16 1.58531e-19 1.57776e-19 -1.57776e-19 0 0 1.58531e-19 -3.17061e-19 3.17061e-19 -7.54907e-22 7.54907e-22 -7.54907e-22 -3.16306e-19 0 3.17061e-19 -7.54907e-22 -3.16306e-19 3.17061e-19 -3.17061e-19 3.16306e-19 -3.16306e-19 3.17061e-19 0 0 0.12663 0.246543 0.363011 0.483887 0.610675 0.723744 0.820881 0.909764 1.02142 1.10343 1.18462 1.22163 1.35554 1.38134 1.48628 1.51056 1.46059 1.38358 1.18157 0.661258 0.228277 0.0257677 0.00120475 4.55005e-06 9.01856e-09 7.26045e-12 1.13054e-14 -1.57964e-19 1.58531e-19 -4.75592e-19 4.75592e-19 -1.58531e-19 1.58531e-19 0 -3.17061e-19 0 3.16306e-19 7.54907e-22 -3.17061e-19 3.17061e-19 -3.17061e-19 3.17061e-19 -3.17061e-19 3.17061e-19 0 -3.17061e-19 0 3.17061e-19 0 0 0 0.121233 0.240195 0.356378 0.472615 0.584607 0.693975 0.80011 0.902142 0.98367 1.06468 1.13544 1.24531 1.28019 1.37707 1.3499 1.37728 1.25442 1.05061 0.60902 0.222307 0.0276919 0.00167284 1.15472e-05 2.8713e-08 3.30437e-11 7.12372e-14 1.60804e-19 -1.58531e-19 1.58531e-19 -3.17061e-19 3.17061e-19 -3.17061e-19 3.17061e-19 0 -3.17061e-19 3.16306e-19 -3.16306e-19 0 3.17061e-19 -3.17061e-19 3.16306e-19 7.54907e-22 -3.17061e-19 3.17061e-19 -3.17061e-19 3.16306e-19 7.54907e-22 -3.17061e-19 3.17061e-19 0 0 0.116902 0.232194 0.345622 0.458531 0.573997 0.685769 0.784915 0.872201 0.964983 1.04994 1.13762 1.18071 1.24787 1.22573 1.23799 1.08696 0.9322 0.488349 0.184142 0.0247148 0.00166724 1.41058e-05 4.95057e-08 9.0187e-11 2.16723e-13 1.64952e-16 -1.58531e-19 -1.58531e-19 3.17061e-19 0 -3.17061e-19 3.16306e-19 -3.16306e-19 3.17061e-19 -3.17061e-19 6.33367e-19 -6.33367e-19 0 3.17061e-19 -3.17061e-19 6.33367e-19 -6.33367e-19 0 3.17061e-19 -3.17061e-19 6.33367e-19 -6.33367e-19 3.16306e-19 -3.16306e-19 0 0 0.113677 0.227273 0.338732 0.448077 0.553266 0.656084 0.756311 0.852635 0.940533 1.0127 1.06707 1.113 1.09627 1.07175 0.927192 0.73586 0.350317 0.132196 0.0157463 0.00118969 1.15052e-05 4.94612e-08 1.12307e-10 3.58356e-13 5.76621e-16 0 1.57776e-19 -1.57776e-19 -1.58531e-19 3.17061e-19 -3.17061e-19 6.33367e-19 -6.33367e-19 0 3.17061e-19 -3.17061e-19 3.16306e-19 7.54907e-22 -3.17061e-19 3.17061e-19 -3.17061e-19 3.16306e-19 7.54907e-22 -3.17061e-19 3.17061e-19 -3.17061e-19 3.16306e-19 0 -3.16306e-19 0 0 0.110917 0.221499 0.330331 0.437394 0.540858 0.640718 0.732928 0.811633 0.882991 0.933054 0.958233 0.941556 0.891508 0.734785 0.509286 0.22313 0.0713149 0.00783876 0.000560718 4.51053e-06 2.85987e-08 8.99032e-11 3.58026e-13 7.41405e-16 0 0 -7.54907e-22 1.59285e-19 -3.17061e-19 3.17061e-19 0 -3.17061e-19 3.17061e-19 -3.17061e-19 3.17061e-19 -3.17061e-19 3.16306e-19 7.54907e-22 -3.17061e-19 3.17061e-19 -3.17061e-19 3.16306e-19 7.54907e-22 -3.17061e-19 3.17061e-19 -3.17061e-19 3.16306e-19 -3.16306e-19 3.17061e-19 0 0 0.10625 0.211753 0.314761 0.415175 0.510417 0.598421 0.676435 0.739585 0.778085 0.787418 0.758395 0.673158 0.501737 0.298543 0.114463 0.0280165 0.00271386 0.000138245 1.05613e-06 8.96717e-09 3.27532e-11 2.15899e-13 5.76304e-16 3.17061e-19 0 0 -6.34122e-19 6.34122e-19 0 0 0 -6.34122e-19 6.34122e-19 0 0 0 -6.34122e-19 6.34122e-19 0 0 0 -6.34122e-19 6.34122e-19 0 0 0 -6.34122e-19 9.50428e-19 -6.33367e-19 0 0 0.0971769 0.192936 0.285698 0.373457 0.453446 0.521125 0.57166 0.599379 0.593985 0.535885 0.421652 0.273447 0.134389 0.0410951 0.00724203 0.00053662 1.70097e-05 1.25322e-07 1.43881e-09 7.14091e-12 7.09077e-14 1.64952e-16 -3.17061e-19 3.17061e-19 0 -3.17061e-19 3.16306e-19 -3.16306e-19 3.17061e-19 0 -3.17061e-19 3.16306e-19 -3.16306e-19 3.17061e-19 0 -3.17061e-19 3.16306e-19 -3.16306e-19 3.17061e-19 0 -3.17061e-19 3.16306e-19 -3.16306e-19 3.17061e-19 0 -3.17061e-19 0 3.16306e-19 0 0 0 0.0810241 0.159438 0.232408 0.296973 0.349487 0.383805 0.389254 0.356427 0.287773 0.198613 0.106007 0.0383914 0.00827419 0.000959433 4.68155e-05 8.96155e-07 8.38169e-09 1.32887e-10 8.49768e-13 1.13051e-14 1.60801e-19 -1.58531e-19 1.57776e-19 -3.16306e-19 0 3.16306e-19 0 0 -3.16306e-19 0 3.16306e-19 0 0 -3.16306e-19 0 3.16306e-19 0 0 -3.16306e-19 0 3.16306e-19 0 0 7.54907e-22 -3.17061e-19 0 6.33367e-19 -9.50428e-19 6.33367e-19 0 0 0.0531887 0.10208 0.142014 0.168187 0.177126 0.168171 0.142662 0.102192 0.0557835 0.020836 0.00494277 0.000666362 4.46032e-05 1.2635e-06 1.99385e-08 4.01254e-10 5.82168e-12 6.46072e-14 9.26721e-16 1.5872e-19 -1.58153e-19 -1.58531e-19 4.74459e-19 -4.74837e-19 0 3.16684e-19 0 0 -3.16684e-19 0 3.16684e-19 -3.16684e-19 6.33367e-19 -6.33367e-19 0 3.16684e-19 -3.16684e-19 3.16684e-19 -3.16684e-19 3.16684e-19 0 -3.16684e-19 3.16684e-19 3.77454e-22 -6.33745e-19 9.50428e-19 -3.17061e-19 -6.33367e-19 6.33367e-19 0 0 0.0179813 0.0331209 0.0428039 0.0449388 0.0387177 0.0263297 0.0133203 0.00474268 0.00111633 0.000157929 1.18775e-05 4.43341e-07 1.13126e-08 3.72191e-10 8.08803e-12 1.43488e-13 2.91407e-15 -3.10506e-19 1.58531e-19 1.58153e-19 -1.58153e-19 0 -1.58908e-19 3.17061e-19 0 -3.16684e-19 3.16306e-19 -3.16306e-19 3.16684e-19 0 -3.16684e-19 3.16684e-19 -3.17061e-19 3.17061e-19 0 -3.16684e-19 -3.77454e-22 3.77454e-22 3.16684e-19 -3.77454e-22 0 3.77454e-22 -3.16684e-19 -3.77454e-22 3.16684e-19 0 -6.33367e-19 6.33367e-19 0 0 0 0.00116736 0.00179743 0.00170159 0.00113583 0.000542649 0.000181671 4.06517e-05 5.64894e-06 4.64318e-07 2.60346e-08 1.55882e-09 8.29908e-11 2.69273e-12 8.17106e-14 2.59458e-15 3.08624e-17 0 1.57776e-19 -1.57776e-19 -1.58531e-19 3.17061e-19 0 -3.17061e-19 3.17061e-19 0 0 -6.34122e-19 6.34122e-19 0 0 -3.17061e-19 3.17061e-19 -3.17061e-19 3.17061e-19 -3.17061e-19 3.17061e-19 -7.54907e-22 7.54907e-22 -3.17061e-19 3.16306e-19 -6.3299e-19 9.50051e-19 -6.33367e-19 3.16306e-19 0 -6.33367e-19 6.33367e-19 6.33367e-19 -1.26673e-18 0 0 4.27152e-07 5.24925e-07 3.47715e-07 1.46444e-07 4.20629e-08 9.23242e-09 1.7872e-09 2.93769e-10 3.37713e-11 2.55217e-12 1.63944e-13 1.09658e-14 5.35281e-16 -1.02708e-17 0 0 0 1.57776e-19 -1.57776e-19 -1.58531e-19 3.17061e-19 -3.17061e-19 3.17061e-19 0 0 -3.17061e-19 3.16306e-19 -3.16306e-19 3.17061e-19 -3.17061e-19 3.16306e-19 7.54907e-22 -3.17061e-19 3.17061e-19 -3.17061e-19 3.17061e-19 -7.54907e-22 7.54907e-22 -3.17061e-19 3.16306e-19 -6.3299e-19 6.3299e-19 0 0 -6.33367e-19 6.33367e-19 0 0 0 0 0 2.2193e-12 3.2845e-12 2.85219e-12 1.66793e-12 6.87093e-13 2.11572e-13 5.32608e-14 1.11873e-14 1.73499e-15 1.90485e-16 1.6116e-19 -3.17435e-19 3.17061e-19 -1.58531e-19 1.58531e-19 -3.17061e-19 3.17061e-19 -1.58531e-19 0 1.58531e-19 -3.17061e-19 3.16306e-19 7.54907e-22 -3.17061e-19 0 3.16306e-19 0 -3.16306e-19 3.17061e-19 -3.17061e-19 6.33367e-19 -6.33367e-19 0 3.17061e-19 0 -3.17061e-19 3.16306e-19 -3.16306e-19 3.17061e-19 -6.34122e-19 1.26673e-18 -1.26673e-18 6.33367e-19 0 0 0 0 -6.33367e-19 6.33367e-19 0 0 1.48294e-17 1.80224e-17 2.82764e-17 2.06051e-17 -5.10173e-18 5.06294e-18 -2.80502e-22 7.92653e-20 -7.92653e-20 0 1.57776e-19 -3.16306e-19 3.17061e-19 -1.58531e-19 0 1.57776e-19 -1.57776e-19 0 0 1.58531e-19 -3.17061e-19 3.16306e-19 7.54907e-22 -3.17061e-19 0 3.16306e-19 0 7.54907e-22 -3.17061e-19 3.17061e-19 -3.17061e-19 0 6.33367e-19 -6.33367e-19 3.17061e-19 -6.34122e-19 9.50428e-19 -3.17061e-19 -3.16306e-19 3.16306e-19 0 -6.33367e-19 6.33367e-19 0 0 0 0 -6.33367e-19 6.33367e-19 0 0 0 -9.8138e-21 2.03825e-20 0 -3.96326e-20 7.92653e-20 -7.92653e-20 0 7.92653e-20 7.92653e-20 -3.17061e-19 3.17061e-19 -1.58531e-19 0 0 1.57776e-19 -3.16306e-19 1.58531e-19 1.58531e-19 0 0 -3.17061e-19 0 3.17061e-19 0 -3.17061e-19 3.16306e-19 7.54907e-22 -3.17061e-19 3.17061e-19 -3.17061e-19 3.17061e-19 -7.54907e-22 -3.16306e-19 0 3.16306e-19 -3.16306e-19 3.16306e-19 0 0 0 0 0 -6.33367e-19 6.33367e-19 0 -6.33367e-19 6.33367e-19 0 0 0 0 -1.92501e-20 3.96326e-20 -3.96326e-20 0 0 7.92653e-20 -7.92653e-20 3.77454e-22 0 -3.77454e-22 1.58531e-19 -3.16684e-19 3.16684e-19 -1.58153e-19 -3.77454e-22 0 1.58531e-19 -3.16684e-19 3.16684e-19 -3.16684e-19 3.16684e-19 -3.17061e-19 3.17061e-19 0 0 -6.33745e-19 6.33745e-19 0 -3.16684e-19 3.16684e-19 0 -3.17061e-19 3.77454e-22 3.16306e-19 0 0 -6.33367e-19 6.33367e-19 0 0 0 -6.33367e-19 6.33367e-19 0 0 -6.33367e-19 1.26673e-18 -1.26673e-18 0 0 0 -1.92501e-20 3.96326e-20 -3.96326e-20 0 7.92653e-20 -7.92653e-20 0 3.77454e-22 0 -3.77454e-22 1.58531e-19 -1.58153e-19 -3.77454e-22 3.77454e-22 -1.58908e-19 3.17061e-19 0 -3.16684e-19 -3.77454e-22 3.16684e-19 3.77454e-22 -3.17061e-19 3.17061e-19 0 -3.17061e-19 3.16684e-19 -3.16684e-19 3.17061e-19 -3.16684e-19 3.16684e-19 -3.17061e-19 0 3.16684e-19 0 0 0 0 -6.33367e-19 6.33367e-19 -6.33367e-19 6.33367e-19 0 0 0 -6.3299e-19 6.3299e-19 0 0 0 0 0 2.98188e-20 -5.92602e-20 1.19275e-19 -1.18898e-19 0 0 7.85104e-20 8.00202e-20 -1.58531e-19 0 -1.58531e-19 3.17061e-19 -3.17061e-19 3.17061e-19 -1.59285e-19 1.59285e-19 -3.17061e-19 6.33367e-19 -9.50428e-19 9.50428e-19 -6.33367e-19 3.16306e-19 -3.16306e-19 0 3.16306e-19 0 -3.16306e-19 0 6.33367e-19 -6.33367e-19 3.16306e-19 -3.16306e-19 3.16306e-19 0 0 -6.33367e-19 6.33367e-19 6.33367e-19 -1.26673e-18 0 6.33367e-19 6.33367e-19 -1.26673e-18 6.33367e-19 -6.3299e-19 1.26636e-18 -1.26673e-18 6.33367e-19 0 0 0 2.98188e-20 -5.92602e-20 1.19275e-19 -1.18898e-19 0 0 7.85104e-20 8.00202e-20 -3.17061e-19 3.17061e-19 -3.17061e-19 3.17061e-19 -3.17061e-19 3.17061e-19 1.57776e-19 -4.74837e-19 0 6.33367e-19 -6.33367e-19 0 0 6.33367e-19 -6.33367e-19 0 3.16306e-19 0 -3.16306e-19 0 6.33367e-19 -6.33367e-19 3.16306e-19 3.17061e-19 -9.50428e-19 6.33367e-19 0 -6.33367e-19 6.33367e-19 6.33367e-19 -1.26673e-18 6.33367e-19 0 -6.3299e-19 6.3299e-19 -6.33367e-19 1.26673e-18 -6.33367e-19 -6.33367e-19 6.33367e-19 0 0 0 -9.8138e-21 2.03825e-20 0 -3.96326e-20 7.92653e-20 -7.92653e-20 -7.92653e-20 2.37796e-19 -1.58531e-19 0 1.58531e-19 -1.58531e-19 0 0 0 -1.58531e-19 6.33367e-19 -6.33367e-19 3.17061e-19 -3.17061e-19 3.17061e-19 -3.17061e-19 3.17061e-19 0 -3.17061e-19 3.16306e-19 -3.16306e-19 3.17061e-19 -3.17061e-19 3.17061e-19 -3.17061e-19 3.16306e-19 0 -6.33367e-19 6.33367e-19 6.33367e-19 -6.33367e-19 -6.33367e-19 6.33367e-19 0 0 -6.3299e-19 6.3299e-19 0 0 -6.33367e-19 6.33367e-19 0 0 0 0 -9.8138e-21 2.03825e-20 0 -3.96326e-20 0 7.92653e-20 0 -7.92653e-20 0 0 1.58531e-19 -3.17061e-19 3.17061e-19 -1.58531e-19 0 1.58531e-19 -7.54907e-22 -3.16306e-19 3.17061e-19 -3.17061e-19 3.17061e-19 -3.17061e-19 3.17061e-19 0 0 -6.34122e-19 9.50428e-19 -6.33367e-19 3.16306e-19 -3.16306e-19 0 3.16306e-19 0 0 -6.33367e-19 1.26673e-18 -1.26673e-18 6.33367e-19 0 0 -6.33367e-19 6.33367e-19 0 0 0 -6.33367e-19 1.26673e-18 -1.26673e-18 0 0 0 -1.92501e-20 3.96326e-20 -3.96326e-20 0 7.92653e-20 -7.88878e-20 1.58153e-19 -3.16684e-19 1.58153e-19 3.77454e-22 1.58153e-19 -1.58531e-19 1.58531e-19 -3.16684e-19 3.16684e-19 0 -6.33745e-19 6.33745e-19 -3.16684e-19 3.16306e-19 3.77454e-22 -3.16684e-19 3.16684e-19 0 -3.16684e-19 3.16306e-19 0 0 -6.3299e-19 6.3299e-19 0 0 0 0 -6.33367e-19 0 6.33367e-19 0 0 -6.3299e-19 6.3299e-19 0 0 0 -6.3299e-19 6.3299e-19 0 0 0 0 0 2.03825e-20 -3.96326e-20 0 7.92653e-20 -7.92653e-20 3.77454e-22 -3.77454e-22 3.77454e-22 1.58153e-19 -1.58153e-19 -1.58908e-19 3.17061e-19 0 -3.16684e-19 -3.77454e-22 3.17061e-19 -3.16684e-19 3.16684e-19 -3.16684e-19 6.33367e-19 -6.33745e-19 3.16684e-19 -3.16684e-19 0 3.16684e-19 0 -3.16306e-19 6.33367e-19 -9.50051e-19 6.3299e-19 0 -6.33367e-19 1.26673e-18 -1.26673e-18 6.33367e-19 -6.33367e-19 1.26673e-18 -1.26673e-18 6.33367e-19 -6.3299e-19 6.3299e-19 6.33367e-19 -1.26673e-18 6.333