<?xml version="1.0"?>
<VTKFile type="PolyData">
	<PolyData>
		<Piece NumberOfPoints="2601" NumberOfPolys="2500">
			<Points>
				<DataArray type="Float32" NumberOfComponents="3" format="ascii">
 0 0 0 0.46889 0 0 0.311565 0 0 0.425998 0 0 0.42482 0 0 0.454534 0 0 0.475896 0 0 0.495617 0 0 0.514718 0 0 0.529059 0 0 0.544768 0 0 0.556816 0 0 0.570407 0 0 0.58118 0 0 0.593555 0 0 0.602634 0 0 0.613214 0 0 0.620748 0 0 0.629848 0 0 0.63701 0 0 0.644914 0 0 0.651597 0 0 0.658198 0 0 0.664195 0 0 0.67048 0 0 0.67584 0 0 0.681138 0 0 0.686071 0 0 0.69088 0 0 0.695524 0 0 0.699913 0 0 0.704126 0 0 0.708114 0 0 0.711833 0 0 0.715738 0 0 0.720691 0 0 0.728365 0 0 0.741325 0 0 0.760022 0 0 0.78 0 0 0.8 0 0 0.82 0 0 0.84 0 0 0.86 0 0 0.88 0 0 0.9 0 0 0.92 0 0 0.94 0 0 0.96 0 0 0.98 0 0 1 0 0 0 0.46889 0 0.170896 0.170896 0 0.407215 0.194235 0 0.348942 0.174014 0 0.42156 0.106459 0 0.445683 0.0956754 0 0.47104 0.0848405 0 0.492459 0.0756945 0 0.509792 0.070242 0 0.527574 0.0643482 0 0.541076 0.0595069 0 0.556221 0.0547533 0 0.567876 0.0509613 0 0.580918 0.0479121 0 0.591103 0.0454312 0 0.602753 0.0433052 0 0.610969 0.0410721 0 0.62077 0.038994 0 0.628163 0.0369884 0 0.636787 0.0352001 0 0.6438 0.0336398 0 0.651167 0.0322732 0 0.65746 0.0310577 0 0.663814 0.0299188 0 0.669852 0.0288152 0 0.675366 0.0277322 0 0.680673 0.0267479 0 0.685671 0.0258501 0 0.690483 0.0250364 0 0.695166 0.0242935 0 0.69957 0.0236004 0 0.703794 0.0229391 0 0.707799 0.0223026 0 0.711538 0.0216912 0 0.71547 0.0211222 0 0.720467 0.020624 0 0.728212 0.0202451 0 0.741274 0.020049 0 0.76002 0.0200016 0 0.78 0.02 0 0.8 0.02 0 0.82 0.02 0 0.84 0.02 0 0.86 0.02 0 0.88 0.02 0 0.9 0.02 0 0.92 0.02 0 0.94 0.02 0 0.96 0.02 0 0.98 0.02 0 1 0.02 0 0 0.311565 0 0.194235 0.407215 0 0.199899 0.199899 0 0.373329 0.259491 0 0.378478 0.213288 0 0.421268 0.180444 0 0.45216 0.160775 0 0.47655 0.149936 0 0.498935 0.136405 0 0.51639 0.126623 0 0.53467 0.116401 0 0.548631 0.108403 0 0.56357 0.101061 0 0.575165 0.0952034 0 0.588063 0.0904485 0 0.597661 0.0859023 0 0.608664 0.0817303 0 0.616655 0.077472 0 0.626239 0.0735801 0 0.633814 0.0700538 0 0.642018 0.066956 0 0.648839 0.0642579 0 0.655846 0.0618113 0 0.662222 0.0595783 0 0.668247 0.057382 0 0.673886 0.0553006 0 0.679347 0.0533647 0 0.684456 0.0515941 0 0.689326 0.0499802 0 0.694081 0.0485052 0 0.698547 0.0471206 0 0.702804 0.0457986 0 0.706861 0.0445286 0 0.710659 0.0433125 0 0.714675 0.042185 0 0.7198 0.0412029 0 0.72776 0.0404626 0 0.74113 0.040089 0 0.760016 0.0400026 0 0.78 0.04 0 0.8 0.04 0 0.82 0.04 0 0.84 0.04 0 0.86 0.04 0 0.88 0.04 0 0.9 0.04 0 0.92 0.04 0 0.94 0.04 0 0.96 0.04 0 0.98 0.04 0 1 0.04 0 0 0.425998 0 0.174014 0.348942 0 0.259491 0.373329 0 0.227918 0.227918 0 0.333248 0.298416 0 0.391425 0.242828 0 0.425118 0.231185 0 0.45594 0.209128 0 0.480632 0.197239 0 0.503712 0.181403 0 0.521659 0.16986 0 0.540151 0.157909 0 0.554057 0.148879 0 0.568827 0.140758 0 0.580215 0.133786 0 0.59279 0.1275 0 0.60205 0.121014 0 0.61285 0.115017 0 0.62116 0.109261 0 0.630627 0.104128 0 0.638097 0.0996579 0 0.645895 0.0957176 0 0.652797 0.0922509 0 0.659606 0.0889002 0 0.665571 0.0856655 0 0.671578 0.0826069 0 0.677119 0.0797547 0 0.682471 0.077136 0 0.687427 0.074749 0 0.69228 0.0725541 0 0.696853 0.0704859 0 0.701174 0.0685043 0 0.705321 0.0666082 0 0.709219 0.064801 0 0.713373 0.0631361 0 0.718715 0.0616969 0 0.727036 0.0606291 0 0.740917 0.0601128 0 0.760011 0.0600026 0 0.78 0.06 0 0.8 0.06 0 0.82 0.06 0 0.84 0.06 0 0.86 0.06 0 0.88 0.06 0 0.9 0.06 0 0.92 0.06 0 0.94 0.06 0 0.96 0.06 0 0.98 0.06 0 1 0.06 0 0 0.42482 0 0.106459 0.42156 0 0.213288 0.378478 0 0.298416 0.333248 0 0.284928 0.284928 0 0.351176 0.323708 0 0.401237 0.269117 0 0.433469 0.266912 0 0.462249 0.244401 0 0.485923 0.232879 0 0.508586 0.216675 0 0.525873 0.205598 0 0.543628 0.193629 0 0.557258 0.184366 0 0.571915 0.175425 0 0.583249 0.166837 0 0.595781 0.158794 0 0.605327 0.150896 0 0.616233 0.143704 0 0.624732 0.137257 0 0.633773 0.131544 0 0.641289 0.12665 0 0.64895 0.122068 0 0.655579 0.11773 0 0.662134 0.113511 0 0.668276 0.109535 0 0.67411 0.105795 0 0.679672 0.102391 0 0.684833 0.0992615 0 0.689779 0.0963665 0 0.694506 0.0936232 0 0.698929 0.0909901 0 0.703204 0.0884817 0 0.707243 0.086106 0 0.711592 0.0839332 0 0.717245 0.0820748 0 0.726084 0.0807286 0 0.740673 0.0801172 0 0.760006 0.080002 0 0.78 0.08 0 0.8 0.08 0 0.82 0.08 0 0.84 0.08 0 0.86 0.08 0 0.88 0.08 0 0.9 0.08 0 0.92 0.08 0 0.94 0.08 0 0.96 0.08 0 0.98 0.08 0 1 0.08 0 0 0.454534 0 0.0956754 0.445683 0 0.180444 0.421268 0 0.242828 0.391425 0 0.323708 0.351176 0 0.335294 0.335294 0 0.376901 0.33536 0 0.410735 0.295094 0 0.441406 0.295475 0 0.468252 0.272995 0 0.490307 0.263159 0 0.511947 0.247055 0 0.52856 0.236658 0 0.546191 0.224418 0 0.559914 0.214207 0 0.574629 0.204052 0 0.586075 0.194215 0 0.598689 0.185148 0 0.608387 0.176795 0 0.618956 0.169287 0 0.627347 0.162778 0 0.636197 0.156765 0 0.643553 0.151233 0 0.650901 0.145821 0 0.657753 0.140769 0 0.664197 0.135892 0 0.670318 0.131407 0 0.676112 0.127259 0 0.68154 0.123445 0 0.686627 0.119858 0 0.691531 0.116458 0 0.696109 0.113192 0 0.700535 0.110099 0 0.704758 0.107187 0 0.709364 0.104544 0 0.715436 0.102313 0 0.724966 0.100754 0 0.740439 0.100103 0 0.760003 0.100001 0 0.78 0.1 0 0.8 0.1 0 0.82 0.1 0 0.84 0.1 0 0.86 0.1 0 0.88 0.1 0 0.9 0.1 0 0.92 0.1 0 0.94 0.1 0 0.96 0.1 0 0.98 0.1 0 1 0.1 0 0 0.475896 0 0.0848405 0.47104 0 0.160775 0.45216 0 0.231185 0.425118 0 0.269117 0.401237 0 0.33536 0.376901 0 0.360087 0.360087 0 0.393704 0.351324 0 0.420426 0.318392 0 0.448095 0.32037 0 0.473738 0.296905 0 0.494401 0.288961 0 0.515548 0.27237 0 0.531855 0.262197 0 0.549333 0.24931 0 0.563021 0.238479 0 0.577554 0.227733 0 0.5889 0.217796 0 0.601123 0.208649 0 0.610677 0.200532 0 0.620971 0.19295 0 0.629267 0.186134 0 0.637684 0.179413 0 0.645219 0.173227 0 0.652704 0.167244 0 0.659351 0.161663 0 0.665857 0.156473 0 0.671828 0.15167 0 0.677571 0.147187 0 0.682875 0.142944 0 0.687972 0.138906 0 0.692758 0.135054 0 0.697342 0.131414 0 0.701787 0.12801 0 0.706726 0.124942 0 0.713348 0.122396 0 0.723766 0.120707 0 0.740248 0.120077 0 0.760001 0.120001 0 0.78 0.12 0 0.8 0.12 0 0.82 0.12 0 0.84 0.12 0 0.86 0.12 0 0.88 0.12 0 0.9 0.12 0 0.92 0.12 0 0.94 0.12 0 0.96 0.12 0 0.98 0.12 0 1 0.12 0 0 0.495617 0 0.0756945 0.492459 0 0.149936 0.47655 0 0.209128 0.45594 0 0.266912 0.433469 0 0.295094 0.410735 0 0.351324 0.393704 0 0.379138 0.379138 0 0.407471 0.367706 0 0.430629 0.339302 0 0.454771 0.341826 0 0.479208 0.316695 0 0.498725 0.310806 0 0.519354 0.293452 0 0.535192 0.283517 0 0.552241 0.270379 0 0.565597 0.259646 0 0.579726 0.248909 0 0.590898 0.239378 0 0.602888 0.230234 0 0.612361 0.222123 0 0.622245 0.214021 0 0.630567 0.206758 0 0.639126 0.199615 0 0.646638 0.193013 0 0.653971 0.186728 0 0.660662 0.180943 0 0.666972 0.175483 0 0.672956 0.170378 0 0.678594 0.165518 0 0.683883 0.160902 0 0.688913 0.156526 0 0.693659 0.152392 0 0.698367 0.148543 0 0.703722 0.145102 0 0.711052 0.142314 0 0.722597 0.140601 0 0.740118 0.140047 0 0.76 0.14 0 0.78 0.14 0 0.8 0.14 0 0.82 0.14 0 0.84 0.14 0 0.86 0.14 0 0.88 0.14 0 0.9 0.14 0 0.92 0.14 0 0.94 0.14 0 0.96 0.14 0 0.98 0.14 0 1 0.14 0 0 0.514718 0 0.070242 0.509792 0 0.136405 0.498935 0 0.197239 0.480632 0 0.244401 0.462249 0 0.295475 0.441406 0 0.318392 0.420426 0 0.367706 0.407471 0 0.395727 0.395727 0 0.420313 0.382191 0 0.441745 0.357913 0 0.463385 0.359227 0 0.485635 0.333227 0 0.503976 0.329013 0 0.523625 0.311064 0 0.538763 0.301805 0 0.55513 0.28869 0 0.56809 0.278504 0 0.581858 0.267822 0 0.592801 0.258671 0 0.604331 0.249208 0 0.613658 0.240992 0 0.623579 0.232665 0 0.631901 0.225177 0 0.640223 0.217791 0 0.647804 0.21108 0 0.65495 0.204614 0 0.66156 0.198604 0 0.66785 0.192891 0 0.673801 0.187517 0 0.679342 0.1824 0 0.68459 0.17757 0 0.689534 0.172996 0 0.694554 0.168756 0 0.700421 0.165005 0 0.708644 0.162071 0 0.721581 0.160454 0 0.740046 0.160023 0 0.76 0.16 0 0.78 0.16 0 0.8 0.16 0 0.82 0.16 0 0.84 0.16 0 0.86 0.16 0 0.88 0.16 0 0.9 0.16 0 0.92 0.16 0 0.94 0.16 0 0.96 0.16 0 0.98 0.16 0 1 0.16 0 0 0.529059 0 0.0643482 0.527574 0 0.126623 0.51639 0 0.181403 0.503712 0 0.232879 0.485923 0 0.272995 0.468252 0 0.32037 0.448095 0 0.339302 0.430629 0 0.382191 0.420313 0 0.410113 0.410113 0 0.432051 0.394862 0 0.453229 0.374168 0 0.473345 0.372747 0 0.492952 0.34754 0 0.510331 0.344108 0 0.528633 0.326041 0 0.54298 0.317708 0 0.558496 0.304716 0 0.570971 0.295226 0 0.584092 0.284359 0 0.594614 0.275486 0 0.605993 0.265927 0 0.615296 0.257797 0 0.624799 0.249283 0 0.633132 0.241779 0 0.641337 0.234341 0 0.648721 0.227483 0 0.655773 0.220898 0 0.662309 0.214742 0 0.668574 0.208915 0 0.674379 0.203402 0 0.67984 0.198159 0 0.68502 0.193196 0 0.690422 0.188616 0 0.696931 0.184646 0 0.706251 0.1817 0 0.72082 0.180296 0 0.740014 0.180008 0 0.76 0.18 0 0.78 0.18 0 0.8 0.18 0 0.82 0.18 0 0.84 0.18 0 0.86 0.18 0 0.88 0.18 0 0.9 0.18 0 0.92 0.18 0 0.94 0.18 0 0.96 0.18 0 0.98 0.18 0 1 0.18 0 0 0.544768 0 0.0595069 0.541076 0 0.116401 0.53467 0 0.16986 0.521659 0 0.216675 0.508586 0 0.263159 0.490307 0 0.296905 0.473738 0 0.341826 0.454771 0 0.357913 0.441745 0 0.394862 0.432051 0 0.422385 0.422385 0 0.442493 0.40584 0 0.46353 0.388316 0 0.482991 0.383911 0 0.500339 0.360463 0 0.517011 0.357203 0 0.53392 0.339339 0 0.547603 0.331761 0 0.562189 0.318759 0 0.574026 0.309822 0 0.586701 0.298929 0 0.597017 0.290459 0 0.607838 0.280778 0 0.616942 0.272758 0 0.626275 0.264323 0 0.634373 0.256797 0 0.642374 0.249387 0 0.649544 0.242516 0 0.656469 0.235947 0 0.662927 0.229781 0 0.669038 0.223892 0 0.674715 0.218283 0 0.680184 0.212966 0 0.686052 0.208122 0 0.693381 0.204046 0 0.704053 0.201262 0 0.720348 0.200158 0 0.740003 0.200002 0 0.76 0.2 0 0.78 0.2 0 0.8 0.2 0 0.82 0.2 0 0.84 0.2 0 0.86 0.2 0 0.88 0.2 0 0.9 0.2 0 0.92 0.2 0 0.94 0.2 0 0.96 0.2 0 0.98 0.2 0 1 0.2 0 0 0.556816 0 0.0547533 0.556221 0 0.108403 0.548631 0 0.157909 0.540151 0 0.205598 0.525873 0 0.247055 0.511947 0 0.288961 0.494401 0 0.3166
[...]
			<PointData Scalars="VitesseX">
				<DataArray Name="VitesseX" type="Float32" format="ascii">
 0 1.72283 0.436672 1.11114 0.969311 1.06011 1.09184 1.15015 1.18453 1.23556 1.25602 1.28363 1.33446 1.35158 1.36213 1.43175 1.48349 1.49444 1.50834 1.52817 1.568 1.62451 1.66417 1.63033 1.65212 1.71098 1.74044 1.72651 1.76167 1.76622 1.77639 1.80843 1.8347 1.84744 1.78378 1.58193 1.12374 0.370093 0.0114604 3.16804e-06 3.41991e-11 -3.61348e-12 3.61868e-12 1.64928e-14 -1.64813e-14 -3.61869e-12 3.60219e-12 -3.60219e-12 3.61869e-12 1.65668e-14 0 0 0.126488 1.29718 0.582959 0.977494 0.992559 1.09814 1.1186 1.17845 1.23057 1.23179 1.29455 1.33378 1.34472 1.37135 1.43055 1.47814 1.50475 1.49092 1.5385 1.56228 1.63131 1.64496 1.63409 1.66811 1.69831 1.73651 1.72961 1.75765 1.76687 1.77616 1.80933 1.83432 1.8456 1.78079 1.5765 1.11443 0.359348 0.0106622 2.79352e-06 3.1225e-11 -3.61473e-12 3.61458e-12 1.64771e-14 -1.2361e-14 -3.61869e-12 3.61048e-12 -3.61048e-12 3.61871e-12 1.24344e-14 0 0 0.742699 0.206551 1.14722 0.767403 0.926719 1.0117 1.08621 1.13376 1.19697 1.22595 1.27158 1.32756 1.3422 1.35765 1.42644 1.47725 1.48441 1.4932 1.52114 1.58512 1.61405 1.61444 1.64259 1.69122 1.67436 1.72789 1.7335 1.75058 1.76809 1.77554 1.81068 1.8333 1.84008 1.77177 1.55988 1.08618 0.328063 0.00855629 1.91384e-06 2.13855e-11 -1.80782e-12 3.61462e-12 -1.80115e-12 -8.07776e-15 1.17473e-14 -3.2062e-14 3.20828e-14 -1.17494e-14 8.11039e-15 0 0 0.647616 0.761515 0.241501 0.727509 0.857003 0.963565 1.01704 1.10635 1.15639 1.19026 1.26553 1.29896 1.32057 1.35316 1.41295 1.45928 1.47868 1.47086 1.53092 1.57529 1.59654 1.59201 1.66671 1.67521 1.67259 1.70842 1.7361 1.74381 1.77012 1.77489 1.80949 1.83132 1.83148 1.75651 1.53095 1.03777 0.279284 0.0058623 1.01753e-06 1.3961e-11 -1.80928e-12 1.80853e-12 -3.23581e-15 2.36002e-16 -5.30659e-12 5.29023e-12 -5.29017e-12 5.3024e-12 8.14778e-15 0 0 0.246729 0.540953 0.775184 0.631845 0.8045 0.907858 1.00983 1.05761 1.12367 1.16702 1.23183 1.2759 1.29413 1.33364 1.39461 1.43508 1.45051 1.47788 1.5139 1.5588 1.56253 1.62001 1.65421 1.65156 1.68223 1.6845 1.73446 1.73714 1.77107 1.77654 1.80323 1.8275 1.82085 1.7345 1.48782 0.966715 0.218551 0.00337233 4.21002e-07 7.01576e-12 -1.8084e-12 -1.08059e-15 1.80633e-12 -3.83579e-15 -5.31019e-12 5.30214e-12 -7.11152e-12 7.11954e-12 8.22989e-15 0 0 0.230307 0.407273 0.519301 0.810794 0.8914 0.935622 0.953377 1.03728 1.06821 1.14619 1.19719 1.22875 1.27482 1.3149 1.36822 1.40987 1.4396 1.46441 1.50497 1.51299 1.57108 1.62533 1.61955 1.64291 1.68342 1.67092 1.72445 1.73209 1.76589 1.78179 1.79327 1.82164 1.80774 1.70489 1.42819 0.869141 0.153953 0.00159241 1.37823e-07 1.07171e-12 -2.31633e-14 1.83321e-12 -1.8291e-12 1.19994e-14 1.81744e-12 -1.82959e-12 1.82137e-12 -1.80594e-12 4.96162e-15 0 0 0.200558 0.347574 0.52289 0.550453 0.753912 0.928185 0.968417 0.970771 1.05207 1.10349 1.16116 1.19883 1.2417 1.30036 1.34325 1.38892 1.41997 1.45125 1.46358 1.51178 1.57204 1.60554 1.58702 1.64582 1.66058 1.67721 1.70551 1.72965 1.7529 1.78587 1.7855 1.81326 1.78948 1.66635 1.35031 0.741421 0.0949569 0.000600204 3.7305e-08 9.61597e-13 1.81326e-12 -1.05492e-11 1.05494e-11 -1.2318e-14 -1.77757e-12 -4.35635e-14 1.84515e-12 -1.81773e-12 1.67761e-14 0 0 0.163437 0.341097 0.44439 0.610672 0.62673 0.766148 0.948953 0.993433 1.00811 1.06482 1.10275 1.17451 1.22197 1.26455 1.32228 1.36135 1.39048 1.41135 1.44987 1.50849 1.56015 1.55537 1.59281 1.62169 1.63715 1.68146 1.69161 1.721 1.74107 1.7794 1.78544 1.80157 1.76345 1.61554 1.25287 0.584823 0.0495815 0.000174574 8.88991e-09 2.0899e-12 -1.05412e-11 -2.38216e-14 1.05491e-11 -8.35255e-15 -1.23305e-11 1.23068e-11 -1.23063e-11 1.23063e-11 7.59735e-14 0 0 0.157825 0.302912 0.445814 0.534944 0.685668 0.676849 0.817837 0.962898 1.01447 1.0392 1.07973 1.1298 1.19831 1.24937 1.28515 1.33753 1.35386 1.38695 1.44645 1.50364 1.50155 1.5443 1.58742 1.59361 1.62347 1.67144 1.68565 1.70636 1.73248 1.76376 1.78729 1.7887 1.72919 1.5465 1.13127 0.411989 0.0210972 3.75952e-05 1.9049e-09 3.67161e-12 -1.23462e-11 -1.04475e-16 -1.82928e-12 1.23785e-11 -1.05813e-11 1.23545e-11 -2.46808e-11 2.46809e-11 -1.22989e-11 0 0 0.144229 0.289519 0.408437 0.522506 0.60472 0.756308 0.750832 0.862228 0.997407 1.05041 1.08218 1.12892 1.15274 1.22793 1.27586 1.29586 1.33784 1.38732 1.44104 1.45365 1.48522 1.53602 1.57058 1.57346 1.62481 1.64809 1.68817 1.6877 1.72553 1.74733 1.78358 1.77406 1.68824 1.45434 0.973655 0.248483 0.00702093 5.72403e-06 3.44863e-10 -1.05134e-11 3.19322e-14 -2.82612e-14 2.84082e-14 -4.33532e-15 1.23572e-11 -1.23812e-11 2.84154e-14 -1.06554e-17 -7.78456e-17 0 0 0.129945 0.265825 0.3803 0.490897 0.603566 0.684575 0.822156 0.813751 0.928148 1.04002 1.06531 1.13247 1.15698 1.19543 1.25052 1.28915 1.33206 1.38545 1.40492 1.42731 1.48668 1.53186 1.53369 1.58919 1.60485 1.64419 1.67949 1.67676 1.71591 1.73583 1.77453 1.75002 1.63581 1.33913 0.768414 0.122377 0.00174528 6.04937e-07 5.69185e-11 -2.46584e-11 1.23583e-11 1.23027e-11 -1.23026e-11 2.8259e-14 -1.68066e-15 2.96227e-16 1.22758e-11 -2.46611e-11 2.47177e-11 0 0 0.12027 0.254107 0.362781 0.481127 0.57788 0.675463 0.728047 0.869783 0.882713 0.980063 1.07076 1.08846 1.15807 1.20405 1.20907 1.28695 1.34128 1.34924 1.37839 1.43811 1.49078 1.49524 1.54333 1.5793 1.59127 1.64464 1.65964 1.67807 1.70101 1.73068 1.75964 1.71257 1.55793 1.1967 0.526415 0.0468457 0.000305725 4.98401e-08 4.59611e-12 2.65676e-14 -2.71958e-14 1.23315e-11 -1.23785e-11 7.6305e-14 -1.79222e-15 -5.62956e-16 1.22764e-11 -1.23781e-11 7.59539e-14 0 0 0.117816 0.234075 0.356217 0.449435 0.566024 0.633709 0.743168 0.778316 0.917373 0.943308 1.01769 1.08624 1.12197 1.17785 1.22944 1.2695 1.30844 1.33635 1.38307 1.4489 1.46368 1.48741 1.54242 1.56175 1.58315 1.63562 1.6373 1.68428 1.68451 1.72862 1.73232 1.66296 1.44583 1.00443 0.293739 0.0132624 3.50012e-05 4.23137e-09 -1.18391e-11 1.23291e-11 -1.23296e-11 -2.1003e-11 3.33146e-11 -1.23108e-11 1.23292e-11 -1.233e-11 -2.10035e-11 3.3287e-11 -2.46619e-11 0 0 0.108376 0.228717 0.325601 0.448123 0.525273 0.638747 0.691393 0.810481 0.822169 0.94332 0.984962 1.04875 1.13038 1.11067 1.22394 1.27342 1.28641 1.33791 1.39928 1.43025 1.44341 1.495 1.52786 1.53715 1.59376 1.59727 1.63979 1.66817 1.68605 1.72019 1.69507 1.5878 1.303 0.741141 0.125089 0.00262522 2.43883e-06 3.74177e-10 -1.22162e-11 -5.5942e-14 1.23669e-11 -3.33145e-11 3.32863e-11 7.60567e-14 -1.2415e-11 1.63842e-14 -2.09393e-11 -2.60123e-14 2.10094e-11 0 0 0.108261 0.215067 0.32434 0.42225 0.53019 0.594343 0.705775 0.741273 0.861707 0.868021 0.976071 1.01739 1.04655 1.14106 1.18562 1.23191 1.28059 1.32775 1.39348 1.41089 1.45264 1.48651 1.49854 1.54843 1.56563 1.58897 1.63228 1.65008 1.69035 1.69847 1.64678 1.4738 1.1138 0.441558 0.0382192 0.0003343 1.10435e-07 1.99013e-11 7.87426e-14 -1.04017e-13 1.24145e-11 -4.21362e-17 -1.23865e-11 7.42389e-14 8.1917e-16 -1.15433e-13 -2.0863e-11 -2.45933e-15 3.3317e-11 0 0 0.10782 0.213431 0.318506 0.416857 0.507954 0.591719 0.658736 0.760768 0.780757 0.900483 0.891693 0.997756 1.06525 1.09983 1.17812 1.19452 1.28475 1.33106 1.35904 1.3965 1.44611 1.45543 1.49308 1.53558 1.54677 1.5877 1.61704 1.64205 1.68682 1.66267 1.57414 1.32723 0.839904 0.195208 0.00786828 2.44783e-05 5.01424e-09 9.9975e-13 2.81246e-14 1.2254e-11 -3.32584e-11 3.33138e-11 -1.23861e-11 7.42171e-14 -2.10023e-11 3.32386e-11 -3.32868e-11 3.3387e-11 -7.14344e-14 0 0 0.104682 0.210021 0.306194 0.40189 0.485953 0.569613 0.64664 0.7141 0.796318 0.810256 0.942038 0.938667 1.03096 1.09446 1.11048 1.20322 1.23454 1.27492 1.33486 1.3842 1.41355 1.44362 1.49093 1.50585 1.53979 1.58551 1.58902 1.64962 1.65145 1.61631 1.45426 1.13369 0.50149 0.0593831 0.00100326 9.42505e-07 2.75332e-10 1.71839e-13 -2.46892e-11 2.46411e-11 -3.32628e-11 -2.46322e-14 3.3311e-11 -7.1625e-14 -3.3212e-11 3.31641e-11 1.48033e-13 -3.33863e-11 3.33888e-11 0 0 0.101081 0.196241 0.292532 0.375064 0.468399 0.54306 0.62321 0.685139 0.753128 0.841877 0.86167 0.966884 0.961802 1.04275 1.16981 1.14759 1.21366 1.25288 1.29861 1.34955 1.36878 1.42732 1.45549 1.48588 1.53881 1.54833 1.59865 1.62377 1.61577 1.52388 1.30026 0.835165 0.213106 0.0116124 6.87248e-05 2.4554e-08 4.11793e-11 -3.32653e-11 2.09563e-11 1.2255e-11 5.16883e-14 -3.33102e-11 7.11027e-14 3.32397e-11 1.68398e-15 -2.72421e-15 -3.32387e-11 5.88168e-15 -3.94025e-15 0 0 0.0929085 0.185248 0.271167 0.361803 0.443203 0.528296 0.589566 0.668318 0.74279 0.810484 0.867359 0.87535 0.99828 1.00264 1.10269 1.16624 1.18473 1.25271 1.28468 1.31204 1.36556 1.38805 1.42646 1.48557 1.51095 1.54544 1.58518 1.59153 1.54644 1.39031 1.07534 0.46357 0.0592355 0.00130771 2.22999e-06 7.94153e-10 -3.30816e-11 -9.84985e-17 3.33148e-11 -3.33422e-11 -4.73519e-14 3.33143e-11 -3.31673e-11 1.75642e-17 3.32394e-11 -3.32402e-11 5.09822e-15 3.57996e-16 -3.61597e-15 0 0 0.0886246 0.176843 0.264646 0.349377 0.429902 0.500491 0.579659 0.655929 0.737454 0.778693 0.823906 0.903294 0.93244 1.04011 1.04908 1.11469 1.18526 1.23454 1.25691 1.29482 1.34653 1.35828 1.41984 1.46552 1.49039 1.54381 1.55834 1.53961 1.43673 1.20949 0.724459 0.172275 0.00970979 7.38905e-05 3.90319e-08 5.28801e-11 -3.32315e-11 3.32387e-11 -3.32386e-11 -7.58802e-14 7.64785e-14 3.31626e-11 -3.30906e-11 -3.28044e-16 3.3163e-11 -3.31627e-11 3.68695e-15 -5.0899e-15 3.33177e-11 0 0 0.0861899 0.175557 0.257884 0.336401 0.410549 0.49123 0.576605 0.649848 0.700026 0.755725 0.818705 0.884386 0.944572 0.958104 1.05405 1.09825 1.13381 1.19178 1.23855 1.29374 1.30906 1.3645 1.40357 1.42907 1.49626 1.51738 1.5206 1.45018 1.27861 0.923139 0.340916 0.0378098 0.00086358 1.64221e-06 8.55072e-10 2.14293e-13 7.59694e-14 3.32389e-11 -3.33143e-11 3.33141e-11 -3.32383e-11 3.31631e-11 -3.30913e-11 3.31634e-11 -3.58555e-16 -3.31626e-11 -7.30734e-14 3.33875e-11 -7.12235e-14 0 0 0.0861136 0.17193 0.245505 0.321636 0.405719 0.492664 0.563867 0.619878 0.676263 0.749209 0.810333 0.855295 0.898846 0.973293 0.999766 1.0808 1.10639 1.16236 1.20909 1.23815 1.3081 1.34843 1.36675 1.42633 1.46973 1.48726 1.43744 1.31771 1.04195 0.523679 0.0940611 0.00479894 2.95318e-05 2.13101e-08 -1.84452e-11 -1.40369e-13 7.66466e-14 -4.52466e-16 3.33111e-11 -3.33108e-11 -3.07545e-16 3.32393e-11 -3.3167e-11 3.31641e-11 -3.31635e-11 -7.30104e-14 3.33154e-11 -3.33146e-11 3.33888e-11 0 0 0.0809101 0.159209 0.237016 0.320914 0.406055 0.476086 0.538416 0.600142 0.67474 0.728607 0.779907 0.827088 0.895882 0.939089 0.989163 1.02328 1.09888 1.14013 1.16756 1.22401 1.26884 1.31035 1.37015 1.4018 1.42928 1.41309 1.32636 1.09663 0.683276 0.171128 0.0160092 0.000226178 4.34441e-07 3.59005e-10 -3.31757e-11 3.33143e-11 -3.3239e-11 1.0251e-16 3.33109e-11 -3.33864e-11 3.339e-11 -3.33145e-11 4.05818e-16 3.33121e-11 -3.33877e-11 3.33902e-11 -3.33156e-11 7.75931e-14 -3.79534e-15 0 0 0.0750974 0.155059 0.239329 0.316982 0.38328 0.452374 0.5231 0.595771 0.649242 0.705596 0.757613 0.828209 0.86591 0.917619 0.956137 1.03305 1.04947 1.10649 1.17464 1.20983 1.23319 1.30411 1.33689 1.36523 1.35881 1.29366 1.12038 0.788779 0.250973 0.0368854 0.000926505 5.24625e-06 3.45922e-09 3.90265e-12 3.33147e-11 -3.33121e-11 7.19387e-14 3.31672e-11 -3.33145e-11 3.33872e-11 -3.33116e-11 7.21257e-14 3.31667e-11 -3.33139e-11 3.33865e-11 -3.33113e-11 7.53577e-14 7.04807e-16 -3.28038e-15 0 0 0.0777373 0.155101 0.229963 0.2997 0.371599 0.444038 0.512426 0.5678 0.62954 0.688932 0.753064 0.790232 0.849773 0.893043 0.959235 0.980125 1.04672 1.09002 1.14196 1.18825 1.22911 1.2826 1.31963 1.29612 1.2396 1.10151 0.825389 0.32038 0.0624907 0.0024933 3.2672e-05 2.45366e-08 8.43826e-11 -3.31284e-11 3.3239e-11 -3.3312e-11 7.24947e-14 3.30906e-11 -3.30894e-11 3.32379e-11 -3.33115e-11 7.27235e-14 3.30904e-11 -3.30893e-11 3.32373e-11 -3.33107e-11 7.59145e-14 -1.52477e-13 3.3465e-11 0 0 0.0758785 0.146865 0.21856 0.293129 0.36317 0.428522 0.490315 0.556356 0.617789 0.674666 0.718186 0.781127 0.828948 0.886256 0.908548 0.985741 1.01602 1.08181 1.11235 1.16855 1.22667 1.23615 1.25685 1.2109 1.05539 0.812 0.355251 0.0833269 0.00500558 0.000107659 1.30755e-07 3.06714e-10 6.67926e-11 1.49145e-13 -1.48503e-13 7.59213e-14 -6.66297e-11 6.65538e-11 1.48712e-13 -1.48792e-13 7.58768e-14 -6.66295e-11 6.65537e-11 1.48898e-13 -1.49021e-13 7.63399e-14 -6.66301e-11 6.65542e-11 -3.32398e-11 0 0 0.0710865 0.141955 0.21255 0.28059 0.347801 0.415147 0.483428 0.545558 0.603479 0.65707 0.717498 0.763435 0.812264 0.847536 0.918798 0.94863 1.01465 1.03704 1.12079 1.14844 1.16589 1.18792 1.12725 1.02391 0.793397 0.350249 0.0921111 0.00721379 0.000216309 5.05391e-07 1.42823e-09 1.32076e-12 -7.58022e-14 3.33152e-11 2.68508e-16 -3.33155e-11 7.7155e-14 -7.70108e-14 3.3315e-11 4.99207e-16 -3.33156e-11 7.72387e-14 -7.68089e-14 3.33152e-11 7.12969e-14 -3.33866e-11 -4.38847e-16 -1.06473e-15 7.99798e-16 0 0 0.0683627 0.136764 0.205422 0.274966 0.342811 0.407558 0.469039 0.53054 0.590517 0.647708 0.693092 0.742417 0.790915 0.850648 0.882218 0.942316 0.976091 1.06124 1.05937 1.11918 1.09815 1.0475 0.947533 0.721365 0.330948 0.090936 0.00761229 0.000287933 1.09535e-06 3.42754e-09 4.75846e-12 1.33364e-14 -3.93197e-15 -7.2371e-14 -5.13904e-16 7.69225e-14 -3.43011e-16 -3.36248e-16 -7.63479e-14 2.30273e-16 7.68384e-14 -2.61167e-16 -3.76669e-15 3.30909e-11 -3.30919e-11 -1.48746e-13 3.32386e-11 -6.64786e-11 3.33091e-11 0 0 0.0668869 0.133195 0.199551 0.265926 0.332442 0.397735 0.45964 0.516326 0.570451 0.62272 0.679142 0.731633 0.781023 0.819229 0.876925 0.920386 0.984942 0.990451 1.05008 0.995683 0.982712 0.838061 0.626794 0.272644 0.0778681 0.00705629 0.000287592 1.25551e-06 4.92747e-09 1.03299e-11 1.09735e-13 -7.69254e-14 3.33122e-11 -3.3388e-11 7.5513e-14 7.67978e-14 -1.78129e-16 -5.01003e-16 -1.52269e-13 7.64018e-14 7.6438e-14 -4.1475e-15 -9.0087e-17 3.30909e-11 -6.64787e-11 6.64767e-11 -3.33152e-11 -3.31627e-11 3.33085e-11 0 0 0.0648623 0.130384 0.196356 0.262297 0.326944 0.388784 0.447595 0.504284 0.559229 0.613871 0.663659 0.711428 0.759554 0.813822 0.859119 0.903237 0.92429 0.957062 0.908128 0.88571 0.711355 0.515014 0.195729 0.0565299 0.00477102 0.000215072 1.09234e-06 4.92419e-09 4.52624e-11 -2.1709e-14 -3.31673e-11 3.31676e-11 -3.33144e-11 3.33139e-11 7.57822e-14 -3.3315e-11 7.67734e-14 -7.68348e-14 3.32395e-11 -3.33562e-11 1.86804e-13 3.28979e-11 -3.28985e-11 -6.997e-14 -1.91348e-16 -7.78602e-14 -3.32383e-11 3.32387e-11 7.70318e-14 0 0 0.0637326 0.127761 0.19209 0.256284 0.319899 0.381557 0.439463 0.493273 0.545936 0.598237 0.651224 0.701786 0.751094 0.787611 0.823762 0.844632 0.852582 0.812378 0.759143 0.576401 0.371293 0.125801 0.0332976 0.00233462 0.000106883 5.0146e-07 3.34962e-09 7.69175e-11 -2.1281e-14 7.0939e-14 -3.32381e-11 3.30913e-11 -3.30902e-11 3.31659e-11 -3.32387e-11 3.32386e-11 -3.31694e-11 3.31693e-11 -3.32389e-11 -4.80078e-14 -8.40337e-11 1.17043e-10 -3.28929e-11 -6.93291e-14 -6.40558e-16 -3.33173e-11 3.32408e-11 3.31628e-11 -6.64017e-11 0 0 0.0633361 0.126649 0.18958 0.251428 0.311388 0.369416 0.426393 0.482243 0.536269 0.588793 0.637319 0.678766 0.713808 0.741458 0.749386 0.739241 0.694718 0.604297 0.418495 0.228805 0.0696112 0.0144643 0.000869337 3.24565e-05 1.28583e-07 1.42137e-09 4.71981e-12 -4.35052e-14 3.3311e-11 -3.32395e-11 -7.22871e-14 3.32399e-11 -3.31665e-11 3.31666e-11 -3.32385e-11 3.32383e-11 -3.31691e-11 3.31691e-11 -3.33155e-11 1.02654e-13 -8.42548e-11 8.41765e-11 5.03632e-14 -1.27109e-16 -3.3315e-11 3.33144e-11 -7.6245e-14 -7.53259e-14 1.52404e-13 0 0 0.0624939 0.124468 0.185449 0.245205 0.303853 0.36093 0.415755 0.467542 0.516403 0.560467 0.598474 0.628195 0.644139 0.639972 0.614006 0.544783 0.420976 0.255364 0.114762 0.0293057 0.00437882 0.000216307 5.20435e-06 2.38938e-08 3.71356e-10 1.29539e-12 1.31312e-14 -7.58129e-14 3.33108e-11 -3.33864e-11 3.33891e-11 -3.33143e-11 9.15943e-16 3.33147e-11 -7.62118e-14 -3.32384e-11 -6.5991e-16 -3.40021e-16 3.32383e-11 -6.65965e-11 6.64437e-11 -6.65186e-11 3.34237e-11 -6.81477e-14 1.24793e-15 7.49342e-14 -7.61024e-14 -3.32386e-11 3.33078e-11 0 0 0.0606591 0.120475 0.178792 0.235485 0.290611 0.343362 0.392642 0.437453 0.476325 0.506122 0.523095 0.526216 0.509351 0.457685 0.360898 0.239227 0.121223 0.0417913 0.00804112 0.000805838 2.87002e-05 4.28188e-07 3.43169e-09 1.73516e-11 3.13222e-13 7.69352e-14 -3.97447e-15 3.31671e-11 -3.33142e-11 3.33865e-11 -3.33115e-11 -5.74826e-16 3.33146e-11 -3.33143e-11 3.32391e-11 -6.65538e-11 6.64769e-11 -3.31636e-11 -5.73749e-16 7.56269e-14 -2.28548e-13 -3.31614e-11 3.32299e-11 8.7929e-15 -1.6083e-16 7.5681e-14 -7.57674e-14 -3.32397e-11 3.3309e-11 0 0 0.0562924 0.11154 0.164951 0.216049 0.26435 0.30869 0.346938 0.37647 0.395167 0.399994 0.384398 0.340205 0.268828 0.18339 0.10031 0.0382013 0.00906267 0.0011607 7.06641e-05 1.60186e-06 2.06952e-08 2.85062e-10 3.8347e-12 3.33482e-11 4.1113e-15 -3.33163e-11 7.36291e-14 3.30901e-11 -3.31619e-11 3.33106e-11 -3.33112e-11 3.33148e-11 -3.3316e-11 7.74606e-14 -7.72878e-14 7.52279e-14 -2.29358e-13 1.52678e-13 7.89755e-16 7.29217e-14 -1.50066e-13 -7.53209e-14 7.49449e-14 -3.32386e-11 3.33156e-11 -9.41464e-15 -3.33054e-11 3.31617e-11 1.53904e-13 0 0 0.047736 0.0940148 0.137542 0.177232 0.211991 0.240117 0.25836 0.26171 0.245642 0.210848 0.164036 0.112007 0.0611502 0.0236998 0.00591358 0.000866857 6.43216e-05 2.15492e-06 3.73222e-08 8.93222e-10 -1.89963e-11 3.34476e-11 -3.31628e-11 3.32389e-11 3.51738e-15 -9.49198e-16 -6.66301e-11 6.65542e-11 7.60315e-14 -3.33898e-11 3.33899e-11 -7.59593e-14 -3.32389e-11 7.57437e-14 -1.23138e-16 -2.03628e-15 -7.63475e-14 -3.33159e-11 3.33167e-11 -7.72767e-14 9.416e-16 -7.59393e-14 -3.31638e-11 3.3316e-11 -1.91436e-13 1.81725e-13 -3.3422e-11 6.65188e-11 -6.64019e-11 0 0 0.0318944 0.0616815 0.0872718 0.106615 0.117878 0.119926 0.11283 0.0975228 0.0751194 0.0483483 0.0239055 0.0084152 0.0019825 0.000286352 2.26351e-05 8.95271e-07 2.30857e-08 7.56016e-10 -1.44426e-11 4.93238e-13 -1.39382e-13 3.3315e-11 -3.31662e-11 3.31667e-11 7.61341e-14 -3.33162e-11 7.68152e-14 -7.67744e-14 3.33154e-11 -3.33899e-11 3.339e-11 -3.33905e-11 7.55296e-14 7.39369e-14 1.58405e-15 -7.75862e-14 -8.57246e-15 -6.92371e-14 -3.32388e-11 3.32398e-11 -3.32396e-11 3.31644e-11 -1.1831e-16 1.52021e-13 -1.92572e-13 -8.39584e-11 8.40328e-11 4.16947e-14 7.73721e-14 0 0 0.0109399 0.0204989 0.0274562 0.0308464 0.0300549 0.0251534 0.0174711 0.0096071 0.00398153 0.00118599 0.000239458 3.03089e-05 2.22777e-06 1.00885e-07 4.57165e-09 1.93625e-10 4.07311e-11 -3.30958e-11 3.32463e-11 -6.6554e-11 6.65538e-11 -3.32392e-11 7.24432e-14 -7.12123e-14 -2.37766e-16 7.55792e-14 -5.52409e-17 1.36307e-16 -7.63767e-14 3.33094e-11 -3.33093e-11 4.52519e-16 -1.53286e-13 2.25554e-13 -7.42866e-14 -9.49032e-15 -3.33142e-11 3.32359e-11 1.01433e-14 -3.32396e-11 7.437e-16 3.31217e-11 3.33561e-11 -6.65193e-11 3.3315e-11 -8.41846e-11 1.17198e-10 -6.62856e-11 3.33072e-11 0 0 0.000773416 0.00127105 0.00135402 0.00108396 0.000668003 0.000313585 0.000109306 2.72251e-05 4.60436e-06 5.13001e-07 4.21191e-08 3.52184e-09 3.36099e-10 -6.41305e-12 2.54159e-11 1.27419e-13 -3.3361e-11 6.45855e-16 3.32386e-11 -3.32387e-11 -1.1372e-16 -2.76014e-16 3.33116e-11 -3.33864e-11 7.59534e-14 7.54351e-14 -7.34489e-16 8.15682e-16 -7.64382e-14 3.33093e-11 -3.33092e-11 -6.28855e-16 3.31621e-11 -6.64798e-11 3.33154e-11 -8.474e-14 -3.32394e-11 3.32369e-11 1.05278e-14 -3.32387e-11 3.31647e-11 3.309e-14 -8.40341e-11 8.41098e-11 -3.33151e-11 6.65208e-11 -3.35065e-11 -3.29716e-11 3.33073e-11 0 0 3.74364e-07 5.05002e-07 3.91046e-07 2.05365e-07 7.77855e-08 2.27266e-08 5.68926e-09 1.2961e-09 2.67544e-10 2.40373e-11 3.6848e-12 1.27505e-11 -1.23731e-11 7.86923e-14 -2.79911e-14 2.6051e-14 -2.10513e-11 3.33147e-11 -3.339e-11 3.33145e-11 -3.31671e-11 3.31671e-11 -3.33141e-11 3.33878e-11 3.0992e-15 -3.33162e-11 7.62407e-14 -1.52246e-13 3.33921e-11 -3.33915e-11 3.33149e-11 -3.32403e-11 -4.09515e-16 3.85787e-16 -3.33174e-11 3.32393e-11 -9.31176e-15 8.09078e-15 -3.32381e-11 3.33171e-11 -1.52437e-13 3.41298e-14 -8.40339e-11 8.39589e-11 2.67758e-13 -1.58589e-13 -3.32302e-11 3.31611e-11 1.54024e-13 0 0 2.97648e-12 3.24901e-12 4.17792e-12 2.7654e-12 -4.40061e-13 5.0