<?xml version="1.0"?>
<VTKFile type="PolyData">
	<PolyData>
		<Piece NumberOfPoints="2601" NumberOfPolys="2500">
			<Points>
				<DataArray type="Float32" NumberOfComponents="3" format="ascii">
 0 0 0 0.335906 0 0 0.267007 0 0 0.331838 0 0 0.340843 0 0 0.362013 0 0 0.38104 0 0 0.395803 0 0 0.410761 0 0 0.421457 0 0 0.434097 0 0 0.442704 0 0 0.453235 0 0 0.461069 0 0 0.469935 0 0 0.477037 0 0 0.483879 0 0 0.489777 0 0 0.496101 0 0 0.501278 0 0 0.506394 0 0 0.511036 0 0 0.515348 0 0 0.519408 0 0 0.523277 0 0 0.527629 0 0 0.533727 0 0 0.543807 0 0 0.56022 0 0 0.58 0 0 0.6 0 0 0.62 0 0 0.64 0 0 0.66 0 0 0.68 0 0 0.7 0 0 0.72 0 0 0.74 0 0 0.76 0 0 0.78 0 0 0.8 0 0 0.82 0 0 0.84 0 0 0.86 0 0 0.88 0 0 0.9 0 0 0.92 0 0 0.94 0 0 0.96 0 0 0.98 0 0 1 0 0 0 0.335906 0 0.154238 0.154238 0 0.305752 0.137297 0 0.292733 0.123517 0 0.336615 0.0843813 0 0.357781 0.0753378 0 0.376057 0.0671611 0 0.393826 0.0605318 0 0.406511 0.0556405 0 0.420537 0.0511395 0 0.430606 0.0469239 0 0.442445 0.0433346 0 0.450774 0.0401529 0 0.460638 0.037638 0 0.46832 0.0355424 0 0.476315 0.0336423 0 0.48277 0.0318489 0 0.489156 0.0301787 0 0.495197 0.0286285 0 0.500631 0.0271864 0 0.505777 0.0259329 0 0.510508 0.0248149 0 0.51485 0.023799 0 0.518959 0.0228573 0 0.522867 0.021983 0 0.527275 0.0212038 0 0.533457 0.0205701 0 0.543664 0.0201619 0 0.560204 0.020016 0 0.58 0.0200001 0 0.6 0.02 0 0.62 0.02 0 0.64 0.02 0 0.66 0.02 0 0.68 0.02 0 0.7 0.02 0 0.72 0.02 0 0.74 0.02 0 0.76 0.02 0 0.78 0.02 0 0.8 0.02 0 0.82 0.02 0 0.84 0.02 0 0.86 0.02 0 0.88 0.02 0 0.9 0.02 0 0.92 0.02 0 0.94 0.02 0 0.96 0.02 0 0.98 0.02 0 1 0.02 0 0 0.267007 0 0.137297 0.305752 0 0.177716 0.177716 0 0.284906 0.19663 0 0.309155 0.166869 0 0.338859 0.143735 0 0.36348 0.129199 0 0.381282 0.119372 0 0.398776 0.108946 0 0.41169 0.100268 0 0.425956 0.0924763 0 0.435998 0.0854755 0 0.447592 0.0797222 0 0.456119 0.0747926 0 0.465518 0.0706279 0 0.472815 0.0668455 0 0.480234 0.0632745 0 0.486819 0.0599946 0 0.492922 0.0568977 0 0.498624 0.0541156 0 0.503995 0.0516396 0 0.508909 0.0494397 0 0.513386 0.047434 0 0.517611 0.0455784 0 0.521647 0.0438513 0 0.526224 0.042315 0 0.532661 0.0410738 0 0.543252 0.0402929 0 0.560159 0.0400259 0 0.58 0.0400001 0 0.6 0.04 0 0.62 0.04 0 0.64 0.04 0 0.66 0.04 0 0.68 0.04 0 0.7 0.04 0 0.72 0.04 0 0.74 0.04 0 0.76 0.04 0 0.78 0.04 0 0.8 0.04 0 0.82 0.04 0 0.84 0.04 0 0.86 0.04 0 0.88 0.04 0 0.9 0.04 0 0.92 0.04 0 0.94 0.04 0 0.96 0.04 0 0.98 0.04 0 1 0.04 0 0 0.331838 0 0.123517 0.292733 0 0.19663 0.284906 0 0.200908 0.200908 0 0.271882 0.231831 0 0.315689 0.196848 0 0.341339 0.185066 0 0.366203 0.168431 0 0.384237 0.157293 0 0.402158 0.145016 0 0.415421 0.13459 0 0.42961 0.125406 0 0.43981 0.117401 0 0.451059 0.110644 0 0.459488 0.104676 0 0.468198 0.0990961 0 0.475692 0.0939615 0 0.48309 0.0890815 0 0.48933 0.0845652 0 0.495494 0.0805167 0 0.501059 0.0769195 0 0.506296 0.0737064 0 0.510987 0.0707691 0 0.515394 0.0680373 0 0.519636 0.0654968 0 0.524503 0.0632442 0 0.531383 0.06145 0 0.542633 0.0603686 0 0.560104 0.0600267 0 0.58 0.0600001 0 0.6 0.06 0 0.62 0.06 0 0.64 0.06 0 0.66 0.06 0 0.68 0.06 0 0.7 0.06 0 0.72 0.06 0 0.74 0.06 0 0.76 0.06 0 0.78 0.06 0 0.8 0.06 0 0.82 0.06 0 0.84 0.06 0 0.86 0.06 0 0.88 0.06 0 0.9 0.06 0 0.92 0.06 0 0.94 0.06 0 0.96 0.06 0 0.98 0.06 0 1 0.06 0 0 0.340843 0 0.0843813 0.336615 0 0.166869 0.309155 0 0.231831 0.271882 0 0.232719 0.232719 0 0.282943 0.253147 0 0.321936 0.219998 0 0.346341 0.213883 0 0.36996 0.196659 0 0.387612 0.185541 0 0.405215 0.173009 0 0.418205 0.162566 0 0.431929 0.153101 0 0.442003 0.144822 0 0.452745 0.137076 0 0.4613 0.130093 0 0.470126 0.12336 0 0.477612 0.117139 0 0.484774 0.111353 0 0.491194 0.106217 0 0.497152 0.101608 0 0.502677 0.0974926 0 0.507705 0.09368 0 0.512343 0.0901207 0 0.516881 0.0868143 0 0.522165 0.0839105 0 0.529697 0.0816491 0 0.541905 0.080377 0 0.560056 0.08002 0 0.58 0.08 0 0.6 0.08 0 0.62 0.08 0 0.64 0.08 0 0.66 0.08 0 0.68 0.08 0 0.7 0.08 0 0.72 0.08 0 0.74 0.08 0 0.76 0.08 0 0.78 0.08 0 0.8 0.08 0 0.82 0.08 0 0.84 0.08 0 0.86 0.08 0 0.88 0.08 0 0.9 0.08 0 0.92 0.08 0 0.94 0.08 0 0.96 0.08 0 0.98 0.08 0 1 0.08 0 0 0.362013 0 0.0753378 0.357781 0 0.143735 0.338859 0 0.196848 0.315689 0 0.253147 0.282943 0 0.261839 0.261839 0 0.299242 0.267654 0 0.328823 0.240193 0 0.351506 0.23598 0 0.373704 0.218888 0 0.390494 0.208689 0 0.407403 0.196364 0 0.420032 0.186332 0 0.433314 0.176324 0 0.44342 0.167611 0 0.454212 0.159017 0 0.462823 0.151238 0 0.471434 0.143787 0 0.479028 0.13719 0 0.48594 0.131082 0 0.492293 0.125662 0 0.498145 0.120672 0 0.503577 0.11606 0 0.508527 0.111711 0 0.513457 0.107712 0 0.519302 0.104249 0 0.527714 0.101647 0 0.541195 0.100322 0 0.560023 0.100011 0 0.58 0.1 0 0.6 0.1 0 0.62 0.1 0 0.64 0.1 0 0.66 0.1 0 0.68 0.1 0 0.7 0.1 0 0.72 0.1 0 0.74 0.1 0 0.76 0.1 0 0.78 0.1 0 0.8 0.1 0 0.82 0.1 0 0.84 0.1 0 0.86 0.1 0 0.88 0.1 0 0.9 0.1 0 0.92 0.1 0 0.94 0.1 0 0.96 0.1 0 0.98 0.1 0 1 0.1 0 0 0.38104 0 0.0671611 0.376057 0 0.129199 0.36348 0 0.185066 0.341339 0 0.219998 0.321936 0 0.267654 0.299242 0 0.282321 0.282321 0 0.311826 0.281302 0 0.335746 0.257308 0 0.356386 0.254277 0 0.377225 0.237099 0 0.393193 0.227976 0 0.40946 0.215449 0 0.421795 0.20577 0 0.43491 0.195285 0 0.445036 0.186379 0 0.455336 0.177279 0 0.464053 0.169412 0 0.472482 0.161889 0 0.479715 0.155151 0 0.486623 0.148916 0 0.49278 0.14315 0 0.498698 0.137779 0 0.504013 0.132719 0 0.509465 0.128116 0 0.516045 0.124227 0 0.525591 0.121454 0 0.540626 0.120225 0 0.560007 0.120004 0 0.58 0.12 0 0.6 0.12 0 0.62 0.12 0 0.64 0.12 0 0.66 0.12 0 0.68 0.12 0 0.7 0.12 0 0.72 0.12 0 0.74 0.12 0 0.76 0.12 0 0.78 0.12 0 0.8 0.12 0 0.82 0.12 0 0.84 0.12 0 0.86 0.12 0 0.88 0.12 0 0.9 0.12 0 0.92 0.12 0 0.94 0.12 0 0.96 0.12 0 0.98 0.12 0 1 0.12 0 0 0.395803 0 0.0605318 0.393826 0 0.119372 0.381282 0 0.168431 0.366203 0 0.213883 0.346341 0 0.240193 0.328823 0 0.281302 0.311826 0 0.298381 0.298381 0 0.322475 0.293477 0 0.343076 0.271984 0 0.361526 0.26934 0 0.380917 0.252026 0 0.396026 0.243961 0 0.411715 0.231135 0 0.423733 0.221975 0 0.436251 0.211114 0 0.446185 0.202416 0 0.45635 0.19343 0 0.464794 0.18562 0 0.472985 0.17811 0 0.48011 0.171257 0 0.486845 0.164763 0 0.493116 0.158748 0 0.498918 0.153067 0 0.505002 0.148001 0 0.512552 0.143845 0 0.523553 0.141127 0 0.540261 0.140123 0 0.560002 0.140001 0 0.58 0.14 0 0.6 0.14 0 0.62 0.14 0 0.64 0.14 0 0.66 0.14 0 0.68 0.14 0 0.7 0.14 0 0.72 0.14 0 0.74 0.14 0 0.76 0.14 0 0.78 0.14 0 0.8 0.14 0 0.82 0.14 0 0.84 0.14 0 0.86 0.14 0 0.88 0.14 0 0.9 0.14 0 0.92 0.14 0 0.94 0.14 0 0.96 0.14 0 0.98 0.14 0 1 0.14 0 0 0.410761 0 0.0556405 0.406511 0 0.108946 0.398776 0 0.157293 0.384237 0 0.196659 0.36996 0 0.23598 0.351506 0 0.257308 0.335746 0 0.293477 0.322475 0 0.311679 0.311679 0 0.33247 0.303766 0 0.350778 0.284723 0 0.36779 0.281585 0 0.385243 0.264374 0 0.399398 0.257187 0 0.414091 0.244075 0 0.425526 0.235606 0 0.437675 0.224886 0 0.447276 0.216526 0 0.457028 0.207652 0 0.465422 0.200002 0 0.473206 0.192391 0 0.480355 0.185474 0 0.486985 0.178834 0 0.493349 0.172744 0 0.50022 0.167364 0 0.508996 0.163153 0 0.521879 0.16074 0 0.540082 0.160049 0 0.56 0.16 0 0.58 0.16 0 0.6 0.16 0 0.62 0.16 0 0.64 0.16 0 0.66 0.16 0 0.68 0.16 0 0.7 0.16 0 0.72 0.16 0 0.74 0.16 0 0.76 0.16 0 0.78 0.16 0 0.8 0.16 0 0.82 0.16 0 0.84 0.16 0 0.86 0.16 0 0.88 0.16 0 0.9 0.16 0 0.92 0.16 0 0.94 0.16 0 0.96 0.16 0 0.98 0.16 0 1 0.16 0 0 0.421457 0 0.0511395 0.420537 0 0.100268 0.41169 0 0.145016 0.402158 0 0.185541 0.387612 0 0.218888 0.373704 0 0.254277 0.356386 0 0.271984 0.343076 0 0.303766 0.33247 0 0.322798 0.322798 0 0.341394 0.312311 0 0.35835 0.295947 0 0.374277 0.291302 0 0.389807 0.274727 0 0.40303 0.268107 0 0.416813 0.255184 0 0.427674 0.247449 0 0.439032 0.236863 0 0.448461 0.22893 0 0.457755 0.220171 0 0.465865 0.21258 0 0.473492 0.205044 0 0.48045 0.198112 0 0.48747 0.191704 0 0.495339 0.186261 0 0.50564 0.182259 0 0.520777 0.180387 0 0.540018 0.180013 0 0.56 0.18 0 0.58 0.18 0 0.6 0.18 0 0.62 0.18 0 0.64 0.18 0 0.66 0.18 0 0.68 0.18 0 0.7 0.18 0 0.72 0.18 0 0.74 0.18 0 0.76 0.18 0 0.78 0.18 0 0.8 0.18 0 0.82 0.18 0 0.84 0.18 0 0.86 0.18 0 0.88 0.18 0 0.9 0.18 0 0.92 0.18 0 0.94 0.18 0 0.96 0.18 0 0.98 0.18 0 1 0.18 0 0 0.434097 0 0.0469239 0.430606 0 0.0924763 0.425956 0 0.13459 0.415421 0 0.173009 0.405215 0 0.208689 0.390494 0 0.237099 0.377225 0 0.26934 0.361526 0 0.284723 0.350778 0 0.312311 0.341394 0 0.331895 0.331895 0 0.349118 0.319687 0 0.364637 0.305642 0 0.380072 0.299323 0 0.394168 0.283985 0 0.406808 0.277736 0 0.419458 0.265013 0 0.429876 0.257842 0 0.440585 0.247551 0 0.449567 0.239818 0 0.458525 0.231328 0 0.466239 0.223814 0 0.473778 0.216498 0 0.481484 0.210083 0 0.49061 0.204764 0 0.502895 0.201359 0 0.520235 0.200146 0 0.540003 0.200002 0 0.56 0.2 0 0.58 0.2 0 0.6 0.2 0 0.62 0.2 0 0.64 0.2 0 0.66 0.2 0 0.68 0.2 0 0.7 0.2 0 0.72 0.2 0 0.74 0.2 0 0.76 0.2 0 0.78 0.2 0 0.8 0.2 0 0.82 0.2 0 0.84 0.2 0 0.86 0.2 0 0.88 0.2 0 0.9 0.2 0 0.92 0.2 0 0.94 0.2 0 0.96 0.2 0 0.98 0.2 0 1 0.2 0 0 0.442704 0 0.0433346 0.442445 0 0.0854755 0.435998 0 0.125406 0.42961 0 0.162566 0.418205 0 0.196364 0.407403 0 0.227976 0.393193 0 0.252026 0.380917 0 0.281585 0.36779 0 0.295947 0.35835 0 0.319687 0.349118 0 0.339295 0.339295 0 0.355395 0.326286 0 0.370075 0.314339 0 0.385312 0.306792 0 0.397985 0.292622 0 0.410131 0.286409 0 0.421949 0.27413 0 0.431783 0.267139 0 0.44194 0.257265 0 0.450619 0.24973 0 0.458997 0.241447 0 0.46698 0.234339 0 0.475701 0.227931 0 0.486335 0.223141 0 0.501126 0.220635 0 0.520048 0.220036 0 0.54 0.22 0 0.56 0.22 0 0.58 0.22 0 0.6 0.22 0 0.62 0.22 0 0.64 0.22 0 0.66 0.22 0 0.68 0.22 0 0.7 0.22 0 0.72 0.22 0 0.74 0.22 0 0.76 0.22 0 0.78 0.22 0 0.8 0.22 0 0.82 0.22 0 0.84 0.22 0 0.86 0.22 0 0.88 0.22 0 0.9 0.22 0 0.92 0.22 0 0.94 0.22 0 0.96 0.22 0 0.98 0.22 0 1 0.22 0 0 0.453235 0 0.0401529 0.450774 0 0.0797222 0.447592 0 0.117401 0.43981 0 0.153101 0.431929 0 0.186332 0.420032 0 0.215449 0.40946 0 0.243961 0.396026 0 0.264374 0.385243 0 0.291302 
[...]
			<PointData Scalars="VitesseX">
				<DataArray Name="VitesseX" type="Float32" format="ascii">
 0 2.03514 0.88541 1.52934 1.46643 1.5783 1.58157 1.77403 1.85658 1.86598 1.91696 1.99722 2.06103 2.04819 2.11776 2.19344 2.29459 2.24424 2.27756 2.36149 2.44579 2.45508 2.52205 2.54415 2.51185 2.34092 1.89819 1.03784 0.121435 0.000419134 5.75927e-09 1.12245e-12 -2.37692e-20 -1.07457e-12 1.06583e-12 -3.62409e-12 3.62409e-12 -1.06583e-12 1.07199e-12 -1.07199e-12 1.06583e-12 -3.62409e-12 3.62665e-12 8.74854e-15 -8.74726e-15 -3.62666e-12 3.61792e-12 -3.61792e-12 3.62666e-12 8.76538e-15 0 0 0.348193 1.57171 1.0386 1.48119 1.54726 1.57658 1.74878 1.8481 1.84126 1.91 2.00762 2.03022 2.07175 2.10719 2.21699 2.25951 2.24523 2.29719 2.33874 2.43988 2.4567 2.51585 2.54219 2.50835 2.33358 1.88343 1.01442 0.113329 0.00036625 5.0996e-09 1.12084e-12 -2.15698e-15 -1.07307e-12 1.06651e-12 -3.62474e-12 3.62474e-12 -1.0683e-12 1.07511e-12 -1.07511e-12 1.06829e-12 -3.62472e-12 3.62447e-12 8.71452e-15 -6.54241e-15 -3.62662e-12 3.62231e-12 -3.62231e-12 3.62664e-12 6.57817e-15 0 0 0.834661 0.437476 1.36005 1.25019 1.43406 1.51908 1.67534 1.77456 1.82888 1.88737 1.96545 2.02426 2.04147 2.1417 2.19617 2.19569 2.2452 2.32955 2.30596 2.42052 2.45749 2.50046 2.53512 2.49732 2.31085 1.83851 0.943317 0.0915473 0.00024337 3.54218e-09 -1.24441e-12 1.81266e-12 -5.35105e-13 -1.28197e-12 -1.81264e-12 1.80778e-12 1.28681e-12 -1.28154e-12 1.28169e-12 -1.28212e-12 -1.81262e-12 3.62448e-12 -1.80901e-12 -4.24908e-15 6.13785e-15 -1.68306e-14 1.68617e-14 -6.1425e-15 4.29184e-15 0 0 0.774281 0.98424 0.527169 1.09902 1.33469 1.42466 1.57545 1.70151 1.76749 1.8478 1.92889 1.96826 2.05741 2.11706 2.17305 2.13447 2.26942 2.30702 2.31848 2.38279 2.4523 2.48011 2.52205 2.47615 2.27076 1.76172 0.823584 0.0628589 0.000121452 1.9238e-09 1.8918e-14 -7.70969e-16 6.65409e-16 -2.18516e-15 -1.8137e-12 1.80879e-12 -5.30963e-12 5.31524e-12 3.47999e-15 -4.24139e-15 -1.81337e-12 1.81279e-12 -1.60407e-15 1.4858e-16 -5.31238e-12 5.30368e-12 -5.30362e-12 5.31013e-12 4.34609e-15 0 0 0.392624 0.791504 1.08725 0.901598 1.18311 1.36021 1.49394 1.62686 1.71587 1.78936 1.86858 1.94402 2.01877 2.09234 2.10101 2.15972 2.23296 2.27013 2.33905 2.34732 2.43339 2.45853 2.5028 2.44104 2.20822 1.65015 0.659174 0.035651 4.4533e-05 8.1132e-10 1.26984e-14 -1.8156e-12 1.81336e-12 -5.61474e-16 -1.8131e-12 1.80722e-12 -5.31219e-12 5.31628e-12 2.43816e-15 -7.9644e-16 -1.81277e-12 -7.64523e-16 1.8119e-12 -1.98315e-15 -5.31419e-12 5.30989e-12 -7.12321e-12 7.12749e-12 4.43458e-15 0 0 0.362258 0.628714 0.826953 1.15999 1.16787 1.32675 1.41797 1.55502 1.64774 1.73241 1.81082 1.90535 1.99254 2.00873 2.09747 2.16919 2.18095 2.25727 2.32718 2.33226 2.40108 2.43484 2.47789 2.38964 2.11428 1.49536 0.466658 0.0161023 1.16073e-05 2.61548e-10 -1.8199e-12 1.82584e-12 -1.46366e-14 -1.80113e-12 6.40756e-16 -1.70937e-14 1.83012e-12 -1.82789e-12 1.8281e-12 -1.81398e-12 -1.21516e-14 1.82579e-12 -1.82361e-12 6.35714e-15 1.8176e-12 -1.82404e-12 1.81972e-12 -1.81163e-12 2.82678e-15 0 0 0.30921 0.552764 0.79431 0.871994 1.15727 1.28788 1.4367 1.48476 1.57847 1.67174 1.76213 1.85328 1.91196 1.9919 2.08747 2.14779 2.13808 2.25786 2.27362 2.34774 2.3507 2.41589 2.43814 2.32351 1.98118 1.27866 0.278721 0.00555081 2.06717e-06 6.07884e-11 1.80379e-12 -1.05571e-11 1.0557e-11 -1.81525e-12 1.26311e-14 1.79843e-12 -1.23681e-11 1.23703e-11 -1.80061e-12 -1.26571e-14 1.81527e-12 -1.0559e-11 1.05591e-11 -6.50171e-15 -1.79672e-12 -2.2839e-14 1.83222e-12 -1.81778e-12 9.00396e-15 0 0 0.276795 0.555517 0.714632 0.941676 0.972627 1.24373 1.39843 1.48444 1.52166 1.59845 1.70302 1.77282 1.85882 1.9755 2.06367 2.06715 2.15193 2.19483 2.24761 2.34018 2.31416 2.39604 2.3794 2.23095 1.80911 0.983813 0.132846 0.00138791 2.49124e-07 8.28015e-12 1.80078e-12 -1.05549e-11 4.40969e-17 1.0557e-11 -1.82602e-12 1.82396e-12 -1.23913e-11 1.23891e-11 -1.80682e-12 1.80886e-12 -1.05548e-11 -1.25679e-14 1.05589e-11 -4.39795e-15 -1.23577e-11 1.23452e-11 -1.23448e-11 1.23448e-11 4.00139e-14 0 0 0.266601 0.495512 0.720395 0.842495 1.07703 1.09217 1.32046 1.45223 1.51184 1.55964 1.63618 1.72255 1.8572 1.94568 1.97054 2.06152 2.11233 2.14159 2.23041 2.29448 2.31462 2.36324 2.30721 2.0896 1.58538 0.636372 0.0476373 0.00023461 2.30488e-08 -5.54123e-13 -1.25289e-14 1.81529e-12 -1.05569e-11 -4.23773e-17 1.05462e-11 -1.237e-11 1.23698e-11 -1.23719e-11 1.05631e-11 3.61579e-12 -1.23656e-11 -1.15001e-16 -1.82392e-12 1.23828e-11 -1.0576e-11 1.23703e-11 -2.47254e-11 2.47254e-11 -1.23408e-11 0 0 0.231777 0.474486 0.644089 0.845597 0.95216 1.19398 1.17664 1.37518 1.49245 1.58206 1.65375 1.7471 1.83339 1.87285 1.9414 2.0283 2.07732 2.11258 2.20306 2.24231 2.3247 2.30843 2.21485 1.89992 1.26635 0.320143 0.0120892 2.4377e-05 2.07025e-09 1.97893e-12 -1.83871e-12 1.26049e-14 1.80483e-12 -1.0559e-11 1.25382e-14 -2.75917e-14 1.23675e-11 -1.23549e-11 1.05335e-11 -1.05482e-11 1.69261e-14 -1.49437e-14 1.49679e-14 -2.15002e-15 1.23711e-11 -1.23839e-11 1.51374e-14 -2.10188e-17 8.46157e-17 0 0 0.217294 0.437809 0.617426 0.77728 0.960656 1.05908 1.28526 1.24095 1.45513 1.5603 1.66684 1.75274 1.77359 1.84235 1.94152 1.99171 2.03529 2.13803 2.13601 2.24498 2.2948 2.25701 2.07301 1.66765 0.841338 0.116012 0.00201249 1.41561e-06 1.70699e-10 -1.05333e-11 1.05457e-11 -1.23593e-11 1.2347e-11 1.8111e-12 -2.47275e-11 2.47297e-11 -1.23875e-11 2.76284e-14 1.23449e-11 -2.47149e-11 1.2372e-11 1.23429e-11 -1.23428e-11 1.5349e-14 -1.32309e-15 3.37551e-17 1.23288e-11 -2.4715e-11 2.47451e-11 0 0 0.205004 0.407111 0.588347 0.743071 0.910911 1.06952 1.15317 1.34319 1.35455 1.52645 1.6406 1.73267 1.7859 1.83201 1.90184 1.94867 2.0492 2.08943 2.13945 2.22909 2.248 2.16361 1.88599 1.32937 0.419021 0.028213 0.000194265 4.99204e-08 -8.5941e-13 1.67851e-14 -1.20009e-14 1.20945e-14 -1.63865e-14 -1.45888e-14 3.09132e-14 -2.42951e-14 1.02351e-14 -3.98608e-14 4.02304e-14 1.37194e-14 -1.44326e-14 1.23582e-11 -1.23829e-11 4.07362e-14 -1.26194e-15 -6.32975e-16 1.23292e-11 -1.23826e-11 4.04215e-14 0 0 0.186462 0.382208 0.549901 0.72236 0.883669 1.03042 1.14346 1.21836 1.4563 1.45451 1.57355 1.68096 1.72718 1.83703 1.87431 1.95596 2.03168 2.06334 2.15079 2.20536 2.17204 2.00861 1.6358 0.852875 0.142556 0.00421177 9.39039e-06 1.858e-09 -1.02261e-11 1.23584e-11 -1.23668e-11 -2.09802e-11 2.09756e-11 2.30244e-16 1.23711e-11 -1.23667e-11 -2.09943e-11 3.33222e-11 -1.23174e-11 1.23565e-11 -1.23569e-11 -2.10042e-11 3.33518e-11 -1.23469e-11 1.23564e-11 -1.23572e-11 -2.10042e-11 3.3337e-11 -2.47152e-11 0 0 0.176726 0.357676 0.538322 0.702855 0.862198 0.979719 1.10448 1.25909 1.33499 1.47441 1.51516 1.56449 1.78054 1.76803 1.86093 1.95127 1.97574 2.0632 2.15127 2.13955 2.05934 1.78604 1.23776 0.385545 0.030247 0.000340104 2.07391e-07 9.50239e-11 -1.23221e-11 -2.75447e-14 1.23769e-11 -3.33665e-11 3.33518e-11 -1.23473e-11 -1.48936e-14 1.23621e-11 -3.33521e-11 3.33371e-11 -1.23174e-11 -2.956e-14 1.23768e-11 -3.33517e-11 3.33368e-11 4.02615e-14 -1.24023e-11 8.75362e-15 -2.09709e-11 -1.35188e-14 2.1007e-11 0 0 0.17356 0.354085 0.524673 0.679538 0.814235 0.94862 1.09847 1.21793 1.30388 1.36253 1.52421 1.56622 1.60927 1.80776 1.84075 1.88646 1.967 2.05476 2.096 2.06345 1.85812 1.48128 0.694639 0.108906 0.00368899 1.18121e-05 3.90013e-09 -1.11317e-11 -4.2521e-15 2.98e-14 -2.53339e-14 1.23828e-11 -1.23826e-11 -4.72799e-15 2.98422e-14 -4.01136e-14 2.50482e-14 -2.50582e-14 4.01443e-14 -5.51685e-14 1.2402e-11 -7.31598e-17 -1.23872e-11 3.89302e-14 5.26483e-16 -6.08267e-14 -2.09305e-11 -1.88967e-15 3.33534e-11 0 0 0.175356 0.345398 0.501271 0.643352 0.787198 0.941053 1.05955 1.16305 1.24715 1.37937 1.41884 1.55427 1.59579 1.69205 1.83525 1.87993 1.94923 2.01187 1.99575 1.88696 1.60235 0.974813 0.245266 0.0182257 0.000199085 1.71996e-07 1.06383e-10 -2.46869e-11 2.47148e-11 -1.23427e-11 5.18552e-17 1.23425e-11 -2.47147e-11 2.47148e-11 -1.23534e-11 1.08045e-14 -5.52211e-14 4.05371e-14 1.47465e-14 1.23167e-11 -3.33218e-11 3.33508e-11 -1.23866e-11 3.88057e-14 -2.10034e-11 3.33113e-11 -3.33367e-11 3.3389e-11 -3.65214e-14 0 0 0.165462 0.315078 0.466408 0.619994 0.773289 0.893669 1.01052 1.11837 1.24946 1.30187 1.40415 1.48185 1.59891 1.64262 1.75656 1.83695 1.90541 1.91161 1.85644 1.60926 1.17397 0.402429 0.0534115 0.00131994 4.43799e-06 2.02791e-09 1.34174e-11 -1.23672e-11 2.53162e-14 1.51793e-14 -1.52949e-14 -2.99691e-14 3.00748e-14 -2.10172e-16 -1.09e-14 -2.0994e-11 3.32962e-11 6.54866e-14 -2.473e-11 2.47043e-11 -3.3325e-11 -1.2367e-14 3.3349e-11 -3.71042e-14 -3.32975e-11 3.32721e-11 7.78418e-14 -3.33886e-11 3.33905e-11 0 0 0.150145 0.30018 0.459426 0.603255 0.722015 0.847813 0.976859 1.10447 1.17517 1.2936 1.35127 1.48693 1.51209 1.60356 1.74264 1.79783 1.80017 1.75755 1.58329 1.25989 0.520091 0.108022 0.00457862 4.71004e-05 2.91815e-08 4.14685e-11 -3.3337e-11 3.33516e-11 -1.23319e-11 1.53272e-14 -1.53915e-14 -2.99571e-14 3.00105e-14 -1.23725e-11 2.47041e-11 -3.33624e-11 3.33513e-11 -3.33267e-11 2.09795e-11 1.23175e-11 2.64901e-14 -3.33482e-11 3.66028e-14 3.33122e-11 1.33374e-15 -2.47743e-15 -3.33107e-11 4.14842e-15 -2.38703e-15 0 0 0.150023 0.295173 0.435453 0.566265 0.70272 0.834378 0.950826 1.04034 1.16415 1.24669 1.35746 1.37709 1.52738 1.59159 1.64005 1.7406 1.67386 1.50708 1.22075 0.590702 0.156478 0.00993421 0.000239591 2.73316e-07 3.84039e-10 1.25445e-11 -3.33515e-11 2.10044e-11 1.52251e-14 1.53174e-14 -1.53812e-14 1.23426e-11 -2.47152e-11 1.23321e-11 1.23715e-11 -1.04604e-14 -3.3352e-11 1.16097e-17 3.33519e-11 -3.33663e-11 -2.50346e-14 3.33517e-11 -3.32744e-11 -2.22934e-18 3.33118e-11 -3.33126e-11 4.21778e-15 3.57679e-16 -2.49921e-15 0 0 0.142968 0.277849 0.412496 0.550585 0.679913 0.799364 0.913351 1.03596 1.12689 1.22154 1.27743 1.42533 1.44495 1.5705 1.56913 1.52391 1.45597 1.16476 0.588061 0.172716 0.0159516 0.000587 1.33984e-06 2.64569e-09 1.70702e-12 -9.29759e-15 1.2368e-11 -2.47151e-11 1.23323e-11 5.54726e-14 -4.084e-14 2.5281e-14 1.17417e-14 1.23196e-11 -3.33368e-11 3.32865e-11 -3.33119e-11 3.33115e-11 -3.33113e-11 -4.01884e-14 4.04322e-14 3.32714e-11 -3.32338e-11 6.74564e-17 3.32711e-11 -3.32709e-11 2.84729e-15 -3.8761e-15 3.33536e-11 0 0 0.135832 0.270981 0.401298 0.524756 0.651248 0.783191 0.907307 1.00251 1.09968 1.19051 1.30367 1.34131 1.44199 1.40087 1.43449 1.28052 1.04277 0.543829 0.16779 0.0176874 0.000796014 3.84574e-06 8.95226e-09 3.32717e-11 1.97624e-14 -2.47152e-11 2.47002e-11 -1.23145e-11 1.22889e-11 -4.56792e-11 4.5668e-11 -1.22797e-11 1.23322e-11 -3.79501e-14 -3.32987e-11 -7.78061e-14 3.98207e-14 3.33117e-11 -3.33512e-11 3.33511e-11 -3.3311e-11 3.32714e-11 -3.32342e-11 3.32719e-11 -3.78851e-16 -3.32709e-11 -3.80149e-14 3.3389e-11 -3.62909e-14 0 0 0.130499 0.260769 0.389173 0.515163 0.637327 0.752058 0.858745 0.972658 1.07668 1.17232 1.22811 1.29975 1.2708 1.27321 1.09628 0.900466 0.414218 0.141419 0.0154867 0.000793474 5.02996e-06 1.40723e-08 2.59797e-11 3.5533e-14 -2.03821e-18 1.46433e-14 1.23278e-11 -1.23147e-11 1.22886e-11 -3.33322e-11 3.3321e-11 -3.32841e-11 3.33364e-11 -6.25155e-14 -3.32736e-11 -7.82694e-14 4.05584e-14 -1.17725e-16 3.33491e-11 -3.33492e-11 -1.01085e-16 3.33119e-11 -3.32743e-11 3.32724e-11 -3.32721e-11 -3.78886e-14 3.3352e-11 -3.33513e-11 3.33905e-11 0 0 0.127298 0.252947 0.376029 0.496712 0.615631 0.732322 0.846568 0.947564 1.029 1.09494 1.13982 1.12388 1.09069 0.914042 0.673299 0.284769 0.0954499 0.00918301 0.000581671 3.83548e-06 1.40293e-08 4.7449e-11 1.17307e-13 -2.96187e-14 -1.50432e-14 1.23871e-11 -1.23725e-11 -1.23583e-11 2.47043e-11 -1.02306e-14 -3.3352e-11 3.7889e-14 -1.21411e-15 3.33151e-11 -3.33916e-11 3.33512e-11 -3.33113e-11 -4.16092e-17 3.3349e-11 -3.3389e-11 3.33914e-11 -3.33512e-11 -9.17504e-18 3.33501e-11 -3.33899e-11 3.33915e-11 -3.33519e-11 4.15249e-14 -2.4278e-15 0 0 0.122319 0.24411 0.364358 0.482256 0.596424 0.703435 0.79913 0.883704 0.941362 0.965564 0.946568 0.877863 0.687705 0.436642 0.169797 0.046164 0.0041691 0.000237368 1.32717e-06 8.94217e-09 2.59061e-11 8.69715e-14 1.53834e-14 -2.98345e-14 -1.49181e-14 1.34207e-14 1.47451e-14 -4.02486e-14 -2.09644e-11 3.33267e-11 -3.3352e-11 3.33493e-11 -3.33497e-11 5.19359e-16 3.33499e-11 -3.33499e-11 3.74594e-14 3.32741e-11 -3.33517e-11 3.33896e-11 -3.33493e-11 3.76057e-14 3.32736e-11 -3.33512e-11 3.33893e-11 -3.33491e-11 4.04719e-14 2.92997e-16 -2.34963e-15 0 0 0.115317 0.22969 0.3416 0.448689 0.548715 0.638313 0.711407 0.758593 0.773708 0.736068 0.622852 0.431845 0.232107 0.0778323 0.0158064 0.00123091 4.66058e-05 2.68801e-07 2.63205e-09 8.46551e-12 9.53293e-14 -2.98245e-14 3.00403e-14 -2.99784e-14 1.23945e-16 -2.71987e-14 -2.09643e-11 3.32717e-11 -3.32584e-11 3.33135e-11 -3.3992e-16 -3.33915e-11 3.33515e-11 -3.32734e-11 3.33117e-11 -3.33497e-11 3.76409e-14 3.32337e-11 -3.32333e-11 3.33113e-11 -3.33493e-11 3.78077e-14 3.32335e-11 -3.3233e-11 3.33108e-11 -3.33486e-11 4.07151e-14 -8.11704e-14 3.34306e-11 0 0 0.102366 0.202859 0.298653 0.385699 0.459507 0.516338 0.548366 0.539252 0.471096 0.352127 0.210438 0.0901963 0.0232014 0.00329751 0.000190386 4.38402e-06 2.84989e-08 3.5634e-10 2.63854e-11 1.96607e-14 -2.47148e-11 2.47001e-11 -2.46999e-11 2.47149e-11 -1.06293e-14 -2.60088e-14 -6.66882e-11 6.66629e-11 7.84971e-14 -3.8163e-14 -3.5213e-16 -6.67029e-11 6.66628e-11 7.84404e-14 -7.82497e-14 4.02285e-14 -6.67033e-11 6.66631e-11 7.83161e-14 -7.83133e-14 4.01024e-14 -6.67031e-11 6.6663e-11 7.85641e-14 -7.85221e-14 4.05035e-14 -6.67034e-11 6.66632e-11 -3.33116e-11 0 0 0.0781645 0.152851 0.219682 0.272342 0.302577 0.302696 0.271444 0.214092 0.139305 0.0657903 0.0200979 0.00353447 0.000316578 1.14771e-05 1.6818e-07 1.9721e-09 4.11257e-11 -1.21727e-11 1.18796e-14 -3.07684e-17 1.50222e-14 1.23277e-11 -2.47011e-11 2.46905e-11 4.24322e-15 -3.33522e-11 4.13159e-14 -4.11261e-14 3.33518e-11 1.03308e-16 -3.3352e-11 4.12511e-14 -4.13582e-14 3.33519e-11 -4.14412e-17 -3.33517e-11 4.121e-14 -4.121e-14 3.33516e-11 2.73147e-16 -3.33518e-11 4.12116e-14 -4.12595e-14 3.33521e-11 3.66744e-14 -3.33888e-11 -3.15606e-16 -8.94347e-16 9.02269e-16 0 0 0.0376933 0.0705149 0.0941453 0.105451 0.102437 0.0844015 0.0550376 0.0260321 0.00826144 0.00163079 0.000175651 8.98439e-06 1.99958e-07 3.71651e-09 7.96519e-11 1.33684e-11 -3.33372e-11 3.33518e-11 -1.2347e-11 -1.48637e-14 1.23874e-11 -1.23726e-11 1.28009e-14 -2.1043e-11 1.49621e-14 4.0365e-14 1.97782e-16 -9.26633e-17 -4.11208e-14 -4.24733e-17 4.10792e-14 -8.41447e-17 -2.92414e-15 -3.8333e-14 -2.63268e-16 4.16257e-14 1.55622e-16 -1.55622e-16 -4.17099e-14 2.72104e-16 4.14586e-14 1.34752e-16 -3.61146e-15 3.32337e-11 -3.32348e-11 -7.80972e-14 3.3311e-11 -6.66235e-11 3.33481e-11 0 0 0.00752183 0.0127575 0.014136 0.0116325 0.00711691 0.00313822 0.000956426 0.000188053 2.16302e-05 1.31947e-06 4.64062e-08 1.67454e-09 9.26295e-11 -1.11646e-11 2.67757e-14 1.23474e-11 -3.33517e-11 2.10046e-11 2.55913e-16 1.23707e-11 -1.23708e-11 -1.23584e-11 2.4704e-11 -3.34013e-11 4.04251e-14 4.03854e-14 9.26634e-17 -5.7648e-16 -4.06995e-14 -2.7484e-18 4.12197e-14 -4.10843e-14 3.33497e-11 -3.33904e-11 4.00524e-14 4.15416e-14 1.97288e-16 -1.97275e-16 -8.17941e-14 4.04619e-14 4.12052e-14 -2.86852e-15 -8.18224e-16 3.32337e-11 -6.66237e-11 6.6622e-11 -3.33521e-11 -3.32708e-11 3.33474e-11 0 0 5.26365e-05 6.97219e-05 5.17763e-05 2.4956e-05 7.92321e-06 1.61088e-06 2.06851e-07 1.92291e-08 1.74787e-09 1.55561e-10 -5.09676e-12 1.44649e-11 -1.23689e-11 -3.87367e-15 2.9873e-14 -2.55645e-14 1.23828e-11 -2.473e-11 1.23325e-11 1.23957e-11 -1.23963e-11 3.91778e-14 -2.10443e-11 3.33649e-11 2.38489e-15 -3.33523e-11 4.09355e-14 -4.14819e-14 3.33526e-11 -4.02962e-14 -3.32745e-11 3.32746e-11 -3.33517e-11 3.33511e-11 4.01935e-14 -3.33516e-11 4.08498e-14 -4.08076e-14 3.33116e-11 -3.33735e-11 9.77786e-14 3.31311e-11 -3.31319e-11 -3.52367e-14 -8.57721e-16 -4.17534e-14 -3.33111e-11 3.33116e-11 4.11952e-14 0 0 6.59675e-10 8.9883e-10 7.17013e-10 3.95481e-10 1.54303e-10 4.28351e-11 9.67489e-12 -8.40433e-13 1.93413e-12 -1.0561e-11 1.64929e-14 1.23266e-11 -2.47125e-11 2.4715e-11 -1.23425e-11 1.52002e-14 -1.50928e-14 1.50206e-14 -5.53695e-14 -2.09945e-11 3.33406e-11 3.9999e-14 -3.33768e-11 3.33903e-11 -3.7657e-14 -7.33673e-16 -6.67037e-11 6.67037e-11 -3.95798e-14 3.62537e-14 -3.33111e-11 3.32344e-11 -3.32336e-11 3.32736e-11 -3.33116e-11 3.33115e-11 -3.32763e-11 3.32763e-11 -3.33114e-11 -2.65554e-14 -8.40925e-11 1.17281e-10 -3.31273e-11 -3.49498e-14 -9.53824e-16 -3.33537e-11 3.33126e-11 3.32709e-11 -6.65817e-11 0 0 2.78475e-15 -1.27046e-12 4.10389e-15 1.92967e-15 -1.82188e-12 1.82456e-12 -1.82581e-12 1.26894e-14 1.78788e-12 -1.05425e-11 -9.57136e-15 1.23395e-11 -1.23678e-11 2.54414e-14 -5.15493e-17 1.53354e-14 -1.51768e-14 1.51051e-14 -4.07576e-14 -2.1035e-11 3.3381e-11 -3.33514e-11 3.33515e-11 3.429e-16 6.07606e-16 -3.33524e-11 4.08939e-14 -4.07991e-14 3.33488e-11 -3.33122e-11 -3.76014e-14 3.33124e-11 -3.32738e-11 3.32739e-11 -3.33114e-11 3.33114e-11 -3.32762e-11 3.32761e-11 -3.33522e-11 5.26828e-14 -8.42081e-11 8.41659e-11 2.89394e-14 -2.52647e-16 -3.33516e-11 3.33511e-11 -4.04085e-14 -4.00503e-14 8.14573e-14 0 0 -9.87646e-16 -1.81712e-12 6.5802e-16 -1.81567e-12 1.80457e-12 -1.05611e-11 1.0559e-11 -1.81529e-12 -1.3012e-14 -8.72911e-12 -9.36219e-15 -2.10077e-11 3.33368e-11 -1.23321e-11 1.23425e-11 -2.4715e-11 2.4715e-11 -1.23425e-11 -2.59782e-14 1.23541e-11 -3.33593e-11 3.79979e-14 3.32735e-11 -3.33109e-11 3.51826e-16 4.03422e-14 -8.41447e-17 -4.06806e-14 3.33487e-11 -3.33888e-11 3.33905e-11 -3.33512e-11 6.23449e-16 3.33517e-11 -4.01688e-14 -3.33114e-11 -3.88179e-16 -2.77747e-16 3.33108e-11 -6.66861e-11 6.66047e-11 -6.66443e-11 3.34084e-11 -3.48459e-14 8.92956e-16 4.0506e-14 -4.1442e-14 -3.33114e-11 3.33469e-11 0 0 -1.64352e-15 5.36314e-13 -3.63043e-12 1.81329e-12 -1.09427e-14 -1.05569e-11 -1.64198e-17 1.0557e-11 -1.82619e-12 -8.7457e-12 1.52802e-14 -2.10327e-11 3.33518e-11 -1.23322e-11 -2.98952e-14 2.97801e-14 -2.97584e-14 2.96629e-14 1.14675e-14 1.2332e-11 -3.33374e-11 3.72434e-16 3.32741e-11 -3.33511e-11 4.0394e-14 4.03231e-14 -2.96622e-15 3.32739e-11 -3.33515e-11 3.33892e-11 -3.33497e-11 -1.59054e-16 3.33513e-11 -3.3351e-11 3.33116e-11 -6.66633e-11 6.6622e-11 -3.32716e-11 6.90704e-16 4.07876e-14 -1.23111e-13 -3.32704e-11 3.33056e-11 5.98626e-15 1.93854e-16 4.09388e-14 -4.11477e-14 -3.33121e-11 3.33478e-11 0 0 5.40127e-16 -1.27639e-12 -2.17893e-15 -6.44802e-16 -1.82558e-12 1.81532e-12 -1.0557e-11 -6.30005e-17 1.05336e-11 1.80669e-12 -2.47261e-11 2.47155e-11 -1.23677e-11 -4.43338e-15 2.98217e-14 -1.44927e-16 -1.23722e-11 1.23316e-11 1.24239e-11 -1.17529e-13 9.18675e-14 -3.3389e-11 4.31461e-16 3.33499e-11 2.56951e-15 -3.33526e-11 3.81728e-14 3.32333e-11 -3.32709e-11 3.33491e-11 -3.33495e-11 3.33518e-11 -3.33527e-11 4.18703e-14 -4.09065e-14 4.02865e-14 -1.23428e-13 8.09814e-14 1.99152e-15 4.07867e-14 -8.30665e-14 -3.98375e-14 3.95035e-14 -3.33111e-11 3.33522e-11 -6.34498e-15 -3.33455e-11 3.32704e-11 8.23147e-14 0 0 5.6905e-16 -1.81279e-12 1.81296e-12 -1.81357e-12 5.09512e-16 -1.28964e-14 1.8048e-12 -1.05466e-11 -1.25078e-14 -1.71272e-14 3.04057e-14 1.2314e-11 -2.46998e-11 2.4715e-11 -1.23534e-11 1.05447e-14 -4.02556e-14 1.23718e-11 -3.33372e-11 3.33241e-11 -3.33493e-11 3.33118e-11 -3.32734e-11 3.33117e-11 2.67454e-15 -1.05194e-15 -6.67038e-11 6.66635e-11 4.05663e-14 -3.33916e-11 3.33917e-11 -4.02479e-14 -3.33116e-11 4.11507e-14 2.82712e-19 -4.93787e-16 -4.29217e-14 -3.33526e-11 3.33535e-11 -3.93174e-14 -1.70062e-15 -4.01019e-14 -3.32718e-11 3.33529e-11 -1.01218e-13 9.43295e-14 -3.34072e-11 6.66447e-11 -6.6582e-11 0 0 5.70044e-16 -1.81766e-12 1.81778e-12 -1.81936e-12 -4.27053e-15 1.81939e-12 -1.84061e-12 -8.72287e-12 -2.74542e-14 1.50427e-14 2.68379e-15 1.23395e-11 -1.23826e-11 4.03266e-14 -1.10168e-14 -2.09941e-11 3.33109e-11 3.99829e-14 -3.34168e-11 7.75281e-14 -7.79919e-14 3.3352e-11 -3.32733e-11 3.32738e-11 4.04838e-14 -3.33526e-11 4.08092e-14 -4.08091e-14 3.33519e-11 -3.33916e-11 3.33917e-11 -3.33919e-11 3.99245e-14 4.07837e-14 4.93787e-16 -4.21188e-14 -6.51724e-15 -3.63045e-14 -3.33109e-11 3.33119e-11 -3.33121e-11 3.32722e-11 4.42432e-18 8.09919e-14 -1.02271e-13 -8.40524e-