<?xml version="1.0"?>
<VTKFile type="PolyData">
	<PolyData>
		<Piece NumberOfPoints="2601" NumberOfPolys="2500">
			<Points>
				<DataArray type="Float32" NumberOfComponents="3" format="ascii">
 0 0 0 0.413667 0 0 0.296428 0 0 0.389072 0 0 0.391909 0 0 0.418537 0 0 0.439463 0 0 0.457151 0 0 0.475046 0 0 0.488636 0 0 0.503069 0 0 0.513947 0 0 0.526358 0 0 0.535801 0 0 0.547036 0 0 0.554851 0 0 0.563953 0 0 0.570882 0 0 0.578514 0 0 0.585162 0 0 0.591754 0 0 0.597604 0 0 0.603763 0 0 0.609178 0 0 0.614411 0 0 0.619183 0 0 0.623728 0 0 0.628082 0 0 0.632217 0 0 0.636193 0 0 0.640076 0 0 0.644662 0 0 0.651365 0 0 0.662581 0 0 0.680094 0 0 0.7 0 0 0.72 0 0 0.74 0 0 0.76 0 0 0.78 0 0 0.8 0 0 0.82 0 0 0.84 0 0 0.86 0 0 0.88 0 0 0.9 0 0 0.92 0 0 0.94 0 0 0.96 0 0 0.98 0 0 1 0 0 0 0.413667 0 0.165758 0.165758 0 0.365817 0.17059 0 0.328543 0.153312 0 0.388988 0.0983374 0 0.412131 0.0882245 0 0.434455 0.0783965 0 0.455037 0.0703748 0 0.4706 0.0651782 0 0.48706 0.0597001 0 0.499773 0.0550948 0 0.513342 0.0507272 0 0.523573 0.0470074 0 0.535718 0.0441763 0 0.544499 0.041731 0 0.554755 0.0396394 0 0.562088 0.0375622 0 0.57051 0.0356027 0 0.577379 0.0338079 0 0.584666 0.0321817 0 0.590907 0.0307352 0 0.597136 0.0294709 0 0.603111 0.0283376 0 0.608669 0.0272461 0 0.613912 0.02622 0 0.618746 0.0252517 0 0.623295 0.0243526 0 0.627699 0.0235298 0 0.631855 0.022778 0 0.635848 0.0220828 0 0.63976 0.0214346 0 0.644388 0.0208523 0 0.651163 0.0203807 0 0.662489 0.0200954 0 0.680087 0.0200065 0 0.7 0.02 0 0.72 0.02 0 0.74 0.02 0 0.76 0.02 0 0.78 0.02 0 0.8 0.02 0 0.82 0.02 0 0.84 0.02 0 0.86 0.02 0 0.88 0.02 0 0.9 0.02 0 0.92 0.02 0 0.94 0.02 0 0.96 0.02 0 0.98 0.02 0 1 0.02 0 0 0.296428 0 0.17059 0.365817 0 0.19247 0.19247 0 0.336762 0.23484 0 0.35253 0.195196 0 0.390057 0.166517 0 0.418517 0.149169 0 0.440109 0.138507 0 0.460834 0.126058 0 0.476835 0.116877 0 0.493448 0.107452 0 0.506036 0.0997179 0 0.519616 0.0930921 0 0.529912 0.087411 0 0.541744 0.082944 0 0.55011 0.078683 0 0.559703 0.0747015 0 0.567154 0.07086 0 0.575329 0.0672457 0 0.582138 0.0639816 0 0.589009 0.061093 0 0.595411 0.0586407 0 0.601437 0.0563953 0 0.607092 0.0542913 0 0.612452 0.0522724 0 0.617419 0.0503679 0 0.622041 0.048592 0 0.626549 0.046967 0 0.630777 0.0454734 0 0.634819 0.0440906 0 0.638816 0.042802 0 0.643576 0.0416479 0 0.650568 0.0407211 0 0.662225 0.0401742 0 0.680069 0.0400106 0 0.7 0.04 0 0.72 0.04 0 0.74 0.04 0 0.76 0.04 0 0.78 0.04 0 0.8 0.04 0 0.82 0.04 0 0.84 0.04 0 0.86 0.04 0 0.88 0.04 0 0.9 0.04 0 0.92 0.04 0 0.94 0.04 0 0.96 0.04 0 0.98 0.04 0 1 0.04 0 0 0.389072 0 0.153312 0.328543 0 0.23484 0.336762 0 0.218591 0.218591 0 0.309015 0.273093 0 0.362623 0.225349 0 0.393191 0.213477 0 0.421857 0.193947 0 0.443732 0.182398 0 0.465098 0.167658 0 0.481518 0.1567 0 0.498063 0.145775 0 0.51061 0.136864 0 0.524232 0.129486 0 0.534261 0.122716 0 0.54555 0.116686 0 0.553882 0.110743 0 0.563361 0.105124 0 0.570951 0.0999006 0 0.578777 0.0951245 0 0.585687 0.0910144 0 0.592661 0.0873873 0 0.598667 0.0840919 0 0.604593 0.0810004 0 0.610023 0.0780403 0 0.615231 0.0752351 0 0.620015 0.0726186 0 0.62465 0.0702166 0 0.629002 0.068005 0 0.633124 0.0659486 0 0.637264 0.0640362 0 0.642248 0.0623319 0 0.649611 0.0609843 0 0.661829 0.0602229 0 0.680047 0.0600111 0 0.7 0.06 0 0.72 0.06 0 0.74 0.06 0 0.76 0.06 0 0.78 0.06 0 0.8 0.06 0 0.82 0.06 0 0.84 0.06 0 0.86 0.06 0 0.88 0.06 0 0.9 0.06 0 0.92 0.06 0 0.94 0.06 0 0.96 0.06 0 0.98 0.06 0 1 0.06 0 0 0.391909 0 0.0983374 0.388988 0 0.195196 0.35253 0 0.273093 0.309015 0 0.264332 0.264332 0 0.324146 0.296852 0 0.370959 0.250664 0 0.400145 0.246491 0 0.427096 0.226291 0 0.448375 0.215335 0 0.469237 0.20021 0 0.484974 0.189321 0 0.501111 0.17854 0 0.513487 0.169341 0 0.526889 0.161074 0 0.536883 0.153029 0 0.548126 0.145408 0 0.556794 0.138221 0 0.566058 0.131444 0 0.573778 0.125521 0 0.581617 0.120267 0 0.588462 0.115644 0 0.594996 0.111323 0 0.601079 0.107293 0 0.606747 0.103401 0 0.612181 0.0997447 0 0.617254 0.0963315 0 0.622027 0.0931906 0 0.626553 0.0902929 0 0.630792 0.0875852 0 0.635135 0.0850734 0 0.640441 0.0828546 0 0.648344 0.0811409 0 0.661362 0.0802344 0 0.680026 0.0800087 0 0.7 0.08 0 0.72 0.08 0 0.74 0.08 0 0.76 0.08 0 0.78 0.08 0 0.8 0.08 0 0.82 0.08 0 0.84 0.08 0 0.86 0.08 0 0.88 0.08 0 0.9 0.08 0 0.92 0.08 0 0.94 0.08 0 0.96 0.08 0 0.98 0.08 0 1 0.08 0 0 0.418537 0 0.0882245 0.412131 0 0.166517 0.390057 0 0.225349 0.362623 0 0.296852 0.324146 0 0.305892 0.305892 0 0.346498 0.310064 0 0.379371 0.274553 0 0.407029 0.272769 0 0.432351 0.252363 0 0.452123 0.242803 0 0.47203 0.227967 0 0.487333 0.217453 0 0.503309 0.206451 0 0.515696 0.196511 0 0.529071 0.187033 0 0.539298 0.178084 0 0.550366 0.169497 0 0.559112 0.161879 0 0.568345 0.154903 0 0.576032 0.148821 0 0.583431 0.143143 0 0.59026 0.137976 0 0.59669 0.132979 0 0.602645 0.128244 0 0.60836 0.123777 0 0.613743 0.119642 0 0.618723 0.115809 0 0.623444 0.112264 0 0.627861 0.10893 0 0.632474 0.105854 0 0.638214 0.103174 0 0.646841 0.101175 0 0.6609 0.100209 0 0.680012 0.100005 0 0.7 0.1 0 0.72 0.1 0 0.74 0.1 0 0.76 0.1 0 0.78 0.1 0 0.8 0.1 0 0.82 0.1 0 0.84 0.1 0 0.86 0.1 0 0.88 0.1 0 0.9 0.1 0 0.92 0.1 0 0.94 0.1 0 0.96 0.1 0 0.98 0.1 0 1 0.1 0 0 0.439463 0 0.0783965 0.434455 0 0.149169 0.418517 0 0.213477 0.393191 0 0.250664 0.370959 0 0.310064 0.346498 0 0.329525 0.329525 0 0.361874 0.32515 0 0.388111 0.29567 0 0.413078 0.295436 0 0.437044 0.274059 0 0.455629 0.265976 0 0.475043 0.251051 0 0.490076 0.240631 0 0.50591 0.229074 0 0.518216 0.218764 0 0.531305 0.208594 0 0.541389 0.199539 0 0.552236 0.190922 0 0.56102 0.183458 0 0.569721 0.176284 0 0.577289 0.16987 0 0.584789 0.163731 0 0.591441 0.15793 0 0.597876 0.152417 0 0.603805 0.147256 0 0.609521 0.142464 0 0.614762 0.138005 0 0.61971 0.133839 0 0.624368 0.129917 0 0.629339 0.126325 0 0.63565 0.123262 0 0.64521 0.12109 0 0.660513 0.120158 0 0.680004 0.120002 0 0.7 0.12 0 0.72 0.12 0 0.74 0.12 0 0.76 0.12 0 0.78 0.12 0 0.8 0.12 0 0.82 0.12 0 0.84 0.12 0 0.86 0.12 0 0.88 0.12 0 0.9 0.12 0 0.92 0.12 0 0.94 0.12 0 0.96 0.12 0 0.98 0.12 0 1 0.12 0 0 0.457151 0 0.0703748 0.455037 0 0.138507 0.440109 0 0.193947 0.421857 0 0.246491 0.400145 0 0.274553 0.379371 0 0.32515 0.361874 0 0.347858 0.347858 0 0.374629 0.339846 0 0.397322 0.314132 0 0.419173 0.314626 0 0.441878 0.292158 0 0.459437 0.285439 0 0.478257 0.270191 0 0.492956 0.260047 0 0.508283 0.248112 0 0.520254 0.238089 0 0.533028 0.227868 0 0.543097 0.219181 0 0.553499 0.210462 0 0.562039 0.202847 0 0.570752 0.195415 0 0.578327 0.188581 0 0.585706 0.182007 0 0.592391 0.175891 0 0.598669 0.170098 0 0.604631 0.164731 0 0.6102 0.159684 0 0.615404 0.154944 0 0.620372 0.150482 0 0.625799 0.146449 0 0.632853 0.143108 0 0.643596 0.140909 0 0.660244 0.140097 0 0.680001 0.140001 0 0.7 0.14 0 0.72 0.14 0 0.74 0.14 0 0.76 0.14 0 0.78 0.14 0 0.8 0.14 0 0.82 0.14 0 0.84 0.14 0 0.86 0.14 0 0.88 0.14 0 0.9 0.14 0 0.92 0.14 0 0.94 0.14 0 0.96 0.14 0 0.98 0.14 0 1 0.14 0 0 0.475046 0 0.0651782 0.4706 0 0.126058 0.460834 0 0.182398 0.443732 0 0.226291 0.427096 0 0.272769 0.407029 0 0.29567 0.388111 0 0.339846 0.374629 0 0.363442 0.363442 0 0.386531 0.352554 0 0.407125 0.330176 0 0.426922 0.330085 0 0.447523 0.307235 0 0.464079 0.301612 0 0.481906 0.286134 0 0.495919 0.276652 0 0.510672 0.264645 0 0.522376 0.25533 0 0.534629 0.245041 0 0.544334 0.236527 0 0.554575 0.227742 0 0.563113 0.220017 0 0.571535 0.212297 0 0.579274 0.205326 0 0.586389 0.19854 0 0.593007 0.192272 0 0.599216 0.186324 0 0.605118 0.180769 0 0.610603 0.175499 0 0.615952 0.170589 0 0.621943 0.166219 0 0.629944 0.162733 0 0.642174 0.160672 0 0.660093 0.160047 0 0.68 0.16 0 0.7 0.16 0 0.72 0.16 0 0.74 0.16 0 0.76 0.16 0 0.78 0.16 0 0.8 0.16 0 0.82 0.16 0 0.84 0.16 0 0.86 0.16 0 0.88 0.16 0 0.9 0.16 0 0.92 0.16 0 0.94 0.16 0 0.96 0.16 0 0.98 0.16 0 1 0.16 0 0 0.488636 0 0.0597001 0.48706 0 0.116877 0.476835 0 0.167658 0.465098 0 0.215335 0.448375 0 0.252363 0.432351 0 0.295436 0.413078 0 0.314132 0.397322 0 0.352554 0.386531 0 0.37678 0.37678 0 0.397413 0.363519 0 0.417152 0.344288 0 0.435591 0.342189 0 0.453958 0.320198 0 0.469582 0.315124 0 0.486088 0.299668 0 0.49942 0.291126 0 0.513382 0.279079 0 0.524396 0.270324 0 0.536247 0.260062 0 0.545873 0.251854 0 0.555622 0.242937 0 0.564118 0.235235 0 0.572481 0.227518 0 0.579877 0.22041 0 0.586962 0.213595 0 0.593405 0.207206 0 0.59962 0.201177 0 0.605381 0.195485 0 0.611197 0.190231 0 0.617892 0.185658 0 0.627066 0.18219 0 0.641102 0.180425 0 0.660027 0.180017 0 0.68 0.18 0 0.7 0.18 0 0.72 0.18 0 0.74 0.18 0 0.76 0.18 0 0.78 0.18 0 0.8 0.18 0 0.82 0.18 0 0.84 0.18 0 0.86 0.18 0 0.88 0.18 0 0.9 0.18 0 0.92 0.18 0 0.94 0.18 0 0.96 0.18 0 0.98 0.18 0 1 0.18 0 0 0.503069 0 0.0550948 0.499773 0 0.107452 0.493448 0 0.1567 0.481518 0 0.20021 0.469237 0 0.242803 0.452123 0 0.274059 0.437044 0 0.314626 0.419173 0 0.330176 0.407125 0 0.363519 0.397413 0 0.387978 0.387978 0 0.407227 0.37317 0 0.426067 0.356781 0 0.443902 0.352279 0 0.460256 0.331807 0 0.475233 0.326888 0 0.490445 0.311621 0 0.502933 0.303723 0 0.516148 0.291681 0 0.526878 0.283584 0 0.538119 0.273329 0 0.547384 0.265316 0 0.556947 0.256568 0 0.565154 0.248894 0 0.573225 0.241216 0 0.580484 0.234138 0 0.587346 0.227321 0 0.593739 0.220951 0 0.599842 0.214921 0 0.606187 0.209447 0 0.613796 0.204809 0 0.624433 0.201568 0 0.640446 0.200217 0 0.660006 0.200004 0 0.68 0.2 0 0.7 0.2 0 0.72 0.2 0 0.74 0.2 0 0.76 0.2 0 0.78 0.2 0 0.8 0.2 0 0.82 0.2 0 0.84 0.2 0 0.86 0.2 0 0.88 0.2 0 0.9 0.2 0 0.92 0.2 0 0.94 0.2 0 0.96 0.2 0 0.98 0.2 0 1 0.2 0 0 0.513947 0 0.0507272 0.513342 0 0.0997179 0.506036 0 0.145775 0.498063 0 0.189321 0.484974 0 0.227967 0.47203 0 0.265976 0.455629 0 0.292158 0.441878 0 0.330085 0.426922 0 0.344288 0.417152 0 0.37317 0.407227 0 0.397327 0.397327 0 0.415771 0.381765 0 0.433599 0.367816 0 0.451009 0.36116 0 0.466074 0.342589 0 0.480222 0.337357 0 0.494318 0.322382 0 0.506521 0.315217 0 0.518966 0.30317 0 0.529168 0.295411 0 0.540029 0.285368 0 0.548985 0.277546 0 0.558053 0.268907
[...]
			<PointData Scalars="VitesseX">
				<DataArray Name="VitesseX" type="Float32" format="ascii">
 0 1.8011 0.57979 1.28869 1.12769 1.25868 1.24051 1.32287 1.37007 1.37031 1.45398 1.53916 1.53827 1.55685 1.62702 1.68595 1.72487 1.74356 1.7522 1.7922 1.87863 1.85939 1.85842 1.89341 1.96496 1.95517 2.01896 2.01515 2.02147 2.06263 2.02427 1.85309 1.43153 0.661064 0.0470954 6.2641e-05 7.44316e-10 -1.05264e-12 1.06935e-12 -1.06935e-12 1.06006e-12 -3.61827e-12 3.62214e-12 1.31477e-14 -1.31489e-14 -3.62214e-12 3.60899e-12 -3.60899e-12 3.62214e-12 1.31983e-14 0 0 0.233815 1.37245 0.753919 1.11957 1.17059 1.24874 1.30373 1.3565 1.37873 1.45668 1.52584 1.54731 1.55201 1.61468 1.70053 1.70853 1.74794 1.74191 1.81376 1.86064 1.85003 1.87524 1.8841 1.96514 1.95713 2.01331 2.01579 2.02081 2.0612 2.02115 1.84719 1.42072 0.645161 0.0440555 5.5206e-05 6.72509e-10 -1.05695e-12 1.07405e-12 -1.07404e-12 1.06377e-12 -3.61924e-12 3.61886e-12 1.31267e-14 -9.85152e-15 -3.62212e-12 3.61559e-12 -3.61559e-12 3.62214e-12 9.91066e-15 0 0 0.779865 0.268179 1.1999 0.90874 1.0917 1.15902 1.26734 1.3286 1.35059 1.43837 1.51699 1.52468 1.54444 1.61053 1.67676 1.71498 1.71215 1.7621 1.81744 1.82256 1.83677 1.9036 1.87358 1.95951 1.96013 1.99836 2.01787 2.01961 2.05679 2.01164 1.82929 1.38819 0.597858 0.0359065 3.7676e-05 4.92646e-10 1.29613e-12 -1.28288e-12 1.28305e-12 -1.28368e-12 -1.81002e-12 3.61888e-12 -1.80454e-12 -6.4203e-15 9.30757e-15 -2.5474e-14 2.55102e-14 -9.32882e-15 6.46893e-15 0 0 0.689381 0.859501 0.34024 0.810529 0.999091 1.09907 1.18785 1.2788 1.32474 1.4082 1.48172 1.51178 1.52864 1.59457 1.6648 1.67644 1.71896 1.7587 1.80891 1.77903 1.8507 1.89381 1.88762 1.93993 1.95999 1.97882 2.01907 2.01984 2.04906 1.99518 1.79859 1.33327 0.521038 0.0251719 1.97348e-05 2.91517e-10 -5.30145e-12 5.31344e-12 5.11161e-15 -6.28991e-15 -1.81114e-12 1.81035e-12 -2.51009e-15 1.87409e-16 -5.30911e-12 5.29605e-12 -5.29599e-12 5.30575e-12 6.50127e-15 0 0 0.2823 0.621151 0.896858 0.697677 0.88907 1.03549 1.15712 1.21837 1.28598 1.37841 1.43468 1.4704 1.50814 1.57069 1.61713 1.66837 1.70466 1.75524 1.75219 1.79154 1.84626 1.86315 1.90571 1.91849 1.94962 1.96296 2.01231 2.02289 2.03771 1.97104 1.7528 1.25388 0.419931 0.014868 7.82231e-06 1.37238e-10 -5.30696e-12 5.31505e-12 3.4899e-15 -8.91804e-16 -1.81034e-12 -9.61011e-16 1.80876e-12 -3.03139e-15 -5.31195e-12 5.30551e-12 -7.11657e-12 7.12299e-12 6.58029e-15 0 0 0.256709 0.492423 0.605879 0.936506 0.99403 1.02257 1.08815 1.18408 1.24353 1.33301 1.39253 1.42964 1.47308 1.53306 1.58955 1.64291 1.70383 1.69843 1.73109 1.80483 1.82435 1.84064 1.9085 1.90329 1.93367 1.95269 1.9958 2.02436 2.02399 1.93868 1.68796 1.14491 0.305341 0.00720015 2.30777e-06 4.92524e-11 1.83733e-12 -1.83318e-12 1.83339e-12 -1.81193e-12 -1.84107e-14 1.83001e-12 -1.82673e-12 9.58199e-15 1.81748e-12 -1.82719e-12 1.82067e-12 -1.80838e-12 4.02797e-15 0 0 0.220043 0.409039 0.612316 0.62785 0.906071 1.03607 1.08194 1.10367 1.22245 1.28941 1.34032 1.39998 1.43882 1.50108 1.57126 1.63194 1.64941 1.67289 1.7257 1.79818 1.78279 1.84619 1.87788 1.90666 1.91504 1.9476 1.97416 2.01841 2.00711 1.8975 1.60006 0.997793 0.193849 0.00276662 5.03528e-07 1.55881e-11 -1.23578e-11 1.23614e-11 -1.79188e-12 -1.91121e-14 1.81413e-12 -1.05535e-11 1.05536e-11 -9.81105e-15 -1.78584e-12 -3.46229e-14 1.83959e-12 -1.81775e-12 1.34249e-14 0 0 0.19094 0.400043 0.540393 0.701419 0.719152 0.931927 1.0829 1.11619 1.16423 1.23845 1.30607 1.34741 1.41593 1.47267 1.54445 1.57951 1.6123 1.65747 1.73508 1.74055 1.78639 1.82584 1.84393 1.91357 1.90042 1.94465 1.9551 2.00501 1.98051 1.8432 1.48738 0.805927 0.10325 0.000811436 8.46075e-08 4.84886e-12 -1.2393e-11 1.23897e-11 -1.80126e-12 1.80443e-12 -1.05471e-11 -1.90026e-14 1.05534e-11 -6.6424e-15 -1.23423e-11 1.23234e-11 -1.2323e-11 1.23229e-11 6.05031e-14 0 0 0.183135 0.363772 0.521812 0.634286 0.770796 0.791869 0.9963 1.10925 1.15001 1.19742 1.26839 1.3203 1.38074 1.45368 1.49523 1.53346 1.59248 1.66671 1.67988 1.72007 1.78557 1.78621 1.82866 1.89927 1.89762 1.93721 1.94557 1.98659 1.93867 1.7649 1.34611 0.578057 0.044118 0.000173072 1.24195e-08 -1.18072e-11 1.23608e-11 -1.23641e-11 1.05597e-11 3.60586e-12 -1.23547e-11 -1.19913e-16 -1.82696e-12 1.23804e-11 -1.05791e-11 1.23614e-11 -2.47001e-11 2.47002e-11 -1.23169e-11 0 0 0.166929 0.339166 0.476079 0.611907 0.715457 0.861425 0.901419 1.04042 1.13469 1.18624 1.24362 1.31242 1.37407 1.40531 1.47018 1.5272 1.58941 1.62487 1.6467 1.70866 1.76387 1.75331 1.83375 1.85849 1.90731 1.91978 1.94535 1.95927 1.88468 1.65235 1.15959 0.349008 0.0144232 2.52369e-05 1.72529e-09 4.8594e-14 1.23575e-11 -1.23383e-11 1.0515e-11 -1.05372e-11 2.54434e-14 -2.25227e-14 2.26335e-14 -3.36986e-15 1.23632e-11 -1.23823e-11 2.26763e-14 -3.84365e-19 9.3049e-18 0 0 0.166805 0.311161 0.472657 0.575697 0.724584 0.797973 0.944044 0.973927 1.08352 1.18863 1.20874 1.31255 1.3658 1.39844 1.46345 1.5328 1.56105 1.58356 1.63817 1.70541 1.70842 1.77195 1.81092 1.8419 1.89724 1.91083 1.94228 1.92163 1.81336 1.50746 0.905176 0.16716 0.00342447 2.36443e-06 1.73859e-10 2.47176e-11 -1.23872e-11 4.16167e-14 1.23231e-11 -2.46842e-11 1.23642e-11 1.23201e-11 -1.23199e-11 2.27405e-14 -1.58326e-15 1.32699e-16 1.22988e-11 -2.46844e-11 2.47295e-11 0 0 0.151908 0.307916 0.430586 0.577567 0.664789 0.809896 0.84933 1.01426 1.03586 1.12253 1.23498 1.29855 1.35532 1.41774 1.46797 1.49662 1.52779 1.57596 1.64629 1.65631 1.71152 1.76821 1.79439 1.83948 1.87321 1.9089 1.92692 1.87426 1.70694 1.32611 0.595989 0.0598246 0.000550623 1.46803e-07 1.62605e-11 -3.62237e-14 1.57283e-14 -6.02575e-14 6.05106e-14 2.09055e-14 -2.16981e-14 1.2343e-11 -1.23805e-11 6.10298e-14 -1.62854e-15 -6.13254e-16 1.22992e-11 -1.23801e-11 6.06576e-14 0 0 0.143109 0.27955 0.416446 0.529479 0.667503 0.738841 0.8849 0.891665 1.06602 1.10277 1.19475 1.29929 1.29837 1.40041 1.47329 1.48385 1.50706 1.58174 1.61621 1.63787 1.71451 1.7543 1.7831 1.83621 1.85127 1.90684 1.89076 1.81089 1.56131 1.07311 0.305651 0.0150832 5.43748e-05 8.26865e-09 1.33884e-11 -1.23563e-11 -2.09884e-11 3.3286e-11 -1.22817e-11 1.23409e-11 -1.23414e-11 -2.10036e-11 3.33307e-11 -1.23263e-11 1.23409e-11 -1.23417e-11 -2.10038e-11 3.33086e-11 -2.46849e-11 0 0 0.133372 0.265422 0.393391 0.516317 0.628263 0.739852 0.809967 0.959318 0.951552 1.11298 1.1623 1.20244 1.31575 1.37291 1.39284 1.45191 1.51762 1.56816 1.58704 1.65902 1.70547 1.72222 1.79869 1.79899 1.8572 1.88086 1.84672 1.70416 1.38058 0.729538 0.113178 0.00250056 2.97363e-06 4.92496e-10 4.36217e-14 1.2349e-11 -3.3331e-11 3.33085e-11 -1.22817e-11 -4.46133e-14 1.23711e-11 -3.33306e-11 3.33082e-11 6.06686e-14 -1.24096e-11 1.31111e-14 -2.09531e-11 -2.04997e-14 2.10084e-11 0 0 0.128784 0.263198 0.384918 0.50708 0.608317 0.711384 0.81277 0.884029 1.00553 0.991795 1.16426 1.20152 1.25868 1.35402 1.37256 1.44214 1.51651 1.5449 1.59681 1.65045 1.67547 1.73386 1.76505 1.79428 1.84518 1.84404 1.77565 1.55392 1.11739 0.375307 0.0282713 0.000243427 9.49103e-08 2.22211e-11 4.74809e-14 -6.05651e-14 3.80361e-14 -3.80255e-14 6.05443e-14 -8.29876e-14 1.24092e-11 -4.24891e-17 -1.23868e-11 5.90557e-14 6.39905e-16 -9.18508e-14 -2.08922e-11 -2.08493e-15 3.33328e-11 0 0 0.128765 0.25572 0.380356 0.483711 0.593289 0.690603 0.793011 0.867706 0.926853 1.06605 1.05648 1.20589 1.20073 1.27464 1.37214 1.40058 1.44008 1.53411 1.60396 1.62933 1.67112 1.72287 1.74097 1.78834 1.82052 1.78912 1.65721 1.35845 0.739128 0.133217 0.00439075 1.21272e-05 3.06359e-09 2.54026e-11 -1.23358e-11 1.62123e-14 -8.29853e-14 6.07419e-14 2.23502e-14 1.22811e-11 -3.32858e-11 3.33298e-11 -1.23863e-11 5.89104e-14 -2.10028e-11 3.327e-11 -3.33083e-11 3.33879e-11 -5.63538e-14 0 0 0.122498 0.246229 0.35665 0.469231 0.568583 0.675359 0.751731 0.833764 0.925426 0.9977 1.09968 1.08717 1.17907 1.27801 1.30262 1.37624 1.42591 1.48912 1.57158 1.60791 1.66527 1.67877 1.72689 1.77754 1.76286 1.70312 1.48407 1.05597 0.35126 0.0299303 0.000378038 2.84691e-07 1.03406e-10 2.51464e-14 -1.62638e-14 -2.09881e-11 3.32473e-11 9.86176e-14 -2.47069e-11 2.46684e-11 -3.32897e-11 -1.93717e-14 3.33275e-11 -5.67917e-14 -3.3249e-11 3.32108e-11 1.17627e-13 -3.33872e-11 3.33896e-11 0 0 0.11548 0.229969 0.342469 0.450981 0.551179 0.634026 0.72377 0.811571 0.909398 0.976215 1.01367 1.11764 1.12018 1.23507 1.29507 1.34483 1.42778 1.46988 1.50918 1.60191 1.61716 1.65675 1.71565 1.72317 1.70207 1.54287 1.25335 0.626643 0.106837 0.00394924 1.46221e-05 5.63304e-09 2.20611e-12 -1.2364e-11 2.46682e-11 -3.33466e-11 3.33302e-11 -3.32931e-11 2.09663e-11 1.22819e-11 4.08684e-14 -3.33267e-11 5.62489e-14 3.32711e-11 1.41629e-15 -2.60072e-15 -3.32699e-11 5.27021e-15 -3.21123e-15 0 0 0.107622 0.221502 0.331389 0.431448 0.516594 0.601395 0.706385 0.805015 0.874746 0.932504 1.00692 1.06441 1.16153 1.1594 1.25283 1.35751 1.41404 1.42145 1.50266 1.54416 1.5978 1.65003 1.67473 1.6663 1.56727 1.34884 0.867903 0.241957 0.0196217 0.000244285 2.46689e-07 1.42076e-10 -2.46338e-11 1.23041e-11 1.23636e-11 -1.56863e-14 -3.3331e-11 -9.39026e-17 3.33309e-11 -3.33527e-11 -3.77586e-14 3.33305e-11 -3.32135e-11 1.20567e-16 3.32706e-11 -3.32715e-11 4.82455e-15 3.57821e-16 -3.10711e-15 0 0 0.107795 0.217212 0.316311 0.403174 0.492041 0.595335 0.695352 0.775328 0.834222 0.918142 0.989163 1.05097 1.08434 1.18817 1.23441 1.28822 1.38436 1.45065 1.46527 1.50328 1.59206 1.62511 1.62047 1.56666 1.37636 1.0372 0.399743 0.0580064 0.00168326 6.53918e-06 3.29954e-09 1.95427e-12 1.93423e-14 1.22849e-11 -3.33084e-11 3.32324e-11 -3.32705e-11 3.32702e-11 -3.327e-11 -6.05334e-14 6.09733e-14 3.32096e-11 -3.31524e-11 3.58961e-17 3.32095e-11 -3.32094e-11 3.39274e-15 -4.63733e-15 3.33333e-11 0 0 0.104788 0.200252 0.295081 0.389472 0.492964 0.584994 0.66776 0.743675 0.834746 0.894533 0.956811 1.00214 1.09959 1.13971 1.2247 1.26887 1.3252 1.40992 1.43956 1.48388 1.54149 1.57378 1.53855 1.37776 1.13498 0.534039 0.119673 0.00611599 7.17722e-05 5.54287e-08 1.01401e-10 -1.21938e-11 1.23037e-11 -5.74318e-14 -3.32507e-11 -1.17849e-13 6.03201e-14 3.32703e-11 -3.33303e-11 3.33301e-11 -3.32697e-11 3.32097e-11 -3.31531e-11 3.32106e-11 -5.84948e-16 -3.32093e-11 -5.78353e-14 3.33881e-11 -5.61432e-14 0 0 0.0952877 0.189788 0.291116 0.389189 0.474243 0.557859 0.64764 0.743652 0.806809 0.868171 0.920799 1.01604 1.05811 1.12773 1.17607 1.26384 1.30274 1.33787 1.44071 1.44537 1.49233 1.48121 1.36139 1.16158 0.630952 0.188834 0.0143313 0.000385394 6.14255e-07 7.54822e-10 3.37444e-11 -3.32279e-11 3.33082e-11 -9.5308e-14 -3.32127e-11 -1.18333e-13 6.10997e-14 -3.34323e-16 3.33274e-11 -3.33273e-11 -2.65817e-16 3.32707e-11 -3.32135e-11 3.32111e-11 -3.32105e-11 -5.77097e-14 3.33312e-11 -3.33305e-11 3.33894e-11 0 0 0.0954489 0.190401 0.284808 0.373465 0.46009 0.548813 0.636368 0.704103 0.77732 0.845095 0.925604 0.968038 1.04704 1.08837 1.18295 1.2014 1.26997 1.35027 1.37425 1.41773 1.37482 1.31004 1.14428 0.686529 0.24067 0.025406 0.0011577 3.59135e-06 6.26906e-09 4.92142e-12 -3.33238e-11 5.74004e-14 -1.06984e-15 3.32745e-11 -3.3391e-11 3.33304e-11 -3.32702e-11 -8.22833e-17 3.33274e-11 -3.33876e-11 3.33906e-11 -3.33303e-11 2.06469e-16 3.33284e-11 -3.33887e-11 3.33908e-11 -3.33313e-11 6.21279e-14 -3.33373e-15 0 0 0.0934791 0.183447 0.273815 0.366641 0.454695 0.53423 0.607482 0.690101 0.768059 0.837189 0.884282 0.961019 1.01487 1.09379 1.10902 1.2108 1.24467 1.29512 1.3398 1.30808 1.2301 1.06063 0.689178 0.266353 0.0357411 0.00216304 1.27428e-05 3.19073e-08 9.65687e-12 3.3352e-11 -3.33309e-11 3.33277e-11 -3.33282e-11 7.3591e-16 3.33282e-11 -3.33285e-11 5.69002e-14 3.32134e-11 -3.33305e-11 3.33883e-11 -3.33278e-11 5.72514e-14 3.32129e-11 -3.33302e-11 3.33878e-11 -3.33276e-11 6.0416e-14 5.81052e-16 -2.95702e-15 0 0 0.0910916 0.181485 0.269535 0.353983 0.436053 0.517491 0.601928 0.678554 0.746857 0.807665 0.878381 0.932164 0.997146 1.03533 1.13057 1.14928 1.23283 1.224 1.22158 1.14641 0.988949 0.617683 0.251673 0.0408201 0.00298102 2.80784e-05 9.29778e-08 1.51489e-10 -3.29026e-11 3.32729e-11 -3.40269e-16 -3.33906e-11 3.33304e-11 -3.32124e-11 3.32705e-11 -3.33283e-11 5.72977e-14 3.31525e-11 -3.31516e-11 3.32696e-11 -3.33278e-11 5.76289e-14 3.31521e-11 -3.31512e-11 3.32689e-11 -3.33269e-11 6.07525e-14 -1.21748e-13 3.34503e-11 0 0 0.087446 0.173531 0.258503 0.341708 0.422169 0.500445 0.57605 0.653343 0.728934 0.797876 0.85142 0.913223 0.970045 1.04472 1.07041 1.13858 1.11795 1.14055 1.01998 0.889828 0.518859 0.215143 0.033877 0.00295402 4.02623e-05 1.70884e-07 2.14456e-10 6.73782e-11 1.19188e-13 -5.7583e-14 -3.93194e-16 -6.66609e-11 6.66005e-11 1.1837e-13 -1.18138e-13 6.04716e-14 -6.66615e-11 6.6601e-11 1.18389e-13 -1.18469e-13 6.05097e-14 -6.66614e-11 6.66009e-11 1.18698e-13 -1.18739e-13 6.0931e-14 -6.66618e-11 6.66013e-11 -3.32707e-11 0 0 0.0850732 0.167796 0.24842 0.327983 0.407813 0.487355 0.566453 0.640506 0.707447 0.769966 0.83591 0.897201 0.95566 0.988261 1.03559 1.01956 1.0178 0.895496 0.758069 0.39118 0.162476 0.0231823 0.00212953 2.79204e-05 1.70599e-07 3.89639e-10 1.49897e-12 -6.09267e-14 3.3331e-11 1.85612e-16 -3.33314e-11 6.18951e-14 -6.19201e-14 3.3331e-11 1.24181e-16 -3.33311e-11 6.18955e-14 -6.18133e-14 3.33308e-11 3.95936e-16 -3.33313e-11 6.18558e-14 -6.16669e-14 3.33312e-11 5.62379e-14 -3.33875e-11 -4.18433e-16 -9.6736e-16 9.23e-16 0 0 0.0812142 0.161815 0.241841 0.320919 0.398417 0.474504 0.548479 0.620565 0.688863 0.754684 0.811332 0.861101 0.899386 0.924944 0.907105 0.877774 0.75487 0.574126 0.271011 0.101035 0.012652 0.00113802 1.26197e-05 9.26523e-08 2.79802e-10 1.49429e-12 2.40863e-15 1.44328e-16 -6.13938e-14 -8.33582e-17 6.13931e-14 -8.42205e-17 -3.70559e-15 -5.76911e-14 -4.16636e-16 6.19187e-14 -1.96702e-17 -5.15456e-16 -6.14677e-14 2.91724e-16 6.1732e-14 -4.05347e-17 -3.98098e-15 3.31526e-11 -3.31537e-11 -1.18059e-13 3.32698e-11 -6.65411e-11 3.33261e-11 0 0 0.0787381 0.156975 0.234623 0.312006 0.389251 0.465334 0.539109 0.607989 0.667983 0.718875 0.763781 0.793342 0.801687 0.77746 0.71904 0.573493 0.377485 0.161234 0.0482385 0.00544417 0.000379166 3.53993e-06 3.17572e-08 8.3891e-11 8.38628e-13 6.12347e-14 -2.09187e-17 -4.01208e-16 -6.09929e-14 1.75635e-17 6.16679e-14 -6.17074e-14 3.33284e-11 -3.3389e-11 6.01812e-14 6.18354e-14 2.1828e-17 -5.56863e-16 -1.2194e-13 6.09314e-14 6.14153e-14 -3.70161e-15 -5.29848e-16 3.31526e-11 -6.65413e-11 6.65396e-11 -3.33313e-11 -3.32093e-11 3.33254e-11 0 0 0.0774505 0.154346 0.230202 0.304522 0.376901 0.44683 0.512096 0.570009 0.618349 0.653201 0.668517 0.66244 0.62142 0.525229 0.368781 0.204485 0.0737786 0.0165247 0.00154654 7.06365e-05 6.03348e-07 6.19347e-09 9.08194e-12 3.36359e-11 4.23564e-15 -3.33317e-11 6.15592e-14 -6.2126e-14 3.3332e-11 -6.0662e-14 -3.32136e-11 3.32137e-11 -3.33305e-11 3.333e-11 6.04154e-14 -3.33308e-11 6.1432e-14 -6.14727e-14 3.32706e-11 -3.33637e-11 1.48275e-13 3.29986e-11 -3.29991e-11 -5.49848e-14 -5.08484e-16 -6.22521e-14 -3.32698e-11 3.32701e-11 6.16438e-14 0 0 0.0735115 0.146071 0.216743 0.284638 0.348917 0.407964 0.458572 0.496585 0.519486 0.522903 0.495359 0.422379 0.311301 0.186728 0.0824067 0.0224544 0.00346946 0.000231438 6.43549e-06 5.39965e-08 8.12573e-10 4.89316e-12 -3.33093e-11 3.33886e-11 -5.71186e-14 -7.33043e-16 -6.66621e-11 6.6662e-11 -5.99462e-14 5.57973e-14 -3.32696e-11 3.31531e-11 -3.31522e-11 3.32125e-11 -3.32701e-11 3.32701e-11 -3.32155e-11 3.32154e-11 -3.32702e-11 -3.86976e-14 -8.40595e-11 1.17146e-10 -3.29938e-11 -5.46053e-14 -6.96688e-16 -3.3333e-11 3.32717e-11 3.32095e-11 -6.64793e-11 0 0 0.0649317 0.128268 0.188307 0.24321 0.290989 0.329426 0.354917 0.360974 0.339315 0.28787 0.215557 0.135767 0.0639286 0.0199016 0.00364117 0.000348958 1.4142e-05 2.4045e-07 3.19258e-09 3.3894e-11 3.38212e-11 -3.33233e-11 3.33306e-11 2.19046e-16 7.30988e-16 -3.33318e-11 6.15585e-14 -6.12478e-14 3.33274e-11 -3.3271e-11 -5.71861e-14 3.32712e-11 -3.32129e-11 3.3213e-11 -3.327e-11 3.32698e-11 -3.32152e-11 3.32153e-11 -3.33315e-11 8.12714e-14 -8.42351e-11 8.41721e-11 4.13357e-14 -3.74564e-16 -3.33308e-11 3.33303e-11 -6.08566e-14 -6.00765e-14 1.21767e-13 0 0 0.0478055 0.0931298 0.133227 0.164789 0.184021 0.187716 0.175362 0.149557 0.113451 0.0709971 0.0329536 0.0103208 0.00202164 0.000219389 1.1571e-05 2.73848e-07 5.40615e-09 1.13762e-10 1.81944e-12 1.23678e-11 -3.33429e-11 5.78598e-14 3.32125e-11 -3.32694e-11 2.22628e-17 6.06357e-14 -8.42205e-17 -6.09535e-14 3.33272e-11 -3.33875e-11 3.33898e-11 -3.33303e-11 8.80884e-16 3.33307e-11 -6.0679e-14 -3.327e-11 -4.6063e-16 -3.19025e-16 3.32696e-11 -6.6635e-11 6.6513e-11 -6.65728e-11 3.34172e-11 -5.38024e-14 1.02732e-15 6.05625e-14 -6.17154e-14 -3.327e-11 3.33246e-11 0 0 0.0201181 0.0378051 0.0509463 0.0579364 0.0576751 0.0497967 0.0357785 0.0201289 0.00832385 0.00239337 0.000445628 4.85697e-05 2.79022e-06 8.89769e-08 2.88707e-09 9.92305e-11 2.01814e-12 9.35472e-14 1.90677e-14 1.23044e-11 -3.33092e-11 2.2814e-16 3.32133e-11 -3.333e-11 6.04913e-14 6.05346e-14 -3.74782e-15 3.32132e-11 -3.33304e-11 3.33878e-11 -3.3328e-11 -2.51729e-16 3.33304e-11 -3.33301e-11 3.32703e-11 -6.66011e-11 6.65395e-11 -3.32102e-11 2.36783e-16 6.00446e-14 -1.82821e-13 -3.32085e-11 3.32626e-11 7.65276e-15 -2.24964e-17 6.12119e-14 -6.14624e-14 -3.32708e-11 3.33257e-11 0 0 0.00286981 0.00484693 0.00537885 0.00451678 0.00291656 0.00142207 0.000507351 0.000126653 2.07681e-05 2.08628e-06 1.31232e-07 7.32854e-09 4.49519e-10 2.08382e-11 7.1439e-13 2.35868e-14 -1.23636e-11 1.23034e-11 1.24432e-11 -1.77619e-13 1.39428e-13 -3.33878e-11 5.64939e-16 3.33282e-11 3.20675e-15 -3.3332e-11 5.82319e-14 3.3152e-11 -3.3209e-11 3.33272e-11 -3.33277e-11 3.33309e-11 -3.3332e-11 6.24011e-14 -6.16642e-14 6.02007e-14 -1.83899e-13 1.21806e-13 1.64128e-15 5.88082e-14 -1.21155e-13 -6.02343e-14 5.97767e-14 -3.32699e-11 3.33314e-11 -8.20723e-15 -3.33227e-11 3.32086e-11 1.23129e-13 0 0 7.42068e-06 1.00787e-05 7.83685e-06 4.06347e-06 1.44773e-06 3.56012e-07 6.2879e-08 9.31521e-09 1.35877e-09 1.68052e-10 1.43375e-11 1.31746e-11 -2.46002e-11 2.46865e-11 -1.23358e-11 1.58876e-14 -6.04914e-14 1.23639e-11 -3.33086e-11 3.32895e-11 -3.33275e-11 3.32705e-11 -3.32123e-11 3.32703e-11 3.22959e-15 -1.05145e-15 -6.66619e-11 6.66014e-11 6.08291e-14 -3.33907e-11 3.33908e-11 -6.06334e-14 -3.32703e-11 6.12073e-14 4.25313e-19 -1.33727e-15 -6.23515e-14 -3.33318e-11 3.33326e-11 -6.06818e-14 -4.03783e-16 -6.06736e-14 -3.32103e-11 3.33321e-11 -1.52701e-13 1.43909e-13 -3.34156e-11 6.65731e-11 -6.64795e-11 0 0 7.18102e-11 1.04422e-10 9.67126e-11 5.75646e-11 2.67687e-11 1.05248e-11 2.2147e-13 -8.31346e-12 2.7969e-14 3.23716e-14 4.86658e-15 1.2315e-11 -1.23801e-11 6.06479e-14 -1.64454e-14 -2.09881e-11 3.32695e-11 6.02253e-14 -3.34289e-11 1.1722e-13 -1.17705e-13 3.3331e-11 -3.32124e-11 3.32129e-11 6.07668e-14 -3.33319e-11 6.14527e-14 -6.14533e-14 3.33313e-11 -3.33908e-11 3.33908e-11 -3.33912e-11 6.02384e-14 5.99971e-14 1.33727e-15 -6.2527e-14 -7.87348e-15 -5.51792e-14 -3.32699e-11 3.32709e-11 -3.32708e-11 3.32108e-11 8.71203e-17 1.21507e-13 -1.53796e-13 -8.39992e-11 8.40583e-11 3.34062e-14 6.20248e-14 0 0 -1.25837e-15 -1.27586e-12 -5.31625e-12 5.3092e-12 -1.81702e-12 -8.74881e-12 8.72058e-12 -8.71477e-12 1.22817e-11 -1.22971e-11 -1.64683e-14 -2.09879e-11 3.32856e-11 -2.46456e-11 2.46456e-11 -3.33241e-11 3.33299e-11 -3.33304e-11 3.32703e-11 -6.66014e-11 6.66012e-11 -3.32705e-11 5.74052e-14 -5.63746e-14 -3.73515e-17 6.06784e-14 -1.96702e-17 -2.26789e-17 -6.13936e-14 3.33259e-11 -3.33258e-11 2.93165e-16 -1.22351e-13 1.80453e-13 -5.91096e-14 -8.79176e-15 -3.33305e-11 3.32677e-11 8.73113e-15 -3.32707e-11 5.64584e-16 3.31766e-11 3.33638e-11 -6.65734e-11 3.33307e-11 -8.41794e-11 1.17269e-10 -6.6387e-11 3.33243e-11 0 0 -8.76708e-16 -1.28009e-12 -5.31328e-12 5.30234e-12 -1.81409e-12 -8.7523e-12 8.7172e-12 -8.71132e-12 1.23006e-11 -2.46807e-11 2.46683e-11 -3.33305e-11 3.33081e-11 -2.46456e-11 2.46233e-11 6.6252e-14 -3.33693e-11 5.18274e-16 3.32701e-11 -3.32702e-11 1.27035e-16 -4.61113e-16 3.33279e-11 -3.33874e-11 6.06419e-14 6.05962e-14 -5.54797e-16 5.12539e-16 -6.14344e-14 3.33259e-11 -3.33257e-11 -6.49478e-16 3.32087e-11 -6.65421e-11 3.33313e-11 -6.81036e-14 -3.32708e-11 3.32686e-