<?xml version="1.0"?>
<VTKFile type="PolyData">
	<PolyData>
		<Piece NumberOfPoints="2601" NumberOfPolys="2500">
			<Points>
				<DataArray type="Float32" NumberOfComponents="3" format="ascii">
 0 0 0 0.212022 0 0 0.19415 0 0 0.226962 0 0 0.240771 0 0 0.254158 0 0 0.267712 0 0 0.27689 0 0 0.28689 0 0 0.294274 0 0 0.300885 0 0 0.306476 0 0 0.311904 0 0 0.316922 0 0 0.321398 0 0 0.325958 0 0 0.332355 0 0 0.343008 0 0 0.36012 0 0 0.38 0 0 0.4 0 0 0.42 0 0 0.44 0 0 0.46 0 0 0.48 0 0 0.5 0 0 0.52 0 0 0.54 0 0 0.56 0 0 0.58 0 0 0.6 0 0 0.62 0 0 0.64 0 0 0.66 0 0 0.68 0 0 0.7 0 0 0.72 0 0 0.74 0 0 0.76 0 0 0.78 0 0 0.8 0 0 0.82 0 0 0.84 0 0 0.86 0 0 0.88 0 0 0.9 0 0 0.92 0 0 0.94 0 0 0.96 0 0 0.98 0 0 1 0 0 0 0.212022 0 0.123472 0.123472 0 0.205539 0.0879901 0 0.213678 0.0765454 0 0.23581 0.058413 0 0.252224 0.0517821 0 0.263312 0.046024 0 0.275539 0.0416949 0 0.284213 0.0380021 0 0.292807 0.0346619 0 0.29914 0.0316332 0 0.305369 0.0290351 0 0.310777 0.0268303 0 0.316066 0.0249694 0 0.320586 0.0233467 0 0.32531 0.0219505 0 0.331895 0.0208681 0 0.342794 0.0202196 0 0.360104 0.020015 0 0.38 0.02 0 0.4 0.02 0 0.42 0.02 0 0.44 0.02 0 0.46 0.02 0 0.48 0.02 0 0.5 0.02 0 0.52 0.02 0 0.54 0.02 0 0.56 0.02 0 0.58 0.02 0 0.6 0.02 0 0.62 0.02 0 0.64 0.02 0 0.66 0.02 0 0.68 0.02 0 0.7 0.02 0 0.72 0.02 0 0.74 0.02 0 0.76 0.02 0 0.78 0.02 0 0.8 0.02 0 0.82 0.02 0 0.84 0.02 0 0.86 0.02 0 0.88 0.02 0 0.9 0.02 0 0.92 0.02 0 0.94 0.02 0 0.96 0.02 0 0.98 0.02 0 1 0.02 0 0 0.19415 0 0.0879901 0.205539 0 0.140903 0.140903 0 0.198201 0.132468 0 0.221053 0.114395 0 0.239136 0.099766 0 0.255541 0.0897221 0 0.266849 0.0815106 0 0.278659 0.0742015 0 0.287084 0.0677773 0 0.295071 0.0620632 0 0.301787 0.0572354 0 0.307736 0.0530113 0 0.313428 0.0494651 0 0.31824 0.0462961 0 0.323407 0.0436084 0 0.33057 0.0415422 0 0.342216 0.0403628 0 0.360068 0.0400199 0 0.38 0.04 0 0.4 0.04 0 0.42 0.04 0 0.44 0.04 0 0.46 0.04 0 0.48 0.04 0 0.5 0.04 0 0.52 0.04 0 0.54 0.04 0 0.56 0.04 0 0.58 0.04 0 0.6 0.04 0 0.62 0.04 0 0.64 0.04 0 0.66 0.04 0 0.68 0.04 0 0.7 0.04 0 0.72 0.04 0 0.74 0.04 0 0.76 0.04 0 0.78 0.04 0 0.8 0.04 0 0.82 0.04 0 0.84 0.04 0 0.86 0.04 0 0.88 0.04 0 0.9 0.04 0 0.92 0.04 0 0.94 0.04 0 0.96 0.04 0 0.98 0.04 0 1 0.04 0 0 0.226962 0 0.0765454 0.213678 0 0.132468 0.198201 0 0.155793 0.155793 0 0.197007 0.157813 0 0.223763 0.139551 0 0.240259 0.128203 0 0.256835 0.116672 0 0.268353 0.107261 0 0.279634 0.0982224 0 0.288518 0.0907246 0 0.296398 0.083922 0 0.302953 0.0781219 0 0.309146 0.0730378 0 0.314506 0.0685307 0 0.320404 0.0647184 0 0.328534 0.0618738 0 0.341454 0.0603829 0 0.360032 0.0600144 0 0.38 0.06 0 0.4 0.06 0 0.42 0.06 0 0.44 0.06 0 0.46 0.06 0 0.48 0.06 0 0.5 0.06 0 0.52 0.06 0 0.54 0.06 0 0.56 0.06 0 0.58 0.06 0 0.6 0.06 0 0.62 0.06 0 0.64 0.06 0 0.66 0.06 0 0.68 0.06 0 0.7 0.06 0 0.72 0.06 0 0.74 0.06 0 0.76 0.06 0 0.78 0.06 0 0.8 0.06 0 0.82 0.06 0 0.84 0.06 0 0.86 0.06 0 0.88 0.06 0 0.9 0.06 0 0.92 0.06 0 0.94 0.06 0 0.96 0.06 0 0.98 0.06 0 1 0.06 0 0 0.240771 0 0.058413 0.23581 0 0.114395 0.221053 0 0.157813 0.197007 0 0.171871 0.171871 0 0.202551 0.173641 0 0.226609 0.156814 0 0.242182 0.147554 0 0.257967 0.135425 0 0.269435 0.126154 0 0.280565 0.1168 0 0.289048 0.108895 0 0.296817 0.101694 0 0.303394 0.0953902 0 0.309639 0.0897573 0 0.316563 0.0851165 0 0.326053 0.0817961 0 0.340752 0.0802897 0 0.360011 0.0800065 0 0.38 0.08 0 0.4 0.08 0 0.42 0.08 0 0.44 0.08 0 0.46 0.08 0 0.48 0.08 0 0.5 0.08 0 0.52 0.08 0 0.54 0.08 0 0.56 0.08 0 0.58 0.08 0 0.6 0.08 0 0.62 0.08 0 0.64 0.08 0 0.66 0.08 0 0.68 0.08 0 0.7 0.08 0 0.72 0.08 0 0.74 0.08 0 0.76 0.08 0 0.78 0.08 0 0.8 0.08 0 0.82 0.08 0 0.84 0.08 0 0.86 0.08 0 0.88 0.08 0 0.9 0.08 0 0.92 0.08 0 0.94 0.08 0 0.96 0.08 0 0.98 0.08 0 1 0.08 0 0 0.254158 0 0.0517821 0.252224 0 0.099766 0.239136 0 0.139551 0.223763 0 0.173641 0.202551 0 0.185442 0.185442 0 0.209651 0.184509 0 0.229971 0.169383 0 0.244649 0.161774 0 0.259511 0.149744 0 0.270361 0.140864 0 0.28082 0.1315 0 0.289198 0.123629 0 0.296718 0.116195 0 0.30392 0.10986 0 0.312249 0.104709 0 0.323559 0.101381 0 0.340288 0.100152 0 0.360002 0.100002 0 0.38 0.1 0 0.4 0.1 0 0.42 0.1 0 0.44 0.1 0 0.46 0.1 0 0.48 0.1 0 0.5 0.1 0 0.52 0.1 0 0.54 0.1 0 0.56 0.1 0 0.58 0.1 0 0.6 0.1 0 0.62 0.1 0 0.64 0.1 0 0.66 0.1 0 0.68 0.1 0 0.7 0.1 0 0.72 0.1 0 0.74 0.1 0 0.76 0.1 0 0.78 0.1 0 0.8 0.1 0 0.82 0.1 0 0.84 0.1 0 0.86 0.1 0 0.88 0.1 0 0.9 0.1 0 0.92 0.1 0 0.94 0.1 0 0.96 0.1 0 0.98 0.1 0 1 0.1 0 0 0.267712 0 0.046024 0.263312 0 0.0897221 0.255541 0 0.128203 0.240259 0 0.156814 0.226609 0 0.184509 0.209651 0 0.197331 0.197331 0 0.216336 0.193854 0 0.23383 0.179425 0 0.247158 0.172692 0 0.26069 0.160787 0 0.271195 0.15254 0 0.280972 0.143308 0 0.28932 0.135609 0 0.297885 0.12876 0 0.307849 0.123642 0 0.321604 0.120804 0 0.340076 0.120052 0 0.36 0.12 0 0.38 0.12 0 0.4 0.12 0 0.42 0.12 0 0.44 0.12 0 0.46 0.12 0 0.48 0.12 0 0.5 0.12 0 0.52 0.12 0 0.54 0.12 0 0.56 0.12 0 0.58 0.12 0 0.6 0.12 0 0.62 0.12 0 0.64 0.12 0 0.66 0.12 0 0.68 0.12 0 0.7 0.12 0 0.72 0.12 0 0.74 0.12 0 0.76 0.12 0 0.78 0.12 0 0.8 0.12 0 0.82 0.12 0 0.84 0.12 0 0.86 0.12 0 0.88 0.12 0 0.9 0.12 0 0.92 0.12 0 0.94 0.12 0 0.96 0.12 0 0.98 0.12 0 1 0.12 0 0 0.27689 0 0.0416949 0.275539 0 0.0815106 0.266849 0 0.116672 0.256835 0 0.147554 0.242182 0 0.169383 0.229971 0 0.193854 0.216336 0 0.206164 0.206164 0 0.222508 0.200996 0 0.23738 0.187362 0 0.249728 0.18108 0 0.262026 0.16966 0 0.271984 0.16174 0 0.28185 0.153277 0 0.291882 0.146826 0 0.304004 0.142199 0 0.320506 0.140327 0 0.340013 0.14001 0 0.36 0.14 0 0.38 0.14 0 0.4 0.14 0 0.42 0.14 0 0.44 0.14 0 0.46 0.14 0 0.48 0.14 0 0.5 0.14 0 0.52 0.14 0 0.54 0.14 0 0.56 0.14 0 0.58 0.14 0 0.6 0.14 0 0.62 0.14 0 0.64 0.14 0 0.66 0.14 0 0.68 0.14 0 0.7 0.14 0 0.72 0.14 0 0.74 0.14 0 0.76 0.14 0 0.78 0.14 0 0.8 0.14 0 0.82 0.14 0 0.84 0.14 0 0.86 0.14 0 0.88 0.14 0 0.9 0.14 0 0.92 0.14 0 0.94 0.14 0 0.96 0.14 0 0.98 0.14 0 1 0.14 0 0 0.28689 0 0.0380021 0.284213 0 0.0742015 0.278659 0 0.107261 0.268353 0 0.135425 0.257967 0 0.161774 0.244649 0 0.179425 0.23383 0 0.200996 0.222508 0 0.21287 0.21287 0 0.227856 0.206266 0 0.240602 0.193912 0 0.252252 0.18744 0 0.26365 0.177172 0 0.274523 0.170353 0 0.286479 0.164149 0 0.301453 0.160983 0 0.320101 0.160079 0 0.340001 0.160001 0 0.36 0.16 0 0.38 0.16 0 0.4 0.16 0 0.42 0.16 0 0.44 0.16 0 0.46 0.16 0 0.48 0.16 0 0.5 0.16 0 0.52 0.16 0 0.54 0.16 0 0.56 0.16 0 0.58 0.16 0 0.6 0.16 0 0.62 0.16 0 0.64 0.16 0 0.66 0.16 0 0.68 0.16 0 0.7 0.16 0 0.72 0.16 0 0.74 0.16 0 0.76 0.16 0 0.78 0.16 0 0.8 0.16 0 0.82 0.16 0 0.84 0.16 0 0.86 0.16 0 0.88 0.16 0 0.9 0.16 0 0.92 0.16 0 0.94 0.16 0 0.96 0.16 0 0.98 0.16 0 1 0.16 0 0 0.294274 0 0.0346619 0.292807 0 0.0677773 0.287084 0 0.0982224 0.279634 0 0.126154 0.269435 0 0.149744 0.259511 0 0.172692 0.247158 0 0.187362 0.23738 0 0.206266 0.227856 0 0.218198 0.218198 0 0.23219 0.210639 0 0.243521 0.199744 0 0.255769 0.193601 0 0.268106 0.185972 0 0.282561 0.181972 0 0.300325 0.180256 0 0.320011 0.18001 0 0.34 0.18 0 0.36 0.18 0 0.38 0.18 0 0.4 0.18 0 0.42 0.18 0 0.44 0.18 0 0.46 0.18 0 0.48 0.18 0 0.5 0.18 0 0.52 0.18 0 0.54 0.18 0 0.56 0.18 0 0.58 0.18 0 0.6 0.18 0 0.62 0.18 0 0.64 0.18 0 0.66 0.18 0 0.68 0.18 0 0.7 0.18 0 0.72 0.18 0 0.74 0.18 0 0.76 0.18 0 0.78 0.18 0 0.8 0.18 0 0.82 0.18 0 0.84 0.18 0 0.86 0.18 0 0.88 0.18 0 0.9 0.18 0 0.92 0.18 0 0.94 0.18 0 0.96 0.18 0 0.98 0.18 0 1 0.18 0 0 0.300885 0 0.0316332 0.29914 0 0.0620632 0.295071 0 0.0907246 0.288518 0 0.1168 0.280565 0 0.140864 0.270361 0 0.160787 0.26069 0 0.18108 0.249728 0 0.193912 0.240602 0 0.210639 0.23219 0 0.222463 0.222463 0 0.236444 0.215483 0 0.248601 0.207222 0 0.263452 0.203054 0 0.280597 0.200486 0 0.300042 0.200039 0 0.320001 0.2 0 0.34 0.2 0 0.36 0.2 0 0.38 0.2 0 0.4 0.2 0 0.42 0.2 0 0.44 0.2 0 0.46 0.2 0 0.48 0.2 0 0.5 0.2 0 0.52 0.2 0 0.54 0.2 0 0.56 0.2 0 0.58 0.2 0 0.6 0.2 0 0.62 0.2 0 0.64 0.2 0 0.66 0.2 0 0.68 0.2 0 0.7 0.2 0 0.72 0.2 0 0.74 0.2 0 0.76 0.2 0 0.78 0.2 0 0.8 0.2 0 0.82 0.2 0 0.84 0.2 0 0.86 0.2 0 0.88 0.2 0 0.9 0.2 0 0.92 0.2 0 0.94 0.2 0 0.96 0.2 0 0.98 0.2 0 1 0.2 0 0 0.306476 0 0.0290351 0.305369 0 0.0572354 0.301787 0 0.083922 0.296398 0 0.108895 0.289048 0 0.1315 0.28082 0 0.15254 0.271195 0 0.16966 0.262026 0 0.18744 0.252252 0 0.199744 0.243521 0 0.215483 0.236444 0 0.228416 0.228416 0 0.244006 0.223794 0 0.26076 0.220663 0 0.280091 0.220088 0 0.300002 0.220002 0 0.32 0.22 0 0.34 0.22 0 0.36 0.22 0 0.38 0.22 0 0.4 0.22 0 0.42 0.22 0 0.44 0.22 0 0.46 0.22 0 0.48 0.22 0 0.5 0.22 0 0.52 0.22 0 0.54 0.22 0 0.56 0.22 0 0.58 0.22 0 0.6 0.22 0 0.62 0.22 0 0.64 0.22 0 0.66 0.22 0 0.68 0.22 0 0.7 0.22 0 0.72 0.22 0 0.74 0.22 0 0.76 0.22 0 0.78 0.22 0 0.8 0.22 0 0.82 0.22 0 0.84 0.22 0 0.86 0.22 0 0.88 0.22 0 0.9 0.22 0 0.92 0.22 0 0.94 0.22 0 0.96 0.22 0 0.98 0.22 0 1 0.22 0 0 0.311904 0 0.0268303 0.310777 0 0.0530113 0.307736 0 0.0781219 0.302953 0 0.101694 0.296817 0 0.123629 0.289198 0 0.143308 0.280972 0 0.16174 0.271984 0 0.177172 0.26365 0 0.193601 0.255769 0 0.207222 0.248601 0 0.223794 0.244006 0 0.240806 0.240806 0 0.260134 0.240131 0 0.280003 0.240003 0 0.3 0.24 0 0.32 0.24 0 0.34 0.24 0 0.36 0.24 0 0.38 0.24 0 0.4 0.24 0 0.42 0.24 0 0.44 0.24 0 0.46 0.24 0 0.48 0.24 0 0.5 0.24 0 0.52 0.24 0 0.54 0.24 0 0.56 0.24 0 0.58 0.24 0 0.6 0.24 0 0.62 0.24 0 0.64 0.24 0 0.66 0.24 0 0.68 0.24 0 0.7 0.24 0 0.72 0.24 0 0.74 0.24 0 0.76 0.24 0 0.78 0.24 0 0.8 0.24 0 0.82 0.24 0 0.84 0.24 0 0.86 0.24 0 0.88 0.24 0 0.9 0.24 0 0.92 0.24 0 0.94 0.24 0 0.96 0.24 0 0.98 0.24 0 1 0.24 0 0 0.316922 0 0.0249694 0.316066 0 0.0494651 0.313428 0 0.0730378 0.309146 0 0.0953902 0.303394 0 0.116195 0.296718 0 0.135609 0.28932 0 0.153277 0.28185 0 0.170353 0.274523 0 0.185972 0.268106 0 0.203054 0.263452 0 0.220663 0.26076 0 0.240131 0.260134 0 0.260004 0.260004 0 0.28 0.26 0 0.3 0.26 0 0.32 0.26 0 0.34 0.26 0 0.36 0.26 0 0.38 0.26 0 0.4 0.26 0 0.42 0.26 0 0.44 0.26 0 0.46 0.26 0 0.48 0.26 0 0.5 0.26 0 0.52 0.26 0 0.54 0.26 0 0.56 0.26 0 0.58 0.26 0 0.6 0.26 0 0.62 0.26 0 0
[...]
			<PointData Scalars="VitesseX">
				<DataArray Name="VitesseX" type="Float32" format="ascii">
 0 3.10839 2.04908 2.72885 2.70523 3.05165 3.27559 3.27201 3.45701 3.69425 4.08128 3.83608 4.0827 3.97366 4.18558 3.90796 3.10503 1.54518 0.122639 0.000172923 8.78986e-10 1.07868e-12 -1.07527e-12 1.96882e-21 1.07622e-12 2.8709e-19 -1.07622e-12 1.073e-12 -3.63129e-12 3.63129e-12 -1.07299e-12 1.07622e-12 -2.59335e-20 -1.07622e-12 1.073e-12 -3.63129e-12 3.63129e-12 -1.07299e-12 1.07527e-12 -1.07527e-12 1.07299e-12 -3.63129e-12 3.63223e-12 3.24086e-15 -3.24219e-15 -3.63223e-12 3.629e-12 -3.629e-12 3.63223e-12 3.24217e-15 0 0 1.04488 2.55223 2.37013 2.74916 3.03666 3.1839 3.28698 3.39751 3.7597 3.95676 3.8806 4.02717 3.9899 4.16564 3.87748 3.05413 1.47127 0.107864 0.000141469 7.68292e-10 1.07804e-12 -1.07493e-12 -1.34913e-16 1.07579e-12 -2.94148e-18 -1.07569e-12 1.07329e-12 -3.63154e-12 3.63152e-12 -1.07389e-12 1.07707e-12 -7.65376e-16 -1.07568e-12 1.07326e-12 -3.63153e-12 3.63152e-12 -1.0739e-12 1.07641e-12 -1.07642e-12 1.07389e-12 -3.63151e-12 3.63143e-12 3.19396e-15 -2.40395e-15 -3.63219e-12 3.63062e-12 -3.63062e-12 3.6322e-12 2.44098e-15 0 0 1.26109 1.19245 2.37727 2.45761 2.87032 3.0918 3.12045 3.43147 3.66547 3.75936 3.92799 3.92728 4.02062 4.09552 3.78279 2.90345 1.25258 0.0726181 7.68038e-05 5.03467e-10 2.35591e-12 -5.37078e-13 -1.24088e-16 -1.27898e-12 -1.7436e-18 1.27928e-12 5.34917e-13 -3.63092e-12 1.81584e-12 1.2803e-12 -1.27869e-12 1.81585e-12 -5.37299e-13 -1.2802e-12 -1.81585e-12 1.81406e-12 1.28188e-12 -1.27995e-12 1.28006e-12 -1.28024e-12 -1.81582e-12 3.63143e-12 -1.81455e-12 -1.55974e-15 2.22188e-15 -6.1215e-15 6.16546e-15 -2.24712e-15 1.61934e-15 0 0 1.19561 1.77423 1.39878 2.19673 2.65139 2.8833 3.08495 3.31247 3.48595 3.58563 3.93493 3.84288 4.02463 3.97666 3.604 2.64627 0.915381 0.0363541 2.68893e-05 2.36869e-10 1.81715e-12 -1.81591e-12 5.28785e-18 -1.3155e-15 8.14568e-16 6.63998e-16 -1.89099e-15 -1.81499e-12 1.81609e-12 1.63111e-15 -7.47457e-16 -3.65942e-16 2.6754e-16 -7.98564e-16 -1.81635e-12 1.81451e-12 -5.31538e-12 5.31741e-12 1.35066e-15 -1.59893e-15 -1.81618e-12 1.81585e-12 -5.06814e-16 5.68435e-17 -5.31635e-12 5.31308e-12 -5.313e-12 5.31548e-12 1.65943e-15 0 0 0.77438 1.43946 1.89747 1.87965 2.37316 2.73901 2.95903 3.18055 3.2561 3.55074 3.75668 3.83916 3.93845 3.83104 3.32276 2.23932 0.538614 0.0129692 5.7442e-06 7.36841e-11 1.67071e-17 8.41682e-16 -1.81697e-12 1.8154e-12 8.04301e-16 -9.35813e-17 -1.81637e-12 2.55521e-16 1.81592e-12 2.94804e-16 6.89499e-16 -1.817e-12 1.81615e-12 -2.68322e-16 -1.81603e-12 1.8139e-12 -5.3163e-12 5.31777e-12 1.01809e-15 -4.84415e-16 -1.81588e-12 -4.73352e-16 1.81577e-12 -7.09527e-16 -5.3169e-12 5.31527e-12 -7.13139e-12 7.13302e-12 1.74149e-15 0 0 0.699758 1.28642 1.71121 2.2027 2.0652 2.59754 2.81406 2.93057 3.24399 3.41544 3.58816 3.78517 3.81018 3.59151 2.96475 1.63191 0.236382 0.00310502 6.98579e-07 1.31091e-11 1.81703e-12 9.06614e-17 -8.71239e-16 -1.81621e-12 1.53192e-16 1.81127e-12 5.18907e-15 -1.82135e-12 4.5533e-15 1.81632e-12 -1.82015e-12 1.82056e-12 -5.20071e-15 -1.81168e-12 3.52833e-16 -6.37123e-15 1.82218e-12 -1.82138e-12 1.82159e-12 -1.81646e-12 -4.42164e-15 1.82053e-12 -1.81973e-12 2.35287e-15 1.81774e-12 -1.82012e-12 1.81856e-12 -1.81559e-12 1.24522e-15 0 0 0.608618 1.18304 1.64411 1.94373 2.32195 2.3136 2.64509 2.87452 3.1214 3.31492 3.45917 3.66513 3.61687 3.2566 2.46131 0.920816 0.0715128 0.000450001 4.90109e-08 1.7564e-12 -1.54231e-15 2.31608e-15 -2.32944e-15 -1.81465e-12 -3.77857e-15 1.81572e-12 -1.05649e-11 1.05649e-11 -1.81668e-12 4.66747e-15 1.81208e-12 -1.05652e-11 1.05652e-11 -1.81665e-12 4.5965e-15 1.81064e-12 -1.23805e-11 1.23813e-11 -1.8114e-12 -4.62268e-15 1.81666e-12 -1.05658e-11 1.05659e-11 -2.3915e-15 -1.81015e-12 -8.27189e-15 1.82309e-12 -1.81776e-12 3.42307e-15 0 0 0.538114 1.06518 1.54111 1.9358 2.14718 2.31249 2.72092 2.88014 3.00312 3.17606 3.41094 3.4412 3.31102 2.82493 1.69083 0.359365 0.0136045 3.40615e-05 2.67352e-09 1.32588e-13 5.14189e-15 -5.3167e-12 3.50018e-12 1.81613e-12 -2.35861e-15 -1.05653e-11 1.13898e-15 -1.18407e-15 1.05644e-11 -1.81144e-12 1.81137e-12 -1.05644e-11 7.17273e-17 1.05651e-11 -1.82081e-12 1.82011e-12 -1.2389e-11 1.23881e-11 -1.81372e-12 1.81439e-12 -1.05643e-11 -4.59566e-15 1.05657e-11 -1.65407e-15 -1.23766e-11 1.23721e-11 -1.23718e-11 1.23718e-11 1.4643e-14 0 0 0.499039 1.02689 1.48772 1.80847 2.08973 2.28671 2.69336 2.78885 2.96703 3.19118 3.2443 3.2157 2.87008 2.16469 0.814675 0.0868919 0.00142923 1.10371e-06 1.24478e-10 7.13764e-12 -1.05628e-11 5.24991e-12 3.50094e-12 1.81613e-12 -2.29247e-15 -1.05652e-11 1.02123e-15 -1.14602e-15 1.05605e-11 -1.80764e-12 -4.54078e-15 1.81672e-12 -1.0565e-11 -5.77683e-17 1.0561e-11 -1.2381e-11 1.23807e-11 -1.23815e-11 1.05672e-11 3.62827e-12 -1.23794e-11 -1.14944e-16 -1.82004e-12 1.23857e-11 -1.05721e-11 1.23813e-11 -2.47567e-11 2.47567e-11 -1.23703e-11 0 0 0.501429 0.974544 1.35414 1.69762 2.01932 2.40641 2.47783 2.77849 3.01705 3.11221 3.0729 2.81949 2.33618 1.19804 0.236201 0.0117531 6.34768e-05 1.71269e-08 -3.66371e-12 -5.25029e-12 -6.33866e-16 1.05659e-11 -1.81373e-12 1.70938e-15 -3.89546e-15 1.81677e-12 -1.05667e-11 6.53842e-16 8.74047e-12 1.82853e-12 -1.82543e-12 4.56412e-15 1.81291e-12 -1.05658e-11 4.53194e-15 -1.02158e-14 1.23798e-11 -1.23753e-11 1.05564e-11 -1.05616e-11 6.14805e-15 -5.52314e-15 5.56094e-15 -7.13754e-16 1.23812e-11 -1.2386e-11 5.74381e-15 -3.11214e-17 1.39314e-16 0 0 0.463338 0.867563 1.25086 1.62838 2.00329 2.2165 2.58103 2.67387 2.893 2.93336 2.78098 2.32166 1.43392 0.385727 0.0385752 0.000647614 9.71194e-07 2.95608e-10 6.10268e-14 -1.23819e-11 1.23811e-11 -1.81521e-12 1.81847e-12 -1.81468e-12 3.0265e-16 -3.96146e-15 3.62965e-12 -1.4199e-11 1.23803e-11 -1.05609e-11 1.05606e-11 -1.2377e-11 1.23725e-11 1.8153e-12 -2.47574e-11 2.47581e-11 -1.23877e-11 1.01746e-14 1.2372e-11 -2.47528e-11 1.23816e-11 1.23713e-11 -1.23711e-11 6.02063e-15 -7.54275e-16 -1.16479e-16 1.23661e-11 -2.47529e-11 2.47642e-11 0 0 0.412345 0.821789 1.21791 1.56715 1.86564 2.21807 2.3955 2.72962 2.59095 2.57094 2.24185 1.55269 0.465525 0.0756187 0.00218404 1.30678e-05 5.57027e-09 3.31003e-12 -6.64581e-15 3.80216e-15 1.81535e-12 -1.81989e-12 1.8231e-12 -1.81779e-12 3.49165e-15 -1.28306e-14 3.63808e-12 -3.64073e-12 -8.74361e-12 5.70834e-15 -4.42613e-15 4.47887e-15 -6.05032e-15 -5.25363e-15 1.13109e-14 -8.77552e-15 3.45782e-15 -1.44506e-14 1.48849e-14 4.86387e-15 -5.42962e-15 1.2377e-11 -1.23859e-11 1.5439e-14 -7.41378e-16 -5.6387e-16 1.23662e-11 -1.23856e-11 1.51406e-14 0 0 0.38911 0.754351 1.11055 1.46603 1.81906 2.0929 2.3501 2.32589 2.40655 1.9561 1.44606 0.481742 0.105211 0.00373116 6.10033e-05 4.00619e-08 6.41352e-11 -1.23545e-11 1.23812e-11 7.33248e-16 -1.05658e-11 1.05618e-11 -1.23779e-11 1.23774e-11 3.15809e-15 -1.23153e-14 -3.15576e-11 3.15537e-11 -1.05535e-11 1.23765e-11 -1.23796e-11 -2.0996e-11 2.09942e-11 1.31115e-16 1.23813e-11 -1.23795e-11 -2.10014e-11 3.33669e-11 -1.23616e-11 1.23759e-11 -1.23763e-11 -2.10046e-11 3.33776e-11 -1.23723e-11 1.23758e-11 -1.23765e-11 -2.10045e-11 3.33721e-11 -2.4753e-11 0 0 0.356491 0.71891 1.07547 1.40721 1.68557 1.92696 2.01574 2.04417 1.70104 1.23651 0.397658 0.102745 0.00467651 0.000132552 1.07124e-07 2.86459e-10 1.48303e-13 1.50045e-16 1.05604e-11 4.6899e-15 -1.05651e-11 1.05555e-11 -1.05557e-11 -5.8726e-15 -1.3397e-17 1.2373e-11 -3.33822e-11 3.33774e-11 -1.23681e-11 -1.01325e-14 1.23836e-11 -3.33828e-11 3.33775e-11 -1.23728e-11 -5.48999e-15 1.23782e-11 -3.3378e-11 3.33724e-11 -1.23617e-11 -1.08488e-14 1.23836e-11 -3.33776e-11 3.33721e-11 1.49025e-14 -1.2393e-11 3.19275e-15 -2.09928e-11 -4.99704e-15 2.10053e-11 0 0 0.347629 0.682142 0.994296 1.27209 1.48167 1.59418 1.61073 1.34659 0.882342 0.300873 0.071996 0.00358061 0.000132422 1.69255e-07 7.35742e-10 2.19522e-12 -1.0564e-11 2.14406e-16 8.74204e-12 1.823e-12 -4.83071e-15 -1.82178e-12 -8.73875e-12 -4.35968e-15 -5.35789e-15 -4.07944e-15 1.23801e-11 -1.23802e-11 -1.77039e-15 1.0972e-14 -9.29327e-15 1.23858e-11 -1.23857e-11 -1.88599e-15 1.1014e-14 -1.46793e-14 8.9426e-15 -8.9319e-15 1.4669e-14 -2.04091e-14 1.23929e-11 -8.34063e-17 -1.23874e-11 1.39304e-14 1.80542e-16 -2.21602e-14 -2.09778e-11 -1.1727e-15 3.33783e-11 0 0 0.301944 0.585972 0.834049 1.02844 1.1341 1.09954 0.86448 0.511352 0.176245 0.0351406 0.00208339 6.08659e-05 1.06243e-07 7.35341e-10 5.8175e-13 -1.6797e-15 1.81742e-12 -1.05672e-11 8.74818e-12 -8.74755e-12 1.05608e-11 -1.23772e-11 1.81162e-12 1.23774e-11 -5.30145e-15 -2.47531e-11 2.47527e-11 -2.47526e-11 2.47528e-11 -1.2371e-11 1.77867e-17 1.23708e-11 -2.47527e-11 2.47527e-11 -1.23751e-11 4.0924e-15 -2.04649e-14 1.5205e-14 5.278e-15 1.2361e-11 -3.33663e-11 3.33766e-11 -1.23868e-11 1.37145e-14 -2.1004e-11 3.33625e-11 -3.33717e-11 3.33909e-11 -1.27676e-14 0 0 0.221294 0.418723 0.561993 0.615835 0.562787 0.408681 0.212063 0.0647084 0.0105018 0.000622593 1.29985e-05 3.95752e-08 3.0713e-10 -1.44174e-12 7.54859e-15 1.81468e-12 -1.81848e-12 1.8144e-12 -1.81633e-12 -8.75844e-12 1.07933e-14 -9.94988e-15 1.23866e-11 -1.23863e-11 1.269e-16 -4.16351e-15 1.23802e-11 -1.23801e-11 9.4286e-15 5.76556e-15 -5.89438e-15 -1.11824e-14 1.12776e-14 -1.7621e-16 -4.24218e-15 -2.1001e-11 3.33569e-11 2.41613e-14 -2.47585e-11 2.47487e-11 -3.33681e-11 -4.40777e-15 3.33759e-11 -1.30407e-14 -3.33572e-11 3.33479e-11 2.8173e-14 -3.339e-11 3.33917e-11 0 0 0.094416 0.166715 0.19847 0.177578 0.111952 0.0455432 0.010744 0.00130142 6.15518e-05 9.60714e-07 5.47356e-09 4.27654e-11 1.45968e-13 1.05662e-11 -1.81585e-12 1.81854e-12 -1.8188e-12 1.81495e-12 -1.23839e-11 1.41898e-11 -2.47569e-11 2.47588e-11 -1.23765e-11 -5.15115e-15 -5.12239e-17 1.23723e-11 -3.33776e-11 3.33775e-11 -1.23668e-11 5.93674e-15 -6.05597e-15 -1.11187e-14 1.11822e-14 -1.23821e-11 2.47485e-11 -3.33816e-11 3.3377e-11 -3.33683e-11 2.09957e-11 1.23618e-11 9.22643e-15 -3.33755e-11 1.24996e-14 3.33631e-11 1.08533e-15 -1.87889e-15 -3.33619e-11 2.87556e-15 -1.13886e-15 0 0 0.0138612 0.0193999 0.0151809 0.00742048 0.00224894 0.000383015 3.18767e-05 1.07025e-06 1.65489e-08 2.85545e-10 3.24818e-12 -8.72098e-12 9.431e-17 -1.90348e-16 1.05645e-11 -1.81609e-12 1.81606e-12 -1.05659e-11 8.47679e-16 -2.101e-11 2.10102e-11 -4.03632e-15 5.66652e-15 -1.09441e-14 -1.60062e-16 1.23722e-11 -3.33775e-11 2.10047e-11 5.8145e-15 5.96802e-15 -6.04223e-15 1.23709e-11 -2.47531e-11 1.2367e-11 1.2381e-11 -3.78562e-15 -3.33778e-11 9.74364e-17 3.33777e-11 -3.33827e-11 -9.13739e-15 3.33775e-11 -3.33496e-11 -8.38658e-17 3.33628e-11 -3.33634e-11 2.97833e-15 3.57633e-16 -1.30837e-15 0 0 3.13878e-05 3.31509e-05 1.66887e-05 4.43844e-06 6.05617e-07 4.39264e-08 2.41372e-09 1.21313e-10 1.04781e-11 -3.57306e-12 1.05066e-15 -8.75053e-12 1.05635e-11 -1.23819e-11 1.23849e-11 -1.81943e-12 -8.74757e-12 1.56519e-15 -1.87468e-14 -2.09859e-11 2.10009e-11 -3.94403e-16 5.56777e-15 -1.10355e-14 -3.47106e-18 -4.26839e-15 1.23804e-11 -2.4753e-11 1.23672e-11 2.06755e-14 -1.54157e-14 9.22967e-15 3.50079e-15 1.23628e-11 -3.33721e-11 3.33537e-11 -3.3363e-11 3.33627e-11 -3.33624e-11 -1.48291e-14 1.49532e-14 3.33479e-11 -3.33344e-11 -1.77975e-17 3.33476e-11 -3.33473e-11 1.83451e-15 -2.39347e-15 3.33787e-11 0 0 1.10762e-10 1.51574e-10 1.161e-10 4.70854e-11 9.85718e-12 5.12795e-12 -3.51683e-12 -3.48734e-12 -5.25171e-12 8.74989e-12 -3.9071e-15 3.63917e-12 -3.643e-12 1.82454e-12 -1.23859e-11 1.2376e-11 -1.05623e-11 -2.09988e-11 2.09862e-11 1.91608e-14 -9.13955e-15 1.23751e-11 -2.47529e-11 2.47531e-11 1.03836e-17 -2.47532e-11 2.47475e-11 -1.23609e-11 1.23513e-11 -4.57428e-11 4.57382e-11 -1.23483e-11 1.23671e-11 -1.38048e-14 -3.3358e-11 -2.8183e-14 1.43223e-14 3.33628e-11 -3.3377e-11 3.33769e-11 -3.33621e-11 3.33477e-11 -3.33346e-11 3.33479e-11 -3.58985e-16 -3.33472e-11 -1.36271e-14 3.33907e-11 -1.23926e-14 0 0 -4.68107e-17 -1.27855e-12 1.81661e-12 -3.63247e-12 1.81704e-12 -3.14026e-15 -2.8711e-15 -1.05642e-11 -6.75854e-16 8.74905e-12 1.81682e-12 -1.05658e-11 1.05666e-11 -6.42618e-15 -1.05599e-11 -1.08432e-14 5.05088e-15 -2.09989e-11 2.1001e-11 -6.46525e-16 -3.1536e-16 -1.08382e-14 1.68703e-14 -1.10032e-14 -8.76054e-17 5.2601e-15 1.23656e-11 -1.23612e-11 1.23511e-11 -3.33703e-11 3.33656e-11 -3.33527e-11 3.33717e-11 -2.25591e-14 -3.33489e-11 -2.85633e-14 1.49973e-14 2.22533e-17 3.33762e-11 -3.33764e-11 -3.94305e-17 3.33629e-11 -3.33493e-11 3.33489e-11 -3.33491e-11 -1.32543e-14 3.33776e-11 -3.3377e-11 3.33917e-11 0 0 -3.61853e-16 5.37499e-13 -1.81703e-12 7.76972e-16 5.90115e-17 -2.50978e-15 -5.31584e-12 -5.2525e-12 1.05658e-11 -1.81669e-12 1.8121e-12 -1.05605e-11 1.05556e-11 -1.81247e-12 -8.74371e-12 -9.77947e-15 5.05062e-15 5.35252e-15 -8.88743e-15 1.23748e-11 -2.47529e-11 1.23822e-11 5.94751e-15 -1.10952e-14 -5.67354e-15 1.23873e-11 -1.23821e-11 -1.23773e-11 2.47488e-11 -3.64748e-15 -3.33778e-11 1.40289e-14 -1.21451e-15 3.33648e-11 -3.3392e-11 3.3377e-11 -3.33624e-11 -6.22599e-17 3.3376e-11 -3.33908e-11 3.33919e-11 -3.3377e-11 -6.69965e-17 3.33772e-11 -3.33917e-11 3.3392e-11 -3.33774e-11 1.59842e-14 -1.15947e-15 0 0 -1.63184e-16 1.07517e-12 -3.6334e-12 1.81692e-12 -7.37116e-16 -9.46427e-16 -7.13391e-12 7.13295e-12 -1.81842e-12 1.8186e-12 -1.82324e-12 -8.7444e-12 1.05554e-11 -1.23726e-11 1.81141e-12 1.23773e-11 -1.23763e-11 5.96821e-15 -5.95995e-15 -1.10886e-14 1.68135e-14 -5.47727e-15 5.71234e-15 -1.10952e-14 -5.59284e-15 4.3558e-15 5.16343e-15 -1.49411e-14 -2.09901e-11 3.33685e-11 -3.33778e-11 3.33764e-11 -3.33767e-11 4.21287e-16 3.33769e-11 -3.33769e-11 1.33147e-14 3.33492e-11 -3.33776e-11 3.33914e-11 -3.3376e-11 1.33992e-14 3.33488e-11 -3.33772e-11 3.33909e-11 -3.33758e-11 1.5274e-14 2.10636e-16 -1.2626e-15 0 0 -7.33783e-16 -1.27902e-12 -1.41191e-15 -1.81533e-12 1.81601e-12 -1.81759e-12 1.81602e-12 -1.81622e-12 1.66812e-15 1.81433e-12 -1.81744e-12 -8.75599e-12 5.94923e-15 -4.71969e-15 1.23756e-11 -1.23756e-11 -5.22156e-15 1.12742e-14 -1.14561e-14 1.12267e-17 1.14449e-14 -1.11236e-14 1.11236e-14 -1.11297e-14 3.51181e-17 -1.08841e-14 -2.09902e-11 3.33482e-11 -3.33434e-11 3.33637e-11 -3.19303e-16 -3.3392e-11 3.33774e-11 -3.33488e-11 3.33631e-11 -3.33766e-11 1.33563e-14 3.33343e-11 -3.33342e-11 3.33626e-11 -3.33761e-11 1.34818e-14 3.33341e-11 -3.3334e-11 3.33621e-11 -3.33753e-11 1.53765e-14 -3.03736e-14 3.34064e-11 0 0 -1.1727e-15 -3.63335e-12 3.6314e-12 -3.63144e-12 -1.37491e-16 -3.82578e-15 3.63445e-12 -3.63459e-12 4.01017e-15 -2.00323e-16 -2.84036e-15 3.62426e-12 -2.47607e-11 2.47581e-11 -5.49024e-15 -2.47528e-11 2.4753e-11 -2.47528e-11 2.47527e-11 -8.9858e-18 -2.47527e-11 2.47474e-11 -2.47473e-11 2.47529e-11 -4.05721e-15 -1.00226e-14 -6.67492e-11 6.67398e-11 2.87466e-14 -1.37302e-14 -3.11197e-16 -6.67545e-11 6.67398e-11 2.869e-14 -2.85606e-14 1.48481e-14 -6.67548e-11 6.67399e-11 2.85862e-14 -2.86245e-14 1.48463e-14 -6.67546e-11 6.67397e-11 2.88349e-14 -2.8731e-14 1.50625e-14 -6.67547e-11 6.67398e-11 -3.33626e-11 0 0 -6.47094e-16 -1.2789e-12 -8.41539e-16 3.57083e-17 -1.8209e-12 1.81745e-12 -1.05665e-11 1.05666e-11 -1.81675e-12 4.02558e-15 -1.27464e-14 3.63435e-12 -1.23887e-11 3.74276e-15 -7.29944e-17 -3.86872e-15 1.23802e-11 -1.23803e-11 3.82657e-15 -3.0809e-17 5.63892e-15 1.23654e-11 -2.47482e-11 2.47442e-11 1.40165e-15 -3.33778e-11 1.57752e-14 -1.55855e-14 3.33774e-11 8.30152e-17 -3.33776e-11 1.57107e-14 -1.57765e-14 3.33774e-11 -4.09144e-17 -3.33772e-11 1.5649e-14 -1.5649e-14 3.33771e-11 2.93118e-16 -3.33774e-11 1.56296e-14 -1.58389e-14 3.33777e-11 1.27144e-14 -3.33905e-11 -3.1521e-16 -7.34153e-16 8.82932e-16 0 0 1.77006e-16 5.3687e-13 -3.63204e-12 1.816e-12 -3.93717e-15 -1.05652e-11 1.18057e-15 -1.07548e-15 1.05651e-11 -2.24509e-15 -6.91074e-15 -3.15667e-11 3.3373e-11 -1.23727e-11 -1.97939e-17 1.23725e-11 -3.33775e-11 3.33775e-11 -1.23725e-11 -5.49043e-15 1.23876e-11 -1.23821e-11 3.69893e-15 -2.10183e-11 5.7432e-15 1.50636e-14 3.17459e-16 -2.12359e-16 -1.57785e-14 -8.34061e-17 1.57778e-14 -8.41359e-17 -1.83325e-15 -1.4222e-14 -1.22554e-16 1.62831e-14 2.75312e-16 -2.75312e-16 -1.63673e-14 2.71755e-16 1.61164e-14 2.54442e-16 -2.76e-15 3.33344e-11 -3.33352e-11 -2.87205e-14 3.33621e-11 -6.67255e-11 3.33761e-11 0 0 2.23183e-16 -9.24337e-16 -1.81513e-12 -1.50913e-16 1.81216e-12 -1.05652e-11 1.17313e-15 -1.14774e-15 -7.19891e-16 1.05603e-11 -2.81381e-15 -3.1572e-11 3.33774e-11 -1.23725e-11 -1.97392e-17 1.23724e-11 -3.33775e-11 2.1005e-11 1.6997e-16 1.2381e-11 -1.2381e-11 -1.23773e-11 2.47484e-11 -3.33952e-11 1.52814e-14 1.50841e-14 2.12359e-16 -6.9616e-16 -1.53777e-14 -4.36128e-17 1.58191e-14 -1.56257e-14 3.33764e-11 -3.33918e-11 1.47515e-14 1.62605e-14 3.17192e-16 -3.17191e-16 -3.11127e-14 1.51024e-14 1.58835e-14 -1.57489e-15 -1.14074e-15 3.33344e-11 -6.67258e-11 6.67242e-11 -3.33778e-11 -3.33471e-11 3.33754e-11 0 0 2.04541e-16 -1.81596e-12 1.81609e-12 -1.81629e-12 -4.67909e-15 1.81667e-12 -1.05657e-11 1.05618e-11 -1.23819e-11 1.23817e-11 -1.23898e-11 1.41995e-11 -1.23849e-11 -1.39182e-15 1.10242e-14 -9.49962e-15 1.23857e-11 -2.47584e-11 1.23672e-11 1.239e-11 -1.23906e-11 1.39041e-14 -2.10193e-11 3.33824e-11 1.41744e-15 -3.33778e-11 1.53539e-14 -1.59207e-14 3.33781e-11 -1.49362e-14 -3.33495e-11 3.33495e-11 -3.33775e-11 3.33771e-11 1.4752e-14 -3.33771e-11 1.52885e-14 -1.52877e-14 3.33625e-11 -3.33857e-11 3.50514e-14 3.32962e-11 -3.32969e-11 -1.13681e-14 -1.03493e-15 -1.61714e-14 -3.33624e-11 3.33627e-11 1.58156e-14 0 0 -4.56263e-16 -1.27679e-12 -1.49346e-15 -2.15869e-16 -1.8161e-12 -4.80575e-15 1.82078e-12 -1.82476e-12 1.82086e-12 -1.05707e-11 5.31449e-15 1.23652e-11 -2.47519e-11 2.4753e-11 -1.23708e-11 5.78634e-15 -5.61364e-15 5.58247e-15 -2.06612e-14 -2.10014e-11 3.33731e-11 1.46293e-14 -3.33868e-11 3.33918e-11 -1.33062e-14 -6.72363e-16 -6.67551e-11 6.6755e-11 -1.41795e-14 1.24787e-14 -3.33625e-11 3.33349e-11 -3.33345e-11 3.33491e-11 -3.33628e-11 3.33627e-11 -3.33514e-11 3.33514e-11 -3.33625e-11 -1.1422e-14 -8.41327e-11 1.17449e-10 -3.32936e-11 -1.12619e-14 -9.50559e-16 -3.33792e-11 3.33635e-11 3.33472e-11 -6.67089e-11 0 0 -5.00972e-16 -1.27832e-12 -6.95216e-16 -9.13463e-16 -1.82022e-12 1.81989e-12 -1.82073e-12 4.64699e-15 1.80673e-12 -1.056e-11 -3.87133e-15 1.237e-11 -1.23801e-11 9.48971e-15 3.07073e-18 5.84595e-15 -5.66366e-15 5.6775e-15 -1.54221e-14 -2.10165e-11 3.3388e-11 -3.33771e-11 3.33772e-11 4.87456e-16 5.24922e-16 -3.33779e-11 1.53532e-14 -1.53983e-14 3.33759e-11 -3.33632e-11 -1.37852e-14 3.33635e-11 -3.33492e-11 3.33493e-11 -3.33626e-11 3.33626e-11 -3.33512e-11 3.33512e-11 -3.3378e-11 1.71194e-14 -8.41738e-11 8.41579e-11 1.29195e-14 -3.76546e-16 -3.33772e-11 3.33768e-11 -1.49881e-14 -1.48722e-14 3.07767e-14 0 0 -4.19774e-16 -1.81754e-12 2.49154e-16 -1.81706e-12 1.81265e-12 -1.05665e-11 1.05658e-11 -1.81669e-12 -4.98414e-15 -8.74373e-12 -3.70305e-15 -2.10058e-11 3.33721e-11 -1.2367e-11 1.23708e-11 -2.47528e-11 2.47529e-11 -1.23708e-11 -1.00155e-14 1.23742e-11 -3.33797e-11 1.38986e-14 3.33487e-11 -3.3362e-11 5.28872e-16 1.50411e-14 -8.41359e-17 -1.54613e-14 3.33758e-11 -3.33906e-11 3.3391e-11 -3.33769e-11 5.24547e-16 3.33775e-11 -1.48297e-14 -3.33625e-11 -2.68107e-16 -3.19357e-16 3.33618e-11 -6.67492e-11 6.67183e-11 -6.67326e-11 3.33981e-11 -1.21367e-14 7.7213e-16 1.53663e-14 -1.62638e-14 -3.33625e-11 3.33749e-11 0 0 -6.48364e-16 5.37693e-13 -3.63364e-12 1.81607e-12 -4.26581e-15 -1.0565e-11 3.16907e-17 1.05651e-11 -1.821e-12 -8.74964e-12 5.08891e-15 -2.10148e-11 3.33776e-11 -1.23671e-11 -1.11052e-14 1.09828e-14 -1.093e-14 1.0814e-14 3.22674e-15 1.2367e-11 -3.33723e-11 3.7273e-16 3.33492e-11 -3.33769e-11 1.52739e-14 1.49808e-14 -1.87535e-15 3.3349e-11 -3.33773e-11 3.33908e-11 -3.33765e-11 -1.87717e-17 3.3377e-11 -3.33767e-11 3.33625e-11 -6.67401e-11 6.67241e-11 -3.33479e-11 8.06562e-16 1.56209e-14 -4.73872e-14 -3.33469e-11 3.33596e-11 3.19655e-15 3.12609e-16 1.56793e-14 -1.59696e-14 -3.33631e-11 3.33757e-11 0 0 1.49334e-16 -1.27818e-12 -7.96163e-16 -3.51716e-16 -1.82061e-12 1.81673e-12 -1.05651e-11 -4.75309e-17 1.05564e-11 1.81366e-12 -2.47573e-11 2.47532e-11 -1.23801e-11 -1.5913e-15 1.10378e-14 -9.02741e-17 -1.23818e-11 1.23665e-11 1.23998e-11 -4.25836e-14 3.31042e-14 -3.33906e-11 2.90495e-