<?xml version="1.0"?>
<VTKFile type="PolyData">
	<PolyData>
		<Piece NumberOfPoints="2601" NumberOfPolys="2500">
			<Points>
				<DataArray type="Float32" NumberOfComponents="3" format="ascii">
 0 0 0 0.29229 0 0 0.243259 0 0 0.297435 0 0 0.308752 0 0 0.327788 0 0 0.345304 0 0 0.357847 0 0 0.371642 0 0 0.380985 0 0 0.391959 0 0 0.399627 0 0 0.408218 0 0 0.415334 0 0 0.422746 0 0 0.428513 0 0 0.434174 0 0 0.439251 0 0 0.444272 0 0 0.448714 0 0 0.45294 0 0 0.456951 0 0 0.461868 0 0 0.469295 0 0 0.481685 0 0 0.500035 0 0 0.52 0 0 0.54 0 0 0.56 0 0 0.58 0 0 0.6 0 0 0.62 0 0 0.64 0 0 0.66 0 0 0.68 0 0 0.7 0 0 0.72 0 0 0.74 0 0 0.76 0 0 0.78 0 0 0.8 0 0 0.82 0 0 0.84 0 0 0.86 0 0 0.88 0 0 0.9 0 0 0.92 0 0 0.94 0 0 0.96 0 0 0.98 0 0 1 0 0 0 0.29229 0 0.1467 0.1467 0 0.274579 0.118587 0 0.27048 0.104642 0 0.305171 0.0772925 0 0.324254 0.0685236 0 0.340412 0.061248 0 0.356363 0.0553547 0 0.367348 0.0505585 0 0.380126 0.0464452 0 0.388841 0.0424882 0 0.398838 0.0390718 0 0.40639 0.036124 0 0.414601 0.0337115 0 0.42142 0.0316571 0 0.427675 0.029805 0 0.433324 0.0281683 0 0.438543 0.0266599 0 0.443603 0.0252982 0 0.448141 0.0240552 0 0.452395 0.0229385 0 0.456476 0.021937 0 0.461478 0.0210866 0 0.46903 0.0204419 0 0.481587 0.0200947 0 0.500031 0.0200037 0 0.52 0.02 0 0.54 0.02 0 0.56 0.02 0 0.58 0.02 0 0.6 0.02 0 0.62 0.02 0 0.64 0.02 0 0.66 0.02 0 0.68 0.02 0 0.7 0.02 0 0.72 0.02 0 0.74 0.02 0 0.76 0.02 0 0.78 0.02 0 0.8 0.02 0 0.82 0.02 0 0.84 0.02 0 0.86 0.02 0 0.88 0.02 0 0.9 0.02 0 0.92 0.02 0 0.94 0.02 0 0.96 0.02 0 0.98 0.02 0 1 0.02 0 0 0.243259 0 0.118587 0.274579 0 0.167434 0.167434 0 0.255494 0.175643 0 0.281378 0.149954 0 0.307369 0.131168 0 0.329008 0.118073 0 0.34438 0.108192 0 0.360364 0.0988532 0 0.371596 0.0905608 0 0.384138 0.0832554 0 0.3931 0.0767752 0 0.403027 0.0713059 0 0.410877 0.0667014 0 0.418385 0.0626718 0 0.424882 0.059175 0 0.431045 0.0559825 0 0.436366 0.0530248 0 0.441666 0.0503278 0 0.446406 0.0478778 0 0.450799 0.0456739 0 0.455071 0.0437127 0 0.460332 0.0420519 0 0.468257 0.0408085 0 0.481318 0.0401632 0 0.500022 0.0400053 0 0.52 0.04 0 0.54 0.04 0 0.56 0.04 0 0.58 0.04 0 0.6 0.04 0 0.62 0.04 0 0.64 0.04 0 0.66 0.04 0 0.68 0.04 0 0.7 0.04 0 0.72 0.04 0 0.74 0.04 0 0.76 0.04 0 0.78 0.04 0 0.8 0.04 0 0.82 0.04 0 0.84 0.04 0 0.86 0.04 0 0.88 0.04 0 0.9 0.04 0 0.92 0.04 0 0.94 0.04 0 0.96 0.04 0 0.98 0.04 0 1 0.04 0 0 0.297435 0 0.104642 0.27048 0 0.175643 0.255494 0 0.188105 0.188105 0 0.247828 0.207951 0 0.285722 0.179615 0 0.308846 0.16804 0 0.330995 0.153438 0 0.346795 0.142254 0 0.362977 0.131007 0 0.374451 0.12115 0 0.38688 0.112412 0 0.396272 0.105022 0 0.40572 0.0985195 0 0.41317 0.09288 0 0.420763 0.0878152 0 0.427089 0.0831322 0 0.433 0.0787825 0 0.438479 0.0748353 0 0.443585 0.0712541 0 0.448204 0.0680407 0 0.452802 0.0651884 0 0.458492 0.0627939 0 0.467048 0.0610388 0 0.480949 0.0601878 0 0.500012 0.0600045 0 0.52 0.06 0 0.54 0.06 0 0.56 0.06 0 0.58 0.06 0 0.6 0.06 0 0.62 0.06 0 0.64 0.06 0 0.66 0.06 0 0.68 0.06 0 0.7 0.06 0 0.72 0.06 0 0.74 0.06 0 0.76 0.06 0 0.78 0.06 0 0.8 0.06 0 0.82 0.06 0 0.84 0.06 0 0.86 0.06 0 0.88 0.06 0 0.9 0.06 0 0.92 0.06 0 0.94 0.06 0 0.96 0.06 0 0.98 0.06 0 1 0.06 0 0 0.308752 0 0.0772925 0.305171 0 0.149954 0.281378 0 0.207951 0.247828 0 0.21324 0.21324 0 0.256797 0.227529 0 0.290979 0.200931 0 0.312776 0.193253 0 0.334101 0.178326 0 0.349493 0.167251 0 0.365255 0.1556 0 0.376731 0.145857 0 0.388713 0.136755 0 0.397818 0.129008 0 0.406939 0.12181 0 0.414722 0.115371 0 0.421901 0.10923 0 0.428438 0.103713 0 0.434246 0.0985915 0 0.43975 0.0940345 0 0.444696 0.0899016 0 0.44975 0.0862621 0 0.456059 0.0832344 0 0.465517 0.0811004 0 0.480575 0.0801654 0 0.500005 0.0800025 0 0.52 0.08 0 0.54 0.08 0 0.56 0.08 0 0.58 0.08 0 0.6 0.08 0 0.62 0.08 0 0.64 0.08 0 0.66 0.08 0 0.68 0.08 0 0.7 0.08 0 0.72 0.08 0 0.74 0.08 0 0.76 0.08 0 0.78 0.08 0 0.8 0.08 0 0.82 0.08 0 0.84 0.08 0 0.86 0.08 0 0.88 0.08 0 0.9 0.08 0 0.92 0.08 0 0.94 0.08 0 0.96 0.08 0 0.98 0.08 0 1 0.08 0 0 0.327788 0 0.0685236 0.324254 0 0.131168 0.307369 0 0.179615 0.285722 0 0.227529 0.256797 0 0.236625 0.236625 0 0.269858 0.24128 0 0.297161 0.218655 0 0.317363 0.2124 0 0.337296 0.197544 0 0.351931 0.187482 0 0.366968 0.175889 0 0.378064 0.166544 0 0.38968 0.157149 0 0.398934 0.14914 0 0.407752 0.141228 0 0.415545 0.134174 0 0.422842 0.127553 0 0.429088 0.121539 0 0.435004 0.116099 0 0.440355 0.111175 0 0.446015 0.106846 0 0.453172 0.103324 0 0.463844 0.100995 0 0.480282 0.100112 0 0.500001 0.100001 0 0.52 0.1 0 0.54 0.1 0 0.56 0.1 0 0.58 0.1 0 0.6 0.1 0 0.62 0.1 0 0.64 0.1 0 0.66 0.1 0 0.68 0.1 0 0.7 0.1 0 0.72 0.1 0 0.74 0.1 0 0.76 0.1 0 0.78 0.1 0 0.8 0.1 0 0.82 0.1 0 0.84 0.1 0 0.86 0.1 0 0.88 0.1 0 0.9 0.1 0 0.92 0.1 0 0.94 0.1 0 0.96 0.1 0 0.98 0.1 0 1 0.1 0 0 0.345304 0 0.061248 0.340412 0 0.118073 0.329008 0 0.16804 0.308846 0 0.200931 0.290979 0 0.24128 0.269858 0 0.254093 0.254093 0 0.280854 0.253556 0 0.303455 0.233565 0 0.321729 0.228209 0 0.34024 0.213193 0 0.35403 0.204187 0 0.368432 0.192505 0 0.379503 0.18368 0 0.390685 0.173972 0 0.3996 0.165675 0 0.408495 0.15759 0 0.416107 0.150315 0 0.423148 0.143518 0 0.42938 0.137368 0 0.435318 0.131753 0 0.441722 0.126884 0 0.450006 0.12304 0 0.462278 0.120761 0 0.480106 0.120055 0 0.5 0.12 0 0.52 0.12 0 0.54 0.12 0 0.56 0.12 0 0.58 0.12 0 0.6 0.12 0 0.62 0.12 0 0.64 0.12 0 0.66 0.12 0 0.68 0.12 0 0.7 0.12 0 0.72 0.12 0 0.74 0.12 0 0.76 0.12 0 0.78 0.12 0 0.8 0.12 0 0.82 0.12 0 0.84 0.12 0 0.86 0.12 0 0.88 0.12 0 0.9 0.12 0 0.92 0.12 0 0.94 0.12 0 0.96 0.12 0 0.98 0.12 0 1 0.12 0 0 0.357847 0 0.0553547 0.356363 0 0.108192 0.34438 0 0.153438 0.330995 0 0.193253 0.312776 0 0.218655 0.297161 0 0.253556 0.280854 0 0.268584 0.268584 0 0.290041 0.264045 0 0.309608 0.24591 0 0.32599 0.2411 0 0.343117 0.226007 0 0.356385 0.21821 0 0.370162 0.206335 0 0.380677 0.197736 0 0.391478 0.188018 0 0.400306 0.179853 0 0.408801 0.171741 0 0.41632 0.164534 0 0.423109 0.157674 0 0.429721 0.151573 0 0.4371 0.146331 0 0.446787 0.142438 0 0.461083 0.14047 0 0.480029 0.140019 0 0.5 0.14 0 0.52 0.14 0 0.54 0.14 0 0.56 0.14 0 0.58 0.14 0 0.6 0.14 0 0.62 0.14 0 0.64 0.14 0 0.66 0.14 0 0.68 0.14 0 0.7 0.14 0 0.72 0.14 0 0.74 0.14 0 0.76 0.14 0 0.78 0.14 0 0.8 0.14 0 0.82 0.14 0 0.84 0.14 0 0.86 0.14 0 0.88 0.14 0 0.9 0.14 0 0.92 0.14 0 0.94 0.14 0 0.96 0.14 0 0.98 0.14 0 1 0.14 0 0 0.371642 0 0.0505585 0.367348 0 0.0988532 0.360364 0 0.142254 0.346795 0 0.178326 0.334101 0 0.2124 0.317363 0 0.233565 0.303455 0 0.264045 0.290041 0 0.280336 0.280336 0 0.298424 0.272655 0 0.315694 0.256364 0 0.331144 0.251668 0 0.346614 0.236779 0 0.358827 0.22961 0 0.371814 0.217762 0 0.382022 0.209671 0 0.39211 0.200042 0 0.400829 0.192174 0 0.408981 0.1842 0 0.416336 0.177059 0 0.423807 0.170551 0 0.432416 0.165254 0 0.443879 0.16165 0 0.460386 0.160216 0 0.480005 0.160004 0 0.5 0.16 0 0.52 0.16 0 0.54 0.16 0 0.56 0.16 0 0.58 0.16 0 0.6 0.16 0 0.62 0.16 0 0.64 0.16 0 0.66 0.16 0 0.68 0.16 0 0.7 0.16 0 0.72 0.16 0 0.74 0.16 0 0.76 0.16 0 0.78 0.16 0 0.8 0.16 0 0.82 0.16 0 0.84 0.16 0 0.86 0.16 0 0.88 0.16 0 0.9 0.16 0 0.92 0.16 0 0.94 0.16 0 0.96 0.16 0 0.98 0.16 0 1 0.16 0 0 0.380985 0 0.0464452 0.380126 0 0.0905608 0.371596 0 0.131007 0.362977 0 0.167251 0.349493 0 0.197544 0.337296 0 0.228209 0.321729 0 0.24591 0.309608 0 0.272655 0.298424 0 0.289435 0.289435 0 0.306333 0.279927 0 0.321619 0.265686 0 0.33617 0.25986 0 0.350003 0.24572 0 0.361669 0.239174 0 0.373528 0.227553 0 0.383232 0.219829 0 0.392914 0.210619 0 0.401208 0.202895 0 0.409396 0.195291 0 0.41784 0.188874 0 0.427962 0.183773 0 0.441729 0.180897 0 0.460096 0.180067 0 0.480001 0.180001 0 0.5 0.18 0 0.52 0.18 0 0.54 0.18 0 0.56 0.18 0 0.58 0.18 0 0.6 0.18 0 0.62 0.18 0 0.64 0.18 0 0.66 0.18 0 0.68 0.18 0 0.7 0.18 0 0.72 0.18 0 0.74 0.18 0 0.76 0.18 0 0.78 0.18 0 0.8 0.18 0 0.82 0.18 0 0.84 0.18 0 0.86 0.18 0 0.88 0.18 0 0.9 0.18 0 0.92 0.18 0 0.94 0.18 0 0.96 0.18 0 0.98 0.18 0 1 0.18 0 0 0.391959 0 0.0424882 0.388841 0 0.0832554 0.384138 0 0.12115 0.374451 0 0.1556 0.365255 0 0.187482 0.351931 0 0.213193 0.34024 0 0.2411 0.32599 0 0.256364 0.315694 0 0.279927 0.306333 0 0.296564 0.296564 0 0.312922 0.286055 0 0.326684 0.273987 0 0.340813 0.266976 0 0.353176 0.253777 0 0.364129 0.247239 0 0.375217 0.236287 0 0.384462 0.228774 0 0.393637 0.220015 0 0.402408 0.212909 0 0.41218 0.206583 0 0.424175 0.202259 0 0.44055 0.20035 0 0.460015 0.200013 0 0.48 0.2 0 0.5 0.2 0 0.52 0.2 0 0.54 0.2 0 0.56 0.2 0 0.58 0.2 0 0.6 0.2 0 0.62 0.2 0 0.64 0.2 0 0.66 0.2 0 0.68 0.2 0 0.7 0.2 0 0.72 0.2 0 0.74 0.2 0 0.76 0.2 0 0.78 0.2 0 0.8 0.2 0 0.82 0.2 0 0.84 0.2 0 0.86 0.2 0 0.88 0.2 0 0.9 0.2 0 0.92 0.2 0 0.94 0.2 0 0.96 0.2 0 0.98 0.2 0 1 0.2 0 0 0.399627 0 0.0390718 0.398838 0 0.0767752 0.3931 0 0.112412 0.38688 0 0.145857 0.376731 0 0.175889 0.366968 0 0.204187 0.35403 0 0.226007 0.343117 0 0.251668 0.331144 0 0.265686 0.321619 0 0.286055 0.312922 0 0.302436 0.302436 0 0.318224 0.291658 0 0.330887 0.281188 0 0.344453 0.273266 0 0.355773 0.261226 0 0.366385 0.254588 0 0.376527 0.244271 0 0.385908 0.237124 0 0.395852 0.229627 0 0.407094 0.224252 0 0.421618 0.221006 0 0.440115 0.220089 0 0.460001 0.220001 0 0.48 0.22 0 0.5 0.22 0 0.52 0.22 0 0.54 0.22 0 0.56 0.22 0 0.58 0.22 0 0.6 0.22 0 0.62 0.22 0 0.64 0.22 0 0.66 0.22 0 0.68 0.22 0 0.7 0.22 0 0.72 0.22 0 0.74 0.22 0 0.76 0.22 0 0.78 0.22 0 0.8 0.22 0 0.82 0.22 0 0.84 0.22 0 0.86 0.22 0 0.88 0.22 0 0.9 0.22 0 0.92 0.22 0 0.94 0.22 0 0.96 0.22 0 0.98 0.22 0 1 0.22 0 0 0.408218 0 0.036124 0.40639 0 0.0713059 0.403027 0 0.105022 0.396272 0 0.136755 0.388713 0 0.166544 0.378064 0 0.192505 0.368432 0 0.21821 0.356385 0 0.236779 0.346614 0 0.25986 0.33617 0 0.273987 0.326684 0 0.291658 0.318224 0 0.307711 0.307711 0 0.322511 0.297004 0 0.334403 0.287394 0 0.34753 0.27923 0 0.357759 0.268091 0 0.368354 0.261396 0 0.378655 0.252516 0 0.389835 0.246657 0 0.403166 0.242039 0 0.420422 0.240318 0 0.440014 0.240012 0 0.46 0.24 0 0.48 0.24 0 0.5 0.24 0 0.52 0.24 0 0.54 0.24 0 0.56 0.24 0 0.58 0.24 
[...]
			<PointData Scalars="VitesseX">
				<DataArray Name="VitesseX" type="Float32" format="ascii">
 0 2.35996 1.20993 1.86592 1.95177 1.89639 1.94322 2.11693 2.13941 2.18268 2.31643 2.39898 2.45824 2.45192 2.60601 2.78228 2.73779 2.74804 2.81831 2.83437 2.95123 2.88849 2.59215 1.89583 0.716396 0.0286768 1.1286e-05 6.61696e-11 3.65543e-16 2.58165e-20 -1.26551e-20 1.26551e-20 0 -1.26551e-20 1.26551e-20 -2.58165e-20 2.58165e-20 -1.26551e-20 1.26551e-20 -1.26551e-20 1.26551e-20 -2.58165e-20 2.58165e-20 0 0 -2.58165e-20 2.58165e-20 -2.58165e-20 2.58165e-20 0 0 0 0.535874 1.84059 1.34765 1.88781 1.85452 1.95693 2.08146 2.13888 2.20515 2.2923 2.41244 2.40706 2.49021 2.61874 2.73286 2.74216 2.74985 2.81375 2.83439 2.9467 2.87936 2.57663 1.87133 0.68569 0.0257668 9.49202e-06 5.88885e-11 3.30162e-16 2.58165e-20 -1.26551e-20 1.26551e-20 0 -1.26551e-20 1.26551e-20 -2.58165e-20 2.58165e-20 -1.26551e-20 1.26551e-20 -1.26551e-20 1.26551e-20 -2.58165e-20 2.58165e-20 0 0 -2.58165e-20 2.58165e-20 -2.58165e-20 2.58165e-20 0 0 0 0.852548 0.629991 1.51696 1.57783 1.74269 1.87865 2.0273 2.09413 2.18346 2.3116 2.33188 2.39266 2.51436 2.63311 2.61851 2.77317 2.73095 2.81259 2.82939 2.93314 2.85022 2.52876 1.79703 0.597054 0.0185647 5.62525e-06 4.10096e-11 2.49034e-16 1.29082e-20 6.58068e-21 -6.58068e-21 2.65758e-20 -1.99951e-20 -6.58068e-21 -1.29082e-20 1.29082e-20 3.31565e-20 -3.31565e-20 6.58068e-21 -6.58068e-21 -1.29082e-20 3.94841e-20 -2.65758e-20 0 1.36676e-20 -1.36676e-20 1.36676e-20 -1.36676e-20 0 0 0 0.8081 1.13571 0.780432 1.27797 1.62969 1.76278 1.91493 2.05421 2.17802 2.2535 2.31505 2.36251 2.55271 2.54878 2.58378 2.75404 2.70855 2.81201 2.82309 2.90683 2.79818 2.44314 1.66882 0.462914 0.0105215 2.32165e-06 2.16995e-11 1.40266e-16 2.65758e-20 -1.36676e-20 1.36676e-20 0 -1.36676e-20 1.36676e-20 -2.65758e-20 2.65758e-20 -1.39207e-20 1.39207e-20 -1.36676e-20 1.36676e-20 -2.65758e-20 2.65758e-20 0 0 -2.68289e-20 2.68289e-20 -2.68289e-20 2.68289e-20 0 0 0 0.442476 0.948161 1.32621 1.02896 1.42571 1.66838 1.81721 1.97196 2.11407 2.20107 2.26888 2.3906 2.45944 2.50391 2.58619 2.65658 2.71428 2.79247 2.8186 2.86495 2.7227 2.31225 1.47506 0.308265 0.00455547 6.56766e-07 8.44348e-12 5.92495e-17 2.65758e-20 0 0 -2.65758e-20 2.65758e-20 0 -2.65758e-20 2.65758e-20 2.63227e-20 -2.63227e-20 0 0 -2.65758e-20 0 2.65758e-20 0 -2.53103e-22 2.53103e-22 -5.34047e-20 5.34047e-20 0 0 0 0.384877 0.759506 1.0255 1.4531 1.3819 1.54744 1.72373 1.87004 2.0287 2.13956 2.25692 2.30773 2.36922 2.48237 2.58002 2.55411 2.72776 2.74641 2.81179 2.80127 2.62376 2.13353 1.19986 0.167903 0.00144895 1.27929e-07 2.37193e-12 3.09223e-17 0 2.65758e-20 -2.65758e-20 5.31516e-20 -2.65758e-20 -2.65758e-20 0 0 7.97274e-20 -7.97274e-20 2.65758e-20 -2.65758e-20 0 5.31516e-20 -5.31516e-20 0 5.31516e-20 -5.31516e-20 5.31516e-20 -5.31516e-20 0 0 0 0.354797 0.669454 1.01279 1.09693 1.45283 1.49294 1.68735 1.78243 1.95848 2.08044 2.16965 2.23151 2.30039 2.48241 2.50023 2.55619 2.66645 2.71779 2.78229 2.71863 2.48059 1.90666 0.849042 0.0706948 0.000320452 1.86973e-08 4.95033e-13 1.04e-17 -5.31516e-20 0 5.31516e-20 -5.31516e-20 5.31516e-20 -5.31516e-20 0 5.31516e-20 -1.06303e-19 1.06303e-19 -5.31516e-20 0 5.31516e-20 -5.31516e-20 5.31516e-20 0 -5.31516e-20 0 5.31516e-20 -5.31516e-20 0 0 0 0.318287 0.665508 0.894735 1.18138 1.19484 1.55807 1.59357 1.81533 1.90762 1.96371 2.06244 2.1618 2.313 2.37657 2.46966 2.5585 2.5853 2.69289 2.71797 2.61393 2.27786 1.60039 0.485355 0.0216938 4.53937e-05 2.38344e-09 8.36589e-14 -6.45506e-22 5.31516e-20 -5.31516e-20 5.31516e-20 -5.31516e-20 0 5.31516e-20 -5.31516e-20 5.31516e-20 -1.06303e-19 1.06303e-19 -5.31516e-20 5.31516e-20 -5.31516e-20 0 5.31516e-20 0 -1.06303e-19 1.06303e-19 -1.06303e-19 1.06303e-19 0 0 0 0.303686 0.600297 0.883957 1.0652 1.30396 1.32637 1.66005 1.76219 1.84581 1.9121 2.0066 2.14289 2.2408 2.31752 2.44528 2.52213 2.54334 2.65679 2.62516 2.46487 2.02613 1.17053 0.206751 0.00453156 3.73711e-06 2.51376e-10 1.16688e-14 4.47592e-24 5.31516e-20 -5.31516e-20 0 5.31516e-20 -5.31516e-20 0 5.31516e-20 -1.06303e-19 1.59202e-19 -1.59202e-19 5.31516e-20 1.06303e-19 -1.06303e-19 0 -5.31516e-20 1.06303e-19 -5.31516e-20 1.06303e-19 -2.12606e-19 2.12606e-19 -1.06303e-19 0 0 0.288709 0.567963 0.837815 1.04236 1.2104 1.45552 1.5074 1.69823 1.889 1.8482 2.01992 2.13401 2.18076 2.30969 2.43561 2.43104 2.55647 2.57196 2.52006 2.24155 1.69459 0.669776 0.0607182 0.000582916 1.72113e-07 1.74679e-11 1.13232e-15 0 0 5.31516e-20 -5.31516e-20 0 5.31516e-20 -5.31516e-20 0 0 1.59202e-19 -1.59202e-19 5.31516e-20 -5.31516e-20 0 0 0 0 1.06303e-19 -1.06303e-19 0 0 0 0 0 0.273735 0.544711 0.779706 0.986876 1.18242 1.35805 1.54199 1.55516 1.75245 1.98073 2.02786 2.05482 2.17853 2.31053 2.34608 2.4518 2.5006 2.50419 2.33836 1.97133 1.19908 0.268844 0.0113983 3.95316e-05 6.24959e-09 7.90726e-13 4.63798e-17 -1.59455e-19 1.06303e-19 -5.31516e-20 5.31516e-20 -1.06303e-19 1.06303e-19 5.31516e-20 -2.12606e-19 2.12606e-19 -1.06303e-19 0 1.06303e-19 -2.12606e-19 1.06303e-19 1.06303e-19 -1.06303e-19 0 0 0 1.06303e-19 -2.12606e-19 2.12606e-19 0 0 0.256011 0.496528 0.725739 0.940299 1.1504 1.31362 1.42228 1.62198 1.66639 1.91948 1.95535 2.06192 2.19957 2.2634 2.34985 2.41866 2.45211 2.36337 2.10851 1.57602 0.622755 0.0691898 0.00119898 1.22781e-06 2.47402e-10 3.47729e-14 1.06166e-19 -1.06303e-19 0 0 0 1.0605e-19 -1.0605e-19 0 0 0 0 0 0 0 0 1.06303e-19 -1.06303e-19 0 0 0 1.06303e-19 -1.06303e-19 0 0 0 0.225251 0.459148 0.687333 0.917347 1.0992 1.23715 1.40527 1.53936 1.73939 1.73521 1.94327 2.02344 2.12765 2.21416 2.33768 2.37647 2.3447 2.16594 1.7826 0.990298 0.20973 0.0101445 5.98202e-05 1.99373e-08 6.14328e-12 1.31769e-15 -1.59455e-19 1.59455e-19 -5.31516e-20 1.06303e-19 -1.06303e-19 -2.53103e-22 2.53103e-22 0 1.06303e-19 -1.06303e-19 -1.06303e-19 2.12606e-19 -1.06303e-19 1.06303e-19 -1.06303e-19 -1.06303e-19 2.12606e-19 -1.06303e-19 1.06303e-19 -1.06303e-19 -1.06303e-19 3.18403e-19 -3.18403e-19 0 0 0.214524 0.451415 0.682264 0.879946 1.03348 1.20812 1.37454 1.53748 1.60287 1.76235 1.90868 1.96668 2.06202 2.18007 2.26604 2.3069 2.15501 1.88172 1.26384 0.414604 0.0395947 0.000764102 1.06298e-06 4.16279e-10 1.12171e-13 2.58731e-17 -2.12606e-19 2.12606e-19 -1.06303e-19 0 1.06303e-19 -2.12606e-19 2.12606e-19 -1.06303e-19 0 1.06303e-19 -2.12606e-19 2.12606e-19 -1.06303e-19 0 1.06303e-19 -2.12606e-19 2.12606e-19 0 -1.06303e-19 0 -5.06206e-22 0 5.06206e-22 0 0 0.221776 0.439369 0.637786 0.827411 1.02285 1.18864 1.34632 1.43958 1.63937 1.70228 1.83556 1.94459 1.99343 2.15115 2.17384 2.08502 1.92696 1.40366 0.627731 0.0933896 0.00415515 1.92801e-05 1.05589e-08 5.53024e-12 2.33171e-15 1.56252e-23 1.06303e-19 -1.06303e-19 0 0 0 1.06303e-19 -1.06303e-19 0 0 0 0 0 0 0 1.06303e-19 0 -1.06303e-19 0 0 0 -5.06206e-22 -1.05797e-19 2.12606e-19 0 0 0.209807 0.403022 0.601383 0.810973 0.986941 1.13573 1.27442 1.46685 1.55763 1.69672 1.74622 1.8929 2.00554 1.98295 2.00849 1.84753 1.43434 0.795765 0.154804 0.012932 0.000129561 1.9547e-07 1.21914e-10 6.35424e-14 2.05652e-17 -2.12606e-19 2.12606e-19 -2.12606e-19 2.12606e-19 -1.06303e-19 0 1.06303e-19 -2.12606e-19 2.12606e-19 -1.06303e-19 0 0 0 0 1.06303e-19 -2.12606e-19 2.12606e-19 -1.06303e-19 0 -1.06303e-19 2.12606e-19 -2.12606e-19 2.12606e-19 0 0 0 0.19339 0.394826 0.594617 0.76552 0.921976 1.08409 1.26323 1.38449 1.52285 1.59836 1.77952 1.77633 1.87456 1.85892 1.68912 1.41762 0.834013 0.203122 0.0260807 0.000424297 1.99106e-06 1.05831e-09 1.02887e-12 6.58749e-16 1.11763e-23 0 1.06303e-19 -1.06303e-19 0 0 0 0 1.05797e-19 -1.05797e-19 0 -1.06303e-19 3.18403e-19 -1.05797e-19 -2.12606e-19 2.12606e-19 -2.12606e-19 0 2.12606e-19 0 -2.12606e-19 2.12606e-19 0 -2.12606e-19 2.12606e-19 0 0 0.18523 0.369798 0.547278 0.727999 0.905664 1.06439 1.19192 1.34346 1.46528 1.61022 1.62058 1.75005 1.62086 1.57975 1.277 0.770063 0.222067 0.0337479 0.00089522 9.13383e-06 4.71553e-09 1.08394e-11 6.62911e-15 -1.0281e-17 0 1.06303e-19 -2.12606e-19 2.12606e-19 -1.06303e-19 0 0 0 1.05797e-19 -2.121e-19 2.12606e-19 -2.12606e-19 3.18403e-19 -3.18403e-19 1.06303e-19 1.06303e-19 0 -2.12606e-19 0 2.12606e-19 0 0 -2.12606e-19 2.121e-19 -2.121e-19 0 0 0.178484 0.355911 0.532519 0.700695 0.858281 1.01312 1.17221 1.30943 1.42443 1.48123 1.55196 1.44972 1.42158 1.04628 0.670136 0.185139 0.0329801 0.00121521 1.6584e-05 1.394e-08 5.50379e-11 2.97996e-14 7.20715e-17 0 0 1.06303e-19 -2.12606e-19 1.06303e-19 0 1.05797e-19 -1.05797e-19 1.06303e-19 -2.12606e-19 1.06303e-19 1.06303e-19 0 -2.12606e-19 0 4.24707e-19 -4.24707e-19 0 2.12606e-19 -5.06206e-22 -2.121e-19 2.12606e-19 -2.12606e-19 2.121e-19 0 -2.121e-19 0 0 0.169829 0.338856 0.505121 0.667202 0.826373 0.982593 1.11487 1.23183 1.30695 1.3385 1.27689 1.1853 0.836277 0.494997 0.125445 0.0249815 0.000879708 1.65658e-05 2.28836e-08 1.06205e-10 8.4366e-14 2.67579e-16 2.23796e-24 0 0 0 1.06303e-19 -2.12606e-19 1.06303e-19 1.05797e-19 -1.05797e-19 0 0 1.06303e-19 -2.12606e-19 2.12606e-19 -5.06206e-22 5.06206e-22 -5.06206e-22 -2.121e-19 0 2.12606e-19 -5.06206e-22 -2.121e-19 2.12606e-19 -2.12606e-19 2.121e-19 -2.121e-19 2.12606e-19 0 0 0.166314 0.32999 0.489605 0.640906 0.78123 0.910468 1.02016 1.08815 1.11051 1.05744 0.910599 0.599295 0.302153 0.073897 0.0122775 0.000409596 9.11518e-06 1.38376e-08 1.06104e-10 1.3462e-13 5.97058e-16 1.06319e-19 -2.12606e-19 2.12606e-19 0 -2.12606e-19 2.12606e-19 -1.06303e-19 1.06303e-19 -3.1891e-19 3.1891e-19 -1.06303e-19 1.06303e-19 0 -2.12606e-19 0 2.121e-19 5.06206e-22 -2.12606e-19 2.12606e-19 -2.12606e-19 2.12606e-19 -2.12606e-19 2.12606e-19 0 -2.12606e-19 0 2.12606e-19 0 0 0 0.153976 0.303771 0.44623 0.578611 0.694984 0.786589 0.84216 0.850755 0.77534 0.601112 0.354326 0.147801 0.032201 0.00391959 0.000125899 1.98379e-06 4.62719e-09 5.49291e-11 8.37071e-14 5.97058e-16 2.90041e-23 0 1.05797e-19 -1.05797e-19 0 0 1.06303e-19 -1.06303e-19 1.06303e-19 -2.12606e-19 2.12606e-19 -2.12606e-19 2.12606e-19 0 -2.12606e-19 2.121e-19 -2.121e-19 0 2.12606e-19 -2.12606e-19 2.121e-19 5.06206e-22 -2.12606e-19 2.12606e-19 -2.12606e-19 2.121e-19 5.06206e-22 -2.12606e-19 2.12606e-19 0 0 0.130605 0.254995 0.367756 0.463948 0.536711 0.570311 0.544096 0.448981 0.307963 0.155207 0.0504259 0.00865391 0.000726443 1.89082e-05 1.93614e-07 1.03873e-09 1.07933e-11 2.94086e-14 2.67579e-16 1.06319e-19 -2.12606e-19 1.06303e-19 1.05797e-19 -1.05797e-19 0 1.06303e-19 -1.06303e-19 -1.06303e-19 2.12606e-19 0 -2.12606e-19 2.121e-19 -2.121e-19 2.12606e-19 -2.12606e-19 4.24707e-19 -4.24707e-19 0 2.12606e-19 -2.12606e-19 4.24707e-19 -4.24707e-19 0 2.12606e-19 -2.12606e-19 4.24707e-19 -4.24707e-19 2.121e-19 -2.121e-19 0 0 0.0893518 0.170082 0.232951 0.268717 0.271122 0.240766 0.180731 0.103354 0.0392277 0.00902407 0.00107917 5.77224e-05 1.04289e-06 1.03279e-08 1.19994e-10 1.01712e-12 6.46441e-15 7.20715e-17 2.23796e-24 0 1.05797e-19 -1.05797e-19 0 0 0 0 1.05797e-19 -1.05797e-19 -1.06303e-19 2.12606e-19 -2.12606e-19 4.24707e-19 -4.24707e-19 0 2.12606e-19 -2.12606e-19 2.121e-19 5.06206e-22 -2.12606e-19 2.12606e-19 -2.12606e-19 2.121e-19 5.06206e-22 -2.12606e-19 2.12606e-19 -2.12606e-19 2.121e-19 0 -2.121e-19 0 0 0.0324969 0.0589387 0.0741194 0.0740238 0.0580863 0.0335467 0.0133273 0.003402 0.000504717 3.71038e-05 1.18917e-06 1.91275e-08 4.05559e-10 5.40907e-12 6.22453e-14 6.79311e-16 -1.0281e-17 0 0 0 1.05797e-19 -1.05797e-19 0 0 0 0 -5.06206e-22 1.06809e-19 -2.12606e-19 2.12606e-19 0 -2.12606e-19 2.12606e-19 -2.12606e-19 2.12606e-19 -2.12606e-19 2.121e-19 5.06206e-22 -2.12606e-19 2.12606e-19 -2.12606e-19 2.121e-19 5.06206e-22 -2.12606e-19 2.12606e-19 -2.12606e-19 2.121e-19 -2.121e-19 2.12606e-19 0 0 0.00280016 0.00415249 0.00365731 0.002178 0.000883696 0.000235944 3.82136e-05 3.40463e-06 1.60125e-07 5.76829e-09 2.354e-10 5.92609e-12 1.076e-13 2.2908e-15 2.05651e-17 -2.12595e-19 2.12606e-19 -2.12606e-19 2.12606e-19 0 -2.12606e-19 2.12606e-19 -2.12606e-19 2.12606e-19 0 0 -4.25213e-19 4.25213e-19 0 0 0 -4.25213e-19 4.25213e-19 0 0 0 -4.25213e-19 4.25213e-19 0 0 0 -4.25213e-19 4.25213e-19 0 0 0 -4.25213e-19 6.37313e-19 -4.24707e-19 0 0 1.79293e-06 2.07167e-06 1.23049e-06 4.33951e-07 9.48304e-08 1.44003e-08 1.91424e-09 2.17974e-10 1.59554e-11 7.23857e-13 3.21891e-14 1.26626e-15 2.56604e-17 1.56252e-23 0 0 1.06303e-19 -1.06303e-19 0 0 0 1.06303e-19 -2.12606e-19 2.12606e-19 0 -2.12606e-19 2.121e-19 -2.121e-19 2.12606e-19 0 -2.12606e-19 2.121e-19 -2.121e-19 2.12606e-19 0 -2.12606e-19 2.121e-19 -2.121e-19 2.12606e-19 0 -2.12606e-19 2.121e-19 -2.121e-19 2.12606e-19 0 -2.12606e-19 0 2.121e-19 0 0 0 7.28118e-12 1.05978e-11 8.71258e-12 4.54358e-12 1.52803e-12 3.48901e-13 6.24934e-14 9.49664e-15 1.03988e-15 4.62738e-17 -1.376e-22 -1.59455e-19 2.12606e-19 -1.06303e-19 0 1.06303e-19 -2.12606e-19 2.12606e-19 -1.06303e-19 0 1.06303e-19 -1.06303e-19 1.05797e-19 -2.121e-19 0 2.121e-19 0 0 -2.121e-19 0 2.121e-19 0 0 -2.121e-19 0 2.121e-19 0 0 -2.121e-19 0 2.121e-19 0 0 5.06206e-22 -2.12606e-19 0 4.24707e-19 -6.37313e-19 4.24707e-19 0 0 3.53815e-17 4.57459e-17 6.30226e-17 1.79938e-17 1.03335e-17 1.0295e-17 -4.03593e-22 -2.46389e-22 2.53103e-22 5.28985e-20 0 -1.59455e-19 2.12606e-19 -1.0605e-19 0 1.0605e-19 -2.12606e-19 1.06556e-19 0 1.0605e-19 -1.0605e-19 -1.06303e-19 3.1815e-19 -3.18403e-19 0 2.12353e-19 0 0 -2.12353e-19 0 2.12353e-19 -2.12353e-19 4.24707e-19 -4.24707e-19 0 2.12353e-19 -2.12353e-19 2.12353e-19 -2.12353e-19 2.12353e-19 0 -2.12353e-19 2.12353e-19 2.53103e-22 -4.2496e-19 6.37313e-19 -2.12606e-19 -4.24707e-19 4.24707e-19 0 0 0 -1.29082e-20 2.65758e-20 -2.65758e-20 0 5.31516e-20 -5.28985e-20 5.28985e-20 -1.0605e-19 1.0605e-19 -1.06303e-19 1.59455e-19 -1.06303e-19 2.53103e-22 0 -2.53103e-22 1.06303e-19 -2.12353e-19 1.06303e-19 1.0605e-19 -1.0605e-19 0 -1.06556e-19 2.12606e-19 0 -2.12353e-19 2.121e-19 -2.121e-19 2.12353e-19 0 -2.12353e-19 2.12353e-19 -2.12606e-19 2.12606e-19 0 -2.12353e-19 -2.53103e-22 2.53103e-22 2.12353e-19 -2.53103e-22 0 2.53103e-22 -2.12353e-19 -2.53103e-22 2.12353e-19 0 -4.24707e-19 4.24707e-19 0 0 0 0 -6.58068e-21 1.36676e-20 0 -2.65758e-20 0 5.31516e-20 -5.31516e-20 5.31516e-20 -5.31516e-20 0 1.06303e-19 -2.12606e-19 2.12606e-19 -1.06303e-19 0 0 1.05797e-19 -1.05797e-19 -1.06303e-19 2.12606e-19 0 -2.12606e-19 2.12606e-19 0 0 -4.25213e-19 4.25213e-19 0 0 -2.12606e-19 2.12606e-19 -2.12606e-19 2.12606e-19 -2.12606e-19 2.12606e-19 -5.06206e-22 5.06206e-22 -2.12606e-19 2.121e-19 -4.24454e-19 6.3706e-19 -4.24707e-19 2.121e-19 0 -4.24707e-19 4.24707e-19 4.24707e-19 -8.49413e-19 0 0 0 -6.58068e-21 1.36676e-20 0 -2.65758e-20 5.31516e-20 -5.31516e-20 0 5.31516e-20 -5.31516e-20 0 1.06303e-19 -1.06303e-19 0 0 0 0 1.05797e-19 -1.05797e-19 -1.06303e-19 2.12606e-19 -2.12606e-19 2.12606e-19 0 0 -2.12606e-19 2.121e-19 -2.121e-19 2.12606e-19 -2.12606e-19 2.121e-19 5.06206e-22 -2.12606e-19 2.12606e-19 -2.12606e-19 2.12606e-19 -5.06206e-22 5.06206e-22 -2.12606e-19 2.121e-19 -4.24454e-19 4.24454e-19 0 0 -4.24707e-19 4.24707e-19 0 0 0 0 0 0 7.59309e-22 0 -2.65758e-20 5.31516e-20 -5.31516e-20 5.31516e-20 -5.31516e-20 0 0 1.05797e-19 -2.121e-19 2.12606e-19 -1.06303e-19 1.06303e-19 -2.12606e-19 2.12606e-19 -1.06303e-19 0 1.06303e-19 -2.12606e-19 2.121e-19 5.06206e-22 -2.12606e-19 0 2.121e-19 0 -2.121e-19 2.12606e-19 -2.12606e-19 4.24707e-19 -4.24707e-19 0 2.12606e-19 0 -2.12606e-19 2.121e-19 -2.121e-19 2.12606e-19 -4.25213e-19 8.49413e-19 -8.49413e-19 4.24707e-19 0 0 0 0 -4.24707e-19 4.24707e-19 0 0 0 1.99951e-20 -3.94841e-20 2.65758e-20 2.65758e-20 -5.31516e-20 0 5.31516e-20 -5.31516e-20 0 1.05797e-19 -2.121e-19 2.12606e-19 -1.06303e-19 0 1.05797e-19 -1.05797e-19 0 0 1.06303e-19 -2.12606e-19 2.121e-19 5.06206e-22 -2.12606e-19 0 2.121e-19 0 5.06206e-22 -2.12606e-19 2.12606e-19 -2.12606e-19 0 4.24707e-19 -4.24707e-19 2.12606e-19 -4.25213e-19 6.37313e-19 -2.12606e-19 -2.121e-19 2.121e-19 0 -4.24707e-19 4.24707e-19 0 0 0 0 -4.24707e-19 4.24707e-19 0 0 0 -6.58068e-21 1.36676e-20 0 -2.65758e-20 5.31516e-20 -5.31516e-20 0 5.31516e-20 5.31516e-20 -2.12606e-19 2.12606e-19 -1.06303e-19 0 0 1.05797e-19 -2.121e-19 1.06303e-19 1.06303e-19 0 0 -2.12606e-19 0 2.12606e-19 0 -2.12606e-19 2.121e-19 5.06206e-22 -2.12606e-19 2.12606e-19 -2.12606e-19 2.12606e-19 -5.06206e-22 -2.121e-19 0 2.121e-19 -2.121e-19 2.121e-19 0 0 0 0 0 -4.24707e-19 4.24707e-19 0 -4.24707e-19 4.24707e-19 0 0 0 0 -1.29082e-20 2.65758e-20 -2.65758e-20 0 0 5.31516e-20 -5.31516e-20 2.53103e-22 0 -2.53103e-22 1.06303e-19 -2.12353e-19 2.12353e-19 -1.0605e-19 -2.53103e-22 0 1.06303e-19 -2.12353e-19 2.12353e-19 -2.12353e-19 2.12353e-19 -2.12606e-19 2.12606e-19 0 0 -4.2496e-19 4.2496e-19 0 -2.12353e-19 2.12353e-19 0 -2.12606e-19 2.53103e-22 2.121e-19 0 0 -4.24707e-19 4.24707e-19 0 0 0 -4.24707e-19 4.24707e-19 0 0 -4.24707e-19 8.49413e-19 -8.49413e-19 0 0 0 -1.29082e-20 2.65758e-20 -2.65758e-20 0 5.31516e-20 -5.31516e-20 0 2.53103e-22 0 -2.53103e-22 1.06303e-19 -1.0605e-19 -2.53103e-22 2.53103e-22 -1.06556e-19 2.12606e-19 0 -2.12353e-19 -2.53103e-22 2.12353e-19 2.53103e-22 -2.12606e-19 2.12606e-19 0 -2.12606e-19 2.12353e-19 -2.12353e-19 2.12606e-19 -2.12353e-19 2.12353e-19 -2.12606e-19 0 2.12353e-19 0 0 0 0 -4.24707e-19 4.24707e-19 -4.24707e-19 4.24707e-19 0 0 0 -4.24454e-19 4.24454e-19 0 0 0 0 0 1.99951e-20 -3.97372e-20 7.99805e-20 -7.97274e-20 0 0 5.26454e-20 5.36578e-20 -1.06303e-19 0 -1.06303e-19 2.12606e-19 -2.12606e-19 2.12606e-19 -1.06809e-19 1.06809e-19 -2.12606e-19 4.24707e-19 -6.37313e-19 6.37313e-19 -4.24707e-19 2.121e-19 -2.121e-19 0 2.121e-19 0 -2.121e-19 0 4.24707e-19 -4.24707e-19 2.121e-19 -2.121e-19 2.121e-19 0 0 -4.24707e-19 4.24707e-19 4.24707e-19 -8.49413e-19 0 4.24707e-19 4.24707e-19 -8.49413e-19 4.24707e-19 -4.24454e-19 8.4916e-19 -8.49413e-19 4.24707e-19 0 0 0 1.99951e-20 -3.97372e-20 7.99805e-20 -7.97274e-20 0 0 5.26454e-20 5.36578e-20 -2.12606e-19 2.12606e-19 -2.12606e-19 2.12606e-19 -2.12606e-19 2.12606e-19 1.05797e-19 -3.18403e-19 0 4.24707e-19 -4.24707e-19 0 0 4.24707e-19 -4.24707e-19 0 2.121e-19 0 -2.121e-19 0 4.24707e-19 -4.24707e-19 2.121e-19 2.12606e-19 -6.37313e-19 4.24707e-19 0 -4.24707e-19 4.24707e-19 4.24707e-19 -8.49413e-19 4.24707e-19 0 -4.24454e-19 4.24454e-19 -4.24707e-19 8.49413e-19 -4.24707e-19 -4.24707e-19 4.24707e-19 0 0 0 -6.58068e-21 1.36676e-20 0 -2.65758e-20 5.31516e-20 -5.31516e-20 -5.31516e-20 1.59455e-19 -1.06303e-19 0 1.06303e-19 -1.06303e-19 0 0 0 -1.06303e-19 4.24707e-19 -4.24707e-19 2.12606e-19 -2.12606e-19 2.12606e-19 -2.12606e-19 2.12606e-19 0 -2.12606e-19 2.121e-19 -2.121e-19 2.12606e-19 -2.12606e-19 2.12606e-19 -2.12606e-19 2.121e-19 0 -4.24707e-19 4.24707e-19 4.24707e-19 -4.24707e-19 -4.24707e-19 4.24707e-19 0 0 -4.24454e-19 4.24454e-19 0 0 -4.24707e-19 4.24707e-19 0 0 0 0 -6.58068e-21 1.36676e-20 0 -2.65758e-20 0 5.31516e-20 0 -5.31516e-20 0 0 1.06303e-19 -2.12606e-19 2.12606e-19 -1.06303e-19 0 1.06303e-19 -5.06206e-22 -2.121e-19 2.12606e-19 -2.12606e-19 2.12606e-19 -2.12606e-19 2.12606e-19 0 0 -4.25213e-19 6.37313e-19 -4.24707e-19 2.121e-19 -2.121e-19 0 2.121e-19 0 0 -4.24707e-19 8.49413e-19 -8.49413e-19 4.24707e-19 0 0 -4.24707e-19 4.24707e-19 0 0 0 -4.24707e-19 8.49413e-19 -8.49413e-19 0 0 0 -1.29082e-20 2.65758e-20 -2.65758e-20 0 5.31516e-20 -5.28985e-20 1.0605e-19 -2.12353e-19 1.0605e-19 2.53103e-22 1.0605e-19 -1.06303e-19 1.06303e-19 -2.12353e-19 2.12353e-19 0 -4.2496e-19 4.2496e-19 -2.12353e-19 2.121e-19 2.53103e-22 -2.12353e-19 2.12353e-19 0 -2.12353e-19 2.121e-19 0 0 -4.24454e-19 4.24454e-19 0 0 0 0 -4.24707e-19 0 4.24707e-19 0 0 -4.24454e-19 4.24454e-19 0 0 0 -4.24454e-19 4.24454e-19 0 0 0 0 0 1.36676e-20 -2.65758e-20 0 5.31516e-20 -5.31516e-20 2.53103e-22 -2.53103e-22 2.53103e-22 1.0605e-19 -1.0605e-19 -1.06556e-19 2.12606e-19 0 -2.12353e-19 -2.53103e-22 2.12606e-19 -2.12353e-19 2.12353e-19 -2.12353e-19 4.24707e-19 -4.2496e-19 2.12353e-19 -2.12353e-19 0 2.12353e-19 0 -2.121e-19 4.24707e-19 -6.3706e-19 4.24454e-19 0 -4.24707e-19 8.49413e-19 -8.49413e-19 4.24707e-19 -4.24707e-19 8.49413e-19 -8.49413e-19 4.24707e-19 -4.24454e-19 4.24454e-19 4.24707e-19 -8.49413e-19 4.24707e-19 -4.24454e-19 8.4916e-19 -8.49413e-19 4.24707e-19 0 0 0 7.59309e-22 0