<?xml version="1.0"?>
<VTKFile type="PolyData">
	<PolyData>
		<Piece NumberOfPoints="2601" NumberOfPolys="2500">
			<Points>
				<DataArray type="Float32" NumberOfComponents="3" format="ascii">
 0 0 0 0.266007 0 0 0.227808 0 0 0.274188 0 0 0.287584 0 0 0.305358 0 0 0.321898 0 0 0.333543 0 0 0.346573 0 0 0.355058 0 0 0.364772 0 0 0.37206 0 0 0.379419 0 0 0.385476 0 0 0.392015 0 0 0.397565 0 0 0.402599 0 0 0.407102 0 0 0.411138 0 0 0.415107 0 0 0.420156 0 0 0.428012 0 0 0.441196 0 0 0.460016 0 0 0.48 0 0 0.5 0 0 0.52 0 0 0.54 0 0 0.56 0 0 0.58 0 0 0.6 0 0 0.62 0 0 0.64 0 0 0.66 0 0 0.68 0 0 0.7 0 0 0.72 0 0 0.74 0 0 0.76 0 0 0.78 0 0 0.8 0 0 0.82 0 0 0.84 0 0 0.86 0 0 0.88 0 0 0.9 0 0 0.92 0 0 0.94 0 0 0.96 0 0 0.98 0 0 1 0 0 0 0.266007 0 0.140011 0.140011 0 0.252878 0.108658 0 0.253298 0.0952756 0 0.284071 0.0722084 0 0.302367 0.0638783 0 0.316897 0.0569495 0 0.332256 0.0515533 0 0.342321 0.0469016 0 0.353934 0.0429404 0 0.36217 0.039291 0 0.371027 0.0361158 0 0.377836 0.033368 0 0.384622 0.0310696 0 0.390929 0.0291445 0 0.396724 0.0274221 0 0.401822 0.0258839 0 0.406429 0.0244781 0 0.410519 0.0231935 0 0.414581 0.0220496 0 0.419736 0.0211011 0 0.42774 0.0204152 0 0.441113 0.0200783 0 0.460014 0.020002 0 0.48 0.02 0 0.5 0.02 0 0.52 0.02 0 0.54 0.02 0 0.56 0.02 0 0.58 0.02 0 0.6 0.02 0 0.62 0.02 0 0.64 0.02 0 0.66 0.02 0 0.68 0.02 0 0.7 0.02 0 0.72 0.02 0 0.74 0.02 0 0.76 0.02 0 0.78 0.02 0 0.8 0.02 0 0.82 0.02 0 0.84 0.02 0 0.86 0.02 0 0.88 0.02 0 0.9 0.02 0 0.92 0.02 0 0.94 0.02 0 0.96 0.02 0 0.98 0.02 0 1 0.02 0 0 0.227808 0 0.108658 0.252878 0 0.159469 0.159469 0 0.237488 0.162234 0 0.262927 0.139019 0 0.286671 0.122098 0 0.306774 0.110099 0 0.320745 0.100447 0 0.335661 0.091699 0 0.346091 0.0839091 0 0.357604 0.0770474 0 0.365877 0.0709921 0 0.374312 0.0657798 0 0.381472 0.061491 0 0.388119 0.0577482 0 0.394118 0.0544559 0 0.399571 0.0514376 0 0.404399 0.0486742 0 0.408714 0.0461417 0 0.41303 0.0439046 0 0.418508 0.0420595 0 0.426953 0.0407476 0 0.440891 0.0401307 0 0.460009 0.0400027 0 0.48 0.04 0 0.5 0.04 0 0.52 0.04 0 0.54 0.04 0 0.56 0.04 0 0.58 0.04 0 0.6 0.04 0 0.62 0.04 0 0.64 0.04 0 0.66 0.04 0 0.68 0.04 0 0.7 0.04 0 0.72 0.04 0 0.74 0.04 0 0.76 0.04 0 0.78 0.04 0 0.8 0.04 0 0.82 0.04 0 0.84 0.04 0 0.86 0.04 0 0.88 0.04 0 0.9 0.04 0 0.92 0.04 0 0.94 0.04 0 0.96 0.04 0 0.98 0.04 0 1 0.04 0 0 0.274188 0 0.0952756 0.253298 0 0.162234 0.237488 0 0.178695 0.178695 0 0.232472 0.192187 0 0.266678 0.167634 0 0.288074 0.156205 0 0.308385 0.142761 0 0.322663 0.131853 0 0.337779 0.121278 0 0.348563 0.112119 0 0.359513 0.103803 0 0.368104 0.0968673 0 0.376676 0.0908181 0 0.383446 0.0855103 0 0.390074 0.0807361 0 0.395815 0.0763425 0 0.401156 0.0723091 0 0.405799 0.068626 0 0.410547 0.0653878 0 0.416555 0.0627551 0 0.425742 0.0609336 0 0.440601 0.0601416 0 0.460005 0.060002 0 0.48 0.06 0 0.5 0.06 0 0.52 0.06 0 0.54 0.06 0 0.56 0.06 0 0.58 0.06 0 0.6 0.06 0 0.62 0.06 0 0.64 0.06 0 0.66 0.06 0 0.68 0.06 0 0.7 0.06 0 0.72 0.06 0 0.74 0.06 0 0.76 0.06 0 0.78 0.06 0 0.8 0.06 0 0.82 0.06 0 0.84 0.06 0 0.86 0.06 0 0.88 0.06 0 0.9 0.06 0 0.92 0.06 0 0.94 0.06 0 0.96 0.06 0 0.98 0.06 0 1 0.06 0 0 0.287584 0 0.0722084 0.284071 0 0.139019 0.262927 0 0.192187 0.232472 0 0.200833 0.200833 0 0.24056 0.210856 0 0.271442 0.188112 0 0.291282 0.179525 0 0.310886 0.165722 0 0.325038 0.15508 0 0.339532 0.143932 0 0.350155 0.134751 0 0.360898 0.126166 0 0.369416 0.118832 0 0.377542 0.11205 0 0.38455 0.105994 0 0.390896 0.100304 0 0.396788 0.0951824 0 0.401913 0.0904581 0 0.407245 0.0863728 0 0.414016 0.0831001 0 0.424256 0.0809476 0 0.44033 0.0801129 0 0.460002 0.080001 0 0.48 0.08 0 0.5 0.08 0 0.52 0.08 0 0.54 0.08 0 0.56 0.08 0 0.58 0.08 0 0.6 0.08 0 0.62 0.08 0 0.64 0.08 0 0.66 0.08 0 0.68 0.08 0 0.7 0.08 0 0.72 0.08 0 0.74 0.08 0 0.76 0.08 0 0.78 0.08 0 0.8 0.08 0 0.82 0.08 0 0.84 0.08 0 0.86 0.08 0 0.88 0.08 0 0.9 0.08 0 0.92 0.08 0 0.94 0.08 0 0.96 0.08 0 0.98 0.08 0 1 0.08 0 0 0.305358 0 0.0638783 0.302367 0 0.122098 0.286671 0 0.167634 0.266678 0 0.210856 0.24056 0 0.220969 0.220969 0 0.251718 0.223916 0 0.27684 0.204353 0 0.295178 0.197117 0 0.313616 0.183271 0 0.327095 0.173644 0 0.340968 0.162624 0 0.35127 0.153728 0 0.361467 0.144794 0 0.370128 0.137182 0 0.378003 0.129799 0 0.384991 0.123191 0 0.391462 0.117084 0 0.397175 0.111547 0 0.403258 0.106771 0 0.41106 0.103058 0 0.422725 0.100804 0 0.440141 0.100066 0 0.46 0.1 0 0.48 0.1 0 0.5 0.1 0 0.52 0.1 0 0.54 0.1 0 0.56 0.1 0 0.58 0.1 0 0.6 0.1 0 0.62 0.1 0 0.64 0.1 0 0.66 0.1 0 0.68 0.1 0 0.7 0.1 0 0.72 0.1 0 0.74 0.1 0 0.76 0.1 0 0.78 0.1 0 0.8 0.1 0 0.82 0.1 0 0.84 0.1 0 0.86 0.1 0 0.88 0.1 0 0.9 0.1 0 0.92 0.1 0 0.94 0.1 0 0.96 0.1 0 0.98 0.1 0 1 0.1 0 0 0.321898 0 0.0569495 0.316897 0 0.110099 0.306774 0 0.156205 0.288074 0 0.188112 0.271442 0 0.223916 0.251718 0 0.237086 0.237086 0 0.260958 0.235212 0 0.282232 0.21745 0 0.299148 0.211526 0 0.316343 0.197595 0 0.329019 0.18896 0 0.341956 0.177782 0 0.352081 0.169207 0 0.362135 0.160184 0 0.370426 0.152301 0 0.378398 0.144803 0 0.385251 0.137991 0 0.391753 0.131786 0 0.398759 0.126566 0 0.407892 0.122636 0 0.421424 0.120556 0 0.440045 0.120027 0 0.46 0.12 0 0.48 0.12 0 0.5 0.12 0 0.52 0.12 0 0.54 0.12 0 0.56 0.12 0 0.58 0.12 0 0.6 0.12 0 0.62 0.12 0 0.64 0.12 0 0.66 0.12 0 0.68 0.12 0 0.7 0.12 0 0.72 0.12 0 0.74 0.12 0 0.76 0.12 0 0.78 0.12 0 0.8 0.12 0 0.82 0.12 0 0.84 0.12 0 0.86 0.12 0 0.88 0.12 0 0.9 0.12 0 0.92 0.12 0 0.94 0.12 0 0.96 0.12 0 0.98 0.12 0 1 0.12 0 0 0.333543 0 0.0515533 0.332256 0 0.100447 0.320745 0 0.142761 0.308385 0 0.179525 0.291282 0 0.204353 0.27684 0 0.235212 0.260958 0 0.249585 0.249585 0 0.269548 0.245037 0 0.287887 0.22865 0 0.303105 0.223255 0 0.31877 0.209124 0 0.330691 0.201356 0 0.343157 0.190297 0 0.352912 0.181936 0 0.362594 0.172977 0 0.370867 0.165247 0 0.378454 0.157736 0 0.385777 0.1512 0 0.394026 0.145733 0 0.404822 0.141941 0 0.420568 0.140291 0 0.44001 0.140007 0 0.46 0.14 0 0.48 0.14 0 0.5 0.14 0 0.52 0.14 0 0.54 0.14 0 0.56 0.14 0 0.58 0.14 0 0.6 0.14 0 0.62 0.14 0 0.64 0.14 0 0.66 0.14 0 0.68 0.14 0 0.7 0.14 0 0.72 0.14 0 0.74 0.14 0 0.76 0.14 0 0.78 0.14 0 0.8 0.14 0 0.82 0.14 0 0.84 0.14 0 0.86 0.14 0 0.88 0.14 0 0.9 0.14 0 0.92 0.14 0 0.94 0.14 0 0.96 0.14 0 0.98 0.14 0 1 0.14 0 0 0.346573 0 0.0469016 0.342321 0 0.091699 0.335661 0 0.131853 0.322663 0 0.165722 0.310886 0 0.197117 0.295178 0 0.21745 0.282232 0 0.245037 0.269548 0 0.259589 0.259589 0 0.277439 0.252599 0 0.2932 0.237966 0 0.307201 0.232404 0 0.32147 0.218666 0 0.33265 0.211485 0 0.34434 0.20066 0 0.353943 0.192751 0 0.36302 0.183979 0 0.371194 0.17651 0 0.379609 0.169693 0 0.389339 0.164399 0 0.402335 0.161148 0 0.420161 0.160105 0 0.440001 0.160001 0 0.46 0.16 0 0.48 0.16 0 0.5 0.16 0 0.52 0.16 0 0.54 0.16 0 0.56 0.16 0 0.58 0.16 0 0.6 0.16 0 0.62 0.16 0 0.64 0.16 0 0.66 0.16 0 0.68 0.16 0 0.7 0.16 0 0.72 0.16 0 0.74 0.16 0 0.76 0.16 0 0.78 0.16 0 0.8 0.16 0 0.82 0.16 0 0.84 0.16 0 0.86 0.16 0 0.88 0.16 0 0.9 0.16 0 0.92 0.16 0 0.94 0.16 0 0.96 0.16 0 0.98 0.16 0 1 0.16 0 0 0.355058 0 0.0429404 0.353934 0 0.0839091 0.346091 0 0.121278 0.337779 0 0.15508 0.325038 0 0.183271 0.313616 0 0.211526 0.299148 0 0.22865 0.287887 0 0.252599 0.277439 0 0.267747 0.267747 0 0.283939 0.25847 0 0.298118 0.24603 0 0.311424 0.239839 0 0.324052 0.226756 0 0.334946 0.220052 0 0.345674 0.209682 0 0.354791 0.201984 0 0.363975 0.19394 0 0.373593 0.187583 0 0.385158 0.182758 0 0.400819 0.180503 0 0.42003 0.180023 0 0.44 0.18 0 0.46 0.18 0 0.48 0.18 0 0.5 0.18 0 0.52 0.18 0 0.54 0.18 0 0.56 0.18 0 0.58 0.18 0 0.6 0.18 0 0.62 0.18 0 0.64 0.18 0 0.66 0.18 0 0.68 0.18 0 0.7 0.18 0 0.72 0.18 0 0.74 0.18 0 0.76 0.18 0 0.78 0.18 0 0.8 0.18 0 0.82 0.18 0 0.84 0.18 0 0.86 0.18 0 0.88 0.18 0 0.9 0.18 0 0.92 0.18 0 0.94 0.18 0 0.96 0.18 0 0.98 0.18 0 1 0.18 0 0 0.364772 0 0.039291 0.36217 0 0.0770474 0.357604 0 0.112119 0.348563 0 0.143932 0.339532 0 0.173644 0.327095 0 0.197595 0.316343 0 0.223255 0.303105 0 0.237966 0.2932 0 0.25847 0.283939 0 0.274465 0.274465 0 0.289619 0.264097 0 0.302072 0.252935 0 0.315152 0.246157 0 0.326586 0.234197 0 0.336893 0.22735 0 0.347034 0.217868 0 0.356971 0.211052 0 0.368146 0.204901 0 0.382138 0.201351 0 0.400188 0.20014 0 0.420003 0.200003 0 0.44 0.2 0 0.46 0.2 0 0.48 0.2 0 0.5 0.2 0 0.52 0.2 0 0.54 0.2 0 0.56 0.2 0 0.58 0.2 0 0.6 0.2 0 0.62 0.2 0 0.64 0.2 0 0.66 0.2 0 0.68 0.2 0 0.7 0.2 0 0.72 0.2 0 0.74 0.2 0 0.76 0.2 0 0.78 0.2 0 0.8 0.2 0 0.82 0.2 0 0.84 0.2 0 0.86 0.2 0 0.88 0.2 0 0.9 0.2 0 0.92 0.2 0 0.94 0.2 0 0.96 0.2 0 0.98 0.2 0 1 0.2 0 0 0.37206 0 0.0361158 0.371027 0 0.0709921 0.365877 0 0.103803 0.359513 0 0.134751 0.350155 0 0.162624 0.340968 0 0.18896 0.329019 0 0.209124 0.31877 0 0.232404 0.307201 0 0.24603 0.298118 0 0.264097 0.289619 0 0.279583 0.279583 0 0.294198 0.26947 0 0.305619 0.259269 0 0.318166 0.251895 0 0.328629 0.241119 0 0.339401 0.234584 0 0.350665 0.227127 0 0.363814 0.222632 0 0.380587 0.220427 0 0.400026 0.220023 0 0.42 0.22 0 0.44 0.22 0 0.46 0.22 0 0.48 0.22 0 0.5 0.22 0 0.52 0.22 0 0.54 0.22 0 0.56 0.22 0 0.58 0.22 0 0.6 0.22 0 0.62 0.22 0 0.64 0.22 0 0.66 0.22 0 0.68 0.22 0 0.7 0.22 0 0.72 0.22 0 0.74 0.22 0 0.76 0.22 0 0.78 0.22 0 0.8 0.22 0 0.82 0.22 0 0.84 0.22 0 0.86 0.22 0 0.88 0.22 0 0.9 0.22 0 0.92 0.22 0 0.94 0.22 0 0.96 0.22 0 0.98 0.22 0 1 0.22 0 0 0.379419 0 0.033368 0.377836 0 0.0657798 0.374312 0 0.0968673 0.368104 0 0.126166 0.360898 0 0.153728 0.35127 0 0.177782 0.341956 0 0.201356 0.330691 0 0.218666 0.32147 0 0.239839 0.311424 0 0.252935 0.302072 0 0.26947 0.294198 0 0.283973 0.283973 0 0.297877 0.2745 0 0.30855 0.264769 0 0.321089 0.257677 0 0.332282 0.249099 0 0.345445 0.244215 0 0.361186 0.240872 0 0.380101 0.240087 0 0.400002 0.240002 0 0.42 0.24 0 0.44 0.24 0 0.46 0.24 0 0.48 0.24 0 0.5 0.24 0 0.52 0.24 0 0.54 0.24 0 0.56 0.24 0 0.58 0.24 0 0.6 0.24 0 0.62 0.24 0 0.64 0.24 0 0.66 0.24 0 0.68 0.24 0 0.7 0.24 0 0.72 0.24 0 0.74 0.24 0 0.76 0.24 0 0.78 0.24 0 0.8 0.24 0 0.82 0.24 0 0.84 0.24 0 0.86 0.24 0 0.88 0.24 0 0.9 0.24 0 0.92 0.24 0 0.9
[...]
			<PointData Scalars="VitesseX">
				<DataArray Name="VitesseX" type="Float32" format="ascii">
 0 2.37926 1.66405 2.04554 1.97549 2.23615 2.21299 2.35953 2.49394 2.51781 2.62517 2.7266 2.92699 2.89829 2.84497 2.99795 3.14421 3.16286 3.29808 3.19003 2.81434 1.97367 0.619439 0.0156398 2.47868e-06 1.13382e-11 5.07098e-17 1.04172e-20 -2.1251e-20 2.1251e-20 -1.04172e-20 1.04172e-20 0 -1.04172e-20 1.04172e-20 -2.1251e-20 2.1251e-20 -1.04172e-20 1.04172e-20 -1.04172e-20 1.04172e-20 -2.1251e-20 2.1251e-20 0 0 -2.1251e-20 2.1251e-20 -2.1251e-20 2.1251e-20 0 0 0 0.629551 2.11914 1.58912 2.0163 2.1611 2.24061 2.36427 2.45944 2.53091 2.58816 2.77363 2.86766 2.88541 2.87405 2.97741 3.13626 3.16506 3.28712 3.17596 2.79292 1.94244 0.586027 0.0137911 2.05952e-06 1.00809e-11 4.58484e-17 1.04172e-20 -2.1251e-20 2.1251e-20 -1.04172e-20 1.04172e-20 0 -1.04172e-20 1.04172e-20 -2.1251e-20 2.1251e-20 -1.04172e-20 1.04172e-20 -1.04172e-20 1.04172e-20 -2.1251e-20 2.1251e-20 0 0 -2.1251e-20 2.1251e-20 -2.1251e-20 2.1251e-20 0 0 0 0.94896 0.746126 1.69983 1.77579 2.02435 2.15161 2.32006 2.39987 2.43213 2.6044 2.74321 2.77103 2.83835 2.94344 2.93205 3.11874 3.1584 3.25985 3.13242 2.72751 1.84691 0.492018 0.00939343 1.17639e-06 6.9928e-12 3.3315e-17 1.64591e-20 -3.25015e-20 1.06255e-20 5.41692e-21 -5.41692e-21 2.1876e-20 -1.64591e-20 -5.41692e-21 -1.06255e-20 1.06255e-20 2.7293e-20 -2.7293e-20 5.41692e-21 -5.41692e-21 -1.06255e-20 3.25015e-20 -2.1876e-20 0 1.12505e-20 -1.12505e-20 1.12505e-20 -1.12505e-20 0 0 0 0.884061 1.31474 0.900782 1.47765 1.81395 2.04419 2.21778 2.30348 2.41903 2.55098 2.71228 2.66447 2.84364 2.92737 2.94169 3.0638 3.14268 3.21667 3.06212 2.61273 1.67954 0.357309 0.00485047 4.57239e-07 3.66621e-12 1.92376e-17 1.12505e-20 -2.1876e-20 2.1876e-20 -1.12505e-20 1.12505e-20 0 -1.12505e-20 1.12505e-20 -2.1876e-20 2.1876e-20 -1.14589e-20 1.14589e-20 -1.12505e-20 1.12505e-20 -2.1876e-20 2.1876e-20 0 0 -2.20844e-20 2.20844e-20 -2.20844e-20 2.20844e-20 0 0 0 0.523886 1.05152 1.50785 1.2427 1.53583 1.92373 2.10261 2.23384 2.36757 2.5116 2.5723 2.68962 2.79097 2.85157 2.97856 2.97891 3.11674 3.15309 2.96783 2.44412 1.42459 0.215306 0.00184329 1.20796e-07 1.40867e-12 6.43818e-18 -2.1876e-20 0 2.1876e-20 0 0 -2.1876e-20 2.1876e-20 0 -2.1876e-20 2.1876e-20 2.16677e-20 -2.16677e-20 0 0 -2.1876e-20 0 2.1876e-20 0 -2.08343e-22 2.08343e-22 -4.39604e-20 4.39604e-20 0 0 0 0.47306 0.901296 1.13364 1.61955 1.46245 1.80384 1.99536 2.15694 2.2826 2.37581 2.537 2.67447 2.72463 2.79016 2.9666 2.9045 3.0858 3.06082 2.83386 2.22089 1.07459 0.102064 0.00049308 2.28644e-08 3.96e-13 2.2094e-20 2.1876e-20 -4.37521e-20 0 2.1876e-20 -2.1876e-20 4.37521e-20 -2.1876e-20 -2.1876e-20 0 0 6.56281e-20 -6.56281e-20 2.1876e-20 -2.1876e-20 0 4.37521e-20 -4.37521e-20 0 4.37521e-20 -4.37521e-20 4.37521e-20 -4.37521e-20 0 0 0 0.427962 0.791909 1.16105 1.26652 1.72959 1.67867 1.89806 2.05381 2.15748 2.31542 2.4948 2.62587 2.6327 2.80315 2.84149 2.90569 3.01432 2.94674 2.6262 1.92167 0.671561 0.0358905 8.66782e-05 3.50311e-09 8.55004e-14 4.37521e-20 -4.37521e-20 4.37521e-20 -4.37521e-20 0 4.37521e-20 -4.37521e-20 4.37521e-20 -4.37521e-20 0 4.37521e-20 -8.75041e-20 8.75041e-20 -4.37521e-20 0 4.37521e-20 -4.37521e-20 4.37521e-20 0 -4.37521e-20 0 4.37521e-20 -4.37521e-20 0 0 0 0.393806 0.774688 1.06636 1.33193 1.43746 1.749 1.90683 1.92074 2.09206 2.30067 2.43631 2.49247 2.64067 2.70649 2.76328 2.8906 2.91074 2.78283 2.35356 1.4862 0.319818 0.00878462 9.07779e-06 4.42846e-10 1.46436e-14 -4.37521e-20 0 0 4.37521e-20 -4.37521e-20 4.37521e-20 -4.37521e-20 0 4.37521e-20 -4.37521e-20 4.37521e-20 -8.75041e-20 8.75041e-20 -4.37521e-20 4.37521e-20 -4.37521e-20 0 4.37521e-20 0 -8.75041e-20 8.75041e-20 -8.75041e-20 8.75041e-20 0 0 0 0.37021 0.707804 1.00343 1.23814 1.48596 1.56939 1.8418 1.99894 2.12099 2.22076 2.32182 2.47432 2.5616 2.62509 2.73789 2.83295 2.78893 2.54454 2.00674 0.924617 0.106774 0.00136385 5.23045e-07 3.82196e-11 1.82796e-15 -4.37521e-20 0 0 4.37521e-20 -4.37521e-20 0 4.37521e-20 -4.37521e-20 0 4.37521e-20 -8.75041e-20 1.31048e-19 -1.31048e-19 4.37521e-20 8.75041e-20 -8.75041e-20 0 -4.37521e-20 8.75041e-20 -4.37521e-20 8.75041e-20 -1.75008e-19 1.75008e-19 -8.75041e-20 0 0 0.340844 0.641311 0.944243 1.20013 1.3919 1.58505 1.67046 2.0598 2.033 2.17585 2.33849 2.45847 2.50035 2.56395 2.73523 2.72248 2.61586 2.24416 1.4964 0.41107 0.0229782 0.000116827 1.8949e-08 2.01565e-12 1.28414e-16 4.37521e-20 -4.37521e-20 0 0 4.37521e-20 -4.37521e-20 0 4.37521e-20 -4.37521e-20 0 0 1.31048e-19 -1.31048e-19 4.37521e-20 -4.37521e-20 0 0 0 0 8.75041e-20 -8.75041e-20 0 0 0 0 0 0.312439 0.612674 0.898096 1.14641 1.33309 1.51521 1.79463 1.84155 2.05875 2.13946 2.27951 2.38348 2.45846 2.60107 2.63885 2.62354 2.34198 1.84992 0.838622 0.117189 0.00287509 4.5545e-06 7.35012e-10 8.52465e-14 6.46264e-22 0 8.75041e-20 -1.31256e-19 8.75041e-20 -4.37521e-20 4.37521e-20 -8.75041e-20 8.75041e-20 4.37521e-20 -1.75008e-19 1.75008e-19 -8.75041e-20 0 8.75041e-20 -1.75008e-19 8.75041e-20 8.75041e-20 -8.75041e-20 0 0 0 8.75041e-20 -1.75008e-19 1.75008e-19 0 0 0.303376 0.586514 0.847947 1.074 1.29672 1.53571 1.69544 1.85145 1.98768 2.09124 2.27991 2.30677 2.48326 2.56172 2.55809 2.37073 2.0287 1.22055 0.303895 0.0197092 0.000167714 7.7905e-08 2.11416e-11 3.56859e-15 0 0 8.75041e-20 -8.75041e-20 0 0 0 8.72958e-20 -8.72958e-20 0 0 0 0 0 0 0 0 8.75041e-20 -8.75041e-20 0 0 0 8.75041e-20 -8.75041e-20 0 0 0 0.279332 0.526807 0.770459 1.02776 1.29139 1.46447 1.65045 1.77205 1.99634 2.03884 2.10422 2.36495 2.43776 2.45633 2.37578 2.07497 1.47968 0.529701 0.0657379 0.00156664 3.81038e-06 1.22884e-09 3.53772e-13 7.18961e-17 0 0 -1.31256e-19 1.31256e-19 -4.37521e-20 8.75041e-20 -8.75041e-20 -2.08343e-22 2.08343e-22 0 8.75041e-20 -8.75041e-20 -8.75041e-20 1.75008e-19 -8.75041e-20 8.75041e-20 -8.75041e-20 -8.75041e-20 1.75008e-19 -8.75041e-20 8.75041e-20 -8.75041e-20 -8.75041e-20 2.62096e-19 -2.62096e-19 0 0 0.248228 0.492329 0.750885 1.00631 1.20687 1.40526 1.57497 1.79078 1.82342 2.00494 2.14472 2.21143 2.3437 2.29336 2.03397 1.6343 0.710268 0.141583 0.00633426 5.39031e-05 2.9109e-08 1.86235e-11 6.60877e-15 0 0 8.75041e-20 -1.75008e-19 1.75008e-19 -8.75041e-20 0 8.75041e-20 -1.75008e-19 1.75008e-19 -8.75041e-20 0 8.75041e-20 -1.75008e-19 1.75008e-19 -8.75041e-20 0 8.75041e-20 -1.75008e-19 1.75008e-19 0 -8.75041e-20 0 -4.16686e-22 0 4.16686e-22 0 0 0.239963 0.482817 0.721804 0.944401 1.1656 1.37056 1.54972 1.63987 1.8517 1.90933 2.098 2.14138 2.08329 1.96804 1.63892 0.801085 0.225746 0.0145708 0.000319427 3.88058e-07 3.38942e-10 1.46884e-13 7.69375e-17 0 0 0 8.75041e-20 -8.75041e-20 0 0 0 8.75041e-20 -8.75041e-20 0 0 0 0 0 0 0 8.75041e-20 0 -8.75041e-20 0 0 0 -4.16686e-22 -8.70875e-20 1.75008e-19 0 0 0.23463 0.459541 0.685665 0.924559 1.13828 1.30771 1.45029 1.65463 1.75653 1.94212 1.88875 1.95652 1.78442 1.49842 0.81669 0.268977 0.0232798 0.000990027 2.16706e-06 2.87068e-09 1.80505e-12 1.78168e-15 4.35362e-20 8.75041e-20 0 -1.75008e-19 1.75008e-19 -1.75008e-19 1.75008e-19 -8.75041e-20 0 8.75041e-20 -1.75008e-19 1.75008e-19 -8.75041e-20 0 0 0 0 8.75041e-20 -1.75008e-19 1.75008e-19 -8.75041e-20 0 -8.75041e-20 1.75008e-19 -1.75008e-19 1.75008e-19 0 0 0 0.226836 0.452067 0.668704 0.864328 1.04885 1.24086 1.43635 1.57487 1.71111 1.71989 1.76824 1.54276 1.35565 0.698217 0.255622 0.0280346 0.00158896 6.15289e-06 1.45238e-08 1.05829e-11 1.6053e-14 1.72273e-21 8.75041e-20 -8.75041e-20 0 0 8.75041e-20 -8.75041e-20 0 0 0 0 8.70875e-20 -8.70875e-20 0 -8.75041e-20 2.62096e-19 -8.70875e-20 -1.75008e-19 1.75008e-19 -1.75008e-19 0 1.75008e-19 0 -1.75008e-19 1.75008e-19 0 -1.75008e-19 1.75008e-19 0 0 0.215769 0.429383 0.636194 0.835502 1.02856 1.20718 1.3486 1.47738 1.51346 1.51479 1.34518 1.10808 0.528345 0.204226 0.0219643 0.00158104 9.78225e-06 3.17545e-08 3.17493e-11 7.73552e-14 -1.04249e-17 1.75008e-19 -8.75041e-20 0 0 8.75041e-20 -1.75008e-19 1.75008e-19 -8.75041e-20 0 0 0 8.70875e-20 -1.74592e-19 1.75008e-19 -1.75008e-19 2.62096e-19 -2.62096e-19 8.75041e-20 8.75041e-20 0 -1.75008e-19 0 1.75008e-19 0 0 -1.75008e-19 1.74592e-19 -1.74592e-19 0 0 0.209204 0.412622 0.606936 0.786589 0.953479 1.10094 1.21327 1.25834 1.24653 1.08588 0.797714 0.367056 0.122866 0.0131191 0.000981478 6.11825e-06 3.17131e-08 5.2334e-11 1.62374e-13 1.02511e-16 1.74592e-19 -8.70875e-20 0 0 0 8.75041e-20 -1.75008e-19 8.75041e-20 0 8.70875e-20 -8.70875e-20 8.75041e-20 -1.75008e-19 8.75041e-20 8.75041e-20 0 -1.75008e-19 0 3.496e-19 -3.496e-19 0 1.75008e-19 -4.16686e-22 -1.74592e-19 1.75008e-19 -1.75008e-19 1.74592e-19 0 -1.74592e-19 0 0 0.188635 0.370528 0.540275 0.693899 0.823 0.918456 0.962868 0.926862 0.754453 0.488344 0.206137 0.0552396 0.00576696 0.000315729 2.14371e-06 1.44815e-08 3.15792e-11 1.6221e-13 1.84761e-16 -1.73732e-19 1.74592e-19 -8.70875e-20 0 0 0 0 8.75041e-20 -1.75008e-19 8.75041e-20 8.70875e-20 -8.70875e-20 0 0 8.75041e-20 -1.75008e-19 1.75008e-19 -4.16686e-22 4.16686e-22 -4.16686e-22 -1.74592e-19 0 1.75008e-19 -4.16686e-22 -1.74592e-19 1.75008e-19 -1.75008e-19 1.74592e-19 -1.74592e-19 1.75008e-19 0 0 0.154675 0.300218 0.429313 0.535097 0.605788 0.616976 0.548969 0.405474 0.228839 0.0816765 0.0167162 0.00146217 5.31761e-05 3.83005e-07 2.85321e-09 1.04605e-11 7.71291e-14 1.02684e-16 1.27617e-21 0 0 8.75041e-20 -1.75008e-19 1.75008e-19 0 -1.75008e-19 1.75008e-19 -8.75041e-20 8.75041e-20 -2.62512e-19 2.62512e-19 -8.75041e-20 8.75041e-20 0 -1.75008e-19 0 1.74592e-19 4.16686e-22 -1.75008e-19 1.75008e-19 -1.75008e-19 1.75008e-19 -1.75008e-19 1.75008e-19 0 -1.75008e-19 0 1.75008e-19 0 0 0 0.0994772 0.186583 0.249063 0.277568 0.26845 0.222749 0.144527 0.0643523 0.0173075 0.0025387 0.000160143 3.75498e-06 2.84714e-08 3.35651e-10 1.77649e-12 1.60735e-14 -1.02498e-17 -4.16686e-22 4.16686e-22 0 0 0 8.70875e-20 -8.70875e-20 0 0 8.75041e-20 -8.75041e-20 8.75041e-20 -1.75008e-19 1.75008e-19 -1.75008e-19 1.75008e-19 0 -1.75008e-19 1.74592e-19 -1.74592e-19 0 1.75008e-19 -1.75008e-19 1.74592e-19 4.16686e-22 -1.75008e-19 1.75008e-19 -1.75008e-19 1.74592e-19 4.16686e-22 -1.75008e-19 1.75008e-19 0 0 0.0326942 0.0579786 0.0694863 0.0633293 0.0427816 0.0200671 0.00617549 0.00113321 0.00010778 4.40195e-06 7.55248e-08 1.19257e-09 1.83462e-11 1.43474e-13 1.78177e-15 1.72273e-21 0 8.70875e-20 -8.70875e-20 8.75041e-20 -1.75008e-19 8.75041e-20 8.70875e-20 -8.70875e-20 0 8.75041e-20 -8.75041e-20 -8.75041e-20 1.75008e-19 0 -1.75008e-19 1.74592e-19 -1.74592e-19 1.75008e-19 -1.75008e-19 3.496e-19 -3.496e-19 0 1.75008e-19 -1.75008e-19 3.496e-19 -3.496e-19 0 1.75008e-19 -1.75008e-19 3.496e-19 -3.496e-19 1.74592e-19 -1.74592e-19 0 0 0.00179942 0.00249197 0.00196092 0.00100317 0.000335285 6.94241e-05 8.06591e-06 4.8662e-07 1.75242e-08 6.9358e-10 2.0454e-11 3.40852e-13 6.45498e-15 7.68504e-17 4.35362e-20 8.75041e-20 -8.75041e-20 0 0 0 8.70875e-20 -8.70875e-20 0 0 0 0 8.70875e-20 -8.70875e-20 -8.75041e-20 1.75008e-19 -1.75008e-19 3.496e-19 -3.496e-19 0 1.75008e-19 -1.75008e-19 1.74592e-19 4.16686e-22 -1.75008e-19 1.75008e-19 -1.75008e-19 1.74592e-19 4.16686e-22 -1.75008e-19 1.75008e-19 -1.75008e-19 1.74592e-19 0 -1.74592e-19 0 0 4.19059e-07 4.63867e-07 2.55154e-07 8.12581e-08 1.66716e-08 2.6901e-09 3.70297e-10 3.43549e-11 1.85241e-12 7.82529e-14 3.42498e-15 7.18086e-17 0 0 8.75041e-20 -8.75041e-20 0 0 0 0 8.70875e-20 -8.70875e-20 0 0 0 0 -4.16686e-22 8.79208e-20 -1.75008e-19 1.75008e-19 0 -1.75008e-19 1.75008e-19 -1.75008e-19 1.75008e-19 -1.75008e-19 1.74592e-19 4.16686e-22 -1.75008e-19 1.75008e-19 -1.75008e-19 1.74592e-19 4.16686e-22 -1.75008e-19 1.75008e-19 -1.75008e-19 1.74592e-19 -1.74592e-19 1.75008e-19 0 0 1.25729e-12 1.83085e-12 1.49576e-12 7.61801e-13 2.50887e-13 5.96122e-14 1.12446e-14 1.57105e-15 1.28413e-16 6.4832e-22 0 8.75041e-20 -1.75008e-19 1.75008e-19 0 -1.75008e-19 1.75008e-19 -1.75008e-19 1.75008e-19 0 -1.75008e-19 1.75008e-19 -1.75008e-19 1.75008e-19 0 0 -3.50017e-19 3.50017e-19 0 0 0 -3.50017e-19 3.50017e-19 0 0 0 -3.50017e-19 3.50017e-19 0 0 0 -3.50017e-19 3.50017e-19 0 0 0 -3.50017e-19 5.24608e-19 -3.496e-19 0 0 4.86142e-18 7.68235e-18 6.3842e-18 6.43775e-18 -2.16581e-20 4.37521e-20 -4.37521e-20 4.37521e-20 -4.37521e-20 0 0 8.75041e-20 -8.75041e-20 0 0 0 8.75041e-20 -8.75041e-20 0 0 0 8.75041e-20 -1.75008e-19 1.75008e-19 0 -1.75008e-19 1.74592e-19 -1.74592e-19 1.75008e-19 0 -1.75008e-19 1.74592e-19 -1.74592e-19 1.75008e-19 0 -1.75008e-19 1.74592e-19 -1.74592e-19 1.75008e-19 0 -1.75008e-19 1.74592e-19 -1.74592e-19 1.75008e-19 0 -1.75008e-19 0 1.74592e-19 0 0 0 0 1.64591e-20 -3.25015e-20 2.1876e-20 2.1876e-20 -4.37521e-20 0 0 4.37521e-20 0 0 -1.31256e-19 1.75008e-19 -8.75041e-20 0 8.75041e-20 -1.75008e-19 1.75008e-19 -8.75041e-20 0 8.75041e-20 -8.75041e-20 8.70875e-20 -1.74592e-19 0 1.74592e-19 0 0 -1.74592e-19 0 1.74592e-19 0 0 -1.74592e-19 0 1.74592e-19 0 0 -1.74592e-19 0 1.74592e-19 0 0 4.16686e-22 -1.75008e-19 0 3.496e-19 -5.24608e-19 3.496e-19 0 0 0 1.12505e-20 -2.1876e-20 0 4.37521e-20 -4.37521e-20 2.08343e-22 -2.08343e-22 2.08343e-22 4.35437e-20 0 -1.31256e-19 1.75008e-19 -8.72958e-20 0 8.72958e-20 -1.75008e-19 8.77125e-20 0 8.72958e-20 -8.72958e-20 -8.75041e-20 2.61887e-19 -2.62096e-19 0 1.748e-19 0 0 -1.748e-19 0 1.748e-19 -1.748e-19 3.496e-19 -3.496e-19 0 1.748e-19 -1.748e-19 1.748e-19 -1.748e-19 1.748e-19 0 -1.748e-19 1.748e-19 2.08343e-22 -3.49808e-19 5.24608e-19 -1.75008e-19 -3.496e-19 3.496e-19 0 0 0 -1.06255e-20 2.1876e-20 -2.1876e-20 0 4.37521e-20 -4.35437e-20 4.35437e-20 -8.72958e-20 8.72958e-20 -8.75041e-20 1.31256e-19 -8.75041e-20 2.08343e-22 0 -2.08343e-22 8.75041e-20 -1.748e-19 8.75041e-20 8.72958e-20 -8.72958e-20 0 -8.77125e-20 1.75008e-19 0 -1.748e-19 1.74592e-19 -1.74592e-19 1.748e-19 0 -1.748e-19 1.748e-19 -1.75008e-19 1.75008e-19 0 -1.748e-19 -2.08343e-22 2.08343e-22 1.748e-19 -2.08343e-22 0 2.08343e-22 -1.748e-19 -2.08343e-22 1.748e-19 0 -3.496e-19 3.496e-19 0 0 0 0 -5.41692e-21 1.12505e-20 0 -2.1876e-20 0 4.37521e-20 -4.37521e-20 4.37521e-20 -4.37521e-20 0 8.75041e-20 -1.75008e-19 1.75008e-19 -8.75041e-20 0 0 8.70875e-20 -8.70875e-20 -8.75041e-20 1.75008e-19 0 -1.75008e-19 1.75008e-19 0 0 -3.50017e-19 3.50017e-19 0 0 -1.75008e-19 1.75008e-19 -1.75008e-19 1.75008e-19 -1.75008e-19 1.75008e-19 -4.16686e-22 4.16686e-22 -1.75008e-19 1.74592e-19 -3.49392e-19 5.244e-19 -3.496e-19 1.74592e-19 0 -3.496e-19 3.496e-19 3.496e-19 -6.992e-19 0 0 0 -5.41692e-21 1.12505e-20 0 -2.1876e-20 4.37521e-20 -4.37521e-20 0 4.37521e-20 -4.37521e-20 0 8.75041e-20 -8.75041e-20 0 0 0 0 8.70875e-20 -8.70875e-20 -8.75041e-20 1.75008e-19 -1.75008e-19 1.75008e-19 0 0 -1.75008e-19 1.74592e-19 -1.74592e-19 1.75008e-19 -1.75008e-19 1.74592e-19 4.16686e-22 -1.75008e-19 1.75008e-19 -1.75008e-19 1.75008e-19 -4.16686e-22 4.16686e-22 -1.75008e-19 1.74592e-19 -3.49392e-19 3.49392e-19 0 0 -3.496e-19 3.496e-19 0 0 0 0 0 0 6.2503e-22 0 -2.1876e-20 4.37521e-20 -4.37521e-20 4.37521e-20 -4.37521e-20 0 0 8.70875e-20 -1.74592e-19 1.75008e-19 -8.75041e-20 8.75041e-20 -1.75008e-19 1.75008e-19 -8.75041e-20 0 8.75041e-20 -1.75008e-19 1.74592e-19 4.16686e-22 -1.75008e-19 0 1.74592e-19 0 -1.74592e-19 1.75008e-19 -1.75008e-19 3.496e-19 -3.496e-19 0 1.75008e-19 0 -1.75008e-19 1.74592e-19 -1.74592e-19 1.75008e-19 -3.50017e-19 6.992e-19 -6.992e-19 3.496e-19 0 0 0 0 -3.496e-19 3.496e-19 0 0 0 1.64591e-20 -3.25015e-20 2.1876e-20 2.1876e-20 -4.37521e-20 0 4.37521e-20 -4.37521e-20 0 8.70875e-20 -1.74592e-19 1.75008e-19 -8.75041e-20 0 8.70875e-20 -8.70875e-20 0 0 8.75041e-20 -1.75008e-19 1.74592e-19 4.16686e-22 -1.75008e-19 0 1.74592e-19 0 4.16686e-22 -1.75008e-19 1.75008e-19 -1.75008e-19 0 3.496e-19 -3.496e-19 1.75008e-19 -3.50017e-19 5.24608e-19 -1.75008e-19 -1.74592e-19 1.74592e-19 0 -3.496e-19 3.496e-19 0 0 0 0 -3.496e-19 3.496e-19 0 0 0 -5.41692e-21 1.12505e-20 0 -2.1876e-20 4.37521e-20 -4.37521e-20 0 4.37521e-20 4.37521e-20 -1.75008e-19 1.75008e-19 -8.75041e-20 0 0 8.70875e-20 -1.74592e-19 8.75041e-20 8.75041e-20 0 0 -1.75008e-19 0 1.75008e-19 0 -1.75008e-19 1.74592e-19 4.16686e-22 -1.75008e-19 1.75008e-19 -1.75008e-19 1.75008e-19 -4.16686e-22 -1.74592e-19 0 1.74592e-19 -1.74592e-19 1.74592e-19 0 0 0 0 0 -3.496e-19 3.496e-19 0 -3.496e-19 3.496e-19 0 0 0 0 -1.06255e-20 2.1876e-20 -2.1876e-20 0 0 4.37521e-20 -4.37521e-20 2.08343e-22 0 -2.08343e-22 8.75041e-20 -1.748e-19 1.748e-19 -8.72958e-20 -2.08343e-22 0 8.75041e-20 -1.748e-19 1.748e-19 -1.748e-19 1.748e-19 -1.75008e-19 1.75008e-19 0 0 -3.49808e-19 3.49808e-19 0 -1.748e-19 1.748e-19 0 -1.75008e-19 2.08343e-22 1.74592e-19 0 0 -3.496e-19 3.496e-19 0 0 0 -3.496e-19 3.496e-19 0 0 -3.496e-19 6.992e-19 -6.992e-19 0 0 0 -1.06255e-20 2.1876e-20 -2.1876e-20 0 4.37521e-20 -4.37521e-20 0 2.08343e-22 0 -2.08343e-22 8.75041e-20 -8.72958e-20 -2.08343e-22 2.08343e-22 -8.77125e-20 1.75008e-19 0 -1.748e-19 -2.08343e-22 1.748e-19 2.08343e-22 -1.75008e-19 1.75008e-19 0 -1.75008e-19 1.748e-19 -1.748e-19 1.75008e-19 -1.748e-19 1.748e-19 -1.75008e-19 0 1.748e-19 0 0 0 0 -3.496e-19 3.496e-19 -3.496e-19 3.496e-19 0 0 0 -3.49392e-19 3.49392e-19 0 0 0 0 0 1.64591e-20 -3.27099e-20 6.58365e-20 -6.56281e-20 0 0 4.33354e-20 4.41688e-20 -8.75041e-20 0 -8.75041e-20 1.75008e-19 -1.75008e-19 1.75008e-19 -8.79208e-20 8.79208e-20 -1.75008e-19 3.496e-19 -5.24608e-19 5.24608e-19 -3.496e-19 1.74592e-19 -1.74592e-19 0 1.74592e-19 0 -1.74592e-19 0 3.496e-19 -3.496e-19 1.74592e-19 -1.74592e-19 1.74592e-19 0 0 -3.496e-19 3.496e-19 3.496e-19 -6.992e-19 0 3.496e-19 3.496e-19 -6.992e-19 3.496e-19 -3.49392e-19 6.98991e-19 -6.992e-19 3.496e-19 0 0 0 1.64591e-20 -3.27099e-20 6.58365e-20 -6.56281e-20 0 0 4.33354e-20 4.41688e-20 -1.75008e-19 1.75008e-19 -1.75008e-19 1.75008e-19 -1.75008e-19 1.75008e-19 8.70875e-20 -2.62096e-19 0 3.496e-19 -3.496e-19 0 0 3.496e-19 -3.496e-19 0 1.74592e-19 0 -1.74592e-19 0 3.496e-19 -3.496e-19 1.74592e-19 1.75008e-19 -5.24608e-19 3.496e-19 0 -3.496e-19 3.496e-19 3.496e-19 -6.992e-19 3.496e-19 0 -3.49392e-19 3.49392e-19 -3.496e-19 6.992e-19 -3.496e-19 -3.496e-19 3.496e-19 0 0 0 -5.41692e-21 1.12505e-20 0 -2.1876e-20 4.37521e-20 -4.37521e-20 -4.37521e-20 1.31256e-19 -8.75041e-20 0 8.75041e-20 -8.75041e-20 0 0 0 -8.75041e-20 3.496e-19 -3.496e-19 1.75008e-19 -1.75008e-19 1.75008e-19 -1.75008e-19 1.75008e-19 0 -1.75008e-19 1.74592e-19 -1.74592e-19 1.75008e-19 -1.75008e-19 1.75008e-19 -1.75008e-19 1.74592e-19 0 -3.496e-19 3.496e-19 3.496e-19 -3.496e-19 -3.496e-19 3.496e-19 0 0 -3.49392e-19 3.49392e-19 0 0 -3.496e-19 3.496e-19 0 0 0 0 -5.41692e-21 1.12505e-20 0 -2.1876e-20 0 4.37521e-20 0 -4.37521e-20 0 0 8.75041e-20 -1.75008e-19 1.75008e-19 -8.75041e-20 0 8.75041e-20 -4.16686e-22 -1.74592e-19 1.75008e-19 -1.75008e-19 1.75008e-19 -1.75008e-19 1.75008e-19 0 0 -3.50017e-19 5.24608e-19 -3.496e-19 1.74592e-19 -1.74592e-19 0 1.74592e-19 0 0 -3.496e-19 6.992e-19 -6.992e-19 3.496e-19 0 0 -3.496e-19 3.496e-19 0 0 0 -3.496e-19 6.992e-19 -6.992e-19 0 0 0 -1.06255e-20 2.1876e-20 -2.1876e-20 0 4.37521e-20 -4.35437e-20 8.72958e-20 -1.748e-19 8.72958e-20 2.08343e-22 8.72958e-20 -8.75041e-20 8.75041e-20 -1.748e-19 1.748e-19 0 -3.49808e-19 3.49808e-19 -1.748e-19 1.74592e-19 2.08343e-22 -1.748e-19 1.748e-19 0 -1.748e-19 1.74592e-19 0 0 -3.49392e-19 3.49392e-19 0 0 0 0 -3.496e-19 0 3.496e-19 0 0 -3.49392e-19 3.49392e-19 0 0 0 -3.49392e-19 3.49392e-19 0 0 0 0 0 1.12505e-20 -2.1876e-20 0 4.37521e-20 -4.37521e-20 2.08343e-22 -2.08343e-22 2.08343e-22 8.72958e-20 -8.72958e-20 -8.77125e-20 1.75008e-19 0 -1.748e-19 -2.08343e-22 1.75008e-19 -1.748e-19 1.748e-19 -1.748e-19 3.496e-19 -3.49808e-19 1.748e-19 -1.748e-19 0 1.748e-19 0 -1.74592e-19 3.496e-19 -5.244e-19 3.49392e-19 0 -3.496e-19 6.992e-19 -6.992e-19 3.496e-19 -3.496e-19 6.992e-19 -6.992e-19 3.496e-19 -3.49392e-19 3.49392e-19 3.496e-19 -6.992e-19 3.496e-19 -3.49392e-19 6.98991e-19 -6.992e-19 3.496e-19 0 0 0 6.2503e-22 0 -2.1876e-20 4.37521e-20 -4.37521e-20 4.37521e-20 -1.31256e-19 1.75008e-19 -8.75041e-20 8.75041e-20 -1.75008e-19 1.75008e-19 -8.75041e-20 8.75041e-20 -1.75008e-19 0 3.496e-19 -3.496e-19 1.75008e-19 -1.75008e-19 0 3.496e-19 -3.496e-19 0 1.74592e-19 0 -1.74592e-19 1.75008e-19 -4.16686e-22 0 -3.496e-19 3.496e-19 