<?xml version="1.0"?>
<VTKFile type="PolyData">
	<PolyData>
		<Piece NumberOfPoints="2601" NumberOfPolys="2500">
			<Points>
				<DataArray type="Float32" NumberOfComponents="3" format="ascii">
 0 0 0 0.450032 0 0 0.306797 0 0 0.413874 0 0 0.414089 0 0 0.442744 0 0 0.463904 0 0 0.482924 0 0 0.501568 0 0 0.515683 0 0 0.530948 0 0 0.542647 0 0 0.555965 0 0 0.566458 0 0 0.578307 0 0 0.586746 0 0 0.596973 0 0 0.604517 0 0 0.613177 0 0 0.620061 0 0 0.627325 0 0 0.633644 0 0 0.64032 0 0 0.646362 0 0 0.651814 0 0 0.657102 0 0 0.662196 0 0 0.667 0 0 0.671689 0 0 0.676088 0 0 0.68023 0 0 0.684161 0 0 0.6879 0 0 0.691971 0 0 0.69739 0 0 0.706082 0 0 0.720647 0 0 0.740005 0 0 0.76 0 0 0.78 0 0 0.8 0 0 0.82 0 0 0.84 0 0 0.86 0 0 0.88 0 0 0.9 0 0 0.92 0 0 0.94 0 0 0.96 0 0 0.98 0 0 1 0 0 0 0.450032 0 0.169355 0.169355 0 0.393177 0.186229 0 0.342487 0.167001 0 0.410849 0.103778 0 0.434654 0.0931665 0 0.458989 0.0826733 0 0.480146 0.073928 0 0.496768 0.0685447 0 0.514225 0.0628168 0 0.527491 0.0580909 0 0.541964 0.0534439 0 0.553396 0.049685 0 0.566261 0.0467228 0 0.575758 0.0442189 0 0.586839 0.0420956 0 0.594824 0.0399173 0 0.604431 0.0378927 0 0.611669 0.0359595 0 0.619688 0.0342033 0 0.626333 0.0326729 0 0.633266 0.0313597 0 0.639655 0.0302005 0 0.645773 0.0290489 0 0.651293 0.027943 0 0.656655 0.0269159 0 0.661754 0.0259663 0 0.666603 0.0250953 0 0.671306 0.0243047 0 0.675726 0.0235747 0 0.679883 0.0228893 0 0.683838 0.0222379 0 0.687598 0.0216164 0 0.691701 0.0210408 0 0.69717 0.020545 0 0.705943 0.0201879 0 0.720616 0.0200291 0 0.740004 0.0200004 0 0.76 0.02 0 0.78 0.02 0 0.8 0.02 0 0.82 0.02 0 0.84 0.02 0 0.86 0.02 0 0.88 0.02 0 0.9 0.02 0 0.92 0.02 0 0.94 0.02 0 0.96 0.02 0 0.98 0.02 0 1 0.02 0 0 0.306797 0 0.186229 0.393177 0 0.197601 0.197601 0 0.360877 0.251255 0 0.370051 0.20735 0 0.411003 0.175918 0 0.441079 0.156979 0 0.464571 0.146179 0 0.486377 0.13303 0 0.503389 0.123457 0 0.521088 0.113451 0 0.534563 0.105564 0 0.549162 0.098488 0 0.560469 0.0926759 0 0.572854 0.0880161 0 0.581828 0.0835235 0 0.59254 0.0794288 0 0.600569 0.075336 0 0.609673 0.071523 0 0.616813 0.0680607 0 0.624496 0.0650141 0 0.631296 0.0624173 0 0.638013 0.0600473 0 0.64396 0.0578196 0 0.649883 0.0556975 0 0.655253 0.0536885 0 0.660473 0.05181 0 0.665399 0.0500868 0 0.670165 0.0485145 0 0.674645 0.0470634 0 0.678852 0.0456986 0 0.682874 0.0444011 0 0.6867 0.0431635 0 0.690896 0.0420218 0 0.696516 0.041045 0 0.705539 0.0403508 0 0.72053 0.0400515 0 0.740003 0.0400006 0 0.76 0.04 0 0.78 0.04 0 0.8 0.04 0 0.82 0.04 0 0.84 0.04 0 0.86 0.04 0 0.88 0.04 0 0.9 0.04 0 0.92 0.04 0 0.94 0.04 0 0.96 0.04 0 0.98 0.04 0 1 0.04 0 0 0.413874 0 0.167001 0.342487 0 0.251255 0.360877 0 0.22507 0.22507 0 0.325199 0.290077 0 0.381932 0.237076 0 0.414567 0.225403 0 0.444717 0.204198 0 0.468451 0.192353 0 0.491085 0.176932 0 0.508443 0.165607 0 0.526208 0.153913 0 0.539905 0.144977 0 0.554325 0.137144 0 0.565085 0.130151 0 0.577122 0.123948 0 0.586161 0.117658 0 0.596758 0.111805 0 0.604806 0.106221 0 0.613548 0.101174 0 0.620858 0.0968454 0 0.628446 0.0930206 0 0.634943 0.0895629 0 0.641333 0.0862732 0 0.647416 0.0831735 0 0.652998 0.08019 0 0.658343 0.077426 0 0.663419 0.0748755 0 0.668265 0.072545 0 0.672866 0.070388 0 0.677164 0.0683544 0 0.681291 0.0664196 0 0.685226 0.0645773 0 0.68958 0.0628885 0 0.695458 0.0614598 0 0.7049 0.0604685 0 0.720409 0.0600623 0 0.740002 0.0600006 0 0.76 0.06 0 0.78 0.06 0 0.8 0.06 0 0.82 0.06 0 0.84 0.06 0 0.86 0.06 0 0.88 0.06 0 0.9 0.06 0 0.92 0.06 0 0.94 0.06 0 0.96 0.06 0 0.98 0.06 0 1 0.06 0 0 0.414089 0 0.103778 0.410849 0 0.20735 0.370051 0 0.290077 0.325199 0 0.278024 0.278024 0 0.342192 0.314811 0 0.391232 0.263018 0 0.422406 0.260156 0 0.450672 0.238505 0 0.473588 0.227144 0 0.495601 0.211221 0 0.512371 0.200291 0 0.529721 0.188727 0 0.542985 0.179432 0 0.557081 0.170724 0 0.567865 0.162264 0 0.580121 0.154409 0 0.589467 0.146773 0 0.599853 0.139689 0 0.608021 0.133419 0 0.616688 0.127871 0 0.623886 0.123038 0 0.631022 0.118504 0 0.637621 0.114305 0 0.643965 0.110202 0 0.649857 0.106322 0 0.655421 0.102698 0 0.660677 0.0993751 0 0.665646 0.0963173 0 0.670403 0.0934792 0 0.674852 0.0907892 0 0.67911 0.0882291 0 0.683202 0.0858004 0 0.687785 0.0835948 0 0.694036 0.0817576 0 0.704081 0.0805283 0 0.720279 0.0800602 0 0.740001 0.0800004 0 0.76 0.08 0 0.78 0.08 0 0.8 0.08 0 0.82 0.08 0 0.84 0.08 0 0.86 0.08 0 0.88 0.08 0 0.9 0.08 0 0.92 0.08 0 0.94 0.08 0 0.96 0.08 0 0.98 0.08 0 1 0.08 0 0 0.442744 0 0.0931665 0.434654 0 0.175918 0.411003 0 0.237076 0.381932 0 0.314811 0.342192 0 0.325532 0.325532 0 0.366678 0.327119 0 0.400306 0.288262 0 0.430071 0.287955 0 0.456453 0.26626 0 0.477662 0.256486 0 0.498842 0.24076 0 0.515091 0.230418 0 0.532113 0.218583 0 0.545338 0.208344 0 0.559556 0.198443 0 0.570655 0.188897 0 0.582879 0.180003 0 0.5923 0.171933 0 0.602434 0.164595 0 0.6105 0.158202 0 0.618657 0.152226 0 0.625959 0.146851 0 0.633132 0.14163 0 0.639559 0.13665 0 0.645938 0.131936 0 0.651697 0.127543 0 0.657233 0.123503 0 0.662344 0.119762 0 0.667288 0.11626 0 0.671944 0.112936 0 0.67636 0.109768 0 0.680659 0.106785 0 0.685549 0.104105 0 0.692307 0.101917 0 0.703158 0.100527 0 0.720164 0.100048 0 0.74 0.1 0 0.76 0.1 0 0.78 0.1 0 0.8 0.1 0 0.82 0.1 0 0.84 0.1 0 0.86 0.1 0 0.88 0.1 0 0.9 0.1 0 0.92 0.1 0 0.94 0.1 0 0.96 0.1 0 0.98 0.1 0 1 0.1 0 0 0.463904 0 0.0826733 0.458989 0 0.156979 0.441079 0 0.225403 0.414567 0 0.263018 0.391232 0 0.327119 0.366678 0 0.349889 0.349889 0 0.383081 0.342847 0 0.409775 0.310955 0 0.436513 0.312055 0 0.461655 0.289381 0 0.481671 0.28152 0 0.502321 0.265397 0 0.518131 0.255116 0 0.534977 0.242708 0 0.548201 0.231954 0 0.562342 0.221459 0 0.573359 0.211843 0 0.585224 0.202871 0 0.59444 0.194959 0 0.604001 0.187419 0 0.612005 0.180731 0 0.62035 0.174275 0 0.627575 0.168204 0 0.634625 0.162372 0 0.641172 0.156958 0 0.647306 0.151871 0 0.65308 0.147189 0 0.658442 0.142791 0 0.663564 0.138653 0 0.668471 0.134722 0 0.673072 0.130983 0 0.677632 0.127491 0 0.682917 0.124393 0 0.690339 0.121927 0 0.702225 0.120471 0 0.720082 0.120031 0 0.74 0.12 0 0.76 0.12 0 0.78 0.12 0 0.8 0.12 0 0.82 0.12 0 0.84 0.12 0 0.86 0.12 0 0.88 0.12 0 0.9 0.12 0 0.92 0.12 0 0.94 0.12 0 0.96 0.12 0 0.98 0.12 0 1 0.12 0 0 0.482924 0 0.073928 0.480146 0 0.146179 0.464571 0 0.204198 0.444717 0 0.260156 0.422406 0 0.288262 0.400306 0 0.342847 0.383081 0 0.368765 0.368765 0 0.396583 0.358691 0 0.419565 0.331059 0 0.443117 0.332863 0 0.467041 0.308662 0 0.485789 0.302559 0 0.505823 0.285808 0 0.521242 0.27573 0 0.537693 0.263094 0 0.55073 0.252592 0 0.564531 0.242086 0 0.575304 0.232832 0 0.586631 0.223712 0 0.59569 0.215745 0 0.605298 0.207915 0 0.613453 0.200817 0 0.621542 0.193826 0 0.628893 0.187414 0 0.635785 0.181276 0 0.642247 0.175625 0 0.648315 0.170305 0 0.653984 0.165311 0 0.659316 0.160564 0 0.664467 0.156083 0 0.669285 0.151827 0 0.674166 0.147891 0 0.679948 0.144443 0 0.688213 0.141789 0 0.70139 0.140374 0 0.720033 0.140016 0 0.74 0.14 0 0.76 0.14 0 0.78 0.14 0 0.8 0.14 0 0.82 0.14 0 0.84 0.14 0 0.86 0.14 0 0.88 0.14 0 0.9 0.14 0 0.92 0.14 0 0.94 0.14 0 0.96 0.14 0 0.98 0.14 0 1 0.14 0 0 0.501568 0 0.0685447 0.496768 0 0.13303 0.486377 0 0.192353 0.468451 0 0.238505 0.450672 0 0.287955 0.430071 0 0.310955 0.409775 0 0.358691 0.396583 0 0.385135 0.385135 0 0.409116 0.372623 0 0.430376 0.348942 0 0.451422 0.349638 0 0.473192 0.324664 0 0.490762 0.320036 0 0.509857 0.302897 0 0.524676 0.293491 0 0.54055 0.280871 0 0.553175 0.27095 0 0.56637 0.260338 0 0.576782 0.25139 0 0.587984 0.242167 0 0.597142 0.234169 0 0.606422 0.225982 0 0.614631 0.218678 0 0.622631 0.211517 0 0.629744 0.204892 0 0.636664 0.198625 0 0.643022 0.19276 0 0.649039 0.1872 0 0.654625 0.181942 0 0.659979 0.176969 0 0.665042 0.172271 0 0.670316 0.16796 0 0.676728 0.164248 0 0.686045 0.161524 0 0.700744 0.160255 0 0.720011 0.160006 0 0.74 0.16 0 0.76 0.16 0 0.78 0.16 0 0.8 0.16 0 0.82 0.16 0 0.84 0.16 0 0.86 0.16 0 0.88 0.16 0 0.9 0.16 0 0.92 0.16 0 0.94 0.16 0 0.96 0.16 0 0.98 0.16 0 1 0.16 0 0 0.515683 0 0.0628168 0.514225 0 0.123457 0.503389 0 0.176932 0.491085 0 0.227144 0.473588 0 0.26626 0.456453 0 0.312055 0.436513 0 0.331059 0.419565 0 0.372623 0.409116 0 0.399082 0.399082 0 0.420516 0.384571 0 0.441306 0.36438 0 0.460946 0.362684 0 0.480149 0.338468 0 0.496888 0.334621 0 0.514652 0.317471 0 0.528706 0.308944 0 0.543681 0.296323 0 0.555618 0.287019 0 0.568398 0.276363 0 0.578686 0.267812 0 0.589439 0.258386 0 0.598437 0.250386 0 0.607673 0.242191 0 0.615646 0.234776 0 0.623426 0.227527 0 0.630559 0.22083 0 0.637364 0.214441 0 0.643644 0.208445 0 0.649539 0.202752 0 0.655062 0.197368 0 0.660411 0.192294 0 0.666154 0.187682 0 0.673374 0.183808 0 0.684001 0.181175 0 0.700328 0.180143 0 0.720003 0.180002 0 0.74 0.18 0 0.76 0.18 0 0.78 0.18 0 0.8 0.18 0 0.82 0.18 0 0.84 0.18 0 0.86 0.18 0 0.88 0.18 0 0.9 0.18 0 0.92 0.18 0 0.94 0.18 0 0.96 0.18 0 0.98 0.18 0 1 0.18 0 0 0.530948 0 0.0580909 0.527491 0 0.113451 0.521088 0 0.165607 0.508443 0 0.211221 0.495601 0 0.256486 0.477662 0 0.289381 0.461655 0 0.332863 0.443117 0 0.348942 0.430376 0 0.384571 0.420516 0 0.410926 0.410926 0 0.430851 0.395061 0 0.451117 0.377927 0 0.470211 0.373543 0 0.487259 0.351011 0 0.503231 0.347249 0 0.519641 0.330331 0 0.532952 0.322523 0 0.547073 0.309907 0 0.558638 0.301296 0 0.570772 0.290506 0 0.580613 0.282176 0 0.591148 0.272843 0 0.59995 0.264933 0 0.608792 0.256728 0 0.616671 0.249364 0 0.624233 0.242133 0 0.631306 0.235464 0 0.637888 0.229056 0 0.644046 0.223032 0 0.649787 0.217272 0 0.655473 0.21189 0 0.661785 0.207057 0 0.67002 0.203157 0 0.682289 0.200801 0 0.700114 0.200062 0 0.72 0.2 0 0.74 0.2 0 0.76 0.2 0 0.78 0.2 0 0.8 0.2 0 0.82 0.2 0 0.84 0.2 0 0.86 0.2 0 0.88 0.2 0 0.9 0.2 0 0.92 0.2 0 0.94 0.2 0 0.96 0.2 0 0.98 0.2 0 1 0.2 0 0 0.542647 0 0.0534439 0.541964 0 0.105564 0.534563 0 0.153913 0.526208 0 0.200291 0.512371 0 0.24076 0.498842 0 0.28152 0.481671 0 0.308662 0.467041 0 0.349638 0.451422 0 0.36438 0.441306 0 0.395061 0.430851 0 0.421171 0.421171 
[...]
			<PointData Scalars="VitesseX">
				<DataArray Name="VitesseX" type="Float32" format="ascii">
 0 1.78494 0.431773 1.16904 1.02659 1.13664 1.13615 1.22182 1.25002 1.25785 1.3278 1.34026 1.3506 1.41242 1.48332 1.50987 1.52574 1.54205 1.60723 1.63855 1.70368 1.68039 1.65616 1.77075 1.75795 1.80219 1.77225 1.81347 1.83654 1.84976 1.89426 1.91317 1.90219 1.81038 1.5506 1.00167 0.220912 0.00285246 1.79688e-07 7.66082e-13 1.05719e-12 -3.61536e-12 3.61988e-12 1.53376e-14 -1.53364e-14 -3.61988e-12 3.60454e-12 -3.60454e-12 3.61988e-12 1.5409e-14 0 0 0.167377 1.3025 0.634705 1.01456 1.06165 1.1413 1.18323 1.23331 1.25895 1.30961 1.34429 1.35913 1.40678 1.49125 1.51547 1.51267 1.55304 1.59515 1.65062 1.67965 1.67691 1.67868 1.76548 1.7484 1.79942 1.77734 1.80775 1.83902 1.85053 1.89179 1.91219 1.9006 1.80687 1.54361 0.990204 0.21231 0.00260972 1.58201e-07 6.06716e-13 1.06153e-12 -3.6165e-12 3.61606e-12 1.53154e-14 -1.14947e-14 -3.61988e-12 3.61225e-12 -3.61224e-12 3.61989e-12 1.15642e-14 0 0 0.746114 0.219833 1.16829 0.802606 0.98486 1.04848 1.15126 1.19394 1.2294 1.31195 1.33238 1.35347 1.41389 1.4803 1.50247 1.51082 1.52869 1.61067 1.63641 1.65809 1.65907 1.72539 1.73335 1.74191 1.78857 1.78849 1.79747 1.84221 1.85243 1.88473 1.90942 1.89591 1.79627 1.52231 0.955294 0.187866 0.00199164 1.08374e-07 2.57265e-12 -1.28443e-12 -1.80872e-12 3.61609e-12 -1.80233e-12 -7.50244e-15 1.09061e-14 -2.97847e-14 2.98055e-14 -1.09107e-14 7.54373e-15 0 0 0.65858 0.774334 0.291524 0.76819 0.909085 1.00008 1.07543 1.15435 1.20284 1.27516 1.31544 1.33978 1.39627 1.46726 1.48546 1.49062 1.53541 1.58965 1.63052 1.62721 1.67794 1.72678 1.70073 1.7427 1.77153 1.79653 1.79432 1.83923 1.85442 1.87379 1.90525 1.88808 1.77837 1.48575 0.895377 0.151584 0.00125492 5.85222e-08 8.30425e-13 -7.31625e-15 -1.81e-12 1.80916e-12 -2.97841e-15 2.0544e-16 -5.30745e-12 5.29224e-12 -5.29219e-12 5.30357e-12 7.57859e-15 0 0 0.251986 0.565033 0.778413 0.65164 0.866937 0.95565 1.04806 1.09512 1.18036 1.2483 1.27206 1.32028 1.37415 1.42874 1.45468 1.48049 1.51352 1.57562 1.58694 1.63864 1.68169 1.69224 1.69421 1.73818 1.75024 1.79767 1.79839 1.8311 1.85407 1.86106 1.89915 1.87655 1.75253 1.4325 0.808094 0.109707 0.000642131 2.5529e-08 4.43197e-13 -9.43276e-16 -1.80914e-12 -1.03995e-15 1.80717e-12 -3.55801e-15 -5.3108e-12 5.3033e-12 -7.11326e-12 7.12074e-12 7.65662e-15 0 0 0.236398 0.43659 0.550317 0.846941 0.926826 0.963148 0.983539 1.07552 1.13405 1.20183 1.23972 1.28693 1.35023 1.3982 1.42941 1.46202 1.50494 1.53164 1.58303 1.63975 1.66124 1.64668 1.71628 1.71449 1.74579 1.78145 1.80711 1.82062 1.85069 1.84986 1.88975 1.85935 1.71713 1.36102 0.691735 0.0695615 0.000260923 9.28559e-09 2.03136e-12 -1.8109e-12 -2.15546e-14 1.83213e-12 -1.82831e-12 1.11873e-14 1.81744e-12 -1.82877e-12 1.82111e-12 -1.80677e-12 4.63089e-15 0 0 0.201903 0.359181 0.554158 0.585694 0.780995 0.968405 1.00688 1.01688 1.10289 1.14104 1.21182 1.27031 1.31431 1.37216 1.40884 1.44046 1.4733 1.52196 1.57748 1.63428 1.6101 1.64757 1.7038 1.70042 1.74994 1.75716 1.80972 1.81243 1.84341 1.84425 1.87611 1.83345 1.66827 1.26904 0.548803 0.0374934 8.18275e-05 2.88367e-09 -1.71495e-12 -2.23281e-14 1.81358e-12 -1.05507e-11 1.05508e-11 -1.14408e-14 -1.78043e-12 -4.04744e-14 1.84321e-12 -1.81774e-12 1.56281e-14 0 0 0.166616 0.360276 0.475526 0.645218 0.641432 0.8152 0.980917 1.03389 1.04719 1.10709 1.16847 1.23624 1.29544 1.33118 1.37903 1.40414 1.44953 1.50982 1.57186 1.56983 1.60222 1.64445 1.66753 1.69941 1.74308 1.7405 1.79647 1.80993 1.83187 1.8448 1.85891 1.7973 1.59962 1.15088 0.390877 0.016578 1.91156e-05 7.50283e-10 -1.77627e-12 1.80223e-12 -1.05432e-11 -2.21737e-14 1.05506e-11 -7.74924e-15 -1.23346e-11 1.23125e-11 -1.23121e-11 1.2312e-11 7.06619e-14 0 0 0.156877 0.323232 0.46161 0.561962 0.714819 0.711794 0.862458 1.01202 1.07039 1.08005 1.14913 1.18994 1.2581 1.31187 1.33538 1.37988 1.43905 1.49741 1.51458 1.54189 1.59573 1.63004 1.63265 1.70603 1.71588 1.73578 1.7704 1.8082 1.82048 1.84403 1.83919 1.75227 1.50605 0.995126 0.240101 0.00577888 3.2053e-06 1.36783e-10 1.05625e-11 3.6009e-12 -1.23491e-11 -1.04573e-16 -1.82848e-12 1.23792e-11 -1.05805e-11 1.23569e-11 -2.46875e-11 2.46876e-11 -1.23051e-11 0 0 0.141833 0.301732 0.427289 0.549138 0.652416 0.788838 0.782331 0.924331 1.0558 1.08997 1.1391 1.17762 1.22888 1.27583 1.32726 1.36734 1.42607 1.45513 1.47812 1.53504 1.59077 1.58647 1.6406 1.68347 1.70121 1.72443 1.75012 1.79644 1.81635 1.83889 1.81365 1.69593 1.38792 0.791453 0.12146 0.00151806 3.83969e-07 1.03762e-11 1.05059e-11 -1.05318e-11 2.96886e-14 -2.627e-14 2.64165e-14 -4.0393e-15 1.23593e-11 -1.23816e-11 2.64072e-14 9.95013e-18 -3.26555e-17 0 0 0.135749 0.284823 0.413772 0.522841 0.636163 0.712148 0.847664 0.861568 0.984971 1.08641 1.11091 1.1729 1.22849 1.24059 1.31513 1.37378 1.38747 1.42396 1.48084 1.54139 1.54699 1.58958 1.63316 1.66062 1.69787 1.70845 1.74164 1.77794 1.8141 1.82911 1.77701 1.6172 1.24332 0.550265 0.048182 0.000283951 3.70563e-08 2.75023e-12 1.23124e-11 -2.4669e-11 1.23604e-11 1.23088e-11 -1.23086e-11 2.63474e-14 -1.66631e-15 2.5725e-16 1.22838e-11 -2.46692e-11 2.47218e-11 0 0 0.123028 0.271746 0.377592 0.503991 0.592717 0.713088 0.770755 0.916748 0.940189 1.02997 1.10717 1.1405 1.20154 1.263 1.30095 1.33686 1.37634 1.42924 1.49319 1.50997 1.53566 1.59231 1.6172 1.64174 1.69636 1.69225 1.74458 1.75683 1.80856 1.80788 1.7312 1.50722 1.05299 0.314957 0.0142647 3.51555e-05 3.60526e-09 2.21412e-13 7.05594e-14 2.44403e-14 -2.52834e-14 1.23355e-11 -1.23792e-11 7.1028e-14 -1.75324e-15 -5.59989e-16 1.22843e-11 -1.23789e-11 7.06543e-14 0 0 0.120021 0.245177 0.371594 0.466591 0.599593 0.668254 0.794756 0.816316 0.954812 0.988867 1.06646 1.15469 1.13774 1.25182 1.30923 1.31754 1.3794 1.44561 1.47263 1.48104 1.54179 1.58406 1.58423 1.65101 1.66208 1.70149 1.73316 1.75055 1.79665 1.77244 1.66243 1.36788 0.793995 0.139402 0.0029847 2.68095e-06 3.03974e-10 3.32968e-11 -1.22641e-11 1.23332e-11 -1.23337e-11 -2.10032e-11 3.33202e-11 -1.23162e-11 1.23332e-11 -1.23341e-11 -2.10036e-11 3.32945e-11 -2.46699e-11 0 0 0.114923 0.244599 0.351869 0.473425 0.563122 0.679697 0.731213 0.859345 0.863906 0.990505 1.02887 1.07738 1.1737 1.21999 1.27641 1.33 1.37686 1.43217 1.45016 1.48712 1.53586 1.54647 1.59313 1.62512 1.64819 1.70224 1.71662 1.75344 1.7726 1.72337 1.55273 1.18523 0.491386 0.044917 0.000408492 1.31937e-07 -1.23483e-11 3.32945e-11 -1.2264e-11 -5.20329e-14 1.23683e-11 -3.33201e-11 3.32939e-11 7.07899e-14 -1.24131e-11 1.521e-14 -2.09441e-11 -2.41063e-14 2.10091e-11 0 0 0.117897 0.238738 0.35271 0.452611 0.560266 0.635425 0.741839 0.778655 0.906326 0.89201 1.01964 1.07821 1.13797 1.22266 1.2237 1.3279 1.39077 1.40993 1.43275 1.49006 1.50416 1.53888 1.58652 1.60458 1.6464 1.69086 1.70724 1.75443 1.73385 1.65256 1.40595 0.91939 0.229528 0.00991978 3.28959e-05 6.23071e-09 1.0941e-12 -4.42945e-14 7.06562e-14 -9.67671e-14 1.24127e-11 -9.35959e-17 -1.23866e-11 6.90325e-14 7.5283e-16 -1.07335e-13 -2.0873e-11 -2.30035e-15 3.33224e-11 0 0 0.116285 0.227094 0.338966 0.430995 0.533997 0.6206 0.694688 0.785628 0.817306 0.952911 0.943553 1.05512 1.11952 1.1418 1.24361 1.27738 1.30465 1.38321 1.4268 1.46144 1.48803 1.54507 1.56488 1.59438 1.65243 1.65893 1.71699 1.72463 1.69033 1.53549 1.21704 0.576087 0.0750024 0.00138966 1.41836e-06 3.20884e-10 -4.13486e-14 7.07282e-14 2.61331e-14 1.22633e-11 -3.32678e-11 3.33193e-11 -1.23862e-11 6.90005e-14 -2.10025e-11 3.32494e-11 -3.32943e-11 3.33873e-11 -6.62496e-14 0 0 0.109109 0.216836 0.317904 0.415826 0.504851 0.596838 0.666036 0.744898 0.838334 0.870499 0.982229 0.968217 1.07922 1.18613 1.18009 1.25737 1.2951 1.33778 1.40033 1.41593 1.47838 1.51508 1.54277 1.60286 1.61551 1.6646 1.69663 1.68911 1.60617 1.38275 0.929684 0.262268 0.0160217 0.000108181 3.89676e-08 -9.56791e-12 3.32256e-11 1.14975e-13 -2.46954e-11 2.46505e-11 -3.3272e-11 -2.28145e-14 3.33166e-11 -6.64199e-14 -3.32248e-11 3.31803e-11 1.37438e-13 -3.33867e-11 3.33891e-11 0 0 0.10466 0.203836 0.30921 0.395825 0.488634 0.564842 0.652985 0.730121 0.811147 0.87177 0.891272 1.02496 1.01808 1.13991 1.17609 1.21616 1.29561 1.31433 1.34668 1.40864 1.44927 1.48957 1.54453 1.58001 1.60625 1.65112 1.66468 1.625 1.47568 1.16995 0.550639 0.0795099 0.00202806 4.08942e-06 1.29898e-09 -3.29949e-11 3.33196e-11 -3.32763e-11 2.09598e-11 1.22642e-11 4.79805e-14 -3.33159e-11 6.58977e-14 3.32506e-11 1.62216e-15 -2.64195e-15 -3.32496e-11 5.67104e-15 -3.6632e-15 0 0 0.100323 0.200608 0.296688 0.384368 0.461384 0.552931 0.638305 0.724406 0.775336 0.834898 0.915657 0.955138 1.06414 1.0617 1.13318 1.22497 1.26269 1.29229 1.31127 1.37896 1.41491 1.47957 1.5339 1.55061 1.60277 1.62684 1.61051 1.52213 1.29836 0.832649 0.223308 0.0145915 0.000133387 7.7272e-08 4.77343e-11 -6.3077e-15 -3.33206e-11 -1.35744e-16 3.33204e-11 -3.33459e-11 -4.40672e-14 3.33199e-11 -3.31832e-11 5.88555e-17 3.32501e-11 -3.3251e-11 4.99993e-15 3.57929e-16 -3.46707e-15 0 0 0.0974817 0.192967 0.281113 0.362617 0.448565 0.544231 0.631156 0.688666 0.749685 0.821958 0.899156 0.957934 0.975593 1.07369 1.10016 1.15641 1.23841 1.27439 1.34083 1.33937 1.4037 1.4679 1.4908 1.55123 1.58005 1.58298 1.53039 1.36172 1.03307 0.425686 0.0549996 0.00149501 3.59873e-06 1.69769e-09 -3.26186e-11 3.32058e-11 -3.325e-11 3.32496e-11 -3.32495e-11 -7.05931e-14 7.11456e-14 3.31788e-11 -3.31119e-11 -3.23261e-16 3.31791e-11 -3.31788e-11 3.62973e-15 -4.94585e-15 3.33231e-11 0 0 0.091057 0.18181 0.265627 0.353766 0.446977 0.532068 0.599388 0.662822 0.741717 0.81382 0.864873 0.910734 0.983104 1.01739 1.10272 1.11664 1.18161 1.25372 1.30329 1.34369 1.39144 1.42165 1.48441 1.53195 1.54605 1.5101 1.39547 1.1434 0.630211 0.13225 0.00794147 6.3198e-05 4.85603e-08 3.17489e-11 -3.32102e-11 -1.37937e-13 7.05133e-14 3.32498e-11 -3.332e-11 3.33196e-11 -3.32491e-11 3.31792e-11 -3.31127e-11 3.31797e-11 -3.17503e-16 -3.31788e-11 -6.7761e-14 3.33877e-11 -6.59569e-14 0 0 0.0823558 0.172588 0.263005 0.351956 0.429296 0.503141 0.577173 0.66089 0.725162 0.782798 0.832412 0.906787 0.957152 1.00599 1.03844 1.12244 1.16944 1.19844 1.26682 1.33454 1.36007 1.42082 1.46677 1.49716 1.48558 1.40366 1.18762 0.797003 0.232336 0.0253223 0.000463811 1.12307e-06 7.63243e-10 3.34899e-13 -3.3182e-11 -1.38422e-13 7.12723e-14 -3.24215e-16 3.33167e-11 -3.33166e-11 -2.25123e-16 3.32501e-11 -3.31831e-11 3.31803e-11 -3.31797e-11 -6.78005e-14 3.3321e-11 -3.33202e-11 3.3389e-11 0 0 0.0843998 0.174241 0.261784 0.33487 0.407749 0.48879 0.573211 0.637122 0.698687 0.755839 0.832707 0.877828 0.931625 0.970144 1.05158 1.07515 1.14242 1.20926 1.2491 1.27933 1.3555 1.38291 1.42239 1.43167 1.37822 1.20896 0.904572 0.329689 0.0560857 0.00181101 1.32494e-05 8.53693e-09 9.71478e-12 3.32613e-11 -3.33906e-11 3.33198e-11 -3.32498e-11 2.03193e-17 3.33167e-11 -3.33869e-11 3.33903e-11 -3.332e-11 4.01137e-16 3.33177e-11 -3.33879e-11 3.33903e-11 -3.33209e-11 7.22392e-14 -3.64171e-15 0 0 0.0880283 0.167762 0.244329 0.323368 0.404584 0.483457 0.549003 0.615626 0.681292 0.753108 0.795072 0.854232 0.901674 0.975426 1.00054 1.06979 1.11843 1.18526 1.22809 1.26449 1.33363 1.36072 1.3518 1.31182 1.18661 0.94222 0.412737 0.0929289 0.00462577 7.83056e-05 7.00999e-08 1.6549e-10 -3.32303e-11 9.09969e-16 3.33173e-11 -3.33178e-11 6.67749e-14 3.31831e-11 -3.33199e-11 3.33876e-11 -3.33172e-11 6.69618e-14 3.31826e-11 -3.33195e-11 3.33871e-11 -3.3317e-11 7.01985e-14 6.84119e-16 -3.23441e-15 0 0 0.0809687 0.158014 0.238335 0.317801 0.389904 0.459169 0.535856 0.608874 0.674222 0.721698 0.782456 0.834448 0.899143 0.925242 1.00281 1.03947 1.11747 1.14302 1.20439 1.26707 1.27943 1.31777 1.26532 1.13152 0.915702 0.454511 0.122717 0.00900121 0.000250052 3.99416e-07 9.61288e-10 -3.27341e-11 3.3321e-11 -3.3182e-11 3.32498e-11 -3.33175e-11 6.72439e-14 3.31119e-11 -3.31108e-11 3.32489e-11 -3.33171e-11 6.74108e-14 3.31117e-11 -3.31106e-11 3.32482e-11 -3.33163e-11 7.06889e-14 -1.41857e-13 3.34599e-11 0 0 0.0770728 0.154098 0.22981 0.304463 0.378438 0.453917 0.524265 0.589424 0.648313 0.711986 0.763893 0.81783 0.858017 0.933004 0.969681 1.03935 1.06043 1.15366 1.18161 1.2052 1.23663 1.18446 1.10243 0.885086 0.448572 0.133279 0.0129959 0.000496225 1.56989e-06 3.91595e-09 3.53317e-12 -6.66303e-11 6.65695e-11 1.38181e-13 -1.38052e-13 7.06957e-14 -6.66407e-11 6.65701e-11 1.38303e-13 -1.38464e-13 7.07131e-14 -6.66406e-11 6.657e-11 1.3853e-13 -1.38673e-13 7.10732e-14 -6.66411e-11 6.65705e-11 -3.32505e-11 0 0 0.0739308 0.148101 0.222531 0.296818 0.369114 0.437075 0.504491 0.570164 0.632944 0.685768 0.740597 0.79555 0.862608 0.902079 0.961573 0.996642 1.08617 1.08978 1.15762 1.1408 1.10049 1.01318 0.811898 0.422631 0.130417 0.0139563 0.0006478 3.54675e-06 9.85671e-09 1.41082e-11 -3.328e-11 7.20886e-14 -7.20516e-14 3.33207e-11 1.65657e-16 -3.33208e-11 7.19245e-14 -7.18421e-14 3.33205e-11 3.96136e-16 -3.3321e-11 7.19876e-14 -7.17066e-14 3.33208e-11 6.60097e-14 -3.33869e-11 -4.59459e-16 -1.01869e-15 8.40815e-16 0 0 0.0720496 0.143629 0.215208 0.287267 0.359547 0.431179 0.497527 0.558095 0.614211 0.673119 0.73099 0.787292 0.831001 0.890066 0.937151 1.00524 1.01717 1.08193 1.03722 1.0351 0.900018 0.711826 0.345827 0.112746 0.0126558 0.000646154 4.31192e-06 1.45309e-08 3.31664e-11 1.02289e-13 7.14019e-14 -2.26796e-17 -3.95257e-15 -6.72991e-14 -4.884e-16 7.18454e-14 -2.14678e-16 -4.23324e-16 -7.12916e-14 2.71317e-16 7.16586e-14 -1.53376e-16 -3.92002e-15 3.31122e-11 -3.31133e-11 -1.38044e-13 3.32493e-11 -6.65001e-11 3.33151e-11 0 0 0.0702845 0.141304 0.212364 0.28239 0.351136 0.418088 0.483788 0.546006 0.604221 0.658717 0.712482 0.765355 0.823514 0.873273 0.920392 0.945317 0.984388 0.946415 0.931492 0.775183 0.594567 0.251552 0.0825296 0.00846459 0.000492026 3.53727e-06 1.45141e-08 4.15605e-11 8.00232e-14 3.83555e-17 7.16454e-14 -7.17568e-14 3.33178e-11 -3.33883e-11 7.02101e-14 7.17415e-14 -4.99734e-17 -5.87905e-16 -1.41843e-13 7.10323e-14 7.12999e-14 -4.06065e-15 -2.22582e-16 3.31122e-11 -6.65003e-11 6.64984e-11 -3.33208e-11 -3.31787e-11 3.33144e-11 0 0 0.0693271 0.138491 0.207596 0.276562 0.344465 0.410257 0.472331 0.531106 0.588795 0.646853 0.702931 0.758196 0.800847 0.838277 0.863437 0.876896 0.844834 0.801109 0.638431 0.436757 0.166226 0.0496354 0.00425904 0.000247601 1.55806e-06 9.75178e-09 3.32126e-11 7.86643e-14 3.33217e-11 -7.07421e-14 -3.31833e-11 3.31835e-11 -3.332e-11 3.33195e-11 7.04542e-14 -3.33205e-11 7.16253e-14 -7.16661e-14 3.32503e-11 -3.33588e-11 1.73477e-13 3.29326e-11 -3.29332e-11 -6.47353e-14 -3.65083e-16 -7.25479e-14 -3.32491e-11 3.32495e-11 7.17448e-14 0 0 0.0685789 0.136388 0.203032 0.26855 0.333204 0.396942 0.459528 0.519044 0.576587 0.630101 0.67839 0.719851 0.753206 0.767192 0.761254 0.723408 0.645012 0.47132 0.275562 0.0946429 0.0223428 0.00167418 7.76305e-05 3.93517e-07 3.89486e-09 1.39845e-11 -6.65387e-11 6.66413e-11 -7.01498e-14 6.56105e-14 -3.32489e-11 3.31126e-11 -3.31116e-11 3.3182e-11 -3.32496e-11 3.32495e-11 -3.31853e-11 3.31852e-11 -3.32497e-11 -4.47571e-14 -8.40427e-11 1.17078e-10 -3.29278e-11 -6.42019e-14 -7.06947e-16 -3.33227e-11 3.32515e-11 3.31788e-11 -6.64285e-11 0 0 0.0669518 0.133351 0.198887 0.26347 0.326758 0.388095 0.446385 0.50031 0.5498 0.592828 0.627853 0.64985 0.651962 0.632704 0.572881 0.457349 0.292947 0.14227 0.04113 0.00708192 0.000438757 1.31261e-05 6.85126e-08 9.5558e-10 3.47135e-12 -3.32806e-11 7.17931e-14 -7.12256e-14 3.33167e-11 -3.32504e-11 -6.70408e-14 3.32508e-11 -3.31826e-11 3.31826e-11 -3.32493e-11 3.32492e-11 -3.3185e-11 3.3185e-11 -3.3321e-11 9.52284e-14 -8.4248e-11 8.41752e-11 4.71383e-14 -2.09746e-16 -3.33205e-11 3.33199e-11 -7.07934e-14 -7.01051e-14 1.41773e-13 0 0 0.0644672 0.128181 0.190563 0.251133 0.309316 0.3643 0.415247 0.460593 0.496915 0.51971 0.527365 0.515726 0.471759 0.382911 0.264086 0.142525 0.053735 0.0117167 0.0013711 6.10244e-05 1.10765e-06 8.29297e-09 1.64232e-10 -3.26095e-11 9.41093e-15 7.06036e-14 -1.45926e-16 -7.07772e-14 3.33165e-11 -3.33868e-11 3.33893e-11 -3.33199e-11 8.49736e-16 3.33203e-11 -7.08216e-14 -3.32494e-11 -6.14031e-16 -2.98821e-16 3.32491e-11 -6.66098e-11 6.64675e-11 -6.65372e-11 3.34214e-11 -6.31326e-14 1.18128e-15 7.01911e-14 -7.14159e-14 -3.32494e-11 3.33134e-11 0 0 0.0591782 0.117216 0.173134 0.226075 0.274957 0.318234 0.353946 0.379872 0.391978 0.382765 0.343983 0.277059 0.194802 0.112182 0.0461892 0.0120911 0.00176265 0.000126276 3.50595e-06 4.71815e-08 6.78259e-10 9.55809e-12 3.32678e-11 -3.33181e-11 7.03873e-14 7.04404e-14 -3.99494e-15 3.31831e-11 -3.33198e-11 3.3387e-11 -3.33173e-11 -5.0823e-16 3.33201e-11 -3.33196e-11 3.32498e-11 -6.65702e-11 6.64986e-11 -3.31797e-11 -1.32397e-16 7.00218e-14 -2.12825e-13 -3.31776e-11 3.32412e-11 8.45416e-15 -9.43648e-17 7.09126e-14 -7.11222e-14 -3.32504e-11 3.33147e-11 0 0 0.0483048 0.0948685 0.13812 0.176615 0.208639 0.231409 0.240617 0.231848 0.204508 0.163461 0.114921 0.0653412 0.0268325 0.0072319 0.00117543 0.000100088 3.94004e-06 7.40315e-08 1.63641e-09 3.07617e-11 5.95821e-13 -3.33802e-11 6.16228e-16 3.33175e-11 3.47415e-15 -3.33217e-11 6.82911e-14 3.31115e-11 -3.31782e-11 3.33163e-11 -3.3317e-11 3.33204e-11 -3.33216e-11 7.242e-14 -7.19497e-14 7.0075e-14 -2.13739e-13 1.42037e-13 1.25174e-15 6.78811e-14 -1.40092e-13 -7.01819e-14 6.9765e-14 -3.32494e-11 3.3321e-11 -9.01892e-15 -3.33114e-11 3.31779e-11 1.4333e-13 0 0 0.0285832 0.054634 0.0758186 0.0902582 0.0968287 0.0952949 0.0858414 0.0687379 0.0460051 0.0237656 0.00880544 0.0022047 0.000344286 3.01215e-05 1.34338e-06 3.65097e-08 1.20547e-09 4.64384e-11 -3.26505e-11 3.32884e-11 -3.33167e-11 3.32501e-11 -3.31821e-11 3.32498e-11 3.43506e-15 -9.69574e-16 -6.66411e-11 6.65705e-11 7.07857e-14 -3.33901e-11 3.33903e-11 -7.06518e-14 -3.32498e-11 7.09594e-14 -4.0751e-17 -1.70744e-15 -7.17641e-14 -3.33215e-11 3.33222e-11 -7.15943e-14 5.62105e-16 -7.07339e-14 -3.31798e-11 3.33216e-11 -1.7813e-13 1.68773e-13 -3.34198e-11 6.65377e-11 -6.64288e-11 0 0 0.00806827 0.01479 0.0190058 0.0199473 0.0175301 0.0126834 0.00728253 0.0031756 0.00100475 0.000217909 3.00178e-05 2.42904e-06 1.20105e-07 5.61317e-09 2.98776e-10 -1.02269e-11 3.35692e-11 8.17474e-14 -3.34346e-11 1.37083e-13 -1.37567e-13 3.33206e-11 -3.31822e-11 3.31827e-11 7.08675e-14 -3.33217e-11 7.16052e-14 -7.1585e-14 3.33209e-11 -3.33903e-11 3.33904e-11 -3.33908e-11 7.02266e-14 6.93378e-14 1.70736e-15 -7.25045e-14 -8.49034e-15 -6.45097e-14 -3.32495e-11 3.32504e-11 -3.32503e-11 3.31804e-11 5.34165e-18 1.41472e-13 -1.79225e-13 -8.39725e-11 8.40415e-11 3.90448e-14 7.20438e-14 0 0 0.000239066 0.000370378 0.000357543 0.000249513 0.000129172 4.91834e-05 1.33916e-05 2.5042e-06 3.1644e-07 3.04598e-08 2.99571e-09 2.64082e-10 5.22457e-11 -2.36795e-11 2.4674e-11 -3.33098e-11 3.33193e-11 -3.33199e-11 3.32497e-11 -6.65705e-11 6.65703e-11 -3.325e-11 6.72796e-14 -6.60947e-14 -1.09381e-16 7.04817e-14 -5.04246e-17 1.31333e-16 -7.13614e-14 3.33151e-11 -3.3315e-11 3.65412e-16 -1.42563e-13 2.10067e-13 -6.88301e-14 -9.49026e-15 -3.33199e-11 3.32467e-11 9.7894e-15 -3.32503e-11 6.77271e-16 3.31407e-11 3.33587e-11 -6.65381e-11 3.33206e-11 -8.41829e-11 1.17222e-10 -6.63205e-11 3.33132e-11 0 0 2.14848e-08 2.83362e-08 2.15141e-08 1.14788e-08 4.76115e-09 1.64459e-09 4.8888e-10 9.99124e-11 3.01149e-11 -2.24891e-11 2.48847e-11 -3.32913e-11 3.32937e-11 -2.46239e-11 2.4598e-11 7.73722e-14 -3.33652e-11 5.59619e-16 3.32495e-11 -3.32495e-11 -1.08879e-16 -3.5833e-16 3.33172e-11 -3.33867e-11 7.06916e-14 7.03994e-14 -6.88418e-16 7.69451e-16 -7.14024e-14 3.33151e-11 -3.33149e-11 -6.69894e-16 3.31783e-11 -6.65014e-11 3.3321e-11 -7.90574e-14 -3.32504e-11 3.32479e-11 1.00914e-14 -3.32494e-11 3.31806e-11 3.07249e-14 -8.40429e-11 8.41133e-11 -3.33205e-11 6.65394e-11 -3.34986e-11 -3.30012e-11 3.33131e-11 0 0 1.52861e-13 -1.04262e-12 2.32775e-13 1.39774e-13 -1.72804e-12 1.85416e-12 -1.82261e-12 -1.05464e-11 1.41104e-11 -1.23041e-11 -7.08758e-14 1.2405e-11 -1.24049e-11 7.06553e-14 -2.60488e-14 2.41466e-14 -2.1048e-11 3.33202e-11 -3.33903e-11 3.33201e-11 -3.31832e-11 3.31831e-11 -3.33198e-11 3.33882e-11 3.01701e-15 -3.33217e-11 7.10514e-14 -1.41687e-13 3.33921e-11 -3.33916e-11 3.33203e-11 -3.3