<?xml version="1.0"?>
<VTKFile type="PolyData">
	<PolyData>
		<Piece NumberOfPoints="2601" NumberOfPolys="2500">
			<Points>
				<DataArray type="Float32" NumberOfComponents="3" format="ascii">
 0 0 0 0.314974 0 0 0.255152 0 0 0.315587 0 0 0.326187 0 0 0.346848 0 0 0.364387 0 0 0.377763 0 0 0.392458 0 0 0.402411 0 0 0.414087 0 0 0.422272 0 0 0.432125 0 0 0.43958 0 0 0.447357 0 0 0.45388 0 0 0.460858 0 0 0.466361 0 0 0.47159 0 0 0.476321 0 0 0.480957 0 0 0.485324 0 0 0.489406 0 0 0.493546 0 0 0.498857 0 0 0.507147 0 0 0.520939 0 0 0.54001 0 0 0.56 0 0 0.58 0 0 0.6 0 0 0.62 0 0 0.64 0 0 0.66 0 0 0.68 0 0 0.7 0 0 0.72 0 0 0.74 0 0 0.76 0 0 0.78 0 0 0.8 0 0 0.82 0 0 0.84 0 0 0.86 0 0 0.88 0 0 0.9 0 0 0.92 0 0 0.94 0 0 0.96 0 0 0.98 0 0 1 0 0 0 0.314974 0 0.151297 0.151297 0 0.292986 0.127257 0 0.283383 0.112638 0 0.322126 0.0813834 0 0.342813 0.0723845 0 0.35945 0.0646591 0 0.376008 0.0583314 0 0.388148 0.0534873 0 0.40156 0.0491751 0 0.410722 0.0450184 0 0.421814 0.0414829 0 0.429929 0.0383562 0 0.438877 0.0357703 0 0.445965 0.0336228 0 0.453252 0.0317794 0 0.459803 0.0301013 0 0.465549 0.0284697 0 0.470914 0.0270131 0 0.475715 0.0256902 0 0.480383 0.0245069 0 0.484825 0.0234491 0 0.488932 0.0224851 0 0.49313 0.0216091 0 0.498521 0.0208623 0 0.50693 0.020316 0 0.52088 0.0200556 0 0.540009 0.0200011 0 0.56 0.02 0 0.58 0.02 0 0.6 0.02 0 0.62 0.02 0 0.64 0.02 0 0.66 0.02 0 0.68 0.02 0 0.7 0.02 0 0.72 0.02 0 0.74 0.02 0 0.76 0.02 0 0.78 0.02 0 0.8 0.02 0 0.82 0.02 0 0.84 0.02 0 0.86 0.02 0 0.88 0.02 0 0.9 0.02 0 0.92 0.02 0 0.94 0.02 0 0.96 0.02 0 0.98 0.02 0 1 0.02 0 0 0.255152 0 0.127257 0.292986 0 0.173264 0.173264 0 0.270413 0.186628 0 0.295902 0.159004 0 0.324324 0.138559 0 0.347275 0.124539 0 0.36373 0.114597 0 0.380604 0.104655 0 0.392699 0.096041 0 0.406157 0.0884295 0 0.41576 0.0816092 0 0.42655 0.0758566 0 0.434605 0.0709332 0 0.443199 0.0667701 0 0.450427 0.0631711 0 0.457162 0.0597651 0 0.463147 0.0566298 0 0.468907 0.0537547 0 0.473886 0.051133 0 0.47872 0.0488012 0 0.483319 0.0467213 0 0.487532 0.0448169 0 0.491897 0.0430948 0 0.497529 0.0416318 0 0.5063 0.0405774 0 0.52072 0.0400946 0 0.540006 0.0400016 0 0.56 0.04 0 0.58 0.04 0 0.6 0.04 0 0.62 0.04 0 0.64 0.04 0 0.66 0.04 0 0.68 0.04 0 0.7 0.04 0 0.72 0.04 0 0.74 0.04 0 0.76 0.04 0 0.78 0.04 0 0.8 0.04 0 0.82 0.04 0 0.84 0.04 0 0.86 0.04 0 0.88 0.04 0 0.9 0.04 0 0.92 0.04 0 0.94 0.04 0 0.96 0.04 0 0.98 0.04 0 1 0.04 0 0 0.315587 0 0.112638 0.283383 0 0.186628 0.270413 0 0.195326 0.195326 0 0.260215 0.220413 0 0.301174 0.18936 0 0.325921 0.177763 0 0.349391 0.161931 0 0.366461 0.150681 0 0.383713 0.138873 0 0.396138 0.128588 0 0.40954 0.119487 0 0.419178 0.11161 0 0.429512 0.10485 0 0.437778 0.0990623 0 0.446088 0.0937126 0 0.452771 0.0887336 0 0.459555 0.084145 0 0.465479 0.0799231 0 0.47099 0.0761015 0 0.47601 0.0727033 0 0.480842 0.0696586 0 0.485238 0.0668639 0 0.489889 0.0643436 0 0.495931 0.0622251 0 0.505319 0.0607398 0 0.520506 0.0601062 0 0.540003 0.0600012 0 0.56 0.06 0 0.58 0.06 0 0.6 0.06 0 0.62 0.06 0 0.64 0.06 0 0.66 0.06 0 0.68 0.06 0 0.7 0.06 0 0.72 0.06 0 0.74 0.06 0 0.76 0.06 0 0.78 0.06 0 0.8 0.06 0 0.82 0.06 0 0.84 0.06 0 0.86 0.06 0 0.88 0.06 0 0.9 0.06 0 0.92 0.06 0 0.94 0.06 0 0.96 0.06 0 0.98 0.06 0 1 0.06 0 0 0.326187 0 0.0813834 0.322126 0 0.159004 0.295902 0 0.220413 0.260215 0 0.223288 0.223288 0 0.270459 0.241258 0 0.307254 0.211566 0 0.33022 0.204603 0 0.352946 0.188398 0 0.369692 0.177211 0 0.386535 0.165067 0 0.398712 0.154822 0 0.411549 0.14539 0 0.421211 0.13736 0 0.431339 0.12987 0 0.439456 0.123078 0 0.447424 0.11661 0 0.454493 0.110745 0 0.461002 0.10528 0 0.466995 0.100435 0 0.47238 0.0960664 0 0.477428 0.0921393 0 0.482109 0.0885076 0 0.48717 0.0852595 0 0.493816 0.0825733 0 0.504095 0.0807797 0 0.520297 0.0800901 0 0.540001 0.0800007 0 0.56 0.08 0 0.58 0.08 0 0.6 0.08 0 0.62 0.08 0 0.64 0.08 0 0.66 0.08 0 0.68 0.08 0 0.7 0.08 0 0.72 0.08 0 0.74 0.08 0 0.76 0.08 0 0.78 0.08 0 0.8 0.08 0 0.82 0.08 0 0.84 0.08 0 0.86 0.08 0 0.88 0.08 0 0.9 0.08 0 0.92 0.08 0 0.94 0.08 0 0.96 0.08 0 0.98 0.08 0 1 0.08 0 0 0.346848 0 0.0723845 0.342813 0 0.138559 0.324324 0 0.18936 0.301174 0 0.241258 0.270459 0 0.249939 0.249939 0 0.285292 0.255367 0 0.313742 0.230174 0 0.335343 0.22507 0 0.356628 0.20903 0 0.372477 0.198779 0 0.388464 0.186744 0 0.400359 0.177041 0 0.412896 0.167276 0 0.422481 0.158841 0 0.432325 0.150555 0 0.440681 0.143181 0 0.448483 0.136086 0 0.455476 0.129761 0 0.46202 0.124003 0 0.467837 0.118814 0 0.473167 0.114042 0 0.478219 0.109653 0 0.483832 0.105759 0 0.49131 0.102633 0 0.502793 0.1007 0 0.52014 0.100058 0 0.54 0.1 0 0.56 0.1 0 0.58 0.1 0 0.6 0.1 0 0.62 0.1 0 0.64 0.1 0 0.66 0.1 0 0.68 0.1 0 0.7 0.1 0 0.72 0.1 0 0.74 0.1 0 0.76 0.1 0 0.78 0.1 0 0.8 0.1 0 0.82 0.1 0 0.84 0.1 0 0.86 0.1 0 0.88 0.1 0 0.9 0.1 0 0.92 0.1 0 0.94 0.1 0 0.96 0.1 0 0.98 0.1 0 1 0.1 0 0 0.364387 0 0.0646591 0.35945 0 0.124539 0.347275 0 0.177763 0.325921 0 0.211566 0.307254 0 0.255367 0.285292 0 0.268917 0.268917 0 0.296981 0.268212 0 0.320563 0.246119 0 0.340134 0.241965 0 0.360042 0.225959 0 0.375007 0.216845 0 0.390365 0.204698 0 0.401872 0.19534 0 0.413901 0.185084 0 0.4237 0.1766 0 0.43339 0.168024 0 0.441394 0.160384 0 0.449183 0.15322 0 0.456039 0.146759 0 0.462458 0.140796 0 0.468124 0.135273 0 0.473697 0.130201 0 0.48001 0.125795 0 0.488571 0.122396 0 0.50162 0.12053 0 0.520051 0.120027 0 0.54 0.12 0 0.56 0.12 0 0.58 0.12 0 0.6 0.12 0 0.62 0.12 0 0.64 0.12 0 0.66 0.12 0 0.68 0.12 0 0.7 0.12 0 0.72 0.12 0 0.74 0.12 0 0.76 0.12 0 0.78 0.12 0 0.8 0.12 0 0.82 0.12 0 0.84 0.12 0 0.86 0.12 0 0.88 0.12 0 0.9 0.12 0 0.92 0.12 0 0.94 0.12 0 0.96 0.12 0 0.98 0.12 0 1 0.12 0 0 0.377763 0 0.0583314 0.376008 0 0.114597 0.36373 0 0.161931 0.349391 0 0.204603 0.33022 0 0.230174 0.313742 0 0.268212 0.296981 0 0.284053 0.284053 0 0.307322 0.279789 0 0.327491 0.259877 0 0.345127 0.256208 0 0.363394 0.239989 0 0.377398 0.231816 0 0.392034 0.219313 0 0.403362 0.210536 0 0.415212 0.200252 0 0.42466 0.191812 0 0.433981 0.183247 0 0.441905 0.175694 0 0.449426 0.168476 0 0.456272 0.161922 0 0.462451 0.155695 0 0.468666 0.150104 0 0.475898 0.145351 0 0.485812 0.141921 0 0.500758 0.140324 0 0.520014 0.140009 0 0.54 0.14 0 0.56 0.14 0 0.58 0.14 0 0.6 0.14 0 0.62 0.14 0 0.64 0.14 0 0.66 0.14 0 0.68 0.14 0 0.7 0.14 0 0.72 0.14 0 0.74 0.14 0 0.76 0.14 0 0.78 0.14 0 0.8 0.14 0 0.82 0.14 0 0.84 0.14 0 0.86 0.14 0 0.88 0.14 0 0.9 0.14 0 0.92 0.14 0 0.94 0.14 0 0.96 0.14 0 0.98 0.14 0 1 0.14 0 0 0.392458 0 0.0534873 0.388148 0 0.104655 0.380604 0 0.150681 0.366461 0 0.188398 0.352946 0 0.22507 0.335343 0 0.246119 0.320563 0 0.279789 0.307322 0 0.296927 0.296927 0 0.316611 0.289221 0 0.334537 0.27163 0 0.350468 0.267377 0 0.36692 0.251311 0 0.380227 0.2442 0 0.394243 0.231716 0 0.405017 0.223443 0 0.416278 0.21324 0 0.42558 0.205154 0 0.434339 0.196636 0 0.442211 0.189195 0 0.449529 0.181939 0 0.456285 0.175301 0 0.463297 0.169326 0 0.471708 0.164486 0 0.483345 0.16132 0 0.50027 0.160148 0 0.520003 0.160002 0 0.54 0.16 0 0.56 0.16 0 0.58 0.16 0 0.6 0.16 0 0.62 0.16 0 0.64 0.16 0 0.66 0.16 0 0.68 0.16 0 0.7 0.16 0 0.72 0.16 0 0.74 0.16 0 0.76 0.16 0 0.78 0.16 0 0.8 0.16 0 0.82 0.16 0 0.84 0.16 0 0.86 0.16 0 0.88 0.16 0 0.9 0.16 0 0.92 0.16 0 0.94 0.16 0 0.96 0.16 0 0.98 0.16 0 1 0.16 0 0 0.402411 0 0.0491751 0.40156 0 0.096041 0.392699 0 0.138873 0.383713 0 0.177211 0.369692 0 0.20903 0.356628 0 0.241965 0.340134 0 0.259877 0.327491 0 0.289221 0.316611 0 0.307339 0.307339 0 0.324745 0.296864 0 0.340888 0.281615 0 0.356302 0.276401 0 0.371088 0.261145 0 0.383549 0.254564 0 0.396436 0.242198 0 0.406871 0.234577 0 0.417428 0.22461 0 0.426259 0.216717 0 0.434797 0.208424 0 0.442361 0.201011 0 0.449851 0.193994 0 0.457813 0.187984 0 0.467678 0.183304 0 0.481525 0.18074 0 0.500069 0.180047 0 0.52 0.18 0 0.54 0.18 0 0.56 0.18 0 0.58 0.18 0 0.6 0.18 0 0.62 0.18 0 0.64 0.18 0 0.66 0.18 0 0.68 0.18 0 0.7 0.18 0 0.72 0.18 0 0.74 0.18 0 0.76 0.18 0 0.78 0.18 0 0.8 0.18 0 0.82 0.18 0 0.84 0.18 0 0.86 0.18 0 0.88 0.18 0 0.9 0.18 0 0.92 0.18 0 0.94 0.18 0 0.96 0.18 0 0.98 0.18 0 1 0.18 0 0 0.414087 0 0.0450184 0.410722 0 0.0884295 0.406157 0 0.128588 0.396138 0 0.165067 0.386535 0 0.198779 0.372477 0 0.225959 0.360042 0 0.256208 0.345127 0 0.27163 0.334537 0 0.296864 0.324745 0 0.315466 0.315466 0 0.331759 0.303624 0 0.346688 0.290733 0 0.361739 0.284089 0 0.374878 0.269872 0 0.386847 0.263564 0 0.398755 0.251614 0 0.408524 0.244222 0 0.418507 0.23465 0 0.426923 0.226924 0 0.435186 0.218924 0 0.443305 0.212051 0 0.452513 0.206138 0 0.46419 0.202061 0 0.48051 0.200307 0 0.500012 0.200009 0 0.52 0.2 0 0.54 0.2 0 0.56 0.2 0 0.58 0.2 0 0.6 0.2 0 0.62 0.2 0 0.64 0.2 0 0.66 0.2 0 0.68 0.2 0 0.7 0.2 0 0.72 0.2 0 0.74 0.2 0 0.76 0.2 0 0.78 0.2 0 0.8 0.2 0 0.82 0.2 0 0.84 0.2 0 0.86 0.2 0 0.88 0.2 0 0.9 0.2 0 0.92 0.2 0 0.94 0.2 0 0.96 0.2 0 0.98 0.2 0 1 0.2 0 0 0.422272 0 0.0414829 0.421814 0 0.0816092 0.41576 0 0.119487 0.40954 0 0.154822 0.398712 0 0.186744 0.388464 0 0.216845 0.375007 0 0.239989 0.363394 0 0.267377 0.350468 0 0.281615 0.340888 0 0.303624 0.331759 0 0.322048 0.322048 0 0.338064 0.310236 0 0.351455 0.298779 0 0.366134 0.290881 0 0.378227 0.277988 0 0.389568 0.271518 0 0.400623 0.26016 0 0.410013 0.25293 0 0.41927 0.243725 0 0.427853 0.236421 0 0.437018 0.229419 0 0.44766 0.224137 0 0.461741 0.221 0 0.480116 0.220085 0 0.500001 0.220001 0 0.52 0.22 0 0.54 0.22 0 0.56 0.22 0 0.58 0.22 0 0.6 0.22 0 0.62 0.22 0 0.64 0.22 0 0.66 0.22 0 0.68 0.22 0 0.7 0.22 0 0.72 0.22 0 0.74 0.22 0 0.76 0.22 0 0.78 0.22 0 0.8 0.22 0 0.82 0.22 0 0.84 0.22 0 0.86 0.22 0 0.88 0.22 0 0.9 0.22 0 0.92 0.22 0 0.94 0.22 0 0.96 0.22 0 0.98 0.22 0 1 0.22 0 0 0.432125 0 0.0383562 0.429929 0 0.0758566 0.42655 0 0.11161 0.419178 0 0.14539 0.411549 0 0.177041 0.400359 0 0.204698 0.390365 0 0.231816 0.377398 0 0.251311 0.36692 0 0.276401 0.356302 0 0.290733 0.346688 0 0.310236 0.338064 0 0.327401 0.327401 0 0.34304 0.316238 0 0.355769 0.306034 0 0.369765 0.297275 0 0.380891 0.285469 0 0.39189 0.27
[...]
			<PointData Scalars="VitesseX">
				<DataArray Name="VitesseX" type="Float32" format="ascii">
 0 2.14793 1.05977 1.79656 1.55245 1.7263 1.89803 1.86822 1.92786 2.05444 2.10277 2.11331 2.20191 2.30033 2.394 2.31251 2.39254 2.59542 2.59063 2.61599 2.67486 2.64292 2.70685 2.60272 2.2678 1.5412 0.424692 0.00824605 8.60959e-07 5.06521e-12 3.20928e-17 1.47513e-20 0 -1.47513e-20 1.47513e-20 -3.00927e-20 3.00927e-20 -1.47513e-20 1.47513e-20 -1.47513e-20 1.47513e-20 -3.00927e-20 3.00927e-20 0 0 -3.00927e-20 3.00927e-20 -3.00927e-20 3.00927e-20 0 0 0 0.417665 1.74139 1.25556 1.52654 1.69508 1.86617 1.84366 1.93305 2.04103 2.07619 2.13961 2.18598 2.31943 2.33984 2.33856 2.42906 2.54475 2.59415 2.61381 2.66864 2.64552 2.70244 2.59439 2.2535 1.51908 0.403497 0.00734923 7.27046e-07 4.54263e-12 2.82096e-17 1.47513e-20 0 -1.47513e-20 1.47513e-20 -3.00927e-20 3.00927e-20 -1.47513e-20 1.47513e-20 -1.47513e-20 1.47513e-20 -3.00927e-20 3.00927e-20 0 0 -3.00927e-20 3.00927e-20 -3.00927e-20 3.00927e-20 0 0 0 0.846972 0.496629 1.4363 1.33548 1.55896 1.75655 1.81663 1.89414 2.00291 2.06465 2.1148 2.22771 2.27133 2.28392 2.36799 2.47841 2.45086 2.60156 2.59894 2.65425 2.65075 2.68978 2.56898 2.20918 1.45088 0.343741 0.00517316 4.37641e-07 3.24825e-12 2.1194e-17 -7.67069e-21 3.09778e-20 -2.33071e-20 -7.67069e-21 -1.50463e-20 1.50463e-20 3.86485e-20 -3.86485e-20 7.67069e-21 -7.67069e-21 -1.50463e-20 4.60241e-20 -3.09778e-20 0 1.59314e-20 -1.59314e-20 1.59314e-20 -1.59314e-20 0 0 0 0.779386 1.04459 0.645372 1.18874 1.42464 1.60522 1.73637 1.84293 1.93444 2.02567 2.12777 2.19124 2.24355 2.23627 2.40416 2.43354 2.4282 2.56954 2.58139 2.63105 2.65775 2.6678 2.52626 2.13056 1.33085 0.257359 0.00282963 1.88178e-07 1.8166e-12 3.86679e-18 1.59314e-20 0 -1.59314e-20 1.59314e-20 -3.09778e-20 3.09778e-20 -1.62265e-20 1.62265e-20 -1.59314e-20 1.59314e-20 -3.09778e-20 3.09778e-20 0 0 -3.12728e-20 3.12728e-20 -3.12728e-20 3.12728e-20 0 0 0 0.378027 0.849791 1.16416 0.967305 1.27105 1.52168 1.65079 1.76586 1.88 1.98872 2.0807 2.15701 2.17291 2.27177 2.34936 2.37987 2.44686 2.50153 2.56304 2.6037 2.65513 2.63762 2.46516 2.01365 1.15019 0.163903 0.00117226 5.88626e-08 7.8346e-13 -5.13297e-18 0 -3.09778e-20 3.09778e-20 0 -3.09778e-20 3.09778e-20 3.06827e-20 -3.06827e-20 0 0 -3.09778e-20 0 3.09778e-20 0 -2.95026e-22 2.95026e-22 -6.22506e-20 6.22506e-20 0 0 0 0.366516 0.689173 0.905271 1.25466 1.2505 1.48177 1.57371 1.68912 1.80347 1.92507 2.01789 2.07497 2.18449 2.24514 2.27617 2.35058 2.44823 2.43649 2.53486 2.57629 2.64159 2.5913 2.37975 1.85739 0.90542 0.0850586 0.000354704 1.41828e-08 2.62309e-13 3.08214e-20 -3.09778e-20 6.19555e-20 -3.09778e-20 -3.09778e-20 0 0 9.29333e-20 -9.29333e-20 3.09778e-20 -3.09778e-20 0 6.19555e-20 -6.19555e-20 0 6.19555e-20 -6.19555e-20 6.19555e-20 -6.19555e-20 0 0 0 0.333946 0.621662 0.907517 0.986121 1.3262 1.41873 1.53563 1.60982 1.71219 1.84375 1.94898 2.04955 2.15324 2.19884 2.20168 2.36184 2.38789 2.4341 2.47881 2.55923 2.6104 2.5225 2.25331 1.65499 0.617044 0.0342487 7.4411e-05 2.83271e-09 6.99129e-14 2.89411e-23 6.19555e-20 -6.19555e-20 6.19555e-20 -6.19555e-20 0 6.19555e-20 -1.23911e-19 1.23911e-19 -6.19555e-20 0 6.19555e-20 -6.19555e-20 6.19555e-20 0 -6.19555e-20 0 6.19555e-20 -6.19555e-20 0 0 0 0.277229 0.602136 0.792278 1.06733 1.09419 1.36853 1.48252 1.59751 1.64588 1.77504 1.8905 2.01717 2.08379 2.10302 2.21776 2.28192 2.35345 2.43428 2.42809 2.53792 2.55284 2.43312 2.07701 1.37646 0.34139 0.0101522 1.00705e-05 4.57981e-10 1.47673e-14 -6.1695e-20 6.19555e-20 -6.19555e-20 0 6.19555e-20 -6.19555e-20 6.19555e-20 -1.23911e-19 1.23911e-19 -6.19555e-20 6.19555e-20 -6.19555e-20 0 6.19555e-20 0 -1.23911e-19 1.23911e-19 -1.23911e-19 1.23911e-19 0 0 0 0.272972 0.544619 0.788225 0.93384 1.19515 1.17867 1.44855 1.54282 1.70234 1.77255 1.85203 1.947 1.98122 2.09088 2.17473 2.21719 2.32665 2.4059 2.41326 2.50703 2.4715 2.30123 1.85472 0.996817 0.142955 0.0020774 8.27201e-07 5.24049e-11 2.29843e-15 -6.19555e-20 0 6.19555e-20 -6.19555e-20 0 6.19555e-20 -1.23911e-19 1.85572e-19 -1.85572e-19 6.19555e-20 1.23911e-19 -1.23911e-19 0 -6.19555e-20 1.23911e-19 -6.19555e-20 1.23911e-19 -2.47822e-19 2.47822e-19 -1.23911e-19 0 0 0.256671 0.522802 0.723718 0.927486 1.06575 1.29038 1.26776 1.54996 1.65211 1.79825 1.82588 1.84935 1.95437 2.07414 2.12289 2.1877 2.31268 2.34424 2.43282 2.44213 2.37565 2.10356 1.55724 0.572419 0.0423005 0.000266965 4.47737e-08 3.95659e-12 2.26279e-16 6.19555e-20 -6.19555e-20 0 6.19555e-20 -6.19555e-20 0 0 1.85572e-19 -1.85572e-19 6.19555e-20 -6.19555e-20 0 0 0 0 1.23911e-19 -1.23911e-19 0 0 0 0 0 0.234923 0.48274 0.687035 0.8782 1.06084 1.1788 1.40204 1.42967 1.62572 1.75379 1.76024 1.8879 1.98051 2.02282 2.09234 2.21167 2.24288 2.35173 2.4025 2.38065 2.2279 1.86142 1.12426 0.236927 0.00824653 1.8878e-05 2.37424e-09 2.37404e-13 1.24249e-19 -6.19555e-20 6.19555e-20 -1.23911e-19 1.23911e-19 6.19555e-20 -2.47822e-19 2.47822e-19 -1.23911e-19 0 1.23911e-19 -2.47822e-19 1.23911e-19 1.23911e-19 -1.23911e-19 0 0 0 1.23911e-19 -2.47822e-19 2.47822e-19 0 0 0.219018 0.447391 0.661692 0.840484 1.01366 1.17015 1.29513 1.51965 1.50678 1.61425 1.839 1.84966 1.9158 1.99572 2.10405 2.17594 2.25033 2.32834 2.35362 2.27719 2.0261 1.52944 0.616512 0.0650603 0.00094435 6.62683e-07 1.16602e-10 1.4388e-14 2.82266e-22 0 0 1.23616e-19 -1.23616e-19 0 0 0 0 0 0 0 0 1.23911e-19 -1.23911e-19 0 0 0 1.23911e-19 -1.23911e-19 0 0 0 0.206621 0.432838 0.626612 0.806229 0.964415 1.13735 1.30557 1.39203 1.52221 1.58487 1.70089 1.91501 1.89196 2.0002 2.09729 2.13758 2.24914 2.30206 2.26452 2.11455 1.75711 1.03311 0.228514 0.0107895 5.42825e-05 1.45292e-08 3.49406e-12 6.42991e-16 -6.19555e-20 1.23911e-19 -1.23911e-19 -2.95026e-22 2.95026e-22 0 1.23911e-19 -1.23911e-19 -1.23911e-19 2.47822e-19 -1.23911e-19 1.23911e-19 -1.23911e-19 -1.23911e-19 2.47822e-19 -1.23911e-19 1.23911e-19 -1.23911e-19 -1.23911e-19 3.71143e-19 -3.71143e-19 0 0 0.201959 0.407505 0.591583 0.76419 0.946728 1.11654 1.2396 1.34378 1.42405 1.63827 1.61866 1.77418 1.91195 1.99304 2.03408 2.14178 2.22122 2.22682 2.14112 1.86633 1.35065 0.489426 0.0511761 0.000968354 1.26504e-06 3.98196e-10 8.94423e-14 2.47421e-19 -1.23911e-19 0 1.23911e-19 -2.47822e-19 2.47822e-19 -1.23911e-19 0 1.23911e-19 -2.47822e-19 2.47822e-19 -1.23911e-19 0 1.23911e-19 -2.47822e-19 2.47822e-19 0 -1.23911e-19 0 -5.90053e-22 0 5.90053e-22 0 0 0.183782 0.373113 0.560263 0.749189 0.924204 1.05051 1.17801 1.30122 1.45024 1.50042 1.63372 1.72435 1.87324 1.89616 2.01754 2.10643 2.15801 2.10339 1.92136 1.53383 0.76848 0.13919 0.00652543 3.51665e-05 1.60926e-08 7.11226e-12 2.45813e-15 -1.23892e-19 0 0 0 1.23911e-19 -1.23911e-19 0 0 0 0 0 0 0 1.23911e-19 0 -1.23911e-19 0 0 0 -5.90053e-22 -1.23321e-19 2.47822e-19 0 0 0.171256 0.36607 0.560157 0.731463 0.862277 1.00004 1.14301 1.29658 1.35872 1.49358 1.5775 1.70538 1.78685 1.88389 1.96037 2.02281 2.01683 1.91847 1.5923 0.999867 0.259159 0.0235714 0.000331801 4.97373e-07 2.5405e-10 1.02634e-13 4.13717e-17 -2.47822e-19 2.47822e-19 -1.23911e-19 0 1.23911e-19 -2.47822e-19 2.47822e-19 -1.23911e-19 0 0 0 0 1.23911e-19 -2.47822e-19 2.47822e-19 -1.23911e-19 0 -1.23911e-19 2.47822e-19 -2.47822e-19 2.47822e-19 0 0 0 0.18186 0.363485 0.530041 0.683694 0.837226 0.985571 1.12125 1.20977 1.3624 1.43779 1.58182 1.61774 1.73775 1.88309 1.87632 1.91151 1.8154 1.57533 1.13393 0.367876 0.0556096 0.00144405 7.41155e-06 3.64357e-09 2.81455e-12 1.51174e-15 1.2393e-19 -1.23911e-19 0 0 0 0 1.23321e-19 -1.23321e-19 0 -1.23911e-19 3.71143e-19 -1.23321e-19 -2.47822e-19 2.47822e-19 -2.47822e-19 0 2.47822e-19 0 -2.47822e-19 2.47822e-19 0 -2.47822e-19 2.47822e-19 0 0 0.17507 0.334811 0.494229 0.662561 0.810741 0.943802 1.06755 1.21537 1.31542 1.43693 1.48428 1.65626 1.68924 1.75302 1.82526 1.6842 1.52655 1.12144 0.436672 0.0910131 0.00366626 5.00643e-05 3.16989e-08 4.71631e-11 2.49622e-14 -1.01324e-17 -2.47822e-19 2.47822e-19 -1.23911e-19 0 0 0 1.23321e-19 -2.47232e-19 2.47822e-19 -2.47822e-19 3.71143e-19 -3.71143e-19 1.23911e-19 1.23911e-19 0 -2.47822e-19 0 2.47822e-19 0 0 -2.47822e-19 2.47232e-19 -2.47232e-19 0 0 0.160997 0.325534 0.485067 0.628947 0.762014 0.904694 1.05512 1.16924 1.28814 1.37849 1.52229 1.53413 1.66183 1.61413 1.56974 1.43604 1.04072 0.453998 0.105612 0.00650863 0.000157208 1.68814e-07 3.85198e-10 2.00561e-13 2.36511e-16 1.23916e-19 -2.47822e-19 1.23911e-19 0 1.23321e-19 -1.23321e-19 1.23911e-19 -2.47822e-19 1.23911e-19 1.23911e-19 0 -2.47822e-19 0 4.95054e-19 -4.95054e-19 0 2.47822e-19 -5.90053e-22 -2.47232e-19 2.47822e-19 -2.47822e-19 2.47232e-19 0 -2.47232e-19 0 0 0.15417 0.306932 0.454497 0.599828 0.740012 0.875374 0.998403 1.13093 1.2496 1.3696 1.41218 1.5093 1.44014 1.45331 1.22781 0.937475 0.399598 0.101856 0.00797547 0.000233798 5.42768e-07 1.47897e-09 9.88465e-13 2.44789e-15 4.0887e-23 0 1.23911e-19 -2.47822e-19 1.23911e-19 1.23321e-19 -1.23321e-19 0 0 1.23911e-19 -2.47822e-19 2.47822e-19 -5.90053e-22 5.90053e-22 -5.90053e-22 -2.47232e-19 0 2.47822e-19 -5.90053e-22 -2.47232e-19 2.47822e-19 -2.47822e-19 2.47232e-19 -2.47232e-19 2.47822e-19 0 0 0.148145 0.294112 0.436808 0.57576 0.713579 0.851704 0.988724 1.11078 1.2077 1.27314 1.33358 1.29258 1.26536 1.03091 0.765636 0.289749 0.0840624 0.00634283 0.000233148 8.52976e-07 2.44045e-09 3.14589e-12 1.0254e-14 -2.02656e-17 0 -2.47822e-19 2.47822e-19 -1.23911e-19 1.23911e-19 -3.71733e-19 3.71733e-19 -1.23911e-19 1.23911e-19 0 -2.47822e-19 0 2.47232e-19 5.90053e-22 -2.47822e-19 2.47822e-19 -2.47822e-19 2.47822e-19 -2.47822e-19 2.47822e-19 0 -2.47822e-19 0 2.47822e-19 0 0 0 0.140777 0.28139 0.421709 0.559899 0.696825 0.827769 0.94241 1.04298 1.11286 1.14495 1.11659 1.04917 0.820479 0.534113 0.188993 0.0505039 0.00343918 0.000156428 5.40842e-07 2.43667e-09 5.02898e-12 1.73719e-14 -2.04449e-17 -1.23321e-19 0 0 1.23911e-19 -1.23911e-19 1.23911e-19 -2.47822e-19 2.47822e-19 -2.47822e-19 2.47822e-19 0 -2.47822e-19 2.47232e-19 -2.47232e-19 0 2.47822e-19 -2.47822e-19 2.47232e-19 5.90053e-22 -2.47822e-19 2.47822e-19 -2.47822e-19 2.47232e-19 5.90053e-22 -2.47822e-19 2.47822e-19 0 0 0.137632 0.273487 0.406434 0.533649 0.654481 0.763195 0.855677 0.917021 0.940113 0.907287 0.796882 0.568301 0.315702 0.102062 0.0211263 0.00135491 4.97847e-05 1.66628e-07 1.47465e-09 3.13169e-12 1.73305e-14 1.2592e-19 1.23321e-19 -1.23321e-19 0 1.23911e-19 -1.23911e-19 -1.23911e-19 2.47822e-19 0 -2.47822e-19 2.47232e-19 -2.47232e-19 2.47822e-19 -2.47822e-19 4.95054e-19 -4.95054e-19 0 2.47822e-19 -2.47822e-19 4.95054e-19 -4.95054e-19 0 2.47822e-19 -2.47822e-19 4.95054e-19 -4.95054e-19 2.47232e-19 -2.47232e-19 0 0 0.126058 0.249595 0.36821 0.478401 0.573584 0.647286 0.693721 0.702141 0.643831 0.508184 0.31934 0.146626 0.039254 0.00589455 0.000317598 7.35558e-06 3.1024e-08 3.83634e-10 9.72893e-13 1.02544e-14 -2.04449e-17 -1.23321e-19 0 0 0 0 1.23321e-19 -1.23321e-19 -1.23911e-19 2.47822e-19 -2.47822e-19 4.95054e-19 -4.95054e-19 0 2.47822e-19 -2.47822e-19 2.47232e-19 5.90053e-22 -2.47822e-19 2.47822e-19 -2.47822e-19 2.47232e-19 5.90053e-22 -2.47822e-19 2.47822e-19 -2.47822e-19 2.47232e-19 0 -2.47232e-19 0 0 0.103773 0.203296 0.294222 0.37121 0.426257 0.446506 0.4201 0.346909 0.242805 0.128506 0.0448944 0.00887967 0.000898564 3.41981e-05 4.90671e-07 3.55517e-09 4.68159e-11 1.96097e-13 2.48892e-15 -2.05134e-17 1.23321e-19 -1.23321e-19 0 0 0 0 -5.90053e-22 1.24501e-19 -2.47822e-19 2.47822e-19 0 -2.47822e-19 2.47822e-19 -2.47822e-19 2.47822e-19 -2.47822e-19 2.47232e-19 5.90053e-22 -2.47822e-19 2.47822e-19 -2.47822e-19 2.47232e-19 5.90053e-22 -2.47822e-19 2.47822e-19 -2.47822e-19 2.47232e-19 -2.47232e-19 2.47822e-19 0 0 0.0650786 0.123179 0.167059 0.190491 0.19055 0.168056 0.124663 0.0702728 0.0268039 0.00638617 0.000835883 5.17791e-05 1.23407e-06 1.56038e-08 2.4867e-10 2.76816e-12 2.44689e-14 2.36263e-16 2.47863e-19 0 -2.47822e-19 2.47822e-19 -2.47822e-19 2.47822e-19 0 0 -4.95644e-19 4.95644e-19 0 0 0 -4.95644e-19 4.95644e-19 0 0 0 -4.95644e-19 4.95644e-19 0 0 0 -4.95644e-19 4.95644e-19 0 0 0 -4.95644e-19 7.42877e-19 -4.95054e-19 0 0 0.0203089 0.0364384 0.0446473 0.0425423 0.0312844 0.0168899 0.00635194 0.00156608 0.000229977 1.75771e-05 6.34599e-07 1.37534e-08 3.84343e-10 6.91478e-12 9.9673e-14 1.53226e-15 -1.01324e-17 -1.23909e-19 0 0 0 1.23911e-19 -2.47822e-19 2.47822e-19 0 -2.47822e-19 2.47232e-19 -2.47232e-19 2.47822e-19 0 -2.47822e-19 2.47232e-19 -2.47232e-19 2.47822e-19 0 -2.47822e-19 2.47232e-19 -2.47232e-19 2.47822e-19 0 -2.47822e-19 2.47232e-19 -2.47232e-19 2.47822e-19 0 -2.47822e-19 0 2.47232e-19 0 0 0 0.000877772 0.00125612 0.00104978 0.000587911 0.000223443 5.57427e-05 8.49753e-06 7.42197e-07 4.02582e-08 2.14827e-09 1.09814e-10 3.32129e-12 8.4609e-14 2.37564e-15 4.11238e-17 1.2393e-19 -2.47822e-19 2.47822e-19 -1.23911e-19 0 1.23911e-19 -1.23911e-19 1.23321e-19 -2.47232e-19 0 2.47232e-19 0 0 -2.47232e-19 0 2.47232e-19 0 0 -2.47232e-19 0 2.47232e-19 0 0 -2.47232e-19 0 2.47232e-19 0 0 5.90053e-22 -2.47822e-19 0 4.95054e-19 -7.42877e-19 4.95054e-19 0 0 1.33893e-07 1.55472e-07 9.39655e-08 3.53432e-08 9.33625e-09 2.01418e-09 3.60658e-10 4.49428e-11 3.50972e-12 2.09913e-13 1.31025e-14 6.4262e-16 2.47382e-19 -1.23597e-19 0 1.23616e-19 -2.47822e-19 1.24206e-19 0 1.23616e-19 -1.23616e-19 -1.23911e-19 3.70848e-19 -3.71143e-19 0 2.47527e-19 0 0 -2.47527e-19 0 2.47527e-19 -2.47527e-19 4.95054e-19 -4.95054e-19 0 2.47527e-19 -2.47527e-19 2.47527e-19 -2.47527e-19 2.47527e-19 0 -2.47527e-19 2.47527e-19 2.95026e-22 -4.95349e-19 7.42877e-19 -2.47822e-19 -4.95054e-19 4.95054e-19 0 0 5.22586e-13 7.71805e-13 6.59888e-13 3.73267e-13 1.47873e-13 4.45227e-14 1.0623e-14 1.84588e-15 2.26156e-16 1.23392e-19 -1.23629e-19 1.85867e-19 -1.23911e-19 2.95026e-22 0 -2.95026e-22 1.23911e-19 -2.47527e-19 1.23911e-19 1.23616e-19 -1.23616e-19 0 -1.24206e-19 2.47822e-19 0 -2.47527e-19 2.47232e-19 -2.47232e-19 2.47527e-19 0 -2.47527e-19 2.47527e-19 -2.47822e-19 2.47822e-19 0 -2.47527e-19 -2.95026e-22 2.95026e-22 2.47527e-19 -2.95026e-22 0 2.95026e-22 -2.47527e-19 -2.95026e-22 2.47527e-19 0 -4.95054e-19 4.95054e-19 0 0 0 3.8832e-18 3.14715e-18 1.41647e-17 -5.13312e-18 -3.06757e-20 -4.89794e-22 6.22161e-20 -6.19555e-20 6.19555e-20 -6.19555e-20 0 1.23911e-19 -2.47822e-19 2.47822e-19 -1.23911e-19 0 0 1.23321e-19 -1.23321e-19 -1.23911e-19 2.47822e-19 0 -2.47822e-19 2.47822e-19 0 0 -4.95644e-19 4.95644e-19 0 0 -2.47822e-19 2.47822e-19 -2.47822e-19 2.47822e-19 -2.47822e-19 2.47822e-19 -5.90053e-22 5.90053e-22 -2.47822e-19 2.47232e-19 -4.94759e-19 7.42581e-19 -4.95054e-19 2.47232e-19 0 -4.95054e-19 4.95054e-19 4.95054e-19 -9.90109e-19 0 0 0 -7.67069e-21 1.59314e-20 0 -3.09778e-20 6.19555e-20 -6.19555e-20 0 6.19555e-20 -6.19555e-20 0 1.23911e-19 -1.23911e-19 0 0 0 0 1.23321e-19 -1.23321e-19 -1.23911e-19 2.47822e-19 -2.47822e-19 2.47822e-19 0 0 -2.47822e-19 2.47232e-19 -2.47232e-19 2.47822e-19 -2.47822e-19 2.47232e-19 5.90053e-22 -2.47822e-19 2.47822e-19 -2.47822e-19 2.47822e-19 -5.90053e-22 5.90053e-22 -2.47822e-19 2.47232e-19 -4.94759e-19 4.94759e-19 0 0 -4.95054e-19 4.95054e-19 0 0 0 0 0 0 8.85079e-22 0 -3.09778e-20 6.19555e-20 -6.19555e-20 6.19555e-20 -6.19555e-20 0 0 1.23321e-19 -2.47232e-19 2.47822e-19 -1.23911e-19 1.23911e-19 -2.47822e-19 2.47822e-19 -1.23911e-19 0 1.23911e-19 -2.47822e-19 2.47232e-19 5.90053e-22 -2.47822e-19 0 2.47232e-19 0 -2.47232e-19 2.47822e-19 -2.47822e-19 4.95054e-19 -4.95054e-19 0 2.47822e-19 0 -2.47822e-19 2.47232e-19 -2.47232e-19 2.47822e-19 -4.95644e-19 9.90109e-19 -9.90109e-19 4.95054e-19 0 0 0 0 -4.95054e-19 4.95054e-19 0 0 0 2.33071e-20 -4.60241e-20 3.09778e-20 3.09778e-20 -6.19555e-20 0 6.19555e-20 -6.19555e-20 0 1.23321e-19 -2.47232e-19 2.47822e-19 -1.23911e-19 0 1.23321e-19 -1.23321e-19 0 0 1.23911e-19 -2.47822e-19 2.47232e-19 5.90053e-22 -2.47822e-19 0 2.47232e-19 0 5.90053e-22 -2.47822e-19 2.47822e-19 -2.47822e-19 0 4.95054e-19 -4.95054e-19 2.47822e-19 -4.95644e-19 7.42877e-19 -2.47822e-19 -2.47232e-19 2.47232e-19 0 -4.95054e-19 4.95054e-19 0 0 0 0 -4.95054e-19 4.95054e-19 0 0 0 -7.67069e-21 1.59314e-20 0 -3.09778e-20 6.19555e-20 -6.19555e-20 0 6.19555e-20 6.19555e-20 -2.47822e-19 2.47822e-19 -1.23911e-19 0 0 1.23321e-19 -2.47232e-19 1.23911e-19 1.23911e-19 0 0 -2.47822e-19 0 2.47822e-19 0 -2.47822e-19 2.47232e-19 5.90053e-22 -2.47822e-19 2.47822e-19 -2.47822e-19 2.47822e-19 -5.90053e-22 -2.47232e-19 0 2.47232e-19 -2.47232e-19 2.47232e-19 0 0 0 0 0 -4.95054e-19 4.95054e-19 0 -4.95054e-19 4.95054e-19 0 0 0 0 -1.50463e-20 3.09778e-20 -3.09778e-20 0 0 6.19555e-20 -6.19555e-20 2.95026e-22 0 -2.95026e-22 1.23911e-19 -2.47527e-19 2.47527e-19 -1.23616e-19 -2.95026e-22 0 1.23911e-19 -2.47527e-19 2.47527e-19 -2.47527e-19 2.47527e-19 -2.47822e-19 2.47822e-19 0 0 -4.95349e-19 4.95349e-19 0 -2.47527e-19 2.47527e-19 0 -2.47822e-19 2.95026e-22 2.47232e-19 0 0 -4.95054e-19 4.95054e-19 0 0 0 -4.95054e-19 4.95054e-19 0 0 -4.95054e-19 9.90109e-19 -9.90109e-19 0 0 0 -1.50463e-20 3.09778e-20 -3.09778e-20 0 6.19555e-20 -6.19555e-20 0 2.95026e-22 0 -2.95026e-22 1.23911e-19 -1.23616e-19 -2.95026e-22 2.95026e-22 -1.24206e-19 2.47822e-19 0 -2.47527e-19 -2.95026e-22 2.47527e-19 2.95026e-22 -2.47822e-19 2.47822e-19 0 -2.47822e-19 2.47527e-19 -2.47527e-19 2.47822e-19 -2.47527e-19 2.47527e-19 -2.47822e-19 0 2.47527e-19 0 0 0 0 -4.95054e-19 4.95054e-19 -4.95054e-19 4.95054e-19 0 0 0 -4.94759e-19 4.94759e-19 0 0 0 0 0 2.33071e-20 -4.63191e-20 9.32283e-20 -9.29333e-20 0 0 6.13655e-20 6.25456e-20 -1.23911e-19 0 -1.23911e-19 2.47822e-19 -2.47822e-19 2.47822e-19 -1.24501e-19 1.24501e-19 -2.47822e-19 4.95054e-19 -7.42877e-19 7.42877e-19 -4.95054e-19 2.47232e-19 -2.47232e-19 0 2.47232e-19 0 -2.47232e-19 0 4.95054e-19 -4.95054e-19 2.47232e-19 -2.47232e-19 2.47232e-19 0 0 -4.95054e-19 4.95054e-19 4.95054e-19 -9.90109e-19 0 4.95054e-19 4.95054e-19 -9.90109e-19 4.95054e-19 -4.94759e-19 9.89814e-19 -9.90109e-19 4.95054e-19 0 0 0 2.33071e-20 -4.63191e-20 9.32283e-20 -9.29333e-20 0 0 6.13655e-20 6.25456e-20 -2.47822e-19 2.47822e-19 -2.47822e-19 2.47822e-19 -2.47822e-19 2.47822e-19 1.23321e-19 -3.71143e-19 0 4.95054e-19 -4.95054e-19 0 0 4.95054e-19 -4.95054e-19 0 2.47232e-19 0 -2.47232e-19 0 4.95054e-19 -4.95054e-19 2.47232e-19 2.47822e-19 -7.42877e-19 4.95054e-19 0 -4.95054e-19 4.95054e-19 4.95054e-19 -9.90109e-19 4.95054e-19 0 -4.94759e-19 4.94759e-19 -4.95054e-19 9.90109e-19 -4.95054e-19 -4.95054e-19 4.95054e-19 0 0 0 -7.67069e-21 1.59314e-20 0 -3.09778e-20 6.19555e-20 -6.19555e-20 -6.19555e-20 1.85867e-19 -1.23911e-19 0 1.23911e-19 -1.23911e-19 0 0 0 -1.23911e-19 4.95054e-19 -4.95054e-19 2.47822e-19 -2.47822e-19 2.47822e-19 -2.47822e-19 2.47822e-19 0 -2.47822e-19 2.47232e-19 -2.47232e-19 2.47822e-19 -2.47822e-19 2.47822e-19 -2.47822e-19 2.47232e-19 0 -4.95054e-19 4.95054e-19 4.95054e-19 -4.95054e-19 -4.95054e-19 4.95054e-19 0 0 -4.94759e-19 4.94759e-19 0 0 -4.95054e-19 4.95054e-19 0 0 0 0 -7.67069e-21 1.59314e-20 0 -3.09778e-20 0 6.19555e-20 0 -6.19555e-20 0 0 1.23911e-19 -2.47822e-19 2.47822e-19 -1.23911e-19 0 1.23911e-19 -5.90053e-22 -2.47232e-19 2.47822e-19 -2.47822e-19 2.47822e-19 -2.47822e-19 2.47822e-19 0 0 -4.95644e-19 7.42877e-19 -4.95054e-19 2.47232e-19 -2.47232e-19 0 2.47232e-19 0 0 -4.95054e-19 9.90109e-19 -9.90109e-19 4.95054e-19 0 0 -4.95054e-19 4.95054e-19 0 0 0 -4.95054e-19 9.90109e-19 -9.90109e-19 0 0 0 -1.50463e-20 3.09778e-20 -3.09778e-20 0 6.19555e-20 -6.16605e-20 1.23616e-19 -2.47527e-19 1.23616e-19 2.95026e-22 1.23616e-19 -1.23911e-19 1.23911e-19 -2.47527e-19 2.47527e-19 0 -4.95349e-19 4.95349e-19 -2.47527e-19 2.47232e-19 2.95026e-22 -2.47527e-19 2.47527e-19 0 -2.47527e-19 2.47232e-19 0 0 -4.94759e-19 4.94759e-19 0 0 0 0 -4.95054e-19 0 4.95054e-19 0 0 -4.94759e-19 4.94759e-19 0 0 0 -4.94759e-19 4.94759e-19 0 0 0 0 0 1.59314e-20 -3.09778e-20 0 6.19555e-20 -6.19555e-20 2.95026e-22 -2.95026e-22 2.95026e-22 1.23616e-19 -1.23616e-19 -1.24206e-19 2.47822e-19 0 -2.47527e-19 -2.95026e-22 2.47822e-19 -2.47527e-19 2.47527e-19 -2.47527e-19 4.95054e-19 -4.95349e-19 2.47527e-19 -2.47527e-19 0 2.47527e-19 0 -2.47232e-19 4.95054e-19 -7.42581e-19 4.94759e-19 0 -4.95054e-19 9.90109e-19 -9.90109e-19 4.950