<?xml version="1.0"?>
<VTKFile type="PolyData">
	<PolyData>
		<Piece NumberOfPoints="2601" NumberOfPolys="2500">
			<Points>
				<DataArray type="Float32" NumberOfComponents="3" format="ascii">
 0 0 0 0.291918 0 0 0.244951 0 0 0.297076 0 0 0.30768 0 0 0.326741 0 0 0.344297 0 0 0.356906 0 0 0.370843 0 0 0.380259 0 0 0.391295 0 0 0.399029 0 0 0.407701 0 0 0.41486 0 0 0.422259 0 0 0.42806 0 0 0.433674 0 0 0.43873 0 0 0.443693 0 0 0.44814 0 0 0.452373 0 0 0.456377 0 0 0.461286 0 0 0.468775 0 0 0.481444 0 0 0.500025 0 0 0.52 0 0 0.54 0 0 0.56 0 0 0.58 0 0 0.6 0 0 0.62 0 0 0.64 0 0 0.66 0 0 0.68 0 0 0.7 0 0 0.72 0 0 0.74 0 0 0.76 0 0 0.78 0 0 0.8 0 0 0.82 0 0 0.84 0 0 0.86 0 0 0.88 0 0 0.9 0 0 0.92 0 0 0.94 0 0 0.96 0 0 0.98 0 0 1 0 0 0 0.291918 0 0.145716 0.145716 0 0.271244 0.119856 0 0.268578 0.107037 0 0.304077 0.0763365 0 0.323284 0.0678191 0 0.339513 0.060484 0 0.355556 0.0547355 0 0.366601 0.0500362 0 0.379488 0.0459862 0 0.388232 0.0421163 0 0.398281 0.0387977 0 0.40589 0.0359636 0 0.414112 0.0336568 0 0.420941 0.0316844 0 0.427202 0.0298677 0 0.432819 0.028221 0 0.43801 0.0266854 0 0.443032 0.0252969 0 0.447569 0.0240402 0 0.451829 0.0229178 0 0.455901 0.0219136 0 0.460896 0.0210612 0 0.468513 0.0204186 0 0.481355 0.0200843 0 0.500022 0.0200027 0 0.52 0.02 0 0.54 0.02 0 0.56 0.02 0 0.58 0.02 0 0.6 0.02 0 0.62 0.02 0 0.64 0.02 0 0.66 0.02 0 0.68 0.02 0 0.7 0.02 0 0.72 0.02 0 0.74 0.02 0 0.76 0.02 0 0.78 0.02 0 0.8 0.02 0 0.82 0.02 0 0.84 0.02 0 0.86 0.02 0 0.88 0.02 0 0.9 0.02 0 0.92 0.02 0 0.94 0.02 0 0.96 0.02 0 0.98 0.02 0 1 0.02 0 0 0.244951 0 0.119856 0.271244 0 0.167196 0.167196 0 0.255475 0.175385 0 0.281214 0.149416 0 0.30695 0.129801 0 0.328604 0.116848 0 0.34393 0.107119 0 0.359943 0.0979723 0 0.371165 0.0898299 0 0.383686 0.0826874 0 0.392629 0.0763964 0 0.402528 0.0710946 0 0.410383 0.0666429 0 0.417885 0.062723 0 0.424362 0.0592597 0 0.430502 0.0560481 0 0.435818 0.0530515 0 0.441107 0.0503181 0 0.445839 0.0478444 0 0.450233 0.0456304 0 0.454494 0.0436634 0 0.459749 0.0419995 0 0.467749 0.0407624 0 0.481114 0.040144 0 0.500015 0.0400038 0 0.52 0.04 0 0.54 0.04 0 0.56 0.04 0 0.58 0.04 0 0.6 0.04 0 0.62 0.04 0 0.64 0.04 0 0.66 0.04 0 0.68 0.04 0 0.7 0.04 0 0.72 0.04 0 0.74 0.04 0 0.76 0.04 0 0.78 0.04 0 0.8 0.04 0 0.82 0.04 0 0.84 0.04 0 0.86 0.04 0 0.88 0.04 0 0.9 0.04 0 0.92 0.04 0 0.94 0.04 0 0.96 0.04 0 0.98 0.04 0 1 0.04 0 0 0.297076 0 0.107037 0.268578 0 0.175385 0.255475 0 0.187854 0.187854 0 0.247768 0.207837 0 0.286121 0.178482 0 0.308911 0.166829 0 0.330855 0.152351 0 0.346547 0.14131 0 0.362658 0.130286 0 0.374046 0.120602 0 0.386417 0.112053 0 0.395755 0.104839 0 0.405189 0.0984825 0 0.412629 0.0929209 0 0.420172 0.0878745 0 0.426523 0.0831754 0 0.432431 0.0787893 0 0.437922 0.0748048 0 0.443023 0.0711971 0 0.44764 0.0679705 0 0.452224 0.0651105 0 0.457911 0.062713 0 0.466558 0.0609728 0 0.480789 0.060163 0 0.500008 0.0600031 0 0.52 0.06 0 0.54 0.06 0 0.56 0.06 0 0.58 0.06 0 0.6 0.06 0 0.62 0.06 0 0.64 0.06 0 0.66 0.06 0 0.68 0.06 0 0.7 0.06 0 0.72 0.06 0 0.74 0.06 0 0.76 0.06 0 0.78 0.06 0 0.8 0.06 0 0.82 0.06 0 0.84 0.06 0 0.86 0.06 0 0.88 0.06 0 0.9 0.06 0 0.92 0.06 0 0.94 0.06 0 0.96 0.06 0 0.98 0.06 0 1 0.06 0 0 0.30768 0 0.0763365 0.304077 0 0.149416 0.281214 0 0.207837 0.247768 0 0.213068 0.213068 0 0.256793 0.227205 0 0.291111 0.200156 0 0.312781 0.192373 0 0.333897 0.177618 0 0.349183 0.166645 0 0.364833 0.155178 0 0.376226 0.145576 0 0.388161 0.136623 0 0.397251 0.128962 0 0.406336 0.121804 0 0.41411 0.115368 0 0.421308 0.109217 0 0.427857 0.103672 0 0.433685 0.0985293 0 0.439192 0.0939511 0 0.44413 0.0898034 0 0.449173 0.0861536 0 0.455487 0.0831253 0 0.465063 0.0810206 0 0.480466 0.0801399 0 0.500003 0.0800017 0 0.52 0.08 0 0.54 0.08 0 0.56 0.08 0 0.58 0.08 0 0.6 0.08 0 0.62 0.08 0 0.64 0.08 0 0.66 0.08 0 0.68 0.08 0 0.7 0.08 0 0.72 0.08 0 0.74 0.08 0 0.76 0.08 0 0.78 0.08 0 0.8 0.08 0 0.82 0.08 0 0.84 0.08 0 0.86 0.08 0 0.88 0.08 0 0.9 0.08 0 0.92 0.08 0 0.94 0.08 0 0.96 0.08 0 0.98 0.08 0 1 0.08 0 0 0.326741 0 0.0678191 0.323284 0 0.129801 0.30695 0 0.178482 0.286121 0 0.227205 0.256793 0 0.23627 0.23627 0 0.269581 0.240954 0 0.296921 0.218172 0 0.317094 0.211846 0 0.336904 0.197158 0 0.351455 0.187146 0 0.36645 0.175665 0 0.377504 0.166394 0 0.389072 0.15706 0 0.398321 0.149053 0 0.40714 0.14114 0 0.414946 0.134071 0 0.422256 0.127441 0 0.428525 0.121419 0 0.434442 0.115975 0 0.439784 0.111042 0 0.445433 0.106706 0 0.452616 0.103188 0 0.463455 0.10091 0 0.480221 0.100091 0 0.500001 0.100001 0 0.52 0.1 0 0.54 0.1 0 0.56 0.1 0 0.58 0.1 0 0.6 0.1 0 0.62 0.1 0 0.64 0.1 0 0.66 0.1 0 0.68 0.1 0 0.7 0.1 0 0.72 0.1 0 0.74 0.1 0 0.76 0.1 0 0.78 0.1 0 0.8 0.1 0 0.82 0.1 0 0.84 0.1 0 0.86 0.1 0 0.88 0.1 0 0.9 0.1 0 0.92 0.1 0 0.94 0.1 0 0.96 0.1 0 0.98 0.1 0 1 0.1 0 0 0.344297 0 0.060484 0.339513 0 0.116848 0.328604 0 0.166829 0.308911 0 0.200156 0.291111 0 0.240954 0.269581 0 0.253681 0.253681 0 0.28048 0.253216 0 0.302995 0.233235 0 0.321259 0.22786 0 0.339718 0.212948 0 0.353461 0.203967 0 0.367865 0.192304 0 0.378898 0.18347 0 0.390097 0.1738 0 0.399033 0.165493 0 0.407907 0.157403 0 0.41554 0.150133 0 0.422593 0.143348 0 0.428817 0.137197 0 0.434747 0.131582 0 0.44114 0.126711 0 0.449471 0.122884 0 0.46199 0.120682 0 0.48008 0.120043 0 0.5 0.12 0 0.52 0.12 0 0.54 0.12 0 0.56 0.12 0 0.58 0.12 0 0.6 0.12 0 0.62 0.12 0 0.64 0.12 0 0.66 0.12 0 0.68 0.12 0 0.7 0.12 0 0.72 0.12 0 0.74 0.12 0 0.76 0.12 0 0.78 0.12 0 0.8 0.12 0 0.82 0.12 0 0.84 0.12 0 0.86 0.12 0 0.88 0.12 0 0.9 0.12 0 0.92 0.12 0 0.94 0.12 0 0.96 0.12 0 0.98 0.12 0 1 0.12 0 0 0.356906 0 0.0547355 0.355556 0 0.107119 0.34393 0 0.152351 0.330855 0 0.192373 0.312781 0 0.218172 0.296921 0 0.253216 0.28048 0 0.268168 0.268168 0 0.289683 0.263695 0 0.30914 0.245631 0 0.325493 0.240781 0 0.342596 0.225718 0 0.355804 0.217926 0 0.369603 0.20606 0 0.38013 0.19746 0 0.390943 0.187766 0 0.399763 0.179593 0 0.408255 0.171503 0 0.415771 0.164307 0 0.422545 0.157461 0 0.429145 0.151361 0 0.436532 0.146127 0 0.446298 0.142275 0 0.460912 0.140407 0 0.480021 0.140014 0 0.5 0.14 0 0.52 0.14 0 0.54 0.14 0 0.56 0.14 0 0.58 0.14 0 0.6 0.14 0 0.62 0.14 0 0.64 0.14 0 0.66 0.14 0 0.68 0.14 0 0.7 0.14 0 0.72 0.14 0 0.74 0.14 0 0.76 0.14 0 0.78 0.14 0 0.8 0.14 0 0.82 0.14 0 0.84 0.14 0 0.86 0.14 0 0.88 0.14 0 0.9 0.14 0 0.92 0.14 0 0.94 0.14 0 0.96 0.14 0 0.98 0.14 0 1 0.14 0 0 0.370843 0 0.0500362 0.366601 0 0.0979723 0.359943 0 0.14131 0.346547 0 0.177618 0.333897 0 0.211846 0.317094 0 0.233235 0.302995 0 0.263695 0.289683 0 0.279898 0.279898 0 0.298047 0.272306 0 0.315243 0.256018 0 0.33065 0.251279 0 0.346137 0.236402 0 0.358327 0.229272 0 0.371303 0.217436 0 0.381508 0.209359 0 0.391603 0.199761 0 0.400298 0.19189 0 0.408436 0.183932 0 0.415781 0.176801 0 0.423232 0.170304 0 0.431867 0.165025 0 0.443491 0.161505 0 0.460311 0.160179 0 0.480004 0.160003 0 0.5 0.16 0 0.52 0.16 0 0.54 0.16 0 0.56 0.16 0 0.58 0.16 0 0.6 0.16 0 0.62 0.16 0 0.64 0.16 0 0.66 0.16 0 0.68 0.16 0 0.7 0.16 0 0.72 0.16 0 0.74 0.16 0 0.76 0.16 0 0.78 0.16 0 0.8 0.16 0 0.82 0.16 0 0.84 0.16 0 0.86 0.16 0 0.88 0.16 0 0.9 0.16 0 0.92 0.16 0 0.94 0.16 0 0.96 0.16 0 0.98 0.16 0 1 0.16 0 0 0.380259 0 0.0459862 0.379488 0 0.0898299 0.371165 0 0.130286 0.362658 0 0.166645 0.349183 0 0.197158 0.336904 0 0.22786 0.321259 0 0.245631 0.30914 0 0.272306 0.298047 0 0.28899 0.28899 0 0.305884 0.279601 0 0.321186 0.265268 0 0.335726 0.259501 0 0.349578 0.245314 0 0.361183 0.238802 0 0.373062 0.227211 0 0.382738 0.219513 0 0.392397 0.210313 0 0.400675 0.202594 0 0.40884 0.195001 0 0.417286 0.188596 0 0.427452 0.183541 0 0.441494 0.18079 0 0.460074 0.180052 0 0.48 0.18 0 0.5 0.18 0 0.52 0.18 0 0.54 0.18 0 0.56 0.18 0 0.58 0.18 0 0.6 0.18 0 0.62 0.18 0 0.64 0.18 0 0.66 0.18 0 0.68 0.18 0 0.7 0.18 0 0.72 0.18 0 0.74 0.18 0 0.76 0.18 0 0.78 0.18 0 0.8 0.18 0 0.82 0.18 0 0.84 0.18 0 0.86 0.18 0 0.88 0.18 0 0.9 0.18 0 0.92 0.18 0 0.94 0.18 0 0.96 0.18 0 0.98 0.18 0 1 0.18 0 0 0.391295 0 0.0421163 0.388232 0 0.0826874 0.383686 0 0.120602 0.374046 0 0.155178 0.364833 0 0.187146 0.351455 0 0.212948 0.339718 0 0.240781 0.325493 0 0.256018 0.315243 0 0.279601 0.305884 0 0.296152 0.296152 0 0.312497 0.285791 0 0.326274 0.273505 0 0.340363 0.266632 0 0.352757 0.253342 0 0.363664 0.246897 0 0.374738 0.23593 0 0.383955 0.228446 0 0.393114 0.219694 0 0.401863 0.212591 0 0.411644 0.206292 0 0.42378 0.202062 0 0.440453 0.200294 0 0.460011 0.200009 0 0.48 0.2 0 0.5 0.2 0 0.52 0.2 0 0.54 0.2 0 0.56 0.2 0 0.58 0.2 0 0.6 0.2 0 0.62 0.2 0 0.64 0.2 0 0.66 0.2 0 0.68 0.2 0 0.7 0.2 0 0.72 0.2 0 0.74 0.2 0 0.76 0.2 0 0.78 0.2 0 0.8 0.2 0 0.82 0.2 0 0.84 0.2 0 0.86 0.2 0 0.88 0.2 0 0.9 0.2 0 0.92 0.2 0 0.94 0.2 0 0.96 0.2 0 0.98 0.2 0 1 0.2 0 0 0.399029 0 0.0387977 0.398281 0 0.0763964 0.392629 0 0.112053 0.386417 0 0.145576 0.376226 0 0.175665 0.36645 0 0.203967 0.353461 0 0.225718 0.342596 0 0.251279 0.33065 0 0.265268 0.321186 0 0.285791 0.312497 0 0.302066 0.302066 0 0.317837 0.291361 0 0.330522 0.280688 0 0.344039 0.272955 0 0.355358 0.26077 0 0.365893 0.254238 0 0.376035 0.243907 0 0.385382 0.23678 0 0.395329 0.229301 0 0.406612 0.223972 0 0.4214 0.220883 0 0.44009 0.220071 0 0.460001 0.220001 0 0.48 0.22 0 0.5 0.22 0 0.52 0.22 0 0.54 0.22 0 0.56 0.22 0 0.58 0.22 0 0.6 0.22 0 0.62 0.22 0 0.64 0.22 0 0.66 0.22 0 0.68 0.22 0 0.7 0.22 0 0.72 0.22 0 0.74 0.22 0 0.76 0.22 0 0.78 0.22 0 0.8 0.22 0 0.82 0.22 0 0.84 0.22 0 0.86 0.22 0 0.88 0.22 0 0.9 0.22 0 0.92 0.22 0 0.94 0.22 0 0.96 0.22 0 0.98 0.22 0 1 0.22 0 0 0.407701 0 0.0359636 0.40589 0 0.0710946 0.402528 0 0.104839 0.395755 0 0.136623 0.388161 0 0.166394 0.377504 0 0.192304 0.367865 0 0.217926 0.355804 0 0.236402 0.346137 0 0.259501 0.335726 0 0.273505 0.326274 0 0.291361 0.317837 0 0.307357 0.307357 0 0.322195 0.296629 0 0.334047 0.286901 0 0.347124 0.278895 0 0.357337 0.267637 0 0.367858 0.261028 0 0.37815 0.252149 0 0.389332 0.246322 0 0.402835 0.241838 0 0.420347 0.240265 0 0.44001 0.240009 0 0.46 0.24 0 0.48 0.24 0 0.5 0.24 0 0.52 0.24 0 0.54 0.24 
[...]
			<PointData Scalars="VitesseX">
				<DataArray Name="VitesseX" type="Float32" format="ascii">
 0 2.35214 1.22655 1.87478 1.93432 1.89426 1.9503 2.11244 2.13262 2.17829 2.32048 2.39203 2.45388 2.45589 2.59756 2.7795 2.73531 2.75403 2.81269 2.82405 2.94126 2.88263 2.58553 1.86758 0.643427 0.0208155 5.52702e-06 3.17967e-11 -3.62679e-12 3.62696e-12 -1.06868e-12 1.07523e-12 -2.52574e-18 -1.07523e-12 1.06868e-12 -3.62696e-12 3.62696e-12 -1.06868e-12 1.0733e-12 -1.0733e-12 1.06868e-12 -3.62696e-12 3.62888e-12 6.56498e-15 -6.56502e-15 -3.62888e-12 3.62233e-12 -3.62233e-12 3.62888e-12 6.56748e-15 0 0 0.52513 1.78756 1.33719 1.8687 1.84563 1.96088 2.07592 2.12942 2.20477 2.29505 2.40803 2.40238 2.48931 2.61093 2.73315 2.73984 2.75214 2.80584 2.82626 2.93759 2.87374 2.56962 1.84223 0.613462 0.018611 4.63698e-06 2.8433e-11 -3.62731e-12 3.62744e-12 -1.07051e-12 1.07702e-12 -1.60105e-15 -1.07412e-12 1.0692e-12 -3.62744e-12 3.62744e-12 -1.07053e-12 1.07563e-12 -1.07564e-12 1.07052e-12 -3.62742e-12 3.62724e-12 6.51866e-15 -4.90051e-15 -3.62884e-12 3.62562e-12 -3.62562e-12 3.62885e-12 4.93617e-15 0 0 0.86041 0.637979 1.5323 1.57727 1.73515 1.87711 2.0232 2.08971 2.18167 2.31277 2.32983 2.38838 2.50385 2.62942 2.62161 2.76669 2.72817 2.80204 2.8244 2.92661 2.84532 2.52038 1.76483 0.527923 0.0132152 2.72849e-06 1.96234e-11 -3.62614e-12 1.81391e-12 1.28146e-12 -1.27818e-12 1.81393e-12 -5.35988e-13 -1.28126e-12 -1.81392e-12 1.81028e-12 1.28484e-12 -1.28089e-12 1.28102e-12 -1.28136e-12 -1.81389e-12 3.62724e-12 -1.81121e-12 -3.17384e-15 4.56522e-15 -1.25532e-14 1.25894e-14 -4.57882e-15 3.23017e-15 0 0 0.845414 1.12855 0.771482 1.27782 1.62935 1.76479 1.91108 2.04921 2.17379 2.25251 2.31325 2.35563 2.54008 2.55323 2.5819 2.74431 2.70316 2.80119 2.81752 2.90451 2.79501 2.4322 1.62963 0.401288 0.00731593 1.11492e-06 1.01364e-11 -1.81219e-12 1.81441e-12 3.23859e-15 -1.51784e-15 -6.10303e-16 5.03211e-16 -1.62696e-15 -1.81476e-12 1.81107e-12 -5.31193e-12 5.31612e-12 2.62307e-15 -3.17941e-15 -1.81449e-12 1.81398e-12 -1.14538e-15 1.27334e-16 -5.31399e-12 5.30744e-12 -5.30737e-12 5.31228e-12 3.27163e-15 0 0 0.433706 0.942162 1.33229 1.03058 1.42051 1.67138 1.81703 1.96495 2.10976 2.20034 2.25852 2.38194 2.45255 2.50653 2.57856 2.64795 2.70476 2.78244 2.81445 2.86386 2.7223 2.29864 1.42345 0.259901 0.00306876 3.13616e-07 2.16547e-12 3.72454e-16 1.81416e-12 3.7481e-16 1.52657e-15 -1.81616e-12 1.81447e-12 -4.62742e-16 -1.81426e-12 1.80989e-12 -5.31384e-12 5.31689e-12 1.86714e-15 -6.72722e-16 -1.814e-12 -6.70586e-16 1.81346e-12 -1.46718e-15 -5.31528e-12 5.31205e-12 -7.12648e-12 7.12969e-12 3.36339e-15 0 0 0.382042 0.749722 1.00658 1.44925 1.38046 1.5436 1.71763 1.8663 2.01915 2.13356 2.2458 2.30458 2.36805 2.47444 2.57281 2.54888 2.71402 2.73872 2.81046 2.79823 2.62276 2.11839 1.13334 0.136674 0.000937677 6.22157e-08 1.1551e-12 -1.82524e-12 9.30911e-15 1.81472e-12 -1.82249e-12 1.82373e-12 -1.08889e-14 -1.80533e-12 5.4462e-16 -1.2825e-14 1.82695e-12 -1.82529e-12 1.8255e-12 -1.81496e-12 -9.07401e-15 1.82371e-12 -1.82208e-12 4.76946e-15 1.81765e-12 -1.82247e-12 1.81924e-12 -1.81321e-12 2.21341e-15 0 0 0.349365 0.660481 1.00274 1.08785 1.45996 1.48966 1.67662 1.77386 1.94732 2.07002 2.16337 2.23261 2.29696 2.46754 2.49657 2.55067 2.65158 2.71459 2.78041 2.71792 2.4739 1.88526 0.776153 0.0552097 0.0001972 9.68373e-09 -1.03092e-11 1.056e-11 -1.81583e-12 9.50822e-15 1.80639e-12 -1.05603e-11 1.05603e-11 -1.8158e-12 9.43491e-15 1.8033e-12 -1.23731e-11 1.23747e-11 -1.80488e-12 -9.45582e-15 1.8158e-12 -1.05617e-11 1.05618e-11 -4.86369e-15 -1.80205e-12 -1.70584e-14 1.82858e-12 -1.81776e-12 6.78732e-15 0 0 0.311431 0.654292 0.885653 1.17165 1.18803 1.5566 1.58823 1.80877 1.89538 1.96597 2.0606 2.155 2.30482 2.36447 2.46505 2.55122 2.57705 2.69174 2.71445 2.61411 2.26811 1.55852 0.425067 0.0161528 2.62555e-05 1.30098e-09 4.61166e-14 -2.04633e-15 1.05587e-11 -1.80491e-12 1.80484e-12 -1.05587e-11 5.81059e-17 1.05602e-11 -1.82395e-12 1.82246e-12 -1.23904e-11 1.23887e-11 -1.80952e-12 1.81102e-12 -1.05585e-11 -9.39293e-15 1.05616e-11 -3.27592e-15 -1.23652e-11 1.23559e-11 -1.23556e-11 1.23556e-11 2.9848e-14 0 0 0.296118 0.590925 0.872712 1.05946 1.29594 1.32157 1.66079 1.7572 1.84202 1.91162 2.00206 2.12987 2.23537 2.31336 2.43297 2.51632 2.54107 2.65174 2.62494 2.4589 2.01393 1.10385 0.172255 0.00318705 2.01831e-06 1.26611e-10 7.45557e-15 -1.96918e-15 1.05507e-11 -1.79712e-12 -9.35851e-15 1.81586e-12 -1.05602e-11 -5.25672e-17 1.05521e-11 -1.23744e-11 1.23741e-11 -1.23758e-11 1.05647e-11 3.62075e-12 -1.23711e-11 -1.14993e-16 -1.8224e-12 1.23841e-11 -1.05745e-11 1.23747e-11 -2.47378e-11 2.47379e-11 -1.23526e-11 0 0 0.283172 0.558334 0.82957 1.03663 1.2077 1.44436 1.50444 1.7028 1.88512 1.84091 2.009 2.12451 2.17836 2.3006 2.42475 2.43081 2.55471 2.56812 2.51804 2.23381 1.66142 0.602536 0.0478819 0.000381493 8.99148e-08 1.0972e-11 -1.05629e-11 1.52861e-15 8.72839e-12 1.83969e-12 -1.8334e-12 9.4056e-15 1.80802e-12 -1.05617e-11 9.34583e-15 -2.07082e-14 1.23724e-11 -1.2363e-11 1.05426e-11 -1.05535e-11 1.26339e-14 -1.11958e-14 1.12317e-14 -1.56013e-15 1.23751e-11 -1.23847e-11 1.14237e-14 -3.11978e-17 9.68498e-17 0 0 0.269496 0.535803 0.7742 0.984929 1.17921 1.35536 1.54212 1.56109 1.7533 1.97458 2.0081 2.04892 2.17363 2.30021 2.34276 2.4518 2.49553 2.5049 2.33108 1.96034 1.1353 0.228679 0.00843756 2.36774e-05 3.53265e-09 4.15459e-13 3.62383e-12 -1.41922e-11 1.23729e-11 -1.0552e-11 1.05517e-11 -1.23663e-11 1.23571e-11 1.81279e-12 -2.47394e-11 2.4741e-11 -1.23876e-11 2.06981e-14 1.23557e-11 -2.47299e-11 1.23758e-11 1.23542e-11 -1.2354e-11 1.16684e-14 -1.13605e-15 -5.27124e-17 1.23437e-11 -2.47301e-11 2.47527e-11 0 0 0.25259 0.489841 0.721648 0.936261 1.14675 1.31429 1.42641 1.61493 1.66237 1.9126 1.95712 2.05156 2.18461 2.26276 2.34979 2.41406 2.45395 2.3586 2.10379 1.53761 0.559243 0.0553753 0.000819564 6.69728e-07 1.40666e-10 -5.85009e-15 3.64102e-12 -3.646e-12 -8.73493e-12 1.18396e-14 -9.01363e-15 9.0761e-15 -1.22267e-14 -1.08948e-14 2.30838e-14 -1.80432e-14 7.50963e-15 -2.97862e-14 3.01577e-14 1.01927e-14 -1.08265e-14 1.23657e-11 -1.23841e-11 3.07028e-14 -1.15559e-15 -5.78098e-16 1.2344e-11 -1.23838e-11 3.03712e-14 0 0 0.223481 0.455379 0.683844 0.915373 1.10178 1.2416 1.40425 1.53135 1.72917 1.73146 1.94375 2.02006 2.12661 2.21601 2.3362 2.37924 2.34328 2.16184 1.76507 0.924373 0.177304 0.00755855 3.69245e-05 1.11628e-08 3.31789e-12 -2.37197e-14 -3.15397e-11 3.15318e-11 -1.05367e-11 1.23656e-11 -1.23718e-11 -2.09866e-11 2.09831e-11 1.69588e-16 1.23752e-11 -1.23718e-11 -2.09972e-11 3.334e-11 -1.23349e-11 1.23642e-11 -1.23646e-11 -2.10044e-11 3.3362e-11 -1.2357e-11 1.23641e-11 -1.23648e-11 -2.10043e-11 3.3351e-11 -2.47302e-11 0 0 0.213613 0.448764 0.680505 0.881359 1.03837 1.2107 1.36997 1.53368 1.59915 1.75667 1.8926 1.97323 2.05629 2.17278 2.26793 2.31021 2.15376 1.87651 1.20972 0.365042 0.031254 0.00051953 5.88976e-07 2.42957e-10 6.44054e-14 1.23584e-11 -3.33715e-11 3.33618e-11 -1.23479e-11 -2.06351e-14 1.23795e-11 -3.3373e-11 3.3362e-11 -1.23575e-11 -1.11389e-14 1.23685e-11 -3.33624e-11 3.33512e-11 -1.2335e-11 -2.21249e-14 1.23795e-11 -3.33621e-11 3.33509e-11 3.01869e-14 -1.23986e-11 6.5457e-15 -2.09797e-11 -1.00962e-14 2.10064e-11 0 0 0.221517 0.440231 0.64265 0.83188 1.02406 1.18617 1.34201 1.43643 1.63224 1.69167 1.83192 1.94427 1.98466 2.14421 2.17369 2.08201 1.92899 1.36526 0.57056 0.076653 0.00302657 1.16371e-05 6.08069e-09 3.03009e-12 -1.02333e-14 -8.01393e-15 1.23726e-11 -1.23728e-11 -3.4537e-15 2.23114e-14 -1.89605e-14 1.23841e-11 -1.23839e-11 -3.56979e-15 2.23536e-14 -3.00061e-14 1.86626e-14 -1.86623e-14 2.99956e-14 -4.1341e-14 1.23984e-11 -7.30931e-17 -1.23873e-11 2.90208e-14 3.21742e-16 -4.54408e-14 -2.09493e-11 -1.69519e-15 3.33634e-11 0 0 0.212011 0.406648 0.605565 0.812504 0.986904 1.13677 1.27366 1.46035 1.549 1.69476 1.74055 1.88873 2.00523 1.97365 2.00405 1.84667 1.40357 0.740669 0.130796 0.0099313 8.36608e-05 1.07923e-07 7.24181e-11 1.24031e-11 -1.09609e-14 -2.47303e-11 2.47299e-11 -2.47298e-11 2.47299e-11 -1.2354e-11 2.93826e-17 1.23537e-11 -2.47298e-11 2.47299e-11 -1.2362e-11 8.13236e-15 -4.14366e-14 3.04763e-14 1.09592e-14 1.23343e-11 -3.33396e-11 3.33611e-11 -1.23867e-11 2.88965e-14 -2.10037e-11 3.33317e-11 -3.33506e-11 3.33896e-11 -2.68783e-14 0 0 0.196131 0.397079 0.59668 0.767219 0.922829 1.0836 1.26036 1.38071 1.52293 1.59608 1.77687 1.7704 1.87307 1.85687 1.67882 1.39442 0.781839 0.175025 0.0208816 0.000287449 1.15266e-06 6.36852e-10 1.29648e-11 -1.2385e-11 1.26763e-16 -8.11881e-15 1.23728e-11 -1.23727e-11 1.90203e-14 1.14453e-14 -1.15626e-14 -2.25115e-14 2.26273e-14 -2.28807e-16 -8.22991e-15 -2.09968e-11 3.33204e-11 4.91225e-14 -2.47414e-11 2.47219e-11 -3.33422e-11 -9.17923e-15 3.33596e-11 -2.74408e-14 -3.33214e-11 3.33023e-11 5.79592e-14 -3.33891e-11 3.33909e-11 0 0 0.186997 0.371191 0.549109 0.728783 0.904031 1.06037 1.18975 1.34254 1.46408 1.60727 1.6195 1.74868 1.61206 1.57729 1.24943 0.719122 0.194419 0.0273016 0.000630323 5.67852e-06 2.80451e-09 3.09046e-11 -1.23612e-11 -1.07874e-14 -3.06161e-17 1.23569e-11 -3.33621e-11 3.33619e-11 -1.23458e-11 1.16052e-14 -1.16922e-14 -2.2458e-14 2.2532e-14 -1.23763e-11 2.47217e-11 -3.337e-11 3.33616e-11 -3.33433e-11 2.09859e-11 1.23352e-11 1.95772e-14 -3.33591e-11 2.69191e-14 3.33325e-11 1.20968e-15 -2.16806e-15 -3.33311e-11 3.7379e-15 -2.03937e-15 0 0 0.17804 0.355535 0.532508 0.70067 0.857903 1.01357 1.17317 1.30802 1.42272 1.48083 1.54949 1.44488 1.4153 1.00977 0.62523 0.160025 0.0266958 0.000885356 1.04957e-05 8.25121e-09 5.41811e-11 8.45678e-15 1.13993e-14 -2.22822e-14 -1.17575e-16 1.23568e-11 -3.33619e-11 2.10045e-11 1.14877e-14 1.16365e-14 -1.17004e-14 1.23539e-11 -2.47303e-11 1.2346e-11 1.23753e-11 -7.74053e-15 -3.33623e-11 -2.75494e-17 3.33621e-11 -3.33728e-11 -1.87651e-14 3.33619e-11 -3.33044e-11 1.89916e-17 3.3332e-11 -3.33327e-11 3.76359e-15 3.57645e-16 -2.02671e-15 0 0 0.169162 0.338594 0.50497 0.668303 0.827885 0.983547 1.11515 1.23291 1.30616 1.33484 1.27329 1.17141 0.797905 0.452813 0.106352 0.0200857 0.000620338 1.04842e-05 1.3908e-08 4.41176e-11 2.1044e-11 -1.60462e-15 1.13018e-14 -2.23853e-14 1.84708e-17 -8.24412e-15 1.2373e-11 -2.47302e-11 1.23462e-11 4.16721e-14 -3.07427e-14 1.88869e-14 8.40857e-15 1.23368e-11 -3.33509e-11 3.33133e-11 -3.33322e-11 3.33319e-11 -3.33316e-11 -3.01134e-14 3.03378e-14 3.33017e-11 -3.32739e-11 6.69301e-17 3.33014e-11 -3.33013e-11 2.55769e-15 -3.36173e-15 3.33637e-11 0 0 0.166078 0.329795 0.489751 0.641996 0.782222 0.912092 1.02128 1.08696 1.10808 1.04939 0.885947 0.561691 0.269185 0.0613331 0.0094813 0.00027817 5.66753e-06 8.18741e-09 8.59761e-11 1.22947e-13 -1.81571e-14 1.2362e-11 -2.47301e-11 2.47303e-11 -2.0351e-17 -2.47303e-11 2.4719e-11 -1.2333e-11 1.23138e-11 -4.57046e-11 4.5696e-11 -1.23071e-11 1.23461e-11 -2.83071e-14 -3.33224e-11 -5.80281e-14 2.97061e-14 3.3332e-11 -3.33615e-11 3.33613e-11 -3.33313e-11 3.33017e-11 -3.32742e-11 3.33021e-11 -4.40624e-16 -3.33012e-11 -2.82092e-14 3.33896e-11 -2.66892e-14 0 0 0.15406 0.30396 0.446693 0.579408 0.695401 0.785923 0.840638 0.844549 0.757225 0.571044 0.322758 0.127109 0.0257987 0.00287352 8.15373e-05 1.14831e-06 2.77529e-09 1.21134e-11 2.10439e-11 -1.71259e-15 -2.49687e-16 -2.22622e-14 3.39423e-14 -2.23529e-14 -9.65221e-17 1.09401e-14 1.23428e-11 -1.23333e-11 1.23135e-11 -3.33475e-11 3.33388e-11 -3.33114e-11 3.33505e-11 -4.66246e-14 -3.33036e-11 -5.84294e-14 3.03612e-14 -7.74288e-17 3.33599e-11 -3.33601e-11 -8.04595e-17 3.33321e-11 -3.33042e-11 3.33029e-11 -3.33028e-11 -2.80004e-14 3.33622e-11 -3.33616e-11 3.33909e-11 0 0 0.130436 0.25443 0.366721 0.462436 0.533369 0.561702 0.527383 0.425906 0.282607 0.13535 0.0412056 0.00654042 0.000496786 1.14328e-05 1.06804e-07 6.25705e-10 6.14595e-12 2.82588e-14 -1.80491e-14 1.23618e-11 -2.47301e-11 1.23764e-11 1.16055e-14 -2.23908e-14 -1.13419e-14 1.23872e-11 -1.23763e-11 -1.23659e-11 2.4722e-11 -7.60305e-15 -3.33623e-11 2.8348e-14 -1.19347e-15 3.33349e-11 -3.33918e-11 3.33615e-11 -3.33316e-11 -8.27729e-17 3.33598e-11 -3.33898e-11 3.33917e-11 -3.33616e-11 -8.1193e-18 3.33609e-11 -3.33907e-11 3.33917e-11 -3.3362e-11 3.13689e-14 -1.97751e-15 0 0 0.0876133 0.165934 0.225493 0.257669 0.257342 0.225045 0.163775 0.089075 0.0318078 0.00680919 0.00074564 3.57659e-05 5.7742e-07 5.94291e-09 7.13387e-11 1.29388e-11 -1.2361e-11 1.16572e-14 -1.16064e-14 -2.24483e-14 3.38417e-14 -1.11791e-14 1.13922e-14 -2.23907e-14 -1.12393e-14 9.81073e-15 1.09939e-14 -3.01997e-14 -2.09747e-11 3.33434e-11 -3.33623e-11 3.33601e-11 -3.33604e-11 5.41543e-16 3.33605e-11 -3.33606e-11 2.78369e-14 3.3304e-11 -3.3362e-11 3.33903e-11 -3.33598e-11 2.77981e-14 3.33037e-11 -3.33616e-11 3.33898e-11 -3.33596e-11 3.04991e-14 2.5171e-16 -1.91886e-15 0 0 0.0303153 0.0545818 0.0676197 0.0657769 0.0496077 0.0272524 0.0102315 0.00244605 0.000334662 2.23563e-05 6.48153e-07 1.0668e-08 2.37101e-10 2.95931e-12 1.2399e-11 -1.2363e-11 -1.09454e-14 2.26561e-14 -2.28059e-14 1.12721e-17 2.27947e-14 -2.25067e-14 2.25066e-14 -2.24897e-14 6.86918e-17 -2.0672e-14 -2.09746e-11 3.33022e-11 -3.32923e-11 3.33335e-11 -3.60378e-16 -3.33917e-11 3.33618e-11 -3.33035e-11 3.33322e-11 -3.33603e-11 2.79167e-14 3.32738e-11 -3.32734e-11 3.33317e-11 -3.33599e-11 2.79396e-14 3.32737e-11 -3.32733e-11 3.33312e-11 -3.33591e-11 3.06197e-14 -6.09603e-14 3.3421e-11 0 0 0.00213307 0.0031028 0.00265099 0.00151811 0.000587702 0.000148141 2.23763e-05 1.84524e-06 8.31399e-08 3.25859e-09 1.34195e-10 6.79814e-12 -2.4683e-11 2.47417e-11 -1.11292e-14 -2.473e-11 2.47301e-11 -2.473e-11 2.47299e-11 -3.97111e-17 -2.47299e-11 2.47189e-11 -2.47188e-11 2.473e-11 -8.02276e-15 -1.95959e-14 -6.67126e-11 6.66936e-11 5.86766e-14 -2.84171e-14 -2.90318e-16 -6.67236e-11 6.66935e-11 5.85991e-14 -5.83878e-14 3.01124e-14 -6.67238e-11 6.66936e-11 5.85576e-14 -5.85551e-14 3.009e-14 -6.67237e-11 6.66936e-11 5.86822e-14 -5.86399e-14 3.0408e-14 -6.67238e-11 6.66937e-11 -3.33319e-11 0 0 8.8967e-07 1.0181e-06 5.95e-07 2.0617e-07 4.52146e-08 7.31779e-09 1.04421e-09 1.3024e-10 6.53284e-12 3.93102e-13 -6.92934e-15 3.63387e-12 -1.23901e-11 7.67717e-15 -6.28822e-17 -7.82395e-15 1.23728e-11 -1.23728e-11 7.80223e-15 -6.16082e-17 1.1319e-14 1.23427e-11 -2.47199e-11 2.47119e-11 3.06434e-15 -3.33624e-11 3.11598e-14 -3.097e-14 3.3362e-11 8.26889e-17 -3.33622e-11 3.10745e-14 -3.11815e-14 3.3362e-11 -4.10721e-17 -3.33618e-11 3.1054e-14 -3.1054e-14 3.33617e-11 2.93409e-16 -3.3362e-11 3.10347e-14 -3.11435e-14 3.33623e-11 2.70728e-14 -3.33895e-11 -2.94697e-16 -8.33951e-16 9.02181e-16 0 0 3.36471e-12 5.44247e-12 4.16491e-13 3.92927e-12 7.1303e-13 -1.03877e-11 3.60987e-14 2.51232e-15 1.05608e-11 -4.70193e-15 -1.3253e-14 -3.15584e-11 3.33526e-11 -1.23574e-11 1.09033e-17 1.23571e-11 -3.33619e-11 3.3362e-11 -1.23571e-11 -1.11397e-14 1.23875e-11 -1.23764e-11 9.18776e-15 -2.10332e-11 1.12651e-14 3.03302e-14 2.58437e-16 -1.53321e-16 -3.10654e-14 -6.3141e-17 3.10444e-14 -8.41292e-17 -2.4921e-15 -2.87704e-14 -2.02397e-16 3.15702e-14 2.16281e-16 -2.16281e-16 -3.16544e-14 2.92581e-16 3.13827e-14 1.95415e-16 -3.36252e-15 3.32738e-11 -3.32748e-11 -5.84222e-14 3.33314e-11 -6.66641e-11 3.3359e-11 0 0 4.85492e-16 -1.74022e-15 -1.81234e-12 -2.67919e-16 1.80659e-12 -1.05603e-11 2.03536e-15 -2.00823e-15 -1.50725e-15 1.05506e-11 -5.11146e-15 -3.15695e-11 3.33619e-11 -1.23571e-11 1.09557e-17 1.2357e-11 -3.33621e-11 2.10048e-11 1.97035e-16 1.23747e-11 -1.23748e-11 -1.23659e-11 2.47217e-11 -3.33989e-11 3.04287e-14 3.03506e-14 1.53321e-16 -6.37131e-16 -3.06237e-14 -4.3759e-17 3.11243e-14 -3.09696e-14 3.33604e-11 -3.3391e-11 3.00176e-14 3.14862e-14 2.5804e-16 -2.58022e-16 -6.16846e-14 3.04284e-14 3.11294e-14 -2.49907e-15 -8.78059e-16 3.32739e-11 -6.66644e-11 6.66626e-11 -3.33622e-11 -3.33012e-11 3.33584e-11 0 0 4.44938e-16 -1.81405e-12 1.81441e-12 -1.8147e-12 -9.43489e-15 1.81579e-12 -1.05616e-11 1.05537e-11 -1.23761e-11 1.23759e-11 -1.2392e-11 1.41935e-11 -1.23823e-11 -3.07521e-15 2.23635e-14 -1.91788e-14 1.2384e-11 -2.47413e-11 1.23463e-11 1.23934e-11 -1.2394e-11 2.91206e-14 -2.10344e-11 3.33719e-11 2.01478e-15 -3.33625e-11 3.07588e-14 -3.12848e-14 3.33627e-11 -3.02211e-14 -3.33043e-11 3.33044e-11 -3.3362e-11 3.33615e-11 3.0098e-14 -3.33617e-11 3.06113e-14 -3.06518e-14 3.33319e-11 -3.33784e-11 7.2849e-14 3.31965e-11 -3.31976e-11 -2.54116e-14 -9.37579e-16 -3.15976e-14 -3.33315e-11 3.33319e-11 3.11003e-14 0 0 -9.05048e-16 -1.27425e-12 -3.1055e-15 -3.01024e-16 -1.81434e-12 -9.65297e-15 1.82395e-12 -1.83196e-12 1.82404e-12 -1.05715e-11 1.14959e-14 1.2342e-11 -2.47282e-11 2.47302e-11 -1.23538e-11 1.14662e-14 -1.13258e-14 1.12947e-14 -4.1614e-14 -2.09973e-11 3.33536e-11 2.9883e-14 -3.33808e-11 3.33909e-11 -2.79525e-14 -7.13051e-16 -6.67242e-11 6.67241e-11 -2.95049e-14 2.66519e-14 -3.33314e-11 3.32743e-11 -3.32739e-11 3.33038e-11 -3.3332e-11 3.3332e-11 -3.33061e-11 3.33061e-11 -3.33317e-11 -2.05626e-14 -8.41086e-11 1.17348e-10 -3.31937e-11 -2.5144e-14 -1.01439e-15 -3.33639e-11 3.33328e-11 3.33013e-11 -6.66323e-11 0 0 -9.47552e-16 -1.27744e-12 -1.4765e-15 -1.74939e-15 -1.82256e-12 1.82223e-12 -1.82389e-12 9.47119e-15 1.79537e-12 -1.05495e-11 -7.31e-15 1.23517e-11 -1.23727e-11 1.91131e-14 -2.90696e-17 1.1558e-14 -1.13874e-14 1.13794e-14 -3.07053e-14 -2.10277e-11 3.33839e-11 -3.33616e-11 3.33617e-11 4.87318e-16 5.45567e-16 -3.33626e-11 3.07379e-14 -3.07035e-14 3.33597e-11 -3.33327e-11 -2.79172e-14 3.33327e-11 -3.33039e-11 3.33041e-11 -3.33318e-11 3.33317e-11 -3.33059e-11 3.33059e-11 -3.33625e-11 3.86704e-14 -8.41946e-11 8.41629e-11 2.25555e-14 -2.94303e-16 -3.33619e-11 3.33614e-11 -3.03951e-14 -3.00158e-14 6.13271e-14 0 0 -7.61319e-16 -1.81729e-12 4.95399e-16 -1.81622e-12 1.80778e-12 -1.05633e-11 1.05617e-11 -1.81584e-12 -9.81923e-15 -8.73497e-12 -7.13195e-15 -2.1007e-11 3.33509e-11 -1.2346e-11 1.23537e-11 -2.473e-11 2.47301e-11 -1.23538e-11 -1.9629e-14 1.2362e-11 -3.33674e-11 2.83356e-14 3.33035e-11 -3.33312e-11 4.31744e-16 3.02869e-14 -8.41292e-17 -3.06871e-14 3.33596e-11 -3.33897e-11 3.33909e-11 -3.33615e-11 5.01219e-16 3.33621e-11 -3.01351e-14 -3.33318e-11 -2.24287e-16 -3.60378e-16 3.33311e-11 -6.67111e-11 6.66498e-11 -6.66795e-11 3.34043e-11 -2.58397e-14 8.72927e-16 3.05734e-14 -3.14482e-14 -3.33318e-11 3.33581e-11 0 0 -1.24655e-15 5.36854e-13 -3.6317e-12 1.81439e-12 -8.31204e-15 -1.05601e-11 7.96214e-18 1.05602e-11 -1.82415e-12 -8.74726e-12 1.11835e-14 -2.10256e-11 3.33621e-11 -1.2346e-11 -2.24458e-14 2.23326e-14 -2.22798e-14 2.21637e-14 8.13446e-15 1.23459e-11 -3.33513e-11 3.51768e-16 3.33041e-11 -3.33614e-11 3.04406e-14 3.02677e-14 -2.53417e-15 3.33037e-11 -3.33618e-11 3.33898e-11 -3.33602e-11 -1.60061e-16 3.33615e-11 -3.33611e-11 3.33318e-11 -6.66939e-11 6.66626e-11 -3.33019e-11 7.2925e-16 3.10237e-14 -9.32582e-14 -3.33008e-11 3.33271e-11 4.8776e-15 2.9523e-16 3.09867e-14 -3.11953e-14 -3.33324e-11 3.3359e-11 0 0 3.81175e-16 -1.2771e-12 -1.62268e-15 -5.51214e-16 -1.8236e-12 1.81589e-12 -1.05602e-11 -5.27596e-17 1.05427e-11 1.80946e-12 -2.47386e-11 2.47305e-11 -1.23727e-11 -3.27517e-15 2.2335e-14 -8.13589e-17 -1.23761e-11 1.23455e-11 1.24143e-11 -8.76953e-14 6.84056e-14 -3.33894e-11 2.88147e-16 3.33605e-11 2.22014e-15 -3.33627e-11 2.83677e-14 3.32735e-11 -3.33014e-11 3.33598e-11 -3.336e-11 3.33621e-11 -3.33629e-11 3.17751e-14 -3.06694e-14 3.05431e-14 -9.36781e-14 6.08738e-14 1.98906e-15 3.11851e-14 -6.33889e-14 -2.98441e-14 2.95925e-14 -3.33314e-11 3.33625e-11 -5.3387e-15 -3.33569e-11 3.33008e-11 6.22478e-14 0 0 4.12099e-16 -1.81406e-12 1.81413e-12 -1.81463e-12 4.13363e-16 -9.69358e-15 1.80799e-12 -1.05524e-11 -9.3286e-15 -1.28344e-14 2.25313e-14 1.23325e-11 -2.47187e-11 2.47301e-11 -1.2362e-11 7.89502e-15 -3.02256e-14 1.23755e-11 -3.33511e-11 3.33412e-11 -3.336e-11 3.33322e-11 -3.33035e-11 3.3332e-11 2.26341e-15 -1.01092e-15 -6.67243e-11 6.66942e-11 3.04708e-14 -3.33919e-11 3.3392e-11 -3.02143e-14 -3.33318e-11 3.11562e-14 2.12136e-19 1.85403e-25 -3.33806e-14 -3.33629e-11 3.33636e-11 -2.9079e-14 -1.86295e-15 -3.00479e-14 -3.3302e-11 3.33631e-11 -7.56289e-14 6.97063e-14 -3.3403e-11 6.66799e-11 -6.66325e-11 0 0 4.14086e-1