<?xml version="1.0"?>
<VTKFile type="PolyData">
	<PolyData>
		<Piece NumberOfPoints="2601" NumberOfPolys="2500">
			<Points>
				<DataArray type="Float32" NumberOfComponents="3" format="ascii">
 0 0 0 0.356077 0 0 0.27533 0 0 0.347068 0 0 0.354549 0 0 0.377562 0 0 0.397123 0 0 0.412412 0 0 0.428651 0 0 0.440295 0 0 0.452987 0 0 0.462046 0 0 0.473398 0 0 0.4815 0 0 0.490851 0 0 0.49806 0 0 0.505762 0 0 0.512356 0 0 0.518573 0 0 0.524133 0 0 0.52974 0 0 0.534923 0 0 0.539724 0 0 0.544225 0 0 0.548406 0 0 0.552223 0 0 0.556124 0 0 0.561021 0 0 0.568581 0 0 0.581388 0 0 0.600023 0 0 0.62 0 0 0.64 0 0 0.66 0 0 0.68 0 0 0.7 0 0 0.72 0 0 0.74 0 0 0.76 0 0 0.78 0 0 0.8 0 0 0.82 0 0 0.84 0 0 0.86 0 0 0.88 0 0 0.9 0 0 0.92 0 0 0.94 0 0 0.96 0 0 0.98 0 0 1 0 0 0 0.356077 0 0.157365 0.157365 0 0.321346 0.145723 0 0.302846 0.131261 0 0.350753 0.0882466 0 0.372996 0.0789993 0 0.392018 0.0703131 0 0.410361 0.0632394 0 0.424348 0.0583078 0 0.439017 0.0534934 0 0.449473 0.0490926 0 0.461859 0.045342 0 0.470713 0.0420118 0 0.481265 0.0394204 0 0.488975 0.0372263 0 0.497559 0.0352836 0 0.504604 0.0334732 0 0.511661 0.0317242 0 0.517623 0.030068 0 0.523507 0.0285746 0 0.529043 0.027261 0 0.534352 0.0260918 0 0.539198 0.0250378 0 0.543751 0.0240587 0 0.547969 0.0231399 0 0.551821 0.0222802 0 0.555765 0.0214991 0 0.560723 0.0208292 0 0.568378 0.0203257 0 0.581319 0.0200654 0 0.600021 0.0200022 0 0.62 0.02 0 0.64 0.02 0 0.66 0.02 0 0.68 0.02 0 0.7 0.02 0 0.72 0.02 0 0.74 0.02 0 0.76 0.02 0 0.78 0.02 0 0.8 0.02 0 0.82 0.02 0 0.84 0.02 0 0.86 0.02 0 0.88 0.02 0 0.9 0.02 0 0.92 0.02 0 0.94 0.02 0 0.96 0.02 0 0.98 0.02 0 1 0.02 0 0 0.27533 0 0.145723 0.321346 0 0.181994 0.181994 0 0.298452 0.206505 0 0.3211 0.174522 0 0.353003 0.149948 0 0.378656 0.134716 0 0.397212 0.124669 0 0.415903 0.113723 0 0.42984 0.104947 0 0.444476 0.0967134 0 0.455119 0.0894175 0 0.467473 0.0834688 0 0.476286 0.0782826 0 0.486234 0.0739862 0 0.493952 0.0701254 0 0.502126 0.0664567 0 0.508794 0.0629559 0 0.515404 0.0596971 0 0.521509 0.0568294 0 0.52717 0.0542523 0 0.532628 0.0519778 0 0.537658 0.0499017 0 0.542323 0.0479727 0 0.546669 0.0461583 0 0.550619 0.044457 0 0.554695 0.0429106 0 0.559837 0.0415892 0 0.567782 0.0406069 0 0.581129 0.0401158 0 0.600016 0.0400033 0 0.62 0.04 0 0.64 0.04 0 0.66 0.04 0 0.68 0.04 0 0.7 0.04 0 0.72 0.04 0 0.74 0.04 0 0.76 0.04 0 0.78 0.04 0 0.8 0.04 0 0.82 0.04 0 0.84 0.04 0 0.86 0.04 0 0.88 0.04 0 0.9 0.04 0 0.92 0.04 0 0.94 0.04 0 0.96 0.04 0 0.98 0.04 0 1 0.04 0 0 0.347068 0 0.131261 0.302846 0 0.206505 0.298452 0 0.206079 0.206079 0 0.282362 0.242641 0 0.328695 0.204842 0 0.355527 0.19286 0 0.381371 0.175362 0 0.400631 0.164285 0 0.419555 0.1513 0 0.433586 0.140636 0 0.448384 0.131101 0 0.459171 0.122768 0 0.471082 0.115829 0 0.479866 0.109661 0 0.489509 0.103995 0 0.497182 0.0986323 0 0.5048 0.0934636 0 0.51172 0.0887853 0 0.518371 0.0845371 0 0.524209 0.0807935 0 0.529889 0.0774751 0 0.535111 0.0744447 0 0.539983 0.0716086 0 0.544513 0.0689381 0 0.548637 0.0664241 0 0.552935 0.0641463 0 0.558394 0.0622127 0 0.566833 0.0608048 0 0.580859 0.0601398 0 0.600009 0.060003 0 0.62 0.06 0 0.64 0.06 0 0.66 0.06 0 0.68 0.06 0 0.7 0.06 0 0.72 0.06 0 0.74 0.06 0 0.76 0.06 0 0.78 0.06 0 0.8 0.06 0 0.82 0.06 0 0.84 0.06 0 0.86 0.06 0 0.88 0.06 0 0.9 0.06 0 0.92 0.06 0 0.94 0.06 0 0.96 0.06 0 0.98 0.06 0 1 0.06 0 0 0.354549 0 0.0882466 0.350753 0 0.174522 0.3211 0 0.242641 0.282362 0 0.241386 0.241386 0 0.294489 0.264714 0 0.335478 0.228664 0 0.360855 0.222903 0 0.385674 0.204787 0 0.4044 0.193834 0 0.42277 0.180568 0 0.436491 0.169833 0 0.450891 0.160121 0 0.461478 0.151545 0 0.473164 0.1437 0 0.482084 0.136452 0 0.491391 0.12938 0 0.499171 0.122924 0 0.506994 0.116907 0 0.513831 0.11153 0 0.520349 0.106749 0 0.526123 0.102476 0 0.531664 0.0985426 0 0.536754 0.0948489 0 0.541537 0.0913579 0 0.54591 0.0880781 0 0.550531 0.0851201 0 0.556451 0.0826406 0 0.565606 0.0808927 0 0.580569 0.0801334 0 0.600004 0.0800019 0 0.62 0.08 0 0.64 0.08 0 0.66 0.08 0 0.68 0.08 0 0.7 0.08 0 0.72 0.08 0 0.74 0.08 0 0.76 0.08 0 0.78 0.08 0 0.8 0.08 0 0.82 0.08 0 0.84 0.08 0 0.86 0.08 0 0.88 0.08 0 0.9 0.08 0 0.92 0.08 0 0.94 0.08 0 0.96 0.08 0 0.98 0.08 0 1 0.08 0 0 0.377562 0 0.0789993 0.372996 0 0.149948 0.353003 0 0.204842 0.328695 0 0.264714 0.294489 0 0.273492 0.273492 0 0.312202 0.279033 0 0.342533 0.249603 0 0.366653 0.246335 0 0.38983 0.228126 0 0.407449 0.218104 0 0.425095 0.205197 0 0.43848 0.194848 0 0.452615 0.184679 0 0.463326 0.17566 0 0.47469 0.166692 0 0.483764 0.158648 0 0.493135 0.150921 0 0.50089 0.144001 0 0.508463 0.13766 0 0.515331 0.132068 0 0.521488 0.126865 0 0.527344 0.122098 0 0.532715 0.117563 0 0.537795 0.113311 0 0.542495 0.109324 0 0.547542 0.105762 0 0.554093 0.102829 0 0.564214 0.100864 0 0.580318 0.100102 0 0.600002 0.100001 0 0.62 0.1 0 0.64 0.1 0 0.66 0.1 0 0.68 0.1 0 0.7 0.1 0 0.72 0.1 0 0.74 0.1 0 0.76 0.1 0 0.78 0.1 0 0.8 0.1 0 0.82 0.1 0 0.84 0.1 0 0.86 0.1 0 0.88 0.1 0 0.9 0.1 0 0.92 0.1 0 0.94 0.1 0 0.96 0.1 0 0.98 0.1 0 1 0.1 0 0 0.397123 0 0.0703131 0.392018 0 0.134716 0.378656 0 0.19286 0.355527 0 0.228664 0.335478 0 0.279033 0.312202 0 0.294897 0.294897 0 0.325646 0.293224 0 0.350186 0.267907 0 0.371824 0.265831 0 0.393653 0.247364 0 0.410338 0.238395 0 0.427441 0.225421 0 0.440626 0.215416 0 0.45442 0.204577 0 0.465031 0.195322 0 0.476329 0.185971 0 0.485404 0.177814 0 0.494214 0.1699 0 0.502028 0.163002 0 0.509391 0.156498 0 0.516018 0.150553 0 0.522247 0.14494 0 0.527963 0.139661 0 0.533367 0.134703 0 0.538457 0.130099 0 0.544047 0.126025 0 0.551434 0.122757 0 0.562819 0.120733 0 0.580145 0.120062 0 0.6 0.12 0 0.62 0.12 0 0.64 0.12 0 0.66 0.12 0 0.68 0.12 0 0.7 0.12 0 0.72 0.12 0 0.74 0.12 0 0.76 0.12 0 0.78 0.12 0 0.8 0.12 0 0.82 0.12 0 0.84 0.12 0 0.86 0.12 0 0.88 0.12 0 0.9 0.12 0 0.92 0.12 0 0.94 0.12 0 0.96 0.12 0 0.98 0.12 0 1 0.12 0 0 0.412412 0 0.0632394 0.410361 0 0.124669 0.397212 0 0.175362 0.381371 0 0.222903 0.360855 0 0.249603 0.342533 0 0.293224 0.325646 0 0.311947 0.311947 0 0.337062 0.30634 0 0.357986 0.283568 0 0.377319 0.282033 0 0.397561 0.263219 0 0.413431 0.255256 0 0.429901 0.241942 0 0.442655 0.23242 0 0.456181 0.221333 0 0.466683 0.21239 0 0.477425 0.202929 0 0.48627 0.194895 0 0.494992 0.18704 0 0.502582 0.179976 0 0.509921 0.173262 0 0.516438 0.166977 0 0.522617 0.161036 0 0.52831 0.155476 0 0.53389 0.150352 0 0.54015 0.145889 0 0.54861 0.142434 0 0.561611 0.140535 0 0.580051 0.140028 0 0.6 0.14 0 0.62 0.14 0 0.64 0.14 0 0.66 0.14 0 0.68 0.14 0 0.7 0.14 0 0.72 0.14 0 0.74 0.14 0 0.76 0.14 0 0.78 0.14 0 0.8 0.14 0 0.82 0.14 0 0.84 0.14 0 0.86 0.14 0 0.88 0.14 0 0.9 0.14 0 0.92 0.14 0 0.94 0.14 0 0.96 0.14 0 0.98 0.14 0 1 0.14 0 0 0.428651 0 0.0583078 0.424348 0 0.113723 0.415903 0 0.164285 0.400631 0 0.204787 0.385674 0 0.246335 0.366653 0 0.267907 0.350186 0 0.30634 0.337062 0 0.326035 0.326035 0 0.347353 0.317235 0 0.366211 0.297047 0 0.383791 0.294844 0 0.402179 0.27626 0 0.417112 0.269207 0 0.432747 0.255735 0 0.445035 0.247065 0 0.457841 0.23583 0 0.467897 0.227265 0 0.478344 0.217959 0 0.486944 0.210008 0 0.495485 0.202123 0 0.503094 0.194983 0 0.510173 0.188067 0 0.516682 0.181647 0 0.52275 0.175566 0 0.528892 0.170058 0 0.536018 0.165345 0 0.545816 0.161914 0 0.560748 0.16032 0 0.580014 0.160009 0 0.6 0.16 0 0.62 0.16 0 0.64 0.16 0 0.66 0.16 0 0.68 0.16 0 0.7 0.16 0 0.72 0.16 0 0.74 0.16 0 0.76 0.16 0 0.78 0.16 0 0.8 0.16 0 0.82 0.16 0 0.84 0.16 0 0.86 0.16 0 0.88 0.16 0 0.9 0.16 0 0.92 0.16 0 0.94 0.16 0 0.96 0.16 0 0.98 0.16 0 1 0.16 0 0 0.440295 0 0.0534934 0.439017 0 0.104947 0.42984 0 0.1513 0.419555 0 0.193834 0.4044 0 0.228126 0.38983 0 0.265831 0.371824 0 0.283568 0.357986 0 0.317235 0.347353 0 0.337567 0.337567 0 0.356763 0.326409 0 0.374277 0.308927 0 0.390989 0.305196 0 0.407349 0.287402 0 0.421522 0.281021 0 0.435934 0.267503 0 0.447368 0.259537 0 0.459595 0.248491 0 0.469249 0.240346 0 0.479152 0.231104 0 0.487756 0.223349 0 0.495975 0.215452 0 0.503456 0.208312 0 0.510331 0.201381 0 0.516822 0.194979 0 0.523625 0.189189 0 0.531849 0.184433 0 0.543355 0.181301 0 0.560267 0.180145 0 0.580002 0.180002 0 0.6 0.18 0 0.62 0.18 0 0.64 0.18 0 0.66 0.18 0 0.68 0.18 0 0.7 0.18 0 0.72 0.18 0 0.74 0.18 0 0.76 0.18 0 0.78 0.18 0 0.8 0.18 0 0.82 0.18 0 0.84 0.18 0 0.86 0.18 0 0.88 0.18 0 0.9 0.18 0 0.92 0.18 0 0.94 0.18 0 0.96 0.18 0 0.98 0.18 0 1 0.18 0 0 0.452987 0 0.0490926 0.449473 0 0.0967134 0.444476 0 0.140636 0.433586 0 0.180568 0.42277 0 0.218104 0.407449 0 0.247364 0.393653 0 0.282033 0.377319 0 0.297047 0.366211 0 0.326409 0.356763 0 0.347121 0.347121 0 0.365029 0.334394 0 0.381617 0.319713 0 0.397722 0.314031 0 0.412386 0.29741 0 0.425635 0.291129 0 0.439037 0.277853 0 0.449928 0.270537 0 0.461316 0.259614 0 0.47073 0.251878 0 0.480191 0.242842 0 0.488475 0.235196 0 0.496529 0.227489 0 0.503651 0.220369 0 0.510704 0.213663 0 0.518309 0.207832 0 0.527876 0.20326 0 0.541553 0.200731 0 0.560069 0.200046 0 0.58 0.2 0 0.6 0.2 0 0.62 0.2 0 0.64 0.2 0 0.66 0.2 0 0.68 0.2 0 0.7 0.2 0 0.72 0.2 0 0.74 0.2 0 0.76 0.2 0 0.78 0.2 0 0.8 0.2 0 0.82 0.2 0 0.84 0.2 0 0.86 0.2 0 0.88 0.2 0 0.9 0.2 0 0.92 0.2 0 0.94 0.2 0 0.96 0.2 0 0.98 0.2 0 1 0.2 0 0 0.462046 0 0.045342 0.461859 0 0.0894175 0.455119 0 0.131101 0.448384 0 0.169833 0.436491 0 0.205197 0.425095 0 0.238395 0.410338 0 0.263219 0.397561 0 0.294844 0.383791 0 0.308927 0.374277 0 0.334394 0.365029 0 0.355112 0.355112 0 0.37229 0.341693 0 0.387635 0.32909 0 0.403156 0.321619 0 0.416649 0.306522 0 0.429454 0.300343 0 0.441778 0.287295 0 0.452265 0.280412 0 0.463087 0.269831 0 0.472009 0.262251 0 0.481167 0.253554 0 0.489186 0.246058 0 0.496871 0.238504 0 0.504489 0.231826 0 0.513183 0.226088 0 0.524437 0.222061 0 0.540539 0.220312 0 0.560012 0.22001 0 0.58 0.22 0 0.6 0.22 0 0.62 0.22 0 0.64 0.22 0 0.66 0.22 0 0.68 0.22 0 0.7 0.22 0 0.72 0.22 0 0.74 0.22 0 0.76 0.22 0 0.78 0.22 0 0.8 0.22 0 0.82 0.22 0 0.84 0.22 0 0.86 0.22 0 0.88 0.22 0 0.9 0.22 0 0.92 0.22 0 0.94 0.22 0 0.96 0.22 0 0.98 0.22 0 1 0.22 0 0 0.473398 0 0.042
[...]
			<PointData Scalars="VitesseX">
				<DataArray Name="VitesseX" type="Float32" format="ascii">
 0 1.93179 0.78431 1.43909 1.29495 1.42525 1.57741 1.57551 1.63185 1.78599 1.83683 1.82843 1.892 1.94691 2.00933 2.01089 2.01933 2.08919 2.21061 2.13456 2.21789 2.22542 2.28217 2.33679 2.37311 2.41589 2.33773 2.07987 1.48835 0.501509 0.0159779 4.38821e-06 3.28322e-11 -1.074e-12 1.0644e-12 -3.62265e-12 3.62265e-12 -1.0644e-12 1.07135e-12 -1.07135e-12 1.0644e-12 -3.62265e-12 3.62554e-12 9.84125e-15 -9.84523e-15 -3.62554e-12 3.6157e-12 -3.6157e-12 3.62554e-12 9.86849e-15 0 0 0.286705 1.50597 0.935229 1.34998 1.39732 1.56039 1.57597 1.63425 1.75066 1.83383 1.82989 1.8785 1.96365 1.98177 2.01634 2.01537 2.11778 2.17819 2.14398 2.21025 2.22551 2.27523 2.33536 2.37191 2.41244 2.33218 2.07047 1.47263 0.482903 0.0145823 3.76821e-06 2.95026e-11 -1.07233e-12 1.06517e-12 -3.62339e-12 3.62339e-12 -1.06717e-12 1.07484e-12 -1.07484e-12 1.06716e-12 -3.62336e-12 3.62309e-12 9.80085e-15 -7.36201e-15 -3.62551e-12 3.62063e-12 -3.62063e-12 3.62552e-12 7.40554e-15 0 0 0.823117 0.390912 1.30118 1.13239 1.31905 1.46471 1.51201 1.58069 1.71225 1.77991 1.80736 1.87413 1.91902 1.97881 1.97129 2.05262 2.11915 2.11386 2.16605 2.19971 2.22698 2.26127 2.32757 2.36966 2.40155 2.31512 2.04121 1.42449 0.429047 0.0110265 2.38178e-06 2.30714e-11 -5.34489e-13 -1.28233e-12 -1.812e-12 1.80653e-12 1.2878e-12 -1.28189e-12 1.28205e-12 -1.28252e-12 -1.81197e-12 3.6231e-12 -1.80791e-12 -4.7769e-15 6.91374e-15 -1.89621e-14 1.89829e-14 -6.91197e-15 4.82798e-15 0 0 0.743585 0.95268 0.496678 0.970751 1.21304 1.36164 1.44286 1.52135 1.63904 1.73669 1.77305 1.83523 1.90153 1.92337 1.98241 2.05955 2.09475 2.0653 2.18223 2.18439 2.24018 2.24571 2.31339 2.36523 2.38355 2.28541 1.98907 1.34056 0.346613 0.00680265 1.10333e-06 1.20748e-11 8.22136e-16 -2.45895e-15 -1.81317e-12 1.80765e-12 -5.30848e-12 5.31479e-12 3.90703e-15 -4.75155e-15 -1.81283e-12 1.81219e-12 -1.82874e-15 1.58081e-16 -5.31158e-12 5.30181e-12 -5.30175e-12 5.30908e-12 4.87829e-15 0 0 0.372017 0.726799 1.04932 0.806588 1.08281 1.29102 1.38765 1.46385 1.5801 1.66967 1.73659 1.79744 1.84016 1.90741 1.96919 2.04257 2.04071 2.09101 2.13761 2.18152 2.24336 2.23977 2.29476 2.35471 2.35909 2.24259 1.90963 1.21417 0.248369 0.00334283 3.74064e-07 3.50633e-12 1.81281e-12 -6.02286e-16 -1.81254e-12 1.80588e-12 -5.31136e-12 5.31596e-12 2.72768e-15 -8.22162e-16 -1.81218e-12 -8.14805e-16 1.81113e-12 -2.24869e-15 -5.31363e-12 5.3088e-12 -7.12157e-12 7.12638e-12 4.97248e-15 0 0 0.346154 0.583914 0.741778 1.10857 1.12222 1.22666 1.30834 1.41965 1.52518 1.60527 1.68193 1.74101 1.80494 1.87745 1.9709 1.96276 2.04847 2.10246 2.0935 2.1844 2.21523 2.24987 2.27263 2.33486 2.32695 2.18564 1.7994 1.03655 0.152447 0.00126786 9.46056e-08 3.64307e-12 -1.64798e-14 -1.79904e-12 6.86664e-16 -1.92179e-14 1.83168e-12 -1.82921e-12 1.82943e-12 -1.81348e-12 -1.37055e-14 1.82685e-12 -1.82439e-12 7.1495e-15 1.81757e-12 -1.82482e-12 1.81996e-12 -1.81086e-12 3.14441e-15 0 0 0.308723 0.532684 0.740707 0.822154 1.09327 1.19505 1.29373 1.34678 1.46746 1.55609 1.62136 1.68926 1.77741 1.86307 1.89292 1.94519 2.04003 2.0824 2.07909 2.17151 2.17366 2.25994 2.25153 2.31171 2.28012 2.10727 1.65657 0.805479 0.0767502 0.000356502 1.91357e-08 -1.00625e-11 1.05554e-11 -1.81496e-12 1.42262e-14 1.796e-12 -1.23657e-11 1.23681e-11 -1.79845e-12 -1.42419e-14 1.81497e-12 -1.05576e-11 1.05578e-11 -7.32623e-15 -1.79401e-12 -2.57617e-14 1.83406e-12 -1.81781e-12 1.01191e-14 0 0 0.261279 0.498564 0.660755 0.848017 0.899287 1.1164 1.27214 1.36728 1.4168 1.49555 1.57784 1.65285 1.73423 1.78769 1.84706 1.93364 2.01534 2.02909 2.09479 2.1152 2.16366 2.23466 2.24705 2.28198 2.21716 1.99259 1.47197 0.542045 0.0301902 7.04146e-05 3.38778e-09 -1.04415e-11 1.70094e-17 1.05554e-11 -1.8271e-12 1.82475e-12 -1.23918e-11 1.23893e-11 -1.80546e-12 1.80776e-12 -1.05529e-11 -1.41637e-14 1.05575e-11 -4.96728e-15 -1.23539e-11 1.23398e-11 -1.23394e-11 1.23394e-11 4.50859e-14 0 0 0.252083 0.440469 0.652857 0.757863 0.95913 0.98872 1.20309 1.36145 1.42703 1.46988 1.53276 1.62272 1.65944 1.7282 1.83271 1.92754 1.94238 2.02881 2.06296 2.07718 2.15193 2.19348 2.24354 2.24024 2.14102 1.83729 1.21871 0.297299 0.00880807 9.10793e-06 5.07412e-10 1.83586e-12 -1.05553e-11 -3.21266e-17 1.05433e-11 -1.23678e-11 1.23675e-11 -1.237e-11 1.05623e-11 3.61332e-12 -1.23629e-11 -1.1491e-16 -1.82466e-12 1.23822e-11 -1.05768e-11 1.23681e-11 -2.47192e-11 2.47192e-11 -1.23349e-11 0 0 0.22763 0.441155 0.590624 0.782916 0.86862 1.08575 1.10013 1.28285 1.41481 1.44519 1.51317 1.56284 1.62874 1.73686 1.82398 1.86504 1.93279 2.00138 2.02393 2.06853 2.11953 2.16633 2.23137 2.18916 2.03712 1.64744 0.881173 0.124555 0.00179004 7.32225e-07 5.34666e-11 1.70829e-14 1.80322e-12 -1.05576e-11 1.41323e-14 -3.10468e-14 1.2365e-11 -1.23508e-11 1.0529e-11 -1.05455e-11 1.90345e-14 -1.68306e-14 1.68974e-14 -2.46531e-15 1.23692e-11 -1.23836e-11 1.70122e-14 -5.27857e-19 6.06785e-17 0 0 0.213031 0.400739 0.576334 0.713864 0.893068 0.963321 1.19656 1.1835 1.32432 1.44542 1.50853 1.57208 1.65255 1.73624 1.78252 1.83759 1.92 1.97009 1.99329 2.08306 2.06541 2.16635 2.1908 2.12695 1.88661 1.39806 0.511964 0.0374035 0.000231671 4.08025e-08 1.4659e-11 -1.23555e-11 1.23419e-11 1.81029e-12 -2.47216e-11 2.4724e-11 -1.23874e-11 3.1057e-14 1.23396e-11 -2.47073e-11 1.23701e-11 1.23373e-11 -1.23371e-11 1.71688e-14 -1.388e-15 4.05794e-17 1.23215e-11 -2.47075e-11 2.47413e-11 0 0 0.190711 0.369348 0.533491 0.690613 0.833381 0.984937 1.04996 1.2779 1.22812 1.39204 1.48989 1.53943 1.67771 1.72867 1.76006 1.84415 1.89724 1.91533 2.02184 2.03498 2.06763 2.14588 2.13946 2.02271 1.69723 1.03664 0.219699 0.00754464 1.6924e-05 2.32017e-09 2.41673e-13 1.36767e-14 -1.85085e-14 -1.64061e-14 3.47949e-14 -2.73889e-14 1.15603e-14 -4.49051e-14 4.52404e-14 1.55084e-14 -1.61933e-14 1.23544e-11 -1.23823e-11 4.57289e-14 -1.37147e-15 -6.28601e-16 1.23218e-11 -1.2382e-11 4.5418e-14 0 0 0.177288 0.351802 0.505827 0.665334 0.80104 0.930326 1.07841 1.1336 1.30047 1.3035 1.42405 1.54278 1.66655 1.70452 1.73414 1.81777 1.84727 1.92342 1.98288 2.01511 2.07616 2.10984 2.06365 1.86002 1.43334 0.600512 0.0645607 0.000927184 6.41131e-07 1.3283e-10 -1.23479e-11 -2.09769e-11 2.09717e-11 2.77104e-16 1.23691e-11 -1.23642e-11 -2.09929e-11 3.33133e-11 -1.23085e-11 1.23527e-11 -1.23531e-11 -2.10041e-11 3.33466e-11 -1.23418e-11 1.23526e-11 -1.23533e-11 -2.10041e-11 3.333e-11 -2.47077e-11 0 0 0.172018 0.330208 0.490837 0.631781 0.779006 0.90905 1.03314 1.12956 1.1687 1.37596 1.40226 1.51086 1.57947 1.67406 1.7698 1.78265 1.84493 1.92625 1.94146 2.00622 2.07604 2.04883 1.94033 1.64434 1.02494 0.243848 0.0119889 6.04454e-05 1.62611e-08 3.91997e-12 1.23763e-11 -3.33632e-11 3.33466e-11 -1.23422e-11 -1.67784e-14 1.23588e-11 -3.33469e-11 3.33301e-11 -1.23086e-11 -3.33061e-14 1.23754e-11 -3.33466e-11 3.33298e-11 4.53263e-14 -1.24041e-11 9.86234e-15 -2.09666e-11 -1.52315e-14 2.10074e-11 0 0 0.16237 0.31819 0.464616 0.615686 0.757119 0.890485 0.983418 1.07665 1.21722 1.26827 1.43518 1.44548 1.50997 1.62877 1.68892 1.76565 1.83732 1.8705 1.92646 2.00917 2.01791 1.97602 1.74931 1.33268 0.538101 0.0629703 0.00127385 1.7625e-06 5.15158e-10 1.47108e-13 -2.85376e-14 1.23823e-11 -1.23821e-11 -5.26684e-15 3.35712e-14 -4.51818e-14 2.82554e-14 -2.82345e-14 4.5161e-14 -6.20532e-14 1.24038e-11 -6.26801e-17 -1.23871e-11 4.39137e-14 5.11777e-16 -6.8419e-14 -2.09211e-11 -1.88507e-15 3.33483e-11 0 0 0.152766 0.300408 0.451204 0.60217 0.74022 0.841264 0.944794 1.07141 1.17773 1.2696 1.31249 1.43608 1.52805 1.50698 1.67344 1.74833 1.78576 1.84161 1.91871 1.96599 1.95367 1.80312 1.51163 0.848985 0.181754 0.00963454 6.18827e-05 2.79862e-08 3.61834e-11 -1.23334e-11 6.54389e-17 1.23368e-11 -2.47072e-11 2.47072e-11 -1.23491e-11 1.21265e-14 -6.20818e-14 4.55334e-14 1.66039e-14 1.23079e-11 -3.33129e-11 3.33457e-11 -1.23865e-11 4.37274e-14 -2.10033e-11 3.33012e-11 -3.33297e-11 3.33888e-11 -4.1494e-14 0 0 0.145831 0.296206 0.446562 0.57771 0.693175 0.801673 0.936829 1.04744 1.13988 1.20857 1.33406 1.36029 1.47817 1.5346 1.56956 1.72098 1.75612 1.81845 1.88164 1.87797 1.81309 1.58031 1.09558 0.354588 0.0373599 0.00069134 1.22686e-06 5.32129e-10 2.24688e-13 1.71466e-14 -1.71354e-14 -3.37597e-14 3.3855e-14 -2.54705e-16 -1.21878e-14 -2.09925e-11 3.32842e-11 7.37104e-14 -2.47243e-11 2.46954e-11 -3.33163e-11 -1.41245e-14 3.33437e-11 -4.20354e-14 -3.32855e-11 3.3257e-11 8.75598e-14 -3.33882e-11 3.33902e-11 0 0 0.148719 0.290869 0.421243 0.541399 0.667541 0.798865 0.904936 1.00899 1.09409 1.21162 1.2647 1.3464 1.40494 1.51637 1.57467 1.60949 1.77139 1.80462 1.80656 1.77021 1.56492 1.2462 0.523461 0.0931431 0.00349883 2.2251e-05 1.14093e-08 4.14394e-11 -1.2321e-11 1.72088e-14 -1.7239e-14 -3.36757e-14 3.37393e-14 -1.23706e-11 2.46952e-11 -3.33584e-11 3.3346e-11 -3.33183e-11 2.09763e-11 1.23087e-11 3.01162e-14 -3.3343e-11 4.14516e-14 3.3302e-11 1.39555e-15 -2.45671e-15 -3.33007e-11 4.49392e-15 -2.58401e-15 0 0 0.141747 0.263488 0.389886 0.521859 0.651941 0.761494 0.870883 0.977062 1.09584 1.14605 1.23965 1.29318 1.41743 1.44633 1.51927 1.62521 1.70004 1.73635 1.70011 1.54709 1.29354 0.634352 0.165901 0.010082 0.000175744 1.7374e-07 1.45161e-10 2.10847e-11 1.70958e-14 1.71681e-14 -1.72114e-14 1.2337e-11 -2.47077e-11 1.23252e-11 1.23696e-11 -1.16417e-14 -3.33469e-11 1.85169e-17 3.33468e-11 -3.33629e-11 -2.81675e-14 3.33463e-11 -3.32593e-11 3.86068e-17 3.33016e-11 -3.33024e-11 4.34558e-15 3.57709e-16 -2.61842e-15 0 0 0.12945 0.252902 0.381581 0.503265 0.612313 0.73171 0.847183 0.956499 1.03122 1.13349 1.19844 1.30801 1.31739 1.43281 1.51728 1.55252 1.6315 1.62595 1.48485 1.2655 0.704722 0.22211 0.0193563 0.000695964 1.43307e-06 1.91547e-09 1.35401e-11 -2.47063e-11 1.23253e-11 6.23845e-14 -4.58566e-14 2.84435e-14 1.3421e-14 1.2311e-11 -3.33298e-11 3.32732e-11 -3.33017e-11 3.33013e-11 -3.3301e-11 -4.52019e-14 4.54619e-14 3.32561e-11 -3.32137e-11 5.09182e-17 3.32558e-11 -3.32556e-11 3.01633e-15 -4.16412e-15 3.33487e-11 0 0 0.126586 0.246372 0.362243 0.481473 0.607345 0.722472 0.820766 0.907494 1.01852 1.10347 1.18695 1.21752 1.34717 1.37284 1.48379 1.5135 1.46954 1.40287 1.21507 0.69317 0.245771 0.028833 0.00144466 5.92241e-06 1.21765e-08 -1.4853e-11 2.4704e-11 -1.23052e-11 1.22763e-11 -4.56665e-11 4.5654e-11 -1.2266e-11 1.23252e-11 -4.28403e-14 -3.32869e-11 -8.76643e-14 4.48504e-14 3.33015e-11 -3.33461e-11 3.3346e-11 -3.33009e-11 3.32562e-11 -3.32143e-11 3.32568e-11 -3.99441e-16 -3.32558e-11 -4.28181e-14 3.33886e-11 -4.11398e-14 0 0 0.12072 0.239043 0.355939 0.473856 0.585734 0.692133 0.795888 0.899462 0.983238 1.063 1.12918 1.23892 1.27449 1.37736 1.3526 1.39054 1.27681 1.08082 0.637326 0.239223 0.0309281 0.00199219 1.48161e-05 3.90028e-08 4.40026e-11 1.11854e-13 1.23203e-11 -1.23054e-11 1.2276e-11 -3.33246e-11 3.3312e-11 -3.32703e-11 3.33295e-11 -7.07394e-14 -3.32586e-11 -8.81479e-14 4.56291e-14 -1.74934e-16 3.33438e-11 -3.33439e-11 -1.62871e-16 3.33017e-11 -3.32594e-11 3.32574e-11 -3.32568e-11 -4.28562e-14 3.33469e-11 -3.33463e-11 3.33902e-11 0 0 0.116983 0.232084 0.34469 0.455941 0.570639 0.683772 0.78434 0.87022 0.96012 1.04586 1.13376 1.17906 1.24853 1.23132 1.25249 1.10827 0.96509 0.512957 0.198412 0.0275985 0.00198521 1.79964e-05 6.74965e-08 1.1887e-10 2.72352e-13 1.23871e-11 -1.23707e-11 -1.23546e-11 2.46955e-11 -1.16078e-14 -3.33468e-11 4.2742e-14 -1.13178e-15 3.3305e-11 -3.33915e-11 3.33461e-11 -3.33012e-11 -6.21197e-17 3.33437e-11 -3.33887e-11 3.33912e-11 -3.33461e-11 2.74447e-17 3.33447e-11 -3.33895e-11 3.33913e-11 -3.33468e-11 4.66162e-14 -2.62471e-15 0 0 0.113571 0.226446 0.337488 0.446894 0.553045 0.65489 0.754379 0.851051 0.940046 1.01461 1.06879 1.1188 1.10571 1.08773 0.949614 0.765129 0.3695 0.143862 0.0177143 0.00142543 1.47584e-05 6.74404e-08 1.46799e-10 4.49257e-13 -1.59116e-14 1.52656e-14 1.6612e-14 -4.52713e-14 -2.09592e-11 3.33183e-11 -3.33468e-11 3.3344e-11 -3.33444e-11 6.38256e-16 3.33445e-11 -3.33446e-11 4.22467e-14 3.32591e-11 -3.33465e-11 3.33894e-11 -3.33439e-11 4.24543e-14 3.32586e-11 -3.33461e-11 3.3389e-11 -3.33438e-11 4.54073e-14 3.75416e-16 -2.53044e-15 0 0 0.109998 0.219626 0.328664 0.435743 0.539039 0.639141 0.733257 0.813712 0.886106 0.939502 0.968279 0.955841 0.911351 0.758202 0.532182 0.237129 0.0784004 0.00895909 0.000686426 5.86851e-06 3.88531e-08 1.18481e-10 5.16116e-13 -3.2596e-14 1.40907e-16 -3.04392e-14 -2.09591e-11 3.32565e-11 -3.32414e-11 3.33034e-11 -3.81321e-16 -3.33913e-11 3.33463e-11 -3.32583e-11 3.33016e-11 -3.33444e-11 4.24855e-14 3.32136e-11 -3.32131e-11 3.33009e-11 -3.33439e-11 4.26933e-14 3.32134e-11 -3.32127e-11 3.33004e-11 -3.33433e-11 4.56873e-14 -9.11721e-14 3.34354e-11 0 0 0.106159 0.211624 0.315207 0.415571 0.510936 0.600179 0.680047 0.74589 0.787199 0.800303 0.775917 0.69476 0.523344 0.314746 0.123248 0.0312544 0.00317386 0.000173151 1.41258e-06 1.21084e-08 1.89092e-11 2.49782e-11 -2.46896e-11 2.47074e-11 -1.19961e-14 -2.91372e-14 -6.66761e-11 6.66476e-11 8.84621e-14 -4.30735e-14 -3.10774e-16 -6.66926e-11 6.66474e-11 8.83641e-14 -8.81531e-14 4.52007e-14 -6.6693e-11 6.66477e-11 8.824e-14 -8.82782e-14 4.52391e-14 -6.66929e-11 6.66476e-11 8.85698e-14 -8.85074e-14 4.54963e-14 -6.66931e-11 6.66479e-11 -3.33016e-11 0 0 0.097516 0.19382 0.287383 0.376227 0.457751 0.527555 0.580677 0.611407 0.609354 0.554 0.439914 0.288206 0.143973 0.0453646 0.00830151 0.000647917 2.19254e-05 1.70255e-07 1.89827e-09 9.69039e-12 1.12233e-13 1.23202e-11 -2.46917e-11 2.46797e-11 4.78194e-15 -3.33471e-11 4.63867e-14 -4.62175e-14 3.33467e-11 1.23718e-16 -3.33469e-11 4.63216e-14 -4.64289e-14 3.33467e-11 2.0449e-17 -3.33466e-11 4.63221e-14 -4.63014e-14 3.33465e-11 2.52639e-16 -3.33467e-11 4.62823e-14 -4.62934e-14 3.3347e-11 4.14615e-14 -3.33885e-11 -3.15513e-16 -9.10793e-16 9.23025e-16 0 0 0.0821409 0.161924 0.236601 0.303133 0.357817 0.394511 0.402342 0.370962 0.30153 0.209592 0.113714 0.042391 0.00948437 0.00115052 5.94681e-05 1.20535e-06 1.10705e-08 2.09687e-10 -1.11912e-11 -3.48522e-15 1.23873e-11 -1.23707e-11 1.46215e-14 -2.1048e-11 1.67974e-14 4.53623e-14 1.61007e-16 -5.58896e-17 -4.6159e-14 -2.20026e-17 4.60969e-14 -8.41634e-17 -3.10905e-15 -4.31497e-14 -2.38146e-16 4.66022e-14 1.18848e-16 -2.21712e-16 -4.65836e-14 2.3101e-16 4.64763e-14 9.79786e-17 -3.76424e-15 3.32138e-11 -3.32148e-11 -8.80787e-14 3.33009e-11 -6.66031e-11 3.33428e-11 0 0 0.054925 0.105675 0.147552 0.175488 0.185573 0.17678 0.150532 0.108878 0.0606717 0.0233495 0.00573266 0.000807 5.69603e-05 1.70841e-06 2.69601e-08 5.41186e-10 -2.54042e-11 2.10825e-11 1.52411e-15 1.23688e-11 -1.23689e-11 -1.23547e-11 2.46951e-11 -3.34024e-11 4.54196e-14 4.54033e-14 5.58897e-17 -5.39705e-16 -4.57377e-14 3.82418e-17 4.62536e-14 -4.62166e-14 3.33445e-11 -3.339e-11 4.50085e-14 4.65593e-14 1.60471e-16 -2.6331e-16 -9.17429e-14 4.5537e-14 4.61815e-14 -3.09048e-15 -7.85806e-16 3.32138e-11 -6.66034e-11 6.66016e-11 -3.3347e-11 -3.32555e-11 3.33421e-11 0 0 0.0189381 0.0349651 0.0453873 0.0480213 0.041919 0.0290787 0.0150982 0.0055366 0.00134757 0.000198618 1.567e-05 6.09812e-07 1.52608e-08 4.92803e-10 1.11323e-11 1.5969e-13 1.23861e-11 -2.47243e-11 1.23256e-11 1.23969e-11 -1.23975e-11 4.43017e-14 -2.10492e-11 3.33615e-11 2.52891e-15 -3.33473e-11 4.60473e-14 -4.65937e-14 3.33475e-11 -4.5289e-14 -3.32596e-11 3.32596e-11 -3.33465e-11 3.3346e-11 4.51246e-14 -3.33464e-11 4.58793e-14 -4.5899e-14 3.33015e-11 -3.33711e-11 1.10226e-13 3.30984e-11 -3.30991e-11 -4.00557e-14 -8.25774e-16 -4.67205e-14 -3.3301e-11 3.33012e-11 4.63736e-14 0 0 0.00135113 0.00209977 0.00201785 0.00137411 0.000672373 0.00023141 5.3493e-05 7.71765e-06 6.55042e-07 3.64023e-08 2.08735e-09 1.25142e-10 -2.09721e-11 2.48138e-11 -1.23334e-11 1.71675e-14 -1.70016e-14 1.68986e-14 -6.22542e-14 -2.09931e-11 3.33341e-11 4.50844e-14 -3.33748e-11 3.339e-11 -4.25675e-14 -7.54165e-16 -6.66935e-11 6.66934e-11 -4.46138e-14 4.10202e-14 -3.33008e-11 3.32144e-11 -3.32135e-11 3.32586e-11 -3.33014e-11 3.33013e-11 -3.32614e-11 3.32613e-11 -3.33012e-11 -2.96507e-14 -8.40844e-11 1.17248e-10 -3.30944e-11 -3.97732e-14 -9.17373e-16 -3.33486e-11 3.33025e-11 3.32556e-11 -6.65563e-11 0 0 6.19745e-07 7.66166e-07 5.11899e-07 2.17236e-07 6.21969e-08 1.32763e-08 2.47231e-09 4.04609e-10 4.93436e-11 -6.90164e-12 2.13454e-13 1.23482e-11 -1.23645e-11 2.86178e-14 -6.52214e-17 1.72032e-14 -1.70788e-14 1.69626e-14 -4.57469e-14 -2.10386e-11 3.33795e-11 -3.33462e-11 3.33463e-11 3.84021e-16 6.07645e-16 -3.33473e-11 4.59853e-14 -4.58331e-14 3.33435e-11 -3.33021e-11 -4.23679e-14 3.33023e-11 -3.32587e-11 3.32589e-11 -3.33012e-11 3.33012e-11 -3.32612e-11 3.32612e-11 -3.33471e-11 5.9696e-14 -8.42148e-11 8.41677e-11 3.17508e-14 -1.70104e-16 -3.33465e-11 3.33461e-11 -4.55455e-14 -4.49855e-14 9.13236e-14 0 0 3.32605e-12 3.10155e-12 4.2661e-12 6.73417e-13 2.8196e-12 -1.02535e-11 1.06326e-11 -1.7993e-12 -1.23414e-14 -8.72589e-12 -1.04365e-14 -2.10081e-11 3.33298e-11 -1.23251e-11 1.23368e-11 -2.47074e-11 2.47075e-11 -1.23369e-11 -2.91136e-14 1.23502e-11 -3.33555e-11 4.29246e-14 3.32584e-11 -3.33006e-11 2.784e-16 4.53392e-14 -8.41634e-17 -4.57394e-14 3.33434e-11 -3.33885e-11 3.33904e-11 -3.3346e-11 6.80803e-16 3.33465e-11 -4.5285e-14 -3.33012e-11 -3.8354e-16 -3.19233e-16 3.33006e-11 -6.66735e-11 6.6582e-11 -6.66266e-11 3.34105e-11 -3.94523e-14 9.71002e-16 4.55283e-14 -4.65422e-14 -3.33012e-11 3.33414e-11 0 0 -1.82136e-15 5.36077e-13 -3.62973e-12 1.81274e-12 -1.22731e-14 -1.05552e-11 -1.26122e-17 1.05553e-11 -1.82724e-12 -8.7449e-12 1.7364e-14 -2.10363e-11 3.33466e-11 -1.23252e-11 -3.36993e-14 3.35604e-14 -3.34873e-14 3.33712e-14 1.31468e-14 1.23253e-11 -3.33305e-11 2.90126e-16 3.32591e-11 -3.33458e-11 4.53748e-14 4.53203e-14 -3.15116e-15 3.32588e-11 -3.33462e-11 3.33889e-11 -3.33444e-11 -1.75158e-16 3.33461e-11 -3.33458e-11 3.33014e-11 -6.6648e-11 6.66017e-11 -3.32564e-11 5.14098e-16 4.56484e-14 -1.37941e-13 -3.32551e-11 3.32951e-11 6.30674e-15 1.9829e-16 4.59978e-14 -4.62478e-14 -3.33019e-11 3.33425e-11 0 0 6.18336e-16 -1.27602e-12 -2.45154e-15 -6.95826e-16 -1.82657e-12 1.81502e-12 -1.05553e-11 -7.32787e-17 1.05291e-11 1.80535e-12 -2.472e-11 2.47079e-11 -1.23653e-11 -4.97223e-15 3.35164e-14 -1.27638e-16 -1.23703e-11 1.23246e-11 1.24288e-11 -1.32486e-13 1.03656e-13 -3.33887e-11 3.86016e-16 3.33446e-11 2.71338e-15 -3.33475e-11 4.31366e-14 3.32132e-11 -3.32556e-11 3.33437e-11 -3.33441e-11 3.33467e-11 -3.33476e-11 4.69661e-14 -4.59935e-14 4.51677e-14 -1.38382e-13 9.11273e-14 1.83554e-15 4.53888e-14 -9.26041e-14 -4.4855e-14 4.45622e-14 -3.3301e-11 3.33471e-11 -6.87585e-15 -3.33398e-11 3.32551e-11 9.26294e-14 0 0 6.45906e-16 -1.81216e-12 1.81239e-12 -1.81304e-12 5.55416e-16 -1.44955e-14 1.8032e-12 -1.05436e-11 -1.40939e-14 -1.92505e-14 3.43146e-14 1.23047e-11 -2.46904e-11 2.47074e-11 -1.23491e-11 1.18738e-14 -4.53447e-14 1.23699e-11 -3.333e-11 3.33155e-11 -3.33438e-11 3.33016e-11 -3.32583e-11 3.33015e-11 2.75691e-15 -1.03139e-15 -6.66935e-11 6.66483e-11 4.55797e-14 -3.33914e-11 3.33915e-11 -4.52402e-14 -3.33014e-11 4.60906e-14 3.17969e-19 -6.99522e-16 -4.76926e-14 -3.33476e-11 3.33483e-11 -4.445e-14 -1.50367e-15 -4.51561e-14 -3.32566e-11 3.33478e-11 -1.13974e-13 1.06431e-13 -3.3409e-11 6.66269e-11 -6.65566e-11 0 0 6.44396e-16 -1.81762e-12 1.8178e-12 -1.81959e-12 -4.77504e-15 1.8196e-12 -1.84347e-12 -8.71916e-12 -3.09285e-14 1.69072e-14 3.15425e-15 1.23334e-11 -1.2382e-11 4.53675e-14 -1.23389e-14 -2.09926e-11 3.33007e-11 4.50377e-14 -3.34198e-11 8.73126e-14 -8.77967e-14 3.33468e-11 -3.32583e-11 3.32587e-11 4.54559e-14 -3.33474e-11 4.58593e-14 -4.59003e-14 3.33469e-11 -3.33915e-11 3.33916e-11 -3.33917e-11 4.49832e-14 4.55179e-14 6.99522e-16 -4.71731e-14 -6.84685e-15 -4.09929e-14 -3.33007e-11 3.33019e-11 -3.3302e-11 3.32569e-11 1.69015e-16 9.10229e-14 -1.14986e-13 -8.40394e-11 8.40834e-11 2.50534e-14 4.67546e-14 0 0 -1.38907e-15 -1.27747e-12 -5.31752e-12 5.31107e-12 -1.8175e-12 -8.74981e-12 8.72858e-12 -8.72446e-12 1.23086e-11 -1.232e-11 -1.2321e-14 -2.09924e-11 3.33128e-11 -2.46784e-11 2.46784e-11 -3.33417e-11 3.33457e-11 -3.33462e-11 3.33014e-11 -6.66482e-11 6.66