<?xml version="1.0"?>
<VTKFile type="PolyData">
	<PolyData>
		<Piece NumberOfPoints="2601" NumberOfPolys="2500">
			<Points>
				<DataArray type="Float32" NumberOfComponents="3" format="ascii">
 0 0 0 0.394812 0 0 0.290023 0 0 0.375615 0 0 0.379842 0 0 0.405394 0 0 0.426208 0 0 0.443104 0 0 0.460711 0 0 0.473677 0 0 0.487305 0 0 0.497742 0 0 0.510127 0 0 0.518892 0 0 0.529366 0 0 0.536972 0 0 0.545659 0 0 0.552558 0 0 0.559656 0 0 0.565729 0 0 0.572161 0 0 0.578225 0 0 0.583667 0 0 0.588741 0 0 0.59363 0 0 0.598122 0 0 0.602536 0 0 0.606659 0 0 0.61054 0 0 0.614553 0 0 0.619668 0 0 0.627641 0 0 0.641076 0 0 0.660014 0 0 0.68 0 0 0.7 0 0 0.72 0 0 0.74 0 0 0.76 0 0 0.78 0 0 0.8 0 0 0.82 0 0 0.84 0 0 0.86 0 0 0.88 0 0 0.9 0 0 0.92 0 0 0.94 0 0 0.96 0 0 0.98 0 0 1 0 0 0 0.394812 0 0.163139 0.163139 0 0.351373 0.162449 0 0.320545 0.1461 0 0.376928 0.0952645 0 0.399817 0.0854682 0 0.42112 0.0759956 0 0.441097 0.0682679 0 0.456353 0.0631713 0 0.472065 0.057832 0 0.483951 0.053244 0 0.497288 0.0490835 0 0.507281 0.0454737 0 0.518854 0.0427179 0 0.526992 0.0403327 0 0.536721 0.038272 0 0.54404 0.0362823 0 0.552053 0.0343891 0 0.558567 0.032627 0 0.565225 0.0310436 0 0.571476 0.029682 0 0.577564 0.0284347 0 0.583096 0.0272984 0 0.588236 0.0262443 0 0.593145 0.0252496 0 0.597695 0.0243159 0 0.602124 0.0234558 0 0.606283 0.0226629 0 0.610188 0.0219343 0 0.614237 0.0212713 0 0.619406 0.020697 0 0.627466 0.0202643 0 0.641025 0.0200491 0 0.660012 0.0200012 0 0.68 0.02 0 0.7 0.02 0 0.72 0.02 0 0.74 0.02 0 0.76 0.02 0 0.78 0.02 0 0.8 0.02 0 0.82 0.02 0 0.84 0.02 0 0.86 0.02 0 0.88 0.02 0 0.9 0.02 0 0.92 0.02 0 0.94 0.02 0 0.96 0.02 0 0.98 0.02 0 1 0.02 0 0 0.290023 0 0.162449 0.351373 0 0.189376 0.189376 0 0.32425 0.225641 0 0.342779 0.188625 0 0.378461 0.16129 0 0.406093 0.144736 0 0.426602 0.134219 0 0.446871 0.122223 0 0.462195 0.113195 0 0.477945 0.104109 0 0.490077 0.0964881 0 0.503567 0.0901369 0 0.513213 0.0845573 0 0.524284 0.0801129 0 0.532367 0.075984 0 0.541625 0.0721093 0 0.548852 0.068379 0 0.556347 0.0648417 0 0.563068 0.0617338 0 0.569712 0.0589906 0 0.575606 0.0565604 0 0.581494 0.0543663 0 0.586698 0.0523033 0 0.591748 0.0503525 0 0.596413 0.0485172 0 0.600901 0.0468112 0 0.605159 0.0452397 0 0.609138 0.0437912 0 0.613293 0.0424752 0 0.618626 0.0413396 0 0.626952 0.0404942 0 0.64088 0.0400872 0 0.660009 0.0400019 0 0.68 0.04 0 0.7 0.04 0 0.72 0.04 0 0.74 0.04 0 0.76 0.04 0 0.78 0.04 0 0.8 0.04 0 0.82 0.04 0 0.84 0.04 0 0.86 0.04 0 0.88 0.04 0 0.9 0.04 0 0.92 0.04 0 0.94 0.04 0 0.96 0.04 0 0.98 0.04 0 1 0.04 0 0 0.375615 0 0.1461 0.320545 0 0.225641 0.32425 0 0.214984 0.214984 0 0.300546 0.263546 0 0.352012 0.218948 0 0.381415 0.206965 0 0.409181 0.188152 0 0.430274 0.176841 0 0.450802 0.162525 0 0.466374 0.151619 0 0.48248 0.141224 0 0.494659 0.13247 0 0.507707 0.125235 0 0.517108 0.118604 0 0.527897 0.112679 0 0.536088 0.106947 0 0.544919 0.101443 0 0.552253 0.0963999 0 0.559894 0.0918326 0 0.566478 0.0878191 0 0.5728 0.08426 0 0.578766 0.0810724 0 0.584252 0.0780451 0 0.589458 0.0751905 0 0.594315 0.0724857 0 0.598892 0.069963 0 0.603305 0.067639 0 0.607403 0.0654916 0 0.611742 0.0635444 0 0.617353 0.061876 0 0.626133 0.0606598 0 0.640675 0.0601058 0 0.660006 0.0600017 0 0.68 0.06 0 0.7 0.06 0 0.72 0.06 0 0.74 0.06 0 0.76 0.06 0 0.78 0.06 0 0.8 0.06 0 0.82 0.06 0 0.84 0.06 0 0.86 0.06 0 0.88 0.06 0 0.9 0.06 0 0.92 0.06 0 0.94 0.06 0 0.96 0.06 0 0.98 0.06 0 1 0.06 0 0 0.379842 0 0.0952645 0.376928 0 0.188625 0.342779 0 0.263546 0.300546 0 0.25695 0.25695 0 0.314835 0.286691 0 0.35985 0.243886 0 0.387831 0.239081 0 0.414199 0.219572 0 0.434518 0.208679 0 0.454516 0.194049 0 0.469831 0.183211 0 0.485535 0.172879 0 0.497245 0.163786 0 0.510037 0.155632 0 0.519633 0.147846 0 0.530262 0.140357 0 0.538677 0.133417 0 0.547593 0.126927 0 0.55507 0.121195 0 0.5623 0.116031 0 0.568874 0.111516 0 0.575069 0.107313 0 0.580879 0.103387 0 0.58633 0.0996413 0 0.591422 0.096111 0 0.596156 0.0928095 0 0.600738 0.0897732 0 0.605013 0.0869583 0 0.609613 0.0844148 0 0.615634 0.0822587 0 0.625073 0.08074 0 0.640453 0.0801021 0 0.660003 0.0800011 0 0.68 0.08 0 0.7 0.08 0 0.72 0.08 0 0.74 0.08 0 0.76 0.08 0 0.78 0.08 0 0.8 0.08 0 0.82 0.08 0 0.84 0.08 0 0.86 0.08 0 0.88 0.08 0 0.9 0.08 0 0.92 0.08 0 0.94 0.08 0 0.96 0.08 0 0.98 0.08 0 1 0.08 0 0 0.405394 0 0.0854682 0.399817 0 0.16129 0.378461 0 0.218948 0.352012 0 0.286691 0.314835 0 0.295482 0.295482 0 0.335678 0.300372 0 0.367872 0.266909 0 0.394385 0.264566 0 0.418922 0.244666 0 0.437999 0.235075 0 0.457325 0.220924 0 0.472139 0.210369 0 0.487519 0.199699 0 0.499251 0.189994 0 0.511995 0.180652 0 0.521799 0.172009 0 0.532482 0.163723 0 0.541067 0.156375 0 0.54953 0.149521 0 0.55691 0.143577 0 0.564047 0.138096 0 0.570383 0.132997 0 0.576646 0.12817 0 0.58237 0.12359 0 0.58777 0.119277 0 0.592742 0.115265 0 0.597492 0.111559 0 0.602 0.108122 0 0.606953 0.105027 0 0.61354 0.10245 0 0.623869 0.100728 0 0.64026 0.10008 0 0.660001 0.100001 0 0.68 0.1 0 0.7 0.1 0 0.72 0.1 0 0.74 0.1 0 0.76 0.1 0 0.78 0.1 0 0.8 0.1 0 0.82 0.1 0 0.84 0.1 0 0.86 0.1 0 0.88 0.1 0 0.9 0.1 0 0.92 0.1 0 0.94 0.1 0 0.96 0.1 0 0.98 0.1 0 1 0.1 0 0 0.426208 0 0.0759956 0.42112 0 0.144736 0.406093 0 0.206965 0.381415 0 0.243886 0.35985 0 0.300372 0.335678 0 0.318502 0.318502 0 0.350428 0.31511 0 0.376261 0.287072 0 0.399996 0.286208 0 0.423396 0.265647 0 0.441443 0.257367 0 0.460169 0.243159 0 0.47466 0.23273 0 0.489741 0.221393 0 0.501456 0.211403 0 0.514089 0.201508 0 0.523999 0.192844 0 0.534144 0.184395 0 0.542437 0.177041 0 0.550869 0.170143 0 0.558107 0.163866 0 0.565041 0.157862 0 0.57154 0.152247 0 0.577682 0.146899 0 0.583379 0.141908 0 0.58868 0.137253 0 0.593615 0.132927 0 0.598419 0.128914 0 0.603828 0.125331 0 0.611164 0.122425 0 0.622653 0.120632 0 0.640123 0.12005 0 0.66 0.12 0 0.68 0.12 0 0.7 0.12 0 0.72 0.12 0 0.74 0.12 0 0.76 0.12 0 0.78 0.12 0 0.8 0.12 0 0.82 0.12 0 0.84 0.12 0 0.86 0.12 0 0.88 0.12 0 0.9 0.12 0 0.92 0.12 0 0.94 0.12 0 0.96 0.12 0 0.98 0.12 0 1 0.12 0 0 0.443104 0 0.0682679 0.441097 0 0.134219 0.426602 0 0.188152 0.409181 0 0.239081 0.387831 0 0.266909 0.367872 0 0.31511 0.350428 0 0.336382 0.336382 0 0.362823 0.329224 0 0.384908 0.304491 0 0.406043 0.304568 0 0.427996 0.283143 0 0.445062 0.275972 0 0.463101 0.261455 0 0.477164 0.25137 0 0.49196 0.239738 0 0.503539 0.230126 0 0.515695 0.220071 0 0.525237 0.21155 0 0.535164 0.203136 0 0.543504 0.19573 0 0.551637 0.188479 0 0.558954 0.181854 0 0.56581 0.175455 0 0.572306 0.169524 0 0.578337 0.163918 0 0.583979 0.158706 0 0.589171 0.153802 0 0.594351 0.149279 0 0.600335 0.145293 0 0.608628 0.142187 0 0.621584 0.140479 0 0.640047 0.140024 0 0.66 0.14 0 0.68 0.14 0 0.7 0.14 0 0.72 0.14 0 0.74 0.14 0 0.76 0.14 0 0.78 0.14 0 0.8 0.14 0 0.82 0.14 0 0.84 0.14 0 0.86 0.14 0 0.88 0.14 0 0.9 0.14 0 0.92 0.14 0 0.94 0.14 0 0.96 0.14 0 0.98 0.14 0 1 0.14 0 0 0.460711 0 0.0631713 0.456353 0 0.122223 0.446871 0 0.176841 0.430274 0 0.219572 0.414199 0 0.264566 0.394385 0 0.287072 0.376261 0 0.329224 0.362823 0 0.351738 0.351738 0 0.374321 0.341516 0 0.394417 0.319839 0 0.413389 0.319215 0 0.433381 0.297682 0 0.449385 0.291418 0 0.466442 0.276694 0 0.480012 0.267427 0 0.494199 0.25565 0 0.505229 0.246545 0 0.517018 0.236549 0 0.526493 0.228294 0 0.536008 0.219709 0 0.54436 0.212194 0 0.552374 0.204755 0 0.559498 0.197882 0 0.566407 0.191364 0 0.572727 0.185265 0 0.578732 0.179527 0 0.584239 0.174122 0 0.589898 0.16917 0 0.596612 0.164913 0 0.606093 0.16178 0 0.62079 0.160305 0 0.640013 0.160008 0 0.66 0.16 0 0.68 0.16 0 0.7 0.16 0 0.72 0.16 0 0.74 0.16 0 0.76 0.16 0 0.78 0.16 0 0.8 0.16 0 0.82 0.16 0 0.84 0.16 0 0.86 0.16 0 0.88 0.16 0 0.9 0.16 0 0.92 0.16 0 0.94 0.16 0 0.96 0.16 0 0.98 0.16 0 1 0.16 0 0 0.473677 0 0.057832 0.472065 0 0.113195 0.462195 0 0.162525 0.450802 0 0.208679 0.434518 0 0.244666 0.418922 0 0.286208 0.399996 0 0.304491 0.384908 0 0.341516 0.374321 0 0.364662 0.364662 0 0.384857 0.352019 0 0.403778 0.333205 0 0.421617 0.330758 0 0.439307 0.310033 0 0.454518 0.304352 0 0.470329 0.289643 0 0.483038 0.281191 0 0.496522 0.269449 0 0.507276 0.261076 0 0.518457 0.251054 0 0.527645 0.242945 0 0.537069 0.234422 0 0.545078 0.226794 0 0.552936 0.219326 0 0.560003 0.21242 0 0.566756 0.205834 0 0.573027 0.19967 0 0.578938 0.193842 0 0.585163 0.188594 0 0.592818 0.184224 0 0.603785 0.181287 0 0.620314 0.180154 0 0.640003 0.180002 0 0.66 0.18 0 0.68 0.18 0 0.7 0.18 0 0.72 0.18 0 0.74 0.18 0 0.76 0.18 0 0.78 0.18 0 0.8 0.18 0 0.82 0.18 0 0.84 0.18 0 0.86 0.18 0 0.88 0.18 0 0.9 0.18 0 0.92 0.18 0 0.94 0.18 0 0.96 0.18 0 0.98 0.18 0 1 0.18 0 0 0.487305 0 0.053244 0.483951 0 0.104109 0.477945 0 0.151619 0.466374 0 0.194049 0.454516 0 0.235075 0.437999 0 0.265647 0.423396 0 0.304568 0.406043 0 0.319839 0.394417 0 0.352019 0.384857 0 0.375263 0.375263 0 0.394033 0.361026 0 0.412053 0.344971 0 0.429269 0.340255 0 0.445235 0.321122 0 0.459605 0.315532 0 0.474236 0.301023 0 0.486478 0.293448 0 0.499149 0.281695 0 0.509315 0.273719 0 0.520103 0.263885 0 0.529004 0.255954 0 0.537914 0.247462 0 0.545898 0.239979 0 0.553399 0.23252 0 0.560444 0.225677 0 0.566993 0.21909 0 0.57336 0.213013 0 0.580282 0.207602 0 0.58911 0.203312 0 0.601966 0.200801 0 0.620094 0.200057 0 0.64 0.2 0 0.66 0.2 0 0.68 0.2 0 0.7 0.2 0 0.72 0.2 0 0.74 0.2 0 0.76 0.2 0 0.78 0.2 0 0.8 0.2 0 0.82 0.2 0 0.84 0.2 0 0.86 0.2 0 0.88 0.2 0 0.9 0.2 0 0.92 0.2 0 0.94 0.2 0 0.96 0.2 0 0.98 0.2 0 1 0.2 0 0 0.497742 0 0.0490835 0.497288 0 0.0964881 0.490077 0 0.141224 0.48248 0 0.183211 0.469831 0 0.220924 0.457325 0 0.257367 0.441443 0 0.283143 0.427996 0 0.319215 0.413389 0 0.333205 0.403778 0 0.361026 0.394033 0 0.384038 0.384038 0 0.402071 0.369154 0 0.419094 0.355472 0 0.435879 0.348678 0 0.450462 0.331311 0 0.46449 0.32581 0 0.478047 0.311551 0 0.489539 0.304376 0 0.501595 0.292753 0 0.511417 0.285146 0 0.521506 0.275401 0 0.530247 0.267711 0 0.538796 0.259399 0 0.546493 0.252007 0 0.553859 0.244717 0 0.56068 0.237951 0 0.567597 0.231674 0 0.575421 0.226296 0 0.585707 0.222303 0 
[...]
			<PointData Scalars="VitesseX">
				<DataArray Name="VitesseX" type="Float32" format="ascii">
 0 1.82918 0.665553 1.3111 1.1956 1.2771 1.33343 1.36697 1.42858 1.54032 1.5628 1.57613 1.63712 1.72434 1.76628 1.75827 1.80841 1.82345 1.91373 1.93088 1.84193 1.9872 2.00238 2.0455 2.06906 2.06128 2.11909 2.12213 2.15724 2.08228 1.83339 1.27149 0.373626 0.0087514 1.38285e-06 7.55469e-12 3.61974e-12 -1.06152e-12 1.07001e-12 -1.07001e-12 1.06152e-12 -3.61974e-12 3.62329e-12 1.20347e-14 -1.20334e-14 -3.62329e-12 3.61125e-12 -3.61125e-12 3.62328e-12 1.20799e-14 0 0 0.254209 1.4208 0.78964 1.20776 1.20865 1.33877 1.36739 1.42336 1.53606 1.57246 1.56182 1.6373 1.72212 1.74787 1.76969 1.78472 1.84514 1.89527 1.91071 1.87569 1.98079 1.99559 2.04592 2.06828 2.05873 2.11872 2.12125 2.15449 2.07749 1.82498 1.25784 0.359588 0.00799967 1.19642e-06 6.48532e-12 3.62065e-12 -1.06492e-12 1.0743e-12 -1.07431e-12 1.06491e-12 -3.62063e-12 3.62028e-12 1.20161e-14 -9.01992e-15 -3.62326e-12 3.61729e-12 -3.61729e-12 3.62327e-12 9.07373e-15 0 0 0.794602 0.34448 1.2129 0.977766 1.15005 1.25089 1.32385 1.38959 1.49366 1.53125 1.55414 1.60978 1.69592 1.74449 1.73647 1.79685 1.84171 1.87476 1.86113 1.94496 1.95335 1.9964 2.03255 2.06831 2.05546 2.11568 2.11987 2.14644 2.06297 1.79913 1.21603 0.31922 0.00608197 7.7491e-07 5.62686e-12 1.80399e-12 1.28981e-12 -1.28255e-12 1.28271e-12 -1.28327e-12 -1.81068e-12 3.62029e-12 -1.80566e-12 -5.88118e-15 8.51671e-15 -2.33002e-14 2.33261e-14 -8.51744e-15 5.91848e-15 0 0 0.700774 0.909247 0.360066 0.82616 1.05307 1.18084 1.24993 1.33641 1.44704 1.49577 1.52331 1.59614 1.67298 1.70404 1.74227 1.77952 1.83703 1.82811 1.86846 1.95816 1.93456 2.0017 2.00434 2.06511 2.05889 2.10604 2.1204 2.13346 2.03861 1.75388 1.14338 0.258098 0.00379449 3.76513e-07 2.59402e-12 1.80534e-12 -5.30612e-12 5.31389e-12 4.70682e-15 -5.7791e-15 -1.81169e-12 1.81096e-12 -2.28184e-15 1.8784e-16 -5.30994e-12 5.29799e-12 -5.29793e-12 5.30687e-12 5.95346e-15 0 0 0.312122 0.648564 0.950824 0.725934 0.914512 1.11257 1.21738 1.28884 1.39326 1.44845 1.49367 1.55652 1.63403 1.67973 1.72093 1.77817 1.77906 1.82809 1.88506 1.92764 1.93612 1.99211 1.9794 2.05058 2.06653 2.09141 2.12041 2.11733 2.00426 1.68646 1.03513 0.186042 0.00190197 1.38809e-07 2.75039e-13 1.8032e-12 -5.30968e-12 5.31535e-12 3.23561e-15 -8.88946e-16 -1.81094e-12 -9.14393e-16 1.80955e-12 -2.76122e-15 -5.31252e-12 5.30662e-12 -7.11826e-12 7.12413e-12 6.03266e-15 0 0 0.278442 0.517466 0.632723 1.02494 1.01643 1.0693 1.132 1.26987 1.34364 1.38737 1.45322 1.51382 1.5868 1.64499 1.70692 1.71742 1.75971 1.82751 1.88321 1.87816 1.95721 1.96076 1.97376 2.02257 2.06835 2.07791 2.11631 2.09685 1.95884 1.59467 0.886099 0.116042 0.00074483 4.02201e-08 7.95272e-13 -2.35435e-14 1.8349e-12 -1.83185e-12 1.83206e-12 -1.81246e-12 -1.6838e-14 1.82895e-12 -1.82595e-12 8.76211e-15 1.81752e-12 -1.8264e-12 1.82042e-12 -1.80918e-12 3.71414e-15 0 0 0.247577 0.450824 0.64687 0.684251 0.966612 1.09467 1.12842 1.19642 1.29433 1.34835 1.4041 1.47934 1.55126 1.61654 1.65305 1.6901 1.74331 1.83389 1.82571 1.86719 1.94043 1.94273 1.97439 1.99652 2.05334 2.07074 2.10621 2.06597 1.89741 1.47722 0.696831 0.0603513 0.000219976 9.7575e-09 2.66254e-13 1.79108e-12 -1.23606e-11 1.23636e-11 -1.79406e-12 -1.74722e-14 1.8144e-12 -1.05548e-11 1.0555e-11 -8.97597e-15 -1.78857e-12 -3.16465e-14 1.83772e-12 -1.81775e-12 1.23119e-14 0 0 0.215299 0.424749 0.575008 0.728275 0.759446 1.00786 1.12898 1.16896 1.22427 1.30541 1.37407 1.43583 1.51752 1.56648 1.60582 1.67152 1.74965 1.77115 1.80637 1.85836 1.89394 1.94398 1.96866 1.9835 2.02683 2.06486 2.08933 2.02198 1.81073 1.32786 0.48361 0.0250944 4.68067e-05 2.06676e-09 -1.76384e-12 1.82629e-12 -1.23927e-11 1.23896e-11 -1.80266e-12 1.80554e-12 -1.0549e-11 -1.73915e-14 1.05548e-11 -6.07685e-15 -1.23462e-11 1.23289e-11 -1.23285e-11 1.23284e-11 5.53315e-14 0 0 0.209145 0.3819 0.558687 0.670967 0.822184 0.876422 1.0519 1.15508 1.20739 1.26696 1.34153 1.4221 1.45774 1.52902 1.59187 1.66475 1.69642 1.73194 1.79619 1.84026 1.85026 1.95295 1.94237 1.99036 1.9959 2.05511 2.06159 1.96704 1.69209 1.12873 0.28187 0.00797247 6.78913e-06 3.53124e-10 1.05506e-11 -1.23634e-11 1.23631e-11 -1.2366e-11 1.05605e-11 3.60837e-12 -1.23574e-11 -1.35438e-16 -1.82618e-12 1.2381e-11 -1.05783e-11 1.23636e-11 -2.47065e-11 2.47065e-11 -1.2323e-11 0 0 0.196165 0.375232 0.517971 0.675692 0.766425 0.917191 0.953577 1.09136 1.21265 1.2528 1.34166 1.39644 1.44887 1.51497 1.58424 1.61999 1.65208 1.71074 1.7934 1.78602 1.86724 1.91624 1.93165 1.9868 1.97887 2.04108 2.01982 1.89178 1.54258 0.863666 0.13056 0.00183724 6.49283e-07 3.38354e-11 1.89659e-14 -3.8029e-14 1.236e-11 -1.23425e-11 1.05197e-11 -1.054e-11 2.3309e-14 -2.06308e-14 2.07152e-14 -3.05467e-15 1.23652e-11 -1.23828e-11 2.07974e-14 -2.09202e-17 4.86572e-17 0 0 0.188263 0.330651 0.502119 0.608863 0.764689 0.82777 1.00609 1.02724 1.14708 1.27223 1.3398 1.39643 1.4579 1.51726 1.53663 1.57766 1.64242 1.71458 1.73691 1.79577 1.86081 1.87967 1.93482 1.96283 1.98166 2.01683 1.96456 1.77714 1.35182 0.555808 0.0454281 0.000286235 4.57906e-08 5.82724e-12 -2.47092e-11 2.47125e-11 -1.23873e-11 3.81084e-14 1.23286e-11 -2.4692e-11 1.23662e-11 1.23258e-11 -1.23257e-11 2.09009e-14 -1.51293e-15 2.31859e-17 1.23064e-11 -2.46921e-11 2.47335e-11 0 0 0.164923 0.314726 0.448526 0.604324 0.699817 0.856223 0.892989 1.08614 1.10895 1.22368 1.33258 1.34339 1.44009 1.4972 1.52157 1.5667 1.64544 1.68502 1.71926 1.80317 1.83977 1.86165 1.93274 1.93793 1.98584 1.97366 1.89137 1.62122 1.08297 0.279069 0.0112158 2.74683e-05 3.26384e-09 2.96318e-13 4.26563e-14 -3.36368e-14 1.43022e-14 -5.51196e-14 5.54224e-14 1.90967e-14 -1.98778e-14 1.23468e-11 -1.23811e-11 5.5933e-14 -1.57024e-15 -6.59921e-16 1.23068e-11 -1.23808e-11 5.55676e-14 0 0 0.155819 0.296867 0.438624 0.570103 0.703318 0.790563 0.945939 0.961179 1.1514 1.17709 1.23811 1.35254 1.42246 1.44496 1.49236 1.57892 1.63066 1.65211 1.73811 1.79195 1.80042 1.87704 1.89192 1.94378 1.96256 1.92633 1.77387 1.42686 0.726006 0.101647 0.00183164 1.49128e-06 2.41832e-10 2.52088e-14 1.2365e-11 -1.2359e-11 -2.099e-11 3.32952e-11 -1.22907e-11 1.23449e-11 -1.23453e-11 -2.10037e-11 3.3336e-11 -1.23315e-11 1.23448e-11 -1.23456e-11 -2.10039e-11 3.33158e-11 -2.46926e-11 0 0 0.149473 0.287399 0.428742 0.557257 0.679742 0.791642 0.880654 1.00905 1.01172 1.21079 1.21124 1.30094 1.39651 1.40952 1.51352 1.59511 1.61884 1.66856 1.73204 1.74707 1.81155 1.84324 1.88117 1.93351 1.92593 1.84997 1.61349 1.14636 0.368477 0.0251171 0.000176546 5.1394e-08 4.34568e-11 -1.23303e-11 -2.05635e-14 1.23523e-11 -3.33363e-11 3.33158e-11 -1.22907e-11 -4.08128e-14 1.23726e-11 -3.3336e-11 3.33154e-11 5.55308e-14 -1.24077e-11 1.2036e-14 -2.09576e-11 -1.87431e-14 2.10081e-11 0 0 0.140568 0.280621 0.405994 0.543111 0.652827 0.768903 0.856691 0.939055 1.08137 1.08262 1.23448 1.22779 1.30611 1.40922 1.46775 1.52188 1.6089 1.67895 1.69933 1.74163 1.80168 1.81913 1.87213 1.90931 1.87224 1.72742 1.40802 0.752351 0.129456 0.00387901 8.77876e-06 1.95907e-09 -1.20037e-11 -6.37673e-15 4.11724e-14 -5.54291e-14 3.47704e-14 -3.4729e-14 5.53774e-14 -7.59795e-14 1.24074e-11 -6.28427e-17 -1.23869e-11 5.40286e-14 5.78888e-16 -8.40302e-14 -2.09019e-11 -1.98287e-15 3.3338e-11 0 0 0.1342 0.263994 0.394607 0.520861 0.638108 0.724197 0.823873 0.925416 1.01706 1.11248 1.10705 1.22289 1.31203 1.34652 1.43831 1.52304 1.58549 1.64548 1.67671 1.73756 1.75926 1.80356 1.86448 1.85054 1.78732 1.55152 1.09469 0.355961 0.0289425 0.000332318 2.11588e-07 8.08514e-11 -2.46759e-11 2.46919e-11 -1.23404e-11 1.48461e-14 -7.60269e-14 5.56829e-14 2.04114e-14 1.229e-11 -3.32949e-11 3.33352e-11 -1.23865e-11 5.39142e-14 -2.1003e-11 3.32805e-11 -3.33155e-11 3.33883e-11 -5.14111e-14 0 0 0.125856 0.258452 0.381175 0.503806 0.597337 0.693166 0.800228 0.912501 0.981596 1.03492 1.14775 1.15362 1.30503 1.32814 1.40461 1.47677 1.55394 1.5859 1.66733 1.69035 1.73154 1.79918 1.80706 1.7899 1.62246 1.31615 0.652789 0.108669 0.00380973 1.28779e-05 4.50791e-09 1.47922e-12 4.18983e-14 -2.45977e-16 -1.48958e-14 -2.09896e-11 3.32596e-11 9.03031e-14 -2.47127e-11 2.46774e-11 -3.32985e-11 -1.75962e-14 3.33329e-11 -5.18081e-14 -3.32612e-11 3.32263e-11 1.07536e-13 -3.33876e-11 3.33898e-11 0 0 0.122553 0.251668 0.364735 0.470395 0.568176 0.675077 0.788185 0.872336 0.940558 1.02453 1.09859 1.19766 1.20375 1.31047 1.41857 1.44097 1.47968 1.57822 1.62268 1.66485 1.72209 1.75753 1.7513 1.64664 1.42275 0.917843 0.255893 0.0201159 0.000238681 2.18526e-07 1.07557e-10 -4.5038e-15 4.13197e-14 -1.23668e-11 2.46773e-11 -3.33505e-11 3.33354e-11 -3.33016e-11 2.09698e-11 1.22909e-11 3.73162e-14 -3.33322e-11 5.13065e-14 3.32814e-11 1.37514e-15 -2.60062e-15 -3.32801e-11 4.99314e-15 -3.02726e-15 0 0 0.118361 0.235796 0.339598 0.44718 0.56086 0.663374 0.755583 0.83231 0.927729 1.00479 1.07727 1.12083 1.23543 1.27076 1.3447 1.44037 1.47616 1.51969 1.56626 1.65344 1.69381 1.69224 1.64748 1.45276 1.0982 0.431546 0.0621938 0.00178829 6.4698e-06 3.04614e-09 1.59739e-12 1.23264e-11 -2.46924e-11 1.23112e-11 1.23656e-11 -1.42549e-14 -3.33363e-11 -9.5711e-17 3.33362e-11 -3.33561e-11 -3.45297e-14 3.33358e-11 -3.32289e-11 1.20692e-16 3.3281e-11 -3.3282e-11 4.75181e-15 3.57775e-16 -2.89159e-15 0 0 0.104992 0.215625 0.327162 0.440373 0.541976 0.631143 0.720853 0.829093 0.90707 0.977853 1.0283 1.13654 1.18539 1.26436 1.30044 1.37429 1.48029 1.46828 1.56488 1.61847 1.63938 1.60846 1.44364 1.20287 0.57942 0.130967 0.00687453 7.81552e-05 5.80411e-08 5.2399e-11 -2.96352e-14 3.49054e-14 1.66613e-14 1.22937e-11 -3.33156e-11 3.32461e-11 -3.3281e-11 3.32806e-11 -3.32804e-11 -5.54059e-14 5.58362e-14 3.3225e-11 -3.31729e-11 6.60725e-17 3.3225e-11 -3.3225e-11 3.27882e-15 -4.49329e-15 3.33385e-11 0 0 0.103159 0.214951 0.325905 0.423569 0.515636 0.609614 0.714848 0.797393 0.875631 0.94281 1.04345 1.09029 1.1637 1.20781 1.3027 1.34389 1.39101 1.4923 1.50782 1.58294 1.56523 1.43011 1.2254 0.678204 0.209109 0.0164156 0.00044365 7.32308e-07 8.34897e-10 -4.51762e-11 4.56256e-11 -1.22383e-11 1.23109e-11 -5.24688e-14 -3.32629e-11 -1.07749e-13 5.51419e-14 3.32808e-11 -3.33357e-11 3.33354e-11 -3.32801e-11 3.32253e-11 -3.31735e-11 3.3226e-11 -5.22921e-16 -3.32248e-11 -5.27806e-14 3.33882e-11 -5.09745e-14 0 0 0.108875 0.209404 0.306647 0.409322 0.510871 0.606273 0.685749 0.771626 0.85927 0.949907 0.991998 1.07056 1.11815 1.22113 1.23468 1.31297 1.40103 1.42824 1.46673 1.44832 1.39236 1.22264 0.740691 0.265869 0.0289169 0.00138276 4.50858e-06 7.15002e-09 1.78219e-11 -3.33021e-11 3.32939e-11 -3.32424e-11 3.33152e-11 -8.69627e-14 -3.32281e-11 -1.08233e-13 5.59419e-14 -2.62871e-16 3.33329e-11 -3.33329e-11 -1.83407e-16 3.3281e-11 -3.32288e-11 3.32265e-11 -3.3226e-11 -5.26754e-14 3.33364e-11 -3.33358e-11 3.33898e-11 0 0 0.102965 0.203422 0.304549 0.402849 0.494556 0.579958 0.673197 0.7665 0.848785 0.902714 0.979016 1.03607 1.12077 1.13991 1.24586 1.27962 1.34955 1.39658 1.36392 1.27663 1.12846 0.747248 0.299476 0.0407534 0.00258021 1.5968e-05 4.0429e-08 2.46014e-11 2.47388e-11 -1.42318e-14 -3.33363e-11 5.25086e-14 -1.1314e-15 3.32848e-11 -3.33912e-11 3.33356e-11 -3.32805e-11 -6.16321e-17 3.33328e-11 -3.33879e-11 3.33909e-11 -3.33357e-11 2.38072e-16 3.33339e-11 -3.3389e-11 3.3391e-11 -3.33365e-11 5.69494e-14 -3.08819e-15 0 0 0.0999871 0.197682 0.291059 0.383503 0.476272 0.56798 0.652871 0.733905 0.811105 0.895333 0.955863 1.0206 1.06302 1.16026 1.18355 1.27414 1.26334 1.27979 1.20011 1.0407 0.656872 0.282295 0.0467529 0.00367499 3.52706e-05 1.21231e-07 1.4384e-10 2.81502e-13 -2.09488e-11 3.33014e-11 -3.33364e-11 3.33332e-11 -3.33336e-11 6.64747e-16 3.33337e-11 -3.3334e-11 5.20604e-14 3.32287e-11 -3.33359e-11 3.33886e-11 -3.33331e-11 5.22473e-14 3.32282e-11 -3.33355e-11 3.33882e-11 -3.3333e-11 5.54212e-14 4.78266e-16 -2.78278e-15 0 0 0.0967503 0.190678 0.283728 0.375562 0.464637 0.548899 0.632609 0.71783 0.800169 0.863948 0.928965 0.990062 1.06802 1.10078 1.16974 1.1545 1.18301 1.05947 0.941762 0.555959 0.236881 0.0382736 0.00364072 5.06786e-05 2.37998e-07 3.44668e-10 -1.9985e-11 3.32266e-11 -3.32071e-11 3.32831e-11 -4.01906e-16 -3.33909e-11 3.33357e-11 -3.32277e-11 3.32809e-11 -3.33337e-11 5.2325e-14 3.31729e-11 -3.31721e-11 3.32801e-11 -3.33332e-11 5.25945e-14 3.31727e-11 -3.31719e-11 3.32795e-11 -3.33324e-11 5.57276e-14 -1.11483e-13 3.34452e-11 0 0 0.0917769 0.182332 0.272308 0.362291 0.451101 0.536381 0.61688 0.693224 0.765113 0.839904 0.907672 0.970872 1.01012 1.05962 1.0487 1.04686 0.929386 0.793437 0.41796 0.179287 0.0262665 0.00253789 3.50335e-05 2.37685e-07 5.12593e-10 1.81785e-12 -6.66484e-11 6.66164e-11 1.08315e-13 -5.27844e-14 -2.90213e-16 -6.66716e-11 6.66162e-11 1.08341e-13 -1.08171e-13 5.55084e-14 -6.66721e-11 6.66167e-11 1.08237e-13 -1.08255e-13 5.53615e-14 -6.6672e-11 6.66166e-11 1.08526e-13 -1.08525e-13 5.57211e-14 -6.66723e-11 6.6617e-11 -3.32812e-11 0 0 0.0896722 0.178693 0.266062 0.351161 0.43489 0.518467 0.601559 0.680468 0.755406 0.818504 0.870001 0.913351 0.941982 0.927857 0.8971 0.77692 0.593708 0.288381 0.109445 0.0143696 0.00135803 1.58051e-05 1.20805e-07 3.67582e-10 1.85655e-12 -3.33325e-11 5.67611e-14 -5.65096e-14 3.33363e-11 8.27534e-17 -3.33365e-11 5.6655e-14 -5.67211e-14 3.33363e-11 1.03441e-16 -3.33363e-11 5.66348e-14 -5.65938e-14 3.3336e-11 4.16538e-16 -3.33365e-11 5.66157e-14 -5.65186e-14 3.33364e-11 5.12751e-14 -3.33878e-11 -3.36097e-16 -9.57643e-16 8.61252e-16 0 0 0.086193 0.171904 0.257056 0.341445 0.425138 0.50723 0.585077 0.655428 0.716051 0.766375 0.799285 0.810316 0.789835 0.730328 0.583284 0.384332 0.168034 0.0510282 0.00609038 0.000435746 4.44186e-06 4.02159e-08 1.42585e-10 -2.00977e-11 2.32778e-14 5.55613e-14 7.32816e-17 3.18294e-17 -5.62554e-14 -1.03892e-16 5.62752e-14 -8.41948e-17 -3.49987e-15 -5.28296e-14 -3.2494e-16 5.67597e-14 3.11277e-17 -4.22211e-16 -5.64528e-14 2.5086e-16 5.66139e-14 1.02581e-17 -3.89734e-15 3.3173e-11 -3.31742e-11 -1.08e-13 3.32802e-11 -6.65619e-11 3.33317e-11 0 0 0.0838146 0.167039 0.249009 0.328955 0.406512 0.479485 0.54554 0.601673 0.642715 0.662841 0.660567 0.621521 0.525126 0.368982 0.204484 0.0744775 0.0167945 0.00163813 7.67847e-05 7.19689e-07 7.08763e-09 2.40522e-11 2.50119e-11 -3.34036e-11 5.55223e-14 5.552e-14 -3.18292e-17 -4.52e-16 -5.58133e-14 -6.46431e-17 5.65197e-14 -5.65496e-14 3.33339e-11 -3.33895e-11 5.51661e-14 5.67174e-14 7.2663e-17 -4.63671e-16 -1.11858e-13 5.5783e-14 5.63389e-14 -3.44546e-15 -6.5161e-16 3.31731e-11 -6.65621e-11 6.65604e-11 -3.33366e-11 -3.32247e-11 3.3331e-11 0 0 0.0776829 0.154397 0.229108 0.300619 0.366763 0.423901 0.46795 0.496152 0.503073 0.477097 0.406563 0.300315 0.180839 0.0796634 0.0216875 0.00333941 0.000225936 6.36055e-06 5.65095e-08 8.24926e-10 -6.9373e-12 1.15728e-13 -2.10591e-11 3.33542e-11 2.96083e-15 -3.33369e-11 5.63192e-14 -5.68448e-14 3.33371e-11 -5.55961e-14 -3.3229e-11 3.32291e-11 -3.33358e-11 3.33353e-11 5.54318e-14 -3.33361e-11 5.62333e-14 -5.62328e-14 3.32809e-11 -3.33661e-11 1.35518e-13 3.3032e-11 -3.30327e-11 -4.98589e-14 -7.12483e-16 -5.69712e-14 -3.32803e-11 3.32806e-11 5.65369e-14 0 0 0.0653721 0.128877 0.188527 0.242021 0.286271 0.316241 0.324676 0.305055 0.25855 0.194276 0.122464 0.0572975 0.0176805 0.00321889 0.000306689 1.24522e-05 2.12743e-07 2.94554e-09 5.13845e-11 -2.05398e-11 3.33279e-11 5.52775e-14 -3.33707e-11 3.33891e-11 -5.2402e-14 -6.30284e-16 -6.66727e-11 6.66726e-11 -5.49626e-14 5.08959e-14 -3.328e-11 3.31736e-11 -3.31727e-11 3.32279e-11 -3.32806e-11 3.32805e-11 -3.32307e-11 3.32306e-11 -3.32806e-11 -3.56716e-14 -8.40678e-11 1.1718e-10 -3.30275e-11 -4.95506e-14 -8.29665e-16 -3.33382e-11 3.3282e-11 3.32249e-11 -6.65051e-11 0 0 0.0423701 0.0814301 0.113636 0.135408 0.144025 0.138813 0.12082 0.0917449 0.056262 0.0253402 0.00773107 0.00148524 0.000159183 8.36582e-06 2.02912e-07 4.29887e-09 1.04444e-10 1.58778e-12 -2.94605e-14 -2.10459e-11 3.33764e-11 -3.33357e-11 3.33358e-11 3.63058e-16 5.8703e-16 -3.3337e-11 5.6339e-14 -5.60995e-14 3.33327e-11 -3.32814e-11 -5.22846e-14 3.32817e-11 -3.32282e-11 3.32283e-11 -3.32804e-11 3.32803e-11 -3.32305e-11 3.32304e-11 -3.33366e-11 7.38167e-14 -8.42282e-11 8.41707e-11 3.81754e-14 -3.33692e-16 -3.3336e-11 3.33356e-11 -5.57495e-14 -5.51029e-14 1.11768e-13 0 0 0.013714 0.0253142 0.0328515 0.0347792 0.0305591 0.0216665 0.0118166 0.00470912 0.00130359 0.000233436 2.45711e-05 1.39244e-06 4.77198e-08 1.80099e-09 7.79121e-11 -2.32425e-11 2.47274e-11 -1.23247e-11 -3.55106e-14 1.23423e-11 -3.33475e-11 5.28665e-14 3.32279e-11 -3.32798e-11 1.03189e-16 5.54972e-14 -8.41948e-17 -5.58971e-14 3.33327e-11 -3.33879e-11 3.339e-11 -3.33355e-11 8.09479e-16 3.3336e-11 -5.55719e-14 -3.32804e-11 -4.71456e-16 -2.77956e-16 3.328e-11 -6.66481e-11 6.65361e-11 -6.65907e-11 3.3415e-11 -4.90341e-14 1.01775e-15 5.55571e-14 -5.66591e-14 -3.32805e-11 3.33303e-11 0 0 0.000732937 0.0011404 0.00110189 0.00076139 0.000383155 0.000138185 3.43889e-05 5.57389e-06 5.63846e-07 3.96704e-08 2.8422e-09 1.8035e-10 4.27363e-11 -1.19646e-11 -2.63918e-14 4.16037e-14 -4.10677e-14 4.09724e-14 1.63868e-14 1.23114e-11 -3.33163e-11 2.89694e-16 3.32287e-11 -3.33354e-11 5.54858e-14 5.54371e-14 -3.54206e-15 3.32285e-11 -3.33357e-11 3.33881e-11 -3.33335e-11 -2.2171e-16 3.33357e-11 -3.33354e-11 3.32807e-11 -6.66168e-11 6.65604e-11 -3.32257e-11 2.76842e-16 5.52264e-14 -1.67861e-13 -3.3224e-11 3.32735e-11 7.18099e-15 6.94787e-17 5.60735e-14 -5.63238e-14 -3.32813e-11 3.33313e-11 0 0 1.86379e-07 2.35046e-07 1.63289e-07 7.43928e-08 2.41891e-08 6.27388e-09 1.42081e-09 2.71816e-10 4.74612e-11 5.23555e-12 -2.44376e-11 2.47145e-11 -1.23588e-11 -6.08212e-15 4.11261e-14 -2.01403e-16 -1.23664e-11 1.23105e-11 1.24384e-11 -1.62524e-13 1.27428e-13 -3.33881e-11 5.34711e-16 3.33337e-11 3.06289e-15 -3.33372e-11 5.31673e-14 3.31725e-11 -3.32247e-11 3.33328e-11 -3.33333e-11 3.33363e-11 -3.33373e-11 5.72528e-14 -5.63529e-14 5.50951e-14 -1.68568e-13 1.115e-13 1.66064e-15 5.43588e-14 -1.11773e-13 -5.49312e-14 5.46793e-14 -3.32803e-11 3.33367e-11 -7.78628e-15 -3.33284e-11 3.32242e-11 1.12915e-13 0 0 1.06925e-12 -2.10924e-13 3.24267e-12 -9.23731e-13 4.04379e-13 1.24229e-13 1.84144e-12 -1.05271e-11 -1.62449e-14 -2.33439e-14 4.22409e-14 1.22859e-11 -2.46713e-11 2.4692e-11 -1.23403e-11 1.45197e-14 -5.54531e-14 1.23659e-11 -3.33158e-11 3.32982e-11 -3.3333e-11 3.3281e-11 -3.32277e-11 3.32807e-11 3.0653e-15 -9.48812e-16 -6.66726e-11 6.66171e-11 5.57634e-14 -3.33909e-11 3.33911e-11 -5.55266e-14 -3.32806e-11 5.60991e-14 3.89401e-19 -1.13159e-15 -5.75009e-14 -3.33371e-11 3.33379e-11 -5.52364e-14 -9.16388e-16 -5.53198e-14 -3.32258e-11 3.33373e-11 -1.39615e-13 1.31408e-13 -3.34135e-11 6.65911e-11 -6.65054e-11 0 0 7.95968e-16 -1.81758e-12 1.81785e-12 -1.82003e-12 -5.84007e-15 1.82005e-12 -1.84927e-12 -8.71161e-12 -3.79565e-14 2.06819e-14 3.98348e-15 1.23211e-11 -1.23808e-11 5.55496e-14 -1.50381e-14 -2.09897e-11 3.32799e-11 5.51186e-14 -3.34258e-11 1.07222e-13 -1.07706e-13 3.33363e-11 -3.32277e-11 3.32282e-11 5.56807e-14 -3.33371e-11 5.61922e-14 -5.62337e-14 3.33365e-11 -3.33911e-11 3.33911e-11 -3.33915e-11 5.52437e-14 5.50945e-14 1.13159e-15 -5.7461e-14 -7.5445e-15 -5.03288e-14 -3.32802e-11 3.32812e-11 -3.32812e-11 3.32261e-11 8.69841e-17 1.11344e-13 -1.4075e-13 -8.40126e-11 8.40666e-11 3.0698e-14 5.68766e-14 0 0 -1.69433e-15 -1.27703e-12 -5.31728e-12 5.3094e-12 -1.81744e-12 -8.74925e-12 8.72321e-12 -8.71803e-12 1.22907e-11 -1.23048e-11 -1.50628e-14 -2.09895e-11 3.32947e-11 -2.46566e-11 2.46565e-11 -3.33301e-11 3.33353e-11 -3.33357e-11 3.32807e-11 -6.66171e-11 6.66169e-11 -3.3281e-11 5.25655e-14 -5.15037e-14 5.47212e-17 5.55193e-14 3.11277e-17 -7.34421e-17 -5.62962e-14 3.33315e-11 -3.33313e-11 1.80816e-16 -1.11943e-13 1.65224e-13 -5.41574e-14 -8.54505e-15 -3.33357e-11 3.32785e-11 8.22797e-15 -3.32812e-11 5.1386e-16 3.31949e-11 3.33662e-11 -6.65913e-11 3.3336e-11 -8.41776e-11 1.17293e-10 -6.64208e-11 3.33298e-11 0 0 -7.9737e-16 -1.28006e-12 -5.31373e-12 5.30375e-12 -1.81443e-12 -8.75233e-12 8.72021e-12 -8.71488e-12 1.2308e-11 -2.46887e-11 2.46773e-11 -3.33358e-11 3.33153e-11 -2.46566e-11 2.46362e-11 6.04716e-14 -3.33713e