<?xml version="1.0"?>
<VTKFile type="PolyData">
	<PolyData>
		<Piece NumberOfPoints="2601" NumberOfPolys="2500">
			<Points>
				<DataArray type="Float32" NumberOfComponents="3" format="ascii">
 0 0 0 0.537516 0 0 0.319169 0 0 0.469401 0 0 0.461701 0 0 0.496133 0 0 0.518025 0 0 0.540205 0 0 0.560328 0 0 0.576699 0 0 0.593987 0 0 0.606749 0 0 0.622077 0 0 0.633783 0 0 0.647085 0 0 0.657266 0 0 0.668903 0 0 0.677695 0 0 0.687999 0 0 0.695722 0 0 0.705139 0 0 0.712599 0 0 0.720802 0 0 0.727568 0 0 0.734487 0 0 0.740627 0 0 0.747042 0 0 0.7531 0 0 0.758581 0 0 0.763879 0 0 0.768989 0 0 0.773853 0 0 0.778564 0 0 0.782967 0 0 0.787194 0 0 0.791263 0 0 0.795155 0 0 0.798895 0 0 0.80267 0 0 0.807088 0 0 0.813389 0 0 0.823719 0 0 0.84022 0 0 0.86 0 0 0.88 0 0 0.9 0 0 0.92 0 0 0.94 0 0 0.96 0 0 0.98 0 0 1 0 0 0 0.537516 0 0.176092 0.176092 0 0.467933 0.224383 0 0.373897 0.191662 0 0.460547 0.11815 0 0.484525 0.105208 0 0.513397 0.0935309 0 0.53619 0.0829933 0 0.555688 0.0774265 0 0.574624 0.0708209 0 0.589748 0.0655099 0 0.606515 0.0601442 0 0.618905 0.0557823 0 0.633617 0.0521336 0 0.6447 0.0494019 0 0.657109 0.0469055 0 0.666766 0.0445882 0 0.677849 0.042446 0 0.686 0.0403283 0 0.695917 0.0384946 0 0.703561 0.0368072 0 0.712555 0.035385 0 0.719686 0.0341066 0 0.727247 0.03288 0 0.733717 0.0316974 0 0.740321 0.0305695 0 0.746532 0.0295356 0 0.752602 0.0285377 0 0.758138 0.0276199 0 0.763482 0.0268006 0 0.768624 0.0260573 0 0.773491 0.0253516 0 0.778214 0.0246665 0 0.782647 0.0240002 0 0.786891 0.0233616 0 0.790981 0.0227566 0 0.79489 0.0221895 0 0.798648 0.0216596 0 0.802439 0.0211644 0 0.806884 0.0207146 0 0.81323 0.020342 0 0.823633 0.0200988 0 0.840209 0.0200102 0 0.86 0.02 0 0.88 0.02 0 0.9 0.02 0 0.92 0.02 0 0.94 0.02 0 0.96 0.02 0 0.98 0.02 0 1 0.02 0 0 0.319169 0 0.224383 0.467933 0 0.205746 0.205746 0 0.414117 0.291378 0 0.406669 0.234385 0 0.457515 0.198405 0 0.490535 0.175763 0 0.518237 0.164477 0 0.542185 0.148911 0 0.562096 0.138722 0 0.582067 0.127342 0 0.597308 0.118243 0 0.614353 0.109966 0 0.627038 0.103584 0 0.641159 0.0980124 0 0.651974 0.0933211 0 0.664143 0.0888607 0 0.673434 0.0843818 0 0.68416 0.080343 0 0.692317 0.0765072 0 0.702093 0.0732808 0 0.709791 0.0704611 0 0.718225 0.0679377 0 0.725059 0.0655703 0 0.732204 0.0632139 0 0.738776 0.0609934 0 0.745237 0.0588762 0 0.751076 0.0569099 0 0.756916 0.0551238 0 0.762281 0.0535158 0 0.76754 0.0520373 0 0.772417 0.0506242 0 0.777186 0.049252 0 0.781692 0.047919 0 0.78599 0.0466443 0 0.790145 0.0454451 0 0.794103 0.044323 0 0.797904 0.043272 0 0.801747 0.0422882 0 0.806272 0.0413955 0 0.812758 0.0406595 0 0.823382 0.0401858 0 0.84018 0.0400179 0 0.86 0.0400001 0 0.88 0.04 0 0.9 0.04 0 0.92 0.04 0 0.94 0.04 0 0.96 0.04 0 0.98 0.04 0 1 0.04 0 0 0.469401 0 0.191662 0.373897 0 0.291378 0.414117 0 0.235962 0.235962 0 0.359552 0.328492 0 0.422195 0.264008 0 0.461384 0.252422 0 0.494546 0.22755 0 0.522482 0.215592 0 0.547651 0.197554 0 0.568009 0.185131 0 0.58836 0.172043 0 0.603779 0.162081 0 0.620418 0.152854 0 0.63279 0.14563 0 0.646542 0.138523 0 0.657291 0.131808 0 0.669337 0.125467 0 0.678488 0.119211 0 0.689238 0.113856 0 0.697569 0.109063 0 0.707087 0.104996 0 0.714543 0.101348 0 0.722403 0.0978016 0 0.729291 0.0944248 0 0.736413 0.0911143 0 0.742753 0.0879757 0 0.748884 0.085054 0 0.754828 0.0824515 0 0.760385 0.0800688 0 0.765693 0.0778622 0 0.770686 0.0757304 0 0.775497 0.0736643 0 0.780124 0.0716713 0 0.784519 0.0697798 0 0.788763 0.0680059 0 0.792804 0.0663477 0 0.79667 0.0647914 0 0.800599 0.0633313 0 0.805263 0.0620093 0 0.811986 0.060929 0 0.822988 0.0602509 0 0.840138 0.0600215 0 0.86 0.0600001 0 0.88 0.06 0 0.9 0.06 0 0.92 0.06 0 0.94 0.06 0 0.96 0.06 0 0.98 0.06 0 1 0.06 0 0 0.461701 0 0.11815 0.460547 0 0.234385 0.406669 0 0.328492 0.359552 0 0.309214 0.309214 0 0.381907 0.355798 0 0.434853 0.29065 0 0.471828 0.290612 0 0.502461 0.265012 0 0.529089 0.253663 0 0.553602 0.235448 0 0.573192 0.223477 0 0.592893 0.21059 0 0.607712 0.200974 0 0.623975 0.190897 0 0.636572 0.182213 0 0.650471 0.173389 0 0.661329 0.164878 0 0.673397 0.157221 0 0.682751 0.150135 0 0.693393 0.144221 0 0.701643 0.138989 0 0.710595 0.13414 0 0.717953 0.129577 0 0.725838 0.125062 0 0.73274 0.120769 0 0.739498 0.116645 0 0.745852 0.112916 0 0.751994 0.109509 0 0.757712 0.106389 0 0.763152 0.103435 0 0.768295 0.100586 0 0.773196 0.0978248 0 0.77797 0.0951967 0 0.782504 0.0927154 0 0.786854 0.0903985 0 0.791005 0.088229 0 0.794958 0.0861799 0 0.799008 0.0842564 0 0.803872 0.0825246 0 0.810943 0.0811295 0 0.822485 0.0802869 0 0.840094 0.0800206 0 0.86 0.08 0 0.88 0.08 0 0.9 0.08 0 0.92 0.08 0 0.94 0.08 0 0.96 0.08 0 0.98 0.08 0 1 0.08 0 0 0.496133 0 0.105208 0.484525 0 0.198405 0.457515 0 0.264008 0.422195 0 0.355798 0.381907 0 0.371362 0.371362 0 0.412292 0.363958 0 0.446798 0.319123 0 0.48181 0.321616 0 0.5101 0.295786 0 0.534538 0.286266 0 0.557778 0.268686 0 0.576467 0.257562 0 0.595823 0.24412 0 0.610769 0.233907 0 0.627211 0.222545 0 0.640045 0.212422 0 0.653979 0.202625 0 0.664859 0.193442 0 0.676837 0.185583 0 0.686103 0.178479 0 0.696332 0.17215 0 0.704443 0.166272 0 0.71325 0.160521 0 0.720796 0.155072 0 0.728405 0.149705 0 0.735325 0.144822 0 0.742139 0.140316 0 0.748328 0.136197 0 0.754333 0.132334 0 0.759917 0.128648 0 0.765289 0.125087 0 0.77033 0.121672 0 0.775257 0.118447 0 0.779961 0.115423 0 0.784431 0.112589 0 0.78872 0.109927 0 0.792778 0.107398 0 0.796991 0.105028 0 0.802127 0.102914 0 0.809665 0.101245 0 0.821925 0.100291 0 0.840056 0.100016 0 0.86 0.1 0 0.88 0.1 0 0.9 0.1 0 0.92 0.1 0 0.94 0.1 0 0.96 0.1 0 0.98 0.1 0 1 0.1 0 0 0.518025 0 0.0935309 0.513397 0 0.175763 0.490535 0 0.252422 0.461384 0 0.29065 0.434853 0 0.363958 0.412292 0 0.396488 0.396488 0 0.4307 0.380978 0 0.458368 0.344918 0 0.489626 0.349244 0 0.516846 0.322039 0 0.53971 0.314525 0 0.562072 0.296572 0 0.58026 0.285998 0 0.59953 0.271564 0 0.614505 0.260812 0 0.630781 0.248747 0 0.643438 0.238271 0 0.656991 0.228562 0 0.667665 0.219621 0 0.679284 0.211664 0 0.688423 0.204279 0 0.698513 0.197216 0 0.706778 0.190608 0 0.715366 0.184053 0 0.72289 0.178038 0 0.730607 0.172375 0 0.737487 0.16721 0 0.744062 0.162352 0 0.750216 0.157785 0 0.756105 0.153383 0 0.761685 0.149176 0 0.766956 0.145161 0 0.772014 0.141393 0 0.77691 0.137864 0 0.781514 0.134539 0 0.785958 0.131398 0 0.790156 0.128402 0 0.794577 0.125612 0 0.800063 0.123155 0 0.808204 0.121267 0 0.821367 0.120265 0 0.840028 0.120011 0 0.86 0.12 0 0.88 0.12 0 0.9 0.12 0 0.92 0.12 0 0.94 0.12 0 0.96 0.12 0 0.98 0.12 0 1 0.12 0 0 0.540205 0 0.0829933 0.53619 0 0.164477 0.518237 0 0.22755 0.494546 0 0.290612 0.471828 0 0.319123 0.446798 0 0.380978 0.4307 0 0.415951 0.415951 0 0.445556 0.399274 0 0.469931 0.368416 0 0.496422 0.373702 0 0.522832 0.344105 0 0.54452 0.338981 0 0.566382 0.319975 0 0.584066 0.310065 0 0.602979 0.295067 0 0.617575 0.284376 0 0.633413 0.272456 0 0.645867 0.262109 0 0.659135 0.252447 0 0.669687 0.243489 0 0.681186 0.235034 0 0.690467 0.227231 0 0.700306 0.21945 0 0.70852 0.212364 0 0.717164 0.205538 0 0.724807 0.199347 0 0.732257 0.19341 0 0.739094 0.187909 0 0.745546 0.182598 0 0.751739 0.17759 0 0.757547 0.172791 0 0.763077 0.16827 0 0.76829 0.164001 0 0.773374 0.159999 0 0.778143 0.156194 0 0.782741 0.152586 0 0.78712 0.149152 0 0.791804 0.145981 0 0.797731 0.143234 0 0.806625 0.141198 0 0.820872 0.140215 0 0.840012 0.140005 0 0.86 0.14 0 0.88 0.14 0 0.9 0.14 0 0.92 0.14 0 0.94 0.14 0 0.96 0.14 0 0.98 0.14 0 1 0.14 0 0 0.560328 0 0.0774265 0.555688 0 0.148911 0.542185 0 0.215592 0.522482 0 0.265012 0.502461 0 0.321616 0.48181 0 0.344918 0.458368 0 0.399274 0.445556 0 0.433147 0.433147 0 0.459387 0.415359 0 0.482442 0.389685 0 0.505441 0.393422 0 0.52961 0.362724 0 0.550222 0.359762 0 0.571257 0.339574 0 0.588181 0.330734 0 0.606508 0.315549 0 0.620687 0.305288 0 0.635997 0.293588 0 0.648196 0.283453 0 0.661248 0.273598 0 0.671776 0.264625 0 0.683027 0.255662 0 0.692131 0.247572 0 0.70194 0.239531 0 0.710376 0.232385 0 0.718741 0.225336 0 0.726316 0.218903 0 0.733683 0.212669 0 0.740355 0.206801 0 0.7469 0.201229 0 0.752904 0.195948 0 0.758721 0.19096 0 0.764137 0.186234 0 0.769396 0.181762 0 0.774362 0.177503 0 0.77911 0.173452 0 0.783703 0.16962 0 0.788716 0.166121 0 0.795197 0.16315 0 0.805014 0.161052 0 0.820488 0.160152 0 0.840004 0.160002 0 0.86 0.16 0 0.88 0.16 0 0.9 0.16 0 0.92 0.16 0 0.94 0.16 0 0.96 0.16 0 0.98 0.16 0 1 0.16 0 0 0.576699 0 0.0708209 0.574624 0 0.138722 0.562096 0 0.197554 0.547651 0 0.253663 0.529089 0 0.295786 0.5101 0 0.349244 0.489626 0 0.368416 0.469931 0 0.415359 0.459387 0 0.448269 0.448269 0 0.472086 0.429756 0 0.495648 0.408382 0 0.516663 0.40827 0 0.537568 0.379075 0 0.557516 0.376869 0 0.577201 0.356143 0 0.593224 0.34851 0 0.610675 0.333407 0 0.624267 0.323713 0 0.638987 0.312121 0 0.65093 0.302298 0 0.663592 0.292142 0 0.673787 0.283183 0 0.684875 0.274002 0 0.694149 0.266031 0 0.703728 0.25784 0 0.711969 0.250524 0 0.720288 0.243352 0 0.72769 0.236716 0 0.734863 0.230325 0 0.74154 0.224342 0 0.747871 0.218609 0 0.7539 0.213197 0 0.759611 0.208024 0 0.765025 0.203105 0 0.770213 0.198426 0 0.775103 0.193976 0 0.779944 0.189802 0 0.78536 0.186032 0 0.792536 0.182909 0 0.803481 0.180852 0 0.820232 0.180091 0 0.840001 0.180001 0 0.86 0.18 0 0.88 0.18 0 0.9 0.18 0 0.92 0.18 0 0.94 0.18 0 0.96 0.18 0 0.98 0.18 0 1 0.18 0 0 0.593987 0 0.0655099 0.589748 0 0.127342 0.582067 0 0.185131 0.568009 0 0.235448 0.553602 0 0.286266 0.534538 0 0.322039 0.516846 0 0.373702 0.496422 0 0.389685 0.482442 0 0.429756 0.472086 0 0.461514 0.461514 0 0.483516 0.442505 0 0.507461 0.424647 0 0.527811 0.420316 0 0.546014 0.39398 0 0.565351 0.391519 0 0.583593 0.370881 0 0.598854 0.364155 0 0.615282 0.349133 0 0.628372 0.339965 0 0.642447 0.328334 0 0.653868 0.31878 0 0.666141 0.308485 0 0.676357 0.299851 0 0.687163 0.290589 0 0.696127 0.282599 0 0.705483 0.274412 0 0.713628 0.267115 0 0.721581 0.259905 0 0.728914 0.253288 0 0.735854 0.246841 0 0.742439 0.240757 0 0.748721 0.2349 0 0.754707 0.229335
[...]
			<PointData Scalars="VitesseX">
				<DataArray Name="VitesseX" type="Float32" format="ascii">
 0 1.60299 0.238521 0.922352 0.800506 0.911052 0.916015 0.987173 1.02252 1.05035 1.07105 1.13249 1.14561 1.16602 1.2274 1.23286 1.23251 1.27584 1.3032 1.30249 1.31617 1.3317 1.38975 1.40572 1.4467 1.44119 1.39085 1.50457 1.50043 1.5503 1.52332 1.55013 1.57636 1.57429 1.61176 1.61796 1.62949 1.64122 1.60749 1.48515 1.1919 0.646896 0.0772383 0.000286259 6.29681e-09 9.14592e-14 8.24317e-20 -8.24317e-20 8.24317e-20 0 0 0 0.0961027 1.2571 0.474719 0.847194 0.836606 0.934738 0.967168 1.03056 1.03006 1.08002 1.13098 1.12842 1.18067 1.21454 1.22542 1.2353 1.27206 1.29957 1.30855 1.30588 1.34102 1.38208 1.41619 1.43104 1.43112 1.41675 1.49859 1.4994 1.54031 1.52988 1.54757 1.5766 1.57423 1.60934 1.61822 1.62825 1.64068 1.60636 1.48253 1.18643 0.638113 0.0739988 0.00026155 5.75216e-09 8.50232e-14 8.24317e-20 -8.24317e-20 8.24317e-20 0 0 0 0.806013 0.143565 1.05683 0.629205 0.807694 0.850312 0.941208 0.973262 1.01715 1.05432 1.09918 1.12383 1.15552 1.20215 1.20933 1.22155 1.26865 1.29432 1.29565 1.31103 1.32944 1.39685 1.41279 1.41575 1.40912 1.4645 1.4794 1.4975 1.52102 1.54183 1.54342 1.57643 1.5735 1.60284 1.61855 1.62549 1.63872 1.60285 1.4745 1.16981 0.611535 0.0648983 0.000198964 4.39062e-09 6.82118e-14 -4.34277e-20 4.36403e-20 -4.36403e-20 0 0 0 0.562284 0.746228 0.175069 0.618472 0.708083 0.82438 0.870375 0.940021 0.976318 1.04172 1.06804 1.10303 1.15755 1.17012 1.19316 1.21759 1.25837 1.28439 1.29324 1.298 1.34219 1.39001 1.40953 1.39459 1.42069 1.4749 1.4613 1.49277 1.50811 1.54633 1.544 1.57279 1.57342 1.59295 1.61764 1.62186 1.63558 1.59667 1.46062 1.14141 0.566675 0.0516844 0.000125022 2.80705e-09 4.70367e-14 8.56643e-20 -8.56643e-20 8.56643e-20 0 0 0 0.253881 0.474469 0.676846 0.557287 0.715039 0.7567 0.869341 0.898965 0.960757 0.99894 1.0464 1.08395 1.12317 1.15172 1.17065 1.20751 1.24869 1.27058 1.27781 1.30284 1.33544 1.38802 1.37982 1.39784 1.4346 1.45601 1.44933 1.48985 1.49999 1.54173 1.54844 1.56592 1.57387 1.58171 1.61424 1.61851 1.63077 1.58718 1.44006 1.10036 0.503458 0.0368807 6.40747e-05 1.50273e-09 2.76929e-14 5.95526e-22 -1.70521e-19 1.70521e-19 0 0 0 0.206397 0.384266 0.433134 0.69874 0.819623 0.789329 0.800708 0.89942 0.928148 0.974497 1.0109 1.06244 1.09389 1.11639 1.1597 1.1918 1.23147 1.25225 1.26765 1.29369 1.33557 1.35355 1.37699 1.4026 1.42933 1.42071 1.45582 1.48025 1.50059 1.52773 1.55363 1.5576 1.57304 1.57258 1.60675 1.61725 1.62295 1.57323 1.41121 1.04545 0.423374 0.0231482 2.63388e-05 6.69015e-10 1.38119e-14 -1.69712e-19 1.69712e-19 -1.69712e-19 0 0 0 0.181098 0.310166 0.448772 0.447013 0.631709 0.826368 0.809094 0.826888 0.918064 0.951707 1.00161 1.02606 1.06994 1.10041 1.13787 1.18272 1.20952 1.23482 1.25659 1.29079 1.30766 1.34067 1.37682 1.41118 1.39336 1.40793 1.45334 1.47325 1.50285 1.51148 1.55368 1.55067 1.56874 1.56932 1.59512 1.61551 1.61397 1.55362 1.3714 0.974498 0.330979 0.0124857 8.51945e-06 2.44219e-10 5.75257e-15 0 1.69712e-19 -1.69712e-19 0 0 0 0.150714 0.30305 0.388408 0.496767 0.516412 0.655853 0.822267 0.836968 0.863569 0.923056 0.981033 1.00617 1.03546 1.08301 1.12096 1.15179 1.19163 1.21596 1.24491 1.26888 1.29352 1.3321 1.3843 1.37524 1.37956 1.4087 1.43661 1.47265 1.49693 1.50329 1.54383 1.54709 1.55963 1.57144 1.58268 1.61247 1.60417 1.52718 1.31726 0.883463 0.23492 0.00563062 2.13415e-06 7.19479e-11 1.94628e-15 3.39425e-19 -3.39425e-19 3.39425e-19 0 0 0 0.150162 0.258114 0.382725 0.442109 0.55334 0.575944 0.707223 0.825949 0.859884 0.900049 0.93448 0.980073 1.0261 1.05178 1.09856 1.13456 1.16041 1.20181 1.22234 1.24897 1.28931 1.34117 1.34797 1.34904 1.37601 1.41377 1.41693 1.47802 1.47803 1.50792 1.52306 1.5443 1.54751 1.57363 1.57624 1.60751 1.59011 1.4929 1.24617 0.766719 0.146991 0.0020576 4.16183e-07 1.7051e-11 3.79904e-16 3.39425e-19 -6.78849e-19 6.78849e-19 -3.39425e-19 0 0 0.128047 0.251217 0.335232 0.44875 0.496599 0.623903 0.651885 0.744765 0.844563 0.881315 0.943311 0.959751 1.00596 1.04231 1.06983 1.11197 1.15044 1.17484 1.20851 1.2442 1.29424 1.31451 1.31665 1.33623 1.38688 1.39232 1.4244 1.46461 1.46788 1.50751 1.50516 1.53476 1.53993 1.57022 1.57892 1.5983 1.56925 1.44896 1.15746 0.620936 0.0783145 0.000587854 6.74335e-08 3.36388e-12 -6.13032e-17 -3.39425e-19 0 0 0 0 0 0.124555 0.226657 0.331982 0.402376 0.511828 0.550562 0.70458 0.717711 0.78568 0.86621 0.903551 0.977991 0.994863 1.01851 1.06515 1.09055 1.13138 1.17103 1.19829 1.24894 1.27658 1.28223 1.30033 1.35416 1.36561 1.38771 1.42651 1.44389 1.46755 1.49701 1.49736 1.51916 1.53749 1.56146 1.58335 1.58665 1.53933 1.39001 1.04982 0.452802 0.0341846 0.000125818 1.03185e-08 5.98531e-13 -1.03177e-17 0 3.39425e-19 -6.78849e-19 6.78849e-19 0 0 0.115428 0.211292 0.306501 0.3929 0.47601 0.578492 0.606995 0.761035 0.772502 0.824306 0.886128 0.916074 1.00122 1.01689 1.04361 1.08611 1.11307 1.15967 1.20564 1.23248 1.25219 1.26786 1.31692 1.3425 1.35385 1.38765 1.42003 1.42298 1.47107 1.47985 1.49729 1.50561 1.53512 1.55458 1.58196 1.57302 1.50107 1.30933 0.915151 0.284432 0.0117366 1.91753e-05 1.53035e-09 1.00391e-13 1.64864e-21 0 3.39425e-19 -3.39425e-19 0 0 0 0.102275 0.19745 0.287965 0.382178 0.465383 0.541772 0.628816 0.642084 0.797409 0.811799 0.843365 0.916406 0.942973 1.02573 1.04619 1.06693 1.11966 1.14309 1.18804 1.2213 1.23097 1.27794 1.32003 1.32299 1.34498 1.39308 1.39242 1.42912 1.45288 1.47314 1.49207 1.50103 1.52814 1.5535 1.57285 1.55061 1.45236 1.20554 0.739952 0.146428 0.00303205 1.995e-06 1.89218e-10 1.46489e-14 3.39425e-19 -3.39425e-19 -3.39425e-19 1.01666e-18 -1.01666e-18 0 0 0.0975963 0.188685 0.282779 0.36936 0.451548 0.522159 0.594339 0.68247 0.694389 0.819704 0.837961 0.867882 0.938951 0.994097 1.03555 1.09033 1.10281 1.13824 1.17667 1.19008 1.23396 1.28554 1.29823 1.30975 1.35154 1.36601 1.39209 1.4257 1.4339 1.47101 1.4826 1.50123 1.52023 1.55078 1.55918 1.51558 1.38365 1.07927 0.52519 0.0586901 0.000557484 1.49502e-07 1.75551e-11 1.61285e-15 -3.39425e-19 0 -1.61631e-21 0 1.61631e-21 0 0 0.0958624 0.178557 0.275446 0.34977 0.436024 0.501726 0.579961 0.640441 0.721556 0.734759 0.834711 0.870389 0.90556 0.981447 0.993225 1.0728 1.08244 1.12793 1.16079 1.17372 1.23841 1.27547 1.2753 1.3122 1.33776 1.35238 1.39462 1.41448 1.42533 1.46848 1.4698 1.5021 1.51217 1.54396 1.53863 1.47124 1.28588 0.917429 0.306356 0.0174292 6.7679e-05 1.06676e-08 1.36857e-12 8.21926e-17 0 0 -1.61631e-21 -3.37808e-19 6.78849e-19 0 0 0.0866099 0.175191 0.254268 0.347973 0.409212 0.498635 0.551219 0.633792 0.672682 0.755002 0.772525 0.85689 0.895809 0.907971 1.00582 1.04933 1.07393 1.12616 1.13525 1.18712 1.22918 1.23613 1.2714 1.3053 1.31649 1.35565 1.39339 1.39232 1.4386 1.44639 1.47252 1.49137 1.50999 1.53206 1.50617 1.40933 1.16181 0.698148 0.137355 0.00363989 5.01153e-06 8.19773e-10 1.11621e-13 1.02527e-17 -3.39425e-19 6.78849e-19 -6.78849e-19 6.78849e-19 0 0 0 0.0834792 0.163065 0.251272 0.326721 0.409321 0.464877 0.552516 0.591395 0.675781 0.702479 0.785965 0.803777 0.888356 0.935621 0.955179 1.01882 1.06074 1.06798 1.12083 1.156 1.19487 1.22261 1.26042 1.28033 1.31298 1.35949 1.36652 1.40084 1.4236 1.43798 1.46926 1.47957 1.50431 1.51045 1.46181 1.31386 1.00511 0.437243 0.0444943 0.000495856 2.3089e-07 4.89196e-11 8.17799e-15 1.65377e-21 -6.78849e-19 6.78849e-19 0 -6.78849e-19 6.78849e-19 0 0 0.0799764 0.159983 0.240881 0.320105 0.38784 0.458986 0.51732 0.595477 0.626721 0.714535 0.729066 0.822902 0.84338 0.887194 0.966183 0.970144 1.02616 1.07 1.11448 1.13804 1.18401 1.22002 1.23829 1.26117 1.31337 1.33582 1.35904 1.39581 1.40582 1.4323 1.45721 1.4709 1.49566 1.47442 1.39859 1.18552 0.783494 0.206402 0.00982476 3.96201e-05 9.74352e-09 2.19581e-12 3.69817e-16 6.78849e-19 0 0 -6.78849e-19 6.77233e-19 -6.77233e-19 0 0 0.0761852 0.153903 0.229046 0.304918 0.37076 0.437712 0.507439 0.565388 0.632722 0.661596 0.753016 0.758802 0.846275 0.869884 0.925123 0.97188 0.995334 1.06969 1.07795 1.11073 1.16459 1.18086 1.20964 1.2641 1.29404 1.31349 1.36475 1.37658 1.39148 1.43058 1.4327 1.46972 1.46758 1.43006 1.29507 1.02296 0.495748 0.0678951 0.00137383 1.69233e-06 4.73666e-10 1.07421e-13 4.99179e-21 -6.77233e-19 6.78849e-19 -6.78849e-19 6.77233e-19 0 -6.77233e-19 0 0 0.072917 0.143443 0.219263 0.285499 0.358696 0.421835 0.493511 0.549167 0.605072 0.670383 0.702006 0.785595 0.787333 0.868939 0.894727 0.925147 1.01801 1.01726 1.06442 1.12393 1.14248 1.16727 1.21026 1.25007 1.26828 1.31316 1.3439 1.35278 1.39483 1.39994 1.43236 1.44971 1.43533 1.35789 1.16079 0.784094 0.228064 0.014557 0.000106887 4.61796e-08 1.65259e-11 4.72615e-15 3.74642e-23 -6.77233e-19 6.78849e-19 -6.78849e-19 6.77233e-19 -6.77233e-19 6.78849e-19 0 0 0.0685388 0.138503 0.20733 0.280357 0.345876 0.418899 0.473122 0.537218 0.593573 0.655306 0.705061 0.727915 0.800386 0.799125 0.903246 0.924379 0.952935 1.0024 1.0599 1.10023 1.13172 1.17825 1.21445 1.22342 1.26181 1.30247 1.31293 1.35417 1.37308 1.39145 1.41952 1.42265 1.3815 1.2467 0.982736 0.470251 0.0697668 0.00185091 4.06747e-06 1.50966e-09 4.9102e-13 2.11291e-17 -6.78849e-19 6.78849e-19 0 -6.78849e-19 0 6.78849e-19 0 0 0 0.0673711 0.134497 0.206618 0.275509 0.344047 0.401904 0.46473 0.524016 0.594676 0.634351 0.67524 0.718881 0.752583 0.841066 0.849037 0.914516 0.965537 0.975011 1.02536 1.05913 1.11723 1.15748 1.18916 1.21964 1.26237 1.27599 1.31013 1.34261 1.34973 1.38246 1.40098 1.378 1.29684 1.0974 0.709312 0.194532 0.0129639 0.000122597 7.97108e-08 4.23969e-11 1.68693e-14 1.61631e-21 -6.78849e-19 6.78849e-19 -6.78849e-19 6.77233e-19 1.61631e-21 -6.78849e-19 6.78849e-19 0 0 0.0671014 0.136731 0.206337 0.274022 0.332192 0.393026 0.45736 0.524846 0.569772 0.612044 0.649222 0.708511 0.764893 0.792445 0.851514 0.860055 0.952113 0.967991 0.987345 1.06035 1.07324 1.12124 1.16163 1.21093 1.23252 1.26151 1.30223 1.30571 1.34017 1.36721 1.36069 1.31522 1.1617 0.883715 0.373872 0.0494 0.00135317 3.40593e-06 1.83407e-09 8.48194e-13 4.1224e-16 -1.35608e-18 0 6.78849e-19 -6.78849e-19 1.35608e-18 -1.35608e-18 6.77233e-19 -6.77233e-19 0 0 0.0669631 0.135469 0.198806 0.261295 0.322419 0.388584 0.453138 0.503378 0.543015 0.59003 0.649492 0.697158 0.73748 0.773516 0.80671 0.881962 0.889131 0.950911 0.996439 1.03791 1.07349 1.07986 1.14452 1.18475 1.20352 1.25118 1.26344 1.29116 1.3237 1.33114 1.30497 1.19859 0.986389 0.558728 0.122449 0.00739313 6.05128e-05 4.94657e-08 3.61958e-11 2.1287e-14 1.98916e-17 6.77233e-19 1.61631e-21 -6.78849e-19 6.78849e-19 -6.78849e-19 6.77233e-19 0 -6.77233e-19 0 0 0.0635712 0.128449 0.188471 0.251817 0.319846 0.379829 0.431055 0.47608 0.53094 0.585406 0.634187 0.672082 0.712344 0.759755 0.805524 0.829746 0.896693 0.923002 0.986863 1.01214 1.04981 1.10169 1.11667 1.14959 1.20837 1.21031 1.24482 1.27847 1.28684 1.27727 1.21083 1.03231 0.709512 0.223026 0.0246333 0.000476249 1.16083e-06 8.31717e-10 5.52816e-13 2.67808e-16 -6.78849e-19 6.77233e-19 1.61631e-21 -6.78849e-19 6.78849e-19 -6.78849e-19 6.77233e-19 -6.77233e-19 6.78849e-19 0 0 0.0558231 0.120625 0.185304 0.250252 0.309244 0.360484 0.409632 0.469325 0.523516 0.571313 0.607508 0.658266 0.704164 0.745758 0.775452 0.82754 0.868545 0.931543 0.941504 1.00065 1.04926 1.06636 1.10553 1.15503 1.16178 1.20139 1.23621 1.24649 1.24409 1.19103 1.04563 0.808362 0.325096 0.0572707 0.00204482 1.48561e-05 1.05792e-08 1.21047e-11 9.63635e-15 -4.10864e-17 0 -1.3577e-18 1.3577e-18 0 0 0 -1.3577e-18 2.03493e-18 -1.35608e-18 0 0 0.0570944 0.121638 0.185763 0.240554 0.291809 0.346027 0.406521 0.459975 0.50897 0.550423 0.60419 0.646723 0.690273 0.720131 0.773542 0.814491 0.860349 0.886159 0.954459 0.981449 1.01667 1.05577 1.09246 1.11722 1.15348 1.19618 1.2106 1.21166 1.16598 1.04422 0.848282 0.408092 0.100184 0.00565902 9.83029e-05 1.03495e-07 1.78876e-10 1.28937e-13 1.23956e-16 0 -6.78849e-19 6.77233e-19 -6.77233e-19 6.78849e-19 0 -6.78849e-19 0 6.77233e-19 0 0 0 0.0615637 0.119442 0.174609 0.229243 0.285163 0.343466 0.396384 0.447338 0.496391 0.549018 0.587806 0.630097 0.668106 0.723904 0.756403 0.79932 0.83029 0.898525 0.91995 0.962775 1.00323 1.04214 1.06684 1.10025 1.13908 1.16226 1.17578 1.14303 1.0308 0.859118 0.46488 0.139214 0.0114427 0.000362857 7.09738e-07 1.49661e-09 1.14941e-12 1.84917e-15 -6.78887e-19 0 6.77233e-19 0 0 1.61631e-21 -6.78849e-19 0 1.35608e-18 -2.03493e-18 1.35608e-18 0 0 0.0582412 0.114159 0.17036 0.226353 0.281421 0.3347 0.391116 0.445098 0.493102 0.530477 0.572614 0.616212 0.667837 0.698229 0.741738 0.777691 0.837331 0.857374 0.90856 0.939957 0.992454 1.01322 1.04317 1.09141 1.11466 1.11431 1.09506 1.00443 0.857641 0.491178 0.168098 0.0178457 0.00081764 3.09969e-06 7.64394e-09 7.59422e-12 1.80804e-14 6.78041e-19 -6.78041e-19 6.78041e-19 0 -6.78041e-19 6.78041e-19 8.08154e-22 -1.35689e-18 2.03493e-18 -6.78849e-19 -1.35608e-18 1.35608e-18 0 0 0.0556123 0.110576 0.165759 0.221074 0.276058 0.330947 0.382198 0.430106 0.474898 0.522034 0.565579 0.608312 0.641269 0.688265 0.727977 0.776834 0.798643 0.856097 0.881507 0.938154 0.949285 0.997857 1.04071 1.0515 1.07125 1.04929 0.948233 0.82138 0.48829 0.184586 0.0224954 0.00134753 8.23804e-06 2.45841e-08 3.47209e-11 9.62647e-14 4.108e-17 8.08154e-22 6.78041e-19 -8.08154e-22 0 8.08154e-22 -6.78041e-19 -8.08154e-22 6.78041e-19 0 -1.35608e-18 1.35608e-18 0 0 0 0.053678 0.108697 0.164282 0.218773 0.27133 0.320905 0.370645 0.42138 0.470654 0.51256 0.552243 0.590405 0.636753 0.676489 0.716929 0.746966 0.8012 0.829504 0.879486 0.892213 0.958116 0.971354 1.00083 1.01687 0.983257 0.903629 0.773347 0.449365 0.179244 0.0242455 0.00177242 1.39504e-05 5.46804e-08 9.82595e-11 3.0124e-13 3.29418e-16 -1.61631e-21 1.61631e-21 -6.78849e-19 6.77233e-19 -1.35527e-18 2.03412e-18 -1.35608e-18 6.77233e-19 0 -1.35608e-18 1.35608e-18 1.35608e-18 -2.71217e-18 0 0 0.0536921 0.106983 0.160349 0.213445 0.265541 0.316264 0.364712 0.410489 0.453788 0.497213 0.538472 0.57961 0.617447 0.65897 0.699204 0.746206 0.775719 0.820901 0.84629 0.90737 0.908329 0.957036 0.936513 0.921435 0.839875 0.702839 0.39887 0.156557 0.0215392 0.00176545 1.70987e-05 8.7844e-08 1.73093e-10 6.42322e-13 1.02662e-15 6.78849e-19 -1.61631e-21 1.61631e-21 -6.78849e-19 6.77233e-19 -1.35527e-18 1.35527e-18 0 0 -1.35608e-18 1.35608e-18 0 0 0 0 0 0.0528095 0.105707 0.157983 0.20863 0.25749 0.305059 0.352683 0.399703 0.444866 0.485538 0.524659 0.563368 0.606207 0.647764 0.689332 0.722818 0.76651 0.800444 0.847306 0.854814 0.895511 0.861589 0.855387 0.746046 0.619021 0.324623 0.123836 0.0166685 0.00133511 1.38834e-05 8.77596e-08 2.14932e-10 1.00786e-12 1.93209e-15 -4.93163e-21 -6.78849e-19 6.77233e-19 -6.77233e-19 6.78849e-19 -1.3577e-18 2.71217e-18 -2.71217e-18 1.35608e-18 0 0 0 0 -1.35608e-18 1.35608e-18 0 0 0.0513218 0.102278 0.152767 0.202328 0.250601 0.297621 0.343296 0.387422 0.430974 0.473799 0.514967 0.554799 0.593829 0.63406 0.673325 0.71447 0.750033 0.782918 0.799612 0.821937 0.789922 0.766553 0.647903 0.507766 0.235571 0.0866429 0.0104484 0.000806615 8.17741e-06 5.45307e-08 1.72361e-10 1.00696e-12 2.3846e-15 -1.34947e-18 6.78849e-19 -1.3577e-18 2.03493e-18 -6.78849e-19 -6.77233e-19 6.77233e-19 0 -1.35608e-18 1.35608e-18 0 0 0 0 -1.35608e-18 1.35608e-18 0 0 0.0502707 0.0998308 0.14854 0.195881 0.242305 0.288744 0.335208 0.380515 0.423721 0.464002 0.504261 0.545654 0.586611 0.625348 0.663045 0.692577 0.720047 0.73527 0.739655 0.707056 0.662866 0.534487 0.37094 0.154188 0.0491206 0.00509089 0.000357823 3.06575e-06 2.44573e-08 9.75778e-11 6.40512e-13 1.93206e-15 4.99179e-21 -6.77233e-19 0 6.77233e-19 -6.77233e-19 6.77233e-19 0 0 0 0 0 -1.35608e-18 1.35608e-18 0 -1.35608e-18 1.35608e-18 0 0 0 0.0486624 0.0969834 0.144783 0.192031 0.238185 0.283521 0.327269 0.370303 0.413134 0.455012 0.496004 0.535761 0.57234 0.604877 0.631003 0.651612 0.658599 0.647814 0.609798 0.538893 0.396147 0.234984 0.0857036 0.0211923 0.0018687 9.70594e-05 6.97468e-07 7.58993e-09 3.43117e-11 2.99843e-13 1.02799e-15 -4.93163e-21 -6.78849e-19 8.08154e-22 6.77233e-19 0 0 -1.35608e-18 1.35608e-18 0 0 0 -1.35608e-18 1.35608e-18 0 0 -1.35608e-18 2.71217e-18 -2.71217e-18 0 0 0.0473184 0.0943102 0.140577 0.186684 0.232476 0.277519 0.322002 0.364768 0.404961 0.442499 0.478986 0.512395 0.540713 0.561959 0.571971 0.565592 0.542924 0.488559 0.38843 0.249558 0.122301 0.036505 0.0065043 0.00044794 1.46702e-05 1.0087e-07 1.48384e-09 7.43834e-12 9.56907e-14 3.28061e-16 6.78041e-19 -6.78849e-19 0 6.78041e-19 0 0 0 0 -1.35608e-18 1.35608e-18 -1.35608e-18 1.35608e-18 0 0 0 -1.35527e-18 1.35527e-18 0 0 0 0 0.0460031 0.0918856 0.137238 0.182257 0.226363 0.269003 0.310579 0.349387 0.384745 0.416435 0.444543 0.466558 0.477661 0.475694 0.457542 0.413809 0.333913 0.229762 0.124349 0.047031 0.0103715 0.00123461 5.82672e-05 1.1416e-06 1.02474e-08 1.76864e-10 1.11703e-12 1.79983e-14 4.10808e-17 1.35608e-18 -1.35608e-18 6.77233e-19 -6.77233e-19 6.77233e-19 0 0 -1.35608e-18 1.35608e-18 1.35608e-18 -2.71217e-18 0 1.35608e-18 1.35608e-18 -2.71217e-18 1.35608e-18 -1.35527e-18 2.71136e-18 -2.71217e-18 1.35608e-18 0 0 0.0436765 0.08714 0.130039 0.171987 0.212449 0.250768 0.286271 0.317937 0.344327 0.363738 0.374741 0.375389 0.360008 0.32023 0.255365 0.177674 0.101825 0.0419159 0.0109814 0.00160744 0.000115884 3.31179e-06 4.78963e-08 8.0883e-10 1.18692e-11 1.25487e-13 1.84917e-15 -6.77233e-19 0 1.35608e-18 -1.35608e-18 6.77233e-19 6.78849e-19 -2.03493e-18 1.35608e-18 0 -1.35608e-18 1.35608e-18 1.35608e-18 -2.71217e-18 1.35608e-18 0 -1.35527e-18 1.35527e-18 -1.35608e-18 2.71217e-18 -1.35608e-18 -1.35608e-18 1.35608e-18 0 0 0.0390161 0.0776155 0.115213 0.151031 0.184087 0.213236 0.237356 0.255384 0.265587 0.264458 0.247331 0.212715 0.165991 0.114837 0.0650053 0.0266697 0.0071698 0.0011622 9.88472e-05 3.91388e-06 7.61949e-08 1.76438e-09 3.51506e-11 5.3449e-13 9.30762e-15 1.22602e-16 6.75579e-19 -6.77233e-19 6.78849e-19 -6.78849e-19 6.78849e-19 -6.78849e-19 6.77233e-19 0 -1.35608e-18 1.35608e-18 1.35608e-18 -1.35608e-18 -1.35608e-18 1.35608e-18 0 0 -1.35527e-18 1.35527e-18 0 0 -1.35608e-18 1.35608e-18 0 0 0 0.0299159 0.0590351 0.0864062 0.11083 0.130772 0.144304 0.149379 0.144711 0.130893 0.110224 0.0847157 0.055957 0.0289492 0.0107508 0.00268892 0.000418305 3.6308e-05 1.60361e-06 4.32743e-08 1.42744e-09 4.07747e-11 8.06978e-13 2.07103e-14 3.4998e-16 -4.10864e-17 0 -1.3577e-18 2.03493e-18 -1.35608e-18 6.77233e-19 -6.77233e-19 0 6.77233e-19 0 0 -1.35608e-18 2.71217e-18 -2.71217e-18 1.35608e-18 0 0 -1.35608e-18 1.35608e-18 0 0 0 -1.35608e-18 2.71217e-18 -2.71217e-18 0 0 0.0146327 0.0280979 0.0392876 0.0472712 0.0514125 0.0513638 0.0469505 0.038327 0.0267327 0.0150519 0.00646268 0.00201222 0.000429281 5.80193e-05 4.56835e-06 2.124e-07 8.83226e-09 4.41759e-10 1.55862e-11 4.58104e-13 1.60886e-14 3.69744e-16 1.98924e-17 6.78041e-19 0 -6.78041e-19 6.77233e-19 0 0 -1.35527e-18 1.35527e-18 0 0 0 0 -1.35608e-18 0 1.35608e-18 0 0 -1.35527e-18 1.35527e-18 0 0 0 -1.35527e-18 1.35527e-18 0 0 0 0 0.0030158 0.00546979 0.00689501 0.00703981 0.00599476 0.00422864 0.00241513 0.00108311 0.000368153 9.0909e-05 1.54515e-05 1.7157e-06 1.29738e-07 9.12397e-09 7.26312e-10 4.47483e-11 1.99112e-12 9.80093e-14 4.68526e-15 1.97722e-17 1.35608e-18 -1.35689e-18 6.78041e-19 -6.78041e-19 0 6.78041e-19 0 -6.77233e-19 1.35608e-18 -2.03412e-18 1.35527e-18 0 -1.35608e-18 2.71217e-18 -2.71217e-18 1.35608e-18 -1.35608e-18 2.71217e-18 -2.71217e-18 1.35608e-18 -1.35527e-18 1.35527e-18 1.35608e-18 -2.71217e-18 1.35608e-18 -1.35527e-18 2.71136e-18 -2.71217e-18 1.35608e-18 0 0 2.45863e-05 3.77126e-05 3.59402e-05 2.4822e-05 1.28333e-05 4.96268e-06 1.41829e-06 2.99223e-07 4.95143e-08 7.60451e-09 1.18464e-09 1.5666e-10 1.50285e-11 1.16107e-12 9.60267e-14 7.43701e-15 3.69807e-16 1.35938e-18 -1.35443e-18 6.78849e-19 -6.78849e-19 0 1.35608e-18 -1.35608e-18 0 6.77233e-19 0 -6.77233e-19 6.78849e-19 -1.61631e-21 0 -1.35608e-18 1.35608e-18 0 -1.35608e-18 2.71217e-18 -1.35608e-18 -1.35527e-18 1.35527e-18 -1.35608e-18 2.71217e-18 -1.35608e-18 -1.35527e-18 1.35527e-18 -1.35608e-18 2.71217e-18 -1.35608e-18 -1.35608e-18 1.35608e-18 0 0 5.44658e-10 8.1690