<?xml version="1.0"?>
<VTKFile type="PolyData">
	<PolyData>
		<Piece NumberOfPoints="2601" NumberOfPolys="2500">
			<Points>
				<DataArray type="Float32" NumberOfComponents="3" format="ascii">
 0 0 0 0.52083 0 0 0.316812 0 0 0.459354 0 0 0.453367 0 0 0.486509 0 0 0.508411 0 0 0.529801 0 0 0.549725 0 0 0.565722 0 0 0.582525 0 0 0.594979 0 0 0.610019 0 0 0.62135 0 0 0.634281 0 0 0.644447 0 0 0.655855 0 0 0.664239 0 0 0.674434 0 0 0.68215 0 0 0.691282 0 0 0.698379 0 0 0.706158 0 0 0.712717 0 0 0.719482 0 0 0.725853 0 0 0.731884 0 0 0.737293 0 0 0.742677 0 0 0.7479 0 0 0.752844 0 0 0.757572 0 0 0.762024 0 0 0.766244 0 0 0.770363 0 0 0.77426 0 0 0.778059 0 0 0.781869 0 0 0.786356 0 0 0.792802 0 0 0.803395 0 0 0.820179 0 0 0.84 0 0 0.86 0 0 0.88 0 0 0.9 0 0 0.92 0 0 0.94 0 0 0.96 0 0 0.98 0 0 1 0 0 0 0.52083 0 0.174921 0.174921 0 0.454985 0.216067 0 0.368743 0.185813 0 0.451708 0.115545 0 0.475666 0.103031 0 0.503589 0.0916295 0 0.525974 0.0813942 0 0.544976 0.0758467 0 0.563803 0.0694447 0 0.578266 0.0641727 0 0.594723 0.0589279 0 0.607021 0.054689 0 0.621089 0.0510989 0 0.632011 0.0484042 0 0.644372 0.0460048 0 0.653683 0.0437063 0 0.664422 0.0415993 0 0.672486 0.0395326 0 0.682267 0.0377301 0 0.689808 0.0360798 0 0.698228 0.0346591 0 0.705112 0.033388 0 0.712378 0.0321842 0 0.718889 0.0310627 0 0.725423 0.0299642 0 0.731252 0.02889 0 0.736901 0.0278995 0 0.742243 0.0270177 0 0.747533 0.0262207 0 0.752453 0.0254838 0 0.75722 0.0247851 0 0.761692 0.0241118 0 0.76593 0.0234595 0 0.770072 0.0228369 0 0.773988 0.0222466 0 0.777801 0.0216945 0 0.781628 0.021182 0 0.786143 0.0207207 0 0.792638 0.0203404 0 0.80331 0.0200953 0 0.820169 0.0200089 0 0.84 0.02 0 0.86 0.02 0 0.88 0.02 0 0.9 0.02 0 0.92 0.02 0 0.94 0.02 0 0.96 0.02 0 0.98 0.02 0 1 0.02 0 0 0.316812 0 0.216067 0.454985 0 0.204251 0.204251 0 0.403185 0.283611 0 0.400018 0.22942 0 0.449017 0.194407 0 0.481551 0.172497 0 0.508363 0.16131 0 0.532044 0.146237 0 0.55139 0.13609 0 0.570936 0.124958 0 0.585876 0.116061 0 0.602475 0.107895 0 0.614839 0.101595 0 0.628628 0.0961625 0 0.639336 0.0914928 0 0.651193 0.087123 0 0.660061 0.0826924 0 0.670692 0.0787357 0 0.678804 0.0750069 0 0.688258 0.0718155 0 0.695566 0.0690152 0 0.703516 0.0664911 0 0.710374 0.0641699 0 0.717498 0.0618881 0 0.723748 0.059686 0 0.729779 0.0575799 0 0.7356 0.0556734 0 0.741052 0.0539288 0 0.746365 0.0523525 0 0.751341 0.0508845 0 0.756153 0.0494931 0 0.76071 0.0481434 0 0.765006 0.046841 0 0.769197 0.0456003 0 0.773179 0.0444292 0 0.777028 0.0433349 0 0.780907 0.0423181 0 0.785508 0.0414039 0 0.792153 0.0406539 0 0.803062 0.0401783 0 0.820144 0.0400155 0 0.84 0.04 0 0.86 0.04 0 0.88 0.04 0 0.9 0.04 0 0.92 0.04 0 0.94 0.04 0 0.96 0.04 0 0.98 0.04 0 1 0.04 0 0 0.459354 0 0.185813 0.368743 0 0.283611 0.403185 0 0.234145 0.234145 0 0.353205 0.321297 0 0.414758 0.25948 0 0.452697 0.247736 0 0.485413 0.223492 0 0.51264 0.211567 0 0.53736 0.194008 0 0.557089 0.181663 0 0.577152 0.168814 0 0.592117 0.159018 0 0.608284 0.149906 0 0.620565 0.142761 0 0.634032 0.135859 0 0.644388 0.129159 0 0.656096 0.122936 0 0.665143 0.116836 0 0.675717 0.111564 0 0.683835 0.106863 0 0.69274 0.102789 0 0.699982 0.0991929 0 0.707803 0.0957502 0 0.714615 0.0924241 0 0.721233 0.0891193 0 0.727429 0.0860532 0 0.733504 0.0832252 0 0.739064 0.080657 0 0.744441 0.0783148 0 0.749523 0.076131 0 0.754402 0.0740342 0 0.759093 0.0720116 0 0.763496 0.070065 0 0.767762 0.0682221 0 0.771842 0.0664911 0 0.775746 0.0648712 0 0.779715 0.0633659 0 0.784463 0.0620145 0 0.791364 0.0609159 0 0.802675 0.0602386 0 0.820108 0.0600183 0 0.84 0.06 0 0.86 0.06 0 0.88 0.06 0 0.9 0.06 0 0.92 0.06 0 0.94 0.06 0 0.96 0.06 0 0.98 0.06 0 1 0.06 0 0 0.453367 0 0.115545 0.451708 0 0.22942 0.400018 0 0.321297 0.353205 0 0.303443 0.303443 0 0.374461 0.348427 0 0.426886 0.285936 0 0.462676 0.285395 0 0.493015 0.260371 0 0.518984 0.248931 0 0.543124 0.231196 0 0.562169 0.21933 0 0.581438 0.206547 0 0.595978 0.197082 0 0.611905 0.187219 0 0.624218 0.178523 0 0.637699 0.169909 0 0.648222 0.161517 0 0.66016 0.154032 0 0.669344 0.147126 0 0.679574 0.141238 0 0.687453 0.136065 0 0.696121 0.131292 0 0.703538 0.126837 0 0.710999 0.122368 0 0.717652 0.118143 0 0.724364 0.114151 0 0.73048 0.11048 0 0.736336 0.107123 0 0.741772 0.104043 0 0.747025 0.101135 0 0.752005 0.0983341 0 0.756867 0.0956435 0 0.761423 0.0930752 0 0.765787 0.0906541 0 0.769991 0.0883908 0 0.773971 0.0862657 0 0.778066 0.084289 0 0.783029 0.082521 0 0.790302 0.0811051 0 0.802188 0.0802693 0 0.820072 0.0800169 0 0.84 0.08 0 0.86 0.08 0 0.88 0.08 0 0.9 0.08 0 0.92 0.08 0 0.94 0.08 0 0.96 0.08 0 0.98 0.08 0 1 0.08 0 0 0.486509 0 0.103031 0.475666 0 0.194407 0.449017 0 0.25948 0.414758 0 0.348427 0.374461 0 0.362759 0.362759 0 0.404025 0.357264 0 0.438365 0.313664 0 0.472352 0.315785 0 0.500351 0.290571 0 0.524268 0.280866 0 0.54713 0.263635 0 0.565316 0.252671 0 0.584368 0.239409 0 0.599029 0.229297 0 0.614971 0.218209 0 0.627473 0.208102 0 0.641078 0.198539 0 0.65178 0.189554 0 0.663471 0.181781 0 0.672423 0.174807 0 0.682246 0.16853 0 0.690239 0.162775 0 0.698711 0.157085 0 0.706044 0.151699 0 0.713571 0.146514 0 0.720318 0.141745 0 0.726725 0.137285 0 0.732774 0.13323 0 0.738442 0.129413 0 0.743852 0.125793 0 0.749027 0.122301 0 0.754049 0.118975 0 0.758807 0.115824 0 0.763294 0.112865 0 0.767631 0.110097 0 0.771715 0.107483 0 0.775981 0.105053 0 0.781233 0.102896 0 0.789008 0.101206 0 0.801656 0.100268 0 0.820041 0.100013 0 0.84 0.1 0 0.86 0.1 0 0.88 0.1 0 0.9 0.1 0 0.92 0.1 0 0.94 0.1 0 0.96 0.1 0 0.98 0.1 0 1 0.1 0 0 0.508411 0 0.0916295 0.503589 0 0.172497 0.481551 0 0.247736 0.452697 0 0.285936 0.426886 0 0.357264 0.404025 0 0.387852 0.387852 0 0.422213 0.374064 0 0.449668 0.338843 0 0.479943 0.342624 0 0.506798 0.316199 0 0.529205 0.308464 0 0.551331 0.290879 0 0.569037 0.280494 0 0.587928 0.266292 0 0.602518 0.255552 0 0.618356 0.243858 0 0.630762 0.233471 0 0.644054 0.223956 0 0.654427 0.21517 0 0.665711 0.207265 0 0.674652 0.200047 0 0.684281 0.193033 0 0.692286 0.186501 0 0.700765 0.180129 0 0.708357 0.174284 0 0.715599 0.16869 0 0.722164 0.163589 0 0.728519 0.158812 0 0.734447 0.154312 0 0.740095 0.149993 0 0.7455 0.145873 0 0.750691 0.141958 0 0.755658 0.138281 0 0.760298 0.134816 0 0.764772 0.131563 0 0.769003 0.128481 0 0.77349 0.125621 0 0.779119 0.123114 0 0.78754 0.121211 0 0.80114 0.120238 0 0.82002 0.120008 0 0.84 0.12 0 0.86 0.12 0 0.88 0.12 0 0.9 0.12 0 0.92 0.12 0 0.94 0.12 0 0.96 0.12 0 0.98 0.12 0 1 0.12 0 0 0.529801 0 0.0813942 0.525974 0 0.16131 0.508363 0 0.223492 0.485413 0 0.285395 0.462676 0 0.313664 0.438365 0 0.374064 0.422213 0 0.407338 0.407338 0 0.436739 0.391819 0 0.460799 0.361526 0 0.48672 0.366279 0 0.512612 0.337747 0 0.533937 0.332382 0 0.555506 0.313717 0 0.572674 0.303929 0 0.591176 0.289275 0 0.605493 0.278583 0 0.620914 0.267018 0 0.633107 0.256794 0 0.646066 0.247266 0 0.656354 0.238517 0 0.667459 0.230098 0 0.676341 0.222375 0 0.68595 0.214768 0 0.694277 0.20791 0 0.702579 0.201196 0 0.709925 0.195053 0 0.717047 0.189223 0 0.723565 0.183785 0 0.729914 0.178604 0 0.735784 0.173671 0 0.74148 0.168993 0 0.74683 0.164568 0 0.752 0.160405 0 0.756823 0.156468 0 0.761447 0.152745 0 0.765865 0.149212 0 0.770637 0.145961 0 0.776744 0.143163 0 0.785973 0.141125 0 0.800699 0.140186 0 0.820008 0.140004 0 0.84 0.14 0 0.86 0.14 0 0.88 0.14 0 0.9 0.14 0 0.92 0.14 0 0.94 0.14 0 0.96 0.14 0 0.98 0.14 0 1 0.14 0 0 0.549725 0 0.0758467 0.544976 0 0.146237 0.532044 0 0.211567 0.51264 0 0.260371 0.493015 0 0.315785 0.472352 0 0.338843 0.449668 0 0.391819 0.436739 0 0.424466 0.424466 0 0.450336 0.407539 0 0.472989 0.382172 0 0.495622 0.385412 0 0.519305 0.355918 0 0.539444 0.3526 0 0.560208 0.332856 0 0.576658 0.32406 0 0.594599 0.309346 0 0.608493 0.299036 0 0.623401 0.287641 0 0.635353 0.277688 0 0.648009 0.267892 0 0.65809 0.259045 0 0.66903 0.250201 0 0.678207 0.242384 0 0.687728 0.234514 0 0.6958 0.227404 0 0.703943 0.220513 0 0.711199 0.214142 0 0.718216 0.20801 0 0.724823 0.202281 0 0.731028 0.196801 0 0.736973 0.191663 0 0.742537 0.186773 0 0.747866 0.182155 0 0.752913 0.177765 0 0.75769 0.173589 0 0.762344 0.169645 0 0.767475 0.166056 0 0.774185 0.163039 0 0.784402 0.160966 0 0.800371 0.160125 0 0.820002 0.160001 0 0.84 0.16 0 0.86 0.16 0 0.88 0.16 0 0.9 0.16 0 0.92 0.16 0 0.94 0.16 0 0.96 0.16 0 0.98 0.16 0 1 0.16 0 0 0.565722 0 0.0694447 0.563803 0 0.13609 0.55139 0 0.194008 0.53736 0 0.248931 0.518984 0 0.290571 0.500351 0 0.342624 0.479943 0 0.361526 0.460799 0 0.407539 0.450336 0 0.439381 0.439381 0 0.462805 0.421492 0 0.485729 0.400288 0 0.506565 0.399888 0 0.52706 0.371763 0 0.546559 0.369297 0 0.565975 0.349102 0 0.581563 0.341401 0 0.598563 0.326806 0 0.611921 0.317064 0 0.626226 0.305697 0 0.637718 0.29599 0 0.650029 0.285921 0 0.6602 0.277296 0 0.671045 0.268296 0 0.679959 0.260374 0 0.689192 0.252347 0 0.697308 0.245161 0 0.705152 0.23808 0 0.712412 0.231569 0 0.719327 0.225301 0 0.725839 0.219435 0 0.732024 0.213843 0 0.737839 0.208539 0 0.743327 0.203469 0 0.748601 0.198657 0 0.75356 0.194066 0 0.758487 0.189767 0 0.764059 0.185907 0 0.771525 0.182758 0 0.782948 0.180761 0 0.800165 0.18007 0 0.820001 0.18 0 0.84 0.18 0 0.86 0.18 0 0.88 0.18 0 0.9 0.18 0 0.92 0.18 0 0.94 0.18 0 0.96 0.18 0 0.98 0.18 0 1 0.18 0 0 0.582525 0 0.0641727 0.578266 0 0.124958 0.570936 0 0.181663 0.557089 0 0.231196 0.543124 0 0.280866 0.524268 0 0.316199 0.506798 0 0.366279 0.48672 0 0.382172 0.472989 0 0.421492 0.462805 0 0.452445 0.452445 0 0.474026 0.433873 0 0.497192 0.416171 0 0.517405 0.411738 0 0.535331 0.386238 0 0.554166 0.383592 0 0.572117 0.363511 0 0.586941 0.356613 0 0.602948 0.342147 0 0.615691 0.332884 0 0.629313 0.321432 0 0.640629 0.312203 0 0.652717 0.302077 0 0.662529 0.293554 0 0.672939 0.284432 0 0.681834 0.276612 0 0.690759 0.268567 0 0.698656 0.261354 0 0.706397 0.254326 0 0.713408 0.247772 0 0.720296 0.241498 0 0.726666 0.235523 0 0.732772 0.2298 0 0.738449 0.224326 0 0.743925 0.219122 0 0.749092 0.21418 0 0.754344 0.209589 0 0.760449 0.205533 0 0
[...]
			<PointData Scalars="VitesseX">
				<DataArray Name="VitesseX" type="Float32" format="ascii">
 0 1.62231 0.232 1.017 0.821261 0.948753 0.953794 1.02122 1.02679 1.09042 1.14276 1.1421 1.2051 1.23592 1.24168 1.26123 1.30195 1.31789 1.32237 1.33106 1.38578 1.42013 1.44602 1.45934 1.44673 1.45221 1.5636 1.53387 1.57403 1.55699 1.59419 1.62083 1.62522 1.65319 1.66314 1.66389 1.67894 1.64555 1.51586 1.204 0.630525 0.0666659 0.000193326 3.68719e-09 5.09192e-14 -7.80749e-20 7.80749e-20 -7.80749e-20 7.80749e-20 0 0 0 0.121633 1.25393 0.520774 0.870103 0.877568 0.970369 1.0048 1.04183 1.07872 1.13616 1.15102 1.18661 1.23864 1.23482 1.25283 1.30531 1.31627 1.31635 1.34065 1.37588 1.4325 1.43514 1.45225 1.44143 1.48058 1.54533 1.53614 1.56617 1.5661 1.58898 1.62113 1.62346 1.65152 1.66295 1.66275 1.67889 1.64458 1.51302 1.19795 0.620885 0.0636136 0.000175532 3.36567e-09 4.72554e-14 -7.80749e-20 7.80749e-20 -7.80749e-20 7.80749e-20 0 0 0 0.798038 0.152155 1.05806 0.659367 0.838317 0.892456 0.966248 0.992899 1.06345 1.09478 1.11856 1.1837 1.2005 1.22114 1.24918 1.29221 1.30862 1.31407 1.328 1.38662 1.42425 1.43642 1.42643 1.45267 1.50981 1.51266 1.5384 1.55512 1.58178 1.57973 1.61884 1.62048 1.646 1.66169 1.66081 1.67829 1.64128 1.50425 1.17956 0.591824 0.0551128 0.000131037 2.56057e-09 3.7734e-14 4.13338e-20 -4.13338e-20 4.13338e-20 -4.13338e-20 0 0 0 0.570194 0.759764 0.176071 0.610462 0.735494 0.859128 0.896913 0.969603 1.01873 1.06974 1.10962 1.15601 1.18633 1.20001 1.23845 1.2837 1.29496 1.30155 1.33395 1.37798 1.42992 1.41201 1.42795 1.46821 1.50642 1.48571 1.54188 1.548 1.58994 1.57638 1.60975 1.61763 1.63764 1.65882 1.65938 1.67645 1.63482 1.48889 1.14821 0.543166 0.0429837 7.97993e-05 1.62316e-09 2.58009e-14 -8.11367e-20 8.11367e-20 -8.11367e-20 8.11367e-20 0 0 0 0.250409 0.485782 0.713828 0.561683 0.726668 0.789043 0.902791 0.932434 0.996839 1.03203 1.09268 1.13218 1.14715 1.19161 1.22728 1.26565 1.28133 1.29712 1.32784 1.3834 1.40287 1.40717 1.42942 1.47644 1.47391 1.48832 1.5345 1.54623 1.58468 1.5817 1.59474 1.61376 1.6285 1.65393 1.65981 1.67191 1.62434 1.46589 1.10303 0.475474 0.0297555 3.91488e-05 8.54039e-10 1.49633e-14 -7.65441e-22 7.65441e-22 -1.61508e-19 1.61508e-19 0 0 0 0.214646 0.388435 0.445268 0.736355 0.84386 0.810015 0.831811 0.934638 0.96099 1.01711 1.05139 1.09537 1.12627 1.16333 1.21218 1.24171 1.26255 1.28676 1.3279 1.35776 1.38971 1.40131 1.44235 1.44005 1.45288 1.50235 1.52139 1.54367 1.57169 1.58578 1.5819 1.60738 1.62139 1.64586 1.66116 1.66473 1.60877 1.4333 1.04258 0.391367 0.0179305 1.52215e-05 3.69373e-10 7.29175e-15 1.60743e-19 -1.60743e-19 1.60743e-19 -1.60743e-19 0 0 0 0.1876 0.322333 0.458722 0.469342 0.663013 0.84497 0.839219 0.862071 0.957084 0.995303 1.03091 1.05604 1.10612 1.15063 1.18266 1.22298 1.24474 1.27572 1.30936 1.33915 1.36842 1.41545 1.41472 1.41338 1.44446 1.50356 1.50963 1.53919 1.55615 1.58305 1.57643 1.59861 1.61801 1.63445 1.66113 1.65638 1.58683 1.38808 0.964082 0.296998 0.00918028 4.60905e-06 1.29443e-10 2.97107e-15 -1.60743e-19 0 1.60743e-19 -1.60743e-19 0 0 0 0.157522 0.308345 0.396801 0.514837 0.540289 0.68549 0.846656 0.871596 0.904387 0.956621 0.995607 1.04688 1.07278 1.12429 1.1637 1.18923 1.2294 1.2567 1.28886 1.32106 1.37247 1.38791 1.38422 1.40165 1.45436 1.47576 1.51327 1.5222 1.54931 1.56851 1.57756 1.5883 1.61744 1.62371 1.65842 1.64542 1.5575 1.32709 0.862825 0.202578 0.00388196 1.07625e-06 3.63355e-11 9.74969e-16 -3.21485e-19 3.21485e-19 -3.21485e-19 3.21485e-19 0 0 0 0.155617 0.260743 0.398351 0.457629 0.578994 0.604229 0.735035 0.857494 0.894887 0.932132 0.967319 1.01846 1.06076 1.08884 1.13261 1.17441 1.20179 1.23884 1.27371 1.32275 1.35141 1.3545 1.35919 1.42097 1.43823 1.46522 1.50916 1.50615 1.54702 1.5462 1.5789 1.58086 1.61657 1.61815 1.65115 1.62906 1.51977 1.24851 0.733406 0.120393 0.00131266 1.98325e-07 8.24313e-12 2.05607e-16 -1.60743e-19 3.21485e-19 -6.4297e-19 6.4297e-19 -3.21485e-19 0 0 0.139905 0.259845 0.352167 0.467731 0.515221 0.659878 0.680921 0.770598 0.876754 0.917612 0.977665 0.99665 1.02719 1.08093 1.10644 1.1489 1.19567 1.2212 1.27167 1.30823 1.31763 1.32352 1.37941 1.40858 1.42487 1.46291 1.49444 1.50054 1.53784 1.52892 1.57347 1.57957 1.61156 1.61873 1.63918 1.60411 1.4705 1.15181 0.575188 0.0601399 0.000341882 3.16934e-08 1.59359e-12 -1.01896e-17 3.21485e-19 -3.21485e-19 0 0 0 0 0 0.133028 0.233631 0.338658 0.422681 0.535457 0.582132 0.733371 0.737845 0.814871 0.891154 0.932773 1.01181 1.01976 1.05141 1.10327 1.13287 1.17873 1.22395 1.256 1.28163 1.29047 1.33572 1.37659 1.39212 1.41503 1.46346 1.46764 1.51059 1.51664 1.52751 1.55828 1.58347 1.60233 1.62022 1.62436 1.56942 1.40274 1.03345 0.400303 0.0242767 6.55526e-05 4.91869e-09 2.8418e-13 -2.04855e-17 0 0 3.21485e-19 -6.4297e-19 6.4297e-19 0 0 0.119978 0.212772 0.320841 0.412248 0.502426 0.594031 0.624457 0.791184 0.794185 0.846196 0.920617 0.95288 1.03957 1.05395 1.07189 1.1366 1.16164 1.20711 1.24858 1.25516 1.29492 1.3462 1.3587 1.3725 1.42798 1.43574 1.46302 1.50367 1.5029 1.52765 1.54609 1.58327 1.59574 1.61599 1.60614 1.52544 1.31059 0.881826 0.235875 0.00759561 8.7887e-06 7.04425e-10 4.66577e-14 8.04232e-22 0 0 3.21485e-19 -3.21485e-19 0 0 0 0.110472 0.204791 0.305472 0.399695 0.481469 0.561558 0.651408 0.679204 0.825384 0.829139 0.874121 0.950266 1.00161 1.05881 1.0966 1.11085 1.15695 1.19921 1.21345 1.25491 1.30944 1.33068 1.33362 1.38029 1.41033 1.42412 1.4612 1.4847 1.50006 1.52322 1.5421 1.57517 1.5934 1.6058 1.5774 1.46809 1.19471 0.685102 0.111766 0.00175632 8.04426e-07 7.93266e-11 6.32276e-15 -3.21485e-19 3.21485e-19 -3.21485e-19 -3.21485e-19 9.62924e-19 -9.62924e-19 0 0 0.101717 0.19518 0.286229 0.384429 0.46147 0.546212 0.61828 0.704651 0.721639 0.840769 0.866 0.915631 0.993728 1.00795 1.09377 1.0969 1.14157 1.18257 1.19497 1.26136 1.30582 1.29914 1.33133 1.37481 1.39201 1.42106 1.45817 1.46151 1.50682 1.50835 1.54401 1.5618 1.58843 1.59036 1.53746 1.3857 1.05314 0.455972 0.040435 0.000281789 5.69425e-08 6.76814e-12 6.06153e-16 0 -3.21485e-19 0 -1.53088e-21 0 1.53088e-21 0 0 0.0967112 0.179669 0.281042 0.365068 0.459762 0.520798 0.609447 0.659807 0.746124 0.765445 0.86484 0.903027 0.925359 1.02315 1.05519 1.10105 1.14614 1.15298 1.21096 1.26149 1.26347 1.28823 1.33715 1.35762 1.38312 1.43148 1.43072 1.47101 1.49202 1.50464 1.53681 1.55212 1.57945 1.56666 1.48707 1.27396 0.865813 0.242846 0.0106214 2.88822e-05 4.24506e-09 5.29816e-13 -1.05562e-17 0 0 0 -1.53088e-21 -3.19954e-19 6.4297e-19 0 0 0.088799 0.180789 0.263994 0.368348 0.431575 0.519344 0.569661 0.65913 0.691781 0.782125 0.799672 0.898442 0.939824 0.963449 1.0257 1.0822 1.09586 1.13393 1.18977 1.22892 1.24378 1.28927 1.32285 1.34626 1.39437 1.40953 1.4298 1.46744 1.47663 1.50639 1.5217 1.5456 1.56603 1.52886 1.41271 1.13618 0.618087 0.0968336 0.00190923 1.76765e-06 3.08668e-10 4.34065e-14 -1.05634e-17 0 -3.21485e-19 6.4297e-19 -6.4297e-19 6.4297e-19 0 0 0 0.0878172 0.174472 0.261904 0.347056 0.42665 0.482175 0.56962 0.611549 0.70307 0.724706 0.82122 0.84265 0.902752 0.970455 0.981345 1.05234 1.08208 1.13651 1.17377 1.20546 1.24054 1.27732 1.29763 1.34641 1.38452 1.39203 1.43089 1.45272 1.46511 1.50516 1.50376 1.54076 1.53617 1.48008 1.30109 0.954408 0.350395 0.0272097 0.000214815 7.24086e-08 1.60808e-11 2.76072e-15 6.4297e-19 0 -6.4297e-19 6.4297e-19 0 -6.4297e-19 6.4297e-19 0 0 0.0834243 0.165951 0.247342 0.328997 0.402919 0.470971 0.536686 0.615326 0.652948 0.74781 0.755641 0.851188 0.870536 0.941503 0.982269 0.991738 1.08436 1.1074 1.12717 1.18127 1.21003 1.24833 1.29565 1.33949 1.35577 1.39396 1.4218 1.42476 1.472 1.47599 1.50444 1.52183 1.4976 1.39973 1.1592 0.69516 0.144732 0.00507507 1.34781e-05 3.23972e-09 7.03682e-13 1.97245e-17 0 6.4297e-19 0 0 -6.4297e-19 6.41439e-19 -6.41439e-19 0 0 0.077927 0.157613 0.231534 0.313945 0.384473 0.456549 0.522037 0.587485 0.657815 0.695673 0.782952 0.787851 0.876648 0.893777 0.935512 1.03548 1.03024 1.07824 1.14109 1.17377 1.19436 1.23192 1.28765 1.30964 1.34234 1.38561 1.38779 1.42725 1.44617 1.46541 1.49509 1.49224 1.44118 1.27897 0.966176 0.392291 0.0404921 0.000570592 4.52029e-07 1.42215e-10 3.48156e-14 -1.9909e-17 -1.53088e-21 -6.41439e-19 6.4297e-19 -6.4297e-19 6.41439e-19 0 -6.41439e-19 0 0 0.0756281 0.148309 0.2264 0.299835 0.37966 0.440667 0.510718 0.571854 0.643679 0.698929 0.728857 0.802179 0.798024 0.909264 0.931341 0.976811 1.02398 1.07651 1.12753 1.15047 1.20246 1.23893 1.25939 1.2898 1.34217 1.35519 1.37965 1.41615 1.42527 1.45556 1.47805 1.44843 1.35238 1.12511 0.681159 0.154458 0.00711045 3.3833e-05 1.20343e-08 4.2489e-12 1.14923e-15 6.4297e-19 -1.53088e-21 -6.41439e-19 6.4297e-19 -6.4297e-19 6.41439e-19 -6.41439e-19 6.4297e-19 0 0 0.0734289 0.147484 0.221294 0.2986 0.365128 0.433228 0.493814 0.571603 0.624254 0.674354 0.714965 0.75182 0.843405 0.852186 0.927398 0.965848 0.983854 1.06429 1.08525 1.13713 1.18077 1.22578 1.23695 1.29232 1.31654 1.33416 1.37806 1.38589 1.4127 1.45128 1.43523 1.38846 1.21677 0.907465 0.354435 0.0387179 0.000710441 9.28073e-07 3.99932e-10 1.32087e-13 -4.18185e-17 6.4297e-19 -6.4297e-19 6.4297e-19 0 -6.4297e-19 0 6.4297e-19 0 0 0 0.0737078 0.145771 0.219298 0.288122 0.356607 0.421463 0.494127 0.551657 0.602304 0.641798 0.702558 0.762537 0.799249 0.854519 0.857033 0.956394 0.982747 1.01006 1.08214 1.09617 1.15476 1.19915 1.2396 1.26951 1.28387 1.32959 1.34436 1.3661 1.41157 1.41323 1.39349 1.27096 1.04745 0.582502 0.119954 0.00577702 3.2903e-05 1.71463e-08 8.95759e-12 3.9815e-15 6.41439e-19 1.53088e-21 -6.4297e-19 6.4297e-19 -6.4297e-19 6.41439e-19 1.53088e-21 -6.4297e-19 6.4297e-19 0 0 0.0714219 0.141227 0.208102 0.276915 0.348152 0.417734 0.476792 0.52579 0.574119 0.638497 0.693658 0.74068 0.772434 0.804645 0.884751 0.898145 0.970921 1.01128 1.06343 1.09316 1.10193 1.17397 1.23726 1.22904 1.27936 1.30267 1.31539 1.36212 1.38553 1.37416 1.29975 1.12301 0.774106 0.251819 0.0248143 0.000419421 6.5856e-07 3.99617e-10 1.90701e-13 8.13106e-17 1.28441e-18 -1.28441e-18 0 6.4297e-19 -6.4297e-19 1.28441e-18 -1.28441e-18 6.41439e-19 -6.41439e-19 0 0 0.0660143 0.134816 0.200965 0.27382 0.343993 0.40133 0.449065 0.506418 0.570621 0.629279 0.670701 0.707793 0.756553 0.808852 0.841879 0.904403 0.929027 1.00831 1.04232 1.06811 1.11141 1.14519 1.17303 1.23792 1.2497 1.27163 1.30939 1.3402 1.33917 1.30601 1.15418 0.906479 0.402966 0.0684686 0.00251902 1.37716e-05 8.45554e-09 6.5046e-12 4.08429e-15 6.41369e-19 -6.4297e-19 6.41439e-19 1.53088e-21 -6.4297e-19 6.4297e-19 -6.4297e-19 6.41439e-19 0 -6.41439e-19 0 0 0.0609485 0.131823 0.202599 0.26872 0.328388 0.378984 0.438448 0.502931 0.563242 0.602678 0.650112 0.698964 0.749484 0.785004 0.830729 0.874215 0.947718 0.955097 1.01842 1.07166 1.09671 1.11695 1.16525 1.19884 1.22379 1.26196 1.29066 1.29357 1.27909 1.15831 0.982755 0.533289 0.13775 0.00884154 0.00013204 1.41858e-07 1.57319e-10 9.86233e-14 1.9836e-17 6.4297e-19 -6.4297e-19 6.41439e-19 1.53088e-21 -6.4297e-19 6.4297e-19 -6.4297e-19 6.41439e-19 -6.41439e-19 6.4297e-19 0 0 0.0649296 0.133906 0.198009 0.254736 0.310537 0.373178 0.434544 0.492465 0.538937 0.593263 0.640027 0.690094 0.722893 0.773865 0.819826 0.87263 0.898358 0.960897 0.996695 1.04376 1.06834 1.10954 1.14897 1.16784 1.22236 1.2473 1.25296 1.23868 1.14398 1.0018 0.623979 0.21772 0.0210809 0.000682899 1.6225e-06 2.01691e-09 1.47697e-12 1.5408e-15 1.60846e-21 0 0 -1.28594e-18 1.28594e-18 0 0 0 -1.28594e-18 1.92738e-18 -1.28441e-18 0 0 0.0661977 0.126086 0.185146 0.245542 0.308777 0.368857 0.424731 0.47736 0.534718 0.581166 0.625596 0.661356 0.718988 0.76069 0.807732 0.834391 0.90073 0.932887 0.981585 1.00847 1.05627 1.09166 1.11397 1.16313 1.20073 1.21602 1.20847 1.12309 0.99132 0.675667 0.281903 0.0380475 0.0021275 1.02319e-05 1.75222e-08 1.67441e-11 2.35265e-14 -6.3664e-19 6.4297e-19 0 -6.4297e-19 6.41439e-19 -6.41439e-19 6.4297e-19 0 -6.4297e-19 0 6.41439e-19 0 0 0 0.060693 0.120633 0.182061 0.243695 0.300997 0.357511 0.415997 0.474145 0.520184 0.564253 0.605729 0.660748 0.700256 0.745266 0.777362 0.840337 0.868618 0.916852 0.944886 1.00774 1.02988 1.05151 1.11105 1.14567 1.15277 1.16491 1.09129 0.981136 0.693989 0.321 0.0547869 0.00429515 3.88485e-05 1.13086e-07 1.17302e-10 2.04748e-13 8.21036e-17 0 -6.41439e-19 0 6.41439e-19 0 0 1.53088e-21 -6.4297e-19 0 1.28441e-18 -1.92738e-18 1.28441e-18 0 0 0.0584594 0.117232 0.17675 0.236089 0.29469 0.350995 0.404627 0.454475 0.505808 0.554891 0.602812 0.639782 0.684794 0.727269 0.782084 0.80696 0.858584 0.886796 0.953959 0.961203 1.00736 1.05609 1.08098 1.10977 1.11029 1.03162 0.945438 0.680695 0.341846 0.0655489 0.00647057 9.25607e-05 4.28448e-07 5.08876e-10 1.21544e-12 1.00636e-15 -6.40596e-19 6.42205e-19 -6.42205e-19 6.42205e-19 0 -6.42205e-19 6.42205e-19 7.65441e-22 -1.28517e-18 1.92738e-18 -6.4297e-19 -1.28441e-18 1.28441e-18 0 0 0.0573682 0.116458 0.175354 0.233451 0.288972 0.342422 0.394942 0.448798 0.497062 0.541048 0.580144 0.627484 0.672901 0.72003 0.749687 0.800651 0.835842 0.890998 0.900488 0.967324 0.987846 1.03017 1.05171 1.04293 0.98862 0.892919 0.634135 0.33135 0.0682338 0.00810947 0.000144548 9.82665e-07 1.38002e-09 4.47338e-12 5.72723e-15 -6.22355e-17 -7.65441e-22 7.65441e-22 6.42205e-19 -7.65441e-22 0 7.65441e-22 -6.42205e-19 -7.65441e-22 6.42205e-19 0 -1.28441e-18 1.28441e-18 0 0 0 0.0573087 0.113959 0.170476 0.227001 0.282131 0.33475 0.384664 0.431254 0.478074 0.525342 0.571951 0.613235 0.655208 0.69538 0.746655 0.78262 0.826325 0.850613 0.914481 0.92854 0.981549 0.972029 0.98102 0.919542 0.824204 0.579262 0.294003 0.06175 0.00805571 0.000167575 1.57921e-06 2.34712e-09 1.02968e-11 1.64851e-14 1.98853e-17 6.4297e-19 -1.53088e-21 1.53088e-21 -6.4297e-19 6.41439e-19 -1.28364e-18 1.92661e-18 -1.28441e-18 6.41439e-19 0 -1.28441e-18 1.28441e-18 1.28441e-18 -2.56882e-18 0 0 0.0560984 0.112333 0.167878 0.221421 0.272439 0.322922 0.372812 0.423085 0.471742 0.516996 0.558564 0.601551 0.644002 0.688633 0.724502 0.765782 0.802241 0.855539 0.873952 0.918282 0.902101 0.914429 0.824267 0.745312 0.488443 0.24174 0.0498324 0.00635293 0.000143323 1.5783e-06 2.79645e-09 1.66942e-11 2.86168e-14 1.23806e-16 -6.4297e-19 6.4297e-19 -1.53088e-21 1.53088e-21 -6.4297e-19 6.41439e-19 -1.28364e-18 1.28364e-18 0 0 -1.28441e-18 1.28441e-18 0 0 0 0 0 0.0545219 0.108834 0.162359 0.214869 0.265855 0.315249 0.363081 0.410466 0.458662 0.506101 0.551257 0.591843 0.631602 0.670397 0.713513 0.752656 0.793735 0.814569 0.846851 0.833718 0.825567 0.734081 0.639888 0.374184 0.178681 0.0332167 0.00417554 9.14271e-05 9.80728e-07 2.33431e-09 1.66831e-11 3.41591e-14 1.43628e-16 6.4297e-19 0 -6.4297e-19 6.41439e-19 -6.41439e-19 6.4297e-19 -1.28594e-18 2.56882e-18 -2.56882e-18 1.28441e-18 0 0 0 0 -1.28441e-18 1.28441e-18 0 0 0.0531824 0.106113 0.157917 0.208445 0.258188 0.307688 0.356808 0.405293 0.451539 0.494997 0.536956 0.579496 0.61984 0.660922 0.697535 0.728649 0.751668 0.769079 0.752512 0.724694 0.633106 0.500612 0.264246 0.110702 0.0179159 0.00206524 3.8209e-05 4.26709e-07 1.36838e-09 1.02724e-11 2.85758e-14 1.43628e-16 1.28441e-18 -1.28441e-18 6.4297e-19 -1.28594e-18 1.92738e-18 -6.4297e-19 -6.41439e-19 6.41439e-19 0 -1.28441e-18 1.28441e-18 0 0 0 0 -1.28441e-18 1.28441e-18 0 0 0.0516364 0.102895 0.153594 0.20325 0.252156 0.299965 0.347135 0.393629 0.439441 0.483322 0.525517 0.565624 0.602554 0.634787 0.661213 0.678102 0.680521 0.657164 0.611514 0.502286 0.347262 0.16282 0.0547049 0.00765324 0.000664755 1.00398e-05 1.12307e-07 5.02372e-10 4.45191e-12 1.62799e-14 1.2252e-16 6.4297e-19 -1.53088e-21 -6.41439e-19 0 6.41439e-19 -6.41439e-19 6.41439e-19 0 0 0 0 0 -1.28441e-18 1.28441e-18 0 -1.28441e-18 1.28441e-18 0 0 0 0.0498833 0.0994952 0.148689 0.197699 0.246278 0.2946 0.342192 0.387596 0.429796 0.468911 0.505508 0.53848 0.56588 0.585463 0.589927 0.578133 0.543867 0.471849 0.345819 0.203471 0.0803684 0.0202973 0.00226947 0.000129012 1.59158e-06 1.73228e-08 1.15288e-10 1.20628e-12 5.56299e-15 1.9886e-17 6.42205e-19 0 -6.4297e-19 7.65441e-22 6.41439e-19 0 0 -1.28441e-18 1.28441e-18 0 0 0 -1.28441e-18 1.28441e-18 0 0 -1.28441e-18 2.56882e-18 -2.56882e-18 0 0 0.0486471 0.0972851 0.145485 0.193163 0.239748 0.285401 0.329231 0.369819 0.406082 0.438174 0.465812 0.485565 0.493142 0.486204 0.459663 0.400134 0.305496 0.19283 0.0924899 0.0281107 0.00496402 0.000392473 1.35054e-05 1.38165e-07 1.98669e-09 1.63835e-11 2.02777e-13 1.12827e-15 -6.09504e-17 -6.42205e-19 6.42205e-19 -6.4297e-19 0 6.42205e-19 0 0 0 0 -1.28441e-18 1.28441e-18 -1.28441e-18 1.28441e-18 0 0 0 -1.28364e-18 1.28364e-18 0 0 0 0 0.0463494 0.0924704 0.137885 0.182149 0.224833 0.265158 0.302013 0.334062 0.359696 0.377396 0.386109 0.38278 0.359515 0.308709 0.234526 0.153084 0.0781814 0.0273112 0.0057147 0.00064509 3.16185e-05 6.42715e-07 8.15643e-09 1.54603e-10 1.43317e-12 2.33623e-14 8.21004e-17 -6.39831e-19 0 1.28441e-18 -1.28441e-18 6.41439e-19 -6.41439e-19 6.41439e-19 0 0 -1.28441e-18 1.28441e-18 1.28441e-18 -2.56882e-18 0 1.28441e-18 1.28441e-18 -2.56882e-18 1.28441e-18 -1.28364e-18 2.56805e-18 -2.56882e-18 1.28441e-18 0 0 0.0414484 0.0823452 0.121962 0.159432 0.193708 0.223452 0.247331 0.264093 0.271606 0.265815 0.242539 0.202383 0.152342 0.0992016 0.0504383 0.0177198 0.00395727 0.000503421 3.20116e-05 8.95283e-07 1.63771e-08 3.87167e-10 6.31853e-12 9.55839e-14 1.53951e-15 6.46238e-19 0 -6.41439e-19 0 1.28441e-18 -1.28441e-18 6.41439e-19 6.4297e-19 -1.92738e-18 1.28441e-18 0 -1.28441e-18 1.28441e-18 1.28441e-18 -2.56882e-18 1.28441e-18 0 -1.28364e-18 1.28364e-18 -1.28441e-18 2.56882e-18 -1.28441e-18 -1.28441e-18 1.28441e-18 0 0 0.0315781 0.0621477 0.0905604 0.115429 0.134986 0.147069 0.149665 0.142091 0.125812 0.103365 0.076275 0.0468564 0.0217411 0.00704546 0.00149254 0.000188348 1.25975e-05 4.28993e-07 1.126e-08 3.82639e-10 8.59196e-12 1.82736e-13 4.04333e-15 2.11187e-17 1.60846e-21 -6.4297e-19 6.41439e-19 -6.41439e-19 6.4297e-19 -6.4297e-19 6.4297e-19 -6.4297e-19 6.41439e-19 0 -1.28441e-18 1.28441e-18 1.28441e-18 -1.28441e-18 -1.28441e-18 1.28441e-18 0 0 -1.28364e-18 1.28364e-18 0 0 -1.28441e-18 1.28441e-18 0 0 0 0.0149279 0.0285366 0.0396239 0.047234 0.0507343 0.0497579 0.0441678 0.0344363 0.0224751 0.0115967 0.0044819 0.00123346 0.000226599 2.54682e-05 1.62934e-06 6.6234e-08 2.9648e-09 1.34039e-10 3.99499e-12 1.24204e-13 3.81759e-15 8.25998e-17 -6.44571e-19 6.4297e-19 0 0 -1.28594e-18 1.92738e-18 -1.28441e-18 6.41439e-19 -6.41439e-19 0 6.41439e-19 0 0 -1.28441e-18 2.56882e-18 -2.56882e-18 1.28441e-18 0 0 -1.28441e-18 1.28441e-18 0 0 0 -1.28441e-18 2.56882e-18 -2.56882e-18 0 0 0.00284894 0.00510175 0.006291 0.00621747 0.00506299 0.00336919 0.00178948 0.000735579 0.000225647 4.93815e-05 7.28252e-06 6.98491e-07 4.90496e-08 3.65944e-09 2.77923e-10 1.4746e-11 6.36555e-13 3.23924e-14 1.23287e-15 -4.18177e-17 6.41439e-19 7.65441e-22 -6.42205e-19 6.42205e-19 0 -6.42205e-19 6.41439e-19 0 0 -1.28364e-18 1.28364e-18 0 0 0 0 -1.28441e-18 0 1.28441e-18 0 0 -1.28364e-18 1.28364e-18 0 0 0 -1.28364e-18 1.28364e-18 0 0 0 0 1.77237e-05 2.66086e-05 2.44709e-05 1.60832e-05 7.80536e-06 2.7969e-06 7.34276e-07 1.43514e-07 2.31206e-08 3.65633e-09 5.584e-10 6.67788e-11 5.79109e-12 4.48464e-13 3.79451e-14 2.67888e-15 6.21143e-17 -2.11941e-17 6.42205e-19 -6.42205e-19 1.28441e-18 -1.28517e-18 6.42205e-19 -6.42205e-19 0 6.42205e-19 0 -6.41439e-19 1.28441e-18 -1.92661e-18 1.28364e-18 0 -1.28441e-18 2.56882e-18 -2.56882e-18 1.28441e-18 -1.28441e-18 2.56882e-18 -2.56882e-18 1.28441e-18 -1.28364e-18 1.28364e-18 1.28441e-18 -2.56882e-18 1.28441e-18 -1.28364e-18 2.56805e-18 -2.56882e-18 1.28441e-18 0 0 3.21529e-10 4.83587e-10 4.5384e-10 3.15302e-10 1.69379e-10 7.056e-11 2.25511e-11 5.5428e-12 1.10717e-12 2.02256e-13 3.52251e-14 5.11047e-15 6.06139e-16 9.9277e-18 -9.92047e-18 -6.4297e-19 0 1.28441e-18 -1.28441e-18 6.4297e-19 -6.4297e-19 0 1.28441e-18 -1.28441e-18 0 6.41439e-19 0 -6.41439e-19 6.4297e-19 -1.53088e-21 0 -1.28441e-18 1.28441e-18 0 -1.28441e-18 2.56882e-18 -1.28441e-18 -1.28364e-18 1.28364e-18 -1.28441e-18 2.56882e-18 -1.28441e-18 -1.28364e-18 1.28364e-18 -1.28441e-18 2.56882e-18 -1.28441e-18 -1.