<?xml version="1.0"?>
<VTKFile type="PolyData">
	<PolyData>
		<Piece NumberOfPoints="2601" NumberOfPolys="2500">
			<Points>
				<DataArray type="Float32" NumberOfComponents="3" format="ascii">
 0 0 0 0.433262 0 0 0.299033 0 0 0.403262 0 0 0.405197 0 0 0.433071 0 0 0.454173 0 0 0.472173 0 0 0.490552 0 0 0.504156 0 0 0.51881 0 0 0.530232 0 0 0.543138 0 0 0.552782 0 0 0.564159 0 0 0.572501 0 0 0.582441 0 0 0.589698 0 0 0.59782 0 0 0.604372 0 0 0.611503 0 0 0.618038 0 0 0.624115 0 0 0.629757 0 0 0.635186 0 0 0.640462 0 0 0.645252 0 0 0.649922 0 0 0.654252 0 0 0.658369 0 0 0.662389 0 0 0.666198 0 0 0.670415 0 0 0.676144 0 0 0.68536 0 0 0.700497 0 0 0.720003 0 0 0.74 0 0 0.76 0 0 0.78 0 0 0.8 0 0 0.82 0 0 0.84 0 0 0.86 0 0 0.88 0 0 0.9 0 0 0.92 0 0 0.94 0 0 0.96 0 0 0.98 0 0 1 0 0 0 0.433262 0 0.168905 0.168905 0 0.387422 0.177144 0 0.339325 0.155314 0 0.402488 0.102577 0 0.425723 0.0914655 0 0.44899 0.0815397 0 0.469671 0.0730298 0 0.485758 0.0676558 0 0.502631 0.0620244 0 0.515353 0.0572521 0 0.529501 0.052583 0 0.540486 0.0486814 0 0.552649 0.0455514 0 0.561657 0.042901 0 0.572555 0.0407205 0 0.580485 0.0386326 0 0.589475 0.0366877 0 0.596441 0.0348686 0 0.603997 0.0332202 0 0.6107 0.0317948 0 0.617492 0.0305113 0 0.623413 0.0293302 0 0.629282 0.0282369 0 0.63467 0.0272022 0 0.640001 0.0262167 0 0.644818 0.0252852 0 0.64951 0.024425 0 0.653879 0.0236346 0 0.658019 0.0229119 0 0.662056 0.0222424 0 0.665886 0.0216086 0 0.670137 0.0210246 0 0.675922 0.0205256 0 0.685225 0.0201738 0 0.700471 0.0200246 0 0.720002 0.0200003 0 0.74 0.02 0 0.76 0.02 0 0.78 0.02 0 0.8 0.02 0 0.82 0.02 0 0.84 0.02 0 0.86 0.02 0 0.88 0.02 0 0.9 0.02 0 0.92 0.02 0 0.94 0.02 0 0.96 0.02 0 0.98 0.02 0 1 0.02 0 0 0.299033 0 0.177144 0.387422 0 0.195335 0.195335 0 0.347637 0.244015 0 0.362163 0.202412 0 0.402066 0.173351 0 0.431324 0.154951 0 0.453737 0.143961 0 0.475262 0.131034 0 0.491642 0.121461 0 0.508749 0.11145 0 0.52207 0.103411 0 0.536303 0.0962498 0 0.546909 0.0901885 0 0.558913 0.0853891 0 0.567826 0.0809548 0 0.578252 0.0769558 0 0.585861 0.073048 0 0.594365 0.0694001 0 0.601441 0.066126 0 0.608941 0.0632158 0 0.615389 0.0606638 0 0.621763 0.0583673 0 0.627727 0.0562678 0 0.633226 0.0542223 0 0.638584 0.0522789 0 0.643554 0.050438 0 0.648285 0.0487381 0 0.65277 0.0471775 0 0.656979 0.045746 0 0.661062 0.0444138 0 0.664957 0.043151 0 0.669311 0.0419906 0 0.675264 0.0410062 0 0.684834 0.0403232 0 0.700399 0.0400429 0 0.720002 0.0400004 0 0.74 0.04 0 0.76 0.04 0 0.78 0.04 0 0.8 0.04 0 0.82 0.04 0 0.84 0.04 0 0.86 0.04 0 0.88 0.04 0 0.9 0.04 0 0.92 0.04 0 0.94 0.04 0 0.96 0.04 0 0.98 0.04 0 1 0.04 0 0 0.403262 0 0.155314 0.339325 0 0.244015 0.347637 0 0.222616 0.222616 0 0.3179 0.28236 0 0.372258 0.233484 0 0.404609 0.221498 0 0.434329 0.200926 0 0.457394 0.189035 0 0.479558 0.17361 0 0.496432 0.162218 0 0.513953 0.150593 0 0.527253 0.141396 0 0.541088 0.133456 0 0.551461 0.126408 0 0.563336 0.120261 0 0.572172 0.114189 0 0.582077 0.108478 0 0.589832 0.103159 0 0.598276 0.0983569 0 0.605378 0.0941656 0 0.612409 0.090406 0 0.618955 0.0871006 0 0.625214 0.0839597 0 0.630824 0.0809419 0 0.636309 0.0780628 0 0.641447 0.0753527 0 0.646295 0.072838 0 0.650938 0.0705426 0 0.655272 0.0684238 0 0.659421 0.0664397 0 0.663428 0.064559 0 0.667958 0.0628401 0 0.674198 0.0613998 0 0.68422 0.0604279 0 0.700299 0.0600507 0 0.720001 0.0600003 0 0.74 0.06 0 0.76 0.06 0 0.78 0.06 0 0.8 0.06 0 0.82 0.06 0 0.84 0.06 0 0.86 0.06 0 0.88 0.06 0 0.9 0.06 0 0.92 0.06 0 0.94 0.06 0 0.96 0.06 0 0.98 0.06 0 1 0.06 0 0 0.405197 0 0.102577 0.402488 0 0.202412 0.362163 0 0.28236 0.3179 0 0.271564 0.271564 0 0.333704 0.306928 0 0.381664 0.258378 0 0.412107 0.254998 0 0.440242 0.233827 0 0.462356 0.222436 0 0.484051 0.206555 0 0.50064 0.195569 0 0.517479 0.184045 0 0.530225 0.174613 0 0.543948 0.166023 0 0.554488 0.157776 0 0.566274 0.150051 0 0.57523 0.142686 0 0.585098 0.135837 0 0.59301 0.129778 0 0.60109 0.124347 0 0.608129 0.119668 0 0.615219 0.11533 0 0.621518 0.111207 0 0.627584 0.107229 0 0.63317 0.103455 0 0.638544 0.0999138 0 0.643564 0.0966454 0 0.648404 0.0936528 0 0.652911 0.0908727 0 0.657161 0.0882482 0 0.661331 0.0857682 0 0.666116 0.0835209 0 0.672773 0.0816717 0 0.683444 0.0804758 0 0.700196 0.080047 0 0.72 0.0800002 0 0.74 0.08 0 0.76 0.08 0 0.78 0.08 0 0.8 0.08 0 0.82 0.08 0 0.84 0.08 0 0.86 0.08 0 0.88 0.08 0 0.9 0.08 0 0.92 0.08 0 0.94 0.08 0 0.96 0.08 0 0.98 0.08 0 1 0.08 0 0 0.433071 0 0.0914655 0.425723 0 0.173351 0.402066 0 0.233484 0.372258 0 0.306928 0.333704 0 0.316906 0.316906 0 0.357774 0.319687 0 0.391124 0.28271 0 0.419931 0.281601 0 0.445985 0.260209 0 0.466691 0.250582 0 0.487454 0.23504 0 0.503242 0.224528 0 0.519723 0.212881 0 0.532551 0.202768 0 0.5464 0.193107 0 0.557099 0.183891 0 0.56882 0.175202 0 0.577892 0.167373 0 0.587332 0.160136 0 0.595161 0.153891 0 0.603261 0.148166 0 0.610234 0.14289 0 0.617035 0.137787 0 0.623384 0.132964 0 0.629291 0.128341 0 0.63488 0.124059 0 0.640147 0.120094 0 0.64518 0.116444 0 0.649915 0.113023 0 0.654313 0.109775 0 0.658705 0.106723 0 0.663833 0.103992 0 0.671054 0.101799 0 0.682587 0.100465 0 0.700109 0.100035 0 0.72 0.1 0 0.74 0.1 0 0.76 0.1 0 0.78 0.1 0 0.8 0.1 0 0.82 0.1 0 0.84 0.1 0 0.86 0.1 0 0.88 0.1 0 0.9 0.1 0 0.92 0.1 0 0.94 0.1 0 0.96 0.1 0 0.98 0.1 0 1 0.1 0 0 0.454173 0 0.0815397 0.44899 0 0.154951 0.431324 0 0.221498 0.404609 0 0.258378 0.381664 0 0.319687 0.357774 0 0.340846 0.340846 0 0.373773 0.335149 0 0.400498 0.304398 0 0.426584 0.304711 0 0.451387 0.282554 0 0.470711 0.27461 0 0.490711 0.258853 0 0.506094 0.248552 0 0.522397 0.23646 0 0.535278 0.225989 0 0.548983 0.215709 0 0.559589 0.206377 0 0.570773 0.197472 0 0.579587 0.189698 0 0.588933 0.182407 0 0.596911 0.175899 0 0.604609 0.169525 0 0.611706 0.163639 0 0.618443 0.157962 0 0.624687 0.152667 0 0.630542 0.147706 0 0.636073 0.14312 0 0.641312 0.138831 0 0.646307 0.134799 0 0.650914 0.130955 0 0.655594 0.127378 0 0.661165 0.124226 0 0.669119 0.121774 0 0.68175 0.120402 0 0.700051 0.120021 0 0.72 0.12 0 0.74 0.12 0 0.76 0.12 0 0.78 0.12 0 0.8 0.12 0 0.82 0.12 0 0.84 0.12 0 0.86 0.12 0 0.88 0.12 0 0.9 0.12 0 0.92 0.12 0 0.94 0.12 0 0.96 0.12 0 0.98 0.12 0 1 0.12 0 0 0.472173 0 0.0730298 0.469671 0 0.143961 0.453737 0 0.200926 0.434329 0 0.254998 0.412107 0 0.28271 0.391124 0 0.335149 0.373773 0 0.35961 0.35961 0 0.386887 0.350619 0 0.410122 0.323733 0 0.433008 0.32485 0 0.456365 0.301281 0 0.474552 0.29499 0 0.493982 0.278811 0 0.509015 0.268772 0 0.525007 0.25649 0 0.537629 0.246278 0 0.550814 0.23582 0 0.561087 0.226717 0 0.572075 0.217788 0 0.581074 0.210041 0 0.590122 0.202322 0 0.598022 0.195351 0 0.605808 0.188574 0 0.61274 0.182264 0 0.619501 0.176337 0 0.625568 0.170794 0 0.631422 0.165608 0 0.636872 0.160724 0 0.642133 0.156113 0 0.647005 0.151732 0 0.652054 0.147698 0 0.658187 0.144211 0 0.667062 0.141606 0 0.681035 0.140305 0 0.700019 0.14001 0 0.72 0.14 0 0.74 0.14 0 0.76 0.14 0 0.78 0.14 0 0.8 0.14 0 0.82 0.14 0 0.84 0.14 0 0.86 0.14 0 0.88 0.14 0 0.9 0.14 0 0.92 0.14 0 0.94 0.14 0 0.96 0.14 0 0.98 0.14 0 1 0.14 0 0 0.490552 0 0.0676558 0.485758 0 0.131034 0.475262 0 0.189035 0.457394 0 0.233827 0.440242 0 0.281601 0.419931 0 0.304398 0.400498 0 0.350619 0.386887 0 0.375699 0.375699 0 0.399142 0.363858 0 0.420404 0.340774 0 0.440826 0.341088 0 0.462123 0.316979 0 0.479201 0.312071 0 0.497738 0.295607 0 0.512266 0.286177 0 0.527584 0.273783 0 0.539661 0.264067 0 0.552461 0.253615 0 0.562716 0.244921 0 0.573364 0.23578 0 0.582176 0.227849 0 0.591224 0.219938 0 0.599001 0.212708 0 0.606629 0.205727 0 0.613652 0.199311 0 0.620145 0.193181 0 0.626241 0.187462 0 0.631987 0.18203 0 0.637457 0.176911 0 0.642644 0.172069 0 0.648146 0.167669 0 0.654995 0.163949 0 0.665013 0.161327 0 0.680516 0.160195 0 0.700005 0.160003 0 0.72 0.16 0 0.74 0.16 0 0.76 0.16 0 0.78 0.16 0 0.8 0.16 0 0.82 0.16 0 0.84 0.16 0 0.86 0.16 0 0.88 0.16 0 0.9 0.16 0 0.92 0.16 0 0.94 0.16 0 0.96 0.16 0 0.98 0.16 0 1 0.16 0 0 0.504156 0 0.0620244 0.502631 0 0.121461 0.491642 0 0.17361 0.479558 0 0.222436 0.462356 0 0.260209 0.445985 0 0.304711 0.426584 0 0.323733 0.410122 0 0.363858 0.399142 0 0.389303 0.389303 0 0.410455 0.375165 0 0.430768 0.355633 0 0.450024 0.353745 0 0.468752 0.330511 0 0.484999 0.326205 0 0.502223 0.309803 0 0.51594 0.301132 0 0.530418 0.288768 0 0.542151 0.279807 0 0.554415 0.269252 0 0.564229 0.260733 0 0.574686 0.251571 0 0.583454 0.243683 0 0.592076 0.235629 0 0.599919 0.228405 0 0.60742 0.221365 0 0.614276 0.214826 0 0.620673 0.208579 0 0.626696 0.202723 0 0.632366 0.197161 0 0.637896 0.191964 0 0.643947 0.187287 0 0.651711 0.183456 0 0.66315 0.180984 0 0.680208 0.1801 0 0.700001 0.180001 0 0.72 0.18 0 0.74 0.18 0 0.76 0.18 0 0.78 0.18 0 0.8 0.18 0 0.82 0.18 0 0.84 0.18 0 0.86 0.18 0 0.88 0.18 0 0.9 0.18 0 0.92 0.18 0 0.94 0.18 0 0.96 0.18 0 0.98 0.18 0 1 0.18 0 0 0.51881 0 0.0572521 0.515353 0 0.11145 0.508749 0 0.162218 0.496432 0 0.206555 0.484051 0 0.250582 0.466691 0 0.282554 0.451387 0 0.32485 0.433008 0 0.340774 0.420404 0 0.375165 0.410455 0 0.400833 0.400833 0 0.42051 0.385108 0 0.440224 0.368909 0 0.458799 0.364146 0 0.475573 0.342796 0 0.491048 0.338377 0 0.506865 0.322265 0 0.520026 0.314389 0 0.533634 0.302021 0 0.544648 0.293496 0 0.556449 0.282949 0 0.566142 0.274783 0 0.576075 0.265612 0 0.58465 0.25782 0 0.593133 0.24987 0 0.600776 0.242642 0 0.608087 0.235614 0 0.614742 0.22905 0 0.62103 0.222795 0 0.626918 0.2169 0 0.632859 0.211418 0 0.639572 0.206576 0 0.648472 0.202776 0 0.661675 0.200636 0 0.680064 0.200038 0 0.7 0.2 0 0.72 0.2 0 0.74 0.2 0 0.76 0.2 0 0.78 0.2 0 0.8 0.2 0 0.82 0.2 0 0.84 0.2 0 0.86 0.2 0 0.88 0.2 0 0.9 0.2 0 0.92 0.2 0 0.94 0.2 0 0.96 0.2 0 0.98 0.2 0 1 0.2 0 0 0.530232 0 0.052583 0.529501 0 0.103411 0.52207 0 0.150593 0.513953 0 0.195569 0.50064 0 0.23504 0.487454 0 0.27461 0.470711 0 0.301281 0.456365 0 0.341088 0.440826 0 0.355633 0.430768 0 0.385108 0.42051 0 0.410598 0.410598 0 0.42958 0.394311 0 0.448158 0.380769 0 0.466449 0.373502 0 0.481688 0.354138 0 0.496658 0.349393 0 0
[...]
			<PointData Scalars="VitesseX">
				<DataArray Name="VitesseX" type="Float32" format="ascii">
 0 1.78256 0.485688 1.19883 1.10902 1.1718 1.21222 1.2692 1.28572 1.34612 1.36987 1.38393 1.4503 1.53075 1.53174 1.54259 1.61386 1.65416 1.72149 1.72498 1.7035 1.75753 1.85253 1.78978 1.84421 1.83442 1.88012 1.9257 1.93821 1.95434 1.97366 1.96026 1.85019 1.55536 0.964489 0.185017 0.00174117 7.00867e-08 7.21369e-13 9.57898e-18 2.75814e-20 -5.6266e-20 5.6266e-20 0 0 -5.6266e-20 5.6266e-20 -5.6266e-20 5.6266e-20 0 0 0 0.166122 1.3959 0.679785 1.09666 1.09206 1.21652 1.23019 1.26968 1.35153 1.35893 1.38131 1.46176 1.52554 1.53243 1.55163 1.60034 1.67447 1.69927 1.72029 1.7052 1.77942 1.82094 1.80166 1.83653 1.84276 1.87466 1.92663 1.93553 1.95286 1.9735 1.95864 1.846 1.54717 0.951705 0.176924 0.00157958 6.18338e-08 6.61921e-13 5.43378e-18 2.75814e-20 -5.6266e-20 5.6266e-20 0 0 -5.6266e-20 5.6266e-20 -5.6266e-20 5.6266e-20 0 0 0 0.76866 0.254711 1.14636 0.870417 1.01723 1.11635 1.19695 1.2377 1.32216 1.35277 1.37742 1.4524 1.52521 1.52457 1.53541 1.60551 1.65819 1.69166 1.68799 1.73433 1.78448 1.76992 1.82138 1.82615 1.85517 1.86632 1.92327 1.93078 1.94783 1.97353 1.95374 1.83336 1.52227 0.912846 0.154154 0.00117516 4.26726e-08 5.10202e-13 6.72435e-19 -1.43423e-20 -2.8133e-20 8.60538e-20 -5.79208e-20 0 2.97879e-20 -2.97879e-20 2.97879e-20 -2.97879e-20 0 0 0 0.62317 0.797397 0.326259 0.802254 0.934761 1.05243 1.11488 1.20593 1.291 1.31182 1.36592 1.44395 1.49855 1.50852 1.53295 1.58254 1.65298 1.65624 1.69703 1.74383 1.76184 1.73828 1.82873 1.81881 1.86192 1.86491 1.90793 1.92672 1.94016 1.97309 1.94535 1.8121 1.47994 0.846491 0.121063 0.000709506 2.33874e-08 3.28724e-13 -2.93617e-20 2.97879e-20 -5.79208e-20 5.79208e-20 0 0 -5.84725e-20 5.84725e-20 -5.84725e-20 5.84725e-20 0 0 0 0.274555 0.602322 0.828713 0.667136 0.891094 0.998589 1.08324 1.15715 1.2461 1.2819 1.33732 1.41274 1.46121 1.47489 1.51266 1.56837 1.6036 1.65151 1.69485 1.7323 1.71726 1.75366 1.80132 1.81946 1.85712 1.87126 1.88427 1.92072 1.93274 1.9693 1.9323 1.78184 1.41933 0.750957 0.084157 0.000341834 1.04195e-08 1.76302e-13 2.75685e-22 0 -5.79208e-20 0 5.79208e-20 0 -5.51627e-22 5.51627e-22 -1.16393e-19 1.16393e-19 0 0 0 0.236516 0.459388 0.579554 0.880969 0.965702 0.992569 1.02257 1.13104 1.18538 1.24605 1.31634 1.36831 1.42177 1.45156 1.49071 1.53039 1.58687 1.63847 1.6987 1.66888 1.71051 1.76631 1.76987 1.82128 1.84226 1.87632 1.86607 1.90863 1.92718 1.95969 1.91227 1.74071 1.33932 0.626321 0.0504922 0.000128444 3.85027e-09 7.84321e-14 5.77842e-20 -5.79208e-20 0 1.15842e-19 -1.15842e-19 0 1.15842e-19 -1.15842e-19 1.15842e-19 -1.15842e-19 0 0 0 0.211557 0.387177 0.591865 0.613936 0.831531 0.99454 1.04153 1.06877 1.14355 1.20689 1.28408 1.34496 1.38216 1.42626 1.46149 1.51275 1.5733 1.64193 1.64283 1.64783 1.71234 1.75069 1.7583 1.8162 1.82407 1.87363 1.86045 1.89266 1.92352 1.94382 1.88204 1.68365 1.2369 0.478446 0.0253341 3.65413e-05 1.17604e-09 2.86897e-14 -1.15832e-19 0 1.15842e-19 -1.15842e-19 1.15842e-19 0 -1.15842e-19 0 1.15842e-19 -1.15842e-19 0 0 0 0.172649 0.378967 0.500062 0.671905 0.670303 0.864298 1.01974 1.07887 1.08497 1.17727 1.23676 1.30004 1.35549 1.38389 1.43085 1.49769 1.5631 1.58691 1.60347 1.64715 1.70714 1.70964 1.77362 1.78113 1.81946 1.85615 1.86751 1.87686 1.91781 1.92306 1.84015 1.60313 1.10413 0.323107 0.0102493 7.59671e-06 2.86388e-10 8.43585e-15 -1.15838e-19 1.15842e-19 -1.15842e-19 0 1.15842e-19 0 -2.31683e-19 2.31683e-19 -2.31683e-19 2.31683e-19 0 0 0 0.162333 0.34183 0.48841 0.598498 0.748999 0.75222 0.918569 1.0664 1.10809 1.14817 1.19701 1.26704 1.30567 1.36672 1.40887 1.47805 1.51704 1.5393 1.58544 1.65741 1.65609 1.71078 1.7603 1.74856 1.81015 1.83549 1.87151 1.87003 1.90807 1.89683 1.78631 1.49466 0.928229 0.184655 0.00320937 1.12342e-06 5.30548e-11 1.8914e-15 1.15842e-19 2.31683e-19 -2.31683e-19 0 -1.15842e-19 2.31683e-19 -1.15842e-19 2.31683e-19 -4.63367e-19 4.63367e-19 -2.31683e-19 0 0 0.154817 0.330567 0.462633 0.580728 0.679725 0.80998 0.822223 0.983463 1.09319 1.1348 1.18701 1.2444 1.27536 1.34385 1.40687 1.43476 1.47401 1.52381 1.59837 1.61079 1.63912 1.70476 1.73007 1.73467 1.78869 1.82186 1.86339 1.8749 1.8961 1.85843 1.71441 1.35911 0.703908 0.0850337 0.000740663 1.23038e-07 7.41716e-12 3.08097e-16 1.15842e-19 -1.15842e-19 0 0 0 0 2.31683e-19 -2.31683e-19 0 0 0 0 0 0.146515 0.296828 0.434134 0.533908 0.662176 0.747512 0.895098 0.922916 1.0289 1.12203 1.16515 1.22408 1.28837 1.3318 1.36716 1.4191 1.47082 1.53475 1.5685 1.58315 1.63559 1.68766 1.69587 1.74397 1.76157 1.81663 1.84506 1.87819 1.87913 1.80957 1.61249 1.19037 0.45466 0.0300013 0.000118133 1.2082e-08 8.63883e-13 5.14043e-17 2.31683e-19 -4.63367e-19 2.31683e-19 2.31683e-19 -2.31683e-19 0 0 0 2.31683e-19 -4.63367e-19 4.63367e-19 0 0 0.130668 0.284363 0.395515 0.532619 0.625601 0.759603 0.809577 0.957635 0.984996 1.07175 1.17368 1.16907 1.28101 1.33443 1.35239 1.41624 1.48672 1.52074 1.52778 1.58208 1.64015 1.6404 1.70318 1.72958 1.76151 1.80245 1.83337 1.87193 1.85158 1.74903 1.4786 0.964693 0.234491 0.00770538 1.2028e-05 1.20514e-09 9.70559e-14 -3.82243e-21 0 0 0 2.31683e-19 -2.31683e-19 0 0 0 2.31683e-19 -2.31683e-19 0 0 0 0.130613 0.26503 0.399685 0.498589 0.635419 0.703768 0.837802 0.858537 1.00513 1.0332 1.09551 1.20298 1.26051 1.30991 1.37249 1.41676 1.46975 1.49187 1.51871 1.58795 1.59918 1.6384 1.6929 1.71768 1.76559 1.78449 1.82692 1.85455 1.8063 1.6581 1.31454 0.673218 0.090552 0.00135135 7.45133e-07 9.69757e-11 9.67458e-15 4.6271e-19 -2.31683e-19 2.31683e-19 -2.31683e-19 -2.31683e-19 4.63367e-19 -2.31683e-19 2.31683e-19 -2.31683e-19 -2.31683e-19 6.93947e-19 -6.93947e-19 0 0 0.125402 0.26045 0.37798 0.494387 0.592261 0.710994 0.763564 0.899384 0.891491 1.03909 1.09214 1.16843 1.26102 1.25702 1.36039 1.43372 1.45031 1.45848 1.52772 1.55837 1.57925 1.64115 1.67631 1.70766 1.7642 1.76767 1.82489 1.81705 1.74683 1.52332 1.09394 0.370774 0.0246571 0.000147266 3.34253e-08 5.43272e-12 6.37095e-16 4.63367e-19 -2.31683e-19 0 2.31683e-19 -4.63367e-19 4.63367e-19 0 -2.31683e-19 0 -1.10325e-21 0 1.10325e-21 0 0 0.120177 0.245313 0.360346 0.465635 0.575556 0.664982 0.765271 0.81605 0.958678 0.947815 1.07689 1.14354 1.17266 1.27629 1.32513 1.34271 1.42121 1.46532 1.51353 1.533 1.59379 1.63364 1.65122 1.72281 1.72948 1.77664 1.80267 1.77285 1.64854 1.35366 0.781523 0.148163 0.00444717 8.88424e-06 1.69127e-09 2.7462e-13 1.03304e-17 0 0 0 2.31683e-19 0 -2.31683e-19 0 0 0 -1.10325e-21 -2.3058e-19 4.63367e-19 0 0 0.11681 0.23142 0.349647 0.446909 0.554202 0.640399 0.726338 0.82657 0.876027 0.992806 0.980383 1.1172 1.19573 1.22334 1.30658 1.33465 1.37709 1.45123 1.46819 1.52748 1.58139 1.60644 1.66344 1.69154 1.72458 1.76643 1.76667 1.70453 1.50416 1.1182 0.428609 0.0399803 0.000478731 2.88181e-07 7.50539e-11 1.47642e-14 -1.26937e-21 0 0 2.31683e-19 -4.63367e-19 4.63367e-19 -2.31683e-19 0 -2.31683e-19 4.63367e-19 -4.63367e-19 4.63367e-19 0 0 0 0.11291 0.227974 0.336769 0.437564 0.523633 0.624171 0.712596 0.80293 0.872165 0.906497 1.04314 1.03756 1.17271 1.18682 1.24696 1.33411 1.35661 1.38764 1.45786 1.52556 1.5611 1.60232 1.65362 1.66825 1.71444 1.74353 1.70993 1.59303 1.31768 0.771876 0.162856 0.00673337 2.67949e-05 7.79945e-09 2.23526e-12 4.93287e-16 6.93947e-19 -2.3058e-19 -4.63367e-19 4.63367e-19 -4.63367e-19 0 4.63367e-19 0 -4.63367e-19 4.63367e-19 0 -4.63367e-19 4.63367e-19 0 0 0.112261 0.21934 0.327145 0.414464 0.508085 0.604571 0.706476 0.768378 0.835006 0.920107 0.973989 1.08803 1.077 1.15602 1.24414 1.2856 1.33199 1.34919 1.42441 1.49193 1.54025 1.60071 1.61386 1.65802 1.70235 1.68671 1.62998 1.42337 1.04545 0.387714 0.0390941 0.000638202 6.83295e-07 2.55949e-10 7.13334e-14 -4.57794e-19 6.93947e-19 -6.93947e-19 2.31683e-19 2.31683e-19 0 -4.63367e-19 0 4.63367e-19 0 0 -4.63367e-19 4.62263e-19 -4.62263e-19 0 0 0.106321 0.208193 0.304811 0.398314 0.493476 0.594537 0.671155 0.739391 0.813278 0.904901 0.972384 0.996142 1.08826 1.10749 1.18618 1.27169 1.29904 1.38498 1.39752 1.4452 1.53549 1.55594 1.59768 1.64723 1.65202 1.62683 1.47856 1.20993 0.64621 0.124597 0.00554287 2.73489e-05 1.20923e-08 5.39725e-12 2.13875e-15 2.9235e-23 -4.63367e-19 0 9.2563e-19 -9.2563e-19 0 4.63367e-19 -1.10325e-21 -4.62263e-19 4.63367e-19 -4.63367e-19 4.62263e-19 0 -4.62263e-19 0 0 0.0964361 0.19512 0.292713 0.389614 0.48154 0.561646 0.637889 0.725087 0.810631 0.874237 0.922175 0.989413 1.03401 1.13249 1.1287 1.20715 1.30367 1.36911 1.37509 1.43984 1.47854 1.5341 1.59049 1.60944 1.59406 1.50364 1.29043 0.862249 0.261728 0.0242373 0.000368601 4.99366e-07 2.68897e-10 1.11791e-13 5.09226e-17 4.63367e-19 -1.10325e-21 1.10325e-21 -1.10325e-21 -4.62263e-19 0 4.63367e-19 -1.10325e-21 -4.62263e-19 4.63367e-19 -4.63367e-19 4.62263e-19 -4.62263e-19 4.63367e-19 0 0 0.091231 0.191159 0.289446 0.374427 0.451307 0.532184 0.629998 0.715999 0.782969 0.832483 0.909154 0.973388 1.02778 1.05653 1.14654 1.20317 1.24252 1.31844 1.40085 1.41689 1.45808 1.52755 1.56417 1.55876 1.50342 1.3145 1.01085 0.413555 0.0661178 0.00218974 1.08494e-05 5.88333e-09 4.03632e-12 2.28243e-15 -4.6469e-19 0 4.62263e-19 1.10325e-21 -4.63367e-19 4.63367e-19 -4.63367e-19 4.63367e-19 -4.63367e-19 4.63367e-19 0 -4.63367e-19 0 4.63367e-19 0 0 0 0.096036 0.18991 0.276284 0.354499 0.437102 0.534091 0.616994 0.688178 0.748761 0.829525 0.885988 0.944096 0.982549 1.06893 1.10539 1.18521 1.23725 1.28756 1.33804 1.40264 1.42755 1.47959 1.50568 1.47766 1.32342 1.09437 0.539562 0.129694 0.0073033 0.000101559 9.17205e-08 1.00783e-10 5.68984e-14 5.67327e-21 -4.63367e-19 4.62263e-19 -4.62263e-19 0 4.63367e-19 -4.63367e-19 4.62263e-19 1.10325e-21 -4.63367e-19 4.63367e-19 -4.63367e-19 4.62263e-19 1.10325e-21 -4.63367e-19 4.63367e-19 0 0 0.0920025 0.175467 0.261188 0.349028 0.437607 0.516881 0.593597 0.669909 0.750891 0.802298 0.858267 0.905812 0.992393 1.02922 1.09543 1.14463 1.22641 1.26592 1.29421 1.38416 1.40307 1.41487 1.40579 1.2974 1.11573 0.63327 0.198132 0.0164053 0.000490486 9.17505e-07 1.23223e-09 7.99137e-13 7.80965e-16 4.63393e-19 -4.63367e-19 9.2563e-19 -9.2563e-19 0 4.63367e-19 -4.63367e-19 9.2563e-19 -9.2563e-19 0 4.63367e-19 -4.63367e-19 9.2563e-19 -9.2563e-19 4.62263e-19 -4.62263e-19 0 0 0.0853327 0.172017 0.260313 0.345153 0.419847 0.49928 0.583792 0.663317 0.719381 0.779504 0.833869 0.909864 0.947603 1.02148 1.06172 1.15077 1.17292 1.23307 1.30302 1.32851 1.37158 1.32998 1.23737 1.07895 0.675393 0.248922 0.028612 0.00137315 5.02094e-06 9.08458e-09 7.74816e-12 1.18245e-14 -2.14583e-17 0 4.63367e-19 -4.63367e-19 4.62263e-19 1.10325e-21 -4.63367e-19 4.63367e-19 -4.63367e-19 4.62263e-19 1.10325e-21 -4.63367e-19 4.63367e-19 -4.63367e-19 4.62263e-19 0 -4.62263e-19 0 0 0.0841597 0.167235 0.249212 0.33144 0.413364 0.491149 0.562531 0.627101 0.697091 0.759365 0.822805 0.868741 0.944296 0.992635 1.06675 1.08246 1.17687 1.21366 1.24879 1.2865 1.26164 1.19221 1.02287 0.666369 0.265966 0.0390534 0.00251757 1.73233e-05 4.40862e-08 4.5515e-11 8.97788e-14 -4.55365e-19 4.63367e-19 -4.63367e-19 4.63367e-19 -4.63367e-19 4.62263e-19 1.10325e-21 -4.63367e-19 4.63367e-19 -4.63367e-19 4.62263e-19 1.10325e-21 -4.63367e-19 4.63367e-19 -4.63367e-19 4.62263e-19 -4.62263e-19 4.63367e-19 0 0 0.0814929 0.163403 0.244185 0.323665 0.399512 0.472828 0.546312 0.619518 0.682497 0.741907 0.797352 0.867436 0.918165 0.98055 1.01359 1.10351 1.12111 1.19314 1.18813 1.17316 1.09995 0.956033 0.619586 0.255032 0.0425758 0.00325106 3.63501e-05 1.28368e-07 1.72349e-10 4.08536e-13 3.49615e-16 -9.28057e-19 9.26733e-19 0 0 0 -9.26733e-19 9.26733e-19 0 0 0 -9.26733e-19 9.26733e-19 0 0 0 -9.26733e-19 1.389e-18 -9.2563e-19 0 0 0.0797481 0.157945 0.23599 0.313213 0.389714 0.464039 0.535268 0.600807 0.666102 0.727716 0.788687 0.837939 0.898191 0.94993 1.0225 1.04422 1.10937 1.08667 1.10187 0.98756 0.858001 0.521599 0.22266 0.0373528 0.00322724 4.7022e-05 2.11813e-07 3.91708e-10 1.13164e-12 1.46001e-15 -4.63159e-19 4.62263e-19 -4.62263e-19 4.63367e-19 0 -4.63367e-19 4.62263e-19 -4.62263e-19 4.63367e-19 0 -4.63367e-19 4.62263e-19 -4.62263e-19 4.63367e-19 0 -4.63367e-19 0 4.62263e-19 0 0 0 0.077712 0.154552 0.229735 0.302489 0.374112 0.446721 0.519773 0.589524 0.652008 0.710879 0.767936 0.829093 0.884473 0.939928 0.966622 1.01237 0.994036 0.991397 0.870819 0.743602 0.399802 0.169271 0.0260646 0.00247581 3.61803e-05 2.11531e-07 5.3194e-10 1.86463e-12 3.59795e-15 5.12682e-22 4.62263e-19 0 0 -4.62263e-19 0 4.62263e-19 0 0 -4.62263e-19 0 4.62263e-19 0 0 1.10325e-21 -4.63367e-19 0 9.2563e-19 -1.389e-18 9.2563e-19 0 0 0.0750098 0.148841 0.22192 0.294839 0.367131 0.437845 0.505764 0.570392 0.634632 0.695189 0.755983 0.808579 0.853097 0.884989 0.908979 0.889959 0.861345 0.74383 0.578827 0.282222 0.109021 0.01448 0.00134662 1.71531e-05 1.27929e-07 3.90241e-10 1.86167e-12 5.05829e-15 2.01477e-17 0 4.62815e-19 -4.62815e-19 9.2563e-19 -9.2563e-19 0 4.62815e-19 -4.62815e-19 4.62815e-19 -4.62815e-19 4.62815e-19 0 -4.62815e-19 4.62815e-19 5.51627e-22 -9.26182e-19 1.389e-18 -4.63367e-19 -9.2563e-19 9.2563e-19 0 0 0.0726731 0.144755 0.216061 0.287006 0.35779 0.428674 0.496451 0.560671 0.620227 0.673568 0.721186 0.761882 0.788394 0.795088 0.768927 0.71622 0.581916 0.395372 0.174241 0.0548295 0.0064673 0.00048186 4.95075e-06 4.38333e-08 1.70904e-10 1.12741e-12 3.55765e-15 2.01483e-17 4.62815e-19 0 -4.62815e-19 4.62815e-19 -4.63367e-19 4.63367e-19 0 -4.62815e-19 -5.51627e-22 5.51627e-22 4.62815e-19 -5.51627e-22 0 5.51627e-22 -4.62815e-19 -5.51627e-22 4.62815e-19 0 -9.2563e-19 9.2563e-19 0 0 0 0.0712586 0.142226 0.212821 0.282598 0.350818 0.416967 0.479167 0.536339 0.586449 0.628044 0.659297 0.67222 0.664533 0.626758 0.541015 0.39133 0.226185 0.0852198 0.0202998 0.00199875 9.98725e-05 9.01837e-07 9.00953e-09 4.4879e-11 4.06315e-13 1.46001e-15 -9.26221e-19 9.26733e-19 0 0 -4.63367e-19 4.63367e-19 -4.63367e-19 4.63367e-19 -4.63367e-19 4.63367e-19 -1.10325e-21 1.10325e-21 -4.63367e-19 4.62263e-19 -9.25079e-19 1.38845e-18 -9.2563e-19 4.62263e-19 0 -9.2563e-19 9.2563e-19 9.2563e-19 -1.85126e-18 0 0 0.0688449 0.137097 0.203955 0.268569 0.33017 0.388043 0.440978 0.486636 0.520459 0.538547 0.538514 0.51327 0.446741 0.339106 0.211413 0.0989477 0.0287943 0.00482517 0.00034736 1.06782e-05 8.94694e-08 1.21846e-09 7.59291e-12 8.90796e-14 3.49612e-16 -4.63159e-19 4.62263e-19 -4.62263e-19 4.63367e-19 -4.63367e-19 4.62263e-19 1.10325e-21 -4.63367e-19 4.63367e-19 -4.63367e-19 4.63367e-19 -1.10325e-21 1.10325e-21 -4.63367e-19 4.62263e-19 -9.25079e-19 9.25079e-19 0 0 -9.2563e-19 9.2563e-19 0 0 0 0 0 0.0628951 0.124635 0.183903 0.239314 0.28947 0.332676 0.367079 0.390147 0.396651 0.377127 0.325206 0.247799 0.161527 0.0809934 0.0273596 0.00547389 0.000583802 2.63738e-05 4.88311e-07 5.69119e-09 9.93192e-11 7.77135e-13 1.17825e-14 -4.52724e-19 -1.32375e-21 4.62263e-19 0 -4.62263e-19 4.63367e-19 -4.63367e-19 9.2563e-19 -9.2563e-19 0 4.63367e-19 0 -4.63367e-19 4.62263e-19 -4.62263e-19 4.63367e-19 -9.26733e-19 1.85126e-18 -1.85126e-18 9.2563e-19 0 0 0 0 -9.2563e-19 9.2563e-19 0 0 0.0504524 0.098985 0.14365 0.182514 0.213341 0.232888 0.236764 0.221844 0.189741 0.146024 0.0955753 0.0477445 0.0162765 0.00350711 0.000425508 2.54533e-05 6.60105e-07 1.15728e-08 2.61151e-10 3.92869e-12 5.52935e-14 8.22954e-16 -2.05315e-17 -4.63367e-19 0 4.62263e-19 0 1.10325e-21 -4.63367e-19 4.63367e-19 -4.63367e-19 0 9.2563e-19 -9.2563e-19 4.63367e-19 -9.26733e-19 1.389e-18 -4.63367e-19 -4.62263e-19 4.62263e-19 0 -9.2563e-19 9.2563e-19 0 0 0 0 -9.2563e-19 9.2563e-19 0 0 0.028485 0.0541898 0.0745631 0.0876671 0.0925895 0.0893188 0.0780143 0.0591113 0.0361023 0.0163824 0.00517705 0.00106635 0.000129849 8.32335e-06 2.73217e-07 7.30231e-09 2.45508e-10 5.18231e-12 1.07329e-13 2.28242e-15 5.61489e-21 -4.63341e-19 0 4.63367e-19 0 -4.63367e-19 4.62263e-19 1.10325e-21 -4.63367e-19 4.63367e-19 -4.63367e-19 4.63367e-19 -1.10325e-21 -4.62263e-19 0 4.62263e-19 -4.62263e-19 4.62263e-19 0 0 0 0 0 -9.2563e-19 9.2563e-19 0 -9.2563e-19 9.2563e-19 0 0 0 0.0075283 0.0136324 0.0171096 0.0172722 0.0143184 0.00955937 0.00495393 0.00191131 0.00052342 9.52962e-05 1.05975e-05 6.81635e-07 3.01981e-08 1.54599e-09 7.07494e-11 2.09776e-12 6.71587e-14 2.03597e-15 5.09258e-17 4.61491e-19 -4.62815e-19 4.62815e-19 -4.63367e-19 4.63367e-19 0 0 -9.26182e-19 9.26182e-19 0 -4.62815e-19 4.62815e-19 0 -4.63367e-19 5.51627e-22 4.62263e-19 0 0 -9.2563e-19 9.2563e-19 0 0 0 -9.2563e-19 9.2563e-19 0 0 -9.2563e-19 1.85126e-18 -1.85126e-18 0 0 0.000159739 0.000240425 0.000221082 0.000144076 6.83125e-05 2.33342e-05 5.57086e-06 8.99196e-07 1.01109e-07 9.85662e-09 1.02169e-09 8.66478e-11 4.91325e-12 2.46099e-13 1.37771e-14 4.93275e-16 4.68881e-19 2.27423e-23 -4.62815e-19 -5.51627e-22 4.62815e-19 5.51627e-22 -4.63367e-19 4.63367e-19 0 -4.63367e-19 4.62815e-19 -4.62815e-19 4.63367e-19 -4.62815e-19 4.62815e-19 -4.63367e-19 0 4.62815e-19 0 0 0 0 -9.2563e-19 9.2563e-19 -9.2563e-19 9.2563e-19 0 0 0 -9.25079e-19 9.25079e-19 0 0 0 0 8.25269e-09 1.09081e-08 8.37691e-09 4.59111e-09 1.97821e-09 6.96117e-10 1.93571e-10 3.9775e-11 5.86582e-12 6.87969e-13 7.89607e-14 8.42012e-15 6.17359e-16 9.86957e-18 4.62091e-19 -2.32787e-19 2.32787e-19 -4.63367e-19 9.2563e-19 -1.389e-18 1.389e-18 -9.2563e-19 4.62263e-19 -4.62263e-19 0 4.62263e-19 0 -4.62263e-19 0 9.2563e-19 -9.2563e-19 4.62263e-19 -4.62263e-19 4.62263e-19 0 0 -9.2563e-19 9.2563e-19 9.2563e-19 -1.85126e-18 0 9.2563e-19 9.2563e-19 -1.85126e-18 9.2563e-19 -9.25079e-19 1.85071e-18 -1.85126e-18 9.2563e-19 0 0 5.94555e-14 9.2272e-14 8.9208e-14 6.32142e-14 3.46551e-14 1.50876e-14 5.16621e-15 1.37778e-15 2.05746e-16 5.09473e-17 4.60855e-19 -4.64017e-19 4.63367e-19 -4.63367e-19 4.63367e-19 2.3058e-19 -6.93947e-19 0 9.2563e-19 -9.2563e-19 0 0 9.2563e-19 -9.2563e-19 0 4.62263e-19 0 -4.62263e-19 0 9.2563e-19 -9.2563e-19 4.62263e-19 4.63367e-19 -1.389e-18 9.2563e-19 0 -9.2563e-19 9.2563e-19 9.2563e-19 -1.85126e-18 9.2563e-19 0 -9.25079e-19 9.25079e-19 -9.2563e-19 1.85126e-18 -9.2563e-19 -9.2563e-19 9.2563e-19 0 0 3.22447e-18 6.43729e-19 2.93797e-20 5.65138e-22 -5.80737e-20 1.15848e-19 -1.15838e-19 -1.15842e-19 3.47525e-19 -2.31683e-19 0 2.31683e-19 -2.31683e-19 0 0 0 -2.31683e-19 9.2563e-19 -9.2563e-19 4.63367e-19 -4.63367e-19 4.63367e-19 -4.63367e-19 4.63367e-19 0 -4.63367e-19 4.62263e-19 -4.62263e-19 4.63367e-19 -4.63367e-19 4.63367e-19 -4.63367e-19 4.62263e-19 0 -9.2563e-19 9.2563e-19 9.2563e-19 -9.2563e-19 -9.2563e-19 9.2563e-19 0 0 -9.25079e-19 9.25079e-19 0 0 -9.2563e-19 9.2563e-19 0 0 0 0 -1.43423e-20 2.97879e-20 0 -5.79208e-20 0 1.15842e-19 0 -1.15842e-19 0 0 2.31683e-19 -4.63367e-19 4.63367e-19 -2.31683e-19 0 2.31683e-19 -1.10325e-21 -4.62263e-19 4.63367e-19 -4.63367e-19 4.63367e-19 -4.63367e-19 4.63367e-19 0 0 -9.26733e-19 1.389e-18 -9.2563e-19 4.62263e-19 -4.62263e-19 0 4.62263e-19 0 0 -9.2563e-19 1.85126e-18 -1.85126e-18 9.2563e-19 0 0 -9.2563e-19 9.2563e-19 0 0 0 -9.2563e-19 1.85126e-18 -1.85126e-18 0 0 0 -2.8133e-20 5.79208e-20 -5.79208e-20 0 1.15842e-19 -1.1529e-19 2.31132e-19 -4.62815e-19 2.31132e-19 5.51627e-22 2.31132e-19 -2.31683e-19 2.31683e-19 -4.62815e-19 4.62815e-19 0 -9.26182e-19 9.26182e-19 -4.62815e-19 4.62263e-19 5.51627e-22 -4.62815e-19 4.62815e-19 0 -4.62815e-19 4.62263e-19 0 0 -9.25079e-19 9.25079e-19 0 0 0 0 -9.2563e-19 0 9.2563e-19 0 0 -9.25079e-19 9.25079e-19 0 0 0 -9.25079e-19 9.25079e-19 0 0 0 0 0 2.97879e-20 -5.79208e-20 0 1.15842e-19 -1.15842e-19 5.51627e-22 -5.51627e-22 5.51627e-22 2.31132e-19 -2.31132e-19 -2.32235e-19 4.63367e-19 0 -4.62815e-19 -5.51627e-22 4.63367e-19 -4.62815e-19 4.62815e-19 -4.62815e-19 9.2563e-19 -9.26182e-19 4.62815e-19 -4.62815e-19 0 4.62815e-19 0 -4.62263e-19 9.2563e-19 -1.38845e-18 9.25079e-19 0 -9.2563e-19 1.85126e-18 -1.85126e-18 9.2563e-19 -9.2563e-19 1.85126e-18 -1.85126e-18 9.2563e-19 -9.25079e-19 9.25079e-19 9.2563e-19 -1.85126e-18 9.2563e-19 -9.25079e-19 1.85071e-18 -1.85126e-18 9.2563e-19 0 0 0 1.65488e-21 0 -5.79208e-20 1.15842e-19 -1.15842e-19 1.15842e-19 -3.47525e-19 4.63367e-19 -2.31683e-19 2.31683e-19 -4.63367e-19 4.63367e-19 -2.31683e-19 2.31683e-19 -4.63367e-19 0 9.2563e-19 -9.2563e-19 4