<?xml version="1.0"?>
<VTKFile type="PolyData">
	<PolyData>
		<Piece NumberOfPoints="2601" NumberOfPolys="2500">
			<Points>
				<DataArray type="Float32" NumberOfComponents="3" format="ascii">
 0 0 0 0.267337 0 0 0.230339 0 0 0.275278 0 0 0.287788 0 0 0.305634 0 0 0.322221 0 0 0.333982 0 0 0.347146 0 0 0.355732 0 0 0.365565 0 0 0.372943 0 0 0.380451 0 0 0.386562 0 0 0.393011 0 0 0.398632 0 0 0.403721 0 0 0.408227 0 0 0.412318 0 0 0.416225 0 0 0.421083 0 0 0.428588 0 0 0.441362 0 0 0.460021 0 0 0.48 0 0 0.5 0 0 0.52 0 0 0.54 0 0 0.56 0 0 0.58 0 0 0.6 0 0 0.62 0 0 0.64 0 0 0.66 0 0 0.68 0 0 0.7 0 0 0.72 0 0 0.74 0 0 0.76 0 0 0.78 0 0 0.8 0 0 0.82 0 0 0.84 0 0 0.86 0 0 0.88 0 0 0.9 0 0 0.92 0 0 0.94 0 0 0.96 0 0 0.98 0 0 1 0 0 0 0.267337 0 0.139956 0.139956 0 0.251441 0.110425 0 0.252816 0.0978071 0 0.284365 0.0716436 0 0.302769 0.0634936 0 0.317365 0.0565032 0 0.332833 0.0512232 0 0.342976 0.0466605 0 0.354673 0.042737 0 0.362985 0.039143 0 0.371969 0.0360441 0 0.378867 0.0333816 0 0.385677 0.0311516 0 0.391937 0.0292787 0 0.397774 0.0275791 0 0.402944 0.0260322 0 0.407543 0.0246009 0 0.41169 0.0232923 0 0.41569 0.0221259 0 0.420653 0.0211558 0 0.428304 0.0204453 0 0.44127 0.0200871 0 0.460019 0.0200025 0 0.48 0.02 0 0.5 0.02 0 0.52 0.02 0 0.54 0.02 0 0.56 0.02 0 0.58 0.02 0 0.6 0.02 0 0.62 0.02 0 0.64 0.02 0 0.66 0.02 0 0.68 0.02 0 0.7 0.02 0 0.72 0.02 0 0.74 0.02 0 0.76 0.02 0 0.78 0.02 0 0.8 0.02 0 0.82 0.02 0 0.84 0.02 0 0.86 0.02 0 0.88 0.02 0 0.9 0.02 0 0.92 0.02 0 0.94 0.02 0 0.96 0.02 0 0.98 0.02 0 1 0.02 0 0 0.230339 0 0.110425 0.251441 0 0.159974 0.159974 0 0.238579 0.1628 0 0.26393 0.139178 0 0.287537 0.121343 0 0.307659 0.109423 0 0.32164 0.0999021 0 0.336564 0.0912881 0 0.346979 0.0836144 0 0.35853 0.0768852 0 0.366885 0.0709798 0 0.375306 0.0658745 0 0.382466 0.0616809 0 0.389153 0.0580174 0 0.395129 0.0547423 0 0.400677 0.0517088 0 0.40549 0.0489001 0 0.409863 0.0463299 0 0.414113 0.0440523 0 0.419391 0.0421647 0 0.42748 0.0408035 0 0.441023 0.0401461 0 0.460013 0.0400035 0 0.48 0.04 0 0.5 0.04 0 0.52 0.04 0 0.54 0.04 0 0.56 0.04 0 0.58 0.04 0 0.6 0.04 0 0.62 0.04 0 0.64 0.04 0 0.66 0.04 0 0.68 0.04 0 0.7 0.04 0 0.72 0.04 0 0.74 0.04 0 0.76 0.04 0 0.78 0.04 0 0.8 0.04 0 0.82 0.04 0 0.84 0.04 0 0.86 0.04 0 0.88 0.04 0 0.9 0.04 0 0.92 0.04 0 0.94 0.04 0 0.96 0.04 0 0.98 0.04 0 1 0.04 0 0 0.275278 0 0.0978071 0.252816 0 0.1628 0.238579 0 0.179164 0.179164 0 0.233479 0.192871 0 0.268133 0.167349 0 0.289299 0.155725 0 0.309538 0.142344 0 0.3237 0.131542 0 0.338761 0.121121 0 0.349534 0.112097 0 0.360523 0.103932 0 0.36902 0.0970934 0 0.377619 0.0911384 0 0.38447 0.0858895 0 0.39107 0.0811162 0 0.396883 0.0767009 0 0.402216 0.0726135 0 0.406915 0.0688875 0 0.411587 0.0655964 0 0.417382 0.0629014 0 0.426205 0.0610067 0 0.440697 0.0601598 0 0.460006 0.0600026 0 0.48 0.06 0 0.5 0.06 0 0.52 0.06 0 0.54 0.06 0 0.56 0.06 0 0.58 0.06 0 0.6 0.06 0 0.62 0.06 0 0.64 0.06 0 0.66 0.06 0 0.68 0.06 0 0.7 0.06 0 0.72 0.06 0 0.74 0.06 0 0.76 0.06 0 0.78 0.06 0 0.8 0.06 0 0.82 0.06 0 0.84 0.06 0 0.86 0.06 0 0.88 0.06 0 0.9 0.06 0 0.92 0.06 0 0.94 0.06 0 0.96 0.06 0 0.98 0.06 0 1 0.06 0 0 0.287788 0 0.0716436 0.284365 0 0.139178 0.26393 0 0.192871 0.233479 0 0.201382 0.201382 0 0.241478 0.21137 0 0.272671 0.18816 0 0.292469 0.179443 0 0.311967 0.165707 0 0.326022 0.155155 0 0.340485 0.144145 0 0.351054 0.135037 0 0.361783 0.126544 0 0.370331 0.119276 0 0.378487 0.112504 0 0.385548 0.106433 0 0.391895 0.100699 0 0.397826 0.0955347 0 0.402983 0.0907724 0 0.408228 0.0866264 0 0.414765 0.0832735 0 0.424635 0.081026 0 0.440389 0.0801296 0 0.460002 0.0800013 0 0.48 0.08 0 0.5 0.08 0 0.52 0.08 0 0.54 0.08 0 0.56 0.08 0 0.58 0.08 0 0.6 0.08 0 0.62 0.08 0 0.64 0.08 0 0.66 0.08 0 0.68 0.08 0 0.7 0.08 0 0.72 0.08 0 0.74 0.08 0 0.76 0.08 0 0.78 0.08 0 0.8 0.08 0 0.82 0.08 0 0.84 0.08 0 0.86 0.08 0 0.88 0.08 0 0.9 0.08 0 0.92 0.08 0 0.94 0.08 0 0.96 0.08 0 0.98 0.08 0 1 0.08 0 0 0.305634 0 0.0634936 0.302769 0 0.121343 0.287537 0 0.167349 0.268133 0 0.21137 0.241478 0 0.221383 0.221383 0 0.252525 0.224496 0 0.277757 0.204731 0 0.29612 0.197419 0 0.314516 0.18362 0 0.327924 0.174019 0 0.341791 0.163061 0 0.352152 0.154223 0 0.362348 0.145305 0 0.371014 0.137666 0 0.379 0.130279 0 0.385942 0.123608 0 0.392486 0.117474 0 0.398197 0.111895 0 0.404168 0.107053 0 0.411711 0.103241 0 0.423 0.100875 0 0.44017 0.100077 0 0.460001 0.1 0 0.48 0.1 0 0.5 0.1 0 0.52 0.1 0 0.54 0.1 0 0.56 0.1 0 0.58 0.1 0 0.6 0.1 0 0.62 0.1 0 0.64 0.1 0 0.66 0.1 0 0.68 0.1 0 0.7 0.1 0 0.72 0.1 0 0.74 0.1 0 0.76 0.1 0 0.78 0.1 0 0.8 0.1 0 0.82 0.1 0 0.84 0.1 0 0.86 0.1 0 0.88 0.1 0 0.9 0.1 0 0.92 0.1 0 0.94 0.1 0 0.96 0.1 0 0.98 0.1 0 1 0.1 0 0 0.322221 0 0.0565032 0.317365 0 0.109423 0.307659 0 0.155725 0.289299 0 0.18816 0.272671 0 0.224496 0.252525 0 0.23755 0.23755 0 0.261678 0.235781 0 0.282966 0.218018 0 0.299832 0.212022 0 0.317088 0.198117 0 0.3298 0.18952 0 0.342828 0.178356 0 0.352938 0.169732 0 0.363045 0.1607 0 0.371377 0.152774 0 0.379342 0.145233 0 0.386248 0.138411 0 0.392721 0.132164 0 0.399577 0.126861 0 0.408421 0.12281 0 0.421594 0.120613 0 0.440055 0.120032 0 0.46 0.12 0 0.48 0.12 0 0.5 0.12 0 0.52 0.12 0 0.54 0.12 0 0.56 0.12 0 0.58 0.12 0 0.6 0.12 0 0.62 0.12 0 0.64 0.12 0 0.66 0.12 0 0.68 0.12 0 0.7 0.12 0 0.72 0.12 0 0.74 0.12 0 0.76 0.12 0 0.78 0.12 0 0.8 0.12 0 0.82 0.12 0 0.84 0.12 0 0.86 0.12 0 0.88 0.12 0 0.9 0.12 0 0.92 0.12 0 0.94 0.12 0 0.96 0.12 0 0.98 0.12 0 1 0.12 0 0 0.333982 0 0.0512232 0.332833 0 0.0999021 0.32164 0 0.142344 0.309538 0 0.179443 0.292469 0 0.204731 0.277757 0 0.235781 0.261678 0 0.250164 0.250164 0 0.270208 0.24563 0 0.288538 0.229219 0 0.303828 0.22389 0 0.319588 0.20975 0 0.331493 0.20195 0 0.344028 0.190859 0 0.353824 0.182472 0 0.363513 0.173473 0 0.371825 0.165719 0 0.379423 0.158185 0 0.386669 0.151592 0 0.394727 0.146023 0 0.405205 0.142087 0 0.42065 0.140327 0 0.440013 0.140009 0 0.46 0.14 0 0.48 0.14 0 0.5 0.14 0 0.52 0.14 0 0.54 0.14 0 0.56 0.14 0 0.58 0.14 0 0.6 0.14 0 0.62 0.14 0 0.64 0.14 0 0.66 0.14 0 0.68 0.14 0 0.7 0.14 0 0.72 0.14 0 0.74 0.14 0 0.76 0.14 0 0.78 0.14 0 0.8 0.14 0 0.82 0.14 0 0.84 0.14 0 0.86 0.14 0 0.88 0.14 0 0.9 0.14 0 0.92 0.14 0 0.94 0.14 0 0.96 0.14 0 0.98 0.14 0 1 0.14 0 0 0.347146 0 0.0466605 0.342976 0 0.0912881 0.336564 0 0.131542 0.3237 0 0.165707 0.311967 0 0.197419 0.29612 0 0.218018 0.282966 0 0.24563 0.270208 0 0.260195 0.260195 0 0.278184 0.253361 0 0.293973 0.238588 0 0.307968 0.233054 0 0.322316 0.219263 0 0.333525 0.212096 0 0.345218 0.201206 0 0.354846 0.19329 0 0.363969 0.184507 0 0.372113 0.176992 0 0.380406 0.170084 0 0.389896 0.164656 0 0.402564 0.161249 0 0.420189 0.160122 0 0.440002 0.160002 0 0.46 0.16 0 0.48 0.16 0 0.5 0.16 0 0.52 0.16 0 0.54 0.16 0 0.56 0.16 0 0.58 0.16 0 0.6 0.16 0 0.62 0.16 0 0.64 0.16 0 0.66 0.16 0 0.68 0.16 0 0.7 0.16 0 0.72 0.16 0 0.74 0.16 0 0.76 0.16 0 0.78 0.16 0 0.8 0.16 0 0.82 0.16 0 0.84 0.16 0 0.86 0.16 0 0.88 0.16 0 0.9 0.16 0 0.92 0.16 0 0.94 0.16 0 0.96 0.16 0 0.98 0.16 0 1 0.16 0 0 0.355732 0 0.042737 0.354673 0 0.0836144 0.346979 0 0.121121 0.338761 0 0.155155 0.326022 0 0.18362 0.314516 0 0.212022 0.299832 0 0.229219 0.288538 0 0.253361 0.278184 0 0.268372 0.268372 0 0.284718 0.259292 0 0.298961 0.246656 0 0.312252 0.240547 0 0.324945 0.227351 0 0.335788 0.220641 0 0.346597 0.210251 0 0.355703 0.202551 0 0.364817 0.194426 0 0.374262 0.187951 0 0.385543 0.182954 0 0.400921 0.180559 0 0.420036 0.180028 0 0.44 0.18 0 0.46 0.18 0 0.48 0.18 0 0.5 0.18 0 0.52 0.18 0 0.54 0.18 0 0.56 0.18 0 0.58 0.18 0 0.6 0.18 0 0.62 0.18 0 0.64 0.18 0 0.66 0.18 0 0.68 0.18 0 0.7 0.18 0 0.72 0.18 0 0.74 0.18 0 0.76 0.18 0 0.78 0.18 0 0.8 0.18 0 0.82 0.18 0 0.84 0.18 0 0.86 0.18 0 0.88 0.18 0 0.9 0.18 0 0.92 0.18 0 0.94 0.18 0 0.96 0.18 0 0.98 0.18 0 1 0.18 0 0 0.365565 0 0.039143 0.362985 0 0.0768852 0.35853 0 0.112097 0.349534 0 0.144145 0.340485 0 0.174019 0.327924 0 0.198117 0.317088 0 0.22389 0.303828 0 0.238588 0.293973 0 0.259292 0.284718 0 0.275136 0.275136 0 0.290407 0.264893 0 0.30296 0.253552 0 0.315962 0.246876 0 0.327487 0.234789 0 0.337787 0.228005 0 0.347904 0.218415 0 0.357702 0.21152 0 0.368653 0.205196 0 0.382345 0.201471 0 0.400219 0.200161 0 0.420004 0.200004 0 0.44 0.2 0 0.46 0.2 0 0.48 0.2 0 0.5 0.2 0 0.52 0.2 0 0.54 0.2 0 0.56 0.2 0 0.58 0.2 0 0.6 0.2 0 0.62 0.2 0 0.64 0.2 0 0.66 0.2 0 0.68 0.2 0 0.7 0.2 0 0.72 0.2 0 0.74 0.2 0 0.76 0.2 0 0.78 0.2 0 0.8 0.2 0 0.82 0.2 0 0.84 0.2 0 0.86 0.2 0 0.88 0.2 0 0.9 0.2 0 0.92 0.2 0 0.94 0.2 0 0.96 0.2 0 0.98 0.2 0 1 0.2 0 0 0.372943 0 0.0360441 0.371969 0 0.0709798 0.366885 0 0.103932 0.360523 0 0.135037 0.351054 0 0.163061 0.341791 0 0.18952 0.3298 0 0.20975 0.319588 0 0.233054 0.307968 0 0.246656 0.298961 0 0.264893 0.290407 0 0.280398 0.280398 0 0.295015 0.270211 0 0.306504 0.259873 0 0.319047 0.252665 0 0.329502 0.241695 0 0.340162 0.235157 0 0.351256 0.227505 0 0.364125 0.222835 0 0.380664 0.220478 0 0.400032 0.220027 0 0.42 0.22 0 0.44 0.22 0 0.46 0.22 0 0.48 0.22 0 0.5 0.22 0 0.52 0.22 0 0.54 0.22 0 0.56 0.22 0 0.58 0.22 0 0.6 0.22 0 0.62 0.22 0 0.64 0.22 0 0.66 0.22 0 0.68 0.22 0 0.7 0.22 0 0.72 0.22 0 0.74 0.22 0 0.76 0.22 0 0.78 0.22 0 0.8 0.22 0 0.82 0.22 0 0.84 0.22 0 0.86 0.22 0 0.88 0.22 0 0.9 0.22 0 0.92 0.22 0 0.94 0.22 0 0.96 0.22 0 0.98 0.22 0 1 0.22 0 0 0.380451 0 0.0333816 0.378867 0 0.0658745 0.375306 0 0.0970934 0.36902 0 0.126544 0.361783 0 0.154223 0.352152 0 0.178356 0.342828 0 0.20195 0.331493 0 0.219263 0.322316 0 0.240547 0.312252 0 0.253552 0.30296 0 0.270211 0.295015 0 0.284854 0.284854 0 0.298822 0.27528 0 0.309411 0.265394 0 0.321895 0.258359 0 0.332918 0.249525 0 0.34584 0.244515 0 0.361319 0.240962 0 0.380118 0.240102 0 0.400002 0.240002 0 0.42 0.24 0 0.44 0.24 0 0.46 0.24 0 0.48 0.24 0 0.5 0.24 0 0.52 0.24 0 0.54 0.24 0 0.56 0.24 0 0.58 0.24 0 0.6 0.24 0 0.62 0.24 0 0.64 0.24 0 0.66 0.24 0 0.68 0.24 0 0.7 0.24 0 0.72 0.24 0 0.74 0.24 0 0.76 0.24 0 0.78 0.24 0 0.8 0.24 0 0.82 0.24 0 0.84 0.24 0 0.86 0.24 0 0.88 0.24 0 0.9 0.24 0 0.92 0.24 0 0.
[...]
			<PointData Scalars="VitesseX">
				<DataArray Name="VitesseX" type="Float32" format="ascii">
 0 2.38393 1.6712 2.08632 1.96266 2.22473 2.20828 2.34073 2.4824 2.50242 2.61116 2.69651 2.8985 2.93261 2.82071 2.97953 3.10896 3.13613 3.28124 3.19922 2.85798 2.04892 0.681942 0.0200747 4.33809e-06 2.06627e-11 -1.07547e-12 1.07013e-12 -3.62842e-12 3.62842e-12 -1.07013e-12 1.07557e-12 -2.52292e-18 -1.07556e-12 1.07014e-12 -3.62842e-12 3.62842e-12 -1.07013e-12 1.07396e-12 -1.07396e-12 1.07013e-12 -3.62842e-12 3.63001e-12 5.44748e-15 -5.45133e-15 -3.63001e-12 3.62457e-12 -3.62457e-12 3.63001e-12 5.45129e-15 0 0 0.628101 2.05543 1.57828 1.98944 2.14609 2.22842 2.3465 2.44806 2.51878 2.56685 2.74426 2.85256 2.90469 2.85558 2.9562 3.10545 3.13866 3.27068 3.18589 2.83738 2.0179 0.646589 0.0177646 3.60698e-06 1.83527e-11 -1.07457e-12 1.0706e-12 -3.62884e-12 3.62881e-12 -1.07165e-12 1.07704e-12 -1.31565e-15 -1.07465e-12 1.07057e-12 -3.62882e-12 3.62882e-12 -1.07167e-12 1.0759e-12 -1.0759e-12 1.07165e-12 -3.6288e-12 3.62865e-12 5.40441e-15 -4.06463e-15 -3.62997e-12 3.6273e-12 -3.6273e-12 3.62998e-12 4.0939e-15 0 0 0.953609 0.734066 1.71239 1.76241 2.01532 2.13429 2.30644 2.39891 2.42218 2.57785 2.7252 2.77932 2.82088 2.93595 2.90626 3.09889 3.13038 3.24602 3.14478 2.7743 1.92303 0.546568 0.0122262 2.06376e-06 1.26839e-11 1.27947e-12 5.324e-13 -3.62783e-12 1.81457e-12 1.28106e-12 -1.27835e-12 1.81459e-12 -5.36452e-13 -1.28089e-12 -1.81457e-12 1.81156e-12 1.28384e-12 -1.28058e-12 1.28069e-12 -1.28098e-12 -1.81454e-12 3.62866e-12 -1.81234e-12 -2.63249e-15 3.77826e-15 -1.03866e-14 1.04177e-14 -3.79062e-15 2.69013e-15 0 0 0.91272 1.30226 0.902151 1.4706 1.82093 2.02912 2.20998 2.30529 2.4072 2.52847 2.70692 2.6711 2.80192 2.92391 2.9128 3.06031 3.10791 3.20947 3.07826 2.66303 1.75665 0.401656 0.00641928 8.02432e-07 6.59831e-12 1.22205e-15 -3.14728e-15 -1.81317e-12 1.81498e-12 2.69316e-15 -1.2579e-15 -5.20322e-16 4.103e-16 -1.34111e-15 -1.8153e-12 1.81224e-12 -5.3131e-12 5.31656e-12 2.18541e-15 -2.63784e-15 -1.81506e-12 1.81461e-12 -9.21781e-16 9.77089e-17 -5.31479e-12 5.30934e-12 -5.30928e-12 5.31336e-12 2.73666e-15 0 0 0.4988 1.03611 1.50937 1.23339 1.52953 1.90904 2.09596 2.23157 2.35396 2.50475 2.56393 2.67359 2.76417 2.83676 2.95413 2.985 3.08376 3.14989 2.98863 2.49878 1.50157 0.246295 0.00249478 2.10047e-07 2.49546e-12 -7.93829e-17 -1.81535e-12 3.37501e-16 1.81476e-12 3.54048e-16 1.23853e-15 -1.81644e-12 1.81504e-12 -3.91687e-16 -1.81487e-12 1.81125e-12 -5.31467e-12 5.31719e-12 1.58053e-15 -6.13463e-16 -1.81463e-12 -6.08746e-16 1.81425e-12 -1.21905e-15 -5.31583e-12 5.31313e-12 -7.12813e-12 7.13082e-12 2.81949e-15 0 0 0.460425 0.881261 1.12188 1.60902 1.45785 1.78301 1.9794 2.15695 2.27502 2.37106 2.50949 2.64682 2.72393 2.75728 2.95828 2.90307 3.06094 3.05805 2.8611 2.28115 1.14649 0.1195 0.000686788 3.83738e-08 6.79552e-13 1.80695e-12 8.8821e-15 -1.82393e-12 7.69707e-15 1.81527e-12 -1.8217e-12 1.82265e-12 -8.9448e-15 -1.80748e-12 4.68455e-16 -1.06277e-14 1.82532e-12 -1.82398e-12 1.82419e-12 -1.81547e-12 -7.49285e-15 1.82263e-12 -1.82128e-12 3.94793e-15 1.81768e-12 -1.82169e-12 1.81903e-12 -1.81403e-12 1.89707e-15 0 0 0.412104 0.771337 1.1396 1.24676 1.72008 1.65449 1.89984 2.05265 2.14716 2.29184 2.46135 2.61183 2.62755 2.77331 2.84626 2.88654 3.00005 2.95205 2.66209 1.98874 0.729325 0.043233 0.000125246 5.55111e-09 1.3361e-13 1.81458e-12 -1.05617e-11 1.05616e-11 -1.8161e-12 7.85999e-15 1.80832e-12 -1.0562e-11 1.05619e-11 -1.81608e-12 7.78671e-15 1.80579e-12 -1.23756e-11 1.23769e-11 -1.80709e-12 -7.81791e-15 1.81609e-12 -1.05631e-11 1.05632e-11 -4.03442e-15 -1.80478e-12 -1.41014e-14 1.82674e-12 -1.81779e-12 5.68547e-15 0 0 0.379305 0.754398 1.05013 1.31575 1.42162 1.75256 1.89035 1.91281 2.06928 2.26946 2.41886 2.48043 2.62401 2.70014 2.75702 2.87069 2.90681 2.79961 2.39941 1.55684 0.355935 0.0109393 1.3717e-05 6.86892e-10 1.91722e-14 -1.05621e-11 1.71701e-15 -1.75697e-15 1.05606e-11 -1.80711e-12 1.80705e-12 -1.05606e-11 7.09563e-17 1.05619e-11 -1.82291e-12 1.82167e-12 -1.239e-11 1.23885e-11 -1.81096e-12 1.81219e-12 -1.05605e-11 -7.75623e-15 1.0563e-11 -2.77457e-15 -1.2369e-11 1.23614e-11 -1.23611e-11 1.2361e-11 2.47157e-14 0 0 0.358891 0.693988 0.991118 1.22724 1.47845 1.57631 1.82162 1.9934 2.08299 2.20209 2.31901 2.45162 2.55728 2.62516 2.71426 2.82347 2.79166 2.57399 2.06443 0.986584 0.12261 0.00177075 8.22811e-07 6.21765e-11 -9.66118e-16 -1.0562e-11 1.57281e-15 -1.6823e-15 1.0554e-11 -1.80067e-12 -7.72576e-15 1.81614e-12 -1.05618e-11 -4.21983e-17 1.05551e-11 -1.23766e-11 1.23763e-11 -1.23777e-11 1.05656e-11 3.62331e-12 -1.23739e-11 -1.04668e-16 -1.8216e-12 1.23846e-11 -1.05737e-11 1.23769e-11 -2.47442e-11 2.47443e-11 -1.23586e-11 0 0 0.331191 0.627256 0.929975 1.18616 1.38805 1.57776 1.65615 2.02662 2.03046 2.1805 2.30984 2.44315 2.50793 2.54508 2.71669 2.72165 2.6348 2.28687 1.56303 0.450324 0.0274004 0.000160161 2.9344e-08 3.23025e-12 -6.37068e-15 1.81619e-12 -1.05645e-11 1.2265e-15 8.73246e-12 1.83593e-12 -1.83073e-12 7.7818e-15 1.80967e-12 -1.0563e-11 7.72576e-15 -1.71699e-14 1.23749e-11 -1.23672e-11 1.05473e-11 -1.05563e-11 1.04495e-14 -9.30323e-15 9.33143e-15 -1.27455e-15 1.23772e-11 -1.23852e-11 9.50161e-15 -3.11768e-17 1.16185e-16 0 0 0.302095 0.596708 0.884452 1.14127 1.33066 1.50172 1.76833 1.82593 2.07264 2.11157 2.26223 2.39017 2.45121 2.58527 2.62975 2.63297 2.37406 1.90921 0.895762 0.133067 0.00359326 6.66607e-06 1.08002e-09 -1.68279e-12 4.31563e-16 -6.63333e-15 3.6258e-12 -1.41945e-11 1.23754e-11 -1.0555e-11 1.05547e-11 -1.23699e-11 1.23623e-11 1.81362e-12 -2.47455e-11 2.47468e-11 -1.23876e-11 1.71329e-14 1.23612e-11 -2.47377e-11 1.23778e-11 1.23599e-11 -1.23598e-11 9.77599e-15 -1.03442e-15 -1.01569e-16 1.23513e-11 -2.47378e-11 2.47566e-11 0 0 0.293002 0.577187 0.843322 1.07185 1.28257 1.51796 1.68431 1.84796 1.96459 2.08725 2.26116 2.29352 2.46859 2.55069 2.56325 2.394 2.07928 1.28458 0.335179 0.0233869 0.000223868 1.18648e-07 3.39025e-11 -1.81251e-12 5.74072e-15 -2.13116e-14 3.63998e-12 -3.64418e-12 -8.73788e-12 9.76719e-15 -7.43228e-15 7.47432e-15 -1.01158e-14 -8.99712e-15 1.91136e-14 -1.49034e-14 6.14923e-15 -2.46293e-14 2.501e-14 8.36186e-15 -8.98031e-15 1.23695e-11 -1.23847e-11 2.55358e-14 -1.03469e-15 -6.1158e-16 1.23515e-11 -1.23844e-11 2.52016e-14 0 0 0.275681 0.527985 0.770466 1.0212 1.27883 1.45893 1.64561 1.75674 1.97878 2.04676 2.09108 2.34646 2.4229 2.46202 2.39652 2.11898 1.54295 0.574314 0.0755666 0.00197465 5.51236e-06 1.77619e-09 -1.18361e-11 1.23704e-11 5.26779e-15 -2.0258e-14 -3.15458e-11 3.15393e-11 -1.05424e-11 1.23693e-11 -1.23744e-11 -2.09898e-11 2.09868e-11 1.55603e-16 1.23773e-11 -1.23744e-11 -2.09986e-11 3.33491e-11 -1.2344e-11 1.23682e-11 -1.23685e-11 -2.10045e-11 3.33673e-11 -1.23622e-11 1.2368e-11 -1.23687e-11 -2.10044e-11 3.33581e-11 -2.47379e-11 0 0 0.247824 0.488731 0.742016 1.00033 1.20907 1.402 1.56545 1.7874 1.82442 1.99771 2.12831 2.18845 2.35533 2.31426 2.07352 1.69883 0.763003 0.159546 0.0077142 7.36672e-05 4.35526e-08 3.83844e-11 -1.05364e-11 -1.01488e-14 -1.10119e-17 1.23633e-11 -3.33751e-11 3.33671e-11 -1.23547e-11 -1.70905e-14 1.23809e-11 -3.33763e-11 3.33672e-11 -1.23627e-11 -9.21685e-15 1.23718e-11 -3.33676e-11 3.33584e-11 -1.2344e-11 -1.83205e-14 1.23809e-11 -3.33673e-11 3.3358e-11 2.50404e-14 -1.23968e-11 5.43588e-15 -2.09842e-11 -8.2823e-15 2.1006e-11 0 0 0.237851 0.48079 0.722446 0.943991 1.15759 1.35895 1.54675 1.64009 1.83731 1.89375 2.0885 2.13896 2.08837 2.01016 1.70432 0.856255 0.252747 0.01738 0.00042099 5.80439e-07 4.87323e-10 -1.60774e-12 -8.72958e-12 -7.5325e-15 -9.10288e-15 -6.71178e-15 1.23752e-11 -1.23753e-11 -2.89561e-15 1.84775e-14 -1.56962e-14 1.23847e-11 -1.23845e-11 -2.99113e-15 1.85196e-14 -2.48403e-14 1.53997e-14 -1.53891e-14 2.48094e-14 -3.42712e-14 1.23966e-11 -7.30048e-17 -1.23873e-11 2.38975e-14 3.07487e-16 -3.76009e-14 -2.0959e-11 -1.53709e-15 3.33686e-11 0 0 0.2342 0.457634 0.682096 0.92149 1.13908 1.31189 1.44688 1.6409 1.7433 1.93586 1.88596 1.97257 1.81241 1.54679 0.875832 0.301172 0.0274823 0.0012897 3.1528e-06 4.16995e-09 1.32866e-11 -1.23675e-11 1.80728e-12 1.23704e-11 -9.05941e-15 -2.4738e-11 2.47376e-11 -2.47375e-11 2.47376e-11 -1.23597e-11 3.05429e-17 1.23595e-11 -2.47375e-11 2.47376e-11 -1.23664e-11 6.75028e-15 -3.43449e-14 2.53479e-14 9.00751e-15 1.23434e-11 -3.33486e-11 3.33663e-11 -1.23868e-11 2.37733e-14 -2.10038e-11 3.33422e-11 -3.33578e-11 3.339e-11 -2.20201e-14 0 0 0.22666 0.452632 0.672039 0.869614 1.05127 1.23459 1.42689 1.56774 1.71083 1.72374 1.78643 1.56861 1.40745 0.742126 0.284527 0.0333558 0.00207219 8.82897e-06 2.23615e-08 7.06852e-12 4.03131e-14 -1.68479e-14 1.2386e-11 -1.23857e-11 1.26776e-16 -6.80627e-15 1.23753e-11 -1.23752e-11 1.57626e-14 9.53343e-15 -9.64958e-15 -1.86878e-14 1.87727e-14 -1.88823e-16 -6.87742e-15 -2.09983e-11 3.33327e-11 4.0669e-14 -2.47471e-11 2.47309e-11 -3.33509e-11 -7.60318e-15 3.33651e-11 -2.25207e-14 -3.33336e-11 3.33178e-11 4.77484e-14 -3.33893e-11 3.33911e-11 0 0 0.216278 0.429336 0.634415 0.832983 1.02364 1.20268 1.34766 1.47852 1.52395 1.53524 1.37727 1.15522 0.562506 0.227687 0.0257601 0.00205999 1.43829e-05 5.08302e-08 3.47261e-11 1.42959e-11 -2.47444e-11 2.47475e-11 -1.2369e-11 -8.89355e-15 -6.1455e-17 1.23621e-11 -3.33673e-11 3.33672e-11 -1.23529e-11 9.69209e-15 -9.78814e-15 -1.86343e-14 1.86774e-14 -1.23783e-11 2.47308e-11 -3.33739e-11 3.33668e-11 -3.33518e-11 2.09892e-11 1.23442e-11 1.61242e-14 -3.33647e-11 2.20816e-14 3.33428e-11 1.08594e-15 -2.02369e-15 -3.33416e-11 3.52827e-15 -1.78463e-15 0 0 0.209821 0.413533 0.608882 0.7905 0.95577 1.10524 1.22206 1.27323 1.27079 1.12114 0.837804 0.394656 0.137621 0.0154948 0.00127745 8.77168e-06 5.07644e-08 6.9308e-11 2.56589e-13 -2.10137e-11 2.10142e-11 -7.57174e-15 9.42689e-15 -1.8447e-14 -1.57448e-16 1.2362e-11 -3.33672e-11 2.10046e-11 9.57852e-15 9.7234e-15 -9.78732e-15 1.23597e-11 -2.4738e-11 1.23531e-11 1.23773e-11 -6.37673e-15 -3.33676e-11 6.38152e-17 3.33674e-11 -3.33761e-11 -1.5565e-14 3.33672e-11 -3.33196e-11 -1.50333e-18 3.33424e-11 -3.33431e-11 3.52031e-15 3.5764e-16 -1.77579e-15 0 0 0.190334 0.374054 0.545998 0.702068 0.83399 0.933392 0.983981 0.955331 0.788061 0.518535 0.224726 0.0629246 0.00696979 0.000415624 3.11635e-06 2.2299e-08 3.80868e-11 2.57509e-13 -3.13535e-14 -2.0973e-11 2.09981e-11 -1.32446e-15 9.36161e-15 -1.85513e-14 1.97614e-17 -6.9214e-15 1.23755e-11 -2.47379e-11 1.23533e-11 3.45945e-14 -2.56077e-14 1.56638e-14 6.78498e-15 1.23455e-11 -3.3358e-11 3.33268e-11 -3.33426e-11 3.33423e-11 -3.3342e-11 -2.50287e-14 2.51668e-14 3.33174e-11 -3.32944e-11 1.3259e-16 3.3317e-11 -3.33169e-11 2.35572e-15 -2.97067e-15 3.33687e-11 0 0 0.158038 0.307112 0.439849 0.549466 0.624752 0.641252 0.576261 0.430252 0.247156 0.091389 0.0196354 0.00183211 7.25769e-05 5.7307e-07 4.14026e-09 2.80101e-11 -1.04403e-11 -2.09945e-11 2.09734e-11 3.19004e-14 -1.53136e-14 1.23665e-11 -2.47378e-11 2.4738e-11 1.97729e-19 -2.47381e-11 2.47287e-11 -1.23425e-11 1.23265e-11 -4.57175e-11 4.57102e-11 -1.2321e-11 1.23532e-11 -2.34487e-14 -3.33344e-11 -4.79783e-14 2.45762e-14 3.33424e-11 -3.33667e-11 3.33666e-11 -3.33417e-11 3.33173e-11 -3.32947e-11 3.33177e-11 -4.61457e-16 -3.33168e-11 -2.32233e-14 3.339e-11 -2.19952e-14 0 0 0.104033 0.195675 0.262334 0.293775 0.285383 0.238338 0.157443 0.0724632 0.0203411 0.00314463 0.000212904 5.42918e-06 4.26593e-08 4.82324e-10 -7.8599e-12 3.60468e-15 8.88991e-15 -2.09947e-11 2.09983e-11 -1.57647e-15 -2.76808e-16 -1.83897e-14 2.81669e-14 -1.85188e-14 -9.53307e-17 9.02829e-15 1.23505e-11 -1.23427e-11 1.23262e-11 -3.33552e-11 3.33479e-11 -3.33254e-11 3.33576e-11 -3.84182e-14 -3.33189e-11 -4.83591e-14 2.52315e-14 -5.32767e-17 3.33654e-11 -3.33656e-11 -3.925e-17 3.33425e-11 -3.33195e-11 3.33185e-11 -3.33184e-11 -2.29943e-14 3.33673e-11 -3.33667e-11 3.33911e-11 0 0 0.0351535 0.0625679 0.075614 0.0700662 0.0486233 0.0236233 0.00755971 0.00145467 0.000146907 6.43326e-06 1.15236e-07 1.70086e-09 3.79752e-11 -1.59701e-12 -8.73529e-12 -1.66737e-14 8.80722e-15 8.88009e-15 -1.50616e-14 1.23662e-11 -2.47378e-11 1.23784e-11 9.71303e-15 -1.85852e-14 -9.41846e-15 1.23872e-11 -1.23783e-11 -1.23697e-11 2.4731e-11 -6.30062e-15 -3.33675e-11 2.34317e-14 -1.173e-15 3.33451e-11 -3.33919e-11 3.33667e-11 -3.3342e-11 -4.17418e-17 3.33652e-11 -3.33901e-11 3.33918e-11 -3.33668e-11 -5.28191e-17 3.33665e-11 -3.33911e-11 3.33918e-11 -3.33673e-11 2.61981e-14 -1.72279e-15 0 0 0.00224008 0.00314555 0.00252961 0.00133005 0.000459537 9.92091e-05 1.21234e-05 7.66273e-07 2.72565e-08 1.01716e-09 2.92076e-11 -8.22263e-12 1.05551e-11 -1.23623e-11 1.80707e-12 1.23703e-11 -1.23687e-11 9.70291e-15 -9.70238e-15 -1.86041e-14 2.80843e-14 -9.26851e-15 9.49068e-15 -1.85851e-14 -9.32491e-15 7.96295e-15 9.02575e-15 -2.50057e-14 -2.09799e-11 3.33518e-11 -3.33675e-11 3.33656e-11 -3.33659e-11 5.17299e-16 3.33661e-11 -3.33661e-11 2.29375e-14 3.33193e-11 -3.33673e-11 3.33906e-11 -3.33653e-11 2.30425e-14 3.33189e-11 -3.33668e-11 3.33902e-11 -3.33651e-11 2.53974e-14 2.10625e-16 -1.77099e-15 0 0 7.30865e-07 8.11856e-07 4.4917e-07 1.43135e-07 2.85276e-08 4.29565e-09 5.7241e-10 5.23456e-11 2.98149e-12 1.93126e-12 -1.81201e-12 -8.75865e-12 1.0211e-14 -7.89631e-15 1.23675e-11 -1.23675e-11 -9.01536e-15 1.88028e-14 -1.89719e-14 1.13333e-17 1.89606e-14 -1.8665e-14 1.86649e-14 -1.86454e-14 6.08699e-17 -1.73939e-14 -2.09798e-11 3.33177e-11 -3.33096e-11 3.33438e-11 -3.39775e-16 -3.33918e-11 3.3367e-11 -3.33188e-11 3.33426e-11 -3.33658e-11 2.3034e-14 3.32942e-11 -3.3294e-11 3.33422e-11 -3.33654e-11 2.31597e-14 3.32941e-11 -3.32939e-11 3.33418e-11 -3.33646e-11 2.55142e-14 -5.06634e-14 3.3416e-11 0 0 2.3081e-12 -2.73063e-13 6.35682e-12 -2.25403e-12 4.39947e-13 9.2785e-14 3.65147e-12 -3.6314e-12 6.84507e-15 -3.32992e-16 -4.82406e-15 3.61663e-12 -2.47509e-11 2.47468e-11 -9.20718e-15 -2.47377e-11 2.47378e-11 -2.47377e-11 2.47376e-11 -3.97071e-17 -2.47376e-11 2.47285e-11 -2.47284e-11 2.47378e-11 -6.69999e-15 -1.63716e-14 -6.6725e-11 6.67092e-11 4.85687e-14 -2.3394e-14 -2.90327e-16 -6.67341e-11 6.67091e-11 4.8512e-14 -4.83215e-14 2.49453e-14 -6.67343e-11 6.67093e-11 4.84292e-14 -4.84058e-14 2.4861e-14 -6.67341e-11 6.67092e-11 4.84306e-14 -4.84499e-14 2.52616e-14 -6.67342e-11 6.67093e-11 -3.33423e-11 0 0 -1.02873e-15 -1.2787e-12 -1.40598e-15 4.98671e-17 -1.82301e-12 1.81743e-12 -1.05643e-11 1.05644e-11 -1.81621e-12 6.70122e-15 -2.12274e-14 3.63362e-12 -1.23896e-11 6.37505e-15 -5.26176e-17 -6.51143e-15 1.23753e-11 -1.23753e-11 6.47953e-15 -6.16493e-17 9.40716e-15 1.23504e-11 -2.47294e-11 2.47228e-11 2.50629e-15 -3.33676e-11 2.59477e-14 -2.57786e-14 3.33672e-11 8.2628e-17 -3.33674e-11 2.58624e-14 -2.599e-14 3.33672e-11 1.85059e-19 -3.3367e-11 2.5842e-14 -2.5842e-14 3.33669e-11 2.52162e-16 -3.33672e-11 2.58432e-14 -2.59559e-14 3.33675e-11 2.21936e-14 -3.33898e-11 -3.1523e-16 -7.89166e-16 9.63911e-16 0 0 3.38403e-16 5.35766e-13 -3.62966e-12 1.81481e-12 -6.51538e-15 -1.0562e-11 1.7586e-15 -1.64899e-15 1.05619e-11 -3.89829e-15 -1.11216e-14 -3.15612e-11 3.33595e-11 -1.23625e-11 1.09213e-17 1.23623e-11 -3.33672e-11 3.33672e-11 -1.23623e-11 -9.19705e-15 1.23875e-11 -1.23783e-11 7.33243e-15 -2.10282e-11 9.43424e-15 2.51668e-14 2.82809e-16 -1.77704e-16 -2.59226e-14 -4.27322e-17 2.58812e-14 -8.41301e-17 -2.24513e-15 -2.39403e-14 -1.36723e-16 2.64274e-14 2.40655e-16 -2.40655e-16 -2.65116e-14 2.51281e-16 2.62812e-14 2.19793e-16 -3.20553e-15 3.32943e-11 -3.32952e-11 -4.83929e-14 3.33417e-11 -6.66848e-11 3.33649e-11 0 0 3.87723e-16 -1.47535e-15 -1.81331e-12 -2.32946e-16 1.80849e-12 -1.0562e-11 1.74602e-15 -1.70593e-15 -1.24124e-15 1.05539e-11 -4.36231e-15 -3.15703e-11 3.33672e-11 -1.23623e-11 1.09729e-17 1.23623e-11 -3.33673e-11 2.10049e-11 1.92022e-16 1.23769e-11 -1.23769e-11 -1.23697e-11 2.47308e-11 -3.33978e-11 2.5363e-14 2.52079e-14 1.77704e-16 -6.61513e-16 -2.55221e-14 3.86489e-17 2.59159e-14 -2.5737e-14 3.33658e-11 -3.33913e-11 2.48955e-14 2.63229e-14 2.82463e-16 -2.82447e-16 -5.13336e-14 2.52202e-14 2.59866e-14 -2.16582e-15 -1.02997e-15 3.32943e-11 -6.66851e-11 6.66834e-11 -3.33675e-11 -3.33166e-11 3.33642e-11 0 0 3.66156e-16 -1.81469e-12 1.81498e-12 -1.81525e-12 -7.82286e-15 1.81609e-12 -1.0563e-11 1.05565e-11 -1.23781e-11 1.23779e-11 -1.23913e-11 1.41955e-11 -1.23832e-11 -2.51709e-15 1.85297e-14 -1.5885e-14 1.23845e-11 -2.47471e-11 1.23533e-11 1.23923e-11 -1.23929e-11 2.40512e-14 -2.10293e-11 3.33753e-11 1.95303e-15 -3.33677e-11 2.55673e-14 -2.61344e-14 3.3368e-11 -2.50333e-14 -3.33196e-11 3.33196e-11 -3.33672e-11 3.33668e-11 2.49308e-14 -3.3367e-11 2.54609e-14 -2.5481e-14 3.33423e-11 -3.33809e-11 6.00711e-14 3.32302e-11 -3.3231e-11 -2.07513e-14 -1.00673e-15 -2.63648e-14 -3.33419e-11 3.33422e-11 2.60982e-14 0 0 -7.54962e-16 -1.27511e-12 -2.55819e-15 -2.75174e-16 -1.81494e-12 -8.00207e-15 1.82286e-12 -1.82953e-12 1.82299e-12 -1.05713e-11 9.40281e-15 1.23498e-11 -2.47362e-11 2.47379e-11 -1.23595e-11 9.55425e-15 -9.39467e-15 9.36354e-15 -3.45544e-14 -2.09987e-11 3.33601e-11 2.47777e-14 -3.33828e-11 3.33911e-11 -2.29293e-14 -7.13061e-16 -6.67346e-11 6.67346e-11 -2.43175e-14 2.17319e-14 -3.33418e-11 3.32947e-11 -3.32943e-11 3.33192e-11 -3.33424e-11 3.33423e-11 -3.33215e-11 3.33215e-11 -3.33421e-11 -1.74361e-14 -8.41169e-11 1.17382e-10 -3.32273e-11 -2.05696e-14 -9.97768e-16 -3.3369e-11 3.33431e-11 3.33168e-11 -6.6658e-11 0 0 -7.99355e-16 -1.27774e-12 -1.21205e-15 -1.464e-15 -1.82177e-12 1.82145e-12 -1.82283e-12 7.83576e-15 1.79921e-12 -1.0553e-11 -6.13254e-15 1.23579e-11 -1.23752e-11 1.58669e-14 -9.85005e-18 9.62693e-15 -9.44726e-15 9.44826e-15 -2.55884e-14 -2.10239e-11 3.33853e-11 -3.33669e-11 3.3367e-11 4.66658e-16 5.4567e-16 -3.33678e-11 2.55259e-14 -2.54951e-14 3.33651e-11 -3.33431e-11 -2.31206e-14 3.33432e-11 -3.33192e-11 3.33193e-11 -3.33421e-11 3.33421e-11 -3.33213e-11 3.33213e-11 -3.33677e-11 3.14011e-14 -8.41876e-11 8.41612e-11 1.93918e-14 -3.76437e-16 -3.3367e-11 3.33666e-11 -2.5187e-14 -2.48729e-14 5.10172e-14 0 0 -6.39918e-16 -1.81737e-12 4.04641e-16 -1.81651e-12 1.80941e-12 -1.05644e-11 1.05631e-11 -1.81612e-12 -8.19807e-15 -8.73791e-12 -5.97494e-15 -2.10066e-11 3.33581e-11 -1.23531e-11 1.23595e-11 -2.47377e-11 2.47378e-11 -1.23595e-11 -1.64239e-14 1.23661e-11 -3.33715e-11 2.33706e-14 3.33189e-11 -3.33417e-11 5.01002e-16 2.51236e-14 -8.41301e-17 -2.55033e-14 3.33649e-11 -3.339e-11 3.33909e-11 -3.33666e-11 5.59367e-16 3.33672e-11 -2.49473e-14 -3.33422e-11 -2.20601e-16 -3.60336e-16 3.33415e-11 -6.6724e-11 6.66729e-11 -6.66974e-11 3.34023e-11 -2.12317e-14 7.25005e-16 2.5455e-14 -2.63052e-14 -3.33422e-11 3.33638e-11 0 0 -1.04183e-15 5.37136e-13 -3.63235e-12 1.81497e-12 -6.95702e-15 -1.05618e-11 1.05356e-17 1.05619e-11 -1.82308e-12 -8.74806e-12 9.09791e-15 -2.1022e-11 3.33674e-11 -1.23532e-11 -1.86027e-14 1.8478e-14 -1.84252e-14 1.83297e-14 6.5109e-15 1.2353e-11 -3.33584e-11 3.31251e-16 3.33194e-11 -3.33666e-11 2.53016e-14 2.51249e-14 -2.28719e-15 3.33191e-11 -3.33672e-11 3.33901e-11 -3.33657e-11 -5.3193e-17 3.33668e-11 -3.33664e-11 3.33421e-11 -6.67095e-11 6.66834e-11 -3.33175e-11 7.98485e-16 2.58287e-14 -7.78149e-14 -3.33164e-11 3.33381e-11 4.33494e-15 1.9611e-16 2.58028e-14 -2.60111e-14 -3.33428e-11 3.33647e-11 0 0 3.03652e-16 -1.27747e-12 -1.33761e-15 -4.69905e-16 -1.8226e-12 1.81617e-12 -1.05618e-11 -6.3108e-17 1.05473e-11 1.81088e-12 -2.47449e-11 2.47382e-11 -1.23752e-11 -2.69649e-15 1.85102e-14 -1.03295e-16 -1.2378e-11 1.23526e-11 1.24095e-11 -7.25028e-14 5.65198e-14 -3.33899e-11 2.63721e-16 3.33661e-11 1.97281e-15 -3.3368e-11 2.34401e-14 3.3294e-11 -3.3317e-11 3.33652e-11 -3.33656e-11 3.33675e-11 -3.33682e-11 2.6567e-14 -2.54123e-14 2.5286e-14 -7.81111e-14 5.04326e-14 2.16156e-15 2.59356e-14 -5.3079e-14 -2.47015e-14 2.44089e-14 -3.33418e-11 3.33677e-11 -4.98532e-15 -3.33624e-11 3.33164e-11 5.19959e-14 0 0 3.35905e-16 -1.81471e-12 1.81473e-12 -1.81516e-12 3.3719e-16 -8.0427e-15 1.80963e-12 -1.05554e-11 -7.71381e-15 -1.06179e-14 1.8543e-14 1.2342e-11 -2.47283e-11 2.47378e-11 -1.23664e-11 6.56309e-15 -2.50972e-14 1.23775e-11 -3.33583e-11 3.33499e-11 -3.33654e-11 3.33425e-11 -3.33187e-11 3.