<?xml version="1.0"?>
<VTKFile type="PolyData">
	<PolyData>
		<Piece NumberOfPoints="2601" NumberOfPolys="2500">
			<Points>
				<DataArray type="Float32" NumberOfComponents="3" format="ascii">
 0 0 0 0.313345 0 0 0.254054 0 0 0.314135 0 0 0.324975 0 0 0.345554 0 0 0.36302 0 0 0.376483 0 0 0.39117 0 0 0.401066 0 0 0.41273 0 0 0.420933 0 0 0.430742 0 0 0.438148 0 0 0.445878 0 0 0.452462 0 0 0.459403 0 0 0.464792 0 0 0.470028 0 0 0.474752 0 0 0.47936 0 0 0.483752 0 0 0.487803 0 0 0.492008 0 0 0.497518 0 0 0.506237 0 0 0.520689 0 0 0.540005 0 0 0.56 0 0 0.58 0 0 0.6 0 0 0.62 0 0 0.64 0 0 0.66 0 0 0.68 0 0 0.7 0 0 0.72 0 0 0.74 0 0 0.76 0 0 0.78 0 0 0.8 0 0 0.82 0 0 0.84 0 0 0.86 0 0 0.88 0 0 0.9 0 0 0.92 0 0 0.94 0 0 0.96 0 0 0.98 0 0 1 0 0 0 0.313345 0 0.150455 0.150455 0 0.291568 0.126633 0 0.282256 0.112146 0 0.32093 0.0811486 0 0.341548 0.072144 0 0.358102 0.0644617 0 0.374738 0.0581635 0 0.386869 0.0533218 0 0.40022 0.0490182 0 0.409385 0.0448759 0 0.42046 0.0413508 0 0.428559 0.0382327 0 0.437434 0.0356506 0 0.444524 0.0335146 0 0.451822 0.0316793 0 0.458328 0.0299946 0 0.46401 0.0283658 0 0.46935 0.026917 0 0.474146 0.0255985 0 0.47879 0.0244195 0 0.483252 0.0233666 0 0.487332 0.0224047 0 0.491597 0.0215353 0 0.49719 0.0208014 0 0.506034 0.0202777 0 0.520642 0.0200437 0 0.540004 0.0200006 0 0.56 0.02 0 0.58 0.02 0 0.6 0.02 0 0.62 0.02 0 0.64 0.02 0 0.66 0.02 0 0.68 0.02 0 0.7 0.02 0 0.72 0.02 0 0.74 0.02 0 0.76 0.02 0 0.78 0.02 0 0.8 0.02 0 0.82 0.02 0 0.84 0.02 0 0.86 0.02 0 0.88 0.02 0 0.9 0.02 0 0.92 0.02 0 0.94 0.02 0 0.96 0.02 0 0.98 0.02 0 1 0.02 0 0 0.254054 0 0.126633 0.291568 0 0.172488 0.172488 0 0.2691 0.185909 0 0.294818 0.158397 0 0.323153 0.138116 0 0.346024 0.124118 0 0.362489 0.114231 0 0.379342 0.104315 0 0.391398 0.0957162 0 0.404835 0.0881326 0 0.414426 0.0813385 0 0.425156 0.0755988 0 0.433195 0.0706937 0 0.441792 0.0665513 0 0.448983 0.0629548 0 0.455658 0.0595481 0 0.461667 0.0564293 0 0.46734 0.0535599 0 0.472326 0.05095 0 0.477135 0.0486271 0 0.481744 0.0465558 0 0.485939 0.0446565 0 0.490379 0.0429483 0 0.496224 0.0415122 0 0.505444 0.0405048 0 0.520517 0.0400732 0 0.540003 0.0400008 0 0.56 0.04 0 0.58 0.04 0 0.6 0.04 0 0.62 0.04 0 0.64 0.04 0 0.66 0.04 0 0.68 0.04 0 0.7 0.04 0 0.72 0.04 0 0.74 0.04 0 0.76 0.04 0 0.78 0.04 0 0.8 0.04 0 0.82 0.04 0 0.84 0.04 0 0.86 0.04 0 0.88 0.04 0 0.9 0.04 0 0.92 0.04 0 0.94 0.04 0 0.96 0.04 0 0.98 0.04 0 1 0.04 0 0 0.314135 0 0.112146 0.282256 0 0.185909 0.2691 0 0.194639 0.194639 0 0.259165 0.219642 0 0.30011 0.18868 0 0.324772 0.177182 0 0.348191 0.161418 0 0.365238 0.150197 0 0.382451 0.138423 0 0.394847 0.128164 0 0.408199 0.119086 0 0.417806 0.111235 0 0.428123 0.104498 0 0.436404 0.0987313 0 0.444628 0.0933843 0 0.451302 0.0884233 0 0.458088 0.0838523 0 0.463934 0.0796341 0 0.469441 0.0758309 0 0.474439 0.0724441 0 0.479263 0.0694097 0 0.483658 0.0666248 0 0.488396 0.0641271 0 0.494673 0.0620519 0 0.504533 0.0606414 0 0.520354 0.0600799 0 0.540002 0.0600006 0 0.56 0.06 0 0.58 0.06 0 0.6 0.06 0 0.62 0.06 0 0.64 0.06 0 0.66 0.06 0 0.68 0.06 0 0.7 0.06 0 0.72 0.06 0 0.74 0.06 0 0.76 0.06 0 0.78 0.06 0 0.8 0.06 0 0.82 0.06 0 0.84 0.06 0 0.86 0.06 0 0.88 0.06 0 0.9 0.06 0 0.92 0.06 0 0.94 0.06 0 0.96 0.06 0 0.98 0.06 0 1 0.06 0 0 0.324975 0 0.0811486 0.32093 0 0.158397 0.294818 0 0.219642 0.259165 0 0.222663 0.222663 0 0.269568 0.240443 0 0.306178 0.210849 0 0.329079 0.203947 0 0.351749 0.187822 0 0.368468 0.176638 0 0.385263 0.164527 0 0.397403 0.154304 0 0.410202 0.1449 0 0.419866 0.136901 0 0.429952 0.129426 0 0.438033 0.122649 0 0.445987 0.116207 0 0.453018 0.110354 0 0.459497 0.104907 0 0.46546 0.100078 0 0.470825 0.0957241 0 0.475851 0.091808 0 0.480546 0.0881928 0 0.485712 0.0849777 0 0.492626 0.0823546 0 0.503415 0.0806674 0 0.5202 0.080065 0 0.540001 0.0800003 0 0.56 0.08 0 0.58 0.08 0 0.6 0.08 0 0.62 0.08 0 0.64 0.08 0 0.66 0.08 0 0.68 0.08 0 0.7 0.08 0 0.72 0.08 0 0.74 0.08 0 0.76 0.08 0 0.78 0.08 0 0.8 0.08 0 0.82 0.08 0 0.84 0.08 0 0.86 0.08 0 0.88 0.08 0 0.9 0.08 0 0.92 0.08 0 0.94 0.08 0 0.96 0.08 0 0.98 0.08 0 1 0.08 0 0 0.345554 0 0.072144 0.341548 0 0.138116 0.323153 0 0.18868 0.30011 0 0.240443 0.269568 0 0.249233 0.249233 0 0.284312 0.254519 0 0.312673 0.229411 0 0.334235 0.224347 0 0.355452 0.208377 0 0.371256 0.198115 0 0.387195 0.186116 0 0.399067 0.176449 0 0.41155 0.166706 0 0.421112 0.158295 0 0.430947 0.150046 0 0.439263 0.142687 0 0.447012 0.135606 0 0.454011 0.129308 0 0.460502 0.123562 0 0.466301 0.118389 0 0.471598 0.113628 0 0.476683 0.109266 0 0.482424 0.10542 0 0.490211 0.102381 0 0.502258 0.100587 0 0.52009 0.10004 0 0.54 0.1 0 0.56 0.1 0 0.58 0.1 0 0.6 0.1 0 0.62 0.1 0 0.64 0.1 0 0.66 0.1 0 0.68 0.1 0 0.7 0.1 0 0.72 0.1 0 0.74 0.1 0 0.76 0.1 0 0.78 0.1 0 0.8 0.1 0 0.82 0.1 0 0.84 0.1 0 0.86 0.1 0 0.88 0.1 0 0.9 0.1 0 0.92 0.1 0 0.94 0.1 0 0.96 0.1 0 0.98 0.1 0 1 0.1 0 0 0.36302 0 0.0644617 0.358102 0 0.124118 0.346024 0 0.177182 0.324772 0 0.210849 0.306178 0 0.254519 0.284312 0 0.26812 0.26812 0 0.296027 0.267362 0 0.319531 0.245328 0 0.339058 0.241195 0 0.358888 0.225222 0 0.373793 0.216113 0 0.389098 0.203998 0 0.400548 0.194668 0 0.412564 0.184461 0 0.422368 0.176013 0 0.431968 0.167445 0 0.439957 0.159824 0 0.447724 0.15268 0 0.454557 0.146235 0 0.460935 0.140287 0 0.466574 0.134781 0 0.472202 0.129748 0 0.478676 0.125412 0 0.487592 0.122132 0 0.501255 0.120431 0 0.520031 0.120017 0 0.54 0.12 0 0.56 0.12 0 0.58 0.12 0 0.6 0.12 0 0.62 0.12 0 0.64 0.12 0 0.66 0.12 0 0.68 0.12 0 0.7 0.12 0 0.72 0.12 0 0.74 0.12 0 0.76 0.12 0 0.78 0.12 0 0.8 0.12 0 0.82 0.12 0 0.84 0.12 0 0.86 0.12 0 0.88 0.12 0 0.9 0.12 0 0.92 0.12 0 0.94 0.12 0 0.96 0.12 0 0.98 0.12 0 1 0.12 0 0 0.376483 0 0.0581635 0.374738 0 0.114231 0.362489 0 0.161418 0.348191 0 0.203947 0.329079 0 0.229411 0.312673 0 0.267362 0.296027 0 0.283232 0.283232 0 0.306368 0.27887 0 0.326472 0.259055 0 0.344039 0.255375 0 0.362242 0.239172 0 0.376163 0.231011 0 0.390765 0.21856 0 0.402087 0.209835 0 0.413876 0.199573 0 0.423289 0.191147 0 0.432571 0.18261 0 0.44045 0.175061 0 0.44798 0.167876 0 0.454766 0.16133 0 0.460938 0.155133 0 0.467226 0.149596 0 0.474669 0.14494 0 0.484998 0.141673 0 0.500557 0.14025 0 0.520008 0.140005 0 0.54 0.14 0 0.56 0.14 0 0.58 0.14 0 0.6 0.14 0 0.62 0.14 0 0.64 0.14 0 0.66 0.14 0 0.68 0.14 0 0.7 0.14 0 0.72 0.14 0 0.74 0.14 0 0.76 0.14 0 0.78 0.14 0 0.8 0.14 0 0.82 0.14 0 0.84 0.14 0 0.86 0.14 0 0.88 0.14 0 0.9 0.14 0 0.92 0.14 0 0.94 0.14 0 0.96 0.14 0 0.98 0.14 0 1 0.14 0 0 0.39117 0 0.0533218 0.386869 0 0.104315 0.379342 0 0.150197 0.365238 0 0.187822 0.351749 0 0.224347 0.334235 0 0.245328 0.319531 0 0.27887 0.306368 0 0.296065 0.296065 0 0.315605 0.288227 0 0.333451 0.270737 0 0.349356 0.266468 0 0.365754 0.250444 0 0.379038 0.243382 0 0.392989 0.230931 0 0.403715 0.22267 0 0.414953 0.212515 0 0.424196 0.204425 0 0.432908 0.195933 0 0.44078 0.188516 0 0.448046 0.181275 0 0.454824 0.174679 0 0.461937 0.168782 0 0.470611 0.16407 0 0.482756 0.161114 0 0.500186 0.160107 0 0.520001 0.160001 0 0.54 0.16 0 0.56 0.16 0 0.58 0.16 0 0.6 0.16 0 0.62 0.16 0 0.64 0.16 0 0.66 0.16 0 0.68 0.16 0 0.7 0.16 0 0.72 0.16 0 0.74 0.16 0 0.76 0.16 0 0.78 0.16 0 0.8 0.16 0 0.82 0.16 0 0.84 0.16 0 0.86 0.16 0 0.88 0.16 0 0.9 0.16 0 0.92 0.16 0 0.94 0.16 0 0.96 0.16 0 0.98 0.16 0 1 0.16 0 0 0.401066 0 0.0490182 0.40022 0 0.0957162 0.391398 0 0.138423 0.382451 0 0.176638 0.368468 0 0.208377 0.355452 0 0.241195 0.339058 0 0.259055 0.326472 0 0.288227 0.315605 0 0.306387 0.306387 0 0.323691 0.295838 0 0.339778 0.280714 0 0.355202 0.275482 0 0.369929 0.260269 0 0.382317 0.253688 0 0.395175 0.241379 0 0.405571 0.233761 0 0.416056 0.223822 0 0.424871 0.215944 0 0.433358 0.207676 0 0.440919 0.200291 0 0.448449 0.193333 0 0.456571 0.187426 0 0.466758 0.182923 0 0.481187 0.180597 0 0.500044 0.180031 0 0.52 0.18 0 0.54 0.18 0 0.56 0.18 0 0.58 0.18 0 0.6 0.18 0 0.62 0.18 0 0.64 0.18 0 0.66 0.18 0 0.68 0.18 0 0.7 0.18 0 0.72 0.18 0 0.74 0.18 0 0.76 0.18 0 0.78 0.18 0 0.8 0.18 0 0.82 0.18 0 0.84 0.18 0 0.86 0.18 0 0.88 0.18 0 0.9 0.18 0 0.92 0.18 0 0.94 0.18 0 0.96 0.18 0 0.98 0.18 0 1 0.18 0 0 0.41273 0 0.0448759 0.409385 0 0.0881326 0.404835 0 0.128164 0.394847 0 0.164527 0.385263 0 0.198115 0.371256 0 0.225222 0.358888 0 0.255375 0.344039 0 0.270737 0.333451 0 0.295838 0.323691 0 0.314431 0.314431 0 0.33073 0.302626 0 0.345557 0.2898 0 0.360567 0.283098 0 0.373683 0.268962 0 0.385607 0.26267 0 0.397448 0.250753 0 0.407196 0.243363 0 0.417118 0.233828 0 0.425506 0.226108 0 0.433781 0.218168 0 0.44199 0.211373 0 0.451415 0.205602 0 0.463527 0.201761 0 0.48037 0.200231 0 0.500007 0.200006 0 0.52 0.2 0 0.54 0.2 0 0.56 0.2 0 0.58 0.2 0 0.6 0.2 0 0.62 0.2 0 0.64 0.2 0 0.66 0.2 0 0.68 0.2 0 0.7 0.2 0 0.72 0.2 0 0.74 0.2 0 0.76 0.2 0 0.78 0.2 0 0.8 0.2 0 0.82 0.2 0 0.84 0.2 0 0.86 0.2 0 0.88 0.2 0 0.9 0.2 0 0.92 0.2 0 0.94 0.2 0 0.96 0.2 0 0.98 0.2 0 1 0.2 0 0 0.420933 0 0.0413508 0.42046 0 0.0813385 0.414426 0 0.119086 0.408199 0 0.154304 0.397403 0 0.186116 0.387195 0 0.216113 0.373793 0 0.239172 0.362242 0 0.266468 0.349356 0 0.280714 0.339778 0 0.302626 0.33073 0 0.320958 0.320958 0 0.33698 0.309208 0 0.350325 0.297819 0 0.364955 0.289893 0 0.376986 0.277039 0 0.388279 0.270577 0 0.399295 0.259277 0 0.40864 0.252027 0 0.417884 0.242889 0 0.426512 0.235631 0 0.435824 0.228758 0 0.446758 0.223666 0 0.461378 0.220811 0 0.480077 0.220059 0 0.500001 0.220001 0 0.52 0.22 0 0.54 0.22 0 0.56 0.22 0 0.58 0.22 0 0.6 0.22 0 0.62 0.22 0 0.64 0.22 0 0.66 0.22 0 0.68 0.22 0 0.7 0.22 0 0.72 0.22 0 0.74 0.22 0 0.76 0.22 0 0.78 0.22 0 0.8 0.22 0 0.82 0.22 0 0.84 0.22 0 0.86 0.22 0 0.88 0.22 0 0.9 0.22 0 0.92 0.22 0 0.94 0.22 0 0.96 0.22 0 0.98 0.22 0 1 0.22 0 0 0.430742 0 0.0382327 0.428559 0 0.0755988 0.425156 0 0.111235 0.417806 0 0.1449 0.410202 0 0.176449 0.399067 0 0.203998 0.389098 0 0.231011 0.376163 0 0.250444 0.365754 0 0.275482 0.355202 0 0.2898 0.345557 0 0.309208 0.33698 0 0.326269 0.326269 0 0.341925 0.31518 0 0.3546 0.305007 0 0.368534 0.296252 0 0.379635 0.284503 
[...]
			<PointData Scalars="VitesseX">
				<DataArray Name="VitesseX" type="Float32" format="ascii">
 0 2.15246 1.07416 1.79101 1.54854 1.75836 1.88794 1.85617 1.93907 2.06025 2.09907 2.11382 2.21584 2.3117 2.39363 2.29507 2.43545 2.59034 2.60933 2.6095 2.67358 2.65454 2.70642 2.58438 2.21848 1.4482 0.334251 0.00442157 2.41562e-07 1.45482e-12 6.44697e-18 1.46641e-20 0 -1.46641e-20 1.46641e-20 -2.99147e-20 2.99147e-20 -1.46641e-20 1.46641e-20 -1.46641e-20 1.46641e-20 -2.99147e-20 2.99147e-20 0 0 -2.99147e-20 2.99147e-20 -2.99147e-20 2.99147e-20 0 0 0 0.408948 1.75007 1.25177 1.52126 1.72173 1.85931 1.83428 1.94331 2.04681 2.07235 2.14263 2.1996 2.32547 2.33858 2.33372 2.45907 2.54183 2.61509 2.60788 2.6662 2.65795 2.7014 2.5756 2.20312 1.4246 0.315753 0.00391101 2.04847e-07 1.31098e-12 5.12835e-18 1.46641e-20 0 -1.46641e-20 1.46641e-20 -2.99147e-20 2.99147e-20 -1.46641e-20 1.46641e-20 -1.46641e-20 1.46641e-20 -2.99147e-20 2.99147e-20 0 0 -2.99147e-20 2.99147e-20 -2.99147e-20 2.99147e-20 0 0 0 0.846744 0.504065 1.43337 1.33078 1.57436 1.75638 1.813 1.9006 2.00629 2.06472 2.12157 2.23794 2.26876 2.28461 2.38447 2.48257 2.45767 2.61995 2.59792 2.64938 2.66374 2.68766 2.54908 2.15558 1.35178 0.264354 0.00269223 1.25187e-07 9.52765e-13 1.91963e-18 -7.62532e-21 3.07946e-20 -2.31692e-20 -7.62532e-21 -1.49574e-20 1.49574e-20 3.84199e-20 -3.84199e-20 7.62532e-21 -7.62532e-21 -1.49574e-20 4.57519e-20 -3.07946e-20 0 1.58372e-20 -1.58372e-20 1.58372e-20 -1.58372e-20 0 0 0 0.777621 1.04502 0.651851 1.18258 1.4305 1.61165 1.73583 1.84665 1.93858 2.03046 2.13654 2.19504 2.2399 2.24462 2.42336 2.42463 2.44572 2.57651 2.58983 2.62586 2.6666 2.66588 2.50475 2.07198 1.22402 0.19218 0.00142024 5.5731e-08 5.50101e-13 -1.55218e-20 1.58372e-20 0 -1.58372e-20 1.58372e-20 -3.07946e-20 3.07946e-20 -1.61305e-20 1.61305e-20 -1.58372e-20 1.58372e-20 -3.07946e-20 3.07946e-20 0 0 -3.10878e-20 3.10878e-20 -3.10878e-20 3.10878e-20 0 0 0 0.376411 0.847687 1.16189 0.967004 1.27804 1.53078 1.65053 1.76793 1.88437 1.99673 2.08637 2.15832 2.17659 2.28166 2.35614 2.38064 2.46193 2.50183 2.5769 2.60372 2.66005 2.63314 2.44014 1.94953 1.03474 0.11739 0.000559989 1.86471e-08 2.49581e-13 5.03978e-22 0 -3.07946e-20 3.07946e-20 0 -3.07946e-20 3.07946e-20 3.05013e-20 -3.05013e-20 0 0 -3.07946e-20 0 3.07946e-20 0 -2.93282e-22 2.93282e-22 -6.18824e-20 6.18824e-20 0 0 0 0.368917 0.693707 0.906651 1.26197 1.25788 1.48386 1.57217 1.69244 1.80684 1.93191 2.02204 2.08089 2.19444 2.24436 2.27806 2.36673 2.44902 2.44161 2.54474 2.58597 2.64384 2.57995 2.34645 1.78671 0.787207 0.0577433 0.000159037 4.94222e-09 8.90912e-14 3.07946e-20 -3.07946e-20 6.15891e-20 -3.07946e-20 -3.07946e-20 0 0 9.23837e-20 -9.23837e-20 3.07946e-20 -3.07946e-20 0 6.15891e-20 -6.15891e-20 0 6.15891e-20 -6.15891e-20 6.15891e-20 -6.15891e-20 0 0 0 0.332193 0.620279 0.910987 0.99318 1.32854 1.42354 1.53305 1.61214 1.71502 1.8503 1.95765 2.05993 2.15535 2.1912 2.21221 2.3756 2.38672 2.44234 2.48281 2.57469 2.6079 2.50728 2.2083 1.5715 0.511394 0.0218006 3.08212e-05 1.05794e-09 2.50234e-14 0 6.15891e-20 -6.15891e-20 6.15891e-20 -6.15891e-20 0 6.15891e-20 -1.23178e-19 1.23178e-19 -6.15891e-20 0 6.15891e-20 -6.15891e-20 6.15891e-20 0 -6.15891e-20 0 6.15891e-20 -6.15891e-20 0 0 0 0.276578 0.601794 0.793415 1.06921 1.09276 1.36971 1.48138 1.60735 1.65093 1.78648 1.9018 2.01909 2.0798 2.10619 2.22941 2.28599 2.36544 2.43524 2.43424 2.55064 2.54648 2.41257 2.02294 1.27207 0.266045 0.00599291 3.80416e-06 1.70063e-10 5.32458e-15 -6.15891e-20 6.15891e-20 -6.15891e-20 0 6.15891e-20 -6.15891e-20 6.15891e-20 -1.23178e-19 1.23178e-19 -6.15891e-20 6.15891e-20 -6.15891e-20 0 6.15891e-20 0 -1.23178e-19 1.23178e-19 -1.23178e-19 1.23178e-19 0 0 0 0.274638 0.546346 0.790481 0.936409 1.19822 1.17866 1.45646 1.54756 1.71109 1.78286 1.85239 1.94317 1.98563 2.10297 2.17658 2.22342 2.34362 2.40247 2.42534 2.5102 2.46381 2.26832 1.79069 0.879745 0.103536 0.00111943 2.90497e-07 1.84886e-11 7.87965e-16 -6.15891e-20 0 6.15891e-20 -6.15891e-20 0 6.15891e-20 -1.23178e-19 1.84474e-19 -1.84474e-19 6.15891e-20 1.23178e-19 -1.23178e-19 0 -6.15891e-20 1.23178e-19 -6.15891e-20 1.23178e-19 -2.46357e-19 2.46357e-19 -1.23178e-19 0 0 0.257613 0.522738 0.726064 0.930008 1.0691 1.29153 1.27406 1.55521 1.66206 1.79994 1.82323 1.85378 1.96498 2.07837 2.12409 2.20252 2.3206 2.35074 2.44004 2.43769 2.35974 2.05968 1.46941 0.473717 0.0281944 0.000128357 1.6457e-08 1.38432e-12 7.21137e-17 6.15891e-20 -6.15891e-20 0 6.15891e-20 -6.15891e-20 0 0 1.84474e-19 -1.84474e-19 6.15891e-20 -6.15891e-20 0 0 0 0 1.23178e-19 -1.23178e-19 0 0 0 0 0 0.234825 0.482922 0.68942 0.882807 1.0638 1.18285 1.41166 1.43919 1.62605 1.76152 1.75455 1.89516 1.98979 2.02496 2.10472 2.22197 2.24786 2.36374 2.40068 2.3738 2.1969 1.80608 1.01239 0.181194 0.00499245 7.9299e-06 9.77235e-10 9.21247e-14 1.22679e-19 -6.15891e-20 6.15891e-20 -1.23178e-19 1.23178e-19 6.15891e-20 -2.46357e-19 2.46357e-19 -1.23178e-19 0 1.23178e-19 -2.46357e-19 1.23178e-19 1.23178e-19 -1.23178e-19 0 0 0 1.23178e-19 -2.46357e-19 2.46357e-19 0 0 0.220086 0.449742 0.665158 0.843468 1.01588 1.17569 1.30385 1.51923 1.50628 1.61295 1.85117 1.86218 1.91512 2.00297 2.11338 2.17866 2.26368 2.33272 2.34894 2.25787 1.98443 1.44416 0.517649 0.0454753 0.000506039 2.47896e-07 4.55707e-11 5.77213e-15 0 0 0 1.22885e-19 -1.22885e-19 0 0 0 0 0 0 0 0 1.23178e-19 -1.23178e-19 0 0 0 1.23178e-19 -1.23178e-19 0 0 0 0.208624 0.435185 0.628029 0.807208 0.96865 1.1442 1.30656 1.38829 1.52544 1.59002 1.71582 1.91127 1.89863 2.0119 2.1002 2.14972 2.25697 2.3 2.25402 2.08163 1.69873 0.922376 0.176077 0.00677897 2.49819e-05 5.90326e-09 1.30767e-12 2.3189e-16 -6.15891e-20 1.23178e-19 -1.23178e-19 -2.93282e-22 2.93282e-22 0 1.23178e-19 -1.23178e-19 -1.23178e-19 2.46357e-19 -1.23178e-19 1.23178e-19 -1.23178e-19 -1.23178e-19 2.46357e-19 -1.23178e-19 1.23178e-19 -1.23178e-19 -1.23178e-19 3.68948e-19 -3.68948e-19 0 0 0.201961 0.406635 0.591112 0.767145 0.95297 1.11845 1.23647 1.34674 1.43113 1.64415 1.61873 1.7846 1.91448 1.99626 2.04122 2.15399 2.22158 2.2235 2.1151 1.82338 1.25424 0.403967 0.035637 0.000530965 4.96874e-07 1.67807e-10 3.7639e-14 2.45349e-19 -1.23178e-19 0 1.23178e-19 -2.46357e-19 2.46357e-19 -1.23178e-19 0 1.23178e-19 -2.46357e-19 2.46357e-19 -1.23178e-19 0 1.23178e-19 -2.46357e-19 2.46357e-19 0 -1.23178e-19 0 -5.86563e-22 0 5.86563e-22 0 0 0.182225 0.372677 0.563398 0.753811 0.925068 1.04751 1.18136 1.30881 1.45276 1.50297 1.63648 1.73673 1.8765 1.89441 2.02447 2.10843 2.15699 2.08335 1.88698 1.45769 0.666124 0.10412 0.00403033 1.61489e-05 6.67967e-09 2.74323e-12 9.88819e-16 -1.23178e-19 0 0 0 1.23178e-19 -1.23178e-19 0 0 0 0 0 0 0 1.23178e-19 0 -1.23178e-19 0 0 0 -5.86563e-22 -1.22592e-19 2.46357e-19 0 0 0.172375 0.36987 0.564678 0.733015 0.862731 1.00552 1.14984 1.29884 1.35885 1.50337 1.58305 1.70654 1.79562 1.88622 1.96577 2.0222 2.00063 1.89023 1.5323 0.896571 0.203827 0.015818 0.00017333 1.94593e-07 1.07948e-10 4.41777e-14 1.05956e-17 -2.46357e-19 2.46357e-19 -1.23178e-19 0 1.23178e-19 -2.46357e-19 2.46357e-19 -1.23178e-19 0 0 0 0 1.23178e-19 -2.46357e-19 2.46357e-19 -1.23178e-19 0 -1.23178e-19 2.46357e-19 -2.46357e-19 2.46357e-19 0 0 0 0.184355 0.364333 0.52847 0.684749 0.843272 0.991173 1.12316 1.21321 1.37196 1.44385 1.58412 1.62537 1.74584 1.88582 1.8717 1.90113 1.79041 1.5243 1.03875 0.299623 0.0396158 0.000823673 3.18398e-06 1.61279e-09 1.11115e-12 5.66397e-16 1.23178e-19 -1.23178e-19 0 0 0 0 1.22592e-19 -1.22592e-19 0 -1.23178e-19 3.68948e-19 -1.22592e-19 -2.46357e-19 2.46357e-19 -2.46357e-19 0 2.46357e-19 0 -2.46357e-19 2.46357e-19 0 -2.46357e-19 2.46357e-19 0 0 0.173725 0.335182 0.49767 0.666901 0.811744 0.944293 1.07326 1.22334 1.32005 1.44025 1.49208 1.6624 1.68833 1.75117 1.81117 1.65748 1.48319 1.03598 0.363609 0.0674219 0.00221846 2.3811e-05 1.30756e-08 1.91959e-11 1.09057e-14 1.23684e-19 -2.46357e-19 2.46357e-19 -1.23178e-19 0 0 0 1.22592e-19 -2.4577e-19 2.46357e-19 -2.46357e-19 3.68948e-19 -3.68948e-19 1.23178e-19 1.23178e-19 0 -2.46357e-19 0 2.46357e-19 0 0 -2.46357e-19 2.4577e-19 -2.4577e-19 0 0 0.161799 0.327303 0.485889 0.628858 0.763487 0.90845 1.05681 1.16892 1.29197 1.38538 1.52553 1.53203 1.6597 1.59663 1.54679 1.38835 0.960013 0.382254 0.0794669 0.0041038 8.032e-05 6.70794e-08 1.6836e-10 8.6884e-14 7.2136e-17 1.23178e-19 -2.46357e-19 1.23178e-19 0 1.22592e-19 -1.22592e-19 1.23178e-19 -2.46357e-19 1.23178e-19 1.23178e-19 0 -2.46357e-19 0 4.92127e-19 -4.92127e-19 0 2.46357e-19 -5.86563e-22 -2.4577e-19 2.46357e-19 -2.46357e-19 2.4577e-19 0 -2.4577e-19 0 0 0.154149 0.306861 0.455446 0.602275 0.742439 0.87665 1.00127 1.13684 1.25404 1.36895 1.40968 1.50223 1.42224 1.42751 1.17677 0.860852 0.333598 0.076872 0.00513798 0.000122491 2.17797e-07 6.69727e-10 4.07176e-13 1.02992e-15 0 0 1.23178e-19 -2.46357e-19 1.23178e-19 1.22592e-19 -1.22592e-19 0 0 1.23178e-19 -2.46357e-19 2.46357e-19 -5.86563e-22 5.86563e-22 -5.86563e-22 -2.4577e-19 0 2.46357e-19 -5.86563e-22 -2.4577e-19 2.46357e-19 -2.46357e-19 2.4577e-19 -2.4577e-19 2.46357e-19 0 0 0.148149 0.294167 0.436949 0.576572 0.716191 0.855839 0.99307 1.11238 1.20556 1.27005 1.32158 1.27347 1.23494 0.975969 0.690082 0.237909 0.0628606 0.00401341 0.000122217 3.49649e-07 1.10931e-09 1.2687e-12 4.356e-15 2.47368e-19 0 -2.46357e-19 2.46357e-19 -1.23178e-19 1.23178e-19 -3.69535e-19 3.69535e-19 -1.23178e-19 1.23178e-19 0 -2.46357e-19 0 2.4577e-19 5.86563e-22 -2.46357e-19 2.46357e-19 -2.46357e-19 2.46357e-19 -2.46357e-19 2.46357e-19 0 -2.46357e-19 0 2.46357e-19 0 0 0 0.141417 0.282731 0.423049 0.562096 0.698451 0.826895 0.939658 1.0396 1.10456 1.12951 1.09413 1.01112 0.760598 0.468071 0.151391 0.0364305 0.00209964 8.00084e-05 2.16917e-07 1.10775e-09 2.04435e-12 7.77491e-15 -2.0447e-17 -1.22592e-19 0 0 1.23178e-19 -1.23178e-19 1.23178e-19 -2.46357e-19 2.46357e-19 -2.46357e-19 2.46357e-19 0 -2.46357e-19 2.4577e-19 -2.4577e-19 0 2.46357e-19 -2.46357e-19 2.4577e-19 5.86563e-22 -2.46357e-19 2.46357e-19 -2.46357e-19 2.4577e-19 5.86563e-22 -2.46357e-19 2.46357e-19 0 0 0.137708 0.273408 0.405943 0.533223 0.652403 0.758942 0.847571 0.903433 0.920588 0.87756 0.749538 0.510712 0.26624 0.0783523 0.0143963 0.000780864 2.37018e-05 6.60776e-08 6.68004e-10 1.26195e-12 7.73352e-15 1.23178e-19 1.22592e-19 -1.22592e-19 0 1.23178e-19 -1.23178e-19 -1.23178e-19 2.46357e-19 0 -2.46357e-19 2.4577e-19 -2.4577e-19 2.46357e-19 -2.46357e-19 4.92127e-19 -4.92127e-19 0 2.46357e-19 -2.46357e-19 4.92127e-19 -4.92127e-19 0 2.46357e-19 -2.46357e-19 4.92127e-19 -4.92127e-19 2.4577e-19 -2.4577e-19 0 0 0.125216 0.24789 0.365366 0.473451 0.565156 0.634722 0.675995 0.674992 0.603412 0.459899 0.274904 0.11679 0.0281333 0.00369817 0.000167226 3.16121e-06 1.27778e-08 1.67724e-10 4.00482e-13 4.39738e-15 -2.0447e-17 -1.22592e-19 0 0 0 0 1.22592e-19 -1.22592e-19 -1.23178e-19 2.46357e-19 -2.46357e-19 4.92127e-19 -4.92127e-19 0 2.46357e-19 -2.46357e-19 2.4577e-19 5.86563e-22 -2.46357e-19 2.46357e-19 -2.46357e-19 2.4577e-19 5.86563e-22 -2.46357e-19 2.46357e-19 -2.46357e-19 2.4577e-19 0 -2.4577e-19 0 0 0.101367 0.198408 0.286541 0.359718 0.408731 0.420494 0.386243 0.310302 0.208445 0.102711 0.0325696 0.0057255 0.000498923 1.57725e-05 1.91616e-07 1.57675e-09 1.90457e-11 8.49685e-14 1.02992e-15 1.01138e-21 1.22592e-19 -1.22592e-19 0 0 0 0 -5.86563e-22 1.23765e-19 -2.46357e-19 2.46357e-19 0 -2.46357e-19 2.46357e-19 -2.46357e-19 2.46357e-19 -2.46357e-19 2.4577e-19 5.86563e-22 -2.46357e-19 2.46357e-19 -2.46357e-19 2.4577e-19 5.86563e-22 -2.46357e-19 2.46357e-19 -2.46357e-19 2.4577e-19 -2.4577e-19 2.46357e-19 0 0 0.0602698 0.113385 0.152362 0.171873 0.169748 0.146269 0.103357 0.0539055 0.0186931 0.00399159 0.000456169 2.40033e-05 4.84042e-07 6.47129e-09 1.05833e-10 1.09061e-12 1.07617e-14 7.18896e-17 2.46357e-19 0 -2.46357e-19 2.46357e-19 -2.46357e-19 2.46357e-19 0 0 -4.92713e-19 4.92713e-19 0 0 0 -4.92713e-19 4.92713e-19 0 0 0 -4.92713e-19 4.92713e-19 0 0 0 -4.92713e-19 4.92713e-19 0 0 0 -4.92713e-19 7.38483e-19 -4.92127e-19 0 0 0.017307 0.0306044 0.036459 0.0331882 0.0228841 0.0114158 0.00392756 0.000872638 0.000112819 7.44539e-06 2.365e-07 5.57551e-09 1.62479e-10 2.65795e-12 4.30659e-14 5.66396e-16 1.23684e-19 -1.23178e-19 0 0 0 1.23178e-19 -2.46357e-19 2.46357e-19 0 -2.46357e-19 2.4577e-19 -2.4577e-19 2.46357e-19 0 -2.46357e-19 2.4577e-19 -2.4577e-19 2.46357e-19 0 -2.46357e-19 2.4577e-19 -2.4577e-19 2.46357e-19 0 -2.46357e-19 2.4577e-19 -2.4577e-19 2.46357e-19 0 -2.46357e-19 0 2.4577e-19 0 0 0 0.000502702 0.000699031 0.000558329 0.000294731 0.000104148 2.37383e-05 3.25356e-06 2.59469e-07 1.45935e-08 8.88797e-10 4.30393e-11 1.23481e-12 3.56828e-14 9.67874e-16 1.03492e-17 1.23178e-19 -2.46357e-19 2.46357e-19 -1.23178e-19 0 1.23178e-19 -1.23178e-19 1.22592e-19 -2.4577e-19 0 2.4577e-19 0 0 -2.4577e-19 0 2.4577e-19 0 0 -2.4577e-19 0 2.4577e-19 0 0 -2.4577e-19 0 2.4577e-19 0 0 5.86563e-22 -2.46357e-19 0 4.92127e-19 -7.38483e-19 4.92127e-19 0 0 3.67124e-08 4.29427e-08 2.65106e-08 1.05728e-08 3.13217e-09 7.52228e-10 1.35689e-10 1.58944e-11 1.2113e-12 8.10438e-14 5.30885e-15 2.31522e-16 2.45349e-19 -1.22885e-19 0 1.22885e-19 -2.46357e-19 1.23472e-19 0 1.22885e-19 -1.22885e-19 -1.23178e-19 3.68655e-19 -3.68948e-19 0 2.46063e-19 0 0 -2.46063e-19 0 2.46063e-19 -2.46063e-19 4.92127e-19 -4.92127e-19 0 2.46063e-19 -2.46063e-19 2.46063e-19 -2.46063e-19 2.46063e-19 0 -2.46063e-19 2.46063e-19 2.93282e-22 -4.9242e-19 7.38483e-19 -2.46357e-19 -4.92127e-19 4.92127e-19 0 0 1.43843e-13 2.14375e-13 1.88292e-13 1.12228e-13 4.82618e-14 1.5806e-14 3.89288e-15 6.43737e-16 7.19918e-17 1.22391e-19 -1.23178e-19 1.84767e-19 -1.23178e-19 2.93282e-22 0 -2.93282e-22 1.23178e-19 -2.46063e-19 1.23178e-19 1.22885e-19 -1.22885e-19 0 -1.23472e-19 2.46357e-19 0 -2.46063e-19 2.4577e-19 -2.4577e-19 2.46063e-19 0 -2.46063e-19 2.46063e-19 -2.46357e-19 2.46357e-19 0 -2.46063e-19 -2.93282e-22 2.93282e-22 2.46063e-19 -2.93282e-22 0 2.93282e-22 -2.46063e-19 -2.93282e-22 2.46063e-19 0 -4.92127e-19 4.92127e-19 0 0 0 1.31863e-18 1.90476e-18 1.51447e-20 5.03978e-22 -3.07946e-20 0 6.15891e-20 -6.15891e-20 6.15891e-20 -6.15891e-20 0 1.23178e-19 -2.46357e-19 2.46357e-19 -1.23178e-19 0 0 1.22592e-19 -1.22592e-19 -1.23178e-19 2.46357e-19 0 -2.46357e-19 2.46357e-19 0 0 -4.92713e-19 4.92713e-19 0 0 -2.46357e-19 2.46357e-19 -2.46357e-19 2.46357e-19 -2.46357e-19 2.46357e-19 -5.86563e-22 5.86563e-22 -2.46357e-19 2.4577e-19 -4.91833e-19 7.3819e-19 -4.92127e-19 2.4577e-19 0 -4.92127e-19 4.92127e-19 4.92127e-19 -9.84253e-19 0 0 0 -7.62532e-21 1.58372e-20 0 -3.07946e-20 6.15891e-20 -6.15891e-20 0 6.15891e-20 -6.15891e-20 0 1.23178e-19 -1.23178e-19 0 0 0 0 1.22592e-19 -1.22592e-19 -1.23178e-19 2.46357e-19 -2.46357e-19 2.46357e-19 0 0 -2.46357e-19 2.4577e-19 -2.4577e-19 2.46357e-19 -2.46357e-19 2.4577e-19 5.86563e-22 -2.46357e-19 2.46357e-19 -2.46357e-19 2.46357e-19 -5.86563e-22 5.86563e-22 -2.46357e-19 2.4577e-19 -4.91833e-19 4.91833e-19 0 0 -4.92127e-19 4.92127e-19 0 0 0 0 0 0 8.79845e-22 0 -3.07946e-20 6.15891e-20 -6.15891e-20 6.15891e-20 -6.15891e-20 0 0 1.22592e-19 -2.4577e-19 2.46357e-19 -1.23178e-19 1.23178e-19 -2.46357e-19 2.46357e-19 -1.23178e-19 0 1.23178e-19 -2.46357e-19 2.4577e-19 5.86563e-22 -2.46357e-19 0 2.4577e-19 0 -2.4577e-19 2.46357e-19 -2.46357e-19 4.92127e-19 -4.92127e-19 0 2.46357e-19 0 -2.46357e-19 2.4577e-19 -2.4577e-19 2.46357e-19 -4.92713e-19 9.84253e-19 -9.84253e-19 4.92127e-19 0 0 0 0 -4.92127e-19 4.92127e-19 0 0 0 2.31692e-20 -4.57519e-20 3.07946e-20 3.07946e-20 -6.15891e-20 0 6.15891e-20 -6.15891e-20 0 1.22592e-19 -2.4577e-19 2.46357e-19 -1.23178e-19 0 1.22592e-19 -1.22592e-19 0 0 1.23178e-19 -2.46357e-19 2.4577e-19 5.86563e-22 -2.46357e-19 0 2.4577e-19 0 5.86563e-22 -2.46357e-19 2.46357e-19 -2.46357e-19 0 4.92127e-19 -4.92127e-19 2.46357e-19 -4.92713e-19 7.38483e-19 -2.46357e-19 -2.4577e-19 2.4577e-19 0 -4.92127e-19 4.92127e-19 0 0 0 0 -4.92127e-19 4.92127e-19 0 0 0 -7.62532e-21 1.58372e-20 0 -3.07946e-20 6.15891e-20 -6.15891e-20 0 6.15891e-20 6.15891e-20 -2.46357e-19 2.46357e-19 -1.23178e-19 0 0 1.22592e-19 -2.4577e-19 1.23178e-19 1.23178e-19 0 0 -2.46357e-19 0 2.46357e-19 0 -2.46357e-19 2.4577e-19 5.86563e-22 -2.46357e-19 2.46357e-19 -2.46357e-19 2.46357e-19 -5.86563e-22 -2.4577e-19 0 2.4577e-19 -2.4577e-19 2.4577e-19 0 0 0 0 0 -4.92127e-19 4.92127e-19 0 -4.92127e-19 4.92127e-19 0 0 0 0 -1.49574e-20 3.07946e-20 -3.07946e-20 0 0 6.15891e-20 -6.15891e-20 2.93282e-22 0 -2.93282e-22 1.23178e-19 -2.46063e-19 2.46063e-19 -1.22885e-19 -2.93282e-22 0 1.23178e-19 -2.46063e-19 2.46063e-19 -2.46063e-19 2.46063e-19 -2.46357e-19 2.46357e-19 0 0 -4.9242e-19 4.9242e-19 0 -2.46063e-19 2.46063e-19 0 -2.46357e-19 2.93282e-22 2.4577e-19 0 0 -4.92127e-19 4.92127e-19 0 0 0 -4.92127e-19 4.92127e-19 0 0 -4.92127e-19 9.84253e-19 -9.84253e-19 0 0 0 -1.49574e-20 3.07946e-20 -3.07946e-20 0 6.15891e-20 -6.15891e-20 0 2.93282e-22 0 -2.93282e-22 1.23178e-19 -1.22885e-19 -2.93282e-22 2.93282e-22 -1.23472e-19 2.46357e-19 0 -2.46063e-19 -2.93282e-22 2.46063e-19 2.93282e-22 -2.46357e-19 2.46357e-19 0 -2.46357e-19 2.46063e-19 -2.46063e-19 2.46357e-19 -2.46063e-19 2.46063e-19 -2.46357e-19 0 2.46063e-19 0 0 0 0 -4.92127e-19 4.92127e-19 -4.92127e-19 4.92127e-19 0 0 0 -4.91833e-19 4.91833e-19 0 0 0 0 0 2.31692e-20 -4.60452e-20 9.2677e-20 -9.23837e-20 0 0 6.10026e-20 6.21757e-20 -1.23178e-19 0 -1.23178e-19 2.46357e-19 -2.46357e-19 2.46357e-19 -1.23765e-19 1.23765e-19 -2.46357e-19 4.92127e-19 -7.38483e-19 7.38483e-19 -4.92127e-19 2.4577e-19 -2.4577e-19 0 2.4577e-19 0 -2.4577e-19 0 4.92127e-19 -4.92127e-19 2.4577e-19 -2.4577e-19 2.4577e-19 0 0 -4.92127e-19 4.92127e-19 4.92127e-19 -9.84253e-19 0 4.92127e-19 4.92127e-19 -9.84253e-19 4.92127e-19 -4.91833e-19 9.8396e-19 -9.84253e-19 4.92127e-19 0 0 0 2.31692e-20 -4.60452e-20 9.2677e-20 -9.23837e-20 0 0 6.10026e-20 6.21757e-20 -2.46357e-19 2.46357e-19 -2.46357e-19 2.46357e-19 -2.46357e-19 2.46357e-19 1.22592e-19 -3.68948e-19 0 4.92127e-19 -4.92127e-19 0 0 4.92127e-19 -4.92127e-19 0 2.4577e-19 0 -2.4577e-19 0 4.92127e-19 -4.92127e-19 2.4577e-19 2.46357e-19 -7.38483e-19 4.92127e-19 0 -4.92127e-19 4.92127e-19 4.92127e-19 -9.84253e-19 4.92127e-19 0 -4.91833e-19 4.91833e-19 -4.92127e-19 9.84253e-19 -4.92127e-19 -4.92127e-19 4.92127e-19 0 0 0 -7.62532e-21 1.58372e-20 0 -3.07946e-20 6.15891e-20 -6.15891e-20 -6.15891e-20 1.84767e-19 -1.23178e-19 0 1.23178e-19 -1.23178e-19 0 0 0 -1.23178e-19 4.92127e-19 -4.92127e-19 2.46357e-19 -2.46357e-19 2.46357e-19 -2.46357e-19 2.46357e-19 0 -2.46357e-19 2.4577e-19 -2.4577e-19 2.46357e-19 -2.46357e-19 2.46357e-19 -2.46357e-19 2.4577e-19 0 -4.92127e-19 4.92127e-19 4.92127e-19 -4.92127e-19 -4.92127e-19 4.92127e-19 0 0 -4.91833e-19 4.91833e-19 0 0 -4.92127e-19 4.92127e-19 0 0 0 0 -7.62532e-21 1.58372e-20 0 -3.07946e-20 0 6.15891e-20 0 -6.15891e-20 0 0 1.23178e-19 -2.46357e-19 2.46357e-19 -1.23178e-19 0 1.23178e-19 -5.86563e-22 -2.4577e-19 2.46357e-19 -2.46357e-19 2.46357e-19 -2.46357e-19 2.46357e-19 0 0 -4.92713e-19 7.38483e-19 -4.92127e-19 2.4577e-19 -2.4577e-19 0 2.4577e-19 0 0 -4.92127e-19 9.84253e-19 -9.84253e-19 4.92127e-19 0 0 -4.92127e-19 4.92127e-19 0 0 0 -4.92127e-19 9.84253e-19 -9.84253e-19 0 0 0 -1.49574e-20 3.07946e-20 -3.07946e-20 0 6.15891e-20 -6.12959e-20 1.22885e-19 -2.46063e-19 1.22885e-19 2.93282e-22 1.22885e-19 -1.23178e-19 1.23178e-19 -2.46063e-19 2.46063e-19 0 -4.9242e-19 4.9242e-19 -2.46063e-19 2.4577e-19 2.93282e-22 -2.46063e-19 2.46063e-19 0 -2.46063e-19 2.4577e-19 0 0 -4.91833e-19 4.91833e-19 0 0 0 0 -4.92127e-19 0 4.92127e-19 0 0 -4.91833e-19 4.91833e-19 0 0 0 -4.91833e-19 4.91833e-19 0 0 0 0 0 1.58372e-20 -3.07946e-20 0 6.15891e-20 -6.15891e-20 2.93282e-22 -2.93282e-22 2.93282e-22 1.22885e-19 -1.22885e-19 -1.23472e-19 2.46357e-19 0 -2.46063e-19 -2.93282e-22 2.46357e-19 -2.46063e-19 2.46063e-19 -2.46063e-19 4.92127e-19 -4.9242e-19 2.46063e-19 -2.46063e-19 0 2.46063e-19 0 -2.4577e-19 4.92127e-19 -7.3819e-19 4.91833e-19 0 -4.92127e-19 9.84253e-19 -9.84253e-19 4.92127e-19 -4.92127e-19 9.84253e-19 -9.84253e-19 4.92127e-19 -4.91833e-19 4.91833e-19 4.92127e-19 -9.84253e-19 4.92127e-19 -4.91833e-19 9.8