<?xml version="1.0"?>
<VTKFile type="PolyData">
	<PolyData>
		<Piece NumberOfPoints="2601" NumberOfPolys="2500">
			<Points>
				<DataArray type="Float32" NumberOfComponents="3" format="ascii">
 0 0 0 0.450362 0 0 0.302514 0 0 0.414129 0 0 0.414902 0 0 0.443802 0 0 0.465007 0 0 0.483913 0 0 0.502423 0 0 0.516387 0 0 0.531602 0 0 0.543139 0 0 0.556277 0 0 0.566732 0 0 0.578547 0 0 0.587036 0 0 0.597283 0 0 0.604919 0 0 0.61363 0 0 0.620551 0 0 0.627816 0 0 0.63416 0 0 0.640885 0 0 0.646921 0 0 0.652387 0 0 0.657687 0 0 0.662796 0 0 0.667615 0 0 0.672311 0 0 0.676702 0 0 0.680834 0 0 0.684771 0 0 0.688527 0 0 0.692614 0 0 0.698025 0 0 0.706592 0 0 0.720796 0 0 0.740007 0 0 0.76 0 0 0.78 0 0 0.8 0 0 0.82 0 0 0.84 0 0 0.86 0 0 0.88 0 0 0.9 0 0 0.92 0 0 0.94 0 0 0.96 0 0 0.98 0 0 1 0 0 0 0.450362 0 0.169629 0.169629 0 0.400216 0.184373 0 0.345122 0.161162 0 0.412142 0.105114 0 0.435674 0.0936821 0 0.459892 0.0835134 0 0.480996 0.0746422 0 0.497498 0.06916 0 0.51486 0.0634186 0 0.528018 0.058594 0 0.54241 0.0537856 0 0.553734 0.0498594 0 0.566563 0.0466908 0 0.576105 0.0440375 0 0.587156 0.0418263 0 0.595198 0.0396771 0 0.604845 0.0377109 0 0.612132 0.0358529 0 0.620183 0.034154 0 0.626829 0.0326466 0 0.633792 0.0313457 0 0.640209 0.0301989 0 0.646333 0.0290688 0 0.651871 0.0279885 0 0.65723 0.0269732 0 0.662352 0.0260216 0 0.66721 0.0251391 0 0.671922 0.0243335 0 0.67634 0.0235935 0 0.680487 0.0229055 0 0.68445 0.0222556 0 0.688227 0.0216365 0 0.692344 0.0210621 0 0.697803 0.0205656 0 0.706449 0.0202029 0 0.72076 0.0200342 0 0.740007 0.0200006 0 0.76 0.02 0 0.78 0.02 0 0.8 0.02 0 0.82 0.02 0 0.84 0.02 0 0.86 0.02 0 0.88 0.02 0 0.9 0.02 0 0.92 0.02 0 0.94 0.02 0 0.96 0.02 0 0.98 0.02 0 1 0.02 0 0 0.302514 0 0.184373 0.400216 0 0.196753 0.196753 0 0.357839 0.251425 0 0.369669 0.207795 0 0.411336 0.177629 0 0.441313 0.158415 0 0.464802 0.147511 0 0.486611 0.134174 0 0.503626 0.124455 0 0.521416 0.114235 0 0.534882 0.106054 0 0.549499 0.0986615 0 0.560879 0.0925958 0 0.573274 0.0876984 0 0.582288 0.0831282 0 0.592975 0.0790436 0 0.60105 0.0750483 0 0.610159 0.0713462 0 0.617322 0.0679668 0 0.625016 0.0649641 0 0.631826 0.0623974 0 0.638562 0.0600625 0 0.64451 0.0578732 0 0.650455 0.0557812 0 0.65582 0.0537848 0 0.661066 0.0519026 0 0.665996 0.0501608 0 0.670771 0.0485664 0 0.675256 0.0471015 0 0.679463 0.0457346 0 0.683492 0.0444412 0 0.687331 0.0432069 0 0.691539 0.0420658 0 0.697147 0.041086 0 0.706033 0.0403798 0 0.720658 0.0400609 0 0.740005 0.040001 0 0.76 0.04 0 0.78 0.04 0 0.8 0.04 0 0.82 0.04 0 0.84 0.04 0 0.86 0.04 0 0.88 0.04 0 0.9 0.04 0 0.92 0.04 0 0.94 0.04 0 0.96 0.04 0 0.98 0.04 0 1 0.04 0 0 0.414129 0 0.161162 0.345122 0 0.251425 0.357839 0 0.225115 0.225115 0 0.324921 0.289861 0 0.380702 0.238658 0 0.414131 0.226925 0 0.44459 0.205536 0 0.468439 0.193531 0 0.491286 0.17783 0 0.508736 0.166261 0 0.526602 0.154257 0 0.540376 0.145051 0 0.554867 0.136934 0 0.565682 0.129813 0 0.577678 0.123525 0 0.586724 0.117284 0 0.597288 0.111506 0 0.605346 0.106018 0 0.61408 0.101059 0 0.621397 0.0967898 0 0.628976 0.0930063 0 0.635475 0.0895948 0 0.641881 0.0863493 0 0.647972 0.0832831 0 0.653575 0.0803142 0 0.658932 0.0775412 0 0.664016 0.0749677 0 0.668863 0.0726134 0 0.673472 0.0704454 0 0.677784 0.068414 0 0.681915 0.0664844 0 0.685858 0.0646448 0 0.690221 0.062955 0 0.696081 0.0615203 0 0.705373 0.0605092 0 0.720514 0.0600746 0 0.740003 0.0600009 0 0.76 0.06 0 0.78 0.06 0 0.8 0.06 0 0.82 0.06 0 0.84 0.06 0 0.86 0.06 0 0.88 0.06 0 0.9 0.06 0 0.92 0.06 0 0.94 0.06 0 0.96 0.06 0 0.98 0.06 0 1 0.06 0 0 0.414902 0 0.105114 0.412142 0 0.207795 0.369669 0 0.289861 0.324921 0 0.278121 0.278121 0 0.342071 0.315046 0 0.390728 0.263942 0 0.422067 0.261288 0 0.45073 0.239305 0 0.473818 0.227795 0 0.496039 0.211575 0 0.512937 0.200438 0 0.530407 0.188601 0 0.543722 0.179218 0 0.557791 0.170391 0 0.568577 0.161941 0 0.580761 0.154108 0 0.590097 0.146546 0 0.600432 0.139536 0 0.608596 0.133327 0 0.617247 0.127832 0 0.624431 0.123044 0 0.631553 0.118555 0 0.638163 0.114395 0 0.644543 0.110324 0 0.65044 0.106456 0 0.656011 0.10282 0 0.661281 0.0994771 0 0.666238 0.0963992 0 0.671007 0.0935563 0 0.675475 0.0908708 0 0.679739 0.0883157 0 0.683837 0.0858892 0 0.688425 0.0836813 0 0.694649 0.0818355 0 0.704521 0.0805773 0 0.720357 0.0800734 0 0.740002 0.0800006 0 0.76 0.08 0 0.78 0.08 0 0.8 0.08 0 0.82 0.08 0 0.84 0.08 0 0.86 0.08 0 0.88 0.08 0 0.9 0.08 0 0.92 0.08 0 0.94 0.08 0 0.96 0.08 0 0.98 0.08 0 1 0.08 0 0 0.443802 0 0.0936821 0.435674 0 0.177629 0.411336 0 0.238658 0.380702 0 0.315046 0.342071 0 0.326132 0.326132 0 0.367028 0.327212 0 0.400482 0.288814 0 0.430319 0.288584 0 0.456941 0.266544 0 0.478256 0.256685 0 0.499519 0.240772 0 0.515845 0.230373 0 0.532912 0.218367 0 0.546123 0.208183 0 0.560268 0.198283 0 0.571342 0.188792 0 0.583497 0.179927 0 0.592916 0.171882 0 0.603027 0.164572 0 0.611081 0.158203 0 0.619223 0.152248 0 0.626508 0.146903 0 0.633691 0.141725 0 0.640149 0.136777 0 0.646532 0.13207 0 0.65229 0.12767 0 0.657838 0.123615 0 0.662936 0.119861 0 0.667891 0.116358 0 0.672565 0.113039 0 0.676994 0.109876 0 0.681297 0.106892 0 0.68619 0.104209 0 0.692906 0.10201 0 0.703549 0.100581 0 0.720216 0.10006 0 0.740001 0.1 0 0.76 0.1 0 0.78 0.1 0 0.8 0.1 0 0.82 0.1 0 0.84 0.1 0 0.86 0.1 0 0.88 0.1 0 0.9 0.1 0 0.92 0.1 0 0.94 0.1 0 0.96 0.1 0 0.98 0.1 0 1 0.1 0 0 0.465007 0 0.0835134 0.459892 0 0.158415 0.441313 0 0.226925 0.414131 0 0.263942 0.390728 0 0.327212 0.367028 0 0.350387 0.350387 0 0.383497 0.343033 0 0.410358 0.311274 0 0.437223 0.312346 0 0.46247 0.289412 0 0.482561 0.281556 0 0.503147 0.265354 0 0.51891 0.255167 0 0.535728 0.242661 0 0.548923 0.232012 0 0.563003 0.22152 0 0.57402 0.211917 0 0.58585 0.202939 0 0.595073 0.195009 0 0.604602 0.187463 0 0.612593 0.180777 0 0.620937 0.17434 0 0.628159 0.168298 0 0.635228 0.162496 0 0.641772 0.157095 0 0.647906 0.152005 0 0.653676 0.147315 0 0.659043 0.142913 0 0.664167 0.138775 0 0.669096 0.134849 0 0.673706 0.131111 0 0.678273 0.127617 0 0.683559 0.124515 0 0.690919 0.122033 0 0.702551 0.120525 0 0.720111 0.12004 0 0.74 0.12 0 0.76 0.12 0 0.78 0.12 0 0.8 0.12 0 0.82 0.12 0 0.84 0.12 0 0.86 0.12 0 0.88 0.12 0 0.9 0.12 0 0.92 0.12 0 0.94 0.12 0 0.96 0.12 0 0.98 0.12 0 1 0.12 0 0 0.483913 0 0.0746422 0.480996 0 0.147511 0.464802 0 0.205536 0.44459 0 0.261288 0.422067 0 0.288814 0.400482 0 0.343033 0.383497 0 0.369288 0.369288 0 0.396988 0.358952 0 0.420227 0.331274 0 0.443838 0.333179 0 0.46784 0.308748 0 0.486627 0.302733 0 0.506602 0.285907 0 0.521952 0.275966 0 0.538358 0.263241 0 0.551387 0.252821 0 0.565155 0.242293 0 0.575964 0.233003 0 0.587268 0.223836 0 0.596325 0.215831 0 0.605916 0.207999 0 0.614076 0.200914 0 0.622148 0.193935 0 0.629502 0.187541 0 0.636399 0.181415 0 0.642856 0.175772 0 0.648913 0.170449 0 0.654592 0.165456 0 0.659921 0.160707 0 0.665093 0.15623 0 0.669917 0.151974 0 0.674806 0.148036 0 0.680587 0.144583 0 0.688768 0.141905 0 0.701635 0.140424 0 0.720047 0.140021 0 0.74 0.14 0 0.76 0.14 0 0.78 0.14 0 0.8 0.14 0 0.82 0.14 0 0.84 0.14 0 0.86 0.14 0 0.88 0.14 0 0.9 0.14 0 0.92 0.14 0 0.94 0.14 0 0.96 0.14 0 0.98 0.14 0 1 0.14 0 0 0.502423 0 0.06916 0.497498 0 0.134174 0.486611 0 0.193531 0.468439 0 0.239305 0.45073 0 0.288584 0.430319 0 0.311274 0.410358 0 0.358952 0.396988 0 0.38571 0.38571 0 0.409575 0.372808 0 0.431024 0.349249 0 0.452021 0.350053 0 0.473828 0.324889 0 0.491421 0.320425 0 0.51051 0.303172 0 0.525317 0.293843 0 0.541184 0.281134 0 0.553846 0.271238 0 0.56701 0.260593 0 0.577435 0.251584 0 0.588622 0.242318 0 0.597797 0.2343 0 0.607066 0.226114 0 0.615261 0.218814 0 0.623252 0.211656 0 0.630366 0.205039 0 0.637282 0.198778 0 0.643633 0.192921 0 0.649649 0.187363 0 0.655236 0.182106 0 0.660602 0.177135 0 0.665675 0.172438 0 0.670955 0.168125 0 0.677355 0.164404 0 0.686557 0.161643 0 0.700904 0.160298 0 0.720016 0.160009 0 0.74 0.16 0 0.76 0.16 0 0.78 0.16 0 0.8 0.16 0 0.82 0.16 0 0.84 0.16 0 0.86 0.16 0 0.88 0.16 0 0.9 0.16 0 0.92 0.16 0 0.94 0.16 0 0.96 0.16 0 0.98 0.16 0 1 0.16 0 0 0.516387 0 0.0634186 0.51486 0 0.124455 0.503626 0 0.17783 0.491286 0 0.227795 0.473818 0 0.266544 0.456941 0 0.312346 0.437223 0 0.331274 0.420227 0 0.372808 0.409575 0 0.399622 0.399622 0 0.421062 0.384637 0 0.441911 0.364857 0 0.461556 0.363059 0 0.480715 0.338832 0 0.497502 0.33508 0 0.515262 0.317834 0 0.529355 0.309306 0 0.544323 0.296625 0 0.556306 0.287301 0 0.569062 0.276629 0 0.579361 0.268024 0 0.590096 0.258573 0 0.59909 0.250552 0 0.608316 0.242356 0 0.616275 0.234945 0 0.624046 0.227694 0 0.631188 0.221006 0 0.637994 0.214623 0 0.644259 0.208626 0 0.650162 0.202935 0 0.655681 0.197551 0 0.661041 0.192479 0 0.666791 0.187867 0 0.673979 0.18398 0 0.684439 0.181286 0 0.700414 0.180174 0 0.720004 0.180003 0 0.74 0.18 0 0.76 0.18 0 0.78 0.18 0 0.8 0.18 0 0.82 0.18 0 0.84 0.18 0 0.86 0.18 0 0.88 0.18 0 0.9 0.18 0 0.92 0.18 0 0.94 0.18 0 0.96 0.18 0 0.98 0.18 0 1 0.18 0 0 0.531602 0 0.058594 0.528018 0 0.114235 0.521416 0 0.166261 0.508736 0 0.211575 0.496039 0 0.256685 0.478256 0 0.289412 0.46247 0 0.333179 0.443838 0 0.349249 0.431024 0 0.384637 0.421062 0 0.411394 0.411394 0 0.431442 0.39508 0 0.451662 0.378605 0 0.47086 0.373809 0 0.487818 0.351522 0 0.503886 0.347666 0 0.520258 0.330741 0 0.533609 0.32287 0 0.547706 0.31025 0 0.559319 0.301613 0 0.571429 0.290806 0 0.581271 0.282416 0 0.591786 0.273063 0 0.600595 0.265141 0 0.609419 0.25693 0 0.617287 0.249566 0 0.62487 0.242334 0 0.631938 0.235663 0 0.638517 0.229252 0 0.64467 0.223229 0 0.650408 0.217471 0 0.656098 0.212093 0 0.662415 0.207259 0 0.670596 0.203337 0 0.682617 0.200895 0 0.70015 0.200079 0 0.720001 0.200001 0 0.74 0.2 0 0.76 0.2 0 0.78 0.2 0 0.8 0.2 0 0.82 0.2 0 0.84 0.2 0 0.86 0.2 0 0.88 0.2 0 0.9 0.2 0 0.92 0.2 0 0.94 0.2 0 0.96 0.2 0 0.98 0.2 0 1 0.2 0 0 0.543139 0 0.0537856 0.54241 0 0.106054 0.534882 0 0.154257 0.526602 0 0.200438 0.512937 0 0.240772 0.499519 0 0.281556 0.482561 0 0.308748 0.46784 0 0.350053 0.452021 0 0.364857 0.441911 0 0.39508 0.431442 0
[...]
			<PointData Scalars="VitesseX">
				<DataArray Name="VitesseX" type="Float32" format="ascii">
 0 1.78541 0.403234 1.1755 1.01413 1.14156 1.13082 1.22241 1.25153 1.25523 1.32304 1.34597 1.34934 1.40384 1.48224 1.51295 1.52425 1.54068 1.60512 1.64117 1.70363 1.6775 1.65256 1.77289 1.75364 1.80264 1.76414 1.81051 1.83494 1.8517 1.8957 1.90786 1.89698 1.80669 1.55459 1.02874 0.25889 0.00433055 4.0222e-07 3.97172e-12 4.367e-17 -6.04599e-20 6.04599e-20 0 0 -6.04599e-20 6.04599e-20 -6.04599e-20 6.04599e-20 0 0 0 0.16384 1.35119 0.643431 1.00939 1.06865 1.13517 1.18289 1.23673 1.25235 1.30671 1.34998 1.35614 1.40071 1.49066 1.51834 1.51237 1.55118 1.59469 1.65196 1.67968 1.67422 1.67636 1.76492 1.74638 1.79742 1.77136 1.80489 1.83742 1.85124 1.89307 1.90683 1.8955 1.80335 1.54799 1.01802 0.249511 0.00397746 3.53064e-07 3.6274e-12 3.46668e-17 -6.04599e-20 6.04599e-20 0 0 -6.04599e-20 6.04599e-20 -6.04599e-20 6.04599e-20 0 0 0 0.746377 0.207515 1.1275 0.795965 0.989894 1.04281 1.15209 1.19069 1.2236 1.31087 1.33484 1.35139 1.40926 1.48112 1.50572 1.51036 1.52714 1.61052 1.63599 1.65895 1.65733 1.72285 1.73045 1.74166 1.78321 1.78614 1.79487 1.84086 1.85056 1.88453 1.90471 1.89124 1.79317 1.52782 0.985382 0.222668 0.00307094 2.39372e-07 2.75632e-12 1.15456e-17 -3.023e-20 9.24681e-20 -6.22382e-20 0 3.20082e-20 -3.20082e-20 3.20082e-20 -3.20082e-20 0 0 0 0.610631 0.772793 0.297907 0.769667 0.904465 0.995133 1.07627 1.15021 1.19803 1.27807 1.31656 1.33724 1.39525 1.46894 1.48717 1.49052 1.53326 1.58873 1.62877 1.62861 1.67766 1.72405 1.69611 1.74039 1.76646 1.79525 1.79305 1.83814 1.85032 1.87117 1.902 1.88415 1.7758 1.49294 0.929346 0.182259 0.00197262 1.26507e-07 1.73403e-12 3.90288e-18 -6.22382e-20 6.22382e-20 0 0 -6.28309e-20 6.28309e-20 -6.28309e-20 6.28309e-20 0 0 0 0.252368 0.562317 0.773616 0.65348 0.867845 0.952596 1.04434 1.09265 1.1792 1.2499 1.27118 1.31907 1.37379 1.43149 1.4553 1.48024 1.51226 1.57269 1.58563 1.63878 1.68349 1.69047 1.68669 1.73329 1.7491 1.7947 1.79986 1.82957 1.84922 1.85625 1.89714 1.87343 1.75052 1.44175 0.847351 0.134627 0.00103673 5.32389e-08 9.02217e-13 -5.12588e-18 -6.22382e-20 0 6.22382e-20 0 -5.92744e-22 5.92744e-22 -1.25069e-19 1.25069e-19 0 0 0 0.234391 0.440313 0.558751 0.850528 0.927914 0.962872 0.981258 1.07386 1.13555 1.20144 1.23857 1.28761 1.35169 1.39933 1.42859 1.46141 1.50153 1.52856 1.58123 1.63997 1.66285 1.64392 1.70893 1.70887 1.74802 1.77793 1.8099 1.81826 1.84633 1.84373 1.88833 1.85713 1.71592 1.37245 0.736659 0.0876742 0.000435859 1.85066e-08 3.90751e-13 -1.03157e-17 0 1.24476e-19 -1.24476e-19 0 1.24476e-19 -1.24476e-19 1.24476e-19 -1.24476e-19 0 0 0 0.200636 0.358465 0.555465 0.589899 0.777527 0.96444 1.00788 1.01868 1.10107 1.14158 1.21458 1.27171 1.31574 1.37324 1.40823 1.4397 1.46998 1.51849 1.57715 1.63544 1.60887 1.64449 1.69904 1.69642 1.75146 1.75653 1.81064 1.81009 1.83952 1.83877 1.87429 1.83205 1.66876 1.28323 0.597426 0.048846 0.000142468 5.51304e-09 1.42187e-13 -3.35282e-24 1.24476e-19 -1.24476e-19 1.24476e-19 0 -1.24476e-19 0 1.24476e-19 -1.24476e-19 0 0 0 0.166325 0.364108 0.476782 0.647991 0.642409 0.812731 0.975969 1.03503 1.0453 1.10478 1.17196 1.23778 1.29663 1.33184 1.3789 1.40242 1.44655 1.50968 1.57321 1.57065 1.59821 1.64254 1.6658 1.69668 1.74311 1.74213 1.7955 1.80865 1.82803 1.84079 1.85629 1.79601 1.60306 1.17027 0.438078 0.0224647 3.49384e-05 1.40482e-09 4.33087e-14 1.2518e-19 -1.24476e-19 0 1.24476e-19 0 -2.48953e-19 2.48953e-19 -2.48953e-19 2.48953e-19 0 0 0 0.158063 0.324366 0.463171 0.558586 0.716639 0.713858 0.857862 1.00894 1.06994 1.08085 1.14772 1.18998 1.25804 1.31083 1.33425 1.37812 1.43773 1.49881 1.51579 1.53918 1.59307 1.62885 1.63266 1.70502 1.71563 1.73567 1.76962 1.80738 1.81727 1.8415 1.83654 1.75026 1.51263 1.02418 0.279003 0.008197 6.16924e-06 2.89651e-10 1.07386e-14 2.48953e-19 -2.48953e-19 0 -1.24476e-19 2.48953e-19 -1.24476e-19 2.48953e-19 -4.97905e-19 4.97905e-19 -2.48953e-19 0 0 0.141706 0.303047 0.427233 0.548803 0.649105 0.788323 0.778906 0.918703 1.0532 1.0889 1.14262 1.17448 1.22853 1.27409 1.3252 1.36639 1.42648 1.45528 1.47697 1.53344 1.59044 1.58583 1.63998 1.68474 1.69956 1.72062 1.75112 1.79504 1.81566 1.83656 1.81163 1.69418 1.39658 0.832744 0.147258 0.00227032 7.66133e-07 4.52915e-11 2.05946e-15 -1.24476e-19 0 0 0 0 2.48953e-19 -2.48953e-19 0 0 0 0 0 0.136246 0.2875 0.415484 0.522099 0.632137 0.707291 0.847502 0.858524 0.978827 1.08358 1.11245 1.17412 1.22858 1.23833 1.31509 1.37336 1.38607 1.42217 1.47977 1.54351 1.54752 1.5867 1.6326 1.66215 1.69425 1.70429 1.74242 1.77677 1.81523 1.82648 1.77498 1.61856 1.25598 0.59865 0.0612774 0.000451909 7.22665e-08 5.37401e-12 2.365e-16 -4.97905e-19 2.48953e-19 2.48953e-19 -2.48953e-19 0 0 0 2.48953e-19 -4.97905e-19 4.97905e-19 0 0 0.124227 0.27289 0.378952 0.499207 0.589429 0.708582 0.769635 0.91737 0.938625 1.02458 1.1068 1.13887 1.201 1.26214 1.30005 1.33619 1.37333 1.428 1.49563 1.51231 1.53381 1.59011 1.6174 1.64106 1.69276 1.69093 1.74275 1.75744 1.80918 1.80682 1.72857 1.51212 1.07745 0.357887 0.0191322 6.01711e-05 6.56609e-09 5.55317e-13 3.50707e-21 0 0 2.48953e-19 -2.48953e-19 0 0 0 2.48953e-19 -2.48953e-19 0 0 0 0.119589 0.244386 0.369731 0.462336 0.594904 0.666493 0.790446 0.815332 0.953048 0.987716 1.05986 1.1548 1.13961 1.25166 1.30725 1.31429 1.37715 1.44683 1.47573 1.48065 1.53962 1.58331 1.58265 1.64829 1.66146 1.70157 1.73129 1.75117 1.79636 1.77205 1.66235 1.37488 0.835289 0.166679 0.00425447 4.95546e-06 5.92689e-10 5.67727e-14 -2.44735e-19 2.48953e-19 -2.48953e-19 -2.48953e-19 4.97905e-19 -2.48953e-19 2.48953e-19 -2.48953e-19 -2.48953e-19 7.45672e-19 -7.45672e-19 0 0 0.11364 0.242462 0.349175 0.469289 0.559081 0.676566 0.729837 0.856495 0.864244 0.988398 1.02854 1.07517 1.17275 1.22552 1.2712 1.32741 1.37417 1.43447 1.45037 1.48379 1.53508 1.54475 1.59003 1.6252 1.64827 1.70219 1.71621 1.75205 1.77295 1.72146 1.55689 1.20057 0.539536 0.0568084 0.000626615 2.53108e-07 3.99988e-11 4.84855e-15 -2.48249e-19 0 2.48953e-19 -4.97905e-19 4.97905e-19 0 -2.48953e-19 0 -1.18549e-21 0 1.18549e-21 0 0 0.116546 0.236008 0.350265 0.448602 0.556899 0.632042 0.740197 0.776788 0.903758 0.893263 1.01645 1.08189 1.14151 1.22314 1.22211 1.32521 1.38912 1.40692 1.42754 1.48786 1.50205 1.53468 1.58594 1.60495 1.64604 1.69181 1.7068 1.75307 1.73302 1.65264 1.4114 0.954171 0.265877 0.0133525 5.50901e-05 1.11726e-08 1.97552e-12 2.56805e-16 0 0 2.48953e-19 0 -2.48953e-19 0 0 0 -1.18549e-21 -2.47767e-19 4.97905e-19 0 0 0.114448 0.224519 0.335379 0.42747 0.529081 0.618557 0.691841 0.784408 0.814963 0.951439 0.946903 1.05324 1.12017 1.14228 1.2423 1.28014 1.30508 1.37826 1.42374 1.45938 1.48448 1.54248 1.5657 1.5944 1.65327 1.66031 1.7152 1.72503 1.68775 1.5393 1.22953 0.624393 0.0922476 0.00201493 2.60162e-06 5.70424e-10 1.01683e-13 -1.02619e-17 0 2.48953e-19 -4.97905e-19 4.97905e-19 -2.48953e-19 0 -2.48953e-19 4.97905e-19 -4.97905e-19 4.97905e-19 0 0 0 0.107383 0.213703 0.314286 0.411933 0.501423 0.593778 0.664658 0.741817 0.83759 0.869612 0.980548 0.970626 1.07908 1.18411 1.18423 1.25773 1.29703 1.33409 1.39862 1.41103 1.47535 1.51572 1.54281 1.60327 1.61864 1.66459 1.69676 1.68725 1.60715 1.38682 0.963377 0.300903 0.0210502 0.000172029 7.23466e-08 2.14009e-11 4.96191e-15 -2.46359e-19 -4.97905e-19 4.97905e-19 -4.97905e-19 0 4.97905e-19 0 -4.97905e-19 4.97905e-19 0 -4.97905e-19 4.97905e-19 0 0 0.103126 0.201058 0.305727 0.392321 0.484594 0.561651 0.650465 0.729267 0.809495 0.870506 0.889422 1.02302 1.02191 1.14137 1.17393 1.21673 1.29647 1.31607 1.34535 1.40688 1.4501 1.49068 1.54524 1.58239 1.60778 1.65148 1.66448 1.62316 1.47913 1.18404 0.598578 0.0972135 0.00288355 7.23803e-06 2.20836e-09 6.1729e-13 1.13728e-16 -7.45672e-19 2.48953e-19 2.48953e-19 0 -4.97905e-19 0 4.97905e-19 0 0 -4.97905e-19 4.9672e-19 -4.9672e-19 0 0 0.0994862 0.198509 0.293818 0.380838 0.457868 0.549543 0.637459 0.7242 0.774515 0.831801 0.914641 0.956356 1.06608 1.06414 1.1316 1.21793 1.26255 1.29098 1.3094 1.3813 1.41729 1.4808 1.53637 1.55291 1.60304 1.62868 1.60889 1.52528 1.3027 0.871536 0.258186 0.0191654 0.000209457 1.44008e-07 6.48539e-11 2.08929e-14 -4.91542e-19 0 9.94625e-19 -9.94625e-19 0 4.97905e-19 -1.18549e-21 -4.9672e-19 4.97905e-19 -4.97905e-19 4.9672e-19 0 -4.9672e-19 0 0 0.0971093 0.19114 0.278602 0.359729 0.445762 0.541832 0.63078 0.688303 0.747347 0.820298 0.899294 0.960134 0.976124 1.07019 1.10139 1.15476 1.23513 1.27138 1.34267 1.34106 1.4056 1.47063 1.49337 1.55043 1.58265 1.58227 1.53289 1.36488 1.05724 0.471338 0.0682292 0.00214205 6.35925e-06 2.90767e-09 1.22404e-12 4.11296e-16 -1.18549e-21 1.18549e-21 -1.18549e-21 -4.9672e-19 0 4.97905e-19 -1.18549e-21 -4.9672e-19 4.97905e-19 -4.97905e-19 4.9672e-19 -4.9672e-19 4.97905e-19 0 0 0.0904989 0.180513 0.263818 0.351565 0.444804 0.530579 0.597861 0.660684 0.739276 0.813704 0.86574 0.909731 0.98137 1.01602 1.1018 1.11376 1.17956 1.25495 1.30621 1.34127 1.39146 1.42145 1.48275 1.53319 1.54443 1.51158 1.39927 1.15696 0.67598 0.157368 0.0106549 0.000101635 8.96952e-08 5.81284e-11 2.85761e-14 -2.81453e-21 4.9672e-19 1.18549e-21 -4.97905e-19 4.97905e-19 -4.97905e-19 4.97905e-19 -4.97905e-19 4.97905e-19 0 -4.97905e-19 0 4.97905e-19 0 0 0 0.0817521 0.171691 0.26161 0.350452 0.427626 0.500646 0.573957 0.658215 0.724301 0.781828 0.830804 0.904845 0.95642 1.00487 1.03602 1.11966 1.16968 1.19998 1.26824 1.33645 1.35956 1.41961 1.467 1.49508 1.48477 1.40652 1.19552 0.835496 0.268243 0.0323952 0.000695774 2.04585e-06 1.2607e-09 7.98286e-13 4.71922e-16 4.9672e-19 -4.9672e-19 0 4.97905e-19 -4.97905e-19 4.9672e-19 1.18549e-21 -4.97905e-19 4.97905e-19 -4.97905e-19 4.9672e-19 1.18549e-21 -4.97905e-19 4.97905e-19 0 0 0.0842263 0.173512 0.261124 0.33345 0.405181 0.485794 0.570427 0.635437 0.697431 0.753797 0.830356 0.876897 0.929899 0.967894 1.04965 1.07486 1.14257 1.20878 1.25214 1.27786 1.35624 1.38231 1.42065 1.42994 1.38003 1.21283 0.933916 0.371991 0.0692301 0.00259591 2.25178e-05 1.5154e-08 1.80393e-11 1.22856e-14 -2.10699e-17 9.94625e-19 -9.94625e-19 0 4.97905e-19 -4.97905e-19 9.94625e-19 -9.94625e-19 0 4.97905e-19 -4.97905e-19 9.94625e-19 -9.94625e-19 4.9672e-19 -4.9672e-19 0 0 0.0878908 0.167302 0.243686 0.321417 0.401686 0.480774 0.546936 0.614214 0.68001 0.751538 0.794351 0.85177 0.899621 0.974263 1.00149 1.06841 1.11769 1.18655 1.228 1.26386 1.33281 1.35923 1.35044 1.31387 1.18834 0.965288 0.45672 0.111971 0.00641121 0.000125073 1.32316e-07 2.35708e-10 1.51971e-13 2.04898e-17 4.97905e-19 -4.97905e-19 4.9672e-19 1.18549e-21 -4.97905e-19 4.97905e-19 -4.97905e-19 4.9672e-19 1.18549e-21 -4.97905e-19 4.97905e-19 -4.97905e-19 4.9672e-19 0 -4.9672e-19 0 0 0.0810546 0.158115 0.237627 0.316241 0.388037 0.457473 0.534161 0.6075 0.673504 0.721228 0.780608 0.831543 0.897817 0.925438 1.00181 1.03973 1.11647 1.14318 1.20346 1.26509 1.27898 1.31557 1.266 1.13414 0.935861 0.496575 0.145672 0.0120845 0.000383641 7.60385e-07 1.66119e-09 1.20087e-12 2.09602e-15 -4.95089e-19 4.97905e-19 -4.97905e-19 4.9672e-19 1.18549e-21 -4.97905e-19 4.97905e-19 -4.97905e-19 4.9672e-19 1.18549e-21 -4.97905e-19 4.97905e-19 -4.97905e-19 4.9672e-19 -4.9672e-19 4.97905e-19 0 0 0.0772428 0.153818 0.229046 0.303985 0.378326 0.453394 0.523398 0.588541 0.64676 0.709587 0.761016 0.81584 0.85697 0.93183 0.970027 1.03942 1.0605 1.15053 1.18181 1.20376 1.23332 1.18715 1.10414 0.903688 0.48934 0.156949 0.0170687 0.000744635 2.89862e-06 6.85026e-09 6.72229e-12 1.70094e-14 -1.95104e-17 0 0 0 -9.95811e-19 9.95811e-19 0 0 0 -9.95811e-19 9.95811e-19 0 0 0 -9.95811e-19 1.49253e-18 -9.94625e-19 0 0 0.0740143 0.148182 0.222283 0.296237 0.368297 0.436345 0.50405 0.568967 0.630255 0.683243 0.739101 0.794265 0.86094 0.901871 0.961334 0.995996 1.08337 1.08952 1.15387 1.14035 1.10254 1.01499 0.832948 0.461414 0.153263 0.018284 0.00096027 6.34661e-06 1.77032e-08 2.66925e-11 7.18242e-14 4.08998e-19 -4.9672e-19 4.97905e-19 0 -4.97905e-19 4.9672e-19 -4.9672e-19 4.97905e-19 0 -4.97905e-19 4.9672e-19 -4.9672e-19 4.97905e-19 0 -4.97905e-19 0 4.9672e-19 0 0 0 0.0725334 0.143849 0.21496 0.287088 0.35965 0.430825 0.496461 0.556634 0.612935 0.671881 0.729149 0.7855 0.829648 0.888868 0.935655 1.00391 1.01547 1.07754 1.0377 1.03479 0.90636 0.73473 0.381195 0.133177 0.0165804 0.000957322 7.70564e-06 2.64544e-08 6.15522e-11 1.81045e-13 2.26402e-16 0 0 -4.9672e-19 0 4.9672e-19 0 0 -4.9672e-19 0 4.9672e-19 0 0 1.18549e-21 -4.97905e-19 0 9.94625e-19 -1.49253e-18 9.94625e-19 0 0 0.0706519 0.141463 0.21209 0.28177 0.350185 0.416949 0.482764 0.544756 0.602541 0.656749 0.711183 0.764372 0.821914 0.871889 0.919659 0.943279 0.981646 0.946544 0.930678 0.786068 0.62034 0.282222 0.0984983 0.0112924 0.000737256 6.32895e-06 2.64234e-08 7.69797e-11 2.67627e-13 4.92985e-16 4.97313e-19 -4.97313e-19 9.94625e-19 -9.94625e-19 0 4.97313e-19 -4.97313e-19 4.97313e-19 -4.97313e-19 4.97313e-19 0 -4.97313e-19 4.97313e-19 5.92744e-22 -9.95218e-19 1.49253e-18 -4.97905e-19 -9.94625e-19 9.94625e-19 0 0 0.0693736 0.138214 0.206761 0.275438 0.343255 0.408959 0.470879 0.529546 0.587657 0.645894 0.701675 0.756728 0.799897 0.836992 0.86166 0.876482 0.845185 0.803361 0.654659 0.464569 0.189915 0.0604941 0.00585574 0.000379133 2.87686e-06 1.76334e-08 6.13785e-11 2.67709e-13 4.52316e-16 0 -4.97313e-19 4.97313e-19 -4.97905e-19 4.97905e-19 0 -4.97313e-19 -5.92744e-22 5.92744e-22 4.97313e-19 -5.92744e-22 0 5.92744e-22 -4.97313e-19 -5.92744e-22 4.97313e-19 0 -9.94625e-19 9.94625e-19 0 0 0 0.0683501 0.135742 0.202063 0.267361 0.331851 0.395618 0.458255 0.518026 0.57538 0.62838 0.676995 0.718425 0.75142 0.766702 0.761931 0.725279 0.654485 0.492814 0.301171 0.110708 0.0281877 0.00237901 0.000123778 7.50021e-07 6.81043e-09 2.64741e-11 1.8051e-13 4.93981e-16 0 0 -4.97905e-19 4.97905e-19 -4.97905e-19 4.97905e-19 -4.97905e-19 4.97905e-19 -1.18549e-21 1.18549e-21 -4.97905e-19 4.9672e-19 -9.94032e-19 1.49194e-18 -9.94625e-19 4.9672e-19 0 -9.94625e-19 9.94625e-19 9.94625e-19 -1.98925e-18 0 0 0.0665239 0.132475 0.197959 0.262646 0.326094 0.387474 0.445513 0.499511 0.548907 0.591459 0.62641 0.649501 0.652346 0.634543 0.58077 0.474568 0.315113 0.161225 0.0499784 0.00937599 0.000653281 2.22823e-05 1.29473e-07 1.65023e-09 6.61308e-12 7.13722e-14 2.26402e-16 -4.9672e-19 4.97905e-19 -4.97905e-19 4.9672e-19 1.18549e-21 -4.97905e-19 4.97905e-19 -4.97905e-19 4.97905e-19 -1.18549e-21 1.18549e-21 -4.97905e-19 4.9672e-19 -9.94032e-19 9.94032e-19 0 0 -9.94625e-19 9.94625e-19 0 0 0 0 0 0.0641059 0.127585 0.189881 0.250426 0.308657 0.3637 0.414515 0.45983 0.496652 0.520096 0.52826 0.518561 0.480056 0.398059 0.282825 0.159656 0.0640738 0.0150826 0.00194317 9.76631e-05 2.01838e-06 1.47204e-08 2.33636e-10 1.17113e-12 1.69695e-14 4.08998e-19 0 -4.9672e-19 4.97905e-19 -4.97905e-19 9.94625e-19 -9.94625e-19 0 4.97905e-19 0 -4.97905e-19 4.9672e-19 -4.9672e-19 4.97905e-19 -9.95811e-19 1.98925e-18 -1.98925e-18 9.94625e-19 0 0 0 0 -9.94625e-19 9.94625e-19 0 0 0.0589387 0.116836 0.172675 0.225571 0.274596 0.318314 0.354562 0.381023 0.394404 0.388397 0.354391 0.291112 0.209952 0.126048 0.0551028 0.0155079 0.00246744 0.000196865 6.18696e-06 8.73223e-08 1.22647e-09 1.7764e-11 1.47781e-13 2.13604e-15 -2.05062e-17 4.9672e-19 0 1.18549e-21 -4.97905e-19 4.97905e-19 -4.97905e-19 0 9.94625e-19 -9.94625e-19 4.97905e-19 -9.95811e-19 1.49253e-18 -4.97905e-19 -4.9672e-19 4.9672e-19 0 -9.94625e-19 9.94625e-19 0 0 0 0 -9.94625e-19 9.94625e-19 0 0 0.0484196 0.0951557 0.138622 0.177417 0.210123 0.234425 0.246236 0.240508 0.215305 0.174956 0.126356 0.0751912 0.0328046 0.00947933 0.0016747 0.000157677 6.95837e-06 1.38431e-07 2.79532e-09 5.66116e-11 7.74784e-13 1.22025e-14 2.04842e-17 5.00722e-19 0 -4.97905e-19 4.9672e-19 1.18549e-21 -4.97905e-19 4.97905e-19 -4.97905e-19 4.97905e-19 -1.18549e-21 -4.9672e-19 0 4.9672e-19 -4.9672e-19 4.9672e-19 0 0 0 0 0 -9.94625e-19 9.94625e-19 0 -9.94625e-19 9.94625e-19 0 0 0 0.0297026 0.0569377 0.0793537 0.0949617 0.102496 0.101686 0.0928734 0.0762931 0.05318 0.0289787 0.0114154 0.00306286 0.000519202 4.99916e-05 2.46192e-06 6.8097e-08 2.0822e-09 6.25021e-11 1.1687e-12 2.75911e-14 5.13066e-16 -2.00747e-17 -4.97905e-19 4.97905e-19 0 0 -9.95218e-19 9.95218e-19 0 -4.97313e-19 4.97313e-19 0 -4.97905e-19 5.92744e-22 4.9672e-19 0 0 -9.94625e-19 9.94625e-19 0 0 0 -9.94625e-19 9.94625e-19 0 0 -9.94625e-19 1.98925e-18 -1.98925e-18 0 0 0.00894761 0.0165167 0.0214961 0.0230161 0.0208186 0.0156516 0.00942026 0.00433644 0.00145836 0.000339279 5.06774e-05 4.47015e-06 2.31926e-07 1.00769e-08 5.29e-10 2.02167e-11 5.76552e-13 2.00713e-14 4.10307e-16 -3.40057e-21 4.97313e-19 5.92744e-22 -4.97905e-19 4.97905e-19 0 -4.97905e-19 4.97313e-19 -4.97313e-19 4.97905e-19 -4.97313e-19 4.97313e-19 -4.97905e-19 0 4.97313e-19 0 0 0 0 -9.94625e-19 9.94625e-19 -9.94625e-19 9.94625e-19 0 0 0 -9.94032e-19 9.94032e-19 0 0 0 0 0.000346493 0.000544307 0.000537631 0.000387229 0.000208559 8.32484e-05 2.39645e-05 4.76734e-06 6.33607e-07 6.02508e-08 5.45784e-09 5.16544e-10 3.62501e-11 1.7824e-12 9.19667e-14 4.73496e-15 1.1322e-16 -4.91542e-19 9.94625e-19 -1.49253e-18 1.49253e-18 -9.94625e-19 4.9672e-19 -4.9672e-19 0 4.9672e-19 0 -4.9672e-19 0 9.94625e-19 -9.94625e-19 4.9672e-19 -4.9672e-19 4.9672e-19 0 0 -9.94625e-19 9.94625e-19 9.94625e-19 -1.98925e-18 0 9.94625e-19 9.94625e-19 -1.98925e-18 9.94625e-19 -9.94032e-19 1.98866e-18 -1.98925e-18 9.94625e-19 0 0 4.91505e-08 6.45312e-08 4.83251e-08 2.49404e-08 9.79184e-09 3.202e-09 9.06405e-10 2.08824e-10 3.55529e-11 4.36823e-12 4.50935e-13 4.76098e-14 4.31442e-15 2.76834e-16 -9.76686e-18 2.49175e-19 -7.45672e-19 0 9.94625e-19 -9.94625e-19 0 0 9.94625e-19 -9.94625e-19 0 4.9672e-19 0 -4.9672e-19 0 9.94625e-19 -9.94625e-19 4.9672e-19 4.97905e-19 -1.49253e-18 9.94625e-19 0 -9.94625e-19 9.94625e-19 9.94625e-19 -1.98925e-18 9.94625e-19 0 -9.94032e-19 9.94032e-19 -9.94625e-19 1.98925e-18 -9.94625e-19 -9.94625e-19 9.94625e-19 0 0 3.44332e-13 5.26799e-13 4.95501e-13 3.36335e-13 1.75142e-13 7.34008e-14 2.54779e-14 7.09217e-15 1.58721e-15 2.36002e-16 -3.50671e-21 2.51762e-19 -2.48249e-19 0 0 0 -2.48953e-19 9.94625e-19 -9.94625e-19 4.97905e-19 -4.97905e-19 4.97905e-19 -4.97905e-19 4.97905e-19 0 -4.97905e-19 4.9672e-19 -4.9672e-19 4.97905e-19 -4.97905e-19 4.97905e-19 -4.97905e-19 4.9672e-19 0 -9.94625e-19 9.94625e-19 9.94625e-19 -9.94625e-19 -9.94625e-19 9.94625e-19 0 0 -9.94032e-19 9.94032e-19 0 0 -9.94625e-19 9.94625e-19 0 0 0 9.00319e-18 1.40576e-17 -6.35094e-18 1.53797e-17 -1.03143e-17 -1.40818e-21 1.2518e-19 0 -1.24476e-19 0 0 2.48953e-19 -4.97905e-19 4.97905e-19 -2.48953e-19 0 2.48953e-19 -1.18549e-21 -4.9672e-19 4.97905e-19 -4.97905e-19 4.97905e-19 -4.97905e-19 4.97905e-19 0 0 -9.95811e-19 1.49253e-18 -9.94625e-19 4.9672e-19 -4.9672e-19 0 4.9672e-19 0 0 -9.94625e-19 1.98925e-18 -1.98925e-18 9.94625e-19 0 0 -9.94625e-19 9.94625e-19 0 0 0 -9.94625e-19 1.98925e-18 -1.98925e-18 0 0 0 -3.023e-20 6.22382e-20 -6.22382e-20 0 1.24476e-19 -1.23884e-19 2.4836e-19 -4.97313e-19 2.4836e-19 5.92744e-22 2.4836e-19 -2.48953e-19 2.48953e-19 -4.97313e-19 4.97313e-19 0 -9.95218e-19 9.95218e-19 -4.97313e-19 4.9672e-19 5.92744e-22 -4.97313e-19 4.97313e-19 0 -4.97313e-19 4.9672e-19 0 0 -9.94032e-19 9.94032e-19 0 0 0 0 -9.94625e-19 0 9.94625e-19 0 0 -9.94032e-19 9.94032e-19 0 0 0 -9.94032e-19 9.94032e-19 0 0 0 0 0 3.20082e-20 -6.22382e-20 0 1.24476e-19 -1.24476e-19 5.92744e-22 -5.92744e-22 5.92744e-22 2.4836e-19 -2.4836e-19 -2.49545e-19 4.97905e-19 0 -4.97313e-19 -5.92744e-22 4.97905e-19 -4.97313e-19 4.97313e-19 -4.97313e-19 9.94625e-19 -9.95218e-19 4.97313e-19 -4.97313e-19 0 4.97313e-19 0 -4.9672e-19 9.94625e-19 -1.49194e-18 9.94032e-19 0 -9.94625e-19 1.98925e-18 -1.98925e-18 9.94625e-19 -9.94625e-19 1.98925e-18 -1.98925e-18 9.94625e-19 -9.94032e-19 9.94032e-19 9.94625e-19 -1.98925e-18 9.94625e-19 -9.94032e-19 1.98866e-18 -1.98925e-18 9.94625e-19 0 0 0 1.77823e-21 0 -6.22382e-20 1.24476e-19 -1.24476e-19 1.24476e-19 -3.73429e-19 4.97905e-19 -2.48953e-19 2.48953e-19 -4.97905e-19 4.97905e-19 -2.48953e-19 2.48953e-19 -4.97905e-19 0 9.94625e-19 -9.94625e-19 4.97905e-19 -4.97905e-19 0 9.94625e-19 -9.94625e-19 0