<?xml version="1.0"?>
<VTKFile type="PolyData">
	<PolyData>
		<Piece NumberOfPoints="2601" NumberOfPolys="2500">
			<Points>
				<DataArray type="Float32" NumberOfComponents="3" format="ascii">
 0 0 0 0.376781 0 0 0.280723 0 0 0.362646 0 0 0.369331 0 0 0.393649 0 0 0.414091 0 0 0.430229 0 0 0.44665 0 0 0.458788 0 0 0.472236 0 0 0.481945 0 0 0.493368 0 0 0.501667 0 0 0.511825 0 0 0.519338 0 0 0.527539 0 0 0.534054 0 0 0.540919 0 0 0.547393 0 0 0.553113 0 0 0.558563 0 0 0.563736 0 0 0.568686 0 0 0.573304 0 0 0.577538 0 0 0.581636 0 0 0.585419 0 0 0.589647 0 0 0.595475 0 0 0.604927 0 0 0.620407 0 0 0.640002 0 0 0.66 0 0 0.68 0 0 0.7 0 0 0.72 0 0 0.74 0 0 0.76 0 0 0.78 0 0 0.8 0 0 0.82 0 0 0.84 0 0 0.86 0 0 0.88 0 0 0.9 0 0 0.92 0 0 0.94 0 0 0.96 0 0 0.98 0 0 1 0 0 0 0.376781 0 0.161523 0.161523 0 0.342511 0.15277 0 0.314943 0.135049 0 0.366244 0.0931981 0 0.388603 0.0831543 0 0.408679 0.0741814 0 0.42815 0.0666809 0 0.442186 0.0615017 0 0.457218 0.0563427 0 0.468726 0.0517806 0 0.481586 0.0476876 0 0.490609 0.0440387 0 0.501613 0.0412062 0 0.509727 0.038802 0 0.519005 0.0367375 0 0.526117 0.0348308 0 0.53353 0.033045 0 0.540078 0.0314481 0 0.546672 0.0299497 0 0.552347 0.0285603 0 0.558005 0.027349 0 0.563179 0.0262658 0 0.568174 0.0252572 0 0.572839 0.0243081 0 0.577112 0.0234135 0 0.581242 0.0225832 0 0.58506 0.021813 0 0.589333 0.0211288 0 0.595228 0.0205646 0 0.604783 0.0201796 0 0.620382 0.0200234 0 0.640001 0.0200002 0 0.66 0.02 0 0.68 0.02 0 0.7 0.02 0 0.72 0.02 0 0.74 0.02 0 0.76 0.02 0 0.78 0.02 0 0.8 0.02 0 0.82 0.02 0 0.84 0.02 0 0.86 0.02 0 0.88 0.02 0 0.9 0.02 0 0.92 0.02 0 0.94 0.02 0 0.96 0.02 0 0.98 0.02 0 1 0.02 0 0 0.280723 0 0.15277 0.342511 0 0.185891 0.185891 0 0.311095 0.216778 0 0.332865 0.182641 0 0.367141 0.157563 0 0.393863 0.141544 0 0.41357 0.131064 0 0.432874 0.119322 0 0.447422 0.110283 0 0.462979 0.101446 0 0.474512 0.0937188 0 0.487197 0.0872665 0 0.496373 0.0816402 0 0.507097 0.0771071 0 0.515041 0.0730329 0 0.52363 0.0692314 0 0.530701 0.0657057 0 0.53805 0.0624234 0 0.544302 0.0594377 0 0.550487 0.0567829 0 0.556244 0.0544567 0 0.561615 0.0523325 0 0.566654 0.050357 0 0.571461 0.0484845 0 0.575841 0.0467136 0 0.580065 0.0450661 0 0.583986 0.0435391 0 0.588396 0.0421857 0 0.594497 0.0410762 0 0.604364 0.0403314 0 0.620315 0.0400399 0 0.640001 0.0400003 0 0.66 0.04 0 0.68 0.04 0 0.7 0.04 0 0.72 0.04 0 0.74 0.04 0 0.76 0.04 0 0.78 0.04 0 0.8 0.04 0 0.82 0.04 0 0.84 0.04 0 0.86 0.04 0 0.88 0.04 0 0.9 0.04 0 0.92 0.04 0 0.94 0.04 0 0.96 0.04 0 0.98 0.04 0 1 0.04 0 0 0.362646 0 0.135049 0.314943 0 0.216778 0.311095 0 0.211442 0.211442 0 0.292257 0.253739 0 0.34051 0.213949 0 0.369247 0.201829 0 0.396585 0.183614 0 0.41664 0.172141 0 0.43653 0.158126 0 0.451718 0.147228 0 0.467317 0.136984 0 0.478675 0.128108 0 0.491221 0.120816 0 0.500389 0.114294 0 0.510576 0.108392 0 0.518504 0.102871 0 0.52699 0.0976507 0 0.5341 0.0928285 0 0.540969 0.0883902 0 0.547459 0.084569 0 0.553468 0.0811478 0 0.559068 0.0780676 0 0.564223 0.0751548 0 0.569183 0.0723988 0 0.573759 0.0697832 0 0.578119 0.0673471 0 0.582214 0.0650915 0 0.58686 0.0631016 0 0.593314 0.0614855 0 0.603712 0.0604323 0 0.620225 0.0600451 0 0.640001 0.0600002 0 0.66 0.06 0 0.68 0.06 0 0.7 0.06 0 0.72 0.06 0 0.74 0.06 0 0.76 0.06 0 0.78 0.06 0 0.8 0.06 0 0.82 0.06 0 0.84 0.06 0 0.86 0.06 0 0.88 0.06 0 0.9 0.06 0 0.92 0.06 0 0.94 0.06 0 0.96 0.06 0 0.98 0.06 0 1 0.06 0 0 0.369331 0 0.0931981 0.366244 0 0.182641 0.332865 0 0.253739 0.292257 0 0.249679 0.249679 0 0.305414 0.276637 0 0.348354 0.23789 0 0.375337 0.232691 0 0.401138 0.213499 0 0.420796 0.202506 0 0.440419 0.188264 0 0.455121 0.177296 0 0.470141 0.167026 0 0.481313 0.158037 0 0.493518 0.149908 0 0.502785 0.142378 0 0.512939 0.135171 0 0.521111 0.128525 0 0.529249 0.122232 0 0.536362 0.11671 0 0.543374 0.111774 0 0.549606 0.107377 0 0.55561 0.103351 0 0.560918 0.0995395 0 0.566091 0.095929 0 0.570903 0.0925173 0 0.575434 0.0893281 0 0.579774 0.0863909 0 0.58476 0.0838129 0 0.591733 0.0817504 0 0.602901 0.0804687 0 0.620136 0.080039 0 0.64 0.0800001 0 0.66 0.08 0 0.68 0.08 0 0.7 0.08 0 0.72 0.08 0 0.74 0.08 0 0.76 0.08 0 0.78 0.08 0 0.8 0.08 0 0.82 0.08 0 0.84 0.08 0 0.86 0.08 0 0.88 0.08 0 0.9 0.08 0 0.92 0.08 0 0.94 0.08 0 0.96 0.08 0 0.98 0.08 0 1 0.08 0 0 0.393649 0 0.0831543 0.388603 0 0.157563 0.367141 0 0.213949 0.34051 0 0.276637 0.305414 0 0.285632 0.285632 0 0.32515 0.290805 0 0.356547 0.259657 0 0.381748 0.256737 0 0.405946 0.237363 0 0.424521 0.227655 0 0.443159 0.213859 0 0.457306 0.203253 0 0.472004 0.192678 0 0.483212 0.183284 0 0.495452 0.174193 0 0.504992 0.165909 0 0.514796 0.157809 0 0.522951 0.150663 0 0.531095 0.14412 0 0.538045 0.138316 0 0.544874 0.132995 0 0.551118 0.128076 0 0.556841 0.123379 0 0.562221 0.118961 0 0.567326 0.114803 0 0.572054 0.110924 0 0.576713 0.107368 0 0.582152 0.104268 0 0.589833 0.101841 0 0.602037 0.100439 0 0.620068 0.100026 0 0.64 0.1 0 0.66 0.1 0 0.68 0.1 0 0.7 0.1 0 0.72 0.1 0 0.74 0.1 0 0.76 0.1 0 0.78 0.1 0 0.8 0.1 0 0.82 0.1 0 0.84 0.1 0 0.86 0.1 0 0.88 0.1 0 0.9 0.1 0 0.92 0.1 0 0.94 0.1 0 0.96 0.1 0 0.98 0.1 0 1 0.1 0 0 0.414091 0 0.0741814 0.408679 0 0.141544 0.393863 0 0.201829 0.369247 0 0.23789 0.348354 0 0.290805 0.32515 0 0.307812 0.307812 0 0.339385 0.30521 0 0.364604 0.278499 0 0.387659 0.277232 0 0.410396 0.257384 0 0.427872 0.248842 0 0.44576 0.235096 0 0.459535 0.224784 0 0.474086 0.213699 0 0.485381 0.204162 0 0.497269 0.194455 0 0.506573 0.185963 0 0.516288 0.177841 0 0.524392 0.170708 0 0.532072 0.163936 0 0.539143 0.157847 0 0.545803 0.152022 0 0.551975 0.14657 0 0.557678 0.141399 0 0.563057 0.13658 0 0.568046 0.13207 0 0.573097 0.12797 0 0.579116 0.124428 0 0.587716 0.121747 0 0.601246 0.120353 0 0.620027 0.120013 0 0.64 0.12 0 0.66 0.12 0 0.68 0.12 0 0.7 0.12 0 0.72 0.12 0 0.74 0.12 0 0.76 0.12 0 0.78 0.12 0 0.8 0.12 0 0.82 0.12 0 0.84 0.12 0 0.86 0.12 0 0.88 0.12 0 0.9 0.12 0 0.92 0.12 0 0.94 0.12 0 0.96 0.12 0 0.98 0.12 0 1 0.12 0 0 0.430229 0 0.0666809 0.42815 0 0.131064 0.41357 0 0.183614 0.396585 0 0.232691 0.375337 0 0.259657 0.356547 0 0.30521 0.339385 0 0.325411 0.325411 0 0.351316 0.319001 0 0.373107 0.295157 0 0.39342 0.294555 0 0.414669 0.2742 0 0.431128 0.266661 0 0.448367 0.252681 0 0.461914 0.242902 0 0.476018 0.231422 0 0.486939 0.222089 0 0.498522 0.212344 0 0.507887 0.204102 0 0.517148 0.195871 0 0.525119 0.188609 0 0.532787 0.181589 0 0.539755 0.175112 0 0.546429 0.168956 0 0.552494 0.163188 0 0.558162 0.157767 0 0.563468 0.152717 0 0.569014 0.148143 0 0.575775 0.144269 0 0.585532 0.141488 0 0.600637 0.140236 0 0.620008 0.140005 0 0.64 0.14 0 0.66 0.14 0 0.68 0.14 0 0.7 0.14 0 0.72 0.14 0 0.74 0.14 0 0.76 0.14 0 0.78 0.14 0 0.8 0.14 0 0.82 0.14 0 0.84 0.14 0 0.86 0.14 0 0.88 0.14 0 0.9 0.14 0 0.92 0.14 0 0.94 0.14 0 0.96 0.14 0 0.98 0.14 0 1 0.14 0 0 0.44665 0 0.0615017 0.442186 0 0.119322 0.432874 0 0.172141 0.41664 0 0.213499 0.401138 0 0.256737 0.381748 0 0.278499 0.364604 0 0.319001 0.351316 0 0.340377 0.340377 0 0.362435 0.330727 0 0.381905 0.309658 0 0.400353 0.308472 0 0.419467 0.288136 0 0.43502 0.281519 0 0.451364 0.267338 0 0.464255 0.258229 0 0.477885 0.246706 0 0.488651 0.237988 0 0.499674 0.228212 0 0.508775 0.220068 0 0.517867 0.211797 0 0.525648 0.204353 0 0.533299 0.197184 0 0.540229 0.190541 0 0.546775 0.184229 0 0.552723 0.178316 0 0.558431 0.172792 0 0.564567 0.167855 0 0.572286 0.163791 0 0.583493 0.161121 0 0.60026 0.160124 0 0.620002 0.160001 0 0.64 0.16 0 0.66 0.16 0 0.68 0.16 0 0.7 0.16 0 0.72 0.16 0 0.74 0.16 0 0.76 0.16 0 0.78 0.16 0 0.8 0.16 0 0.82 0.16 0 0.84 0.16 0 0.86 0.16 0 0.88 0.16 0 0.9 0.16 0 0.92 0.16 0 0.94 0.16 0 0.96 0.16 0 0.98 0.16 0 1 0.16 0 0 0.458788 0 0.0563427 0.457218 0 0.110283 0.447422 0 0.158126 0.43653 0 0.202506 0.420796 0 0.237363 0.405946 0 0.277232 0.387659 0 0.295157 0.373107 0 0.330727 0.362435 0 0.352641 0.352641 0 0.372314 0.340368 0 0.390566 0.322287 0 0.407884 0.319246 0 0.424984 0.29997 0 0.439612 0.293831 0 0.454833 0.279755 0 0.46722 0.271608 0 0.480065 0.260098 0 0.490211 0.251777 0 0.500913 0.242145 0 0.509718 0.2341 0 0.518436 0.22579 0 0.526295 0.218413 0 0.53368 0.211184 0 0.540577 0.204534 0 0.54688 0.198144 0 0.553068 0.192279 0 0.559925 0.187105 0 0.568827 0.183052 0 0.58185 0.180724 0 0.600081 0.180048 0 0.62 0.18 0 0.64 0.18 0 0.66 0.18 0 0.68 0.18 0 0.7 0.18 0 0.72 0.18 0 0.74 0.18 0 0.76 0.18 0 0.78 0.18 0 0.8 0.18 0 0.82 0.18 0 0.84 0.18 0 0.86 0.18 0 0.88 0.18 0 0.9 0.18 0 0.92 0.18 0 0.94 0.18 0 0.96 0.18 0 0.98 0.18 0 1 0.18 0 0 0.472236 0 0.0517806 0.468726 0 0.101446 0.462979 0 0.147228 0.451718 0 0.188264 0.440419 0 0.227655 0.424521 0 0.257384 0.410396 0 0.294555 0.39342 0 0.309658 0.381905 0 0.340368 0.372314 0 0.362574 0.362574 0 0.381059 0.348794 0 0.398251 0.333632 0 0.415071 0.32828 0 0.430402 0.310574 0 0.444602 0.304719 0 0.458578 0.290833 0 0.470072 0.283189 0 0.482242 0.271841 0 0.492025 0.263947 0 0.502053 0.254375 0 0.510753 0.246581 0 0.519157 0.238398 0 0.52681 0.231088 0 0.534083 0.223962 0 0.54073 0.21731 0 0.547512 0.211185 0 0.555283 0.205984 0 0.565624 0.202175 0 0.580777 0.200379 0 0.600018 0.200013 0 0.62 0.2 0 0.64 0.2 0 0.66 0.2 0 0.68 0.2 0 0.7 0.2 0 0.72 0.2 0 0.74 0.2 0 0.76 0.2 0 0.78 0.2 0 0.8 0.2 0 0.82 0.2 0 0.84 0.2 0 0.86 0.2 0 0.88 0.2 0 0.9 0.2 0 0.92 0.2 0 0.94 0.2 0 0.96 0.2 0 0.98 0.2 0 1 0.2 0 0 0.481945 0 0.0476876 0.481586 0 0.0937188 0.474512 0 0.136984 0.467317 0 0.177296 0.455121 0 0.213859 0.443159 0 0.248842 0.427872 0 0.2742 0.414669 0 0.308472 0.400353 0 0.322287 0.390566 0 0.348794 0.381059 0 0.370861 0.370861 0 0.388672 0.356604 0 0.40498 0.34401 0 0.42141 0.336623 0 0.435443 0.320571 0 0.448779 0.314327 0 0.46178 0.300779 0 0.472859 0.293664 0 0.484193 0.282419 0 0.493657 0.274851 0 0.503331 0.265585 0 0.511597 0.257885 0 0.51986 0.249964 0 0.527247 0.242742 0 0.534423 0.235796 0 0.54187 0.229655 0 0.55082 0.224594 0 0.562996 0.221333 0 0.580243 0.220147 0 0.600003 0.220002 0 0.62 0.22 0 0.64 0.22 0 0.66 0.22 0 0.68 0.22 0 0.7 0.22 0 0.72 0.22 0 0.74 0
[...]
			<PointData Scalars="VitesseX">
				<DataArray Name="VitesseX" type="Float32" format="ascii">
 0 1.8782 0.675326 1.41076 1.20236 1.38073 1.37566 1.49483 1.60302 1.59821 1.6271 1.75683 1.80334 1.8002 1.84661 1.87769 1.96504 1.96278 1.9274 1.99096 2.10515 2.10154 2.10099 2.15224 2.18049 2.21525 2.26587 2.25985 2.12968 1.7755 1.07113 0.182518 0.00132644 3.61259e-08 3.1792e-13 2.45412e-18 4.31831e-20 -2.11682e-20 2.11682e-20 -2.11682e-20 2.11682e-20 -4.31831e-20 4.31831e-20 0 0 -4.31831e-20 4.31831e-20 -4.31831e-20 4.31831e-20 0 0 0 0.284616 1.49929 0.883925 1.25747 1.32866 1.38287 1.49895 1.59525 1.58602 1.637 1.73908 1.79439 1.81107 1.82208 1.89519 1.93948 1.95085 1.93537 2.02301 2.07518 2.10486 2.10188 2.15121 2.17806 2.21175 2.26462 2.25695 2.12356 1.76416 1.05386 0.173086 0.0011862 3.17089e-08 2.90894e-13 1.20557e-18 4.31831e-20 -2.11682e-20 2.11682e-20 -2.11682e-20 2.11682e-20 -4.31831e-20 4.31831e-20 0 0 -4.31831e-20 4.31831e-20 -4.31831e-20 4.31831e-20 0 0 0 0.805918 0.359005 1.21854 1.03941 1.2553 1.3081 1.42212 1.53475 1.5484 1.59128 1.70777 1.76492 1.78223 1.82655 1.87032 1.92622 1.9037 1.97969 2.03921 2.03127 2.10688 2.10429 2.14991 2.17512 2.20045 2.26112 2.24793 2.10494 1.72944 1.00111 0.146887 0.000844701 2.15517e-08 2.22151e-13 -2.17611e-20 2.15915e-20 5.54606e-20 -5.54606e-20 1.10075e-20 -1.10075e-20 -2.15915e-20 6.60447e-20 -4.44532e-20 0 2.28616e-20 -2.28616e-20 2.28616e-20 -2.28616e-20 0 0 0 0.679245 0.927145 0.434674 0.873256 1.13391 1.24081 1.34509 1.45743 1.49894 1.56518 1.66035 1.73252 1.7688 1.80151 1.86799 1.86903 1.91515 2.00167 2.01462 2.01402 2.09355 2.10788 2.1499 2.17386 2.18528 2.25464 2.23205 2.07287 1.66977 0.910546 0.10991 0.000473038 1.15095e-08 1.40561e-13 -4.45493e-20 4.44532e-20 -2.3285e-20 2.3285e-20 -2.28616e-20 2.28616e-20 -4.44532e-20 4.44532e-20 0 0 -4.48765e-20 4.48765e-20 -4.48765e-20 4.48765e-20 0 0 0 0.341981 0.679558 1.01901 0.742275 0.980627 1.16606 1.31125 1.39842 1.44245 1.52626 1.62113 1.69037 1.73519 1.79481 1.8082 1.8631 1.92775 1.9938 1.98134 2.03282 2.04539 2.12009 2.1382 2.17606 2.17556 2.24254 2.20651 2.02552 1.58351 0.780353 0.0707684 0.000204157 4.92183e-09 7.30501e-14 -4.4278e-20 4.44532e-20 4.40298e-20 -4.40298e-20 0 0 -4.44532e-20 0 4.44532e-20 0 -4.23364e-22 4.23364e-22 -8.93297e-20 8.93297e-20 0 0 0 0.31595 0.560909 0.695146 1.06454 1.0663 1.13412 1.2398 1.35137 1.39522 1.47593 1.56367 1.64347 1.69852 1.73884 1.78104 1.85531 1.93586 1.92591 1.99284 2.03264 2.01376 2.11387 2.12169 2.17258 2.17632 2.2225 2.16736 1.95841 1.46868 0.614015 0.0379469 6.5998e-05 1.69906e-09 3.08366e-14 2.82554e-24 0 1.3336e-19 -1.3336e-19 4.44532e-20 -4.44532e-20 0 8.89064e-20 -8.89064e-20 0 8.89064e-20 -8.89064e-20 8.89064e-20 -8.89064e-20 0 0 0 0.27349 0.482484 0.680264 0.728116 1.03705 1.14604 1.20035 1.26665 1.36191 1.44173 1.51139 1.59975 1.64856 1.69379 1.76246 1.86326 1.8703 1.89879 1.98581 2.01395 2.01802 2.08026 2.10693 2.1554 2.18126 2.19639 2.11398 1.86398 1.3188 0.427395 0.0163004 1.53774e-05 4.63419e-10 1.0378e-14 0 8.89064e-20 -1.77813e-19 1.77813e-19 -8.89064e-20 0 8.89064e-20 -8.89064e-20 8.89064e-20 0 -8.89064e-20 0 8.89064e-20 -8.89064e-20 0 0 0 0.248414 0.463905 0.62531 0.785424 0.848146 1.06579 1.17998 1.23766 1.29923 1.39512 1.48063 1.53337 1.60354 1.67213 1.75744 1.78914 1.82977 1.88405 1.95978 1.98105 2.0357 2.03775 2.09524 2.13003 2.17713 2.16431 2.04937 1.73683 1.11893 0.251003 0.00537126 2.47425e-06 9.5006e-11 2.70496e-15 -8.89064e-20 8.89064e-20 -1.77813e-19 1.77813e-19 -8.89064e-20 8.89064e-20 -8.89064e-20 0 8.89064e-20 0 -1.77813e-19 1.77813e-19 -1.77813e-19 1.77813e-19 0 0 0 0.24327 0.420664 0.618653 0.726074 0.881214 0.93026 1.1046 1.24402 1.30166 1.37022 1.43793 1.50682 1.5769 1.64972 1.69628 1.73329 1.80658 1.88913 1.89747 1.98949 2.00822 2.02486 2.07274 2.11095 2.16092 2.12177 1.96651 1.57904 0.857389 0.117861 0.00129025 2.73166e-07 1.40587e-11 5.08049e-16 8.89064e-20 -1.77813e-19 2.66296e-19 -2.66296e-19 8.89064e-20 1.77813e-19 -1.77813e-19 0 -8.89064e-20 1.77813e-19 -8.89064e-20 1.77813e-19 -3.55625e-19 3.55625e-19 -1.77813e-19 0 0 0.211758 0.396327 0.540041 0.712843 0.790566 0.977166 1.0075 1.17831 1.31445 1.37616 1.43281 1.49622 1.56824 1.58723 1.6396 1.72151 1.80985 1.83631 1.89724 1.97025 1.972 2.02911 2.0402 2.10022 2.13294 2.06298 1.84865 1.38387 0.556984 0.0418818 0.000210887 2.38442e-08 1.57221e-12 5.12048e-17 0 0 2.66296e-19 -2.66296e-19 8.89064e-20 -8.89064e-20 0 0 0 0 1.77813e-19 -1.77813e-19 0 0 0 0 0 0.201995 0.353341 0.527055 0.647418 0.818734 0.881128 1.0865 1.10685 1.2536 1.37058 1.38599 1.47727 1.52403 1.56584 1.64017 1.72647 1.77413 1.81781 1.89749 1.93268 1.95685 2.02937 2.01042 2.09347 2.08605 1.98793 1.69005 1.1188 0.285398 0.0106587 2.145e-05 2.08618e-09 1.58443e-13 9.07387e-20 -3.55625e-19 3.55625e-19 -1.77813e-19 0 1.77813e-19 -3.55625e-19 1.77813e-19 1.77813e-19 -1.77813e-19 0 0 0 1.77813e-19 -3.55625e-19 3.55625e-19 0 0 0.185056 0.344749 0.490288 0.64977 0.758132 0.919534 0.963096 1.17977 1.18685 1.2772 1.39623 1.46218 1.49797 1.55835 1.6529 1.70864 1.73987 1.82585 1.88224 1.88408 1.98178 1.98511 2.01909 2.06516 2.02994 1.86936 1.49294 0.768016 0.107391 0.00181655 1.25599e-06 1.58334e-10 1.48535e-14 3.95594e-23 0 0 0 0 0 0 0 1.77813e-19 -1.77813e-19 0 0 0 1.77813e-19 -1.77813e-19 0 0 0 0.169479 0.322609 0.468565 0.617303 0.753955 0.860472 1.00059 1.0307 1.25054 1.2219 1.3448 1.43402 1.44959 1.59367 1.67976 1.69087 1.74797 1.81857 1.82192 1.89929 1.94499 1.96974 2.01772 2.0197 1.94617 1.6999 1.21703 0.405466 0.0278046 0.000186168 4.76287e-08 8.01614e-12 9.75248e-16 0 1.77813e-19 -1.77813e-19 -1.77813e-19 3.55625e-19 -1.77813e-19 1.77813e-19 -1.77813e-19 -1.77813e-19 3.55625e-19 -1.77813e-19 1.77813e-19 -1.77813e-19 -1.77813e-19 5.32591e-19 -5.32591e-19 0 0 0.158037 0.299156 0.448278 0.589581 0.726993 0.833615 0.935613 1.08734 1.10848 1.26013 1.26444 1.34982 1.45671 1.56299 1.60826 1.66728 1.74858 1.76977 1.81577 1.88932 1.91083 1.96423 2.00172 1.96009 1.81571 1.48494 0.825856 0.150148 0.00459048 1.01084e-05 1.95637e-09 3.30663e-13 3.59336e-19 -1.77813e-19 0 1.77813e-19 -3.55625e-19 3.55625e-19 -1.77813e-19 0 1.77813e-19 -3.55625e-19 3.55625e-19 0 -1.77813e-19 0 -8.46727e-22 0 8.46727e-22 0 0 0.147158 0.290843 0.427962 0.576695 0.68841 0.800753 0.917954 1.02859 1.1227 1.13061 1.28388 1.36394 1.42954 1.50197 1.60566 1.68279 1.70926 1.74774 1.82245 1.84928 1.88659 1.96495 1.94519 1.8769 1.62946 1.17623 0.411068 0.0358666 0.000431483 2.70768e-07 7.50769e-11 1.50388e-14 -1.76538e-19 0 0 0 0 0 0 0 1.77813e-19 0 -1.77813e-19 0 0 0 -8.46727e-22 -1.76966e-19 3.55625e-19 0 0 0.142789 0.282542 0.417335 0.542465 0.661453 0.776362 0.905432 0.986675 1.05207 1.17885 1.2054 1.38278 1.38071 1.46857 1.53015 1.62194 1.67281 1.74043 1.77855 1.81762 1.89296 1.90646 1.88935 1.71387 1.39658 0.733938 0.133868 0.00512177 1.89895e-05 5.96387e-09 1.81453e-12 5.03188e-16 -3.55625e-19 3.55625e-19 -1.77813e-19 0 0 0 0 1.77813e-19 -3.55625e-19 3.55625e-19 -1.77813e-19 0 -1.77813e-19 3.55625e-19 -3.55625e-19 3.55625e-19 0 0 0 0.13605 0.270965 0.391354 0.519994 0.649124 0.766441 0.859013 0.942431 1.04283 1.13609 1.23953 1.26071 1.36604 1.47968 1.46525 1.55817 1.65826 1.71065 1.74053 1.81081 1.85722 1.84857 1.74541 1.51171 1.01352 0.308886 0.0266236 0.000359822 3.61962e-07 1.54342e-10 4.76421e-14 1.03129e-17 1.76966e-19 -1.76966e-19 0 -1.77813e-19 5.32591e-19 -1.76966e-19 -3.55625e-19 3.55625e-19 -3.55625e-19 0 3.55625e-19 0 -3.55625e-19 3.55625e-19 0 -3.55625e-19 3.55625e-19 0 0 0.122139 0.250785 0.375393 0.510695 0.629985 0.725395 0.815185 0.931167 1.02757 1.11038 1.16546 1.284 1.31521 1.40599 1.48677 1.5033 1.59963 1.64952 1.72166 1.78063 1.78054 1.74615 1.54451 1.19622 0.514771 0.0809509 0.00265017 1.10614e-05 4.88745e-09 2.4998e-12 1.07776e-15 1.13019e-23 1.76966e-19 -3.54779e-19 3.55625e-19 -3.55625e-19 5.32591e-19 -5.32591e-19 1.77813e-19 1.77813e-19 0 -3.55625e-19 0 3.55625e-19 0 0 -3.55625e-19 3.54779e-19 -3.54779e-19 0 0 0.115641 0.246089 0.374648 0.48935 0.590575 0.687291 0.804447 0.90797 1.00047 1.06178 1.1722 1.2316 1.30485 1.33945 1.43984 1.53506 1.50942 1.6711 1.71345 1.71441 1.6985 1.52827 1.29706 0.681259 0.168237 0.0101833 0.000130708 1.09771e-07 8.83841e-11 4.05901e-14 -1.04251e-17 1.77813e-19 -3.55625e-19 1.77813e-19 1.77813e-19 0 -3.55625e-19 0 7.10404e-19 -7.10404e-19 0 3.55625e-19 -8.46727e-22 -3.54779e-19 3.55625e-19 -3.55625e-19 3.54779e-19 0 -3.54779e-19 0 0 0.122869 0.242519 0.352488 0.460557 0.571205 0.686085 0.782535 0.876563 0.963633 1.07377 1.12086 1.1966 1.24392 1.35181 1.39273 1.45232 1.54093 1.59819 1.66633 1.6514 1.5109 1.31346 0.781995 0.26496 0.0241874 0.000735043 1.52901e-06 1.41918e-09 8.0332e-13 6.16099e-16 -1.76963e-19 0 0 1.77813e-19 -3.55625e-19 3.55625e-19 -8.46727e-22 8.46727e-22 -8.46727e-22 -3.54779e-19 0 3.55625e-19 -8.46727e-22 -3.54779e-19 3.55625e-19 -3.55625e-19 3.54779e-19 -3.54779e-19 3.55625e-19 0 0 0.119248 0.225284 0.334413 0.450422 0.561207 0.659015 0.758375 0.859696 0.965107 1.01893 1.09606 1.14968 1.26461 1.27682 1.36202 1.45399 1.4907 1.53241 1.55157 1.46935 1.30153 0.843561 0.332789 0.0416541 0.00227532 9.67533e-06 1.38964e-08 1.11507e-11 1.17643e-14 -5.32585e-19 5.33438e-19 -1.77813e-19 1.77813e-19 0 -3.55625e-19 0 3.54779e-19 8.46727e-22 -3.55625e-19 3.55625e-19 -3.55625e-19 3.55625e-19 -3.55625e-19 3.55625e-19 0 -3.55625e-19 0 3.55625e-19 0 0 0 0.111178 0.22066 0.328345 0.432775 0.534125 0.6402 0.741336 0.835518 0.908986 1.00108 1.07131 1.15468 1.17687 1.28512 1.32152 1.41161 1.45479 1.42925 1.34835 1.22465 0.836322 0.368307 0.0576458 0.00420078 3.33895e-05 9.04284e-08 7.89843e-11 1.14967e-13 7.20342e-17 -3.55625e-19 3.55625e-19 -3.55625e-19 3.55625e-19 0 -3.55625e-19 3.54779e-19 -3.54779e-19 0 3.55625e-19 -3.55625e-19 3.54779e-19 8.46727e-22 -3.55625e-19 3.55625e-19 -3.55625e-19 3.54779e-19 8.46727e-22 -3.55625e-19 3.55625e-19 0 0 0.107987 0.213365 0.317856 0.425378 0.533429 0.628773 0.714862 0.800713 0.898794 0.977357 1.04634 1.09131 1.19126 1.22618 1.32193 1.30959 1.34577 1.26044 1.11052 0.748286 0.35167 0.0630157 0.0058407 7.21879e-05 2.87925e-07 3.06613e-10 6.84175e-13 5.8499e-16 3.55659e-19 0 -3.55625e-19 3.54779e-19 -3.54779e-19 3.55625e-19 -3.55625e-19 7.10404e-19 -7.10404e-19 0 3.55625e-19 -3.55625e-19 7.10404e-19 -7.10404e-19 0 3.55625e-19 -3.55625e-19 7.10404e-19 -7.10404e-19 3.54779e-19 -3.54779e-19 0 0 0.106158 0.210134 0.312737 0.413266 0.511572 0.607037 0.698202 0.785745 0.861013 0.936249 1.0074 1.09084 1.13462 1.20457 1.19838 1.23186 1.10865 1.01029 0.635919 0.293487 0.0538989 0.00579382 9.29739e-05 5.54708e-07 7.34543e-10 2.10679e-12 2.40219e-15 -1.77929e-19 -1.77813e-19 3.55625e-19 -3.55625e-19 7.10404e-19 -7.10404e-19 0 3.55625e-19 -3.55625e-19 3.54779e-19 8.46727e-22 -3.55625e-19 3.55625e-19 -3.55625e-19 3.54779e-19 8.46727e-22 -3.55625e-19 3.55625e-19 -3.55625e-19 3.54779e-19 0 -3.54779e-19 0 0 0.102542 0.204242 0.304211 0.402494 0.499669 0.591036 0.678597 0.762746 0.846209 0.922994 0.993176 1.03604 1.08784 1.08463 1.08235 0.97309 0.850285 0.48335 0.223624 0.0373691 0.00411483 7.16437e-05 5.54233e-07 9.69547e-10 4.00195e-12 6.13876e-15 3.99419e-22 1.78659e-19 -3.55625e-19 3.55625e-19 0 -3.55625e-19 3.55625e-19 -3.55625e-19 3.55625e-19 -3.55625e-19 3.54779e-19 8.46727e-22 -3.55625e-19 3.55625e-19 -3.55625e-19 3.54779e-19 8.46727e-22 -3.55625e-19 3.55625e-19 -3.55625e-19 3.54779e-19 -3.54779e-19 3.55625e-19 0 0 0.0986685 0.196543 0.292204 0.386976 0.480748 0.573584 0.662211 0.747323 0.820933 0.881739 0.930137 0.963518 0.955539 0.926145 0.81501 0.640587 0.336578 0.137021 0.0208109 0.00222372 3.29896e-05 2.8707e-07 7.30749e-10 3.99824e-12 7.9861e-15 1.03136e-17 -7.11251e-19 7.11251e-19 0 0 0 -7.11251e-19 7.11251e-19 0 0 0 -7.11251e-19 7.11251e-19 0 0 0 -7.11251e-19 7.11251e-19 0 0 0 -7.11251e-19 1.06603e-18 -7.10404e-19 0 0 0.0958029 0.191288 0.285999 0.379327 0.469297 0.554336 0.633051 0.703972 0.762644 0.80313 0.819961 0.804712 0.752957 0.617782 0.421692 0.197727 0.0645492 0.00888006 0.000717901 9.52148e-06 8.99748e-08 3.03772e-10 2.09934e-12 6.11849e-15 1.03136e-17 -3.55625e-19 3.54779e-19 -3.54779e-19 3.55625e-19 0 -3.55625e-19 3.54779e-19 -3.54779e-19 3.55625e-19 0 -3.55625e-19 3.54779e-19 -3.54779e-19 3.55625e-19 0 -3.55625e-19 3.54779e-19 -3.54779e-19 3.55625e-19 0 -3.55625e-19 0 3.54779e-19 0 0 0 0.0911807 0.181722 0.270632 0.35653 0.437419 0.511725 0.576813 0.626328 0.653149 0.656139 0.623901 0.537822 0.39153 0.228102 0.0892603 0.0217263 0.00239872 0.000127811 1.50411e-06 1.37617e-08 7.78485e-11 6.80541e-13 2.40219e-15 -3.53538e-19 0 3.54779e-19 0 0 -3.54779e-19 0 3.54779e-19 0 0 -3.54779e-19 0 3.54779e-19 0 0 -3.54779e-19 0 3.54779e-19 0 0 8.46727e-22 -3.55625e-19 0 7.10404e-19 -1.06603e-18 7.10404e-19 0 0 0.0820599 0.162856 0.240799 0.313553 0.377974 0.430516 0.467646 0.482463 0.463265 0.400301 0.302746 0.190162 0.0889324 0.0261419 0.00441185 0.000337953 1.08524e-05 1.07127e-07 1.39867e-09 1.09452e-11 1.1394e-13 5.84992e-16 5.31205e-19 -5.32591e-19 0 3.55202e-19 0 0 -3.55202e-19 0 3.55202e-19 -3.55202e-19 7.10404e-19 -7.10404e-19 0 3.55202e-19 -3.55202e-19 3.55202e-19 -3.55202e-19 3.55202e-19 0 -3.55202e-19 3.55202e-19 4.23364e-22 -7.10828e-19 1.06603e-18 -3.55625e-19 -7.10404e-19 7.10404e-19 0 0 0.0647363 0.127146 0.184633 0.233912 0.270081 0.286318 0.276271 0.240184 0.185428 0.120594 0.0586631 0.0190572 0.00373538 0.000393643 1.82803e-05 3.52655e-07 4.7171e-09 8.68796e-11 7.81167e-13 1.16205e-14 7.16789e-17 3.67371e-23 -1.78236e-19 3.55625e-19 0 -3.55202e-19 3.54779e-19 -3.54779e-19 3.55202e-19 0 -3.55202e-19 3.55202e-19 -3.55625e-19 3.55625e-19 0 -3.55202e-19 -4.23364e-22 4.23364e-22 3.55202e-19 -4.23364e-22 0 4.23364e-22 -3.55202e-19 -4.23364e-22 3.55202e-19 0 -7.10404e-19 7.10404e-19 0 0 0 0.0351436 0.0665725 0.0908308 0.105214 0.108271 0.0993511 0.078496 0.0495586 0.0229253 0.00722833 0.00145325 0.000166222 9.57928e-06 2.59281e-07 5.66355e-09 1.49513e-10 2.42205e-12 3.93377e-14 6.15743e-16 -1.76959e-19 3.55625e-19 0 -3.55625e-19 3.55625e-19 0 0 -7.11251e-19 7.11251e-19 0 0 -3.55625e-19 3.55625e-19 -3.55625e-19 3.55625e-19 -3.55625e-19 3.55625e-19 -8.46727e-22 8.46727e-22 -3.55625e-19 3.54779e-19 -7.09981e-19 1.06561e-18 -7.10404e-19 3.54779e-19 0 -7.10404e-19 7.10404e-19 7.10404e-19 -1.42081e-18 0 0 0.0087297 0.0155314 0.0187976 0.0177717 0.0132176 0.00749887 0.00311157 0.000901163 0.000169933 1.90197e-05 1.16466e-06 4.3877e-08 1.81036e-09 7.15691e-11 1.72239e-12 4.54867e-14 1.09826e-15 -1.00712e-17 -1.76963e-19 -1.77813e-19 3.55625e-19 -3.55625e-19 3.55625e-19 0 0 -3.55625e-19 3.54779e-19 -3.54779e-19 3.55625e-19 -3.55625e-19 3.54779e-19 8.46727e-22 -3.55625e-19 3.55625e-19 -3.55625e-19 3.55625e-19 -8.46727e-22 8.46727e-22 -3.55625e-19 3.54779e-19 -7.09981e-19 7.09981e-19 0 0 -7.10404e-19 7.10404e-19 0 0 0 0 0 0.000138962 0.000199676 0.000169402 9.80882e-05 3.96071e-05 1.09222e-05 1.97131e-06 2.29357e-07 1.99755e-08 1.78517e-09 1.4296e-10 7.38586e-12 3.01572e-13 1.4053e-14 4.82563e-16 9.95723e-18 3.55637e-19 -1.77813e-19 0 1.77813e-19 -3.55625e-19 3.54779e-19 8.46727e-22 -3.55625e-19 0 3.54779e-19 0 -3.54779e-19 3.55625e-19 -3.55625e-19 7.10404e-19 -7.10404e-19 0 3.55625e-19 0 -3.55625e-19 3.54779e-19 -3.54779e-19 3.55625e-19 -7.11251e-19 1.42081e-18 -1.42081e-18 7.10404e-19 0 0 0 0 -7.10404e-19 7.10404e-19 0 0 4.41688e-09 5.74025e-09 4.30195e-09 2.28585e-09 9.36996e-10 2.9868e-10 6.97475e-11 1.12042e-11 1.28319e-12 1.30686e-13 1.29033e-14 9.74887e-16 3.56787e-19 -1.76538e-19 0 1.76966e-19 -1.76966e-19 0 0 1.77813e-19 -3.55625e-19 3.54779e-19 8.46727e-22 -3.55625e-19 0 3.54779e-19 0 8.46727e-22 -3.55625e-19 3.55625e-19 -3.55625e-19 0 7.10404e-19 -7.10404e-19 3.55625e-19 -7.11251e-19 1.06603e-18 -3.55625e-19 -3.54779e-19 3.54779e-19 0 -7.10404e-19 7.10404e-19 0 0 0 0 -7.10404e-19 7.10404e-19 0 0 2.70288e-14 4.17167e-14 3.98737e-14 2.76368e-14 1.45766e-14 5.882e-15 1.79126e-15 4.05465e-16 5.1379e-17 9.06624e-20 -3.55586e-19 3.55625e-19 -1.77813e-19 0 0 1.76966e-19 -3.54779e-19 1.77813e-19 1.77813e-19 0 0 -3.55625e-19 0 3.55625e-19 0 -3.55625e-19 3.54779e-19 8.46727e-22 -3.55625e-19 3.55625e-19 -3.55625e-19 3.55625e-19 -8.46727e-22 -3.54779e-19 0 3.54779e-19 -3.54779e-19 3.54779e-19 0 0 0 0 0 -7.10404e-19 7.10404e-19 0 -7.10404e-19 7.10404e-19 0 0 0 1.24855e-18 -2.12214e-20 4.40096e-20 -4.42808e-20 2.82554e-24 0 8.89064e-20 -8.89064e-20 4.23364e-22 0 -4.23364e-22 1.77813e-19 -3.55202e-19 3.55202e-19 -1.77389e-19 -4.23364e-22 0 1.77813e-19 -3.55202e-19 3.55202e-19 -3.55202e-19 3.55202e-19 -3.55625e-19 3.55625e-19 0 0 -7.10828e-19 7.10828e-19 0 -3.55202e-19 3.55202e-19 0 -3.55625e-19 4.23364e-22 3.54779e-19 0 0 -7.10404e-19 7.10404e-19 0 0 0 -7.10404e-19 7.10404e-19 0 0 -7.10404e-19 1.42081e-18 -1.42081e-18 0 0 0 -2.15915e-20 4.44532e-20 -4.44532e-20 0 8.89064e-20 -8.89064e-20 0 4.23364e-22 0 -4.23364e-22 1.77813e-19 -1.77389e-19 -4.23364e-22 4.23364e-22 -1.78236e-19 3.55625e-19 0 -3.55202e-19 -4.23364e-22 3.55202e-19 4.23364e-22 -3.55625e-19 3.55625e-19 0 -3.55625e-19 3.55202e-19 -3.55202e-19 3.55625e-19 -3.55202e-19 3.55202e-19 -3.55625e-19 0 3.55202e-19 0 0 0 0 -7.10404e-19 7.10404e-19 -7.10404e-19 7.10404e-19 0 0 0 -7.09981e-19 7.09981e-19 0 0 0 0 0 3.34457e-20 -6.64681e-20 1.33783e-19 -1.3336e-19 0 0 8.80596e-20 8.97531e-20 -1.77813e-19 0 -1.77813e-19 3.55625e-19 -3.55625e-19 3.55625e-19 -1.78659e-19 1.78659e-19 -3.55625e-19 7.10404e-19 -1.06603e-18 1.06603e-18 -7.10404e-19 3.54779e-19 -3.54779e-19 0 3.54779e-19 0 -3.54779e-19 0 7.10404e-19 -7.10404e-19 3.54779e-19 -3.54779e-19 3.54779e-19 0 0 -7.10404e-19 7.10404e-19 7.10404e-19 -1.42081e-18 0 7.10404e-19 7.10404e-19 -1.42081e-18 7.10404e-19 -7.09981e-19 1.42039e-18 -1.42081e-18 7.10404e-19 0 0 0 3.34457e-20 -6.64681e-20 1.33783e-19 -1.3336e-19 0 0 8.80596e-20 8.97531e-20 -3.55625e-19 3.55625e-19 -3.55625e-19 3.55625e-19 -3.55625e-19 3.55625e-19 1.76966e-19 -5.32591e-19 0 7.10404e-19 -7.10404e-19 0 0 7.10404e-19 -7.10404e-19 0 3.54779e-19 0 -3.54779e-19 0 7.10404e-19 -7.10404e-19 3.54779e-19 3.55625e-19 -1.06603e-18 7.10404e-19 0 -7.10404e-19 7.10404e-19 7.10404e-19 -1.42081e-18 7.10404e-19 0 -7.09981e-19 7.09981e-19 -7.10404e-19 1.42081e-18 -7.10404e-19 -7.10404e-19 7.10404e-19 0 0 0 -1.10075e-20 2.28616e-20 0 -4.44532e-20 8.89064e-20 -8.89064e-20 -8.89064e-20 2.66719e-19 -1.77813e-19 0 1.77813e-19 -1.77813e-19 0 0 0 -1.77813e-19 7.10404e-19 -7.10404e-19 3.55625e-19 -3.55625e-19 3.55625e-19 -3.55625e-19 3.55625e-19 0 -3.55625e-19 3.54779e-19 -3.54779e-19 3.55625e-19 -3.55625e-19 3.55625e-19 -3.55625e-19 3.54779e-19 0 -7.10404e-19 7.10404e-19 7.10404e-19 -7.10404e-19 -7.10404e-19 7.10404e-19 0 0 -7.09981e-19 7.09981e-19 0 0 -7.10404e-19 7.10404e-19 0 0 0 0 -1.10075e-20 2.28616e-20 0 -4.44532e-20 0 8.89064e-20 0 -8.89064e-20 0 0 1.77813e-19 -3.55625e-19 3.55625e-19 -1.77813e-19 0 1.77813e-19 -8.46727e-22 -3.54779e-19 3.55625e-19 -3.55625e-19 3.55625e-19 -3.55625e-19 3.55625e-19 0 0 -7.11251e-19 1.06603e-18 -7.10404e-19 3.54779e-19 -3.54779e-19 0 3.54779e-19 0 0 -7.10404e-19 1.42081e-18 -1.42081e-18 7.10404e-19 0 0 -7.10404e-19 7.10404e-19 0 0 0 -7.10404e-19 1.42081e-18 -1.42081e-18 0 0 0 -2.15915e-20 4.44532e-20 -4.44532e-20 0 8.89064e-20 -8.8483e-20 1.77389e-19 -3.55202e-19 1.77389e-19 4.23364e-22 1.77389e-19 -1.77813e-19 1.77813e-19 -3.55202e-19 3.55202e-19 0 -7.10828e-19 7.10828e-19 -3.55202e-19 3.54779e-19 4.23364e-22 -3.55202e-19 3.55202e-19 0 -3.55202e-19 3.54779e-19 0 0 -7.09981e-19 7.09981e-19 0 0 0 0 -7.10404e-19 0 7.10404e-19 0 0 -7.09981e-19 7.09981e-19 0 0 0 -7.09981e-19 7.09981e-19 0 0 0 0 0 2.28616e-20 -4.44532e-20 0 8.89064e-20 -8.89064e-20 4.23364e-22 -4.23364e-22 4.23364e-22 1.77389e-19 -1.77389e-19 -1.78236e-19 3.55625e-19 0 -3.55202e-19 -4.23364e-22 3.55625e-19 -3.55202e-19 3.55202e-19 -3.55202e-19 7.10404e-19 -7.10828e-19 3.55202e-19 -3.55202e-19 0 3.55202e-19 0 -3.54779e-19 7.10404e-19 -1.06561e-18 7.09981e-19 0 -7.10404e-19 1.42081e-18 -1.42081e-18 7.10404e-19 -7.10404e-19 1.42081e-18 -1.42081e-18 7.10404e-19 -7.09981e-19 7.09981e-19 7.10404e-19 -1.42081e-18 7.10404e-19 -7.0998