<?xml version="1.0"?>
<VTKFile type="PolyData">
	<PolyData>
		<Piece NumberOfPoints="2601" NumberOfPolys="2500">
			<Points>
				<DataArray type="Float32" NumberOfComponents="3" format="ascii">
 0 0 0 0.520543 0 0 0.322344 0 0 0.458914 0 0 0.452763 0 0 0.485598 0 0 0.507272 0 0 0.528934 0 0 0.548946 0 0 0.565045 0 0 0.582045 0 0 0.594654 0 0 0.609774 0 0 0.62122 0 0 0.634183 0 0 0.644231 0 0 0.655544 0 0 0.66382 0 0 0.673991 0 0 0.681622 0 0 0.690725 0 0 0.697807 0 0 0.705589 0 0 0.712144 0 0 0.71891 0 0 0.72528 0 0 0.731347 0 0 0.736769 0 0 0.742176 0 0 0.747408 0 0 0.752336 0 0 0.757069 0 0 0.761506 0 0 0.765731 0 0 0.769841 0 0 0.773736 0 0 0.777521 0 0 0.781321 0 0 0.785796 0 0 0.792268 0 0 0.803046 0 0 0.820138 0 0 0.84 0 0 0.86 0 0 0.88 0 0 0.9 0 0 0.92 0 0 0.94 0 0 0.96 0 0 0.98 0 0 1 0 0 0 0.520543 0 0.17473 0.17473 0 0.445872 0.217756 0 0.36605 0.193848 0 0.450398 0.114203 0 0.474694 0.102717 0 0.502728 0.0908686 0 0.52514 0.0807025 0 0.544313 0.0752189 0 0.563233 0.0688191 0 0.577832 0.063619 0 0.594429 0.0585414 0 0.606772 0.0544936 0 0.620863 0.051138 0 0.63181 0.0486248 0 0.6441 0.046333 0 0.653289 0.0439959 0 0.664014 0.0418277 0 0.672002 0.0396701 0 0.68176 0.0377972 0 0.68924 0.0361216 0 0.697659 0.034691 0 0.704541 0.0334046 0 0.711818 0.0321691 0 0.71833 0.0310164 0 0.724865 0.0299025 0 0.730721 0.0288319 0 0.736378 0.0278559 0 0.741742 0.0269932 0 0.74703 0.0262077 0 0.751946 0.0254741 0 0.756714 0.0247735 0 0.761172 0.0240966 0 0.765419 0.0234436 0 0.769547 0.0228216 0 0.773464 0.0222332 0 0.777263 0.0216824 0 0.78108 0.021169 0 0.785584 0.0207057 0 0.792106 0.0203257 0 0.802966 0.020087 0 0.82013 0.0200072 0 0.84 0.02 0 0.86 0.02 0 0.88 0.02 0 0.9 0.02 0 0.92 0.02 0 0.94 0.02 0 0.96 0.02 0 0.98 0.02 0 1 0.02 0 0 0.322344 0 0.217756 0.445872 0 0.205383 0.205383 0 0.40826 0.283651 0 0.400503 0.229035 0 0.448672 0.192658 0 0.481347 0.171048 0 0.508268 0.159989 0 0.531864 0.145068 0 0.551241 0.135007 0 0.570762 0.124145 0 0.585637 0.115558 0 0.602198 0.107718 0 0.61454 0.101735 0 0.628282 0.0965811 0 0.638914 0.0919918 0 0.650751 0.0876154 0 0.659577 0.0830666 0 0.670223 0.0789828 0 0.678271 0.0751503 0 0.687707 0.0719074 0 0.695002 0.0690747 0 0.702961 0.0665065 0 0.709836 0.0641318 0 0.716959 0.0618019 0 0.723219 0.0595814 0 0.729248 0.0574825 0 0.735091 0.0556026 0 0.740542 0.0538886 0 0.745849 0.05233 0 0.750828 0.0508638 0 0.75564 0.0494644 0 0.760188 0.0481091 0 0.764491 0.0468069 0 0.768673 0.0455699 0 0.77265 0.0444035 0 0.77649 0.0433112 0 0.78036 0.0422927 0 0.78495 0.0413745 0 0.791626 0.0406253 0 0.802732 0.0401625 0 0.82011 0.0400124 0 0.84 0.04 0 0.86 0.04 0 0.88 0.04 0 0.9 0.04 0 0.92 0.04 0 0.94 0.04 0 0.96 0.04 0 0.98 0.04 0 1 0.04 0 0 0.458914 0 0.193848 0.36605 0 0.283651 0.40826 0 0.234098 0.234098 0 0.353562 0.321569 0 0.416235 0.257612 0 0.453217 0.246151 0 0.485596 0.222092 0 0.512741 0.210328 0 0.537221 0.193143 0 0.556846 0.18099 0 0.576812 0.168489 0 0.591694 0.159049 0 0.607776 0.150234 0 0.620027 0.143238 0 0.633481 0.136427 0 0.643824 0.129655 0 0.655592 0.123354 0 0.664617 0.117127 0 0.675207 0.111751 0 0.683285 0.106977 0 0.692207 0.102849 0 0.699453 0.0991886 0 0.707283 0.0956854 0 0.714105 0.0923206 0 0.720718 0.0889999 0 0.726901 0.0859459 0 0.732992 0.0831491 0 0.738545 0.0806116 0 0.74392 0.0782842 0 0.749004 0.0760965 0 0.753884 0.0739894 0 0.75857 0.0719607 0 0.762971 0.0700168 0 0.767234 0.0681804 0 0.771306 0.0664557 0 0.775208 0.0648383 0 0.779167 0.0633288 0 0.783906 0.0619714 0 0.790845 0.0608742 0 0.802369 0.0602167 0 0.820082 0.0600144 0 0.84 0.06 0 0.86 0.06 0 0.88 0.06 0 0.9 0.06 0 0.92 0.06 0 0.94 0.06 0 0.96 0.06 0 0.98 0.06 0 1 0.06 0 0 0.452763 0 0.114203 0.450398 0 0.229035 0.400503 0 0.321569 0.353562 0 0.303416 0.303416 0 0.374534 0.348135 0 0.427491 0.284906 0 0.463091 0.284192 0 0.492977 0.259592 0 0.518793 0.248251 0 0.542674 0.23094 0 0.56155 0.219267 0 0.580749 0.206757 0 0.595244 0.197447 0 0.61116 0.187701 0 0.623503 0.178977 0 0.637055 0.170352 0 0.647606 0.161854 0 0.659615 0.154291 0 0.66879 0.147299 0 0.679045 0.141345 0 0.686922 0.13612 0 0.695606 0.131289 0 0.703019 0.126777 0 0.710491 0.122269 0 0.717139 0.118027 0 0.723834 0.114047 0 0.729943 0.110403 0 0.7358 0.107069 0 0.741258 0.103998 0 0.746502 0.101082 0 0.751486 0.0982716 0 0.756339 0.0955778 0 0.760888 0.0930143 0 0.76525 0.0906028 0 0.769443 0.0883455 0 0.773427 0.0862215 0 0.777515 0.0842391 0 0.782471 0.0824643 0 0.789793 0.0810517 0 0.801917 0.0802431 0 0.820053 0.0800131 0 0.84 0.08 0 0.86 0.08 0 0.88 0.08 0 0.9 0.08 0 0.92 0.08 0 0.94 0.08 0 0.96 0.08 0 0.98 0.08 0 1 0.08 0 0 0.485598 0 0.102717 0.474694 0 0.192658 0.448672 0 0.257612 0.416235 0 0.348135 0.374534 0 0.362076 0.362076 0 0.403645 0.357233 0 0.4382 0.31304 0 0.47206 0.315144 0 0.499832 0.290402 0 0.523657 0.280697 0 0.546417 0.263753 0 0.564513 0.252884 0 0.583543 0.239733 0 0.598228 0.229573 0 0.614235 0.218488 0 0.626807 0.20829 0 0.640499 0.198712 0 0.651199 0.189679 0 0.662939 0.181889 0 0.671876 0.17488 0 0.68172 0.16857 0 0.689713 0.162779 0 0.698193 0.15704 0 0.705529 0.151618 0 0.713047 0.146413 0 0.719779 0.141646 0 0.72617 0.137203 0 0.732229 0.133165 0 0.737922 0.129351 0 0.743334 0.125723 0 0.748505 0.122226 0 0.753514 0.118897 0 0.758264 0.115752 0 0.762744 0.112799 0 0.767073 0.110035 0 0.771163 0.107423 0 0.775424 0.104987 0 0.780673 0.102825 0 0.788512 0.101142 0 0.801429 0.10024 0 0.82003 0.10001 0 0.84 0.1 0 0.86 0.1 0 0.88 0.1 0 0.9 0.1 0 0.92 0.1 0 0.94 0.1 0 0.96 0.1 0 0.98 0.1 0 1 0.1 0 0 0.507272 0 0.0908686 0.502728 0 0.171048 0.481347 0 0.246151 0.453217 0 0.284906 0.427491 0 0.357233 0.403645 0 0.387358 0.387358 0 0.421798 0.373861 0 0.449059 0.338479 0 0.47912 0.342383 0 0.505908 0.316335 0 0.528268 0.308523 0 0.550457 0.291034 0 0.568209 0.280616 0 0.587168 0.266454 0 0.601812 0.255579 0 0.61771 0.243895 0 0.630141 0.233458 0 0.643491 0.223973 0 0.653856 0.215193 0 0.665165 0.207299 0 0.674094 0.200076 0 0.683752 0.19304 0 0.691761 0.186473 0 0.700242 0.180065 0 0.707817 0.174199 0 0.715043 0.168601 0 0.72161 0.163506 0 0.727968 0.158732 0 0.73391 0.15423 0 0.739579 0.149909 0 0.744967 0.145784 0 0.750145 0.141868 0 0.755106 0.138194 0 0.759738 0.134734 0 0.764208 0.131484 0 0.768444 0.1284 0 0.772927 0.125538 0 0.778557 0.123029 0 0.787062 0.12114 0 0.800965 0.120209 0 0.820014 0.120006 0 0.84 0.12 0 0.86 0.12 0 0.88 0.12 0 0.9 0.12 0 0.92 0.12 0 0.94 0.12 0 0.96 0.12 0 0.98 0.12 0 1 0.12 0 0 0.528934 0 0.0807025 0.52514 0 0.159989 0.508268 0 0.222092 0.485596 0 0.284192 0.463091 0 0.31304 0.4382 0 0.373861 0.421798 0 0.406881 0.406881 0 0.436356 0.391535 0 0.460131 0.361353 0 0.485952 0.365993 0 0.511774 0.33782 0 0.533074 0.332299 0 0.554716 0.313675 0 0.571945 0.303823 0 0.590529 0.289235 0 0.604883 0.278414 0 0.62034 0.266901 0 0.632513 0.256693 0 0.64549 0.247232 0 0.655763 0.238513 0 0.666893 0.230097 0 0.675781 0.222372 0 0.685417 0.214744 0 0.693739 0.207858 0 0.702028 0.201117 0 0.709358 0.194963 0 0.71649 0.189135 0 0.723004 0.183693 0 0.729368 0.178511 0 0.735258 0.173576 0 0.740936 0.168891 0 0.746276 0.164463 0 0.751435 0.160302 0 0.756257 0.156367 0 0.760878 0.152644 0 0.7653 0.149113 0 0.770069 0.14586 0 0.776185 0.143063 0 0.785524 0.14105 0 0.800577 0.14016 0 0.820005 0.140003 0 0.84 0.14 0 0.86 0.14 0 0.88 0.14 0 0.9 0.14 0 0.92 0.14 0 0.94 0.14 0 0.96 0.14 0 0.98 0.14 0 1 0.14 0 0 0.548946 0 0.0752189 0.544313 0 0.145068 0.531864 0 0.210328 0.512741 0 0.259592 0.492977 0 0.315144 0.47206 0 0.338479 0.449059 0 0.391535 0.436356 0 0.424 0.424 0 0.449906 0.407384 0 0.472331 0.381951 0 0.495021 0.385001 0 0.518668 0.3558 0 0.53884 0.352275 0 0.5596 0.332589 0 0.576036 0.323778 0 0.59401 0.309181 0 0.60789 0.298802 0 0.622816 0.287474 0 0.634744 0.277559 0 0.647419 0.267825 0 0.657495 0.25901 0 0.668474 0.250162 0 0.677644 0.242339 0 0.687162 0.234453 0 0.695226 0.227325 0 0.703381 0.220421 0 0.710638 0.214042 0 0.717647 0.207906 0 0.724273 0.202179 0 0.730482 0.196693 0 0.73642 0.191545 0 0.741969 0.18665 0 0.747293 0.182031 0 0.75234 0.177642 0 0.757123 0.17347 0 0.761774 0.169528 0 0.766901 0.165938 0 0.773634 0.162927 0 0.784001 0.160891 0 0.800297 0.160105 0 0.820002 0.160001 0 0.84 0.16 0 0.86 0.16 0 0.88 0.16 0 0.9 0.16 0 0.92 0.16 0 0.94 0.16 0 0.96 0.16 0 0.98 0.16 0 1 0.16 0 0 0.565045 0 0.0688191 0.563233 0 0.135007 0.551241 0 0.193143 0.537221 0 0.248251 0.518793 0 0.290402 0.499832 0 0.342383 0.47912 0 0.361353 0.460131 0 0.407384 0.449906 0 0.438954 0.438954 0 0.462337 0.421497 0 0.485081 0.399894 0 0.505929 0.399576 0 0.526536 0.371449 0 0.546011 0.3689 0 0.56544 0.348737 0 0.580949 0.341086 0 0.597969 0.326597 0 0.611275 0.316825 0 0.625598 0.305518 0 0.637085 0.295855 0 0.64944 0.285827 0 0.659599 0.277218 0 0.670465 0.268203 0 0.67937 0.260277 0 0.688614 0.252251 0 0.696736 0.24506 0 0.704584 0.237966 0 0.711841 0.231451 0 0.718765 0.225183 0 0.725272 0.219308 0 0.731463 0.21371 0 0.737261 0.208397 0 0.742752 0.203327 0 0.748025 0.198515 0 0.752991 0.19393 0 0.757913 0.189634 0 0.763479 0.185774 0 0.770987 0.182635 0 0.782618 0.180692 0 0.800128 0.180056 0 0.82 0.18 0 0.84 0.18 0 0.86 0.18 0 0.88 0.18 0 0.9 0.18 0 0.92 0.18 0 0.94 0.18 0 0.96 0.18 0 0.98 0.18 0 1 0.18 0 0 0.582045 0 0.063619 0.577832 0 0.124145 0.570762 0 0.18099 0.556846 0 0.23094 0.542674 0 0.280697 0.523657 0 0.316335 0.505908 0 0.365993 0.485952 0 0.381951 0.472331 0 0.421497 0.462337 0 0.452109 0.452109 0 0.473536 0.433947 0 0.496634 0.415549 0 0.516699 0.411611 0 0.534809 0.385705 0 0.553554 0.383268 0 0.571583 0.363096 0 0.58632 0.356305 0 0.602363 0.341881 0 0.615073 0.33261 0 0.628705 0.321216 0 0.640005 0.312033 0 0.652121 0.301924 0 0.66192 0.293417 0 0.672359 0.284288 0 0.681256 0.27647 0 0.690177 0.268433 0 0.69808 0.261228 0 0.705825 0.254198 0 0.712828 0.247635 0 0.719712 0.241353 0 0.726094 0.23537 0 0.732191 0.229639 0 0.73787 0.224166 0 0.743346 0.218966 0 0.748516 0.21403 0 0.753763 0.209442 0 0.759866 0.205386 0 0.768334 0.202217 0 0.781499 0.200481 0 
[...]
			<PointData Scalars="VitesseX">
				<DataArray Name="VitesseX" type="Float32" format="ascii">
 0 1.62087 0.269252 1.01115 0.82352 0.950965 0.958097 1.02038 1.03286 1.0951 1.14008 1.14674 1.21192 1.23204 1.2441 1.26972 1.30204 1.31415 1.32146 1.33308 1.38574 1.41661 1.44326 1.45881 1.44781 1.45158 1.56159 1.53611 1.57234 1.56032 1.59503 1.62258 1.62442 1.65673 1.6634 1.66822 1.68264 1.64922 1.51813 1.19554 0.594766 0.0532827 0.000114131 1.95021e-09 6.45404e-15 -3.61524e-12 3.5954e-12 -3.5954e-12 3.61523e-12 1.99337e-14 0 0 0.116345 1.20443 0.520402 0.866541 0.879084 0.974065 1.00046 1.04894 1.08055 1.13387 1.15629 1.19156 1.235 1.23774 1.25972 1.30539 1.31327 1.31511 1.34376 1.37469 1.43028 1.43209 1.45157 1.44236 1.48015 1.54402 1.53664 1.56735 1.56745 1.5901 1.62275 1.623 1.65469 1.66346 1.66702 1.68231 1.64815 1.51528 1.18938 0.584829 0.0507165 0.000103284 1.78229e-09 9.51105e-15 -3.61526e-12 3.60537e-12 -3.60537e-12 3.61527e-12 1.49557e-14 0 0 0.789214 0.162261 1.11016 0.659537 0.839379 0.89383 0.968207 0.995838 1.06722 1.09685 1.1211 1.18672 1.20027 1.22285 1.25508 1.29178 1.30624 1.31363 1.33095 1.38539 1.4225 1.43406 1.42517 1.45389 1.50983 1.512 1.53643 1.55984 1.5802 1.58147 1.62027 1.6203 1.64868 1.66342 1.66413 1.68116 1.64466 1.50648 1.17067 0.554964 0.0436076 7.63455e-05 1.35764e-09 9.31354e-15 1.41927e-14 -3.86343e-14 3.86422e-14 -1.41742e-14 9.75896e-15 0 0 0.627861 0.770128 0.174859 0.612651 0.741097 0.860179 0.898454 0.972941 1.0192 1.07213 1.11028 1.15632 1.18818 1.20208 1.24032 1.28318 1.29358 1.30161 1.3371 1.37704 1.42875 1.41129 1.42664 1.46815 1.5076 1.48545 1.54011 1.55115 1.58812 1.57823 1.61128 1.61833 1.63985 1.66234 1.66138 1.67849 1.63793 1.4909 1.13867 0.505289 0.0335744 4.57424e-05 8.62927e-10 1.31308e-14 -5.30403e-12 5.28438e-12 -5.28434e-12 5.29902e-12 9.78485e-15 0 0 0.248638 0.485904 0.714929 0.564716 0.724056 0.790404 0.903014 0.93308 0.997314 1.03176 1.09069 1.13176 1.14793 1.1912 1.22703 1.26371 1.28116 1.29767 1.32939 1.3837 1.40121 1.4074 1.4276 1.4757 1.47554 1.48934 1.53497 1.54413 1.58436 1.58303 1.59706 1.61654 1.63026 1.65859 1.66051 1.67344 1.62684 1.46711 1.09217 0.436983 0.0228142 2.1947e-05 4.54614e-10 2.83977e-15 -5.30844e-12 5.29879e-12 -7.10645e-12 7.11607e-12 9.85519e-15 0 0 0.219731 0.388793 0.440333 0.736487 0.843269 0.808723 0.830259 0.932 0.96058 1.01606 1.04989 1.09431 1.12636 1.16207 1.21067 1.24095 1.26318 1.28734 1.32895 1.35829 1.38889 1.40073 1.44169 1.44029 1.45479 1.50421 1.5225 1.54002 1.57125 1.58726 1.58588 1.61125 1.62295 1.65054 1.66146 1.66604 1.61041 1.43287 1.02915 0.353626 0.0134141 8.30561e-06 1.92436e-10 1.797e-14 1.81736e-12 -1.83197e-12 1.82204e-12 -1.80347e-12 5.86832e-15 0 0 0.189601 0.322889 0.457563 0.468304 0.665273 0.843958 0.838084 0.859628 0.952344 0.993919 1.02971 1.05485 1.10511 1.15018 1.18247 1.22237 1.24612 1.27607 1.3099 1.34047 1.3681 1.41499 1.41462 1.41452 1.44812 1.50471 1.50944 1.53869 1.55335 1.5852 1.58109 1.60248 1.61923 1.63874 1.66162 1.65733 1.58788 1.38534 0.946157 0.262427 0.00665957 2.44425e-06 7.7846e-11 -1.32614e-14 -1.76933e-12 -5.24831e-14 1.85067e-12 -1.81767e-12 2.00909e-14 0 0 0.156729 0.30982 0.39512 0.513603 0.539474 0.684133 0.844238 0.871911 0.902747 0.954222 0.996758 1.04495 1.07194 1.12399 1.16481 1.18945 1.23083 1.2576 1.28962 1.32177 1.37272 1.38679 1.38596 1.40479 1.45781 1.47575 1.5132 1.52406 1.54472 1.57207 1.58091 1.59309 1.61798 1.62685 1.65868 1.64661 1.55866 1.32193 0.838073 0.174064 0.00271308 5.58889e-07 2.92866e-11 -9.49714e-15 -1.23187e-11 1.22901e-11 -1.22897e-11 1.22897e-11 9.13885e-14 0 0 0.155809 0.260882 0.398839 0.456454 0.58007 0.602986 0.73187 0.856762 0.895268 0.932453 0.96475 1.01771 1.06194 1.09039 1.13375 1.17525 1.20303 1.24 1.27512 1.32283 1.35099 1.3553 1.36278 1.42478 1.43908 1.46437 1.51104 1.50685 1.54376 1.55023 1.58098 1.58592 1.61658 1.61956 1.65135 1.63036 1.5212 1.24134 0.700523 0.100034 0.000877899 1.03544e-07 2.45532e-12 1.23767e-11 -1.05835e-11 1.23477e-11 -2.46615e-11 2.46616e-11 -1.22808e-11 0 0 0.138623 0.258627 0.352893 0.467104 0.516406 0.662497 0.680922 0.767357 0.877606 0.919886 0.975875 0.994219 1.02901 1.08281 1.10847 1.14945 1.19671 1.22187 1.27121 1.30813 1.31764 1.32667 1.3823 1.40949 1.42528 1.46262 1.49624 1.50065 1.53872 1.53069 1.57594 1.58266 1.61225 1.61871 1.63988 1.60509 1.47088 1.14238 0.536056 0.0480559 0.000217192 1.72988e-08 8.89626e-13 -5.31989e-15 1.23512e-11 -1.238e-11 3.41179e-14 -2.09583e-17 -1.4884e-16 0 0 0.130742 0.233775 0.338182 0.425364 0.534801 0.585282 0.735498 0.739272 0.812016 0.895639 0.936257 1.01259 1.01849 1.05274 1.10398 1.13446 1.17899 1.22491 1.25598 1.28223 1.29263 1.33863 1.37664 1.3921 1.41661 1.46423 1.46671 1.51178 1.51934 1.52725 1.56054 1.58431 1.60409 1.6198 1.62547 1.57036 1.40022 1.01875 0.361026 0.0185542 3.92446e-05 2.81005e-09 -1.21262e-11 3.37674e-14 -1.82361e-15 5.30345e-16 1.22529e-11 -2.46378e-11 2.47057e-11 0 0 0.119242 0.212718 0.322157 0.412529 0.505915 0.594438 0.629931 0.790612 0.794114 0.845748 0.924258 0.954653 1.04314 1.05235 1.07146 1.13661 1.16366 1.20728 1.24982 1.25797 1.29728 1.34652 1.35821 1.3733 1.43029 1.43518 1.46225 1.50542 1.50537 1.52853 1.54581 1.58316 1.5976 1.61612 1.60663 1.52686 1.30518 0.856647 0.204305 0.00551887 4.93383e-06 4.0886e-10 -1.23503e-11 9.15483e-14 -1.99559e-15 -4.87432e-16 1.22536e-11 -1.23762e-11 9.11273e-14 0 0 0.10988 0.20479 0.307748 0.401757 0.484175 0.565078 0.650856 0.682065 0.826266 0.830725 0.873087 0.952625 1.0059 1.06458 1.09577 1.11023 1.15749 1.20117 1.21623 1.25788 1.30995 1.32948 1.3352 1.38267 1.4108 1.42327 1.4615 1.48471 1.50181 1.52472 1.53948 1.57498 1.59417 1.6075 1.57791 1.46818 1.18724 0.648011 0.092385 0.00120349 4.30385e-07 2.19746e-11 3.33015e-11 -1.22953e-11 1.23174e-11 -1.23183e-11 -2.1003e-11 3.32653e-11 -2.4639e-11 0 0 0.101271 0.196284 0.289276 0.388216 0.463584 0.549502 0.61935 0.704717 0.724291 0.84479 0.865361 0.916231 0.995094 1.01383 1.09737 1.0993 1.14198 1.18392 1.19975 1.26247 1.30501 1.30076 1.33494 1.3768 1.39129 1.42186 1.45809 1.46068 1.5089 1.50847 1.54291 1.56103 1.5892 1.59256 1.53946 1.3827 1.0397 0.414882 0.0317282 0.000180122 3.11221e-08 -2.96627e-11 3.32645e-11 9.12994e-14 -1.24203e-11 1.9571e-14 -2.09255e-11 -3.15131e-14 2.10103e-11 0 0 0.0977349 0.1821 0.285189 0.36776 0.46221 0.522424 0.612272 0.659941 0.747159 0.7665 0.868936 0.901268 0.927024 1.02691 1.05503 1.10306 1.14914 1.15487 1.21255 1.2622 1.26491 1.29234 1.34052 1.3584 1.38385 1.43229 1.42876 1.47074 1.4931 1.50432 1.53839 1.55082 1.58104 1.56755 1.48943 1.26933 0.838731 0.210557 0.00786434 1.70325e-05 2.46179e-09 2.98679e-13 -1.2386e-11 8.92329e-14 1.10994e-15 -1.3913e-13 -2.08336e-11 -2.85307e-15 3.33013e-11 0 0 0.090459 0.183761 0.267657 0.371094 0.432921 0.521667 0.571433 0.661371 0.691104 0.784168 0.798515 0.901473 0.93766 0.960314 1.02765 1.08588 1.0981 1.13664 1.18956 1.22887 1.24693 1.29365 1.32521 1.34729 1.39576 1.40797 1.42851 1.46764 1.47653 1.50719 1.52335 1.5455 1.56664 1.53061 1.41143 1.12871 0.578076 0.0795107 0.00132086 9.65822e-07 1.40134e-10 3.33209e-11 -1.23856e-11 8.93349e-14 -2.10015e-11 3.3207e-11 -3.32652e-11 3.3386e-11 -8.6411e-14 0 0 0.0889033 0.176687 0.264218 0.349464 0.427672 0.483702 0.571343 0.612687 0.704485 0.7233 0.823796 0.840532 0.905409 0.969134 0.983299 1.05284 1.08611 1.1331 1.17152 1.2065 1.24263 1.27984 1.29949 1.3471 1.38408 1.39078 1.43033 1.45216 1.46527 1.506 1.5049 1.54228 1.53577 1.48158 1.2972 0.934105 0.312122 0.0210548 0.000136886 3.95921e-08 -2.45555e-11 -2.99674e-14 3.32947e-11 -8.66214e-14 -3.3175e-11 3.31175e-11 1.78272e-13 -3.33853e-11 3.3388e-11 0 0 0.0843825 0.167447 0.249419 0.330938 0.404729 0.472156 0.53889 0.616616 0.654097 0.748828 0.754078 0.853989 0.86909 0.94249 0.986863 0.994747 1.0841 1.1046 1.12355 1.18093 1.20854 1.24818 1.29679 1.33881 1.35433 1.39362 1.42073 1.42402 1.47304 1.47573 1.50601 1.5221 1.49897 1.39726 1.15303 0.657349 0.121751 0.00367001 7.81978e-06 1.8944e-09 4.59538e-13 -3.32936e-11 8.60371e-14 3.32085e-11 1.56052e-15 -2.74446e-15 -3.32075e-11 6.53305e-15 -4.72782e-15 0 0 0.0787979 0.158942 0.233384 0.316065 0.38564 0.457906 0.523262 0.589669 0.658328 0.696573 0.783611 0.78639 0.87942 0.893112 0.937526 1.0379 1.02832 1.07988 1.1412 1.1713 1.19398 1.23271 1.28702 1.30826 1.34258 1.38421 1.38726 1.42794 1.44632 1.46621 1.49595 1.49222 1.44187 1.2749 0.946448 0.352291 0.0319867 0.000379745 2.44916e-07 4.59068e-11 -3.75888e-14 3.32981e-11 -3.31211e-11 2.02491e-16 3.32079e-11 -3.32089e-11 5.41477e-15 3.58277e-16 -4.12289e-15 0 0 0.0765441 0.149532 0.228225 0.301342 0.381055 0.44152 0.512752 0.573604 0.644862 0.698908 0.729847 0.80419 0.79847 0.910918 0.930142 0.976043 1.02454 1.07817 1.12667 1.1485 1.20243 1.23661 1.25675 1.28887 1.3415 1.35451 1.38022 1.41595 1.42609 1.45683 1.47682 1.44965 1.34868 1.11838 0.64223 0.130415 0.00522688 2.03512e-05 6.88988e-09 2.22933e-12 9.20427e-14 3.31157e-11 -3.30289e-11 -4.23122e-16 3.31163e-11 -3.3116e-11 3.90083e-15 -5.62481e-15 3.33023e-11 0 0 0.0739971 0.148209 0.222157 0.299631 0.365991 0.434643 0.495245 0.573747 0.624923 0.675934 0.716422 0.753914 0.843885 0.85022 0.928251 0.967019 0.984619 1.06475 1.08318 1.13894 1.18318 1.22419 1.23658 1.29141 1.3156 1.3351 1.37925 1.3862 1.41392 1.45064 1.43534 1.38658 1.21269 0.882813 0.315619 0.030529 0.000477192 5.08128e-07 1.955e-10 3.3367e-11 -3.32069e-11 3.31164e-11 -3.30295e-11 3.31165e-11 -3.99444e-16 -3.31158e-11 -8.82677e-14 3.33867e-11 -8.60562e-14 0 0 0.0742771 0.146323 0.219861 0.288636 0.357232 0.422458 0.495476 0.552957 0.604296 0.643548 0.705054 0.762517 0.79876 0.85489 0.857047 0.959733 0.982298 1.0112 1.08334 1.09719 1.15427 1.19939 1.23834 1.26916 1.28449 1.3309 1.34448 1.36826 1.41173 1.4127 1.39383 1.2663 1.03583 0.540499 0.0997839 0.00420645 1.97483e-05 9.78138e-09 3.81861e-11 -3.32918e-11 -4.52234e-16 3.32079e-11 -3.31205e-11 3.31172e-11 -3.31167e-11 -8.81851e-14 3.32996e-11 -3.32988e-11 3.3388e-11 0 0 0.0720474 0.141519 0.20861 0.27721 0.348766 0.418517 0.477749 0.527436 0.577344 0.641232 0.694209 0.74108 0.772975 0.806801 0.886856 0.898426 0.972318 1.0142 1.06162 1.09463 1.10082 1.17512 1.2366 1.2296 1.28258 1.30327 1.31837 1.36358 1.38468 1.37538 1.2959 1.11794 0.740269 0.218583 0.0191655 0.000275241 3.56798e-07 2.28233e-10 3.33995e-11 -3.33851e-11 3.33891e-11 -3.32985e-11 6.44773e-16 3.32955e-11 -3.33865e-11 3.33895e-11 -3.33e-11 9.3035e-14 -4.39805e-15 0 0 0.0663525 0.134937 0.201082 0.27356 0.34424 0.402086 0.450684 0.509351 0.573275 0.630759 0.671158 0.70931 0.75951 0.810405 0.842905 0.905345 0.929193 1.0101 1.04233 1.0676 1.11316 1.14482 1.17382 1.23843 1.25081 1.27389 1.31166 1.3396 1.34065 1.30388 1.15087 0.884534 0.361919 0.0554126 0.00176494 7.96744e-06 4.87688e-09 3.66552e-11 -3.32957e-11 3.33858e-11 -3.32953e-11 8.6957e-14 3.31205e-11 -3.32976e-11 3.33851e-11 -3.32947e-11 9.02176e-14 8.08343e-16 -3.64375e-15 0 0 0.0609914 0.131761 0.202176 0.268535 0.328762 0.3798 0.440896 0.505621 0.564704 0.603651 0.65173 0.701248 0.751772 0.78597 0.831337 0.874699 0.947695 0.954682 1.01966 1.07337 1.0957 1.11985 1.16722 1.19831 1.2241 1.2639 1.28894 1.29529 1.2783 1.15493 0.970409 0.491464 0.11583 0.00650022 8.26296e-05 7.61472e-08 8.74982e-11 3.30851e-11 -3.30273e-11 3.32062e-11 -3.32952e-11 8.77738e-14 3.30286e-11 -3.30271e-11 3.32054e-11 -3.32942e-11 9.10342e-14 -1.8316e-13 3.34798e-11 0 0 0.0647787 0.133687 0.197469 0.254775 0.311195 0.374793 0.436654 0.494073 0.539825 0.595001 0.642199 0.691796 0.723776 0.775536 0.820999 0.872906 0.897949 0.962054 0.997545 1.04443 1.0709 1.11213 1.15099 1.16955 1.22267 1.24587 1.25409 1.23727 1.14111 0.994665 0.585642 0.18846 0.0160816 0.000456488 8.73791e-07 1.16642e-09 -6.57788e-11 6.65065e-11 1.78991e-13 -1.79195e-13 9.12842e-14 -6.65975e-11 6.65064e-11 1.79157e-13 -1.79404e-13 9.16654e-14 -6.65983e-11 6.6507e-11 -3.32087e-11 0 0 0.0661615 0.125882 0.184853 0.245571 0.309554 0.369988 0.425604 0.477975 0.535982 0.582565 0.626777 0.662234 0.721002 0.762219 0.808097 0.834432 0.902003 0.933046 0.982318 1.01105 1.0576 1.09407 1.11636 1.16489 1.19979 1.21679 1.20822 1.11995 0.985426 0.642404 0.248692 0.0299202 0.00149217 5.75691e-06 9.88679e-09 -2.43763e-11 1.05759e-13 -9.22259e-14 3.32992e-11 5.61323e-16 -3.33e-11 9.25981e-14 -9.18055e-14 3.32992e-11 8.60872e-14 -3.33856e-11 -4.59455e-16 -1.26308e-15 9.0271e-16 0 0 0.0605524 0.120318 0.182109 0.244313 0.301612 0.358135 0.416919 0.475578 0.52169 0.565001 0.606741 0.662632 0.701523 0.745593 0.777708 0.841905 0.86904 0.918635 0.946478 1.00997 1.03179 1.05336 1.11421 1.14474 1.15357 1.16417 1.08851 0.977081 0.663843 0.286317 0.0441276 0.00309842 2.29529e-05 6.12119e-08 6.35149e-11 2.08997e-13 -5.41478e-16 -1.48821e-17 -9.12895e-14 3.11991e-16 9.14931e-14 -3.36249e-16 -3.35003e-15 3.30292e-11 -3.30303e-11 -1.78977e-13 3.3207e-11 -6.64158e-11 3.32921e-11 0 0 0.0587309 0.117539 0.177168 0.236225 0.294855 0.351787 0.406131 0.455557 0.506724 0.556003 0.604845 0.641164 0.685849 0.727765 0.78355 0.807893 0.860259 0.88856 0.956437 0.96281 1.00998 1.05906 1.07916 1.11218 1.10956 1.02855 0.940698 0.652599 0.3074 0.0533908 0.00474598 5.70955e-05 2.29655e-07 2.51219e-10 7.58318e-13 9.16377e-14 -5.41007e-16 -1.52122e-17 -1.82598e-13 9.18714e-14 9.10905e-14 -4.20012e-15 3.04402e-16 3.30294e-11 -6.64161e-11 6.6414e-11 -3.32995e-11 -3.31159e-11 3.32913e-11 0 0 0.0578418 0.116527 0.175192 0.233473 0.289565 0.342831 0.395029 0.449149 0.498735 0.542758 0.581909 0.629108 0.674793 0.721136 0.750358 0.802386 0.837718 0.893434 0.902321 0.970885 0.989132 1.03054 1.05438 1.04064 0.987197 0.887383 0.606044 0.298083 0.0559355 0.00602129 9.08124e-05 5.29242e-07 7.60537e-10 3.57247e-11 9.40837e-14 -3.32991e-11 9.18034e-14 -9.19267e-14 3.32084e-11 -3.33487e-11 2.25328e-13 3.27976e-11 -3.27987e-11 -8.54643e-14 8.62028e-16 -9.33839e-14 -3.32067e-11 3.32071e-11 9.23363e-14 0 0 0.0575172 0.114182 0.170673 0.22718 0.282688 0.335768 0.386379 0.433404 0.479822 0.526328 0.573159 0.614491 0.656061 0.696007 0.747767 0.784209 0.827986 0.852528 0.917956 0.929243 0.983956 0.973393 0.980259 0.918268 0.816268 0.550966 0.26306 0.0504515 0.00598553 0.000106326 8.59567e-07 1.39061e-09 -2.74818e-11 3.3123e-11 -3.3207e-11 3.32071e-11 -3.31232e-11 3.31229e-11 -3.32076e-11 -5.70692e-14 -8.40077e-11 1.1694e-10 -3.27926e-11 -8.48926e-14 4.82491e-16 -3.33015e-11 3.32101e-11 3.31159e-11 -6.63242e-11 0 0 0.0563272 0.112525 0.167922 0.221648 0.2735 0.324318 0.374298 0.424532 0.473293 0.518436 0.55918 0.60128 0.644502 0.690253 0.72596 0.767347 0.804317 0.858047 0.874953 0.921166 0.902849 0.914275 0.821954 0.735545 0.458784 0.214371 0.0403873 0.00467034 9.01363e-05 8.59025e-07 1.62436e-09 4.21885e-11 -3.31038e-11 3.31201e-11 -3.32067e-11 3.32066e-11 -3.31228e-11 3.31228e-11 -3.32995e-11 1.24202e-13 -8.42743e-11 8.41802e-11 5.99024e-14 -3.72035e-16 -3.3299e-11 3.32983e-11 -9.12624e-14 -9.05757e-14 1.82794e-13 0 0 0.054695 0.108868 0.162491 0.215448 0.26701 0.316506 0.364678 0.412345 0.460088 0.506839 0.551515 0.592275 0.63233 0.67117 0.714523 0.754454 0.795131 0.816329 0.84965 0.834065 0.825386 0.729945 0.62509 0.345449 0.156347 0.0263534 0.00302297 5.64851e-05 5.28114e-07 1.31731e-09 4.23618e-11 -3.32788e-11 1.19583e-15 3.32985e-11 -9.1435e-14 -3.3207e-11 -8.98943e-16 -2.37352e-16 3.3207e-11 -6.65579e-11 6.63744e-11 -6.64646e-11 3.34303e-11 -8.23706e-14 1.59026e-15 8.83624e-14 -8.99552e-14 -3.32071e-11 3.32907e-11 0 0 0.0534244 0.106317 0.15832 0.209181 0.259061 0.308574 0.357716 0.406058 0.452312 0.495924 0.537838 0.580111 0.621006 0.662654 0.698837 0.729779 0.753746 0.77065 0.752606 0.724149 0.624919 0.480383 0.239119 0.0945018 0.013822 0.001455 2.26126e-05 2.28639e-07 7.54322e-10 3.89066e-11 -3.32787e-11 -7.31731e-16 3.32988e-11 -3.32984e-11 3.3208e-11 -6.65066e-11 6.64142e-11 -3.3117e-11 -1.87435e-15 9.12449e-14 -2.7394e-13 -3.31143e-11 3.31968e-11 1.04231e-14 -2.56256e-16 8.94509e-14 -8.9743e-14 -3.32083e-11 3.32921e-11 0 0 0.0518048 0.103303 0.154323 0.204471 0.253512 0.301354 0.348301 0.394531 0.440105 0.483963 0.526238 0.566824 0.604053 0.636121 0.662992 0.679514 0.68079 0.656846 0.607554 0.488131 0.32512 0.143624 0.0450653 0.00569761 0.00044626 5.65394e-06 6.07723e-08 3.1411e-10 -3.06892e-11 3.32976e-11 -3.32947e-11 3.32986e-11 -3.33e-11 9.2231e-14 -9.29067e-14 9.07229e-14 -2.74873e-13 1.83547e-13 -4.69968e-16 8.72393e-14 -1.78688e-13 -9.05306e-14 8.99486e-14 -3.32072e-11 3.32996e-11 -1.05803e-14 -3.32881e-11 3.31148e-11 1.84512e-13 0 0 0.0501975 0.100052 0.1495 0.198573 0.247286 0.295493 0.342806 0.388152 0.430695 0.470122 0.506603 0.539803 0.567511 0.586665 0.590158 0.577691 0.540629 0.461038 0.327806 0.184454 0.068384 0.0159612 0.00160815 8.10071e-05 8.56416e-07 9.77849e-09 -4.17714e-12 6.71684e-11 9.42506e-14 -3.33886e-11 3.33889e-11 -9.12222e-14 -3.32076e-11 8.9624e-14 -4.05805e-17 -2.67428e-15 -8.99532e-14 -3.33e-11 3.33008e-11 -9.38274e-14 2.36529e-15 -9.13675e-14 -3.31174e-11 3.33001e-11 -2.30557e-13 2.19764e-13 -3.34286e-11 6.64646e-11 -6.63244e-11 0 0 0.0488952 0.0976687 0.146186 0.1941 0.240953 0.286446 0.330122 0.370638 0.407141 0.439606 0.467279 0.486387 0.493159 0.485244 0.455487 0.389932 0.290229 0.176613 0.0801575 0.0226969 0.00367047 0.000259664 7.82572e-06 7.40699e-08 1.15039e-09 -2.45849e-11 2.09327e-13 -9.20513e-14 3.32997e-11 -3.33889e-11 3.33889e-11 -3.33896e-11 9.06571e-14 8.76933e-14 1.35901e-15 -9.25213e-14 -8.53164e-15 -8.35416e-14 -3.32077e-11 3.32087e-11 -3.32082e-11 3.31179e-11 -7.76821e-17 1.82576e-13 -2.31776e-13 -8.3917e-11 8.40066e-11 5.02899e-14 9.26773e-14 0 0 0.0465061 0.0927607 0.138434 0.183029 0.225893 0.266252 0.303069 0.334943 0.360221 0.377639 0.3859 0.380831 0.353522 0.297919 0.221211 0.139751 0.0678201 0.0221668 0.00428528 0.00043799 1.90558e-05 3.47654e-07 4.71051e-09 8.58261e-11 7.91724e-13 1.03746e-13 -2.94686e-16 2.11362e-16 -9.09698e-14 3.3293e-11 -3.3293e-11 6.51117e-16 -1.84052e-13 2.70632e-13 -9.00567e-14 -9.53111e-15 -3.32978e-11 3.32042e-11 1.1184e-14 -3.32085e-11 9.62018e-16 3.30666e-11 3.33486e-11 -6.64653e-11 3.32992e-11 -8.41894e-11 1.17125e-10 -6.61842e-11 3.32902e-11 0 0 0.0414728 0.0824024 0.122122 0.159719 0.193999 0.223604 0.247229 0.263368 0.269364 0.260907 0.234588 0.192467 0.141796 0.0890745 0.0429051 0.0141223 0.00292351 0.000339361 1.93579e-05 4.8937e-07 9.34124e-09 2.21477e-10 3.67217e-11 -3.33289e-11 9.11215e-14 9.02128e-14 -8.51035e-16 7.67852e-16 -9.10934e-14 3.32929e-11 -3.32928e-11 -7.3195e-16 3.31157e-11 -6.64176e-11 3.32995e-11 -1.01209e-13 -3.32077e-11 3.32051e-11 1.15688e-14 -3.32076e-11 3.31185e-11 3.97449e-14 -8.40085e-11 8.40997e-11 -3.32994e-11 6.64667e-11 -3.3529e-11 -3.28863e-11 3.32902e-11 0 0 0.0312835 0.0615519 0.0896287 0.114 0.132697 0.143483 0.14459 0.135826 0.118932 0.0961597 0.0689329 0.0404586 0.0177144 0.00537401 0.0010547 0.000121539 7.34449e-06 2.31662e-07 6.44605e-09 2.52647e-10 -2.84301e-11 3.32212e-11 -3.32954e-11 3.33865e-11 3.38661e-15 -3.33005e-11 9.16201e-14 -1.83012e-13 3.33918e-11 -3.3391e-11 3.32991e-11 -3.32091e-11 -1.6274e-15 1.64494e-15 -3.3302e-11 3.32082e-11 -1.04349e-14 9.21413e-15 -3.3207e-11 3.33013e-11 -1.83047e-13 4.10862e-14 -8.40082e-11 8.39179e-11 3.21279e-13 -1.89706e-13 -3.31972e-11 3.3114e-11 1.84675e-13 0 0 0.0140997 0.0269418 0.0373716 0.0444366 0.0474463 0.0459714 0.0399484 0.0301607 0.0188585 0.00924125 0.00336883 0.000867637 0.000147507 1.51702e-05 8.90498e-07 3.59726e-08 1.74122e-09 4.15042e-11 2.09624e-12 3.33625e-11 -3.31177e-11 3.3029e-11 -3.30274e-11 3.32073e-11 3.59813e-15 -7.83637e-16 -6.65989e-11 6.65077e-11 -3.33486e-11 2.25005e-13 -2.27581e-13 1.41955e-13 8.76156e-14 -9.01992e-14 -8.99228e-14 -3.32099e-11 3.32095e-11 -3.32094e-11 3.33019e-11 -2.31234e-13 2.30089e-13 -3.33996e-11 3.33993e-11 -1.40288e-13 -4.3866e-17 1.31748e-13 -3.34297e-11 6.64645e-11 -6.63241e-11 0 0 0.00240494 0.00427276 0.00519601 0.00502988 0.00398203 0.00255656 0.0013004 0.000508269 0.000147157 3.0137e-05 4.12955e-06 3.72801e-07 2.65347e-08 2.13203e-09 1.23575e-10 4.12174e-11 1.81357e-13 -6.64517e-11 6.65044e-11 -3.32068e-11 