<?xml version="1.0"?>
<VTKFile type="PolyData">
	<PolyData>
		<Piece NumberOfPoints="2601" NumberOfPolys="2500">
			<Points>
				<DataArray type="Float32" NumberOfComponents="3" format="ascii">
 0 0 0 0.394989 0 0 0.286527 0 0 0.375874 0 0 0.380709 0 0 0.406492 0 0 0.427322 0 0 0.44398 0 0 0.461531 0 0 0.474326 0 0 0.487828 0 0 0.498135 0 0 0.510398 0 0 0.519143 0 0 0.529567 0 0 0.537234 0 0 0.545998 0 0 0.552977 0 0 0.560115 0 0 0.566222 0 0 0.572712 0 0 0.578783 0 0 0.584246 0 0 0.589314 0 0 0.594217 0 0 0.598749 0 0 0.603166 0 0 0.607281 0 0 0.611154 0 0 0.61517 0 0 0.620281 0 0 0.628163 0 0 0.641281 0 0 0.66002 0 0 0.68 0 0 0.7 0 0 0.72 0 0 0.74 0 0 0.76 0 0 0.78 0 0 0.8 0 0 0.82 0 0 0.84 0 0 0.86 0 0 0.88 0 0 0.9 0 0 0.92 0 0 0.94 0 0 0.96 0 0 0.98 0 0 1 0 0 0 0.394989 0 0.163437 0.163437 0 0.356814 0.160597 0 0.322892 0.141639 0 0.378044 0.0964421 0 0.400804 0.0860443 0 0.421995 0.0767855 0 0.441928 0.0689546 0 0.456996 0.0637414 0 0.472686 0.0583824 0 0.484412 0.0537117 0 0.497623 0.0494069 0 0.507601 0.0456558 0 0.519118 0.0427257 0 0.527272 0.0402098 0 0.53702 0.0380839 0 0.544402 0.0361123 0 0.552489 0.0342667 0 0.559035 0.0325649 0 0.565725 0.0310254 0 0.572022 0.0296811 0 0.578125 0.0284399 0 0.583666 0.0273109 0 0.588809 0.0262695 0 0.593733 0.0252892 0 0.598313 0.0243617 0 0.602748 0.0234981 0 0.606904 0.0226974 0 0.610803 0.0219609 0 0.614854 0.0212937 0 0.620018 0.0207179 0 0.627985 0.0202816 0 0.641222 0.0200561 0 0.660018 0.0200017 0 0.68 0.02 0 0.7 0.02 0 0.72 0.02 0 0.74 0.02 0 0.76 0.02 0 0.78 0.02 0 0.8 0.02 0 0.82 0.02 0 0.84 0.02 0 0.86 0.02 0 0.88 0.02 0 0.9 0.02 0 0.92 0.02 0 0.94 0.02 0 0.96 0.02 0 0.98 0.02 0 1 0.02 0 0 0.286527 0 0.160597 0.356814 0 0.188746 0.188746 0 0.32236 0.225835 0 0.342424 0.189047 0 0.378748 0.162892 0 0.406358 0.146134 0 0.426816 0.135424 0 0.44718 0.12329 0 0.462457 0.114111 0 0.478233 0.104796 0 0.490386 0.0969464 0 0.503881 0.0903344 0 0.513585 0.084537 0 0.524649 0.0799036 0 0.532769 0.0757044 0 0.542049 0.0718453 0 0.549313 0.0681878 0 0.556837 0.0647323 0 0.563587 0.0616912 0 0.570257 0.0589827 0 0.576165 0.0565719 0 0.582052 0.0543977 0 0.587276 0.0523609 0 0.592341 0.0504318 0 0.597018 0.0486045 0 0.601514 0.0468918 0 0.605775 0.0453055 0 0.609751 0.0438427 0 0.61391 0.0425197 0 0.619236 0.0413816 0 0.627462 0.0405281 0 0.641058 0.0401002 0 0.660014 0.0400027 0 0.68 0.04 0 0.7 0.04 0 0.72 0.04 0 0.74 0.04 0 0.76 0.04 0 0.78 0.04 0 0.8 0.04 0 0.82 0.04 0 0.84 0.04 0 0.86 0.04 0 0.88 0.04 0 0.9 0.04 0 0.92 0.04 0 0.94 0.04 0 0.96 0.04 0 0.98 0.04 0 1 0.04 0 0 0.375874 0 0.141639 0.322892 0 0.225835 0.32236 0 0.214929 0.214929 0 0.300163 0.263385 0 0.350971 0.220299 0 0.381053 0.208374 0 0.409091 0.189465 0 0.430313 0.177955 0 0.451062 0.163374 0 0.46666 0.152273 0 0.482849 0.141576 0 0.495124 0.132593 0 0.508193 0.12512 0 0.517636 0.118373 0 0.528401 0.112391 0 0.536597 0.106691 0 0.545429 0.101251 0 0.552783 0.0962904 0 0.560447 0.0917913 0 0.567021 0.0878166 0 0.573359 0.0842874 0 0.57932 0.0811311 0 0.584837 0.0781352 0 0.590049 0.0753 0 0.59491 0.0725994 0 0.599489 0.0700656 0 0.603915 0.0677257 0 0.608013 0.065564 0 0.612357 0.0636105 0 0.61796 0.061939 0 0.626626 0.0607084 0 0.640822 0.0601231 0 0.660009 0.0600025 0 0.68 0.06 0 0.7 0.06 0 0.72 0.06 0 0.74 0.06 0 0.76 0.06 0 0.78 0.06 0 0.8 0.06 0 0.82 0.06 0 0.84 0.06 0 0.86 0.06 0 0.88 0.06 0 0.9 0.06 0 0.92 0.06 0 0.94 0.06 0 0.96 0.06 0 0.98 0.06 0 1 0.06 0 0 0.380709 0 0.0964421 0.378044 0 0.189047 0.342424 0 0.263385 0.300163 0 0.257005 0.257005 0 0.314651 0.28691 0 0.359416 0.244719 0 0.387595 0.240107 0 0.414287 0.220416 0 0.434747 0.20936 0 0.454942 0.194414 0 0.470373 0.183452 0 0.486152 0.17287 0 0.497917 0.163678 0 0.510686 0.155441 0 0.520274 0.147647 0 0.530852 0.140187 0 0.539257 0.1333 0 0.548174 0.126869 0 0.555644 0.121185 0 0.562849 0.116054 0 0.569424 0.111568 0 0.575633 0.107395 0 0.581465 0.1035 0 0.586919 0.099769 0 0.592013 0.0962409 0 0.596747 0.0929286 0 0.601343 0.0898779 0 0.605621 0.0870505 0 0.610226 0.0845031 0 0.616232 0.0823427 0 0.625537 0.0808 0 0.640563 0.080121 0 0.660004 0.0800017 0 0.68 0.08 0 0.7 0.08 0 0.72 0.08 0 0.74 0.08 0 0.76 0.08 0 0.78 0.08 0 0.8 0.08 0 0.82 0.08 0 0.84 0.08 0 0.86 0.08 0 0.88 0.08 0 0.9 0.08 0 0.92 0.08 0 0.94 0.08 0 0.96 0.08 0 0.98 0.08 0 1 0.08 0 0 0.406492 0 0.0860443 0.400804 0 0.162892 0.378748 0 0.220299 0.350971 0 0.28691 0.314651 0 0.296055 0.296055 0 0.33593 0.300584 0 0.368054 0.267431 0 0.394676 0.265156 0 0.419354 0.245018 0 0.438537 0.235388 0 0.457968 0.220996 0 0.472845 0.210422 0 0.48824 0.199624 0 0.499978 0.189936 0 0.512652 0.180602 0 0.522438 0.17199 0 0.533085 0.16374 0 0.541667 0.156411 0 0.550117 0.149567 0 0.557469 0.143635 0 0.564601 0.13817 0 0.570955 0.133095 0 0.577237 0.128292 0 0.582961 0.123728 0 0.588361 0.119416 0 0.593333 0.115398 0 0.59809 0.111681 0 0.602606 0.108236 0 0.607564 0.105138 0 0.614123 0.102554 0 0.624285 0.100794 0 0.640331 0.100097 0 0.660002 0.100001 0 0.68 0.1 0 0.7 0.1 0 0.72 0.1 0 0.74 0.1 0 0.76 0.1 0 0.78 0.1 0 0.8 0.1 0 0.82 0.1 0 0.84 0.1 0 0.86 0.1 0 0.88 0.1 0 0.9 0.1 0 0.92 0.1 0 0.94 0.1 0 0.96 0.1 0 0.98 0.1 0 1 0.1 0 0 0.427322 0 0.0767855 0.421995 0 0.146134 0.406358 0 0.208374 0.381053 0 0.244719 0.359416 0 0.300584 0.33593 0 0.31905 0.31905 0 0.350804 0.315406 0 0.376791 0.28739 0 0.400696 0.286531 0 0.42412 0.26575 0 0.442216 0.25755 0 0.460929 0.243195 0 0.475385 0.232838 0 0.490416 0.221443 0 0.502114 0.21151 0 0.514714 0.201634 0 0.524633 0.19297 0 0.534741 0.184511 0 0.543024 0.177142 0 0.551452 0.170238 0 0.558682 0.163968 0 0.565618 0.157975 0 0.572126 0.152377 0 0.578279 0.147043 0 0.583966 0.142054 0 0.589275 0.137398 0 0.594208 0.133065 0 0.599021 0.12905 0 0.604435 0.125465 0 0.611726 0.122546 0 0.623 0.120699 0 0.640162 0.120063 0 0.66 0.12 0 0.68 0.12 0 0.7 0.12 0 0.72 0.12 0 0.74 0.12 0 0.76 0.12 0 0.78 0.12 0 0.8 0.12 0 0.82 0.12 0 0.84 0.12 0 0.86 0.12 0 0.88 0.12 0 0.9 0.12 0 0.92 0.12 0 0.94 0.12 0 0.96 0.12 0 0.98 0.12 0 1 0.12 0 0 0.44398 0 0.0689546 0.441928 0 0.135424 0.426816 0 0.189465 0.409091 0 0.240107 0.387595 0 0.267431 0.368054 0 0.315406 0.350804 0 0.336944 0.336944 0 0.363209 0.329575 0 0.385492 0.304741 0 0.406785 0.304912 0 0.428716 0.283264 0 0.445802 0.276259 0 0.463813 0.261629 0 0.477815 0.251612 0 0.492554 0.239933 0 0.504148 0.230364 0 0.516284 0.220297 0 0.525833 0.211733 0 0.535755 0.203284 0 0.544109 0.195865 0 0.552241 0.188612 0 0.559535 0.18199 0 0.566397 0.1756 0 0.572896 0.169679 0 0.578929 0.164076 0 0.584574 0.158866 0 0.589764 0.153958 0 0.594949 0.149435 0 0.600936 0.145447 0 0.609163 0.14232 0 0.621839 0.140539 0 0.640064 0.140031 0 0.66 0.14 0 0.68 0.14 0 0.7 0.14 0 0.72 0.14 0 0.74 0.14 0 0.76 0.14 0 0.78 0.14 0 0.8 0.14 0 0.82 0.14 0 0.84 0.14 0 0.86 0.14 0 0.88 0.14 0 0.9 0.14 0 0.92 0.14 0 0.94 0.14 0 0.96 0.14 0 0.98 0.14 0 1 0.14 0 0 0.461531 0 0.0637414 0.456996 0 0.12329 0.44718 0 0.177955 0.430313 0 0.220416 0.414287 0 0.265156 0.394676 0 0.28739 0.376791 0 0.329575 0.363209 0 0.35233 0.35233 0 0.374762 0.341806 0 0.394956 0.320173 0 0.414037 0.319624 0 0.433994 0.297918 0 0.449984 0.291839 0 0.467041 0.277013 0 0.480612 0.267755 0 0.494766 0.255926 0 0.505823 0.246808 0 0.517601 0.236794 0 0.527098 0.228501 0 0.536623 0.219886 0 0.544971 0.212356 0 0.552971 0.204913 0 0.560083 0.198044 0 0.566994 0.191528 0 0.573324 0.185439 0 0.579323 0.179702 0 0.584833 0.1743 0 0.590496 0.169347 0 0.5972 0.165084 0 0.606584 0.161913 0 0.620948 0.160353 0 0.640019 0.160012 0 0.66 0.16 0 0.68 0.16 0 0.7 0.16 0 0.72 0.16 0 0.74 0.16 0 0.76 0.16 0 0.78 0.16 0 0.8 0.16 0 0.82 0.16 0 0.84 0.16 0 0.86 0.16 0 0.88 0.16 0 0.9 0.16 0 0.92 0.16 0 0.94 0.16 0 0.96 0.16 0 0.98 0.16 0 1 0.16 0 0 0.474326 0 0.0583824 0.472686 0 0.114111 0.462457 0 0.163374 0.451062 0 0.20936 0.434747 0 0.245018 0.419354 0 0.286531 0.400696 0 0.304741 0.385492 0 0.341806 0.374762 0 0.365193 0.365193 0 0.385362 0.352189 0 0.40427 0.333677 0 0.422256 0.331137 0 0.439861 0.310367 0 0.455074 0.304803 0 0.470876 0.290026 0 0.483622 0.281514 0 0.497089 0.269754 0 0.507899 0.261354 0 0.519068 0.251317 0 0.528261 0.243169 0 0.537682 0.234621 0 0.545675 0.226981 0 0.55352 0.219507 0 0.560589 0.212609 0 0.567351 0.206025 0 0.573617 0.199864 0 0.579531 0.194039 0 0.585763 0.188792 0 0.593388 0.184409 0 0.604195 0.181407 0 0.620392 0.180186 0 0.640004 0.180003 0 0.66 0.18 0 0.68 0.18 0 0.7 0.18 0 0.72 0.18 0 0.74 0.18 0 0.76 0.18 0 0.78 0.18 0 0.8 0.18 0 0.82 0.18 0 0.84 0.18 0 0.86 0.18 0 0.88 0.18 0 0.9 0.18 0 0.92 0.18 0 0.94 0.18 0 0.96 0.18 0 0.98 0.18 0 1 0.18 0 0 0.487828 0 0.0537117 0.484412 0 0.104796 0.478233 0 0.152273 0.46666 0 0.194414 0.454942 0 0.235388 0.438537 0 0.26575 0.42412 0 0.304912 0.406785 0 0.320173 0.394956 0 0.352189 0.385362 0 0.375699 0.375699 0 0.394546 0.36112 0 0.412513 0.345587 0 0.429896 0.340543 0 0.445777 0.321557 0 0.460174 0.315931 0 0.474779 0.301438 0 0.48709 0.293783 0 0.49973 0.282048 0 0.509919 0.274025 0 0.520704 0.264171 0 0.529609 0.256203 0 0.538505 0.247685 0 0.546488 0.240199 0 0.553985 0.232736 0 0.561034 0.225898 0 0.567588 0.219307 0 0.573956 0.21323 0 0.580879 0.207816 0 0.589654 0.203502 0 0.602255 0.200898 0 0.620124 0.200073 0 0.640001 0.200001 0 0.66 0.2 0 0.68 0.2 0 0.7 0.2 0 0.72 0.2 0 0.74 0.2 0 0.76 0.2 0 0.78 0.2 0 0.8 0.2 0 0.82 0.2 0 0.84 0.2 0 0.86 0.2 0 0.88 0.2 0 0.9 0.2 0 0.92 0.2 0 0.94 0.2 0 0.96 0.2 0 0.98 0.2 0 1 0.2 0 0 0.498135 0 0.0494069 0.497623 0 0.0969464 0.490386 0 0.141576 0.482849 0 0.183452 0.470373 0 0.220996 0.457968 0 0.25755 0.442216 0 0.283264 0.428716 0 0.319624 0.414037 0 0.333677 0.40427 0 0.36112 0.394546 0 0.384355 0.384355 0 0.402564 0.369345 0 0.41949 0.356218 0 0.436454 0.348937 0 0.450964 0.331859 0 0.465088 0.326205 0 0.478618 0.312025 0 0.490141 0.304714 0 0.502156 0.293118 0 0.512003 0.285471 0 0.522084 0.275703 0 0.530834 0.267985 0 0.539384 0.259655 0 0.547075 0.252255 0 0.554454 0.24496 0 0.561277 0.238193 0 0.568204 0.231913 0 0.576006 0.226527 0 0.586194
[...]
			<PointData Scalars="VitesseX">
				<DataArray Name="VitesseX" type="Float32" format="ascii">
 0 1.83624 0.634394 1.31077 1.19594 1.27 1.33751 1.37186 1.42811 1.54074 1.57174 1.57437 1.63359 1.72408 1.76668 1.75601 1.79998 1.81903 1.91404 1.92465 1.83128 1.98634 2.00042 2.0465 2.06006 2.05024 2.11957 2.12103 2.15599 2.08069 1.83632 1.29482 0.423742 0.0124759 2.95632e-06 2.44852e-11 2.01912e-16 -2.32744e-20 2.32744e-20 -2.32744e-20 2.32744e-20 -4.74798e-20 4.74798e-20 0 0 -4.74798e-20 4.74798e-20 -4.74798e-20 4.74798e-20 0 0 0 0.260589 1.46712 0.801704 1.21583 1.20297 1.3454 1.37105 1.42084 1.53854 1.57725 1.56024 1.63442 1.72063 1.74979 1.76698 1.77792 1.83975 1.89403 1.90513 1.8672 1.98006 1.99404 2.04298 2.06178 2.04867 2.11848 2.11967 2.15338 2.07609 1.82834 1.28185 0.409024 0.0114509 2.5608e-06 2.21083e-11 1.83816e-16 -2.32744e-20 2.32744e-20 -2.32744e-20 2.32744e-20 -4.74798e-20 4.74798e-20 0 0 -4.74798e-20 4.74798e-20 -4.74798e-20 4.74798e-20 0 0 0 0.789091 0.334 1.17696 0.977948 1.14636 1.25367 1.32473 1.38136 1.49189 1.53426 1.54967 1.60623 1.69466 1.74501 1.73502 1.79154 1.83668 1.87017 1.85772 1.94021 1.95208 1.9952 2.02287 2.0666 2.04823 2.11419 2.11778 2.14493 2.06183 1.80369 1.24226 0.366359 0.00881245 1.66269e-06 1.61865e-11 1.36748e-16 6.09789e-20 -6.09789e-20 1.21027e-20 -1.21027e-20 -2.37399e-20 7.26161e-20 -4.88762e-20 0 2.51364e-20 -2.51364e-20 2.51364e-20 -2.51364e-20 0 0 0 0.658272 0.912664 0.363325 0.824142 1.04077 1.1808 1.24604 1.32884 1.44641 1.49445 1.51947 1.59206 1.67068 1.70529 1.74161 1.77781 1.83108 1.82222 1.86741 1.95764 1.93121 1.99878 1.99408 2.06569 2.05571 2.10272 2.11922 2.13018 2.03742 1.76021 1.17377 0.300713 0.00560919 8.07806e-07 9.49052e-12 8.72948e-17 -2.56018e-20 2.56018e-20 -2.51364e-20 2.51364e-20 -4.88762e-20 4.88762e-20 0 0 -4.93417e-20 4.93417e-20 -4.93417e-20 4.93417e-20 0 0 0 0.31888 0.650298 0.945767 0.721833 0.916042 1.11043 1.21225 1.28505 1.39406 1.4472 1.48999 1.55483 1.63431 1.68151 1.72272 1.77706 1.77336 1.82404 1.88665 1.93073 1.93116 1.98594 1.97278 2.04971 2.06685 2.08697 2.11901 2.1133 2.00255 1.69481 1.07201 0.221461 0.00289006 2.9464e-07 4.41035e-12 3.07746e-17 4.84108e-20 -4.84108e-20 0 0 -4.88762e-20 0 4.88762e-20 0 -4.65488e-22 4.65488e-22 -9.8218e-20 9.8218e-20 0 0 0 0.275375 0.520546 0.635076 1.0234 1.01693 1.06837 1.12996 1.27036 1.34348 1.38582 1.45092 1.51285 1.58884 1.64804 1.70837 1.71564 1.75614 1.82674 1.8855 1.88035 1.95226 1.95384 1.96956 2.02049 2.06978 2.07445 2.11457 2.09385 1.95649 1.6048 0.931145 0.142041 0.00117189 8.25912e-08 1.62865e-12 -1.81019e-17 1.46629e-19 -1.46629e-19 4.88762e-20 -4.88762e-20 0 9.77525e-20 -9.77525e-20 0 9.77525e-20 -9.77525e-20 9.77525e-20 -9.77525e-20 0 0 0 0.250674 0.453894 0.652075 0.685779 0.958887 1.09514 1.12694 1.20148 1.29314 1.34746 1.40568 1.47979 1.55209 1.62002 1.65303 1.68554 1.74345 1.83639 1.8262 1.86555 1.93794 1.93928 1.96979 1.99579 2.05237 2.06949 2.10416 2.06359 1.89592 1.4894 0.748658 0.0764417 0.000361087 1.89415e-08 4.89544e-13 -2.56988e-17 -1.95505e-19 1.95505e-19 -9.77525e-20 0 9.77525e-20 -9.77525e-20 9.77525e-20 0 -9.77525e-20 0 9.77525e-20 -9.77525e-20 0 0 0 0.217784 0.427947 0.576041 0.728707 0.756362 1.00638 1.12682 1.16884 1.22411 1.30521 1.3735 1.43784 1.51987 1.56815 1.60431 1.66977 1.75134 1.77397 1.80301 1.85525 1.89509 1.94325 1.96412 1.98304 2.02308 2.0655 2.08629 2.01954 1.81272 1.34557 0.535738 0.0330894 8.08263e-05 3.81379e-09 1.2385e-13 -1.02291e-17 -1.95505e-19 1.95505e-19 -9.77525e-20 9.77525e-20 -9.77525e-20 0 9.77525e-20 0 -1.95505e-19 1.95505e-19 -1.95505e-19 1.95505e-19 0 0 0 0.210019 0.382954 0.557667 0.670605 0.821411 0.877251 1.05073 1.15662 1.2039 1.26858 1.33932 1.42226 1.45811 1.53064 1.59192 1.66573 1.69743 1.73077 1.79328 1.83899 1.8515 1.95374 1.94057 1.98848 1.99219 2.05526 2.05944 1.96356 1.6977 1.15902 0.324585 0.0110132 1.24207e-05 6.55279e-10 2.62214e-14 -1.95186e-19 2.92792e-19 -2.92792e-19 9.77525e-20 1.95505e-19 -1.95505e-19 0 -9.77525e-20 1.95505e-19 -9.77525e-20 1.95505e-19 -3.9101e-19 3.9101e-19 -1.95505e-19 0 0 0.198538 0.376978 0.520161 0.675496 0.764727 0.911372 0.950656 1.08965 1.2153 1.25354 1.34219 1.39668 1.44678 1.51752 1.58714 1.61943 1.64957 1.7097 1.79386 1.78661 1.86789 1.91827 1.93093 1.98376 1.97663 2.03883 2.01852 1.89001 1.55039 0.909887 0.157343 0.00268052 1.24892e-06 8.50192e-11 4.25115e-15 0 2.92792e-19 -2.92792e-19 9.77525e-20 -9.77525e-20 0 0 0 0 1.95505e-19 -1.95505e-19 0 0 0 0 0 0.190089 0.333069 0.501539 0.607959 0.759144 0.823587 1.00211 1.02613 1.14862 1.27288 1.3378 1.39513 1.45879 1.51862 1.53626 1.57448 1.64045 1.71692 1.73937 1.79598 1.86304 1.87989 1.93411 1.9606 1.97949 2.01413 1.96108 1.77996 1.36706 0.608648 0.0576087 0.000446174 8.74308e-08 7.80708e-12 3.95399e-16 3.9101e-19 -1.95505e-19 0 1.95505e-19 -3.9101e-19 1.95505e-19 1.95505e-19 -1.95505e-19 0 0 0 1.95505e-19 -3.9101e-19 3.9101e-19 0 0 0.164966 0.31476 0.445371 0.600866 0.695129 0.850977 0.889799 1.083 1.11076 1.22266 1.3288 1.33838 1.43626 1.49722 1.51763 1.5641 1.64709 1.68948 1.72046 1.80461 1.84078 1.85995 1.93328 1.9359 1.98228 1.9714 1.88872 1.62621 1.11714 0.320954 0.0150581 4.63401e-05 5.79924e-09 5.84939e-13 -7.69104e-21 0 0 0 0 0 0 1.95505e-19 -1.95505e-19 0 0 0 1.95505e-19 -1.95505e-19 0 0 0 0.155433 0.294869 0.434893 0.564388 0.700409 0.785394 0.943193 0.959327 1.15 1.17939 1.23364 1.34839 1.42129 1.43728 1.48798 1.57799 1.63551 1.65458 1.74063 1.79326 1.79863 1.87572 1.89389 1.93977 1.96002 1.92217 1.77634 1.43663 0.777737 0.12361 0.00263153 2.73246e-06 3.94722e-10 4.45989e-14 1.94247e-19 -1.95505e-19 -1.95505e-19 3.9101e-19 -1.95505e-19 1.95505e-19 -1.95505e-19 -1.95505e-19 3.9101e-19 -1.95505e-19 1.95505e-19 -1.95505e-19 -1.95505e-19 5.85584e-19 -5.85584e-19 0 0 0.147761 0.284603 0.422983 0.553023 0.675325 0.789561 0.87713 1.00843 1.00975 1.20858 1.21248 1.30296 1.39261 1.40147 1.51327 1.59801 1.62026 1.6682 1.73552 1.7447 1.80752 1.84359 1.88035 1.92975 1.92272 1.847 1.61681 1.1757 0.41587 0.032477 0.000275937 9.6186e-08 1.9014e-11 2.84766e-15 0 1.95505e-19 -3.9101e-19 3.9101e-19 -1.95505e-19 0 1.95505e-19 -3.9101e-19 3.9101e-19 0 -1.95505e-19 0 -9.30976e-22 0 9.30976e-22 0 0 0.138188 0.276371 0.400555 0.538277 0.650209 0.766074 0.856149 0.93663 1.08292 1.08361 1.22987 1.22923 1.30616 1.40583 1.46881 1.52084 1.60769 1.68109 1.69814 1.73826 1.8003 1.81723 1.8696 1.9079 1.86677 1.72898 1.4161 0.803033 0.155164 0.00538899 1.51687e-05 3.37867e-09 6.83303e-13 1.13134e-16 0 0 0 0 0 0 1.95505e-19 0 -1.95505e-19 0 0 0 -9.30976e-22 -1.94574e-19 3.9101e-19 0 0 0.130999 0.259061 0.388876 0.515865 0.635268 0.721359 0.820415 0.925752 1.01688 1.11101 1.10563 1.21666 1.31994 1.35452 1.43841 1.52396 1.58452 1.64378 1.67273 1.73656 1.75717 1.80109 1.86365 1.84752 1.78673 1.5529 1.1265 0.401855 0.0370642 0.000505324 3.95905e-07 1.23709e-10 2.77174e-14 3.89116e-19 -1.95505e-19 0 0 0 0 1.95505e-19 -3.9101e-19 3.9101e-19 -1.95505e-19 0 -1.95505e-19 3.9101e-19 -3.9101e-19 3.9101e-19 0 0 0 0.122862 0.253422 0.376236 0.498322 0.593573 0.68904 0.798296 0.912498 0.981398 1.03045 1.1449 1.15536 1.30859 1.3316 1.41017 1.47388 1.5531 1.58294 1.66438 1.69122 1.7274 1.79826 1.80622 1.78776 1.6252 1.32949 0.703967 0.13087 0.00527173 2.18812e-05 7.89649e-09 2.81875e-12 8.84397e-16 -1.94574e-19 0 -1.95505e-19 5.85584e-19 -1.94574e-19 -3.9101e-19 3.9101e-19 -3.9101e-19 0 3.9101e-19 0 -3.9101e-19 3.9101e-19 0 -3.9101e-19 3.9101e-19 0 0 0.119993 0.247706 0.359689 0.464745 0.564502 0.672966 0.78815 0.872215 0.938243 1.02205 1.0979 1.20094 1.20762 1.31233 1.41764 1.43977 1.47837 1.57796 1.62601 1.66292 1.72276 1.75825 1.74939 1.65031 1.42742 0.959616 0.294108 0.0259859 0.000364873 4.07401e-07 1.91765e-10 6.69e-14 1.94581e-19 -3.90079e-19 3.9101e-19 -3.9101e-19 5.85584e-19 -5.85584e-19 1.95505e-19 1.95505e-19 0 -3.9101e-19 0 3.9101e-19 0 0 -3.9101e-19 3.90079e-19 -3.90079e-19 0 0 0.116108 0.232492 0.33509 0.443181 0.558468 0.663112 0.754998 0.830771 0.925519 1.00566 1.07846 1.12195 1.23568 1.27503 1.34528 1.43469 1.47352 1.51951 1.56163 1.65142 1.69491 1.69179 1.65048 1.45595 1.12648 0.479702 0.076402 0.00253012 1.11555e-05 5.25965e-09 2.98919e-12 1.37777e-15 -3.9101e-19 1.95505e-19 1.95505e-19 0 -3.9101e-19 0 7.81089e-19 -7.81089e-19 0 3.9101e-19 -9.30976e-22 -3.90079e-19 3.9101e-19 -3.9101e-19 3.90079e-19 0 -3.90079e-19 0 0 0.102909 0.213036 0.324389 0.438287 0.540802 0.629909 0.717842 0.825902 0.906599 0.978616 1.02911 1.13647 1.1877 1.26442 1.29753 1.37314 1.48087 1.4612 1.56503 1.61942 1.63625 1.6103 1.44791 1.22021 0.630159 0.155107 0.00925007 0.000123303 1.06595e-07 9.40226e-11 4.61722e-14 1.01911e-17 0 1.95505e-19 -3.9101e-19 3.9101e-19 -9.30976e-22 9.30976e-22 -9.30976e-22 -3.90079e-19 0 3.9101e-19 -9.30976e-22 -3.90079e-19 3.9101e-19 -3.9101e-19 3.90079e-19 -3.90079e-19 3.9101e-19 0 0 0.101838 0.213154 0.324459 0.42263 0.514209 0.60694 0.711485 0.795237 0.874594 0.943009 1.04402 1.0913 1.16076 1.20673 1.30176 1.34212 1.3908 1.48756 1.50949 1.57907 1.56639 1.43222 1.23698 0.7272 0.241572 0.0214257 0.000655152 1.33245e-06 1.39976e-09 8.27451e-13 7.09888e-16 -1.95505e-19 1.95505e-19 0 -3.9101e-19 0 3.90079e-19 9.30976e-22 -3.9101e-19 3.9101e-19 -3.9101e-19 3.9101e-19 -3.9101e-19 3.9101e-19 0 -3.9101e-19 0 3.9101e-19 0 0 0 0.108441 0.208347 0.305358 0.407645 0.508024 0.603387 0.684126 0.769943 0.858144 0.950152 0.992703 1.06877 1.1158 1.21948 1.23472 1.30848 1.39812 1.4301 1.46158 1.45243 1.39258 1.23174 0.784716 0.303264 0.0368835 0.00195842 7.92934e-06 1.24117e-08 1.02481e-11 1.22445e-14 3.88484e-19 -3.9101e-19 3.9101e-19 0 -3.9101e-19 3.90079e-19 -3.90079e-19 0 3.9101e-19 -3.9101e-19 3.90079e-19 9.30976e-22 -3.9101e-19 3.9101e-19 -3.9101e-19 3.90079e-19 9.30976e-22 -3.9101e-19 3.9101e-19 0 0 0.1027 0.202661 0.303197 0.40103 0.492033 0.577907 0.671575 0.764766 0.847767 0.901958 0.977473 1.03505 1.11965 1.13933 1.24307 1.27934 1.34772 1.39211 1.36661 1.27604 1.14013 0.786079 0.338822 0.0509437 0.00359896 2.71185e-05 7.3214e-08 6.73e-11 1.09496e-13 1.03387e-17 -3.9101e-19 3.90079e-19 -3.90079e-19 3.9101e-19 -3.9101e-19 7.81089e-19 -7.81089e-19 0 3.9101e-19 -3.9101e-19 7.81089e-19 -7.81089e-19 0 3.9101e-19 -3.9101e-19 7.81089e-19 -7.81089e-19 3.90079e-19 -3.90079e-19 0 0 0.0992708 0.196235 0.289549 0.382087 0.475042 0.566161 0.650767 0.732241 0.809151 0.893624 0.955301 1.02063 1.0618 1.15725 1.1841 1.27119 1.26185 1.27934 1.19982 1.05258 0.694583 0.319337 0.0575547 0.00507386 5.7868e-05 2.25587e-07 2.56684e-10 5.93865e-13 4.419e-16 3.88485e-19 -3.9101e-19 7.81089e-19 -7.81089e-19 0 3.9101e-19 -3.9101e-19 3.90079e-19 9.30976e-22 -3.9101e-19 3.9101e-19 -3.9101e-19 3.90079e-19 9.30976e-22 -3.9101e-19 3.9101e-19 -3.9101e-19 3.90079e-19 0 -3.90079e-19 0 0 0.0961099 0.19025 0.284162 0.37541 0.464177 0.548391 0.631739 0.716437 0.797707 0.861795 0.927273 0.987447 1.06493 1.09936 1.16653 1.1542 1.18209 1.06168 0.954127 0.59405 0.268941 0.0475856 0.00502189 8.0993e-05 4.45979e-07 6.00843e-10 1.75316e-12 2.13864e-15 -2.09582e-17 3.9101e-19 0 -3.9101e-19 3.9101e-19 -3.9101e-19 3.9101e-19 -3.9101e-19 3.90079e-19 9.30976e-22 -3.9101e-19 3.9101e-19 -3.9101e-19 3.90079e-19 9.30976e-22 -3.9101e-19 3.9101e-19 -3.9101e-19 3.90079e-19 -3.90079e-19 3.9101e-19 0 0 0.0918425 0.182492 0.272913 0.362613 0.451207 0.535881 0.615032 0.691338 0.763375 0.837806 0.904927 0.968686 1.00739 1.05599 1.04819 1.04663 0.934275 0.811797 0.453397 0.204955 0.0332357 0.00353104 5.74192e-05 4.45427e-07 8.74875e-10 3.43399e-12 5.22197e-15 7.80754e-19 0 0 0 -7.8202e-19 7.8202e-19 0 0 0 -7.8202e-19 7.8202e-19 0 0 0 -7.8202e-19 7.8202e-19 0 0 0 -7.8202e-19 1.1721e-18 -7.81089e-19 0 0 0.0901508 0.179478 0.26667 0.351064 0.434213 0.517821 0.600946 0.679488 0.753771 0.816323 0.867401 0.910183 0.939891 0.927551 0.897731 0.787391 0.618854 0.318192 0.127801 0.018573 0.00191674 2.68102e-05 2.24899e-07 5.9748e-10 3.4295e-12 7.48444e-15 -2.02126e-17 -3.90079e-19 3.9101e-19 0 -3.9101e-19 3.90079e-19 -3.90079e-19 3.9101e-19 0 -3.9101e-19 3.90079e-19 -3.90079e-19 3.9101e-19 0 -3.9101e-19 3.90079e-19 -3.90079e-19 3.9101e-19 0 -3.9101e-19 0 3.90079e-19 0 0 0 0.0863019 0.172305 0.257532 0.34135 0.424875 0.506454 0.583727 0.653994 0.714466 0.763832 0.797094 0.809716 0.790159 0.736469 0.601794 0.411168 0.190167 0.0616891 0.00810353 0.000641267 7.8072e-06 7.28365e-08 2.54369e-10 1.74691e-12 5.26395e-15 -2.02126e-17 0 0 -3.90079e-19 0 3.90079e-19 0 0 -3.90079e-19 0 3.90079e-19 0 0 -3.90079e-19 0 3.90079e-19 0 0 9.30976e-22 -3.9101e-19 0 7.81089e-19 -1.1721e-18 7.81089e-19 0 0 0.0837093 0.167043 0.248855 0.32825 0.406056 0.478661 0.5442 0.600109 0.641784 0.662469 0.661086 0.626877 0.540152 0.391223 0.226656 0.0877614 0.0213407 0.00229414 0.000120799 1.31048e-06 1.22983e-08 6.63337e-11 5.90555e-13 2.09672e-15 -1.26552e-21 3.90544e-19 0 0 -3.90544e-19 0 3.90544e-19 -3.90544e-19 7.81089e-19 -7.81089e-19 0 3.90544e-19 -3.90544e-19 3.90544e-19 -3.90544e-19 3.90544e-19 0 -3.90544e-19 3.90544e-19 4.65488e-22 -7.81554e-19 1.1721e-18 -3.9101e-19 -7.81089e-19 7.81089e-19 0 0 0.0774896 0.154122 0.228716 0.300127 0.366406 0.423885 0.468244 0.496827 0.505512 0.484469 0.420538 0.318522 0.199245 0.092916 0.0271382 0.00455524 0.000342877 1.09535e-05 1.04e-07 1.38109e-09 1.00545e-11 1.08591e-13 4.83028e-16 -2.01762e-17 0 -3.90544e-19 3.90079e-19 -3.90079e-19 3.90544e-19 0 -3.90544e-19 3.90544e-19 -3.9101e-19 3.9101e-19 0 -3.90544e-19 -4.65488e-22 4.65488e-22 3.90544e-19 -4.65488e-22 0 4.65488e-22 -3.90544e-19 -4.65488e-22 3.90544e-19 0 -7.81089e-19 7.81089e-19 0 0 0 0.0654494 0.129141 0.189059 0.242898 0.287848 0.319484 0.331061 0.315351 0.271613 0.208392 0.136249 0.0673811 0.0222448 0.00438781 0.00046173 2.1084e-05 3.97432e-07 5.07904e-09 9.24817e-11 8.04401e-13 1.22246e-14 1.03438e-17 -3.93535e-19 3.9101e-19 0 0 -7.8202e-19 7.8202e-19 0 0 -3.9101e-19 3.9101e-19 -3.9101e-19 3.9101e-19 -3.9101e-19 3.9101e-19 -9.30976e-22 9.30976e-22 -3.9101e-19 3.90079e-19 -7.80623e-19 1.17163e-18 -7.81089e-19 3.90079e-19 0 -7.81089e-19 7.81089e-19 7.81089e-19 -1.56218e-18 0 0 0.0435122 0.0839326 0.117803 0.141395 0.151583 0.14737 0.130028 0.101405 0.0649755 0.0309783 0.0100839 0.00209123 0.000245911 1.43931e-05 3.80716e-07 7.52422e-09 1.86006e-10 2.90098e-12 4.4774e-14 7.09111e-16 3.88484e-19 -3.9101e-19 3.9101e-19 0 0 -3.9101e-19 3.90079e-19 -3.90079e-19 3.9101e-19 -3.9101e-19 3.90079e-19 9.30976e-22 -3.9101e-19 3.9101e-19 -3.9101e-19 3.9101e-19 -9.30976e-22 9.30976e-22 -3.9101e-19 3.90079e-19 -7.80623e-19 7.80623e-19 0 0 -7.81089e-19 7.81089e-19 0 0 0 0 0 0.0148706 0.0276152 0.0362562 0.0391317 0.0353951 0.0260996 0.0149353 0.00628713 0.00185256 0.000357286 4.10265e-05 2.5469e-06 8.97047e-08 3.13802e-09 1.18254e-10 2.68945e-12 6.41656e-14 1.357e-15 1.01911e-17 1.95505e-19 -3.9101e-19 3.90079e-19 9.30976e-22 -3.9101e-19 0 3.90079e-19 0 -3.90079e-19 3.9101e-19 -3.9101e-19 7.81089e-19 -7.81089e-19 0 3.9101e-19 0 -3.9101e-19 3.90079e-19 -3.90079e-19 3.9101e-19 -7.8202e-19 1.56218e-18 -1.56218e-18 7.81089e-19 0 0 0 0 -7.81089e-19 7.81089e-19 0 0 0.00099449 0.00157106 0.00155614 0.00111196 0.00058314 0.000220809 5.81966e-05 1.00809e-05 1.08488e-06 7.65969e-08 5.0475e-09 3.58085e-10 1.77063e-11 6.29862e-13 2.59494e-14 8.84397e-16 -1.94567e-19 0 0 1.95505e-19 -3.9101e-19 3.90079e-19 9.30976e-22 -3.9101e-19 0 3.90079e-19 0 9.30976e-22 -3.9101e-19 3.9101e-19 -3.9101e-19 0 7.81089e-19 -7.81089e-19 3.9101e-19 -7.8202e-19 1.1721e-18 -3.9101e-19 -3.90079e-19 3.90079e-19 0 -7.81089e-19 7.81089e-19 0 0 0 0 -7.81089e-19 7.81089e-19 0 0 3.95383e-07 5.0244e-07 3.5223e-07 1.60854e-07 5.11801e-08 1.24694e-08 2.6589e-09 4.99805e-10 7.04981e-11 6.72172e-12 5.01211e-13 3.91298e-14 2.62139e-15 1.13137e-16 -1.89359e-21 1.94574e-19 -3.90079e-19 1.95505e-19 1.95505e-19 0 0 -3.9101e-19 0 3.9101e-19 0 -3.9101e-19 3.90079e-19 9.30976e-22 -3.9101e-19 3.9101e-19 -3.9101e-19 3.9101e-19 -9.30976e-22 -3.90079e-19 0 3.90079e-19 -3.90079e-19 3.90079e-19 0 0 0 0 0 -7.81089e-19 7.81089e-19 0 -7.81089e-19 7.81089e-19 0 0 0 2.37691e-12 3.54503e-12 3.15104e-12 1.92924e-12 8.52556e-13 2.86566e-13 7.90977e-14 1.85105e-14 3.45955e-15 3.95803e-16 -5.63705e-21 1.94247e-19 -3.90544e-19 3.90544e-19 -1.95039e-19 -4.65488e-22 0 1.95505e-19 -3.90544e-19 3.90544e-19 -3.90544e-19 3.90544e-19 -3.9101e-19 3.9101e-19 0 0 -7.81554e-19 7.81554e-19 0 -3.90544e-19 3.90544e-19 0 -3.9101e-19 4.65488e-22 3.90079e-19 0 0 -7.81089e-19 7.81089e-19 0 0 0 -7.81089e-19 7.81089e-19 0 0 -7.81089e-19 1.56218e-18 -1.56218e-18 0 0 1.80958e-17 2.89247e-17 2.05784e-17 3.59419e-17 1.28369e-17 -5.04441e-18 -1.04253e-17 3.19393e-22 4.65488e-22 0 -4.65488e-22 1.95505e-19 -1.95039e-19 -4.65488e-22 4.65488e-22 -1.9597e-19 3.9101e-19 0 -3.90544e-19 -4.65488e-22 3.90544e-19 4.65488e-22 -3.9101e-19 3.9101e-19 0 -3.9101e-19 3.90544e-19 -3.90544e-19 3.9101e-19 -3.90544e-19 3.90544e-19 -3.9101e-19 0 3.90544e-19 0 0 0 0 -7.81089e-19 7.81089e-19 -7.81089e-19 7.81089e-19 0 0 0 -7.80623e-19 7.80623e-19 0 0 0 0 0 3.67736e-20 -7.30816e-20 1.47094e-19 -1.46629e-19 0 0 9.68215e-20 9.86835e-20 -1.95505e-19 0 -1.95505e-19 3.9101e-19 -3.9101e-19 3.9101e-19 -1.96436e-19 1.96436e-19 -3.9101e-19 7.81089e-19 -1.1721e-18 1.1721e-18 -7.81089e-19 3.90079e-19 -3.90079e-19 0 3.90079e-19 0 -3.90079e-19 0 7.81089e-19 -7.81089e-19 3.90079e-19 -3.90079e-19 3.90079e-19 0 0 -7.81089e-19 7.81089e-19 7.81089e-19 -1.56218e-18 0 7.81089e-19 7.81089e-19 -1.56218e-18 7.81089e-19 -7.80623e-19 1.56171e-18 -1.56218e-18 7.81089e-19 0 0 0 3.67736e-20 -7.30816e-20 1.47094e-19 -1.46629e-19 0 0 9.68215e-20 9.86835e-20 -3.9101e-19 3.9101e-19 -3.9101e-19 3.9101e-19 -3.9101e-19 3.9101e-19 1.94574e-19 -5.85584e-19 0 7.81089e-19 -7.81089e-19 0 0 7.81089e-19 -7.81089e-19 0 3.90079e-19 0 -3.90079e-19 0 7.81089e-19 -7.81089e-19 3.90079e-19 3.9101e-19 -1.1721e-18 7.81089e-19 0 -7.81089e-19 7.81089e-19 7.81089e-19 -1.56218e-18 7.81089e-19 0 -7.80623e-19 7.80623e-19 -7.81089e-19 1.56218e-18 -7.81089e-19 -7.81089e-19 7.81089e-19 0 0 0 -1.21027e-20 2.51364e-20 0 -4.88762e-20 9.77525e-20 -9.77525e-20 -9.77525e-20 2.93257e-19 -1.95505e-19 0 1.95505e-19 -1.95505e-19 0 0 0 -1.95505e-19 7.81089e-19 -7.81089e-19 3.9101e-19 -3.9101e-19 3.9101e-19 -3.9101e-19 3.9101e-19 0 -3.9101e-19 3.90079e-19 -3.90079e-19 3.9101e-19 -3.9101e-19 3.9101e-19 -3.9101e-19 3.90079e-19 0 -7.81089e-19 7.81089e-19 7.81089e-19 -7.81089e-19 -7.81089e-19 7.81089e-19 0 0 -7.80623e-19 7.80623e-19 0 0 -7.81089e-19 7.81089e-19 0 0 0 0 -1.21027e-20 2.51364e-20 0 -4.88762e-20 0 9.77525e-20 0 -9.77525e-20 0 0 1.95505e-19 -3.9101e-19 3.9101e-19 -1.95505e-19 0 1.95505e-19 -9.30976e-22 -3.90079e-19 3.9101e-19 -3.9101e-19 3.9101e-19 -3.9101e-19 3.9101e-19 0 0 -7.8202e-19 1.1721e-18 -7.81089e-19 3.90079e-19 -3.90079e-19 0 3.90079e-19 0 0 -7.81089e-19 1.56218e-18 -1.56218e-18 7.81089e-19 0 0 -7.81089e-19 7.81089e-19 0 0 0 -7.81089e-19 1.56218e-18 -1.56218e-18 0 0 0 -2.37399e-20 4.88762e-20 -4.88762e-20 0 9.77525e-20 -9.7287e-20 1.95039e-19 -3.90544e-19 1.95039e-19 4.65488e-22 1.95039e-19 -1.95505e-19 1.95505e-19 -3.90544e-19 3.90544e-19 0 -7.81554e-19 7.81554e-19 -3.90544e-19 3.90079e-19 4.65488e-22 -3.90544e-19 3.90544e-19 0 -3.90544e-19 3.90079e-19 0 0 -7.80623e-19 7.80623e-19 0 0 0 0 -7.81089e-19 0 7.81089e-19 0 0 -7.80623e-19 7.80623e-19 0 0 0 -7.80623e-19 7.80623e-19 0 0 0 0 0 2.51364e-20 -4.88762e-20 0 9.77525e-20 -9.77525e-20 4.65488e-22 -4.65488e-22 4.65488e-22 1.95039e-19 -1.95039e-19 -1.9597e-19 3.9101e-19 0 -3.90544e-19 -4.65488e-22 3.9101e-19 -3.90544e-19 3.90544e-19 -3.90544e-19 7.81089e-19 -7.81554e-19 3.90544e-19 -3.90544e-19 0 3.90544e-19 0 -3.90079e-19 7.81089e-19 -1.17163e-18 7.80623e-19 0 -7.81089e-19 1.56218e-18 -1.56218e-18 7.81089e-19 -7.81089e-19 1.56218e-18 -1.56218e-18 7.81089e-19 -7.80623e-19 7.80623e-19 7.81089e-19 -1.56218e-18 7.81089e-19 -7.80623e-19 1.56171e-18 -1.56218e-18 7.81089e-19 0 0 0 1.39646e-21 0 -4.88762e-20 9.77525e-20 -9.77525e-20 9.77525e-20 -2.93257e-19 3.9101e-19 -1.95505e-19 1.95505e-19 -3.9101e-19 3.9101e-19 -1.95505e-19 1.95505e-19 -3.9101e-19 0 7.81089e-19 -7.81089e-19 3.9101e-19 -3.9101e-19 0 7.