<?xml version="1.0"?>
<VTKFile type="PolyData">
	<PolyData>
		<Piece NumberOfPoints="2601" NumberOfPolys="2500">
			<Points>
				<DataArray type="Float32" NumberOfComponents="3" format="ascii">
 0 0 0 0.267582 0 0 0.229067 0 0 0.27555 0 0 0.288824 0 0 0.306706 0 0 0.323187 0 0 0.334856 0 0 0.347936 0 0 0.356411 0 0 0.366157 0 0 0.373477 0 0 0.38093 0 0 0.386979 0 0 0.393451 0 0 0.39907 0 0 0.404172 0 0 0.408674 0 0 0.412784 0 0 0.41671 0 0 0.421588 0 0 0.429051 0 0 0.441574 0 0 0.46003 0 0 0.48 0 0 0.5 0 0 0.52 0 0 0.54 0 0 0.56 0 0 0.58 0 0 0.6 0 0 0.62 0 0 0.64 0 0 0.66 0 0 0.68 0 0 0.7 0 0 0.72 0 0 0.74 0 0 0.76 0 0 0.78 0 0 0.8 0 0 0.82 0 0 0.84 0 0 0.86 0 0 0.88 0 0 0.9 0 0 0.92 0 0 0.94 0 0 0.96 0 0 0.98 0 0 1 0 0 0 0.267582 0 0.140809 0.140809 0 0.254327 0.109252 0 0.254422 0.0957449 0 0.285325 0.0724781 0 0.303676 0.0641355 0 0.318192 0.0571604 0 0.333574 0.0517499 0 0.343664 0.0470896 0 0.355291 0.0431134 0 0.363531 0.0394472 0 0.372466 0.0362666 0 0.379318 0.0335065 0 0.386111 0.0311904 0 0.392381 0.0292595 0 0.398218 0.0275356 0 0.40339 0.0259946 0 0.408002 0.0245839 0 0.412161 0.0232972 0 0.416178 0.0221442 0 0.421159 0.02118 0 0.428764 0.0204682 0 0.441473 0.0200971 0 0.460026 0.0200034 0 0.48 0.02 0 0.5 0.02 0 0.52 0.02 0 0.54 0.02 0 0.56 0.02 0 0.58 0.02 0 0.6 0.02 0 0.62 0.02 0 0.64 0.02 0 0.66 0.02 0 0.68 0.02 0 0.7 0.02 0 0.72 0.02 0 0.74 0.02 0 0.76 0.02 0 0.78 0.02 0 0.8 0.02 0 0.82 0.02 0 0.84 0.02 0 0.86 0.02 0 0.88 0.02 0 0.9 0.02 0 0.92 0.02 0 0.94 0.02 0 0.96 0.02 0 0.98 0.02 0 1 0.02 0 0 0.229067 0 0.109252 0.254327 0 0.160225 0.160225 0 0.238715 0.162966 0 0.264065 0.139629 0 0.287884 0.122569 0 0.308002 0.11052 0 0.32203 0.100834 0 0.336971 0.0920578 0 0.347387 0.0842319 0 0.358959 0.0773525 0 0.367302 0.0712847 0 0.375751 0.0660425 0 0.382921 0.0617314 0 0.389614 0.0579833 0 0.395588 0.0546803 0 0.401131 0.0516604 0 0.405969 0.0488862 0 0.410344 0.0463471 0 0.414607 0.0440908 0 0.419901 0.042213 0 0.427933 0.0408477 0 0.441199 0.0401644 0 0.460018 0.0400047 0 0.48 0.04 0 0.5 0.04 0 0.52 0.04 0 0.54 0.04 0 0.56 0.04 0 0.58 0.04 0 0.6 0.04 0 0.62 0.04 0 0.64 0.04 0 0.66 0.04 0 0.68 0.04 0 0.7 0.04 0 0.72 0.04 0 0.74 0.04 0 0.76 0.04 0 0.78 0.04 0 0.8 0.04 0 0.82 0.04 0 0.84 0.04 0 0.86 0.04 0 0.88 0.04 0 0.9 0.04 0 0.92 0.04 0 0.94 0.04 0 0.96 0.04 0 0.98 0.04 0 1 0.04 0 0 0.27555 0 0.0957449 0.254422 0 0.162966 0.238715 0 0.179381 0.179381 0 0.233489 0.192993 0 0.267765 0.168303 0 0.289239 0.156808 0 0.309625 0.143315 0 0.323917 0.132362 0 0.339061 0.121753 0 0.34989 0.112567 0 0.360926 0.104228 0 0.369485 0.0972491 0 0.378121 0.0911859 0 0.384937 0.085867 0 0.39155 0.0810727 0 0.397352 0.0766741 0 0.402717 0.072624 0 0.407409 0.0689291 0 0.41209 0.0656598 0 0.417894 0.0629752 0 0.426642 0.0610689 0 0.440832 0.060183 0 0.460009 0.0600037 0 0.48 0.06 0 0.5 0.06 0 0.52 0.06 0 0.54 0.06 0 0.56 0.06 0 0.58 0.06 0 0.6 0.06 0 0.62 0.06 0 0.64 0.06 0 0.66 0.06 0 0.68 0.06 0 0.7 0.06 0 0.72 0.06 0 0.74 0.06 0 0.76 0.06 0 0.78 0.06 0 0.8 0.06 0 0.82 0.06 0 0.84 0.06 0 0.86 0.06 0 0.88 0.06 0 0.9 0.06 0 0.92 0.06 0 0.94 0.06 0 0.96 0.06 0 0.98 0.06 0 1 0.06 0 0 0.288824 0 0.0724781 0.285325 0 0.139629 0.264065 0 0.192993 0.233489 0 0.20155 0.20155 0 0.241456 0.211705 0 0.272529 0.188828 0 0.292453 0.180207 0 0.312114 0.166347 0 0.326293 0.155689 0 0.340846 0.144512 0 0.351492 0.135294 0 0.362283 0.126681 0 0.370843 0.119333 0 0.378986 0.112516 0 0.386046 0.106448 0 0.392396 0.100733 0 0.398338 0.0955956 0 0.403492 0.0908514 0 0.408742 0.0867229 0 0.415274 0.0833756 0 0.425037 0.0811007 0 0.440476 0.0801524 0 0.460004 0.0800019 0 0.48 0.08 0 0.5 0.08 0 0.52 0.08 0 0.54 0.08 0 0.56 0.08 0 0.58 0.08 0 0.6 0.08 0 0.62 0.08 0 0.64 0.08 0 0.66 0.08 0 0.68 0.08 0 0.7 0.08 0 0.72 0.08 0 0.74 0.08 0 0.76 0.08 0 0.78 0.08 0 0.8 0.08 0 0.82 0.08 0 0.84 0.08 0 0.86 0.08 0 0.88 0.08 0 0.9 0.08 0 0.92 0.08 0 0.94 0.08 0 0.96 0.08 0 0.98 0.08 0 1 0.08 0 0 0.306706 0 0.0641355 0.303676 0 0.122569 0.287884 0 0.168303 0.267765 0 0.211705 0.241456 0 0.221704 0.221704 0 0.252715 0.224824 0 0.277926 0.205142 0 0.296337 0.197872 0 0.314831 0.183973 0 0.328337 0.174331 0 0.342276 0.163287 0 0.352644 0.154382 0 0.362861 0.1454 0 0.371535 0.137758 0 0.3795 0.130363 0 0.386452 0.12371 0 0.393001 0.117591 0 0.398708 0.112022 0 0.404693 0.107188 0 0.412211 0.103373 0 0.423335 0.100954 0 0.440214 0.100094 0 0.460001 0.100001 0 0.48 0.1 0 0.5 0.1 0 0.52 0.1 0 0.54 0.1 0 0.56 0.1 0 0.58 0.1 0 0.6 0.1 0 0.62 0.1 0 0.64 0.1 0 0.66 0.1 0 0.68 0.1 0 0.7 0.1 0 0.72 0.1 0 0.74 0.1 0 0.76 0.1 0 0.78 0.1 0 0.8 0.1 0 0.82 0.1 0 0.84 0.1 0 0.86 0.1 0 0.88 0.1 0 0.9 0.1 0 0.92 0.1 0 0.94 0.1 0 0.96 0.1 0 0.98 0.1 0 1 0.1 0 0 0.323187 0 0.0571604 0.318192 0 0.11052 0.308002 0 0.156808 0.289239 0 0.188828 0.272529 0 0.224824 0.252715 0 0.237893 0.237893 0 0.261969 0.236105 0 0.283309 0.218299 0 0.300269 0.212325 0 0.317537 0.198369 0 0.3303 0.189747 0 0.343302 0.178534 0 0.353422 0.169914 0 0.36355 0.160865 0 0.371861 0.152951 0 0.379851 0.145416 0 0.386761 0.138591 0 0.393233 0.132337 0 0.400097 0.127034 0 0.408902 0.122963 0 0.421827 0.120684 0 0.440072 0.120041 0 0.46 0.12 0 0.48 0.12 0 0.5 0.12 0 0.52 0.12 0 0.54 0.12 0 0.56 0.12 0 0.58 0.12 0 0.6 0.12 0 0.62 0.12 0 0.64 0.12 0 0.66 0.12 0 0.68 0.12 0 0.7 0.12 0 0.72 0.12 0 0.74 0.12 0 0.76 0.12 0 0.78 0.12 0 0.8 0.12 0 0.82 0.12 0 0.84 0.12 0 0.86 0.12 0 0.88 0.12 0 0.9 0.12 0 0.92 0.12 0 0.94 0.12 0 0.96 0.12 0 0.98 0.12 0 1 0.12 0 0 0.334856 0 0.0517499 0.333574 0 0.100834 0.32203 0 0.143315 0.309625 0 0.180207 0.292453 0 0.205142 0.277926 0 0.236105 0.261969 0 0.250514 0.250514 0 0.270526 0.245983 0 0.28895 0.229528 0 0.304273 0.224154 0 0.320007 0.209998 0 0.331959 0.202195 0 0.34449 0.191092 0 0.35428 0.182712 0 0.363986 0.173702 0 0.372309 0.165961 0 0.379913 0.15841 0 0.387181 0.151812 0 0.395232 0.146227 0 0.405629 0.14224 0 0.420773 0.140379 0 0.440017 0.140012 0 0.46 0.14 0 0.48 0.14 0 0.5 0.14 0 0.52 0.14 0 0.54 0.14 0 0.56 0.14 0 0.58 0.14 0 0.6 0.14 0 0.62 0.14 0 0.64 0.14 0 0.66 0.14 0 0.68 0.14 0 0.7 0.14 0 0.72 0.14 0 0.74 0.14 0 0.76 0.14 0 0.78 0.14 0 0.8 0.14 0 0.82 0.14 0 0.84 0.14 0 0.86 0.14 0 0.88 0.14 0 0.9 0.14 0 0.92 0.14 0 0.94 0.14 0 0.96 0.14 0 0.98 0.14 0 1 0.14 0 0 0.347936 0 0.0470896 0.343664 0 0.0920578 0.336971 0 0.132362 0.323917 0 0.166347 0.312114 0 0.197872 0.296337 0 0.218299 0.283309 0 0.245983 0.270526 0 0.260564 0.260564 0 0.278489 0.253666 0 0.294321 0.238907 0 0.308368 0.233333 0 0.322706 0.219569 0 0.333941 0.212387 0 0.345656 0.201485 0 0.355305 0.193572 0 0.364434 0.184763 0 0.372589 0.177251 0 0.380899 0.170332 0 0.39038 0.164883 0 0.402865 0.161377 0 0.420235 0.160148 0 0.440003 0.160002 0 0.46 0.16 0 0.48 0.16 0 0.5 0.16 0 0.52 0.16 0 0.54 0.16 0 0.56 0.16 0 0.58 0.16 0 0.6 0.16 0 0.62 0.16 0 0.64 0.16 0 0.66 0.16 0 0.68 0.16 0 0.7 0.16 0 0.72 0.16 0 0.74 0.16 0 0.76 0.16 0 0.78 0.16 0 0.8 0.16 0 0.82 0.16 0 0.84 0.16 0 0.86 0.16 0 0.88 0.16 0 0.9 0.16 0 0.92 0.16 0 0.94 0.16 0 0.96 0.16 0 0.98 0.16 0 1 0.16 0 0 0.356411 0 0.0431134 0.355291 0 0.0842319 0.347387 0 0.121753 0.339061 0 0.155689 0.326293 0 0.183973 0.314831 0 0.212325 0.300269 0 0.229528 0.28895 0 0.253666 0.278489 0 0.268744 0.268744 0 0.28502 0.259545 0 0.299286 0.247018 0 0.312647 0.240836 0 0.325302 0.227681 0 0.336219 0.220972 0 0.347031 0.210558 0 0.35615 0.20284 0 0.365291 0.194702 0 0.374736 0.188221 0 0.385962 0.183166 0 0.401073 0.18064 0 0.420047 0.180036 0 0.44 0.18 0 0.46 0.18 0 0.48 0.18 0 0.5 0.18 0 0.52 0.18 0 0.54 0.18 0 0.56 0.18 0 0.58 0.18 0 0.6 0.18 0 0.62 0.18 0 0.64 0.18 0 0.66 0.18 0 0.68 0.18 0 0.7 0.18 0 0.72 0.18 0 0.74 0.18 0 0.76 0.18 0 0.78 0.18 0 0.8 0.18 0 0.82 0.18 0 0.84 0.18 0 0.86 0.18 0 0.88 0.18 0 0.9 0.18 0 0.92 0.18 0 0.94 0.18 0 0.96 0.18 0 0.98 0.18 0 1 0.18 0 0 0.366157 0 0.0394472 0.363531 0 0.0773525 0.358959 0 0.112567 0.34989 0 0.144512 0.340846 0 0.174331 0.328337 0 0.198369 0.317537 0 0.224154 0.304273 0 0.238907 0.294321 0 0.259545 0.28502 0 0.275511 0.275511 0 0.290743 0.265167 0 0.303264 0.253952 0 0.316372 0.24716 0 0.327877 0.235155 0 0.338207 0.228317 0 0.348346 0.218731 0 0.358157 0.211821 0 0.369109 0.205468 0 0.382619 0.201628 0 0.400267 0.200193 0 0.420006 0.200005 0 0.44 0.2 0 0.46 0.2 0 0.48 0.2 0 0.5 0.2 0 0.52 0.2 0 0.54 0.2 0 0.56 0.2 0 0.58 0.2 0 0.6 0.2 0 0.62 0.2 0 0.64 0.2 0 0.66 0.2 0 0.68 0.2 0 0.7 0.2 0 0.72 0.2 0 0.74 0.2 0 0.76 0.2 0 0.78 0.2 0 0.8 0.2 0 0.82 0.2 0 0.84 0.2 0 0.86 0.2 0 0.88 0.2 0 0.9 0.2 0 0.92 0.2 0 0.94 0.2 0 0.96 0.2 0 0.98 0.2 0 1 0.2 0 0 0.373477 0 0.0362666 0.372466 0 0.0712847 0.367302 0 0.104228 0.360926 0 0.135294 0.351492 0 0.163287 0.342276 0 0.189747 0.3303 0 0.209998 0.320007 0 0.233333 0.308368 0 0.247018 0.299286 0 0.265167 0.290743 0 0.280706 0.280706 0 0.295336 0.270526 0 0.306845 0.260337 0 0.319437 0.252943 0 0.329906 0.242068 0 0.340598 0.235475 0 0.351704 0.227818 0 0.364483 0.223068 0 0.380777 0.220553 0 0.400041 0.220035 0 0.42 0.22 0 0.44 0.22 0 0.46 0.22 0 0.48 0.22 0 0.5 0.22 0 0.52 0.22 0 0.54 0.22 0 0.56 0.22 0 0.58 0.22 0 0.6 0.22 0 0.62 0.22 0 0.64 0.22 0 0.66 0.22 0 0.68 0.22 0 0.7 0.22 0 0.72 0.22 0 0.74 0.22 0 0.76 0.22 0 0.78 0.22 0 0.8 0.22 0 0.82 0.22 0 0.84 0.22 0 0.86 0.22 0 0.88 0.22 0 0.9 0.22 0 0.92 0.22 0 0.94 0.22 0 0.96 0.22 0 0.98 0.22 0 1 0.22 0 0 0.38093 0 0.0335065 0.379318 0 0.0660425 0.375751 0 0.0972491 0.369485 0 0.126681 0.362283 0 0.154382 0.352644 0 0.178534 0.343302 0 0.202195 0.331959 0 0.219569 0.322706 0 0.240836 0.312647 0 0.253952 0.303264 0 0.270526 0.295336 0 0.28514 0.28514 0 0.29908 0.275596 0 0.309766 0.265842 0 0.322282 0.258664 0 0.333338 0.249887 0 0.346234 0.244805 0 0.361502 0.241087 0 0.380146 0.240125 0 0.400003 0.240003 0 0.42 0.24 0 0.44 0.24 0 0.46 0.24 0 0.48 0.24 0 0.5 0.24 0 0.52 0.24 0 0.54 0.24 0 0.56 0.24 0 0.58 0.24 0 0.6 0.24 0 0.62 0.24 0 0.64 0.24 0 0.66 0.24 0 0.68 0.24 0 0.7 0.24 0 0.72 0.24 0 0.74 0.24 0 0.76 0.24 0 0.78 0.24 0 0.8 0.24 0 0.82 0.24 0 0.84 0.24 0 0.86 0.24 0 0.88 0.24 0 0.9
[...]
			<PointData Scalars="VitesseX">
				<DataArray Name="VitesseX" type="Float32" format="ascii">
 0 2.36149 1.65843 2.08216 1.94989 2.23226 2.21495 2.3425 2.48115 2.51424 2.61487 2.6997 2.91143 2.92679 2.82603 2.98064 3.12964 3.13816 3.28886 3.20419 2.86374 2.07695 0.756009 0.027186 8.47964e-06 4.21242e-11 2.0151e-16 1.04969e-20 -2.14138e-20 2.14138e-20 -1.04969e-20 1.04969e-20 0 -1.04969e-20 1.04969e-20 -2.14138e-20 2.14138e-20 -1.04969e-20 1.04969e-20 -1.04969e-20 1.04969e-20 -2.14138e-20 2.14138e-20 0 0 -2.14138e-20 2.14138e-20 -2.14138e-20 2.14138e-20 0 0 0 0.61244 2.11984 1.60156 1.99317 2.15859 2.23946 2.34743 2.45154 2.5282 2.57186 2.75008 2.85937 2.90081 2.86111 2.9611 3.1204 3.14003 3.2788 3.19141 2.84394 2.04709 0.719687 0.0241735 7.06336e-06 3.73872e-11 1.8291e-16 1.04969e-20 -2.14138e-20 2.14138e-20 -1.04969e-20 1.04969e-20 0 -1.04969e-20 1.04969e-20 -2.14138e-20 2.14138e-20 -1.04969e-20 1.04969e-20 -1.04969e-20 1.04969e-20 -2.14138e-20 2.14138e-20 0 0 -2.14138e-20 2.14138e-20 -2.14138e-20 2.14138e-20 0 0 0 0.952421 0.755103 1.69862 1.76747 2.02236 2.14275 2.30748 2.39783 2.42831 2.57993 2.73003 2.77479 2.82446 2.94437 2.91507 3.10502 3.1314 3.25353 3.15108 2.78344 1.9565 0.615794 0.0168736 4.06289e-06 2.57739e-11 1.3225e-16 1.65852e-20 -3.27505e-20 1.07069e-20 5.45841e-21 -5.45841e-21 2.20436e-20 -1.65852e-20 -5.45841e-21 -1.07069e-20 1.07069e-20 2.7502e-20 -2.7502e-20 5.45841e-21 -5.45841e-21 -1.07069e-20 3.27505e-20 -2.20436e-20 0 1.13367e-20 -1.13367e-20 1.13367e-20 -1.13367e-20 0 0 0 0.882917 1.30545 0.897896 1.47869 1.81176 2.03204 2.21004 2.30463 2.41083 2.53147 2.70952 2.66449 2.81824 2.93388 2.92133 3.06055 3.11212 3.21405 3.08335 2.67611 1.79954 0.461901 0.00906293 1.59091e-06 1.33333e-11 8.08983e-17 1.13367e-20 -2.20436e-20 2.20436e-20 -1.13367e-20 1.13367e-20 0 -1.13367e-20 1.13367e-20 -2.20436e-20 2.20436e-20 -1.15466e-20 1.15466e-20 -1.13367e-20 1.13367e-20 -2.20436e-20 2.20436e-20 0 0 -2.22535e-20 2.22535e-20 -2.22535e-20 2.22535e-20 0 0 0 0.514338 1.04764 1.51205 1.23511 1.52857 1.91371 2.09567 2.23209 2.35997 2.50301 2.56545 2.67747 2.7807 2.84547 2.96032 2.98365 3.09072 3.15365 2.99133 2.51474 1.55999 0.291431 0.00363263 4.16741e-07 4.98232e-12 3.85173e-17 -2.20436e-20 0 2.20436e-20 0 0 -2.20436e-20 2.20436e-20 0 -2.20436e-20 2.20436e-20 2.18336e-20 -2.18336e-20 0 0 -2.20436e-20 0 2.20436e-20 0 -2.09939e-22 2.09939e-22 -4.42971e-20 4.42971e-20 0 0 0 0.470896 0.899015 1.1346 1.60527 1.4636 1.7927 1.98731 2.15574 2.27893 2.36859 2.5177 2.66278 2.72774 2.76751 2.96456 2.89997 3.0679 3.06234 2.86676 2.29848 1.2203 0.146485 0.00104062 7.41309e-08 1.32019e-12 7.71367e-18 2.20436e-20 -4.40872e-20 0 2.20436e-20 -2.20436e-20 4.40872e-20 -2.20436e-20 -2.20436e-20 0 0 6.61308e-20 -6.61308e-20 2.20436e-20 -2.20436e-20 0 4.40872e-20 -4.40872e-20 0 4.40872e-20 -4.40872e-20 4.40872e-20 -4.40872e-20 0 0 0 0.425391 0.786478 1.15464 1.25826 1.72619 1.66218 1.90059 2.05528 2.14798 2.29891 2.47775 2.62466 2.62756 2.78544 2.84679 2.88653 3.00822 2.9552 2.67346 2.01677 0.803896 0.0552064 0.00019966 1.00381e-08 2.5853e-13 4.42926e-20 -4.40872e-20 4.40872e-20 -4.40872e-20 0 4.40872e-20 -4.40872e-20 4.40872e-20 -4.40872e-20 0 4.40872e-20 -8.81743e-20 8.81743e-20 -4.40872e-20 0 4.40872e-20 -4.40872e-20 4.40872e-20 0 -4.40872e-20 0 4.40872e-20 -4.40872e-20 0 0 0 0.38939 0.76882 1.0615 1.32731 1.42903 1.75087 1.89613 1.91454 2.07857 2.28572 2.42878 2.48725 2.62836 2.70578 2.75461 2.87715 2.91236 2.80507 2.41041 1.61148 0.409671 0.0146411 2.32674e-05 1.18568e-09 4.08832e-14 -4.40728e-20 0 0 4.40872e-20 -4.40872e-20 4.40872e-20 -4.40872e-20 0 4.40872e-20 -4.40872e-20 4.40872e-20 -8.81743e-20 8.81743e-20 -4.40872e-20 4.40872e-20 -4.40872e-20 0 4.40872e-20 0 -8.81743e-20 8.81743e-20 -8.81743e-20 8.81743e-20 0 0 0 0.368875 0.706144 1.00261 1.23412 1.4841 1.57181 1.82767 2.00006 2.09987 2.21416 2.31665 2.45899 2.56231 2.62262 2.71861 2.83122 2.7947 2.58314 2.08307 1.05993 0.148083 0.00250994 1.48736e-06 1.06979e-10 5.13027e-15 -4.40851e-20 0 0 4.40872e-20 -4.40872e-20 0 4.40872e-20 -4.40872e-20 0 4.40872e-20 -8.81743e-20 1.32052e-19 -1.32052e-19 4.40872e-20 8.81743e-20 -8.81743e-20 0 -4.40872e-20 8.81743e-20 -4.40872e-20 8.81743e-20 -1.76349e-19 1.76349e-19 -8.81743e-20 0 0 0.341125 0.639581 0.940194 1.19487 1.38913 1.57791 1.65838 2.04389 2.03447 2.17744 2.32135 2.44949 2.5035 2.54593 2.72559 2.72375 2.64148 2.29374 1.61255 0.507938 0.034895 0.000244061 5.30769e-08 5.91261e-12 4.05704e-16 4.40872e-20 -4.40872e-20 0 0 4.40872e-20 -4.40872e-20 0 4.40872e-20 -4.40872e-20 0 0 1.32052e-19 -1.32052e-19 4.40872e-20 -4.40872e-20 0 0 0 0 8.81743e-20 -8.81743e-20 0 0 0 0 0 0.310006 0.606433 0.892124 1.14354 1.32827 1.50263 1.78317 1.83259 2.06675 2.11971 2.26903 2.38471 2.44838 2.58939 2.63612 2.6376 2.38049 1.9319 0.964687 0.158426 0.00487929 1.1091e-05 1.79458e-09 2.2594e-13 2.09891e-21 0 8.81743e-20 -1.32262e-19 8.81743e-20 -4.40872e-20 4.40872e-20 -8.81743e-20 8.81743e-20 4.40872e-20 -1.76349e-19 1.76349e-19 -8.81743e-20 0 8.81743e-20 -1.76349e-19 8.81743e-20 8.81743e-20 -8.81743e-20 0 0 0 8.81743e-20 -1.76349e-19 1.76349e-19 0 0 0.300286 0.583952 0.848268 1.07135 1.286 1.52387 1.69094 1.8482 1.97195 2.08742 2.27212 2.29526 2.4717 2.55632 2.56384 2.40255 2.08766 1.3429 0.381529 0.0295668 0.00033023 2.10696e-07 5.52693e-11 9.01785e-15 1.8483e-23 0 8.81743e-20 -8.81743e-20 0 0 0 8.79644e-20 -8.79644e-20 0 0 0 0 0 0 0 0 8.81743e-20 -8.81743e-20 0 0 0 8.81743e-20 -8.81743e-20 0 0 0 0.279943 0.529237 0.770011 1.02152 1.28427 1.46337 1.64519 1.76287 1.98771 2.04048 2.09546 2.35152 2.42982 2.45885 2.40161 2.1201 1.5839 0.633745 0.0911679 0.00269757 9.026e-06 2.87678e-09 9.31285e-13 2.31112e-16 0 0 -1.32262e-19 1.32262e-19 -4.40872e-20 8.81743e-20 -8.81743e-20 -2.09939e-22 2.09939e-22 0 8.81743e-20 -8.81743e-20 -8.81743e-20 1.76349e-19 -8.81743e-20 8.81743e-20 -8.81743e-20 -8.81743e-20 1.76349e-19 -8.81743e-20 8.81743e-20 -8.81743e-20 -8.81743e-20 2.64103e-19 -2.64103e-19 0 0 0.248569 0.489172 0.744786 1.00295 1.20694 1.4005 1.56634 1.78987 1.82524 1.99563 2.1356 2.20455 2.34676 2.31386 2.07213 1.72173 0.824136 0.185919 0.010047 0.00011103 7.52326e-08 4.70268e-11 1.56792e-14 1.1084e-22 0 8.81743e-20 -1.76349e-19 1.76349e-19 -8.81743e-20 0 8.81743e-20 -1.76349e-19 1.76349e-19 -8.81743e-20 0 8.81743e-20 -1.76349e-19 1.76349e-19 -8.81743e-20 0 8.81743e-20 -1.76349e-19 1.76349e-19 0 -8.81743e-20 0 -4.19878e-22 0 4.19878e-22 0 0 0.237724 0.48072 0.722321 0.942142 1.15646 1.3617 1.54864 1.6381 1.83782 1.90217 2.09225 2.14509 2.10194 2.00245 1.71391 0.913193 0.28597 0.0219811 0.000595735 9.86907e-07 7.79971e-10 3.61554e-13 2.10523e-16 0 0 0 8.81743e-20 -8.81743e-20 0 0 0 8.81743e-20 -8.81743e-20 0 0 0 0 0 0 0 8.81743e-20 0 -8.81743e-20 0 0 0 -4.19878e-22 -8.77545e-20 1.76349e-19 0 0 0.233599 0.456499 0.680146 0.918448 1.13724 1.30912 1.44487 1.64299 1.74958 1.9396 1.89417 1.97586 1.81997 1.56651 0.924775 0.334617 0.0340221 0.00172698 5.17624e-06 6.74143e-09 4.66826e-12 4.24187e-15 4.39189e-20 8.81743e-20 0 -1.76349e-19 1.76349e-19 -1.76349e-19 1.76349e-19 -8.81743e-20 0 8.81743e-20 -1.76349e-19 1.76349e-19 -8.81743e-20 0 0 0 0 8.81743e-20 -1.76349e-19 1.76349e-19 -8.81743e-20 0 -8.81743e-20 1.76349e-19 -1.76349e-19 1.76349e-19 0 0 0 0.225806 0.45013 0.667769 0.864789 1.04691 1.23245 1.42958 1.57237 1.71173 1.72875 1.79075 1.57821 1.42672 0.795811 0.316504 0.0403119 0.00268653 1.40449e-05 3.63664e-08 2.66459e-11 3.71882e-14 4.03508e-21 8.81743e-20 -8.81743e-20 0 0 8.81743e-20 -8.81743e-20 0 0 0 0 8.77545e-20 -8.77545e-20 0 -8.81743e-20 2.64103e-19 -8.77545e-20 -1.76349e-19 1.76349e-19 -1.76349e-19 0 1.76349e-19 0 -1.76349e-19 1.76349e-19 0 -1.76349e-19 1.76349e-19 0 0 0.214036 0.426303 0.631526 0.830717 1.02209 1.20444 1.34959 1.48077 1.52793 1.53858 1.38702 1.18497 0.609897 0.256041 0.031895 0.00266939 2.18108e-05 8.08096e-08 7.75921e-11 1.83947e-13 1.02555e-16 1.76351e-19 -8.81743e-20 0 0 8.81743e-20 -1.76349e-19 1.76349e-19 -8.81743e-20 0 0 0 8.77545e-20 -1.75929e-19 1.76349e-19 -1.76349e-19 2.64103e-19 -2.64103e-19 8.81743e-20 8.81743e-20 0 -1.76349e-19 0 1.76349e-19 0 0 -1.76349e-19 1.75929e-19 -1.75929e-19 0 0 0.208564 0.411757 0.606904 0.788457 0.954085 1.10472 1.22457 1.27706 1.27564 1.13819 0.874191 0.432998 0.158866 0.0195129 0.00170775 1.39553e-05 8.07128e-08 1.25758e-10 3.94207e-13 3.49044e-16 1.75958e-19 -8.77545e-20 0 0 0 8.81743e-20 -1.76349e-19 8.81743e-20 0 8.77545e-20 -8.77545e-20 8.81743e-20 -1.76349e-19 8.81743e-20 8.81743e-20 0 -1.76349e-19 0 3.52277e-19 -3.52277e-19 0 1.76349e-19 -4.19878e-22 -1.75929e-19 1.76349e-19 -1.76349e-19 1.75929e-19 0 -1.75929e-19 0 0 0.189628 0.372755 0.544197 0.700548 0.834169 0.935288 0.987697 0.967852 0.814816 0.5542 0.25232 0.0749897 0.00900328 0.000586953 5.11677e-06 3.62646e-08 7.71716e-11 3.93755e-13 5.95631e-16 -2.07485e-17 1.75929e-19 -8.77545e-20 0 0 0 0 8.81743e-20 -1.76349e-19 8.81743e-20 8.77545e-20 -8.77545e-20 0 0 8.81743e-20 -1.76349e-19 1.76349e-19 -4.19878e-22 4.19878e-22 -4.19878e-22 -1.75929e-19 0 1.76349e-19 -4.19878e-22 -1.75929e-19 1.76349e-19 -1.76349e-19 1.75929e-19 -1.75929e-19 1.76349e-19 0 0 0.158022 0.307129 0.439982 0.550489 0.62938 0.653519 0.597745 0.457575 0.273605 0.106703 0.0244852 0.00248336 0.000109172 9.75e-07 6.69771e-09 2.63527e-11 1.83412e-13 3.90365e-16 -2.05721e-17 0 0 8.81743e-20 -1.76349e-19 1.76349e-19 0 -1.76349e-19 1.76349e-19 -8.81743e-20 8.81743e-20 -2.64523e-19 2.64523e-19 -8.81743e-20 8.81743e-20 0 -1.76349e-19 0 1.75929e-19 4.19878e-22 -1.76349e-19 1.76349e-19 -1.76349e-19 1.76349e-19 -1.76349e-19 1.76349e-19 0 -1.76349e-19 0 1.76349e-19 0 0 0 0.105976 0.200204 0.270415 0.305742 0.300478 0.256098 0.175663 0.085155 0.0253682 0.00421827 0.000312255 8.88165e-06 7.37744e-08 7.71415e-10 4.60258e-12 3.69828e-14 1.02731e-16 -3.91136e-22 4.19878e-22 0 0 0 8.77545e-20 -8.77545e-20 0 0 8.81743e-20 -8.81743e-20 8.81743e-20 -1.76349e-19 1.76349e-19 -1.76349e-19 1.76349e-19 0 -1.76349e-19 1.75929e-19 -1.75929e-19 0 1.76349e-19 -1.76349e-19 1.75929e-19 4.19878e-22 -1.76349e-19 1.76349e-19 -1.76349e-19 1.75929e-19 4.19878e-22 -1.76349e-19 1.76349e-19 0 0 0.0375252 0.0672946 0.0826917 0.0789148 0.0571285 0.029176 0.00986934 0.00202858 0.000221982 1.06763e-05 2.0514e-07 2.78525e-09 4.63427e-11 3.53491e-13 4.24195e-15 4.03097e-21 2.05406e-24 8.77545e-20 -8.77545e-20 8.81743e-20 -1.76349e-19 8.81743e-20 8.77545e-20 -8.77545e-20 0 8.81743e-20 -8.81743e-20 -8.81743e-20 1.76349e-19 0 -1.76349e-19 1.75929e-19 -1.75929e-19 1.76349e-19 -1.76349e-19 3.52277e-19 -3.52277e-19 0 1.76349e-19 -1.76349e-19 3.52277e-19 -3.52277e-19 0 1.76349e-19 -1.76349e-19 3.52277e-19 -3.52277e-19 1.75929e-19 -1.75929e-19 0 0 0.00290683 0.00415953 0.00344428 0.00188001 0.000680143 0.000155603 2.0384e-05 1.38474e-06 4.9607e-08 1.68629e-09 5.34548e-11 9.0081e-13 1.52583e-14 2.10435e-16 4.39169e-20 8.81743e-20 -8.81743e-20 0 0 0 8.77545e-20 -8.77545e-20 0 0 0 0 8.77545e-20 -8.77545e-20 -8.81743e-20 1.76349e-19 -1.76349e-19 3.52277e-19 -3.52277e-19 0 1.76349e-19 -1.76349e-19 1.75929e-19 4.19878e-22 -1.76349e-19 1.76349e-19 -1.76349e-19 1.75929e-19 4.19878e-22 -1.76349e-19 1.76349e-19 -1.76349e-19 1.75929e-19 0 -1.75929e-19 0 0 1.41557e-06 1.58353e-06 8.8757e-07 2.86362e-07 5.62236e-08 7.86967e-09 9.83178e-10 9.55964e-11 5.47911e-12 2.08367e-13 8.5558e-15 2.31024e-16 1.12894e-22 0 8.81743e-20 -8.81743e-20 0 0 0 0 8.77545e-20 -8.77545e-20 0 0 0 0 -4.19878e-22 8.85942e-20 -1.76349e-19 1.76349e-19 0 -1.76349e-19 1.76349e-19 -1.76349e-19 1.76349e-19 -1.76349e-19 1.75929e-19 4.19878e-22 -1.76349e-19 1.76349e-19 -1.76349e-19 1.75929e-19 4.19878e-22 -1.76349e-19 1.76349e-19 -1.76349e-19 1.75929e-19 -1.75929e-19 1.76349e-19 0 0 4.73707e-12 6.87633e-12 5.56436e-12 2.78673e-12 8.75465e-13 1.86213e-13 3.14341e-14 4.31878e-15 4.057e-16 2.05579e-21 2.25893e-23 8.81743e-20 -1.76349e-19 1.76349e-19 0 -1.76349e-19 1.76349e-19 -1.76349e-19 1.76349e-19 0 -1.76349e-19 1.76349e-19 -1.76349e-19 1.76349e-19 0 0 -3.52697e-19 3.52697e-19 0 0 0 -3.52697e-19 3.52697e-19 0 0 0 -3.52697e-19 3.52697e-19 0 0 0 -3.52697e-19 3.52697e-19 0 0 0 -3.52697e-19 5.28626e-19 -3.52277e-19 0 0 1.85998e-17 3.20712e-17 1.92692e-17 2.31345e-17 7.66919e-18 4.427e-20 -4.40769e-20 4.40892e-20 -4.40872e-20 0 0 8.81743e-20 -8.81743e-20 0 0 0 8.81743e-20 -8.81743e-20 0 0 0 8.81743e-20 -1.76349e-19 1.76349e-19 0 -1.76349e-19 1.75929e-19 -1.75929e-19 1.76349e-19 0 -1.76349e-19 1.75929e-19 -1.75929e-19 1.76349e-19 0 -1.76349e-19 1.75929e-19 -1.75929e-19 1.76349e-19 0 -1.76349e-19 1.75929e-19 -1.75929e-19 1.76349e-19 0 -1.76349e-19 0 1.75929e-19 0 0 0 0 1.65852e-20 -3.27505e-20 2.20436e-20 2.20436e-20 -4.40872e-20 0 0 4.40872e-20 0 0 -1.32262e-19 1.76349e-19 -8.81743e-20 0 8.81743e-20 -1.76349e-19 1.76349e-19 -8.81743e-20 0 8.81743e-20 -8.81743e-20 8.77545e-20 -1.75929e-19 0 1.75929e-19 0 0 -1.75929e-19 0 1.75929e-19 0 0 -1.75929e-19 0 1.75929e-19 0 0 -1.75929e-19 0 1.75929e-19 0 0 4.19878e-22 -1.76349e-19 0 3.52277e-19 -5.28626e-19 3.52277e-19 0 0 0 1.13367e-20 -2.20436e-20 0 4.40872e-20 -4.40872e-20 2.09939e-22 -2.09939e-22 2.09939e-22 4.38772e-20 0 -1.32262e-19 1.76349e-19 -8.79644e-20 0 8.79644e-20 -1.76349e-19 8.83843e-20 0 8.79644e-20 -8.79644e-20 -8.81743e-20 2.63893e-19 -2.64103e-19 0 1.76139e-19 0 0 -1.76139e-19 0 1.76139e-19 -1.76139e-19 3.52277e-19 -3.52277e-19 0 1.76139e-19 -1.76139e-19 1.76139e-19 -1.76139e-19 1.76139e-19 0 -1.76139e-19 1.76139e-19 2.09939e-22 -3.52487e-19 5.28626e-19 -1.76349e-19 -3.52277e-19 3.52277e-19 0 0 0 -1.07069e-20 2.20436e-20 -2.20436e-20 0 4.40872e-20 -4.38772e-20 4.38772e-20 -8.79644e-20 8.79644e-20 -8.81743e-20 1.32262e-19 -8.81743e-20 2.09939e-22 0 -2.09939e-22 8.81743e-20 -1.76139e-19 8.81743e-20 8.79644e-20 -8.79644e-20 0 -8.83843e-20 1.76349e-19 0 -1.76139e-19 1.75929e-19 -1.75929e-19 1.76139e-19 0 -1.76139e-19 1.76139e-19 -1.76349e-19 1.76349e-19 0 -1.76139e-19 -2.09939e-22 2.09939e-22 1.76139e-19 -2.09939e-22 0 2.09939e-22 -1.76139e-19 -2.09939e-22 1.76139e-19 0 -3.52277e-19 3.52277e-19 0 0 0 0 -5.45841e-21 1.13367e-20 0 -2.20436e-20 0 4.40872e-20 -4.40872e-20 4.40872e-20 -4.40872e-20 0 8.81743e-20 -1.76349e-19 1.76349e-19 -8.81743e-20 0 0 8.77545e-20 -8.77545e-20 -8.81743e-20 1.76349e-19 0 -1.76349e-19 1.76349e-19 0 0 -3.52697e-19 3.52697e-19 0 0 -1.76349e-19 1.76349e-19 -1.76349e-19 1.76349e-19 -1.76349e-19 1.76349e-19 -4.19878e-22 4.19878e-22 -1.76349e-19 1.75929e-19 -3.52068e-19 5.28416e-19 -3.52277e-19 1.75929e-19 0 -3.52277e-19 3.52277e-19 3.52277e-19 -7.04555e-19 0 0 0 -5.45841e-21 1.13367e-20 0 -2.20436e-20 4.40872e-20 -4.40872e-20 0 4.40872e-20 -4.40872e-20 0 8.81743e-20 -8.81743e-20 0 0 0 0 8.77545e-20 -8.77545e-20 -8.81743e-20 1.76349e-19 -1.76349e-19 1.76349e-19 0 0 -1.76349e-19 1.75929e-19 -1.75929e-19 1.76349e-19 -1.76349e-19 1.75929e-19 4.19878e-22 -1.76349e-19 1.76349e-19 -1.76349e-19 1.76349e-19 -4.19878e-22 4.19878e-22 -1.76349e-19 1.75929e-19 -3.52068e-19 3.52068e-19 0 0 -3.52277e-19 3.52277e-19 0 0 0 0 0 0 6.29817e-22 0 -2.20436e-20 4.40872e-20 -4.40872e-20 4.40872e-20 -4.40872e-20 0 0 8.77545e-20 -1.75929e-19 1.76349e-19 -8.81743e-20 8.81743e-20 -1.76349e-19 1.76349e-19 -8.81743e-20 0 8.81743e-20 -1.76349e-19 1.75929e-19 4.19878e-22 -1.76349e-19 0 1.75929e-19 0 -1.75929e-19 1.76349e-19 -1.76349e-19 3.52277e-19 -3.52277e-19 0 1.76349e-19 0 -1.76349e-19 1.75929e-19 -1.75929e-19 1.76349e-19 -3.52697e-19 7.04555e-19 -7.04555e-19 3.52277e-19 0 0 0 0 -3.52277e-19 3.52277e-19 0 0 0 1.65852e-20 -3.27505e-20 2.20436e-20 2.20436e-20 -4.40872e-20 0 4.40872e-20 -4.40872e-20 0 8.77545e-20 -1.75929e-19 1.76349e-19 -8.81743e-20 0 8.77545e-20 -8.77545e-20 0 0 8.81743e-20 -1.76349e-19 1.75929e-19 4.19878e-22 -1.76349e-19 0 1.75929e-19 0 4.19878e-22 -1.76349e-19 1.76349e-19 -1.76349e-19 0 3.52277e-19 -3.52277e-19 1.76349e-19 -3.52697e-19 5.28626e-19 -1.76349e-19 -1.75929e-19 1.75929e-19 0 -3.52277e-19 3.52277e-19 0 0 0 0 -3.52277e-19 3.52277e-19 0 0 0 -5.45841e-21 1.13367e-20 0 -2.20436e-20 4.40872e-20 -4.40872e-20 0 4.40872e-20 4.40872e-20 -1.76349e-19 1.76349e-19 -8.81743e-20 0 0 8.77545e-20 -1.75929e-19 8.81743e-20 8.81743e-20 0 0 -1.76349e-19 0 1.76349e-19 0 -1.76349e-19 1.75929e-19 4.19878e-22 -1.76349e-19 1.76349e-19 -1.76349e-19 1.76349e-19 -4.19878e-22 -1.75929e-19 0 1.75929e-19 -1.75929e-19 1.75929e-19 0 0 0 0 0 -3.52277e-19 3.52277e-19 0 -3.52277e-19 3.52277e-19 0 0 0 0 -1.07069e-20 2.20436e-20 -2.20436e-20 0 0 4.40872e-20 -4.40872e-20 2.09939e-22 0 -2.09939e-22 8.81743e-20 -1.76139e-19 1.76139e-19 -8.79644e-20 -2.09939e-22 0 8.81743e-20 -1.76139e-19 1.76139e-19 -1.76139e-19 1.76139e-19 -1.76349e-19 1.76349e-19 0 0 -3.52487e-19 3.52487e-19 0 -1.76139e-19 1.76139e-19 0 -1.76349e-19 2.09939e-22 1.75929e-19 0 0 -3.52277e-19 3.52277e-19 0 0 0 -3.52277e-19 3.52277e-19 0 0 -3.52277e-19 7.04555e-19 -7.04555e-19 0 0 0 -1.07069e-20 2.20436e-20 -2.20436e-20 0 4.40872e-20 -4.40872e-20 0 2.09939e-22 0 -2.09939e-22 8.81743e-20 -8.79644e-20 -2.09939e-22 2.09939e-22 -8.83843e-20 1.76349e-19 0 -1.76139e-19 -2.09939e-22 1.76139e-19 2.09939e-22 -1.76349e-19 1.76349e-19 0 -1.76349e-19 1.76139e-19 -1.76139e-19 1.76349e-19 -1.76139e-19 1.76139e-19 -1.76349e-19 0 1.76139e-19 0 0 0 0 -3.52277e-19 3.52277e-19 -3.52277e-19 3.52277e-19 0 0 0 -3.52068e-19 3.52068e-19 0 0 0 0 0 1.65852e-20 -3.29604e-20 6.63407e-20 -6.61308e-20 0 0 4.36673e-20 4.4507e-20 -8.81743e-20 0 -8.81743e-20 1.76349e-19 -1.76349e-19 1.76349e-19 -8.85942e-20 8.85942e-20 -1.76349e-19 3.52277e-19 -5.28626e-19 5.28626e-19 -3.52277e-19 1.75929e-19 -1.75929e-19 0 1.75929e-19 0 -1.75929e-19 0 3.52277e-19 -3.52277e-19 1.75929e-19 -1.75929e-19 1.75929e-19 0 0 -3.52277e-19 3.52277e-19 3.52277e-19 -7.04555e-19 0 3.52277e-19 3.52277e-19 -7.04555e-19 3.52277e-19 -3.52068e-19 7.04345e-19 -7.04555e-19 3.52277e-19 0 0 0 1.65852e-20 -3.29604e-20 6.63407e-20 -6.61308e-20 0 0 4.36673e-20 4.4507e-20 -1.76349e-19 1.76349e-19 -1.76349e-19 1.76349e-19 -1.76349e-19 1.76349e-19 8.77545e-20 -2.64103e-19 0 3.52277e-19 -3.52277e-19 0 0 3.52277e-19 -3.52277e-19 0 1.75929e-19 0 -1.75929e-19 0 3.52277e-19 -3.52277e-19 1.75929e-19 1.76349e-19 -5.28626e-19 3.52277e-19 0 -3.52277e-19 3.52277e-19 3.52277e-19 -7.04555e-19 3.52277e-19 0 -3.52068e-19 3.52068e-19 -3.52277e-19 7.04555e-19 -3.52277e-19 -3.52277e-19 3.52277e-19 0 0 0 -5.45841e-21 1.13367e-20 0 -2.20436e-20 4.40872e-20 -4.40872e-20 -4.40872e-20 1.32262e-19 -8.81743e-20 0 8.81743e-20 -8.81743e-20 0 0 0 -8.81743e-20 3.52277e-19 -3.52277e-19 1.76349e-19 -1.76349e-19 1.76349e-19 -1.76349e-19 1.76349e-19 0 -1.76349e-19 1.75929e-19 -1.75929e-19 1.76349e-19 -1.76349e-19 1.76349e-19 -1.76349e-19 1.75929e-19 0 -3.52277e-19 3.52277e-19 3.52277e-19 -3.52277e-19 -3.52277e-19 3.52277e-19 0 0 -3.52068e-19 3.52068e-19 0 0 -3.52277e-19 3.52277e-19 0 0 0 0 -5.45841e-21 1.13367e-20 0 -2.20436e-20 0 4.40872e-20 0 -4.40872e-20 0 0 8.81743e-20 -1.76349e-19 1.76349e-19 -8.81743e-20 0 8.81743e-20 -4.19878e-22 -1.75929e-19 1.76349e-19 -1.76349e-19 1.76349e-19 -1.76349e-19 1.76349e-19 0 0 -3.52697e-19 5.28626e-19 -3.52277e-19 1.75929e-19 -1.75929e-19 0 1.75929e-19 0 0 -3.52277e-19 7.04555e-19 -7.04555e-19 3.52277e-19 0 0 -3.52277e-19 3.52277e-19 0 0 0 -3.52277e-19 7.04555e-19 -7.04555e-19 0 0 0 -1.07069e-20 2.20436e-20 -2.20436e-20 0 4.40872e-20 -4.38772e-20 8.79644e-20 -1.76139e-19 8.79644e-20 2.09939e-22 8.79644e-20 -8.81743e-20 8.81743e-20 -1.76139e-19 1.76139e-19 0 -3.52487e-19 3.52487e-19 -1.76139e-19 1.75929e-19 2.09939e-22 -1.76139e-19 1.76139e-19 0 -1.76139e-19 1.75929e-19 0 0 -3.52068e-19 3.52068e-19 0 0 0 0 -3.52277e-19 0 3.52277e-19 0 0 -3.52068e-19 3.52068e-19 0 0 0 -3.52068e-19 3.52068e-19 0 0 0 0 0 1.13367e-20 -2.20436e-20 0 4.40872e-20 -4.40872e-20 2.09939e-22 -2.09939e-22 2.09939e-22 8.79644e-20 -8.79644e-20 -8.83843e-20 1.76349e-19 0 -1.76139e-19 -2.09939e-22 1.76349e-19 -1.76139e-19 1.76139e-19 -1.76139e-19 3.52277e-19 -3.52487e-19 1.76139e-19 -1.76139e-19 0 1.76139e-19 0 -1.75929e-19 3.52277e-19 -5.28416e-19 3.52068e-19 0 -3.52277e-19 7.04555e-19 -7.04555e-19 3.52277e-19 -3.52277e-19 7.04555e-19 -7.04555e-19 3.52277e-19