<?xml version="1.0"?>
<VTKFile type="PolyData">
	<PolyData>
		<Piece NumberOfPoints="2601" NumberOfPolys="2500">
			<Points>
				<DataArray type="Float32" NumberOfComponents="3" format="ascii">
 0 0 0 0.431766 0 0 0.297961 0 0 0.401834 0 0 0.403844 0 0 0.431799 0 0 0.452875 0 0 0.470918 0 0 0.489306 0 0 0.502901 0 0 0.517564 0 0 0.529006 0 0 0.541845 0 0 0.551437 0 0 0.562846 0 0 0.571207 0 0 0.581087 0 0 0.588301 0 0 0.596376 0 0 0.602942 0 0 0.610101 0 0 0.616598 0 0 0.622603 0 0 0.628299 0 0 0.633693 0 0 0.638983 0 0 0.643737 0 0 0.648374 0 0 0.652695 0 0 0.6568 0 0 0.660805 0 0 0.664626 0 0 0.668933 0 0 0.6749 0 0 0.684588 0 0 0.70035 0 0 0.720001 0 0 0.74 0 0 0.76 0 0 0.78 0 0 0.8 0 0 0.82 0 0 0.84 0 0 0.86 0 0 0.88 0 0 0.9 0 0 0.92 0 0 0.94 0 0 0.96 0 0 0.98 0 0 1 0 0 0 0.431766 0 0.16792 0.16792 0 0.385963 0.176505 0 0.338271 0.15476 0 0.401188 0.102371 0 0.424465 0.0912409 0 0.447714 0.081379 0 0.46842 0.0728802 0 0.484544 0.0675099 0 0.50136 0.0618865 0 0.514122 0.057125 0 0.528276 0.0524709 0 0.539199 0.0485709 0 0.551311 0.0454477 0 0.560349 0.0428044 0 0.571252 0.0406258 0 0.579144 0.0385398 0 0.588064 0.0365929 0 0.595017 0.0347781 0 0.602572 0.0331401 0 0.609298 0.0317213 0 0.616034 0.0304354 0 0.621926 0.0292574 0 0.627817 0.0281691 0 0.633182 0.0271346 0 0.638514 0.0261505 0 0.643309 0.0252205 0 0.647962 0.0243624 0 0.652324 0.0235739 0 0.656451 0.0228523 0 0.660472 0.0221835 0 0.664317 0.0215517 0 0.668659 0.020973 0 0.674684 0.0204846 0 0.684464 0.0201509 0 0.70033 0.0200186 0 0.720001 0.0200001 0 0.74 0.02 0 0.76 0.02 0 0.78 0.02 0 0.8 0.02 0 0.82 0.02 0 0.84 0.02 0 0.86 0.02 0 0.88 0.02 0 0.9 0.02 0 0.92 0.02 0 0.94 0.02 0 0.96 0.02 0 0.98 0.02 0 1 0.02 0 0 0.297961 0 0.176505 0.385963 0 0.194394 0.194394 0 0.346039 0.243285 0 0.361017 0.201745 0 0.400927 0.17296 0 0.430134 0.154558 0 0.452565 0.143644 0 0.474064 0.130731 0 0.490413 0.121167 0 0.507527 0.111189 0 0.520855 0.103169 0 0.535018 0.0960264 0 0.545579 0.0899725 0 0.557611 0.08519 0 0.56654 0.0807667 0 0.57691 0.0767645 0 0.584472 0.0728616 0 0.592951 0.0692232 0 0.600043 0.0659622 0 0.607516 0.0630584 0 0.613927 0.0605104 0 0.620317 0.0582273 0 0.626245 0.0561301 0 0.631748 0.0540878 0 0.637089 0.0521468 0 0.642052 0.0503102 0 0.64674 0.0486128 0 0.651219 0.0470563 0 0.655415 0.0456276 0 0.65948 0.044297 0 0.663393 0.0430386 0 0.667844 0.0418889 0 0.674046 0.0409261 0 0.684104 0.0402796 0 0.700276 0.040032 0 0.720001 0.0400002 0 0.74 0.04 0 0.76 0.04 0 0.78 0.04 0 0.8 0.04 0 0.82 0.04 0 0.84 0.04 0 0.86 0.04 0 0.88 0.04 0 0.9 0.04 0 0.92 0.04 0 0.94 0.04 0 0.96 0.04 0 0.98 0.04 0 1 0.04 0 0 0.401834 0 0.15476 0.338271 0 0.243285 0.346039 0 0.221869 0.221869 0 0.316745 0.281578 0 0.371165 0.232758 0 0.403514 0.220966 0 0.433196 0.20046 0 0.456253 0.188612 0 0.478348 0.173204 0 0.49525 0.16184 0 0.512738 0.150255 0 0.525981 0.141064 0 0.539782 0.133143 0 0.550181 0.126114 0 0.562052 0.11998 0 0.570851 0.113915 0 0.580692 0.108204 0 0.588448 0.102902 0 0.596871 0.0981117 0 0.603946 0.0939256 0 0.610969 0.0901799 0 0.617536 0.0868895 0 0.623729 0.0837526 0 0.629354 0.0807448 0 0.634808 0.0778686 0 0.639946 0.0751632 0 0.644762 0.0726521 0 0.649391 0.0703616 0 0.653715 0.0682469 0 0.657841 0.0662657 0 0.661873 0.0643928 0 0.66651 0.0626911 0 0.673016 0.061284 0 0.683545 0.0603681 0 0.700203 0.060037 0 0.72 0.0600002 0 0.74 0.06 0 0.76 0.06 0 0.78 0.06 0 0.8 0.06 0 0.82 0.06 0 0.84 0.06 0 0.86 0.06 0 0.88 0.06 0 0.9 0.06 0 0.92 0.06 0 0.94 0.06 0 0.96 0.06 0 0.98 0.06 0 1 0.06 0 0 0.403844 0 0.102371 0.401188 0 0.201745 0.361017 0 0.281578 0.316745 0 0.271229 0.271229 0 0.332905 0.306065 0 0.380594 0.25768 0 0.411034 0.25443 0 0.439086 0.233313 0 0.461199 0.22192 0 0.482887 0.206092 0 0.499455 0.195106 0 0.516234 0.183616 0 0.528958 0.174201 0 0.542689 0.165646 0 0.553219 0.157418 0 0.564962 0.1497 0 0.573889 0.142348 0 0.583718 0.135506 0 0.591607 0.129452 0 0.599666 0.124034 0 0.606724 0.119374 0 0.613789 0.115045 0 0.620056 0.11093 0 0.626113 0.106964 0 0.631675 0.103197 0 0.637041 0.0996632 0 0.64205 0.0964005 0 0.646863 0.0934121 0 0.651362 0.0906376 0 0.655585 0.0880175 0 0.659787 0.0855503 0 0.664693 0.0833277 0 0.671641 0.081525 0 0.682845 0.0804056 0 0.700129 0.0800332 0 0.72 0.0800001 0 0.74 0.08 0 0.76 0.08 0 0.78 0.08 0 0.8 0.08 0 0.82 0.08 0 0.84 0.08 0 0.86 0.08 0 0.88 0.08 0 0.9 0.08 0 0.92 0.08 0 0.94 0.08 0 0.96 0.08 0 0.98 0.08 0 1 0.08 0 0 0.431799 0 0.0912409 0.424465 0 0.17296 0.400927 0 0.232758 0.371165 0 0.306065 0.332905 0 0.316292 0.316292 0 0.356873 0.318885 0 0.390106 0.282021 0 0.418881 0.280967 0 0.444868 0.259625 0 0.465575 0.249984 0 0.486289 0.234482 0 0.502043 0.223977 0 0.518492 0.212383 0 0.531315 0.202303 0 0.545143 0.192666 0 0.555816 0.183471 0 0.567492 0.174787 0 0.576526 0.166966 0 0.585926 0.159734 0 0.59379 0.153513 0 0.601863 0.147804 0 0.608798 0.142534 0 0.615598 0.137449 0 0.621914 0.132633 0 0.627807 0.128019 0 0.633374 0.123744 0 0.63865 0.119789 0 0.64365 0.116143 0 0.648372 0.11273 0 0.652747 0.109489 0 0.657178 0.106455 0 0.662444 0.103759 0 0.669986 0.101628 0 0.682088 0.100391 0 0.700069 0.100024 0 0.72 0.1 0 0.74 0.1 0 0.76 0.1 0 0.78 0.1 0 0.8 0.1 0 0.82 0.1 0 0.84 0.1 0 0.86 0.1 0 0.88 0.1 0 0.9 0.1 0 0.92 0.1 0 0.94 0.1 0 0.96 0.1 0 0.98 0.1 0 1 0.1 0 0 0.452875 0 0.081379 0.447714 0 0.154558 0.430134 0 0.220966 0.403514 0 0.25768 0.380594 0 0.318885 0.356873 0 0.340211 0.340211 0 0.372856 0.33434 0 0.399511 0.30366 0 0.425581 0.304051 0 0.450322 0.281885 0 0.469588 0.273935 0 0.489542 0.25823 0 0.504902 0.247958 0 0.521181 0.235922 0 0.534046 0.225481 0 0.547711 0.215211 0 0.558273 0.205886 0 0.569408 0.196981 0 0.578231 0.189231 0 0.587581 0.181962 0 0.595516 0.175456 0 0.603186 0.169099 0 0.610284 0.163233 0 0.616977 0.157565 0 0.62322 0.152286 0 0.629039 0.147329 0 0.634584 0.142755 0 0.639799 0.138473 0 0.64477 0.134449 0 0.649364 0.130616 0 0.654094 0.127064 0 0.659824 0.123958 0 0.668134 0.121587 0 0.681369 0.120331 0 0.700031 0.120014 0 0.72 0.12 0 0.74 0.12 0 0.76 0.12 0 0.78 0.12 0 0.8 0.12 0 0.82 0.12 0 0.84 0.12 0 0.86 0.12 0 0.88 0.12 0 0.9 0.12 0 0.92 0.12 0 0.94 0.12 0 0.96 0.12 0 0.98 0.12 0 1 0.12 0 0 0.470918 0 0.0728802 0.46842 0 0.143644 0.452565 0 0.20046 0.433196 0 0.25443 0.411034 0 0.282021 0.390106 0 0.33434 0.372856 0 0.35893 0.35893 0 0.386004 0.34975 0 0.409192 0.322988 0 0.432004 0.324138 0 0.455316 0.300534 0 0.473443 0.294273 0 0.492833 0.278157 0 0.507848 0.268147 0 0.523809 0.2559 0 0.536383 0.245699 0 0.549518 0.235236 0 0.559782 0.226156 0 0.570765 0.217249 0 0.579735 0.20951 0 0.588737 0.201805 0 0.596642 0.19486 0 0.604381 0.188096 0 0.611309 0.181806 0 0.618044 0.175893 0 0.624083 0.170358 0 0.629931 0.165184 0 0.635376 0.160311 0 0.640606 0.155708 0 0.645475 0.151344 0 0.650591 0.147343 0 0.656912 0.143917 0 0.666184 0.141417 0 0.680778 0.140243 0 0.700011 0.140006 0 0.72 0.14 0 0.74 0.14 0 0.76 0.14 0 0.78 0.14 0 0.8 0.14 0 0.82 0.14 0 0.84 0.14 0 0.86 0.14 0 0.88 0.14 0 0.9 0.14 0 0.92 0.14 0 0.94 0.14 0 0.96 0.14 0 0.98 0.14 0 1 0.14 0 0 0.489306 0 0.0675099 0.484544 0 0.130731 0.474064 0 0.188612 0.456253 0 0.233313 0.439086 0 0.280967 0.418881 0 0.30366 0.399511 0 0.34975 0.386004 0 0.374927 0.374927 0 0.39825 0.362927 0 0.419454 0.339995 0 0.439838 0.340314 0 0.461075 0.3162 0 0.478122 0.311318 0 0.496616 0.294917 0 0.511109 0.285497 0 0.526373 0.273117 0 0.538424 0.26342 0 0.551209 0.252984 0 0.561437 0.244303 0 0.572031 0.235175 0 0.580847 0.227274 0 0.589852 0.219384 0 0.597592 0.212164 0 0.605231 0.205216 0 0.612206 0.198806 0 0.61868 0.192692 0 0.624749 0.186981 0 0.630498 0.181565 0 0.635941 0.176457 0 0.641138 0.171637 0 0.646728 0.167279 0 0.653808 0.163637 0 0.664276 0.16115 0 0.680369 0.160148 0 0.700003 0.160002 0 0.72 0.16 0 0.74 0.16 0 0.76 0.16 0 0.78 0.16 0 0.8 0.16 0 0.82 0.16 0 0.84 0.16 0 0.86 0.16 0 0.88 0.16 0 0.9 0.16 0 0.92 0.16 0 0.94 0.16 0 0.96 0.16 0 0.98 0.16 0 1 0.16 0 0 0.502901 0 0.0618865 0.50136 0 0.121167 0.490413 0 0.173204 0.478348 0 0.22192 0.461199 0 0.259625 0.444868 0 0.304051 0.425581 0 0.322988 0.409192 0 0.362927 0.39825 0 0.388471 0.388471 0 0.409542 0.374228 0 0.429803 0.354864 0 0.449024 0.352914 0 0.467719 0.329724 0 0.483917 0.325411 0 0.501091 0.309065 0 0.514784 0.300406 0 0.529228 0.288069 0 0.540925 0.279117 0 0.553131 0.268565 0 0.562939 0.260075 0 0.573374 0.250949 0 0.582092 0.243067 0 0.590694 0.235043 0 0.598539 0.227839 0 0.605997 0.220812 0 0.612825 0.214285 0 0.619191 0.208051 0 0.625205 0.202209 0 0.63086 0.196661 0 0.636421 0.191494 0 0.642587 0.186872 0 0.650633 0.183141 0 0.662592 0.180833 0 0.68014 0.180071 0 0.700001 0.18 0 0.72 0.18 0 0.74 0.18 0 0.76 0.18 0 0.78 0.18 0 0.8 0.18 0 0.82 0.18 0 0.84 0.18 0 0.86 0.18 0 0.88 0.18 0 0.9 0.18 0 0.92 0.18 0 0.94 0.18 0 0.96 0.18 0 0.98 0.18 0 1 0.18 0 0 0.517564 0 0.057125 0.514122 0 0.111189 0.507527 0 0.16184 0.49525 0 0.206092 0.482887 0 0.249984 0.465575 0 0.281885 0.450322 0 0.324138 0.432004 0 0.339995 0.419454 0 0.374228 0.409542 0 0.39996 0.39996 0 0.419577 0.384176 0 0.439242 0.368119 0 0.457766 0.363276 0 0.474501 0.341978 0 0.489948 0.337562 0 0.505728 0.321507 0 0.518851 0.313625 0 0.532405 0.301267 0 0.543397 0.292763 0 0.555184 0.282254 0 0.564839 0.274099 0 0.57473 0.264956 0 0.583301 0.257188 0 0.591745 0.249256 0 0.599374 0.242041 0 0.606643 0.235026 0 0.613276 0.228476 0 0.619539 0.222236 0 0.625428 0.21636 0 0.631424 0.210916 0 0.638294 0.206148 0 0.647529 0.202476 0 0.661315 0.20052 0 0.680041 0.200025 0 0.7 0.2 0 0.72 0.2 0 0.74 0.2 0 0.76 0.2 0 0.78 0.2 0 0.8 0.2 0 0.82 0.2 0 0.84 0.2 0 0.86 0.2 0 0.88 0.2 0 0.9 0.2 0 0.92 0.2 0 0.94 0.2 0 0.96 0.2 0 0.98 0.2 0 1 0.2 0 0 0.529006 0 0.0524709 0.528276 0 0.103169 0.520855 0 0.150255 0.512738 0 0.195106 0.499455 0 0.234482 0.486289 0 0.273935 0.469588 0 0.300534 0.455316 0 0.340314 0.439838 0 0.354864 0.429803 0 0.384176 0.419577 0 0.409672 0.409672 0 0.428636 0.393394 0 0.447147 0.379899 0 0.46538 0.3726 0 0.480599 0.353307 0 0.495517 0.348546 0 0.510128 0
[...]
			<PointData Scalars="VitesseX">
				<DataArray Name="VitesseX" type="Float32" format="ascii">
 0 1.78077 0.490189 1.20382 1.10476 1.17248 1.21437 1.2622 1.2896 1.34743 1.36349 1.38816 1.46345 1.52834 1.5243 1.54327 1.62347 1.65897 1.72296 1.71472 1.70323 1.77174 1.84885 1.79076 1.83385 1.84822 1.87652 1.93231 1.94173 1.95031 1.97623 1.9559 1.83133 1.5108 0.888049 0.138651 0.000858156 2.23286e-08 2.47e-13 1.9476e-18 2.74886e-20 -5.60768e-20 5.60768e-20 0 0 -5.60768e-20 5.60768e-20 -5.60768e-20 5.60768e-20 0 0 0 0.16104 1.39767 0.684644 1.09316 1.09211 1.21876 1.22397 1.27465 1.35258 1.35334 1.38503 1.47428 1.52306 1.52459 1.55246 1.61026 1.67874 1.69896 1.71214 1.70826 1.7889 1.81641 1.80551 1.82672 1.85454 1.87283 1.93182 1.93978 1.94902 1.97588 1.95405 1.82685 1.5021 0.874614 0.132004 0.00077373 1.98913e-08 2.27322e-13 9.60089e-19 2.74886e-20 -5.60768e-20 5.60768e-20 0 0 -5.60768e-20 5.60768e-20 -5.60768e-20 5.60768e-20 0 0 0 0.770602 0.253911 1.14199 0.86954 1.01786 1.11712 1.19251 1.24319 1.3226 1.34655 1.38233 1.46226 1.52191 1.51755 1.53657 1.61588 1.66104 1.68869 1.68544 1.74094 1.78373 1.76815 1.82772 1.81915 1.86238 1.86808 1.9251 1.93617 1.94531 1.97527 1.94842 1.81336 1.47576 0.833879 0.113493 0.000565153 1.41235e-08 1.76814e-13 1.40765e-20 -1.42941e-20 -2.80384e-20 8.57645e-20 -5.77261e-20 0 2.96877e-20 -2.96877e-20 2.96877e-20 -2.96877e-20 0 0 0 0.623066 0.796604 0.32281 0.802374 0.935333 1.05133 1.11247 1.21087 1.28988 1.30749 1.37119 1.45121 1.4951 1.50297 1.53537 1.59069 1.65418 1.65503 1.69959 1.74719 1.75484 1.7434 1.83305 1.81678 1.86422 1.86903 1.90684 1.93221 1.9407 1.97361 1.93869 1.79072 1.4313 0.764817 0.0871381 0.000331061 8.08383e-09 1.15583e-13 -2.97657e-20 2.96877e-20 -5.77261e-20 5.77261e-20 0 0 -5.82759e-20 5.82759e-20 -5.82759e-20 5.82759e-20 0 0 0 0.274805 0.602075 0.833954 0.673634 0.888736 0.994639 1.08338 1.16011 1.24321 1.27945 1.34303 1.41683 1.45871 1.47169 1.51516 1.5735 1.60542 1.65514 1.69704 1.7282 1.71528 1.76017 1.80192 1.82295 1.85621 1.87473 1.88288 1.92489 1.93696 1.96811 1.92368 1.75839 1.36811 0.666882 0.058648 0.000153004 3.77502e-09 6.30039e-14 1.75484e-22 0 -5.77261e-20 0 5.77261e-20 0 -5.49773e-22 5.49773e-22 -1.16002e-19 1.16002e-19 0 0 0 0.236755 0.460728 0.580721 0.876949 0.966803 0.993444 1.02425 1.13116 1.18184 1.24723 1.32123 1.36999 1.4198 1.44952 1.49231 1.53344 1.59212 1.64378 1.69477 1.66417 1.71748 1.76722 1.77113 1.82598 1.84224 1.87671 1.86633 1.91052 1.93407 1.95698 1.90124 1.7139 1.28484 0.542436 0.0337307 5.4543e-05 1.44029e-09 2.83357e-14 5.77261e-20 -5.77261e-20 0 1.15452e-19 -1.15452e-19 0 1.15452e-19 -1.15452e-19 1.15452e-19 -1.15452e-19 0 0 0 0.212217 0.387427 0.592208 0.610348 0.834281 0.994277 1.04104 1.06601 1.14323 1.2109 1.28572 1.34523 1.38091 1.42404 1.46299 1.51755 1.57963 1.64255 1.63624 1.64982 1.7197 1.74694 1.76379 1.81559 1.82902 1.87047 1.8628 1.89214 1.93075 1.94053 1.86879 1.65169 1.17726 0.400437 0.0160639 1.45716e-05 4.40652e-10 1.03504e-14 -1.15452e-19 0 1.15452e-19 -1.15452e-19 1.15452e-19 0 -1.15452e-19 0 1.15452e-19 -1.15452e-19 0 0 0 0.172292 0.377737 0.499769 0.6727 0.672462 0.863225 1.02296 1.07953 1.08631 1.17977 1.2378 1.29942 1.35426 1.38289 1.43375 1.50369 1.56606 1.58366 1.60331 1.65326 1.70711 1.7113 1.77754 1.77777 1.82809 1.85243 1.87081 1.8755 1.92245 1.91953 1.82513 1.56498 1.03595 0.258717 0.00610927 2.83116e-06 1.04474e-10 2.98239e-15 -1.15452e-19 1.15452e-19 -1.15452e-19 0 1.15452e-19 0 -2.30905e-19 2.30905e-19 -2.30905e-19 2.30905e-19 0 0 0 0.163567 0.343238 0.49075 0.600806 0.749254 0.750156 0.920833 1.06743 1.10792 1.15031 1.19619 1.2675 1.3053 1.36728 1.4127 1.48156 1.51585 1.54031 1.59158 1.65853 1.65503 1.71831 1.75713 1.74809 1.81775 1.83553 1.8735 1.87044 1.90956 1.89105 1.76816 1.45101 0.849559 0.139999 0.00178014 3.98249e-07 1.87332e-11 6.26977e-16 1.15452e-19 2.30905e-19 -2.30905e-19 0 -1.15452e-19 2.30905e-19 -1.15452e-19 2.30905e-19 -4.61809e-19 4.61809e-19 -2.30905e-19 0 0 0.155618 0.330728 0.462313 0.579722 0.678009 0.809933 0.82478 0.984412 1.0914 1.13538 1.18588 1.24641 1.27548 1.34507 1.40977 1.43561 1.47472 1.5306 1.60114 1.60723 1.64338 1.70922 1.72523 1.738 1.79309 1.82668 1.86393 1.87675 1.89463 1.8485 1.68945 1.30979 0.620078 0.06045 0.000377564 4.46113e-08 2.63281e-12 1.12829e-16 1.15452e-19 -1.15452e-19 0 0 0 0 2.30905e-19 -2.30905e-19 0 0 0 0 0 0.146685 0.295518 0.433252 0.532961 0.663608 0.749873 0.897517 0.925189 1.02844 1.12215 1.16298 1.22714 1.28856 1.33573 1.36824 1.41985 1.4774 1.53936 1.56503 1.58392 1.64055 1.68627 1.69716 1.7458 1.76572 1.82153 1.84732 1.879 1.87438 1.79638 1.57891 1.1302 0.380035 0.0198209 5.45086e-05 4.84957e-09 3.30529e-13 4.11378e-17 2.30905e-19 -4.61809e-19 2.30905e-19 2.30905e-19 -2.30905e-19 0 0 0 2.30905e-19 -4.61809e-19 4.61809e-19 0 0 0.131523 0.285371 0.397084 0.534946 0.628072 0.761238 0.809725 0.957495 0.984865 1.07018 1.17531 1.17434 1.28419 1.33771 1.35259 1.42142 1.49386 1.51687 1.52601 1.58704 1.6393 1.64049 1.70818 1.72981 1.76685 1.80397 1.83886 1.87125 1.84342 1.73 1.43812 0.88866 0.18353 0.00468399 4.96766e-06 4.97725e-10 3.95285e-14 -2.72395e-21 0 0 0 2.30905e-19 -2.30905e-19 0 0 0 2.30905e-19 -2.30905e-19 0 0 0 0.131712 0.266717 0.40112 0.499989 0.63603 0.703773 0.837996 0.857989 1.00595 1.0356 1.09864 1.20577 1.2638 1.31239 1.37369 1.42342 1.4668 1.48612 1.52333 1.59002 1.59621 1.64428 1.69491 1.72087 1.76928 1.78526 1.83134 1.85149 1.79558 1.6294 1.26493 0.590441 0.0656316 0.000743757 2.83726e-07 3.77092e-11 3.80464e-15 4.61809e-19 -2.30905e-19 2.30905e-19 -2.30905e-19 -2.30905e-19 4.61809e-19 -2.30905e-19 2.30905e-19 -2.30905e-19 -2.30905e-19 6.91614e-19 -6.91614e-19 0 0 0.125279 0.259755 0.377227 0.493381 0.591822 0.710425 0.763039 0.900006 0.891107 1.0398 1.09634 1.16978 1.2636 1.25708 1.36088 1.43666 1.44738 1.46144 1.53186 1.55639 1.5823 1.64563 1.67635 1.71435 1.76322 1.77232 1.82683 1.81194 1.73123 1.48738 1.02615 0.304317 0.0163908 7.17718e-05 1.35091e-08 2.08285e-12 2.05312e-16 4.61809e-19 -2.30905e-19 0 2.30905e-19 -4.61809e-19 4.61809e-19 0 -2.30905e-19 0 -1.09955e-21 0 1.09955e-21 0 0 0.119609 0.244403 0.359296 0.465313 0.574819 0.664701 0.764866 0.817149 0.959803 0.949571 1.08016 1.146 1.17134 1.27849 1.32763 1.33855 1.41749 1.46649 1.51276 1.53366 1.59985 1.63412 1.65577 1.72661 1.72878 1.78125 1.80029 1.76447 1.62298 1.30941 0.699037 0.112284 0.00267389 3.77792e-06 7.34571e-10 1.15842e-13 1.03259e-17 0 0 0 2.30905e-19 0 -2.30905e-19 0 0 0 -1.09955e-21 -2.29805e-19 4.61809e-19 0 0 0.116747 0.231723 0.350411 0.448008 0.554778 0.641018 0.728512 0.828584 0.877967 0.994116 0.980334 1.11994 1.19469 1.22487 1.30728 1.33509 1.38204 1.45284 1.47243 1.53544 1.58291 1.60888 1.6689 1.69042 1.72896 1.76756 1.76279 1.6896 1.47132 1.05395 0.358084 0.0276911 0.000253898 1.13222e-07 3.03002e-11 6.23168e-15 -6.82438e-22 0 0 2.30905e-19 -4.61809e-19 4.61809e-19 -2.30905e-19 0 -2.30905e-19 4.61809e-19 -4.61809e-19 4.61809e-19 0 0 0 0.113476 0.229272 0.33811 0.438741 0.524442 0.626342 0.71561 0.804625 0.871942 0.907523 1.0472 1.04121 1.17429 1.1816 1.24865 1.33687 1.35307 1.38632 1.46443 1.52832 1.56105 1.60825 1.65361 1.67074 1.71817 1.73952 1.70196 1.56785 1.27489 0.690937 0.125234 0.00420027 1.22319e-05 3.41491e-09 9.06085e-13 1.95117e-16 6.91614e-19 -2.29805e-19 -4.61809e-19 4.61809e-19 -4.61809e-19 0 4.61809e-19 0 -4.61809e-19 4.61809e-19 0 -4.61809e-19 4.61809e-19 0 0 0.112451 0.219569 0.326796 0.414868 0.509799 0.607135 0.707486 0.767059 0.835427 0.923993 0.979136 1.08526 1.07555 1.15134 1.25032 1.28181 1.3303 1.35712 1.42653 1.49417 1.54645 1.60244 1.61418 1.66231 1.70027 1.6824 1.61166 1.39195 0.978242 0.322518 0.0273239 0.000349218 2.74498e-07 1.09075e-10 3.14359e-14 -1.07875e-17 6.91614e-19 -6.91614e-19 2.30905e-19 2.30905e-19 0 -4.61809e-19 0 4.61809e-19 0 0 -4.61809e-19 4.60709e-19 -4.60709e-19 0 0 0.105777 0.207449 0.304637 0.399632 0.495532 0.594122 0.669381 0.739494 0.816934 0.907677 0.969924 0.992655 1.09072 1.10661 1.18762 1.27001 1.30689 1.38602 1.39739 1.45049 1.53846 1.55446 1.60143 1.64675 1.648 1.61452 1.45225 1.1609 0.56893 0.0947164 0.0034649 1.27176e-05 5.30561e-09 2.18438e-12 8.33173e-16 0 -4.61809e-19 0 9.22518e-19 -9.22518e-19 0 4.61809e-19 -1.09955e-21 -4.60709e-19 4.61809e-19 -4.61809e-19 4.60709e-19 0 -4.60709e-19 0 0 0.0957303 0.195027 0.293902 0.390553 0.480362 0.559083 0.637779 0.728424 0.811669 0.872101 0.920668 0.991932 1.03669 1.13045 1.13174 1.21073 1.30661 1.36921 1.3766 1.44448 1.4786 1.53888 1.59168 1.60593 1.58499 1.48166 1.25406 0.788966 0.211607 0.0166582 0.000198777 2.03372e-07 1.16704e-10 4.99759e-14 -4.55692e-19 4.61809e-19 -1.09955e-21 1.09955e-21 -1.09955e-21 -4.60709e-19 0 4.61809e-19 -1.09955e-21 -4.60709e-19 4.61809e-19 -4.61809e-19 4.60709e-19 -4.60709e-19 4.61809e-19 0 0 0.0921492 0.192566 0.290191 0.373085 0.449863 0.533036 0.632605 0.716494 0.781147 0.832276 0.911753 0.974177 1.02617 1.0568 1.15232 1.20431 1.24284 1.3236 1.40476 1.41391 1.46006 1.53076 1.56134 1.55287 1.48491 1.28449 0.948673 0.349436 0.0486788 0.00131506 4.90983e-06 2.68175e-09 1.66852e-12 9.25469e-16 -4.61809e-19 0 4.60709e-19 1.09955e-21 -4.61809e-19 4.61809e-19 -4.61809e-19 4.61809e-19 -4.61809e-19 4.61809e-19 0 -4.61809e-19 0 4.61809e-19 0 0 0 0.0967895 0.189533 0.274912 0.354161 0.439294 0.536398 0.616652 0.687673 0.750434 0.831701 0.884914 0.942542 0.983981 1.07229 1.10691 1.18482 1.24206 1.28844 1.33919 1.40289 1.42941 1.47688 1.50211 1.46126 1.29725 1.04302 0.469883 0.1004 0.00472078 5.17819e-05 3.86749e-08 4.31897e-11 2.58726e-14 2.71602e-21 -4.61809e-19 4.60709e-19 -4.60709e-19 0 4.61809e-19 -4.61809e-19 4.60709e-19 1.09955e-21 -4.61809e-19 4.61809e-19 -4.61809e-19 4.60709e-19 1.09955e-21 -4.61809e-19 4.61809e-19 0 0 0.0910986 0.174806 0.261855 0.350706 0.438322 0.515937 0.594137 0.672736 0.752499 0.801119 0.857797 0.90834 0.995123 1.02913 1.09675 1.14891 1.2275 1.26444 1.29769 1.38694 1.39834 1.41316 1.39241 1.27459 1.07157 0.563037 0.158614 0.0111525 0.00027405 3.88107e-07 5.69699e-10 3.52999e-13 3.08097e-16 4.61809e-19 -4.61809e-19 9.22518e-19 -9.22518e-19 0 4.61809e-19 -4.61809e-19 9.22518e-19 -9.22518e-19 0 4.61809e-19 -4.61809e-19 9.22518e-19 -9.22518e-19 4.60709e-19 -4.60709e-19 0 0 0.085255 0.172538 0.261132 0.345103 0.420433 0.5008 0.585255 0.662187 0.717695 0.779963 0.835896 0.910731 0.94738 1.02431 1.06437 1.15085 1.17342 1.2352 1.30444 1.32621 1.36754 1.31501 1.21797 1.04105 0.60844 0.203536 0.0201957 0.000815361 2.24152e-06 4.17971e-09 3.2728e-12 5.26582e-15 -2.14582e-17 0 4.61809e-19 -4.61809e-19 4.60709e-19 1.09955e-21 -4.61809e-19 4.61809e-19 -4.61809e-19 4.60709e-19 1.09955e-21 -4.61809e-19 4.61809e-19 -4.61809e-19 4.60709e-19 0 -4.60709e-19 0 0 0.0842164 0.167173 0.249549 0.332168 0.41452 0.491072 0.561404 0.626767 0.698332 0.760619 0.82308 0.870111 0.947295 0.994536 1.06595 1.08361 1.18001 1.21324 1.24574 1.28211 1.24793 1.17012 0.984666 0.603818 0.220398 0.028252 0.00154992 8.17688e-06 1.92619e-08 1.95312e-11 4.16875e-14 -2.10487e-17 4.61809e-19 -4.61809e-19 4.61809e-19 -4.61809e-19 4.60709e-19 1.09955e-21 -4.61809e-19 4.61809e-19 -4.61809e-19 4.60709e-19 1.09955e-21 -4.61809e-19 4.61809e-19 -4.61809e-19 4.60709e-19 -4.60709e-19 4.61809e-19 0 0 0.0819885 0.164191 0.24493 0.324123 0.399818 0.473947 0.548306 0.621443 0.683799 0.743423 0.799732 0.869083 0.917697 0.980072 1.01578 1.10561 1.11929 1.19066 1.18087 1.15897 1.0784 0.917641 0.557485 0.211564 0.0312248 0.0020459 1.78273e-05 5.45582e-08 7.66266e-11 1.86789e-13 1.23426e-16 -9.23618e-19 9.23618e-19 0 0 0 -9.23618e-19 9.23618e-19 0 0 0 -9.23618e-19 9.23618e-19 0 0 0 -9.23618e-19 1.38433e-18 -9.22518e-19 0 0 0.0797543 0.15823 0.236541 0.313793 0.390014 0.46369 0.534653 0.600966 0.667527 0.729267 0.789173 0.838405 0.900036 0.95177 1.02314 1.04146 1.1064 1.07731 1.08672 0.963645 0.81753 0.464377 0.183403 0.0271165 0.00203318 2.36088e-05 9.0435e-08 1.7872e-10 5.0179e-13 6.58112e-16 -4.61809e-19 4.60709e-19 -4.60709e-19 4.61809e-19 0 -4.61809e-19 4.60709e-19 -4.60709e-19 4.61809e-19 0 -4.61809e-19 4.60709e-19 -4.60709e-19 4.61809e-19 0 -4.61809e-19 0 4.60709e-19 0 0 0 0.0779724 0.154752 0.229634 0.302268 0.374157 0.447273 0.520793 0.590408 0.652557 0.71168 0.769695 0.830409 0.885768 0.93785 0.964482 1.00682 0.98251 0.973872 0.843701 0.69819 0.349525 0.137194 0.0185721 0.00152898 1.77546e-05 9.02971e-08 2.4733e-10 8.23575e-13 1.58306e-15 -2.72325e-21 4.60709e-19 0 0 -4.60709e-19 0 4.60709e-19 0 0 -4.60709e-19 0 4.60709e-19 0 0 1.09955e-21 -4.61809e-19 0 9.22518e-19 -1.38433e-18 9.22518e-19 0 0 0.0751208 0.149 0.222182 0.295174 0.367272 0.4377 0.505655 0.570882 0.635438 0.6958 0.755987 0.806659 0.850788 0.88057 0.900008 0.876047 0.841151 0.7107 0.530809 0.241074 0.0857478 0.00997943 0.000802687 8.10587e-06 5.4354e-08 1.78076e-10 8.22258e-13 2.22101e-15 2.01457e-17 0 4.61259e-19 -4.61259e-19 9.22518e-19 -9.22518e-19 0 4.61259e-19 -4.61259e-19 4.61259e-19 -4.61259e-19 4.61259e-19 0 -4.61259e-19 4.61259e-19 5.49773e-22 -9.23068e-19 1.38433e-18 -4.61809e-19 -9.22518e-19 9.22518e-19 0 0 0.0726682 0.144693 0.216134 0.287459 0.358597 0.429553 0.497132 0.561326 0.619944 0.671916 0.718515 0.757381 0.780698 0.782749 0.751952 0.690155 0.542522 0.351344 0.143869 0.0411535 0.00424639 0.000270188 2.21135e-06 1.91481e-08 7.59974e-11 4.99979e-13 1.54276e-15 2.01462e-17 4.61259e-19 0 -4.61259e-19 4.61259e-19 -4.61809e-19 4.61809e-19 0 -4.61259e-19 -5.49773e-22 5.49773e-22 4.61259e-19 -5.49773e-22 0 5.49773e-22 -4.61259e-19 -5.49773e-22 4.61259e-19 0 -9.22518e-19 9.22518e-19 0 0 0 0.0713987 0.142474 0.213027 0.282516 0.350256 0.415888 0.477684 0.534481 0.583444 0.623543 0.651895 0.660825 0.649081 0.604037 0.507311 0.352372 0.192595 0.0667092 0.0142513 0.00121705 5.10736e-05 3.80908e-07 4.14741e-09 1.92417e-11 1.85719e-13 6.58118e-16 -9.26341e-19 9.23618e-19 0 0 -4.61809e-19 4.61809e-19 -4.61809e-19 4.61809e-19 -4.61809e-19 4.61809e-19 -1.09955e-21 1.09955e-21 -4.61809e-19 4.60709e-19 -9.21969e-19 1.38378e-18 -9.22518e-19 4.60709e-19 0 -9.22518e-19 9.22518e-19 9.22518e-19 -1.84504e-18 0 0 0.068678 0.136722 0.203228 0.267262 0.328094 0.38514 0.437106 0.481054 0.512203 0.527489 0.523815 0.491748 0.416723 0.305574 0.181691 0.0789245 0.0207713 0.00307553 0.000189174 4.8384e-06 3.76269e-08 5.63922e-10 3.20024e-12 4.13994e-14 1.23426e-16 -4.61809e-19 4.60709e-19 -4.60709e-19 4.61809e-19 -4.61809e-19 4.60709e-19 1.09955e-21 -4.61809e-19 4.61809e-19 -4.61809e-19 4.61809e-19 -1.09955e-21 1.09955e-21 -4.61809e-19 4.60709e-19 -9.21969e-19 9.21969e-19 0 0 -9.22518e-19 9.22518e-19 0 0 0 0 0 0.0622249 0.123251 0.181661 0.235914 0.284495 0.325794 0.35813 0.378571 0.380762 0.355183 0.298537 0.220949 0.137913 0.0642529 0.0196897 0.00350777 0.000323952 1.23231e-05 1.98319e-07 2.5993e-09 4.25447e-11 3.43128e-13 5.265e-15 -2.10487e-17 0 4.60709e-19 0 -4.60709e-19 4.61809e-19 -4.61809e-19 9.22518e-19 -9.22518e-19 0 4.61809e-19 0 -4.61809e-19 4.60709e-19 -4.60709e-19 4.61809e-19 -9.23618e-19 1.84504e-18 -1.84504e-18 9.22518e-19 0 0 0 0 -9.22518e-19 9.22518e-19 0 0 0.0489466 0.0959493 0.138973 0.175854 0.203993 0.219929 0.219814 0.202094 0.169618 0.127132 0.0790997 0.0364957 0.0112911 0.00217349 0.000229633 1.1696e-05 2.64321e-07 5.07966e-09 1.13514e-10 1.61929e-12 2.52135e-14 3.5009e-16 -2.05346e-17 -4.61809e-19 0 4.60709e-19 0 1.09955e-21 -4.61809e-19 4.61809e-19 -4.61809e-19 0 9.22518e-19 -9.22518e-19 4.61809e-19 -9.23618e-19 1.38433e-18 -4.61809e-19 -4.60709e-19 4.60709e-19 0 -9.22518e-19 9.22518e-19 0 0 0 0 -9.22518e-19 9.22518e-19 0 0 0.0259084 0.0491351 0.0672825 0.0786208 0.0823688 0.0783886 0.0666593 0.048152 0.0274246 0.0114265 0.0032817 0.000604458 6.43738e-05 3.55877e-06 1.06662e-07 3.20271e-09 1.04864e-10 2.08795e-12 4.8125e-14 9.25463e-16 2.71602e-21 -4.61809e-19 0 4.61809e-19 0 -4.61809e-19 4.60709e-19 1.09955e-21 -4.61809e-19 4.61809e-19 -4.61809e-19 4.61809e-19 -1.09955e-21 -4.60709e-19 0 4.60709e-19 -4.60709e-19 4.60709e-19 0 0 0 0 0 -9.22518e-19 9.22518e-19 0 -9.22518e-19 9.22518e-19 0 0 0 0.00615762 0.0110093 0.0135027 0.0131571 0.0103839 0.00651144 0.00313331 0.00111164 0.000276634 4.50547e-05 4.42524e-06 2.58175e-07 1.21025e-08 6.75929e-10 2.85609e-11 8.45312e-13 2.97489e-14 8.33161e-16 -4.55142e-19 4.61259e-19 -4.61259e-19 4.61259e-19 -4.61809e-19 4.61809e-19 0 0 -9.23068e-19 9.23068e-19 0 -4.61259e-19 4.61259e-19 0 -4.61809e-19 5.49773e-22 4.60709e-19 0 0 -9.22518e-19 9.22518e-19 0 0 0 -9.22518e-19 9.22518e-19 0 0 -9.22518e-19 1.84504e-18 -1.84504e-18 0 0 8.37591e-05 0.000123306 0.000109364 6.78728e-05 3.02846e-05 9.61641e-06 2.1145e-06 3.17799e-07 3.58396e-08 3.9261e-09 4.26317e-10 3.377e-11 1.86359e-12 1.0381e-13 5.82033e-15 2.15768e-16 -9.86386e-18 0 -4.61259e-19 -5.49773e-22 4.61259e-19 5.49773e-22 -4.61809e-19 4.61809e-19 0 -4.61809e-19 4.61259e-19 -4.61259e-19 4.61809e-19 -4.61259e-19 4.61259e-19 -4.61809e-19 0 4.61259e-19 0 0 0 0 -9.22518e-19 9.22518e-19 -9.22518e-19 9.22518e-19 0 0 0 -9.21969e-19 9.21969e-19 0 0 0 0 2.43732e-09 3.33045e-09 2.70927e-09 1.59962e-09 7.35172e-10 2.64505e-10 7.16875e-11 1.40577e-11 2.04366e-12 2.58773e-13 3.23097e-14 3.41375e-15 1.85583e-16 9.86547e-18 4.61127e-19 -2.32004e-19 2.32004e-19 -4.61809e-19 9.22518e-19 -1.38433e-18 1.38433e-18 -9.22518e-19 4.60709e-19 -4.60709e-19 0 4.60709e-19 0 -4.60709e-19 0 9.22518e-19 -9.22518e-19 4.60709e-19 -4.60709e-19 4.60709e-19 0 0 -9.22518e-19 9.22518e-19 9.22518e-19 -1.84504e-18 0 9.22518e-19 9.22518e-19 -1.84504e-18 9.22518e-19 -9.21969e-19 1.84449e-18 -1.84504e-18 9.22518e-19 0 0 1.96801e-14 3.08302e-14 3.04005e-14 2.2179e-14 1.2489e-14 5.49646e-15 1.87159e-15 4.83368e-16 3.10103e-17 4.06815e-17 4.59088e-19 -4.61809e-19 4.61809e-19 -4.61809e-19 4.61809e-19 2.29805e-19 -6.91614e-19 0 9.22518e-19 -9.22518e-19 0 0 9.22518e-19 -9.22518e-19 0 4.60709e-19 0 -4.60709e-19 0 9.22518e-19 -9.22518e-19 4.60709e-19 4.61809e-19 -1.38433e-18 9.22518e-19 0 -9.22518e-19 9.22518e-19 9.22518e-19 -1.84504e-18 9.22518e-19 0 -9.21969e-19 9.21969e-19 -9.22518e-19 1.84504e-18 -9.22518e-19 -9.22518e-19 9.22518e-19 0 0 1.31665e-18 -1.40047e-20 2.92588e-20 1.75484e-22 -5.77261e-20 1.15452e-19 -1.15452e-19 -1.15452e-19 3.46357e-19 -2.30905e-19 0 2.30905e-19 -2.30905e-19 0 0 0 -2.30905e-19 9.22518e-19 -9.22518e-19 4.61809e-19 -4.61809e-19 4.61809e-19 -4.61809e-19 4.61809e-19 0 -4.61809e-19 4.60709e-19 -4.60709e-19 4.61809e-19 -4.61809e-19 4.61809e-19 -4.61809e-19 4.60709e-19 0 -9.22518e-19 9.22518e-19 9.22518e-19 -9.22518e-19 -9.22518e-19 9.22518e-19 0 0 -9.21969e-19 9.21969e-19 0 0 -9.22518e-19 9.22518e-19 0 0 0 0 -1.42941e-20 2.96877e-20 0 -5.77261e-20 0 1.15452e-19 0 -1.15452e-19 0 0 2.30905e-19 -4.61809e-19 4.61809e-19 -2.30905e-19 0 2.30905e-19 -1.09955e-21 -4.60709e-19 4.61809e-19 -4.61809e-19 4.61809e-19 -4.61809e-19 4.61809e-19 0 0 -9.23618e-19 1.38433e-18 -9.22518e-19 4.60709e-19 -4.60709e-19 0 4.60709e-19 0 0 -9.22518e-19 1.84504e-18 -1.84504e-18 9.22518e-19 0 0 -9.22518e-19 9.22518e-19 0 0 0 -9.22518e-19 1.84504e-18 -1.84504e-18 0 0 0 -2.80384e-20 5.77261e-20 -5.77261e-20 0 1.15452e-19 -1.14902e-19 2.30355e-19 -4.61259e-19 2.30355e-19 5.49773e-22 2.30355e-19 -2.30905e-19 2.30905e-19 -4.61259e-19 4.61259e-19 0 -9.23068e-19 9.23068e-19 -4.61259e-19 4.60709e-19 5.49773e-22 -4.61259e-19 4.61259e-19 0 -4.61259e-19 4.60709e-19 0 0 -9.21969e-19 9.21969e-19 0 0 0 0 -9.22518e-19 0 9.22518e-19 0 0 -9.21969e-19 9.21969e-19 0 0 0 -9.21969e-19 9.21969e-19 0 0 0 0 0 2.96877e-20 -5.77261e-20 0 1.15452e-19 -1.15452e-19 5.49773e-22 -5.49773e-22 5.49773e-22 2.30355e-19 -2.30355e-19 -2.31454e-19 4.61809e-19 0 -4.61259e-19 -5.49773e-22 4.61809e-19 -4.61259e-19 4.61259e-19 -4.61259e-19 9.22518e-19 -9.23068e-19 4.61259e-19 -4.61259e-19 0 4.61259e-19 0 -4.60709e-19 9.22518e-19 -1.38378e-18 9.21969e-19 0 -9.22518e-19 1.84504e-18 -1.84504e-18 9.22518e-19 -9.22518e-19 1.84504e-18 -1.84504e-18 9.22518e-19 -9.21969e-19 9.21969e-19 9.22518e-19 -1.84504e-18 9.22518e-19 -9.21969e-19 1.84449e-18 -1.84504e-18 9.22518e-19 0 0 0 1.64932e-21 0 -5.77261e-20 1.15452e-19 -1.15452e-19 1.15452e-19 -3.46357e-19 4.61809e-19 -2.30905