<?xml version="1.0"?>
<VTKFile type="PolyData">
	<PolyData>
		<Piece NumberOfPoints="2601" NumberOfPolys="2500">
			<Points>
				<DataArray type="Float32" NumberOfComponents="3" format="ascii">
 0 0 0 0.469232 0 0 0.306917 0 0 0.426399 0 0 0.425504 0 0 0.455578 0 0 0.477024 0 0 0.496581 0 0 0.515565 0 0 0.529802 0 0 0.545356 0 0 0.557262 0 0 0.570764 0 0 0.581409 0 0 0.593737 0 0 0.602928 0 0 0.613549 0 0 0.621154 0 0 0.630291 0 0 0.637498 0 0 0.645439 0 0 0.652118 0 0 0.658732 0 0 0.664751 0 0 0.67106 0 0 0.676402 0 0 0.681717 0 0 0.686644 0 0 0.691461 0 0 0.69612 0 0 0.700519 0 0 0.704742 0 0 0.708719 0 0 0.712434 0 0 0.716349 0 0 0.721304 0 0 0.728898 0 0 0.741557 0 0 0.760031 0 0 0.78 0 0 0.8 0 0 0.82 0 0 0.84 0 0 0.86 0 0 0.88 0 0 0.9 0 0 0.92 0 0 0.94 0 0 0.96 0 0 0.98 0 0 1 0 0 0 0.469232 0 0.171118 0.171118 0 0.414756 0.192386 0 0.351679 0.167654 0 0.422796 0.107786 0 0.446723 0.0961541 0 0.471947 0.0856717 0 0.493278 0.0763967 0 0.510545 0.0708677 0 0.528202 0.0649556 0 0.54155 0.0600111 0 0.556641 0.0551036 0 0.56824 0.0511405 0 0.581194 0.0478721 0 0.591398 0.0452352 0 0.603075 0.0430178 0 0.611378 0.0408174 0 0.621183 0.0387985 0 0.62863 0.036874 0 0.637277 0.035148 0 0.644322 0.0336103 0 0.651698 0.0322536 0 0.657994 0.0310529 0 0.664366 0.0299403 0 0.670419 0.0288607 0 0.675935 0.0277918 0 0.681242 0.0268064 0 0.686243 0.0258956 0 0.691063 0.0250672 0 0.695758 0.0243134 0 0.700176 0.0236168 0 0.704408 0.0229564 0 0.708401 0.0223206 0 0.712139 0.0217097 0 0.716082 0.0211409 0 0.72108 0.020642 0 0.728742 0.02026 0 0.741501 0.0200553 0 0.760029 0.0200022 0 0.78 0.02 0 0.8 0.02 0 0.82 0.02 0 0.84 0.02 0 0.86 0.02 0 0.88 0.02 0 0.9 0.02 0 0.92 0.02 0 0.94 0.02 0 0.96 0.02 0 0.98 0.02 0 1 0.02 0 0 0.306917 0 0.192386 0.414756 0 0.198969 0.198969 0 0.369825 0.259625 0 0.378036 0.213707 0 0.421633 0.182185 0 0.452387 0.162221 0 0.476745 0.151286 0 0.499165 0.137567 0 0.516604 0.127644 0 0.53494 0.117197 0 0.548948 0.108901 0 0.563935 0.10124 0 0.575542 0.0951048 0 0.588456 0.0900995 0 0.598136 0.0854802 0 0.609126 0.0813178 0 0.617138 0.0771588 0 0.626721 0.0733814 0 0.634324 0.0699436 0 0.642544 0.0668927 0 0.649379 0.0642268 0 0.656384 0.0618183 0 0.66276 0.0596287 0 0.668795 0.0574668 0 0.674451 0.0554 0 0.679902 0.053456 0 0.685027 0.051667 0 0.689904 0.0500302 0 0.694671 0.0485417 0 0.699147 0.0471539 0 0.703411 0.0458335 0 0.707465 0.0445658 0 0.711263 0.0433507 0 0.71529 0.0422227 0 0.720415 0.0412387 0 0.728285 0.0404917 0 0.741339 0.0401009 0 0.760023 0.0400036 0 0.78 0.04 0 0.8 0.04 0 0.82 0.04 0 0.84 0.04 0 0.86 0.04 0 0.88 0.04 0 0.9 0.04 0 0.92 0.04 0 0.94 0.04 0 0.96 0.04 0 0.98 0.04 0 1 0.04 0 0 0.426399 0 0.167654 0.351679 0 0.259625 0.369825 0 0.227999 0.227999 0 0.332973 0.298191 0 0.390149 0.24451 0 0.424647 0.232727 0 0.455801 0.210475 0 0.480609 0.198447 0 0.503873 0.182295 0 0.521946 0.170521 0 0.540565 0.158271 0 0.554536 0.14894 0 0.569356 0.140519 0 0.580801 0.133415 0 0.593361 0.127041 0 0.602635 0.120608 0 0.613373 0.114684 0 0.621691 0.10903 0 0.631153 0.10399 0 0.638631 0.0995816 0 0.646435 0.0956891 0 0.653328 0.0922754 0 0.660136 0.0889738 0 0.666101 0.085773 0 0.672122 0.0827257 0 0.677676 0.079863 0 0.683046 0.0772215 0 0.68801 0.0748104 0 0.692874 0.0726059 0 0.697444 0.0705388 0 0.701773 0.0685623 0 0.705927 0.0666686 0 0.709829 0.0648602 0 0.713992 0.0631928 0 0.71933 0.0617501 0 0.72755 0.0606713 0 0.7411 0.0601292 0 0.760016 0.0600037 0 0.78 0.06 0 0.8 0.06 0 0.82 0.06 0 0.84 0.06 0 0.86 0.06 0 0.88 0.06 0 0.9 0.06 0 0.92 0.06 0 0.94 0.06 0 0.96 0.06 0 0.98 0.06 0 1 0.06 0 0 0.425504 0 0.107786 0.422796 0 0.213707 0.378036 0 0.298191 0.332973 0 0.285032 0.285032 0 0.351066 0.32397 0 0.400694 0.270076 0 0.433096 0.26807 0 0.462302 0.245178 0 0.486137 0.233528 0 0.509029 0.217014 0 0.526462 0.205712 0 0.544314 0.193469 0 0.557979 0.184104 0 0.572642 0.175047 0 0.583977 0.166482 0 0.59643 0.158457 0 0.605954 0.150636 0 0.616795 0.143517 0 0.625292 0.137136 0 0.634322 0.131481 0 0.641839 0.126637 0 0.649498 0.122107 0 0.656106 0.117812 0 0.66266 0.11362 0 0.668811 0.109656 0 0.674683 0.10591 0 0.680251 0.102484 0 0.685428 0.0993368 0 0.690375 0.0964368 0 0.695097 0.0936974 0 0.69952 0.0910689 0 0.703812 0.0885632 0 0.707859 0.0861852 0 0.712216 0.0840084 0 0.71786 0.082145 0 0.726581 0.0807818 0 0.740821 0.0801362 0 0.760009 0.0800029 0 0.78 0.08 0 0.8 0.08 0 0.82 0.08 0 0.84 0.08 0 0.86 0.08 0 0.88 0.08 0 0.9 0.08 0 0.92 0.08 0 0.94 0.08 0 0.96 0.08 0 0.98 0.08 0 1 0.08 0 0 0.455578 0 0.0961541 0.446723 0 0.182185 0.421633 0 0.24451 0.390149 0 0.32397 0.351066 0 0.335918 0.335918 0 0.377246 0.335428 0 0.410897 0.295665 0 0.441647 0.29612 0 0.468754 0.273241 0 0.490907 0.263332 0 0.51263 0.247039 0 0.529321 0.236559 0 0.546996 0.224161 0 0.560709 0.214014 0 0.575352 0.203851 0 0.586761 0.19408 0 0.59929 0.185038 0 0.608984 0.176715 0 0.619516 0.169232 0 0.627919 0.162753 0 0.636764 0.156768 0 0.644118 0.151269 0 0.651443 0.145896 0 0.658279 0.140874 0 0.664747 0.136012 0 0.670906 0.131528 0 0.676699 0.127364 0 0.682145 0.123541 0 0.687223 0.11995 0 0.692127 0.116554 0 0.696698 0.113291 0 0.701146 0.110199 0 0.705378 0.107284 0 0.709993 0.104638 0 0.716047 0.102401 0 0.725433 0.100815 0 0.740547 0.100123 0 0.760004 0.100002 0 0.78 0.1 0 0.8 0.1 0 0.82 0.1 0 0.84 0.1 0 0.86 0.1 0 0.88 0.1 0 0.9 0.1 0 0.92 0.1 0 0.94 0.1 0 0.96 0.1 0 0.98 0.1 0 1 0.1 0 0 0.477024 0 0.0856717 0.471947 0 0.162221 0.452387 0 0.232727 0.424647 0 0.270076 0.400694 0 0.335428 0.377246 0 0.360562 0.360562 0 0.394126 0.351501 0 0.42102 0.31873 0 0.448812 0.320668 0 0.474578 0.296895 0 0.495305 0.288948 0 0.516389 0.272305 0 0.532653 0.26221 0 0.550097 0.24923 0 0.563748 0.238522 0 0.578211 0.227765 0 0.589549 0.217846 0 0.601711 0.208682 0 0.611281 0.20055 0 0.621568 0.192971 0 0.629868 0.186165 0 0.638263 0.179457 0 0.645785 0.173298 0 0.653262 0.167345 0 0.659916 0.161784 0 0.666457 0.156599 0 0.672429 0.151791 0 0.678176 0.147305 0 0.683474 0.143059 0 0.688572 0.139023 0 0.693353 0.135171 0 0.697953 0.131532 0 0.702411 0.128125 0 0.707357 0.125054 0 0.713947 0.122501 0 0.724187 0.120773 0 0.740318 0.120094 0 0.760002 0.120001 0 0.78 0.12 0 0.8 0.12 0 0.82 0.12 0 0.84 0.12 0 0.86 0.12 0 0.88 0.12 0 0.9 0.12 0 0.92 0.12 0 0.94 0.12 0 0.96 0.12 0 0.98 0.12 0 1 0.12 0 0 0.496581 0 0.0763967 0.493278 0 0.151286 0.476745 0 0.210475 0.455801 0 0.26807 0.433096 0 0.295665 0.410897 0 0.351501 0.394126 0 0.379607 0.379607 0 0.407887 0.367938 0 0.431294 0.339502 0 0.455471 0.342138 0 0.480021 0.316749 0 0.499587 0.310945 0 0.520148 0.293543 0 0.535914 0.283733 0 0.552915 0.270501 0 0.566244 0.259867 0 0.580332 0.249094 0 0.591532 0.239529 0 0.603513 0.230342 0 0.61301 0.222197 0 0.622867 0.214088 0 0.631167 0.206827 0 0.639717 0.1997 0 0.647226 0.19312 0 0.65456 0.186851 0 0.661266 0.181079 0 0.66759 0.175621 0 0.673557 0.170514 0 0.679198 0.165654 0 0.684483 0.161038 0 0.689516 0.156662 0 0.694271 0.152528 0 0.698992 0.148677 0 0.704354 0.145235 0 0.711634 0.142434 0 0.722948 0.140665 0 0.740156 0.14006 0 0.76 0.14 0 0.78 0.14 0 0.8 0.14 0 0.82 0.14 0 0.84 0.14 0 0.86 0.14 0 0.88 0.14 0 0.9 0.14 0 0.92 0.14 0 0.94 0.14 0 0.96 0.14 0 0.98 0.14 0 1 0.14 0 0 0.515565 0 0.0708677 0.510545 0 0.137567 0.499165 0 0.198447 0.480609 0 0.245178 0.462302 0 0.29612 0.441647 0 0.31873 0.42102 0 0.367938 0.407887 0 0.396257 0.396257 0 0.420781 0.382325 0 0.442381 0.358176 0 0.463974 0.359647 0 0.486288 0.333445 0 0.504633 0.329377 0 0.524274 0.311331 0 0.539402 0.302146 0 0.555749 0.28892 0 0.568736 0.278775 0 0.582486 0.26806 0 0.593465 0.258861 0 0.604975 0.249353 0 0.614302 0.2411 0 0.624196 0.232772 0 0.632521 0.225292 0 0.640839 0.217914 0 0.648412 0.211212 0 0.655568 0.20476 0 0.662178 0.198757 0 0.668461 0.193043 0 0.674408 0.18767 0 0.679946 0.182554 0 0.685198 0.177726 0 0.690148 0.173151 0 0.695178 0.168911 0 0.701049 0.165157 0 0.709198 0.162201 0 0.721843 0.160513 0 0.740063 0.16003 0 0.76 0.16 0 0.78 0.16 0 0.8 0.16 0 0.82 0.16 0 0.84 0.16 0 0.86 0.16 0 0.88 0.16 0 0.9 0.16 0 0.92 0.16 0 0.94 0.16 0 0.96 0.16 0 0.98 0.16 0 1 0.16 0 0 0.529802 0 0.0649556 0.528202 0 0.127644 0.516604 0 0.182295 0.503873 0 0.233528 0.486137 0 0.273241 0.468754 0 0.320668 0.448812 0 0.339502 0.431294 0 0.382325 0.420781 0 0.410643 0.410643 0 0.432578 0.394878 0 0.45387 0.374632 0 0.473946 0.373112 0 0.493518 0.347909 0 0.510929 0.344544 0 0.529224 0.326388 0 0.543614 0.318056 0 0.559131 0.304992 0 0.571661 0.295502 0 0.584759 0.28461 0 0.595288 0.27568 0 0.606631 0.266093 0 0.615944 0.257947 0 0.62543 0.249434 0 0.633761 0.241934 0 0.64196 0.234496 0 0.64934 0.227644 0 0.656382 0.22106 0 0.662931 0.21491 0 0.669184 0.209082 0 0.674992 0.203572 0 0.680449 0.198331 0 0.685635 0.193371 0 0.691044 0.188792 0 0.697545 0.184814 0 0.706761 0.18183 0 0.720988 0.180344 0 0.74002 0.180012 0 0.76 0.18 0 0.78 0.18 0 0.8 0.18 0 0.82 0.18 0 0.84 0.18 0 0.86 0.18 0 0.88 0.18 0 0.9 0.18 0 0.92 0.18 0 0.94 0.18 0 0.96 0.18 0 0.98 0.18 0 1 0.18 0 0 0.545356 0 0.0600111 0.54155 0 0.117197 0.53494 0 0.170521 0.521946 0 0.217014 0.509029 0 0.263332 0.490907 0 0.296895 0.474578 0 0.342138 0.455471 0 0.358176 0.442381 0 0.394878 0.432578 0 0.422821 0.422821 0 0.443078 0.405804 0 0.464099 0.388986 0 0.483639 0.384146 0 0.500883 0.360987 0 0.517657 0.357599 0 0.53452 0.339739 0 0.548258 0.332103 0 0.562819 0.319082 0 0.574689 0.310122 0 0.587352 0.299207 0 0.597684 0.290685 0 0.608472 0.280987 0 0.61757 0.272947 0 0.626898 0.264513 0 0.635001 0.256992 0 0.642983 0.249566 0 0.650153 0.242693 0 0.657096 0.236126 0 0.663546 0.229961 0 0.669662 0.22408 0 0.675325 0.218473 0 0.680799 0.213159 0 0.686674 0.208316 0 0.693973 0.204226 0 0.704487 0.20138 0 0.720436 0.200191 0 0.740005 0.200003 0 0.76 0.2 0 0.78 0.2 0 0.8 0.2 0 0.82 0.2 0 0.84 0.2 0 0.86 0.2 0 0.88 0.2 0 0.9 0.2 0 0.92 0.2 0 0.94 0.2 0 0.96 0.2 0 0.98 0.2 0 1 0.2 0 0 0.557262 0 0.0551036 0.556641 0 0.108901 0.548948 0 0.158271 0.540565 0 0.205712 0.526462 0 0.247039 0.51263 0 0.288948 0.49530
[...]
			<PointData Scalars="VitesseX">
				<DataArray Name="VitesseX" type="Float32" format="ascii">
 0 1.72346 0.407928 1.10958 0.969739 1.04879 1.09863 1.14867 1.17973 1.24008 1.2536 1.2722 1.33537 1.3534 1.35648 1.4274 1.48537 1.49725 1.50758 1.52811 1.56783 1.62858 1.66298 1.62533 1.65866 1.70635 1.73921 1.72409 1.75737 1.76142 1.77278 1.80728 1.83748 1.84469 1.78004 1.58133 1.13975 0.413513 0.015912 6.51243e-06 7.12906e-11 7.61475e-16 6.49962e-20 0 0 -6.49962e-20 6.49962e-20 -6.49962e-20 6.49962e-20 0 0 0 0.121698 1.34641 0.58196 0.983371 0.98498 1.10274 1.11663 1.17649 1.23225 1.22957 1.28556 1.33401 1.34757 1.36603 1.42678 1.4806 1.50741 1.49088 1.53823 1.56223 1.63429 1.64497 1.63064 1.67009 1.6957 1.73591 1.7264 1.75378 1.76253 1.77285 1.80789 1.83628 1.84279 1.77716 1.57618 1.13094 0.402517 0.0148589 5.75746e-06 6.48482e-11 7.01774e-16 6.49962e-20 0 0 -6.49962e-20 6.49962e-20 -6.49962e-20 6.49962e-20 0 0 0 0.743604 0.20215 1.10027 0.768397 0.923503 1.0154 1.08084 1.13248 1.19804 1.21975 1.26725 1.32981 1.34243 1.3541 1.42406 1.47915 1.48741 1.49168 1.52216 1.5838 1.61529 1.61518 1.64125 1.68897 1.67379 1.72635 1.73002 1.74705 1.765 1.77313 1.8082 1.83377 1.83683 1.76859 1.56051 1.10429 0.370286 0.0120579 3.97244e-06 4.86535e-11 5.49587e-16 9.9406e-20 -6.69079e-20 0 3.44098e-20 -3.44098e-20 3.44098e-20 -3.44098e-20 0 0 0 0.596749 0.755829 0.241433 0.727267 0.849847 0.962568 1.01386 1.10602 1.15509 1.18693 1.26547 1.30052 1.32116 1.34992 1.41234 1.46074 1.47985 1.46967 1.53095 1.57324 1.59653 1.59306 1.66639 1.67344 1.67039 1.70397 1.73416 1.7397 1.76895 1.77368 1.8062 1.82931 1.82819 1.75402 1.53334 1.05888 0.319346 0.00841634 2.1314e-06 2.98701e-11 3.59467e-16 6.69079e-20 0 0 -6.75451e-20 6.75451e-20 -6.75451e-20 6.75451e-20 0 0 0 0.248093 0.540926 0.778099 0.631291 0.804817 0.904253 1.00672 1.05816 1.12222 1.16555 1.23498 1.2769 1.29308 1.33285 1.39564 1.4355 1.45135 1.47686 1.51266 1.55683 1.56076 1.62151 1.65537 1.65005 1.67662 1.67966 1.73323 1.73311 1.77167 1.77701 1.79939 1.82357 1.81771 1.73246 1.49254 0.992541 0.254592 0.0049686 8.87037e-07 1.48842e-11 1.71998e-16 0 6.69079e-20 0 -6.37218e-22 6.37218e-22 -1.34453e-19 1.34453e-19 0 0 0 0.224651 0.40732 0.527104 0.811447 0.894226 0.935495 0.952816 1.03686 1.06887 1.14674 1.19871 1.22944 1.27478 1.31438 1.36986 1.4094 1.43911 1.46347 1.50217 1.51055 1.56847 1.6271 1.62089 1.64213 1.67494 1.66785 1.72303 1.73012 1.76708 1.78358 1.78907 1.81755 1.80405 1.70272 1.43529 0.90145 0.183774 0.00242499 2.88267e-07 6.01127e-12 6.67276e-17 1.33816e-19 -1.33816e-19 0 1.33816e-19 -1.33816e-19 1.33816e-19 -1.33816e-19 0 0 0 0.200029 0.350054 0.525543 0.553105 0.752581 0.927279 0.968091 0.970172 1.0544 1.10703 1.16105 1.19967 1.24306 1.30091 1.34378 1.38836 1.41975 1.4486 1.46023 1.50814 1.57238 1.60657 1.5864 1.64512 1.65364 1.67468 1.70456 1.73028 1.75247 1.78801 1.78146 1.8097 1.7857 1.66394 1.35942 0.781095 0.116836 0.000951333 7.55574e-08 1.99562e-12 2.57815e-17 -1.33816e-19 1.33816e-19 0 -1.33816e-19 0 1.33816e-19 -1.33816e-19 0 0 0 0.162205 0.341227 0.444564 0.612473 0.629307 0.765952 0.944092 0.993692 1.00978 1.06364 1.10211 1.17623 1.22285 1.26576 1.3227 1.36072 1.38989 1.40837 1.4463 1.50716 1.5621 1.55538 1.59029 1.62061 1.63379 1.67745 1.6919 1.72243 1.74009 1.7808 1.7824 1.7982 1.76033 1.6141 1.2642 0.630182 0.0632463 0.000290045 1.71003e-08 5.62876e-13 -1.32361e-19 0 1.33816e-19 0 -2.67632e-19 2.67632e-19 -2.67632e-19 2.67632e-19 0 0 0 0.158025 0.303847 0.448859 0.533768 0.686487 0.677574 0.81658 0.958044 1.01525 1.03732 1.07814 1.13162 1.19751 1.24901 1.28496 1.3368 1.35135 1.38374 1.445 1.50461 1.50232 1.5423 1.58448 1.59283 1.62134 1.66922 1.68636 1.70639 1.733 1.76274 1.7853 1.7852 1.72661 1.548 1.14736 0.457575 0.028057 6.5955e-05 3.52365e-09 1.38929e-13 -2.67628e-19 0 -1.33816e-19 2.67632e-19 -1.33816e-19 2.67632e-19 -5.35263e-19 5.35263e-19 -2.67632e-19 0 0 0.145152 0.292598 0.408118 0.522592 0.600693 0.757176 0.750811 0.858139 0.996276 1.04875 1.08404 1.12983 1.15247 1.22659 1.27399 1.29435 1.33583 1.3858 1.44151 1.45483 1.48306 1.53437 1.56918 1.57187 1.62347 1.64966 1.68591 1.6861 1.72624 1.74532 1.78289 1.77158 1.68537 1.45928 0.999568 0.28657 0.00979124 1.0656e-05 6.28489e-10 2.94053e-14 -7.25944e-22 0 0 0 2.67632e-19 -2.67632e-19 0 0 0 0 0 0.13037 0.26627 0.379921 0.488316 0.602158 0.681521 0.821693 0.809275 0.924628 1.03734 1.06214 1.1349 1.15665 1.19468 1.24884 1.28634 1.33138 1.3856 1.40409 1.42506 1.48552 1.53235 1.53321 1.58562 1.60541 1.64639 1.67513 1.67532 1.71484 1.73619 1.77355 1.74871 1.63391 1.34649 0.807185 0.147497 0.00257058 1.18138e-06 8.67423e-11 4.91061e-15 2.67632e-19 2.67632e-19 -2.67632e-19 0 0 0 2.67632e-19 -5.35263e-19 5.35263e-19 0 0 0.120569 0.253911 0.363684 0.47895 0.575631 0.671129 0.723571 0.869394 0.881072 0.975171 1.06796 1.08918 1.15675 1.20527 1.20701 1.28635 1.34052 1.34798 1.37563 1.43573 1.49292 1.49679 1.54089 1.57744 1.5927 1.64466 1.65633 1.67627 1.69841 1.73197 1.75844 1.71124 1.55987 1.20882 0.572629 0.0593235 0.000480191 9.63083e-08 8.89123e-12 5.54716e-16 0 2.67632e-19 -2.67632e-19 0 0 0 2.67632e-19 -2.67632e-19 0 0 0 0.118493 0.234926 0.355076 0.447332 0.560878 0.63112 0.740257 0.777364 0.916753 0.942518 1.01457 1.08422 1.1189 1.17369 1.22957 1.26788 1.30768 1.33278 1.37975 1.45034 1.46594 1.48737 1.54162 1.56114 1.58264 1.6342 1.63668 1.68256 1.6828 1.72885 1.73289 1.66125 1.45134 1.02936 0.334323 0.017742 5.92785e-05 7.56971e-09 7.77003e-13 3.10288e-17 -2.67632e-19 -2.67632e-19 5.35263e-19 -2.67632e-19 2.67632e-19 -2.67632e-19 -2.67632e-19 8.0162e-19 -8.0162e-19 0 0 0.108315 0.227733 0.323186 0.443799 0.521604 0.63459 0.690562 0.808348 0.822244 0.939789 0.985189 1.04373 1.13022 1.11009 1.22396 1.27123 1.28281 1.33383 1.39802 1.43278 1.44343 1.49406 1.52782 1.53547 1.5917 1.59663 1.63907 1.66763 1.68528 1.71927 1.69491 1.58918 1.31069 0.782688 0.150066 0.00374066 4.47127e-06 6.14713e-10 6.93044e-14 2.91131e-21 2.67632e-19 -5.35263e-19 5.35263e-19 0 -2.67632e-19 0 -1.27444e-21 0 1.27444e-21 0 0 0.107044 0.212157 0.320816 0.417524 0.526987 0.591381 0.703422 0.741043 0.859864 0.869249 0.972865 1.01683 1.04607 1.13996 1.19105 1.23037 1.27718 1.32424 1.3945 1.41133 1.45001 1.4861 1.49671 1.54484 1.56459 1.58774 1.63138 1.65125 1.68901 1.69817 1.64459 1.47846 1.13103 0.487796 0.0485805 0.000514218 2.0961e-07 3.76802e-11 5.36338e-15 0 2.67632e-19 0 -2.67632e-19 0 0 0 -1.27444e-21 -2.66357e-19 5.35263e-19 0 0 0.106092 0.210644 0.31485 0.413858 0.504691 0.590302 0.656263 0.759545 0.779925 0.897847 0.893779 0.994972 1.06802 1.10572 1.17924 1.19444 1.28471 1.33083 1.35621 1.393 1.44437 1.45322 1.48903 1.53361 1.54565 1.58642 1.61754 1.64283 1.68623 1.66167 1.57466 1.33253 0.876435 0.22791 0.0106684 4.12495e-05 8.88073e-09 1.722e-12 2.77406e-16 2.67632e-19 -5.35263e-19 5.35263e-19 -2.67632e-19 0 -2.67632e-19 5.35263e-19 -5.35263e-19 5.35263e-19 0 0 0 0.103452 0.207594 0.303353 0.3985 0.48352 0.566839 0.64593 0.711322 0.794889 0.808998 0.94028 0.942147 1.02983 1.09425 1.11153 1.20395 1.23691 1.27819 1.33321 1.3831 1.41204 1.44038 1.48776 1.50495 1.53838 1.58592 1.59106 1.64928 1.65248 1.61448 1.45834 1.1482 0.548038 0.0737116 0.0014706 1.739e-06 4.3091e-10 8.48716e-14 -1.08019e-17 5.35263e-19 -5.35263e-19 0 5.35263e-19 0 -5.35263e-19 5.35263e-19 0 -5.35263e-19 5.35263e-19 0 0 0.100094 0.194317 0.289713 0.372348 0.465897 0.541416 0.621551 0.683282 0.749829 0.841215 0.86219 0.96542 0.963928 1.04247 1.16603 1.14903 1.21325 1.25497 1.29804 1.34824 1.3645 1.42406 1.45492 1.48498 1.53836 1.55113 1.59991 1.62568 1.6145 1.5262 1.30494 0.871566 0.246976 0.0154268 0.000110919 4.50435e-08 1.47498e-11 3.90356e-15 2.66909e-19 2.67632e-19 0 -5.35263e-19 0 5.35263e-19 0 0 -5.35263e-19 5.33989e-19 -5.33989e-19 0 0 0.0922268 0.183186 0.268749 0.35904 0.441007 0.525535 0.587361 0.665356 0.741461 0.809202 0.866583 0.874382 0.995452 1.00535 1.10444 1.1641 1.18307 1.2535 1.28687 1.30961 1.36331 1.38728 1.42553 1.48572 1.51299 1.54712 1.58738 1.59191 1.54677 1.39409 1.09315 0.509407 0.073259 0.00188662 4.00802e-06 1.37838e-09 4.13566e-13 1.23281e-16 1.06925e-18 -1.06925e-18 0 5.35263e-19 -1.27444e-21 -5.33989e-19 5.35263e-19 -5.35263e-19 5.33989e-19 0 -5.33989e-19 0 0 0.0883354 0.175519 0.26281 0.346937 0.427263 0.497503 0.576772 0.6543 0.736246 0.777963 0.821011 0.901555 0.93301 1.04173 1.05058 1.11451 1.18055 1.23462 1.2546 1.29089 1.3464 1.35769 1.41903 1.46776 1.49239 1.54457 1.56051 1.53918 1.44146 1.21632 0.766027 0.201663 0.0129386 0.000118237 7.18311e-08 3.63897e-11 1.33982e-14 -1.6394e-21 -1.27444e-21 -5.33989e-19 0 5.35263e-19 -1.27444e-21 -5.33989e-19 5.35263e-19 -5.35263e-19 5.33989e-19 -5.33989e-19 5.35263e-19 0 0 0.0859733 0.174312 0.255894 0.334326 0.407884 0.488204 0.57443 0.649308 0.6991 0.75282 0.81721 0.884193 0.946984 0.9595 1.05133 1.0997 1.13159 1.18782 1.23562 1.29575 1.3082 1.3664 1.40562 1.43139 1.49606 1.52058 1.51988 1.4543 1.28253 0.952803 0.382588 0.0476058 0.00126028 2.95795e-06 1.53176e-09 6.62822e-13 3.08665e-16 1.27444e-21 -5.35263e-19 5.35263e-19 -5.35263e-19 5.35263e-19 -5.35263e-19 5.35263e-19 0 -5.35263e-19 0 5.35263e-19 0 0 0 0.0858001 0.170812 0.244164 0.319585 0.4034 0.490897 0.563027 0.618732 0.674036 0.746527 0.81045 0.856425 0.898553 0.972615 0.998967 1.07945 1.1031 1.15914 1.20738 1.24091 1.30692 1.34741 1.36813 1.42555 1.47177 1.48574 1.44044 1.32115 1.06077 0.569137 0.113758 0.0065568 4.86966e-05 3.85024e-08 2.7126e-11 1.5454e-14 -5.36903e-19 0 5.35263e-19 -5.35263e-19 5.33989e-19 1.27444e-21 -5.35263e-19 5.35263e-19 -5.35263e-19 5.33989e-19 1.27444e-21 -5.35263e-19 5.35263e-19 0 0 0.0805918 0.158273 0.236345 0.319612 0.404884 0.475019 0.536708 0.597917 0.672318 0.727836 0.779228 0.826485 0.894883 0.939135 0.987974 1.02057 1.09546 1.13852 1.16628 1.22458 1.27061 1.31067 1.36977 1.40352 1.42705 1.41353 1.32872 1.10808 0.724514 0.200884 0.0208543 0.000348594 8.02941e-07 5.68436e-10 3.75962e-13 2.47571e-16 -1.06925e-18 0 5.35263e-19 -5.35263e-19 1.06925e-18 -1.06925e-18 0 5.35263e-19 -5.35263e-19 1.06925e-18 -1.06925e-18 5.33989e-19 -5.33989e-19 0 0 0.0754595 0.1546 0.239155 0.316403 0.38217 0.450796 0.520718 0.593007 0.647655 0.704385 0.755548 0.826589 0.865551 0.916041 0.95402 1.03003 1.0477 1.10493 1.17195 1.21285 1.23248 1.30488 1.33709 1.36459 1.35846 1.29604 1.12623 0.822328 0.287507 0.0463186 0.00136403 9.18317e-06 6.07399e-09 7.2302e-12 5.54895e-15 2.00069e-17 5.33989e-19 1.27444e-21 -5.35263e-19 5.35263e-19 -5.35263e-19 5.33989e-19 1.27444e-21 -5.35263e-19 5.35263e-19 -5.35263e-19 5.33989e-19 0 -5.33989e-19 0 0 0.0779087 0.155236 0.230034 0.29936 0.370509 0.442306 0.510507 0.565879 0.627652 0.68675 0.751216 0.789182 0.847681 0.890716 0.95712 0.979512 1.04411 1.08811 1.14301 1.18809 1.22981 1.28284 1.31819 1.29533 1.24288 1.10496 0.853573 0.359448 0.0765019 0.00353599 5.38281e-05 4.54148e-08 9.28169e-11 6.50627e-14 5.2224e-19 -5.35263e-19 5.33989e-19 1.27444e-21 -5.35263e-19 5.35263e-19 -5.35263e-19 5.33989e-19 1.27444e-21 -5.35263e-19 5.35263e-19 -5.35263e-19 5.33989e-19 -5.33989e-19 5.35263e-19 0 0 0.0756592 0.14732 0.218483 0.292015 0.361006 0.426069 0.488354 0.554244 0.615806 0.673833 0.718015 0.779246 0.8268 0.884399 0.907425 0.983162 1.01514 1.0806 1.11176 1.16866 1.22639 1.23533 1.25617 1.2125 1.05899 0.837457 0.393991 0.100463 0.00685037 0.000169974 2.49627e-07 6.52791e-10 4.53794e-13 8.01456e-16 0 0 -1.07053e-18 1.07053e-18 0 0 0 -1.07053e-18 1.07053e-18 0 0 0 -1.07053e-18 1.60452e-18 -1.06925e-18 0 0 0.0714843 0.141993 0.211725 0.279401 0.346604 0.413949 0.481487 0.544133 0.602894 0.656674 0.716234 0.761209 0.810266 0.846062 0.916572 0.947846 1.01384 1.03699 1.11839 1.14888 1.16568 1.18677 1.12974 1.0275 0.817204 0.387958 0.110167 0.00968431 0.000333241 9.46693e-07 2.52472e-09 2.3221e-12 6.61656e-15 5.35263e-19 0 -5.35263e-19 5.33989e-19 -5.33989e-19 5.35263e-19 0 -5.35263e-19 5.33989e-19 -5.33989e-19 5.35263e-19 0 -5.35263e-19 0 5.33989e-19 0 0 0 0.0685246 0.1364 0.204641 0.274116 0.341893 0.406595 0.468159 0.530138 0.588994 0.645081 0.690589 0.740805 0.789036 0.848861 0.881608 0.941526 0.975452 1.05934 1.05919 1.1161 1.09911 1.05041 0.952263 0.746216 0.36666 0.108573 0.0102152 0.000438001 2.0135e-06 5.97538e-09 8.81233e-12 2.72083e-14 8.70681e-21 -5.33989e-19 0 5.33989e-19 0 0 -5.33989e-19 0 5.33989e-19 0 0 1.27444e-21 -5.35263e-19 0 1.06925e-18 -1.60452e-18 1.06925e-18 0 0 0.066825 0.132717 0.198429 0.264568 0.331623 0.397402 0.459177 0.515308 0.568777 0.621054 0.677188 0.729965 0.779523 0.818613 0.876126 0.919074 0.983895 0.988817 1.0465 0.997124 0.983131 0.848004 0.653419 0.30472 0.0934179 0.0094521 0.000437349 2.31791e-06 8.63029e-09 1.93314e-11 6.58243e-14 4.04833e-17 1.06925e-18 -1.06925e-18 0 5.34626e-19 -5.34626e-19 5.34626e-19 -5.34626e-19 5.34626e-19 0 -5.34626e-19 5.34626e-19 6.37218e-22 -1.06989e-18 1.60452e-18 -5.35263e-19 -1.06925e-18 1.06925e-18 0 0 0.0648209 0.129928 0.195548 0.261668 0.326778 0.388263 0.446769 0.503417 0.558041 0.612134 0.661393 0.710008 0.758581 0.812317 0.857861 0.902387 0.922319 0.95519 0.909013 0.885893 0.726081 0.543181 0.22287 0.0686244 0.00649553 0.000330989 2.00816e-06 8.62388e-09 2.25067e-11 9.43277e-14 1.43263e-16 5.34626e-19 -5.35263e-19 5.35263e-19 0 -5.34626e-19 -6.37218e-22 6.37218e-22 5.34626e-19 -6.37218e-22 0 6.37218e-22 -5.34626e-19 -6.37218e-22 5.34626e-19 0 -1.06925e-18 1.06925e-18 0 0 0 0.0637879 0.127591 0.191689 0.256059 0.319911 0.381345 0.439098 0.492111 0.544171 0.597101 0.650183 0.700938 0.750218 0.786746 0.822133 0.842999 0.852626 0.813053 0.763174 0.595622 0.399461 0.146032 0.0413376 0.00328868 0.000168522 9.39788e-07 5.95432e-09 1.92741e-11 9.44509e-14 8.21846e-17 -5.35263e-19 5.35263e-19 -5.35263e-19 5.35263e-19 -5.35263e-19 5.35263e-19 -1.27444e-21 1.27444e-21 -5.35263e-19 5.33989e-19 -1.06861e-18 1.60388e-18 -1.06925e-18 5.33989e-19 0 -1.06925e-18 1.06925e-18 1.06925e-18 -2.1385e-18 0 0 0.0634464 0.126537 0.189245 0.250909 0.310667 0.368301 0.425203 0.480878 0.5352 0.587575 0.635805 0.677967 0.712805 0.740078 0.749122 0.739786 0.697457 0.615813 0.441168 0.253001 0.0827489 0.0186083 0.00127046 5.34111e-05 2.4589e-07 2.51178e-09 8.73522e-12 6.56177e-14 1.44333e-16 -5.35263e-19 5.33989e-19 1.27444e-21 -5.35263e-19 5.35263e-19 -5.35263e-19 5.35263e-19 -1.27444e-21 1.27444e-21 -5.35263e-19 5.33989e-19 -1.06861e-18 1.06861e-18 0 0 -1.06925e-18 1.06925e-18 0 0 0 0 0 0.0625198 0.124337 0.184954 0.244583 0.303169 0.360056 0.414604 0.466078 0.515263 0.559306 0.597025 0.626879 0.644142 0.640738 0.616523 0.553922 0.439081 0.277148 0.131621 0.0361796 0.00591354 0.000331327 9.10466e-06 4.42977e-08 6.49084e-10 2.281e-12 2.71263e-14 4.04839e-17 5.35263e-19 -5.35263e-19 1.06925e-18 -1.06925e-18 0 5.35263e-19 0 -5.35263e-19 5.33989e-19 -5.33989e-19 5.35263e-19 -1.07053e-18 2.1385e-18 -2.1385e-18 1.06925e-18 0 0 0 0 -1.06925e-18 1.06925e-18 0 0 0.0604188 0.119944 0.177921 0.23473 0.289823 0.342522 0.391609 0.436272 0.47519 0.505533 0.523191 0.527014 0.512503 0.466904 0.376765 0.257866 0.137125 0.0504526 0.0105211 0.00116519 4.71525e-05 7.9207e-07 5.90346e-09 9.20494e-11 4.42162e-13 6.61761e-15 8.70681e-21 1.27444e-21 -5.35263e-19 5.35263e-19 -5.35263e-19 0 1.06925e-18 -1.06925e-18 5.35263e-19 -1.07053e-18 1.60452e-18 -5.35263e-19 -5.33989e-19 5.33989e-19 0 -1.06925e-18 1.06925e-18 0 0 0 0 -1.06925e-18 1.06925e-18 0 0 0.0560244 0.110945 0.164118 0.21514 0.263476 0.308017 0.3467 0.376771 0.396031 0.402106 0.389792 0.350554 0.282915 0.198503 0.113624 0.0460577 0.0117745 0.00165161 0.000112408 2.88477e-06 3.74326e-08 5.54834e-10 7.11282e-12 6.34608e-14 8.01456e-16 -5.35263e-19 5.33989e-19 1.27444e-21 -5.35263e-19 5.35263e-19 -5.35263e-19 5.35263e-19 -1.27444e-21 -5.33989e-19 0 5.33989e-19 -5.33989e-19 5.33989e-19 0 0 0 0 0 -1.06925e-18 1.06925e-18 0 -1.06925e-18 1.06925e-18 0 0 0 0.0476192 0.0937829 0.137296 0.177163 0.212313 0.241213 0.261031 0.267067 0.254188 0.221592 0.175435 0.1233 0.070642 0.0291526 0.00781861 0.0012506 0.000102986 3.86943e-06 6.88909e-08 1.47952e-09 2.64152e-11 3.65277e-13 5.58899e-15 5.22236e-19 0 0 -1.06989e-18 1.06989e-18 0 -5.34626e-19 5.34626e-19 0 -5.35263e-19 6.37218e-22 5.33989e-19 0 0 -1.06925e-18 1.06925e-18 0 0 0 -1.06925e-18 1.06925e-18 0 0 -1.06925e-18 2.1385e-18 -2.1385e-18 0 0 0.0324503 0.0629246 0.0894769 0.110119 0.122865 0.126211 0.119949 0.105144 0.0830469 0.0556771 0.0290656 0.0108924 0.00275577 0.000433468 3.78405e-05 1.65223e-06 4.23858e-08 1.30767e-09 3.512e-11 6.32983e-13 1.50021e-14 2.05418e-16 2.00068e-17 5.35263e-19 0 -5.35263e-19 5.34626e-19 -5.34626e-19 5.35263e-19 -5.34626e-19 5.34626e-19 -5.35263e-19 0 5.34626e-19 0 0 0 0 -1.06925e-18 1.06925e-18 -1.06925e-18 1.06925e-18 0 0 0 -1.06861e-18 1.06861e-18 0 0 0 0 0.011718 0.0220489 0.029777 0.0339298 0.0337962 0.0291905 0.0211284 0.0122086 0.00535131 0.00169709 0.000368313 5.0675e-05 4.06893e-06 1.92745e-07 8.05072e-09 4.02366e-10 1.39562e-11 3.87632e-13 1.2783e-14 3.06532e-16 1.6016e-18 -1.06925e-18 5.33989e-19 -5.33989e-19 0 5.33989e-19 0 -5.33989e-19 0 1.06925e-18 -1.06925e-18 5.33989e-19 -5.33989e-19 5.33989e-19 0 0 -1.06925e-18 1.06925e-18 1.06925e-18 -2.1385e-18 0 1.06925e-18 1.06925e-18 -2.1385e-18 1.06925e-18 -1.06861e-18 2.13787e-18 -2.1385e-18 1.06925e-18 0 0 0.00101495 0.00169034 0.00184125 0.00152054 0.000974669 0.000479496 0.000176395 4.67317e-05 8.4668e-06 1.00271e-06 8.2339e-08 6.41364e-09 5.42753e-10 3.44079e-11 1.56042e-12 7.72895e-14 3.65699e-15 1.23287e-16 1.06634e-18 -1.06925e-18 0 0 1.06925e-18 -1.06925e-18 0 5.33989e-19 0 -5.33989e-19 0 1.06925e-18 -1.06925e-18 5.33989e-19 5.35263e-19 -1.60452e-18 1.06925e-18 0 -1.06925e-18 1.06925e-18 1.06925e-18 -2.1385e-18 1.06925e-18 0 -1.06861e-18 1.06861e-18 -1.06925e-18 2.1385e-18 -1.06925e-18 -1.06925e-18 1.06925e-18 0 0 7.54519e-07 1.02952e-06 8.10708e-07 4.33275e-07 1.65392e-07 4.73044e-08 1.11534e-08 2.42397e-09 4.71402e-10 7.03931e-11 7.46667e-12 6.48607e-13 5.9153e-14 4.78804e-15 2.97938e-16 -1.02652e-17 -2.68354e-19 1.06925e-18 -1.06925e-18 5.35263e-19 -5.35263e-19 5.35263e-19 -5.35263e-19 5.35263e-19 0 -5.35263e-19 5.33989e-19 -5.33989e-19 5.35263e-19 -5.35263e-19 5.35263e-19 -5.35263e-19 5.33989e-19 0 -1.06925e-18 1.06925e-18 1.06925e-18 -1.06925e-18 -1.06925e-18 1.06925e-18 0 0 -1.06861e-18 1.06861e-18 0 0 -1.06925e-18 1.06925e-18 0 0 0 6.44246e-12 9.7526e-12 9.03114e-12 5.95515e-12 2.91799e-12 1.09774e-12 3.35055e-13 8.88924e-14 2.0631e-14 3.86323e-15 4.932e-16 3.1023e-17 -5.32352e-19 5.35263e-19 -2.67632e-19 0 2.67632e-19 -1.27444e-21 -5.33989e-19 5.35263e-19 -5.35263e-19 5.35263e-19 -5.35263e-19 5.35263e-19 0 0 -1.07053e-18 1.60452e-18 -1.06925e-18 5.33989e-19 -5.33989e-19 0 5.33989e-19 0 0 -1.06925e-18 2.1385e-18 -2.1385e-18 1.06925e-18 0 0 -1.06925e-18 1.06925e-18 0 0 0 -1.06925e-18 2.1385e-18 -2.1385e-18 0 0 5.97012e-17 9.24862e-17 9.76332e-17 8.98363e-17 1.54337e-17 2.578e-17 -1.33176e-19 2.68446e-19 -5.35348e-19 2.66994e-19 6.37218e-22 2.66994e-19 -2.67632e-19 2.67632e-19 -5.34626e-19 5.34626e-19 0 -1.06989e-18 1.06989e-18 -5.34626e-19 5.33989e-19 6.37218e-22 -5.34626e-19 5.34626e-19 0 -5.34626e-19 5.33989e-19 0 0 -1.06861e-18 1.06861e-18 0 0 0 0 -1.06925e-18 0 1.06925e-18 0 0 -1.06861e-18 1.06861e-18 0 0 0 -1.06861e-18 1.06861e-18 0 0 0 0 0 3.44098e-20 -6.69079e-20 0 1.33816e-19 -1.33816e-19 6.37218e-22 -6.37218e-22 6.37218e-22 2.66994e-19 -2.66994e-19 -2.68269e-19 5.35263e-19 0 -5.34626e-19 -6.37218e-22 5.35263e-19 -5.34626e-19 5.34626e-19 -5.34626e-19 1.06925e-18 -1.06989e-18 5.34626e-19 -5.34626e-19 0 5.34626e-19 0 -5.33989e-19 1.06925e-18 -1.60388e-18 1.06861e-18 0 -1.06925e-18 2.1385e-18 -2.1385e-18 1.06925e-18 -1.06925e-18 2.1385e-18 -2.1385e-18 1.06925e-18 -1.06861e-18 1.06861e-18 1.06925e-18 -2.1385e-18 1.06925e-18 -1.06861e-18 2.13787e-18 -2.1385e-18 1.06925e-18 0 0 0 1.91165e-21 0 -6.69079e-20 1.33816e-19 -1.33816e-19 1.33816e-19 -4.01447e-19 5.35263e-19 -2.67632e-19 2.67632e-19 -5.35263e-19 5.35263e-19 -2.67632e-19 2.67632e-19 -5.35263e-19 0 1.06925e-18 -1.06925e-18 5.35263e-19 -5.35263e-19 0 1.06925e-18 -1.06925e-18 0 5.33989e-19 0 -5.