<?xml version="1.0"?>
<VTKFile type="PolyData">
	<PolyData>
		<Piece NumberOfPoints="2601" NumberOfPolys="2500">
			<Points>
				<DataArray type="Float32" NumberOfComponents="3" format="ascii">
 0 0 0 0.537196 0 0 0.325118 0 0 0.468769 0 0 0.461226 0 0 0.495174 0 0 0.516963 0 0 0.539341 0 0 0.559543 0 0 0.576099 0 0 0.593504 0 0 0.606402 0 0 0.621906 0 0 0.633668 0 0 0.64695 0 0 0.657094 0 0 0.668636 0 0 0.677258 0 0 0.687522 0 0 0.69518 0 0 0.704602 0 0 0.712006 0 0 0.720205 0 0 0.726971 0 0 0.733904 0 0 0.74006 0 0 0.746479 0 0 0.752578 0 0 0.758064 0 0 0.763377 0 0 0.768496 0 0 0.773344 0 0 0.778053 0 0 0.782447 0 0 0.786681 0 0 0.790745 0 0 0.794638 0 0 0.798377 0 0 0.802138 0 0 0.80654 0 0 0.812859 0 0 0.823358 0 0 0.840172 0 0 0.86 0 0 0.88 0 0 0.9 0 0 0.92 0 0 0.94 0 0 0.96 0 0 0.98 0 0 1 0 0 0 0.537196 0 0.175862 0.175862 0 0.45831 0.225987 0 0.371153 0.200291 0 0.459291 0.116813 0 0.483504 0.10493 0 0.512599 0.0927898 0 0.53532 0.0822898 0 0.555047 0.0767946 0 0.574093 0.0701853 0 0.589311 0.0649327 0 0.606224 0.0597487 0 0.618706 0.0555848 0 0.633399 0.0521711 0 0.644475 0.0496299 0 0.656868 0.0472505 0 0.666417 0.0448935 0 0.677423 0.0426853 0 0.685481 0.0404735 0 0.695407 0.0385698 0 0.703003 0.0368566 0 0.711973 0.0354234 0 0.719087 0.03413 0 0.726658 0.0328676 0 0.733148 0.0316504 0 0.739764 0.0305053 0 0.745985 0.0294757 0 0.752074 0.0284936 0 0.757622 0.0275946 0 0.762979 0.0267908 0 0.768122 0.0260514 0 0.772979 0.0253417 0 0.777705 0.0246536 0 0.782125 0.0239857 0 0.786377 0.0233479 0 0.790465 0.0227455 0 0.794374 0.0221803 0 0.798128 0.0216491 0 0.801906 0.0211508 0 0.806335 0.0206991 0 0.812701 0.0203276 0 0.823276 0.0200905 0 0.840163 0.0200083 0 0.86 0.02 0 0.88 0.02 0 0.9 0.02 0 0.92 0.02 0 0.94 0.02 0 0.96 0.02 0 0.98 0.02 0 1 0.02 0 0 0.325118 0 0.225987 0.45831 0 0.206968 0.206968 0 0.419726 0.291535 0 0.407167 0.233998 0 0.457136 0.19664 0 0.490367 0.174328 0 0.518155 0.163165 0 0.542017 0.147738 0 0.562002 0.137634 0 0.581908 0.126528 0 0.597084 0.117738 0 0.614103 0.109794 0 0.626747 0.103736 0 0.640795 0.0984488 0 0.651587 0.0938496 0 0.663729 0.0893807 0 0.67293 0.0847712 0 0.683667 0.0806012 0 0.69178 0.0766599 0 0.701555 0.0733826 0 0.709211 0.0705261 0 0.717648 0.0679538 0 0.72449 0.0655306 0 0.73166 0.0631262 0 0.738237 0.0608845 0 0.744706 0.0587754 0 0.750545 0.0568356 0 0.756396 0.0550819 0 0.761779 0.0534959 0 0.767021 0.0520187 0 0.771901 0.0505969 0 0.776672 0.0492185 0 0.78117 0.047886 0 0.785475 0.0466176 0 0.789629 0.0454242 0 0.793584 0.0443048 0 0.797382 0.0432512 0 0.801213 0.0422615 0 0.805724 0.0413652 0 0.812232 0.0406315 0 0.823038 0.04017 0 0.840139 0.0400145 0 0.86 0.04 0 0.88 0.04 0 0.9 0.04 0 0.92 0.04 0 0.94 0.04 0 0.96 0.04 0 0.98 0.04 0 1 0.04 0 0 0.468769 0 0.200291 0.371153 0 0.291535 0.419726 0 0.2359 0.2359 0 0.359917 0.328755 0 0.42371 0.262081 0 0.461922 0.25083 0 0.494738 0.226131 0 0.522613 0.214359 0 0.547517 0.196692 0 0.56778 0.184448 0 0.588036 0.171734 0 0.603343 0.162127 0 0.619918 0.153206 0 0.632257 0.146145 0 0.646002 0.139129 0 0.656741 0.132333 0 0.668815 0.125904 0 0.677946 0.119518 0 0.688733 0.114058 0 0.697029 0.109189 0 0.706543 0.105061 0 0.713993 0.101345 0 0.721869 0.0977358 0 0.728763 0.0943147 0 0.735888 0.0909861 0 0.742233 0.0878638 0 0.748351 0.084974 0 0.754305 0.0824087 0 0.759867 0.0800404 0 0.76517 0.0778272 0 0.770165 0.0756847 0 0.774977 0.0736128 0 0.779607 0.0716253 0 0.783998 0.0697428 0 0.788247 0.0679788 0 0.79228 0.0663239 0 0.796143 0.0647618 0 0.800062 0.0632929 0 0.804714 0.0619658 0 0.811467 0.0608886 0 0.822665 0.060229 0 0.840106 0.0600172 0 0.86 0.06 0 0.88 0.06 0 0.9 0.06 0 0.92 0.06 0 0.94 0.06 0 0.96 0.06 0 0.98 0.06 0 1 0.06 0 0 0.461226 0 0.116813 0.459291 0 0.233998 0.407167 0 0.328755 0.359917 0 0.309212 0.309212 0 0.381956 0.355519 0 0.435473 0.289619 0 0.47224 0.289396 0 0.502428 0.264221 0 0.528899 0.252981 0 0.553145 0.235218 0 0.572565 0.223421 0 0.592182 0.21082 0 0.60697 0.201374 0 0.623226 0.191406 0 0.635855 0.182697 0 0.649811 0.173856 0 0.660697 0.165229 0 0.672845 0.157497 0 0.682197 0.150321 0 0.692873 0.144338 0 0.701097 0.139047 0 0.710063 0.134134 0 0.717424 0.129514 0 0.725307 0.124958 0 0.732219 0.120649 0 0.738974 0.116537 0 0.745319 0.112841 0 0.751454 0.109461 0 0.757175 0.106346 0 0.762629 0.103383 0 0.767774 0.100523 0 0.772679 0.0977607 0 0.777453 0.0951412 0 0.781975 0.0926711 0 0.786331 0.0903635 0 0.790473 0.0881949 0 0.794422 0.0861396 0 0.798464 0.0842069 0 0.80332 0.0824694 0 0.810431 0.0810781 0 0.822194 0.0802606 0 0.840071 0.0800162 0 0.86 0.08 0 0.88 0.08 0 0.9 0.08 0 0.92 0.08 0 0.94 0.08 0 0.96 0.08 0 0.98 0.08 0 1 0.08 0 0 0.495174 0 0.10493 0.483504 0 0.19664 0.457136 0 0.262081 0.42371 0 0.355519 0.381956 0 0.370673 0.370673 0 0.41189 0.363944 0 0.446602 0.318485 0 0.481495 0.320989 0 0.509572 0.295626 0 0.53391 0.286091 0 0.55705 0.268838 0 0.575644 0.257794 0 0.594991 0.244467 0 0.609956 0.234214 0 0.62646 0.222838 0 0.639366 0.21262 0 0.653387 0.20281 0 0.664282 0.193577 0 0.676304 0.185703 0 0.685558 0.178559 0 0.695803 0.172197 0 0.703898 0.166281 0 0.712724 0.160478 0 0.720268 0.15499 0 0.727878 0.149604 0 0.734797 0.144729 0 0.741604 0.140243 0 0.747776 0.136137 0 0.753784 0.132275 0 0.759392 0.128582 0 0.764769 0.125016 0 0.769816 0.121601 0 0.774737 0.118382 0 0.779425 0.115366 0 0.783897 0.11254 0 0.788176 0.109877 0 0.792233 0.107343 0 0.796439 0.104966 0 0.801569 0.102847 0 0.809162 0.101184 0 0.821675 0.100262 0 0.840041 0.100012 0 0.86 0.1 0 0.88 0.1 0 0.9 0.1 0 0.92 0.1 0 0.94 0.1 0 0.96 0.1 0 0.98 0.1 0 1 0.1 0 0 0.516963 0 0.0927898 0.512599 0 0.174328 0.490367 0 0.25083 0.461922 0 0.289619 0.435473 0 0.363944 0.41189 0 0.395982 0.395982 0 0.430272 0.380765 0 0.457732 0.344545 0 0.488747 0.349024 0 0.515941 0.322202 0 0.538747 0.314583 0 0.561186 0.296763 0 0.579417 0.286146 0 0.598763 0.27174 0 0.613786 0.260859 0 0.630124 0.248796 0 0.642818 0.238268 0 0.65643 0.228593 0 0.667094 0.219652 0 0.678743 0.211711 0 0.687866 0.204318 0 0.697975 0.197229 0 0.706241 0.190585 0 0.714836 0.183992 0 0.722362 0.177962 0 0.730072 0.172298 0 0.736938 0.167137 0 0.743507 0.162277 0 0.749668 0.15771 0 0.755557 0.153301 0 0.761164 0.149093 0 0.766433 0.14508 0 0.771487 0.141316 0 0.776366 0.137793 0 0.78097 0.13447 0 0.785404 0.131327 0 0.789602 0.128329 0 0.794016 0.125535 0 0.799499 0.123075 0 0.807715 0.121197 0 0.821168 0.120235 0 0.84002 0.120008 0 0.86 0.12 0 0.88 0.12 0 0.9 0.12 0 0.92 0.12 0 0.94 0.12 0 0.96 0.12 0 0.98 0.12 0 1 0.12 0 0 0.539341 0 0.0822898 0.53532 0 0.163165 0.518155 0 0.226131 0.494738 0 0.289396 0.47224 0 0.318485 0.446602 0 0.380765 0.430272 0 0.415475 0.415475 0 0.44516 0.398954 0 0.469228 0.368231 0 0.495632 0.373433 0 0.521994 0.344223 0 0.54364 0.338893 0 0.565572 0.31994 0 0.583327 0.309978 0 0.602332 0.295033 0 0.616963 0.284222 0 0.63284 0.272354 0 0.645277 0.262016 0 0.65856 0.25243 0 0.669094 0.243496 0 0.680627 0.235049 0 0.689895 0.227238 0 0.699765 0.219433 0 0.707987 0.212325 0 0.716636 0.205477 0 0.724265 0.199273 0 0.731691 0.193328 0 0.738539 0.187827 0 0.744994 0.182513 0 0.751175 0.177496 0 0.757016 0.172699 0 0.762544 0.168176 0 0.767756 0.16391 0 0.77282 0.159907 0 0.777587 0.156104 0 0.78218 0.152495 0 0.786558 0.14906 0 0.791236 0.145887 0 0.797166 0.14314 0 0.806159 0.141122 0 0.820728 0.140187 0 0.840008 0.140004 0 0.86 0.14 0 0.88 0.14 0 0.9 0.14 0 0.92 0.14 0 0.94 0.14 0 0.96 0.14 0 0.98 0.14 0 1 0.14 0 0 0.559543 0 0.0767946 0.555047 0 0.147738 0.542017 0 0.214359 0.522613 0 0.264221 0.502428 0 0.320989 0.481495 0 0.344545 0.457732 0 0.398954 0.44516 0 0.432663 0.432663 0 0.458953 0.415174 0 0.481786 0.389481 0 0.504813 0.393005 0 0.528979 0.362644 0 0.54961 0.359427 0 0.570656 0.339305 0 0.587564 0.33047 0 0.605928 0.315391 0 0.620085 0.305062 0 0.635418 0.293438 0 0.647597 0.283338 0 0.66066 0.273554 0 0.671174 0.264601 0 0.682461 0.25563 0 0.691568 0.247539 0 0.701401 0.239492 0 0.709825 0.232329 0 0.718181 0.225253 0 0.725749 0.218809 0 0.733121 0.212575 0 0.73979 0.206703 0 0.746335 0.201127 0 0.752358 0.195842 0 0.758178 0.190852 0 0.763591 0.186124 0 0.768833 0.181649 0 0.773796 0.177391 0 0.778544 0.173342 0 0.783134 0.169512 0 0.788141 0.16601 0 0.794637 0.163041 0 0.804589 0.160975 0 0.820395 0.160129 0 0.840003 0.160002 0 0.86 0.16 0 0.88 0.16 0 0.9 0.16 0 0.92 0.16 0 0.94 0.16 0 0.96 0.16 0 0.98 0.16 0 1 0.16 0 0 0.576099 0 0.0701853 0.574093 0 0.137634 0.562002 0 0.196692 0.547517 0 0.252981 0.528899 0 0.295626 0.509572 0 0.349024 0.488747 0 0.368231 0.469228 0 0.415174 0.458953 0 0.44784 0.44784 0 0.471625 0.429723 0 0.49498 0.407982 0 0.515998 0.407958 0 0.537045 0.378779 0 0.556981 0.376478 0 0.576681 0.355771 0 0.592616 0.348211 0 0.610085 0.333204 0 0.623625 0.323479 0 0.638354 0.311954 0 0.650293 0.302167 0 0.662986 0.29206 0 0.67319 0.283123 0 0.684314 0.273932 0 0.693579 0.265956 0 0.703158 0.257754 0 0.711389 0.250431 0 0.71972 0.243247 0 0.727123 0.236606 0 0.734292 0.230213 0 0.740976 0.224227 0 0.747309 0.218486 0 0.753348 0.213069 0 0.759051 0.207893 0 0.764458 0.202972 0 0.769637 0.198296 0 0.774532 0.193852 0 0.779368 0.189679 0 0.784777 0.185905 0 0.791988 0.182788 0 0.803119 0.180779 0 0.820181 0.180074 0 0.840001 0.18 0 0.86 0.18 0 0.88 0.18 0 0.9 0.18 0 0.92 0.18 0 0.94 0.18 0 0.96 0.18 0 0.98 0.18 0 1 0.18 0 0 0.593504 0 0.0649327 0.589311 0 0.126528 0.581908 0 0.184448 0.56778 0 0.235218 0.553145 0 0.286091 0.53391 0 0.322202 0.515941 0 0.373433 0.495632 0 0.389481 0.481786 0 0.429723 0.471625 0 0.461201 0.461201 0 0.483054 0.44256 0 0.5069 0.424026 0 0.527083 0.42022 0 0.5455 0.393455 0 0.564744 0.391213 0 0.583074 0.370453 0 0.59823 0.363857 0 0.614705 0.348872 0 0.627752 0.339689 0 0.641826 0.328124 0 0.653247 0.318615 0 0.665561 0.308354 0 0.675763 0.299736 0 0.686587 0.290459 0 0.695544 0.282467 0 0.704911 0.27429 0 0.713044 0.266997 0 0.721 0.259782 0 0.728339 0.25316 0 0.735281 0.246708 0 0.741865 0.240612 0 0.748156 0.234752 0 0.754136 0.229182 0 0.759754 0.
[...]
			<PointData Scalars="VitesseX">
				<DataArray Name="VitesseX" type="Float32" format="ascii">
 0 1.60402 0.265804 0.913557 0.812024 0.909518 0.920066 0.992995 1.01789 1.05702 1.0761 1.12838 1.14962 1.17358 1.22407 1.23235 1.23861 1.27867 1.30072 1.29927 1.31839 1.33308 1.38873 1.40405 1.44555 1.43921 1.39473 1.50121 1.50234 1.54785 1.5235 1.55292 1.5752 1.57653 1.61121 1.61977 1.63022 1.64466 1.61186 1.4886 1.18551 0.614458 0.0625973 0.000173598 3.35968e-09 -3.56609e-12 3.59313e-12 -3.59313e-12 3.61408e-12 2.10483e-14 0 0 0.100545 1.20214 0.476851 0.851789 0.833609 0.938218 0.968762 1.02962 1.03344 1.08435 1.12979 1.13096 1.18662 1.21247 1.22411 1.24167 1.27423 1.29726 1.30612 1.30773 1.34268 1.38132 1.41407 1.4293 1.43047 1.41922 1.49701 1.49888 1.54023 1.52953 1.54984 1.57597 1.5759 1.60916 1.6198 1.62934 1.64394 1.61064 1.4859 1.17985 0.605286 0.0598277 0.000158096 3.07495e-09 -3.5695e-12 3.60366e-12 -3.60366e-12 3.61413e-12 1.57911e-14 0 0 0.799138 0.147751 1.1094 0.629277 0.804285 0.853508 0.944714 0.973534 1.02312 1.05756 1.10083 1.12632 1.15825 1.20079 1.20995 1.2261 1.27005 1.29279 1.29319 1.31377 1.32994 1.39635 1.41062 1.41426 1.40898 1.46509 1.48053 1.49339 1.52463 1.54084 1.54478 1.57655 1.57463 1.60313 1.61988 1.62701 1.64175 1.60687 1.47763 1.16267 0.577615 0.0520873 0.000119093 2.35798e-09 5.07824e-14 -4.08267e-14 4.08398e-14 -1.49924e-14 1.03121e-14 0 0 0.620732 0.757928 0.173806 0.618282 0.711348 0.826426 0.872363 0.942928 0.977727 1.04358 1.07075 1.10232 1.15787 1.17104 1.19342 1.22077 1.25896 1.2832 1.29216 1.30038 1.34318 1.38865 1.40918 1.39286 1.41993 1.47519 1.46297 1.48952 1.51162 1.54528 1.54489 1.57323 1.57464 1.59376 1.61926 1.62401 1.63805 1.60018 1.46329 1.13334 0.531222 0.0409664 7.36259e-05 1.51409e-09 -5.27851e-12 5.28244e-12 -5.2824e-12 5.29788e-12 1.03468e-14 0 0 0.254284 0.474024 0.676352 0.559327 0.713659 0.758222 0.869852 0.899738 0.961695 0.998906 1.04728 1.08246 1.12147 1.15243 1.17108 1.20749 1.2481 1.27001 1.27744 1.30427 1.33603 1.38666 1.3798 1.39676 1.43336 1.45631 1.45114 1.49094 1.50011 1.54096 1.54887 1.56631 1.57586 1.58323 1.61612 1.6215 1.63252 1.5899 1.44184 1.09086 0.46658 0.0287098 3.68918e-05 8.10819e-10 -5.29333e-12 5.29765e-12 -7.10475e-12 7.11491e-12 1.04024e-14 0 0 0.209715 0.382552 0.427488 0.700673 0.819939 0.787221 0.797739 0.89812 0.927776 0.973302 1.0104 1.06106 1.09313 1.11635 1.15939 1.19166 1.23027 1.25301 1.26806 1.29411 1.33696 1.35283 1.37683 1.40255 1.42838 1.4214 1.45846 1.48323 1.49917 1.52695 1.55242 1.55855 1.57603 1.57478 1.60887 1.61979 1.62506 1.57514 1.41151 1.03366 0.386105 0.0175937 1.47436e-05 3.58746e-10 1.82431e-12 -1.83278e-12 1.82229e-12 -1.80262e-12 6.14404e-15 0 0 0.182288 0.3116 0.44842 0.447462 0.633576 0.825789 0.808543 0.824659 0.913301 0.950887 0.99899 1.02549 1.06911 1.10057 1.13699 1.18261 1.20936 1.23559 1.25744 1.29163 1.3088 1.34144 1.37603 1.41119 1.39333 1.41014 1.45643 1.47388 1.50403 1.50977 1.55099 1.55247 1.57244 1.57156 1.59756 1.61778 1.61628 1.55497 1.36959 0.958937 0.29551 0.00920881 4.62022e-06 1.29332e-10 -1.76381e-12 -5.54579e-14 1.85252e-12 -1.81763e-12 2.11808e-14 0 0 0.150027 0.30425 0.3872 0.495994 0.515054 0.655659 0.821703 0.835145 0.86019 0.921455 0.980518 1.0054 1.03408 1.08242 1.12109 1.15235 1.19169 1.21692 1.24555 1.26913 1.29498 1.33293 1.38389 1.37459 1.38072 1.41266 1.43906 1.47123 1.50078 1.50023 1.5419 1.54788 1.56429 1.57339 1.5855 1.61422 1.60605 1.52846 1.31306 0.862004 0.204238 0.00400495 1.12433e-06 3.75924e-11 -1.23137e-11 1.22846e-11 -1.22841e-11 1.22842e-11 9.65351e-14 0 0 0.149337 0.257195 0.383432 0.441327 0.55513 0.575457 0.704353 0.824363 0.859488 0.900181 0.933266 0.982483 1.02514 1.05232 1.09933 1.13634 1.16074 1.20289 1.22357 1.24991 1.29001 1.34081 1.34704 1.35001 1.37932 1.41667 1.4175 1.47748 1.48143 1.50462 1.52317 1.54408 1.5527 1.57598 1.57838 1.60816 1.59186 1.49448 1.23986 0.737525 0.123764 0.00140241 2.16869e-07 2.12567e-11 -1.05838e-11 1.23454e-11 -2.46551e-11 2.46552e-11 -1.22748e-11 0 0 0.127224 0.251233 0.335539 0.449415 0.497759 0.626156 0.650775 0.742899 0.844484 0.881365 0.942158 0.957835 1.00581 1.04375 1.07171 1.11336 1.1517 1.17563 1.20914 1.24494 1.29377 1.3136 1.31798 1.33882 1.38944 1.39327 1.42445 1.46549 1.46901 1.50668 1.50604 1.53511 1.54391 1.5728 1.57977 1.59887 1.57028 1.44989 1.1492 0.584466 0.0635203 0.00038133 3.61474e-08 1.78116e-12 1.23493e-11 -1.23795e-11 3.59772e-14 -4.14471e-19 -1.89487e-16 0 0 0.122809 0.22672 0.331178 0.405137 0.511918 0.553302 0.70613 0.719691 0.782571 0.867233 0.905966 0.977869 0.992832 1.0195 1.0665 1.0929 1.13185 1.17246 1.19926 1.24817 1.27669 1.28255 1.30341 1.35643 1.36553 1.38891 1.4277 1.44352 1.46773 1.49873 1.49793 1.52079 1.5393 1.56394 1.58385 1.58759 1.53997 1.38844 1.03775 0.413605 0.0265686 7.70991e-05 5.80264e-09 3.65456e-13 -1.88473e-15 6.11567e-16 1.22453e-11 -2.463e-11 2.47017e-11 0 0 0.114544 0.210922 0.308347 0.394097 0.479582 0.578398 0.610761 0.761172 0.772488 0.822128 0.890107 0.920409 1.00472 1.01612 1.04465 1.0866 1.11475 1.16017 1.20678 1.23252 1.25318 1.27097 1.31937 1.34255 1.3534 1.38918 1.4214 1.42175 1.47169 1.48114 1.49916 1.50678 1.53497 1.55629 1.58225 1.57381 1.50218 1.3047 0.894594 0.250126 0.00869151 1.10257e-05 8.58324e-10 1.51338e-13 -2.09694e-15 -4.47771e-16 1.2246e-11 -1.23755e-11 9.61828e-14 0 0 0.102241 0.198412 0.28936 0.384642 0.466985 0.54557 0.628797 0.646973 0.797558 0.811386 0.844384 0.918787 0.943684 1.03204 1.04753 1.06591 1.11936 1.14508 1.18786 1.2228 1.23398 1.28033 1.31942 1.32253 1.34624 1.39482 1.3919 1.42952 1.45265 1.47356 1.49595 1.50097 1.52771 1.55306 1.57406 1.55127 1.45336 1.199 0.707496 0.123135 0.00212426 1.08223e-06 1.3735e-10 -1.22819e-11 1.23135e-11 -1.23145e-11 -2.10028e-11 3.32582e-11 -2.46314e-11 0 0 0.0979643 0.190238 0.284792 0.372517 0.454134 0.524485 0.595779 0.681361 0.696088 0.822368 0.837975 0.866475 0.94224 0.997716 1.04309 1.09235 1.10246 1.13898 1.17778 1.19327 1.23738 1.28593 1.29695 1.31163 1.35453 1.36585 1.39243 1.42643 1.4331 1.47209 1.48504 1.50139 1.51932 1.54961 1.56098 1.51716 1.38223 1.0693 0.485205 0.0469437 0.000365871 8.03486e-08 4.26463e-11 9.73398e-14 -1.24221e-11 2.06596e-14 -2.09209e-11 -3.33312e-14 2.10106e-11 0 0 0.0966034 0.180057 0.278957 0.352542 0.439765 0.50333 0.581546 0.64043 0.722221 0.735652 0.838804 0.8685 0.906426 0.980725 0.997481 1.07501 1.08565 1.12822 1.16242 1.17813 1.23969 1.27476 1.27696 1.31522 1.33973 1.35274 1.39609 1.41422 1.42464 1.46943 1.47004 1.50368 1.5108 1.54397 1.53901 1.47378 1.28215 0.896904 0.270672 0.0131918 4.11371e-05 6.0896e-09 -1.16276e-11 9.43497e-14 1.16102e-15 -1.46938e-13 -2.08238e-11 -2.93493e-15 3.3296e-11 0 0 0.0881043 0.17778 0.257694 0.351171 0.411065 0.500792 0.551594 0.635416 0.672543 0.757186 0.77253 0.860286 0.895227 0.907764 1.00927 1.04904 1.07398 1.12838 1.13677 1.18806 1.22958 1.23701 1.2746 1.30807 1.31738 1.35776 1.39379 1.39131 1.43811 1.44599 1.4728 1.49248 1.50945 1.53289 1.50692 1.40938 1.15641 0.663106 0.115223 0.00258693 2.8088e-06 5.02329e-10 -1.23213e-11 9.44213e-14 -2.10013e-11 3.31964e-11 -3.32579e-11 3.33856e-11 -9.1404e-14 0 0 0.0853143 0.166077 0.254519 0.329486 0.410756 0.466203 0.554097 0.592054 0.6778 0.702044 0.788769 0.802064 0.890194 0.934748 0.952398 1.02081 1.06335 1.0699 1.12322 1.15447 1.19417 1.22431 1.26267 1.28262 1.31462 1.36045 1.36559 1.40011 1.42219 1.43718 1.4696 1.47961 1.50577 1.51048 1.46377 1.31031 0.991326 0.397383 0.0352607 0.000326764 1.24646e-07 2.662e-11 3.32936e-11 -9.15733e-14 -3.31626e-11 3.31018e-11 1.88524e-13 -3.33851e-11 3.33877e-11 0 0 0.0813145 0.161875 0.243184 0.321557 0.389046 0.459959 0.518462 0.596407 0.627445 0.716287 0.727593 0.825112 0.842091 0.888347 0.966824 0.972656 1.02732 1.07347 1.1129 1.13533 1.18334 1.22011 1.23931 1.26356 1.31403 1.33479 1.35894 1.39464 1.40419 1.43229 1.45706 1.47126 1.49698 1.47536 1.39812 1.18091 0.752438 0.17762 0.00730725 2.38806e-05 5.61135e-09 -3.20746e-11 9.09683e-14 3.3198e-11 1.64243e-15 -2.76478e-15 -3.31971e-11 6.718e-15 -4.95315e-15 0 0 0.0769844 0.155039 0.23041 0.306359 0.371822 0.439319 0.50847 0.567104 0.633658 0.662303 0.754526 0.75708 0.848603 0.869024 0.925653 0.977308 0.999218 1.06899 1.07687 1.1088 1.16249 1.17808 1.20928 1.26488 1.29286 1.31262 1.36359 1.37491 1.39078 1.43043 1.43233 1.471 1.4673 1.43223 1.29173 1.01077 0.454946 0.054978 0.000946499 9.35372e-07 2.70811e-10 3.33523e-11 -3.31058e-11 2.43776e-16 3.31975e-11 -3.31985e-11 5.43619e-15 3.58393e-16 -4.32818e-15 0 0 0.0735914 0.144108 0.220492 0.286595 0.359937 0.422924 0.495263 0.550479 0.60685 0.670959 0.70241 0.786256 0.785641 0.871424 0.895087 0.927907 1.01986 1.01626 1.06685 1.12508 1.13971 1.16757 1.20988 1.24843 1.26764 1.31299 1.34145 1.3524 1.39478 1.39861 1.43375 1.44933 1.43645 1.35625 1.15686 0.753061 0.197431 0.0110173 6.6996e-05 2.57662e-08 9.10698e-12 3.31001e-11 -3.30082e-11 -3.81204e-16 3.31007e-11 -3.31004e-11 3.90166e-15 -5.74836e-15 3.3297e-11 0 0 0.0693729 0.139631 0.208556 0.281518 0.346656 0.420426 0.474182 0.53957 0.594492 0.6562 0.704941 0.728643 0.802647 0.799642 0.905042 0.924213 0.952837 1.00219 1.06049 1.09943 1.13096 1.17783 1.21233 1.22137 1.26091 1.30043 1.31271 1.35381 1.37208 1.39243 1.42026 1.42261 1.38191 1.24286 0.968012 0.429327 0.0565866 0.00129063 2.29417e-06 9.15927e-10 -3.29143e-11 3.31009e-11 -3.30089e-11 3.3101e-11 -5.22826e-16 -3.31001e-11 -9.33424e-14 3.33863e-11 -9.11108e-14 0 0 0.0681549 0.135226 0.207374 0.275983 0.345111 0.403101 0.466537 0.525569 0.596246 0.634578 0.676981 0.720472 0.754375 0.841539 0.847233 0.916081 0.967277 0.974979 1.02479 1.05706 1.11831 1.15875 1.18825 1.21938 1.26028 1.27496 1.31068 1.34253 1.35058 1.3842 1.40026 1.37957 1.29335 1.09181 0.673275 0.166622 0.00976087 7.71057e-05 4.39341e-08 -9.97189e-12 9.03836e-15 3.31974e-11 -3.31051e-11 3.31016e-11 -3.31011e-11 -9.33011e-14 3.32944e-11 -3.32937e-11 3.33878e-11 0 0 0.0677909 0.136817 0.206418 0.273793 0.332896 0.394058 0.458905 0.525581 0.57087 0.613639 0.651307 0.711095 0.764631 0.791394 0.851933 0.859989 0.954916 0.967974 0.988636 1.06121 1.07334 1.12082 1.16251 1.20905 1.23106 1.26215 1.30188 1.30654 1.34292 1.36691 1.36233 1.31354 1.15857 0.860481 0.334687 0.0393479 0.000929761 1.90503e-06 1.10412e-09 -3.29024e-11 3.33888e-11 -3.32931e-11 7.87915e-16 3.329e-11 -3.33861e-11 3.33891e-11 -3.32947e-11 9.8233e-14 -4.62329e-15 0 0 0.0672643 0.135231 0.198596 0.261123 0.322732 0.38932 0.45401 0.503835 0.544828 0.592925 0.651888 0.697341 0.73778 0.773839 0.808081 0.883715 0.889419 0.952838 0.999617 1.0355 1.07495 1.08054 1.14421 1.18317 1.20349 1.25172 1.26386 1.29431 1.32428 1.33291 1.30492 1.19561 0.974243 0.51826 0.101949 0.00542478 3.68837e-05 2.73685e-08 -1.3507e-11 3.33974e-11 -3.32898e-11 9.19703e-14 3.31051e-11 -3.32922e-11 3.33846e-11 -3.32893e-11 9.50876e-14 9.52394e-16 -3.76674e-15 0 0 0.0633802 0.128198 0.187852 0.251514 0.319825 0.380295 0.431815 0.477255 0.533404 0.587822 0.635396 0.672515 0.714115 0.762079 0.806728 0.831015 0.899052 0.923591 0.988019 1.0135 1.04889 1.10215 1.11666 1.15098 1.20743 1.21051 1.24794 1.27968 1.28814 1.27839 1.2083 1.0261 0.675835 0.192416 0.0190403 0.000312086 6.28138e-07 5.10551e-10 -3.26912e-11 3.31955e-11 -3.32896e-11 9.27456e-14 3.3008e-11 -3.30064e-11 3.31948e-11 -3.32887e-11 9.5986e-14 -1.93289e-13 3.34847e-11 0 0 0.0557014 0.120283 0.184522 0.249919 0.309091 0.360828 0.410762 0.471824 0.525263 0.572611 0.608465 0.660154 0.706691 0.747505 0.776491 0.829076 0.869704 0.93158 0.941942 1.00171 1.05011 1.06457 1.10716 1.1566 1.16204 1.2021 1.23735 1.24621 1.24587 1.18879 1.04203 0.783602 0.288282 0.0461613 0.00141507 8.57987e-06 5.95411e-09 7.29862e-11 1.94359e-13 -1.89324e-13 9.65441e-14 -6.65869e-11 6.64906e-11 1.89245e-13 -1.89451e-13 9.67816e-14 -6.65877e-11 6.64914e-11 -3.31985e-11 0 0 0.0570017 0.12114 0.185225 0.240247 0.292271 0.347053 0.408533 0.461951 0.510138 0.551506 0.606319 0.648887 0.691657 0.721305 0.775681 0.815808 0.860969 0.886626 0.955259 0.981293 1.01689 1.05782 1.09301 1.11847 1.15588 1.19582 1.20981 1.21353 1.16306 1.04202 0.829743 0.369436 0.0832343 0.00407956 6.09872e-05 5.53309e-08 9.91052e-11 -2.92602e-14 3.3294e-11 6.43902e-16 -3.32948e-11 9.76728e-14 -9.6819e-14 3.32938e-11 9.11825e-14 -3.33853e-11 -4.18299e-16 -1.36552e-15 8.00242e-16 0 0 0.0615254 0.119266 0.174357 0.229406 0.286128 0.345037 0.397854 0.448165 0.497228 0.550486 0.589471 0.631652 0.669321 0.726018 0.757634 0.800182 0.83124 0.899637 0.919616 0.963389 1.00519 1.04179 1.06828 1.10371 1.14032 1.16193 1.17669 1.14077 1.0289 0.843721 0.427084 0.11777 0.00853052 0.000237278 3.75174e-07 8.64041e-10 6.29717e-13 1.01176e-15 -9.61801e-14 3.11975e-16 9.64249e-14 -4.79602e-16 -3.12507e-15 3.30086e-11 -3.30097e-11 -1.89147e-13 3.31966e-11 -6.6395e-11 3.32864e-11 0 0 0.0581838 0.113796 0.170283 0.227213 0.282484 0.335386 0.391553 0.445689 0.494253 0.531277 0.573447 0.617887 0.669717 0.698922 0.742562 0.778423 0.838617 0.85735 0.910539 0.940968 0.993121 1.01521 1.04488 1.09351 1.11525 1.11582 1.09268 1.00217 0.844849 0.454756 0.143854 0.0136343 0.00055022 1.68777e-06 4.40603e-09 4.11865e-12 9.52576e-15 -1.57322e-17 -1.92626e-13 9.69671e-14 9.60625e-14 -4.28103e-15 4.67054e-16 3.30087e-11 -6.63951e-11 6.63929e-11 -3.32941e-11 -3.31003e-11 3.32857e-11 0 0 0.0557109 0.110893 0.166467 0.221836 0.276521 0.331732 0.383754 0.431637 0.475803 0.522711 0.566854 0.609714 0.642326 0.688911 0.728589 0.777658 0.798974 0.857781 0.882697 0.939798 0.95098 1.00033 1.04259 1.05157 1.07369 1.04753 0.946178 0.808772 0.453323 0.159356 0.0173885 0.000923257 4.64668e-06 1.37577e-08 1.85828e-11 -3.32382e-11 9.696e-14 -9.71041e-14 3.31981e-11 -3.33463e-11 2.38171e-13 3.27642e-11 -3.27654e-11 -9.07225e-14 1.53856e-15 -9.88077e-14 -3.31961e-11 3.31965e-11 9.75549e-14 0 0 0.0541211 0.109015 0.164292 0.218943 0.271821 0.321397 0.37075 0.421307 0.471181 0.513794 0.553232 0.591442 0.638541 0.677748 0.7175 0.747581 0.802858 0.830662 0.881037 0.894037 0.96163 0.9719 1.00259 1.01914 0.980723 0.902524 0.759593 0.416005 0.154945 0.0188688 0.00123163 7.99547e-06 2.97213e-08 8.6599e-11 -3.30241e-11 3.31968e-11 -3.31078e-11 3.31075e-11 -3.31971e-11 -6.01318e-14 -8.3999e-11 1.16905e-10 -3.27592e-11 -8.98434e-14 8.51784e-16 -3.32964e-11 3.31997e-11 3.31005e-11 -6.62984e-11 0 0 0.0539799 0.107264 0.160401 0.213542 0.265609 0.316369 0.365114 0.41134 0.454935 0.498194 0.539659 0.581571 0.619173 0.65994 0.699948 0.747389 0.776933 0.822515 0.848497 0.910502 0.908833 0.960274 0.936758 0.920177 0.837818 0.6866 0.367282 0.134547 0.0166994 0.00122745 9.8981e-06 4.75026e-08 6.21071e-11 3.34648e-11 -3.31956e-11 3.31961e-11 -3.31074e-11 3.31073e-11 -3.32942e-11 1.31474e-13 -8.42808e-11 8.41815e-11 6.27391e-14 -1.25034e-16 -3.32938e-11 3.32929e-11 -9.64811e-14 -9.53841e-14 1.92821e-13 0 0 0.0529889 0.105849 0.15797 0.208601 0.257765 0.305792 0.353504 0.400622 0.445899 0.486898 0.525715 0.564204 0.606967 0.649145 0.690374 0.723595 0.768123 0.802737 0.849331 0.856541 0.898828 0.86088 0.855332 0.74034 0.600517 0.295036 0.105478 0.0128103 0.000916032 7.95968e-06 4.74544e-08 8.58936e-11 5.64212e-13 3.32931e-11 -9.66336e-14 -3.31964e-11 -1.00104e-15 -2.58024e-16 3.31966e-11 -6.6545e-11 6.63512e-11 -6.64464e-11 3.34322e-11 -8.70971e-14 1.67238e-15 9.2842e-14 -9.43938e-14 -3.31966e-11 3.3285e-11 0 0 0.0515302 0.102558 0.152954 0.202684 0.25139 0.298776 0.344737 0.389337 0.432725 0.475056 0.515512 0.55555 0.594506 0.634444 0.673899 0.715934 0.751793 0.784642 0.802251 0.824232 0.789507 0.766218 0.63781 0.485669 0.210064 0.0727838 0.00785034 0.000543918 4.61446e-06 2.97043e-08 6.15178e-11 5.62121e-13 3.32934e-11 -3.32931e-11 3.31976e-11 -6.64908e-11 6.63932e-11 -3.31015e-11 -2.18148e-15 9.64006e-14 -2.8902e-13 -3.30986e-11 3.31857e-11 1.08745e-14 -3.37694e-16 9.40124e-14 -9.41817e-14 -3.31979e-11 3.32865e-11 0 0 0.050416 0.100171 0.14895 0.196521 0.243243 0.289782 0.336355 0.381891 0.425031 0.46526 0.505306 0.546243 0.587303 0.626377 0.664315 0.693633 0.721773 0.737627 0.740624 0.707213 0.659898 0.519367 0.346914 0.134572 0.0401454 0.00370321 0.000234531 1.66919e-06 1.36215e-08 8.64061e-11 -3.29279e-11 3.32932e-11 -3.32947e-11 9.72444e-14 -9.81451e-14 9.58582e-14 -2.90077e-13 1.93799e-13 -9.20892e-16 9.20878e-14 -1.88222e-13 -9.55859e-14 9.49214e-14 -3.31966e-11 3.32943e-11 -1.10736e-14 -3.32822e-11 3.30992e-11 1.94662e-13 0 0 0.0488935 0.0974647 0.145536 0.192926 0.239367 0.284685 0.328636 0.371581 0.414112 0.45601 0.496857 0.536864 0.57387 0.60595 0.632534 0.653406 0.659303 0.647908 0.60842 0.529993 0.377291 0.213496 0.0726976 0.0166242 0.00130507 6.03353e-05 3.6804e-07 4.44363e-09 1.83497e-11 -3.32165e-11 3.3389e-11 -9.62558e-14 -3.31972e-11 9.4289e-14 -4.04743e-17 -3.06518e-15 -9.43709e-14 -3.32947e-11 3.32954e-11 -9.91692e-14 2.73413e-15 -9.65042e-14 -3.31019e-11 3.32947e-11 -2.43379e-13 2.32299e-13 -3.34307e-11 6.64466e-11 -6.62986e-11 0 0 0.0475789 0.0948425 0.141581 0.187862 0.233677 0.278864 0.323108 0.365678 0.405983 0.443877 0.480175 0.513601 0.542158 0.563421 0.572602 0.565625 0.541428 0.481327 0.373363 0.230931 0.107103 0.0297203 0.00483842 0.000295725 8.48162e-06 5.38065e-08 8.57331e-10 3.83429e-12 3.33496e-11 -3.33883e-11 3.33885e-11 -3.33893e-11 9.57534e-14 9.22552e-14 1.17462e-15 -9.74528e-14 -8.36731e-15 -8.85143e-14 -3.31973e-11 3.31984e-11 -3.31979e-11 3.31024e-11 -3.67288e-17 1.92562e-13 -2.44681e-13 -8.39031e-11 8.39979e-11 5.30448e-14 9.78141e-14 0 0 0.0463167 0.0924427 0.138184 0.183337 0.227503 0.270386 0.311676 0.350475 0.38591 0.417902 0.446069 0.467513 0.477772 0.475201 0.455238 0.406501 0.320736 0.213895 0.110403 0.0391315 0.00796612 0.000857421 3.56743e-05 6.1721e-07 5.83665e-09 9.79949e-11 6.11721e-13 1.04417e-14 -9.59633e-14 3.32875e-11 -3.32876e-11 7.1245e-16 -1.94366e-13 2.85672e-13 -9.54598e-14 -9.20232e-15 -3.32924e-11 3.31933e-11 1.16356e-14 -3.31981e-11 1.04351e-15 3.30483e-11 3.33461e-11 -6.64474e-11 3.3294e-11 -8.41909e-11 1.17101e-10 -6.61504e-11 3.32845e-11 0 0 0.0439008 0.087577 0.130737 0.17293 0.213552 0.251949 0.287439 0.318998 0.34512 0.364136 0.374724 0.374147 0.355633 0.311276 0.243158 0.164689 0.090333 0.034967 0.00850568 0.00113735 7.33628e-05 1.85323e-06 2.64648e-08 4.3191e-10 6.46792e-12 1.61398e-13 1.20552e-17 9.31946e-16 -9.61077e-14 3.32875e-11 -3.32874e-11 -7.11516e-16 3.31e-11 -6.63968e-11 3.32942e-11 -1.06674e-13 -3.31971e-11 3.31945e-11 1.19793e-14 -3.31972e-11 3.31031e-11 4.21275e-14 -8.4e-11 8.40962e-11 -3.32941e-11 6.64486e-11 -3.35366e-11 -3.28577e-11 3.32845e-11 0 0 0.0391306 0.0778423 0.115583 0.15154 0.184611 0.213602 0.237433 0.254972 0.264063 0.260695 0.240497 0.203433 0.155767 0.104692 0.0565461 0.0218242 0.00546775 0.000813739 6.24727e-05 2.20998e-06 4.18095e-08 1.0659e-09 -1.4103e-11 3.3691e-11 8.60454e-15 -3.32951e-11 9.66742e-14 -1.93203e-13 3.33916e-11 -3.33908e-11 3.32937e-11 -3.31985e-11 -2.22186e-15 2.0958e-15 -3.32968e-11 3.31978e-11 -1.08045e-14 9.62505e-15 -3.31966e-11 3.3296e-11 -1.93279e-13 4.33865e-14 -8.39994e-11 8.39041e-11 3.39074e-13 -2.00184e-13 -3.31861e-11 3.30982e-11 1.94948e-13 0 0 0.0297593 0.0587073 0.0858665 0.109923 0.129132 0.141429 0.144933 0.138849 0.124214 0.103203 0.0774762 0.0491776 0.0241005 0.00840525 0.00195793 0.000279997 2.20546e-05 8.86e-07 2.40635e-08 8.70761e-10 -1.07095e-11 3.34667e-11 -3.29947e-11 3.31966e-11 3.74185e-15 -7.01107e-16 -6.65883e-11 6.64919e-11 -3.33461e-11 2.3793e-13 -2.40485e-13 1.4999e-13 9.18697e-14 -9.5048e-14 -9.45258e-14 -3.31996e-11 3.31991e-11 -3.3199e-11 3.32967e-11 -2.44098e-13 2.42953e-13 -3.34001e-11 3.33999e-11 -1.48549e-13 -2.52894e-18 1.39476e-13 -3.34319e-11 6.64465e-11 -6.62983e-11 0 0 0.0139031 0.0266776 0.0372525 0.0447057 0.0483587 0.0478022 0.0428895 0.034018 0.0228072 0.012229 0.00496427 0.00145108 0.000287708 3.57239e-05 2.57042e-06 1.1406e-07 5.08901e-09 1.87062e-10 7.49526e-11 -3.29329e-11 8.70132e-15 3.31978e-11 -3.31047e-11 3.31049e-11 9.6805e-14 -3.32951e-11 9.70446e-14 -9.70713e-14 -5.82519e-14 -8.40009e-11 8.39081e-11 -4.31065e-14 2.8617e-13 -1.92863e-13 2.98786e-15 