<?xml version="1.0"?>
<VTKFile type="PolyData">
	<PolyData>
		<Piece NumberOfPoints="1206" NumberOfPolys="1000">
			<Points>
				<DataArray type="Float32" NumberOfComponents="3" format="ascii">
 0 0 0 0.02 0 0 0.04 0 0 0.06 0 0 0.08 0 0 0.1 0 0 0 0.005 0 0.02 0.005 0 0.04 0.005 0 0.06 0.005 0 0.08 0.005 0 0.1 0.005 0 0 0.01 0 0.02 0.01 0 0.04 0.01 0 0.06 0.01 0 0.08 0.01 0 0.1 0.01 0 0 0.015 0 0.02 0.015 0 0.04 0.015 0 0.06 0.015 0 0.08 0.015 0 0.1 0.015 0 0 0.02 0 0.02 0.02 0 0.04 0.02 0 0.06 0.02 0 0.08 0.02 0 0.1 0.02 0 0 0.025 0 0.02 0.025 0 0.04 0.025 0 0.06 0.025 0 0.08 0.025 0 0.1 0.025 0 0 0.03 0 0.02 0.03 0 0.04 0.03 0 0.06 0.03 0 0.08 0.03 0 0.1 0.03 0 0 0.035 0 0.02 0.035 0 0.04 0.035 0 0.06 0.035 0 0.08 0.035 0 0.1 0.035 0 0 0.04 0 0.02 0.04 0 0.04 0.04 0 0.06 0.04 0 0.08 0.04 0 0.1 0.04 0 0 0.045 0 0.02 0.045 0 0.04 0.045 0 0.06 0.045 0 0.08 0.045 0 0.1 0.045 0 0 0.05 0 0.02 0.05 0 0.04 0.05 0 0.06 0.05 0 0.08 0.05 0 0.1 0.05 0 0 0.055 0 0.02 0.055 0 0.04 0.055 0 0.06 0.055 0 0.08 0.055 0 0.1 0.055 0 0 0.06 0 0.02 0.06 0 0.04 0.06 0 0.06 0.06 0 0.08 0.06 0 0.1 0.06 0 0 0.065 0 0.02 0.065 0 0.04 0.065 0 0.06 0.065 0 0.08 0.065 0 0.1 0.065 0 0 0.07 0 0.02 0.07 0 0.04 0.07 0 0.06 0.07 0 0.08 0.07 0 0.1 0.07 0 0 0.075 0 0.02 0.075 0 0.04 0.075 0 0.06 0.075 0 0.08 0.075 0 0.1 0.075 0 0 0.08 0 0.02 0.08 0 0.04 0.08 0 0.06 0.08 0 0.08 0.08 0 0.1 0.08 0 0 0.085 0 0.02 0.085 0 0.04 0.085 0 0.06 0.085 0 0.08 0.085 0 0.1 0.085 0 0 0.09 0 0.02 0.09 0 0.04 0.09 0 0.06 0.09 0 0.08 0.09 0 0.1 0.09 0 0 0.095 0 0.02 0.095 0 0.04 0.095 0 0.06 0.095 0 0.08 0.095 0 0.1 0.095 0 0 0.1 0 0.02 0.1 0 0.04 0.1 0 0.06 0.1 0 0.08 0.1 0 0.1 0.1 0 0 0.105 0 0.02 0.105 0 0.04 0.105 0 0.06 0.105 0 0.08 0.105 0 0.1 0.105 0 0 0.11 0 0.02 0.11 0 0.04 0.11 0 0.06 0.11 0 0.08 0.11 0 0.1 0.11 0 0 0.115 0 0.02 0.115 0 0.04 0.115 0 0.06 0.115 0 0.08 0.115 0 0.1 0.115 0 0 0.12 0 0.02 0.12 0 0.04 0.12 0 0.06 0.12 0 0.08 0.12 0 0.1 0.12 0 0 0.125 0 0.02 0.125 0 0.04 0.125 0 0.06 0.125 0 0.08 0.125 0 0.1 0.125 0 0 0.13 0 0.02 0.13 0 0.04 0.13 0 0.06 0.13 0 0.08 0.13 0 0.1 0.13 0 0 0.135 0 0.02 0.135 0 0.04 0.135 0 0.06 0.135 0 0.08 0.135 0 0.1 0.135 0 0 0.14 0 0.02 0.14 0 0.04 0.14 0 0.06 0.14 0 0.08 0.14 0 0.1 0.14 0 0 0.145 0 0.02 0.145 0 0.04 0.145 0 0.06 0.145 0 0.08 0.145 0 0.1 0.145 0 0 0.15 0 0.02 0.15 0 0.04 0.15 0 0.06 0.15 0 0.08 0.15 0 0.1 0.15 0 0 0.155 0 0.02 0.155 0 0.04 0.155 0 0.06 0.155 0 0.08 0.155 0 0.1 0.155 0 0 0.16 0 0.02 0.16 0 0.04 0.16 0 0.06 0.16 0 0.08 0.16 0 0.1 0.16 0 0 0.165 0 0.02 0.165 0 0.04 0.165 0 0.06 0.165 0 0.08 0.165 0 0.1 0.165 0 0 0.17 0 0.02 0.17 0 0.04 0.17 0 0.06 0.17 0 0.08 0.17 0 0.1 0.17 0 0 0.175 0 0.02 0.175 0 0.04 0.175 0 0.06 0.175 0 0.08 0.175 0 0.1 0.175 0 0 0.18 0 0.02 0.18 0 0.04 0.18 0 0.06 0.18 0 0.08 0.18 0 0.1 0.18 0 0 0.185 0 0.02 0.185 0 0.04 0.185 0 0.06 0.185 0 0.08 0.185 0 0.1 0.185 0 0 0.19 0 0.02 0.19 0 0.04 0.19 0 0.06 0.19 0 0.08 0.19 0 0.1 0.19 0 0 0.195 0 0.02 0.195 0 0.04 0.195 0 0.06 0.195 0 0.08 0.195 0 0.1 0.195 0 0 0.2 0 0.02 0.2 0 0.04 0.2 0 0.06 0.2 0 0.08 0.2 0 0.1 0.2 0 0 0.205 0 0.02 0.205 0 0.04 0.205 0 0.06 0.205 0 0.08 0.205 0 0.1 0.205 0 0 0.21 0 0.02 0.21 0 0.04 0.21 0 0.06 0.21 0 0.08 0.21 0 0.1 0.21 0 0 0.215 0 0.02 0.215 0 0.04 0.215 0 0.06 0.215 0 0.08 0.215 0 0.1 0.215 0 0 0.22 0 0.02 0.22 0 0.04 0.22 0 0.06 0.22 0 0.08 0.22 0 0.1 0.22 0 0 0.225 0 0.02 0.225 0 0.04 0.225 0 0.06 0.225 0 0.08 0.225 0 0.1 0.225 0 0 0.23 0 0.02 0.23 0 0.04 0.23 0 0.06 0.23 0 0.08 0.23 0 0.1 0.23 0 0 0.235 0 0.02 0.235 0 0.04 0.235 0 0.06 0.235 0 0.08 0.235 0 0.1 0.235 0 0 0.24 0 0.02 0.24 0 0.04 0.24 0 0.06 0.24 0 0.08 0.24 0 0.1 0.24 0 0 0.245 0 0.02 0.245 0 0.04 0.245 0 0.06 0.245 0 0.08 0.245 0 0.1 0.245 0 0 0.25 0 0.02 0.25 0 0.04 0.25 0 0.06 0.25 0 0.08 0.25 0 0.1 0.25 0 0 0.255 0 0.02 0.255 0 0.04 0.255 0 0.06 0.255 0 0.08 0.255 0 0.1 0.255 0 0 0.26 0 0.02 0.26 0 0.04 0.26 0 0.06 0.26 0 0.08 0.26 0 0.1 0.26 0 0 0.265 0 0.02 0.265 0 0.04 0.265 0 0.06 0.265 0 0.08 0.265 0 0.1 0.265 0 0 0.27 0 0.02 0.27 0 0.04 0.27 0 0.06 0.27 0 0.08 0.27 0 0.1 0.27 0 0 0.275 0 0.02 0.275 0 0.04 0.275 0 0.06 0.275 0 0.08 0.275 0 0.1 0.275 0 0 0.28 0 0.02 0.28 0 0.04 0.28 0 0.06 0.28 0 0.08 0.28 0 0.1 0.28 0 0 0.285 0 0.02 0.285 0 0.04 0.285 0 0.06 0.285 0 0.08 0.285 0 0.1 0.285 0 0 0.29 0 0.02 0.29 0 0.04 0.29 0 0.06 0.29 0 0.08 0.29 0 0.1 0.29 0 0 0.295 0 0.02 0.295 0 0.04 0.295 0 0.06 0.295 0 0.08 0.295 0 0.1 0.295 0 0 0.3 0 0.02 0.3 0 0.04 0.3 0 0.06 0.3 0 0.08 0.3 0 0.1 0.3 0 0 0.305 0 0.02 0.305 0 0.04 0.305 0 0.06 0.305 0 0.08 0.305 0 0.1 0.305 0 0 0.31 0 0.02 0.31 0 0.04 0.31 0 0.06 0.31 0 0.08 0.31 0 0.1 0.31 0 0 0.315 0 0.02 0.315 0 0.04 0.315 0 0.06 0.315 0 0.08 0.315 0 0.1 0.315 0 0 0.32 0 0.02 0.32 0 0.04 0.32 0 0.06 0.32 0 0.08 0.32 0 0.1 0.32 0 0 0.325 0 0.02 0.325 0 0.04 0.325 0 0.06 0.325 0 0.08 0.325 0 0.1 0.325 0 0 0.33 0 0.02 0.33 0 0.04 0.33 0 0.06 0.33 0 0.08 0.33 0 0.1 0.33 0 0 0.335 0 0.02 0.335 0 0.04 0.335 0 0.06 0.335 0 0.08 0.335 0 0.1 0.335 0 0 0.34 0 0.02 0.34 0 0.04 0.34 0 0.06 0.34 0 0.08 0.34 0 0.1 0.34 0 0 0.345 0 0.02 0.345 0 0.04 0.345 0 0.06 0.345 0 0.08 0.345 0 0.1 0.345 0 0 0.35 0 0.02 0.35 0 0.04 0.35 0 0.06 0.35 0 0.08 0.35 0 0.1 0.35 0 0 0.355 0 0.02 0.355 0 0.04 0.355 0 0.06 0.355 0 0.08 0.355 0 0.1 0.355 0 0 0.36 0 0.02 0.36 0 0.04 0.36 0 0.06 0.36 0 0.08 0.36 0 0.1 0.36 0 0 0.365 0 0.02 0.365 0 0.04 0.365 0 0.06 0.365 0 0.08 0.365 0 0.1 0.365 0 0 0.37 0 0.02 0.37 0 0.04 0.37 0 0.06 0.37 0 0.08 0.37 0 0.1 0.37 0 0 0.375 0 0.02 0.375 0 0.04 0.375 0 0.06 0.375 0 0.08 0.375 0 0.1 0.375 0 0 0.38 0 0.02 0.38 0 0.04 0.38 0 0.06 0.38 0 0.08 0.38 0 0.1 0.38 0 0 0.385 0 0.02 0.385 0 0.04 0.385 0 0.06 0.385 0 0.08 0.385 0 0.1 0.385 0 0 0.39 0 0.02 0.39 0 0.04 0.39 0 0.06 0.39 0 0.08 0.39 0 0.1 0.39 0 0 0.395 0 0.02 0.395 0 0.04 0.395 0 0.06 0.395 0 0.08 0.395 0 0.1 0.395 0 0 0.4 0 0.02 0.4 0 0.04 0.4 0 0.06 0.4 0 0.08 0.4 0 0.1 0.4 0 0 0.405 0 0.02 0.405 0 0.04 0.405 0 0.06 0.405 0 0.08 0.405 0 0.1 0.405 0 0 0.41 0 0.02 0.41 0 0.04 0.41 0 0.06 0.41 0 0.08 0.41 0 0.1 0.41 0 0 0.415 0 0.02 0.415 0 0.04 0.415 0 0.06 0.415 0 0.08 0.415 0 0.1 0.415 0 0 0.42 0 0.02 0.42 0 0.04 0.42 0 0.06 0.42 0 0.08 0.42 0 0.1 0.42 0 0 0.425 0 0.02 0.425 0 0.04 0.425 0 0.06 0.425 0 0.08 0.425 0 0.1 0.425 0 0 0.43 0 0.02 0.43 0 0.04 0.43 0 0.06 0.43 0 0.08 0.43 0 0.1 0.43 0 0 0.435 0 0.02 0.435 0 0.04 0.435 0 0.06 0.435 0 0.08 0.435 0 0.1 0.435 0 0 0.44 0 0.02 0.44 0 0.04 0.44 0 0.06 0.44 0 0.08 0.44 0 0.1 0.44 0 0 0.445 0 0.02 0.445 0 0.04 0.445 0 0.06 0.445 0 0.08 0.445 0 0.1 0.445 0 0 0.45 0 0.02 0.45 0 0.04 0.45 0 0.06 0.45 0 0.08 0.45 0 0.1 0.45 0 0 0.455 0 0.02 0.455 0 0.04 0.455 0 0.06 0.455 0 0.08 0.455 0 0.1 0.455 0 0 0.46 0 0.02 0.46 0 0.04 0.46 0 0.06 0.46 0 0.08 0.46 0 0.1 0.46 0 0 0.465 0 0.02 0.465 0 0.04 0.465 0 0.06 0.465 0 0.08 0.465 0 0.1 0.465 0 0 0.47 0 0.02 0.47 0 0.04 0.47 0 0.06 0.47 0 0.08 0.47 0 0.1 0.47 0 0 0.475 0 0.02 0.475 0 0.04 0.475 0 0.06 0.475 0 0.08 0.475 0 0.1 0.475 0 0 0.48 0 0.02 0.48 0 0.04 0.48 0 0.06 0.48 0 0.08 0.48 0 0.1 0.48 0 0 0.485 0 0.02 0.485 0 0.04 0.485 0 0.06 0.485 0 0.08 0.485 0 0.1 0.485 0 0 0.49 0 0.02 0.49 0 0.04 0.49 0 0.06 0.49 0 0.08 0.49 0 0.1 0.49 0 0 0.495 0 0.02 0.495 0 0.04 0.495 0 0.06 0.495 0 0.08 0.495 0 0.1 0.495 0 0 0.5 0 0.02 0.5 0 0.04 0.5 0 0.06 0.5 0 0.08 0.5 0 0.1 0.5 0 0 0.505 0 0.02 0.505 0 0.04 0.505 0 0.06 0.505 0 0.08 0.505 0 0.1 0.505 0 0 0.51 0 0.02 0.51 0 0.04 0.51 0 0.06 0.51 0 0.08 0.51 0 0.1 0.51 0 0 0.515 0 0.02 0.515 0 0.04 0.515 0 0.06 0.515 0 0.08 0.515 0 0.1 0.515 0 0 0.52 0 0.02 0.52 0 0.04 0.52 0 0.06 0.52 0 0.08 0.52 0 0.1 0.52 0 0 0.525 0 0.02 0.525 0 0.04 0.525 0 0.06 0.525 0 0.08 0.525 0 0.1 0.525 0 0 0.53 0 0.02 0.53 0 0.04 0.53 0 0.06 0.53 0 0.08 0.53 0 0.1 0.53 0 0 0.535 0 0.02 0.535 0 0.04 0.535 0 0.06 0.535 0 0.08 0.535 0 0.1 0.535 0 0 0.54 0 0.02 0.54 0 0.04 0.54 0 0.06 0.54 0 0.08 0.54 0 0.1 0.54 0 0 0.545 0 0.02 0.545 0 0.04 0.545 0 0.06 0.545 0 0.08 0.545 0 0.1 0.545 0 0 0.55 0 0.02 0.55 0 0.04 0.55 0 0.06 0.55 0 0.08 0.55 0 0.1 0.55 0 0 0.555 0 0.02 0.555 0 0.04 0.555 0 0.06 0.555 0 0.08 0.555 0 0.1 0.555 0 0 0.56 0 0.02 0.56 0 0.04 0.56 0 0.06 0.56 0 0.08 0.56 0 0.1 0.56 0 0 0.565 0 0.02 0.565 0 0.04 0.565 0 0.06 0.565 0 0.08 0.565 0 0.1 0.565 0 0 0.57 0 0.02 0.57 0 0.04 0.57 0 0.06 0.57 0 0.08 0.57 0 0.1 0.57 0 0 0.575 0 0.02 0.575 0 0.04 0.575 0 0.06 0.575 0 0.08 0.575 0 0.1 0.575 0 0 0.58 0 0.02 0.58 0 0.04 0.58 0 0.06 0.58 0 0.08 0.58 0 0.1 0.58 0 0 0.585 0 0.02 0.585 0 0.04 0.585 0 0.06 0.585 0 0.08 0.585 0 0.1 0.585 0 0 0.59 0 0.02 0.59 0 0.04 0.59 0 0.06 0.59 0 0.08 0.59 0 0.1 0.59 0 0 0.595 0 0.02 0.595 0 0.04 0.595 0 0.06 0.595 0 0.08 0.595 0 0.1 0.595 0 0 0.6 0 0.02 0.6 0 0.04 0.6 0 0.06 0.6 0 0.08 0.6 0 0.1 0.6 0 0 0.605 0 0.02 0.605 0 0.04 0.605 0 0.06 0.605 0 0.08 0.605 0 0.1 0.605 0 0 0.61 0 0.02 0.61 0 0.04 0.61 0 0.06 0.61 0 0.08 0.61 0 0.1 0.61 0 0 0.615 0 0.02 0.615 0 0.04 0.615 0 0.06 0.615 0 0.08 0.615 0 0.1 0.615 0 0 0.62 0 0.02 0.62 0 0.04 0.62 0 0.06 0.62 0 0.08 0.62 0 0.1 0.62 0 0 0.625 0 0.02 0.625 0 0.04 0.625 0 0.06 0.625 0 0.08 0.625 0 0.1 0.625 0 0 0.63 0 0.02 0.63 0 0.04 0.63 0 0.06 0.63 0 0.08 0.63 0 0.1 0.63 0 0 0.635 0 0.02 0.635 0 0.04 0.635 0 0.06 0.635 0 0.08 0.635 0 0.1 0.635 0 0 0.64 0 0.02 0.64 0 0.04 0.64 0 0.06 0.64 0 0.08 0.64 0 0.1 0.64 0 0 0.645 0 0.02 0.645 0 0.04 0.645 0 0.06 0.645 0 0.08 0.645 0 0.1 0.645 0 0 0.65 0 0.02 0.65 0 0.04 0.65 0 0.06 0.65 0 0.08 0.65 0 0.1 0.65 0 0 0.655 0 0.02 0.655 0 0.04 0.655 0 0.06 0.655 0 0.08 0.655 0 0.1 0.655 0 0 0.66 0 0.02 0.66 0 0.04 0.66 0 0.06 0.66 0 0.08 0.66 0 0.1 0.66 0 0 0.665 0 0.02 0.665 0 0.04 0.665 0 0.06 0.665 0 0.08 0.665 0 0.1 0.665 0 0 0.67 0 0.02 0.67 0 0.04 0.67 0 0.06 0.67 0 0.08 0.67 0 0.1 0.67 0 0 0.675 0 0.02 0.675 0 0.04 0.675 0 0.06 0.675 0 0.08 0.675 0 0.1 0.675 0 0 0.68 0 0.02 0.68 0 0.04 0.68 0 0.06 0.68 0 0.08 0.68 0 0.1 0.68 0 0 0.685 0 0.02 0.685 0 0.04 0.685 0 0.06 0.685 0 0.08 0.685 0 0.1 0.685 0 0 0.69 0 0.02 0.69 0 0.04 0.69 0 0.06 0.69 0 0.08 0.69 0 0.1 
[...]
			<PointData Scalars="VitesseX">
				<DataArray Name="VitesseX" type="Float32" format="ascii">
 0 -3.51086e-15 -1.79062e-15 -1.96807e-14 -1.60148e-14 0 0 -5.49113e-15 -1.93442e-15 -1.72859e-14 -1.87571e-14 0 0 -5.11955e-15 -8.87913e-15 -8.06502e-15 -2.27568e-14 0 0 -3.86956e-15 -1.67447e-14 3.77462e-16 -2.33834e-14 0 0 -6.8402e-15 -1.44765e-14 -3.67393e-15 -1.73422e-14 0 0 -1.61026e-14 -5.69163e-15 -1.30202e-14 -1.14716e-14 0 0 -2.38584e-14 -5.87668e-15 -8.06307e-15 -1.89497e-14 0 0 -2.11738e-14 -1.80719e-14 3.46272e-15 -2.44694e-14 0 0 -2.02232e-14 -2.0766e-14 6.8175e-16 -2.21696e-14 0 0 -2.57124e-14 -1.49165e-14 -1.0058e-14 -1.80553e-14 0 0 -1.69327e-14 -2.71194e-14 -4.47107e-15 -1.96574e-14 0 0 -9.46632e-15 -3.19671e-14 -5.47715e-15 -1.61972e-14 0 0 -2.10304e-14 -1.26742e-14 -2.48247e-14 -6.06431e-16 0 0 -3.59338e-14 9.64688e-15 -4.3099e-14 1.70154e-14 0 0 -2.454e-14 -9.24277e-15 -2.04949e-14 1.38117e-14 0 0 8.02241e-15 -4.65343e-14 8.96838e-15 8.13844e-15 0 0 2.61174e-14 -5.11291e-14 -8.45787e-15 2.8985e-14 0 0 1.55019e-14 -2.97545e-14 -3.8388e-14 5.01802e-14 0 0 -1.32545e-14 -9.92853e-15 -4.56603e-14 5.88889e-14 0 0 -1.25717e-14 -3.56471e-14 -1.47402e-14 4.44079e-14 0 0 9.54007e-15 -8.11847e-14 4.59978e-14 -1.29604e-14 0 0 -8.47403e-15 -5.38118e-14 2.09851e-14 -1.69708e-14 0 0 -7.91199e-15 -5.77398e-14 1.47932e-14 -2.05357e-14 0 0 -5.20801e-16 -7.627e-14 3.54809e-14 -3.86567e-14 0 0 -5.04492e-14 4.02102e-15 -4.47051e-14 -2.33622e-15 0 0 -4.5643e-14 8.94919e-15 -5.67301e-14 -9.71435e-15 0 0 3.61935e-14 -1.02389e-13 1.07056e-14 -3.5335e-14 0 0 4.69628e-14 -1.08526e-13 -2.40731e-14 7.70292e-15 0 0 -5.09453e-14 4.92807e-14 -1.60792e-13 5.67365e-14 0 0 -3.36472e-14 2.65005e-14 -1.07523e-13 -1.38176e-14 0 0 -1.04695e-14 -3.27189e-16 -6.37258e-14 -3.35869e-14 0 0 -2.21181e-14 1.73641e-14 -6.58565e-14 -2.79319e-14 0 0 -2.16708e-14 -1.65784e-15 -2.39783e-14 -6.05633e-14 0 0 -3.32268e-14 -1.50473e-14 8.57488e-15 -6.63058e-14 0 0 8.19037e-15 -8.10256e-14 3.24912e-14 -3.21996e-14 0 0 4.59061e-15 -6.93383e-14 -2.75654e-16 1.93561e-14 0 0 -3.77515e-14 -1.48509e-14 -5.87617e-14 1.08267e-13 0 0 -4.50241e-14 7.75505e-15 -7.17446e-14 1.40426e-13 0 0 -4.37216e-14 2.79741e-15 -2.17506e-15 5.08878e-14 0 0 -3.85715e-14 1.99304e-15 2.16565e-14 5.32782e-14 0 0 1.46367e-14 -6.76915e-14 1.03502e-13 3.36328e-14 0 0 1.82813e-14 -7.30363e-14 1.38298e-13 -6.66906e-15 0 0 2.15018e-14 -1.21545e-14 6.54505e-14 4.30427e-14 0 0 4.75402e-14 -4.42878e-15 2.14924e-14 8.3296e-14 0 0 9.92609e-14 -4.05235e-14 1.10273e-14 9.42753e-14 0 0 5.88298e-14 -2.74709e-14 1.19413e-14 8.28767e-14 0 0 -5.98654e-14 7.71499e-14 -8.10825e-14 1.19989e-13 0 0 -1.13113e-13 1.45741e-13 -1.55368e-13 1.31865e-13 0 0 -2.48961e-14 -1.82976e-14 -4.04963e-14 6.66534e-14 0 0 1.09361e-13 -2.21157e-13 5.13004e-14 5.96087e-15 0 0 1.46926e-14 -1.9829e-13 -9.51429e-14 -6.38499e-14 0 0 -1.77009e-13 -4.70772e-13 -4.15142e-13 -2.74029e-13 0 0 -8.16857e-13 -1.66418e-12 -1.47517e-12 -9.91758e-13 0 0 -3.21872e-12 -5.56673e-12 -5.23954e-12 -3.40756e-12 0 0 -1.08491e-11 -1.74766e-11 -1.75392e-11 -1.07118e-11 0 0 -3.20667e-11 -5.17408e-11 -5.19435e-11 -3.18409e-11 0 0 -8.62664e-11 -1.39713e-10 -1.39639e-10 -8.62476e-11 0 0 -2.12683e-10 -3.44084e-10 -3.44177e-10 -2.12632e-10 0 0 -4.83658e-10 -7.82788e-10 -7.82639e-10 -4.83819e-10 0 0 -1.02956e-09 -1.66613e-09 -1.66595e-09 -1.02979e-09 0 0 -2.0816e-09 -3.36806e-09 -3.36823e-09 -2.08174e-09 0 0 -4.05013e-09 -6.5532e-09 -6.55348e-09 -4.05038e-09 0 0 -7.67086e-09 -1.24118e-08 -1.24123e-08 -7.67149e-09 0 0 -1.42647e-08 -2.30817e-08 -2.30826e-08 -1.42667e-08 0 0 -2.6206e-08 -4.24053e-08 -4.24086e-08 -2.6212e-08 0 0 -4.73898e-08 -7.66878e-08 -7.67e-08 -4.74093e-08 0 0 -8.23814e-08 -1.33326e-07 -1.33363e-07 -8.24417e-08 0 0 -1.3613e-07 -2.20348e-07 -2.20448e-07 -1.36294e-07 0 0 -2.14708e-07 -3.47597e-07 -3.47843e-07 -2.15098e-07 0 0 -3.2547e-07 -5.27064e-07 -5.27592e-07 -3.26336e-07 0 0 -4.77224e-07 -7.73048e-07 -7.74116e-07 -4.78972e-07 0 0 -6.80231e-07 -1.10226e-06 -1.10429e-06 -6.83503e-07 0 0 -9.46372e-07 -1.53415e-06 -1.53776e-06 -9.52185e-07 0 0 -1.28905e-06 -2.09062e-06 -2.09667e-06 -1.29884e-06 0 0 -1.723e-06 -2.79574e-06 -2.80549e-06 -1.73879e-06 0 0 -2.26407e-06 -3.67544e-06 -3.69024e-06 -2.28801e-06 0 0 -2.92862e-06 -4.7565e-06 -4.77952e-06 -2.96566e-06 0 0 -3.73254e-06 -6.06527e-06 -6.0931e-06 -3.77932e-06 0 0 -4.69279e-06 -7.62619e-06 -7.68288e-06 -4.7758e-06 0 0 -5.81506e-06 -9.46311e-06 -9.48219e-06 -5.87775e-06 0 0 -7.13381e-06 -1.15773e-05 -1.17351e-05 -7.29895e-06 0 0 -8.58766e-06 -1.40282e-05 -1.39813e-05 -8.68328e-06 0 0 -1.03265e-05 -1.66631e-05 -1.69006e-05 -1.04898e-05 0 0 -1.20706e-05 -1.97956e-05 -1.97687e-05 -1.22699e-05 0 0 -1.41763e-05 -2.28641e-05 -2.30439e-05 -1.43159e-05 0 0 -1.62486e-05 -2.64242e-05 -2.6541e-05 -1.64224e-05 0 0 -1.85343e-05 -2.99864e-05 -2.9954e-05 -1.85177e-05 0 0 -2.08112e-05 -3.35883e-05 -3.34803e-05 -2.06551e-05 0 0 -2.30919e-05 -3.7164e-05 -3.69345e-05 -2.27157e-05 0 0 -2.53025e-05 -4.05782e-05 -4.01323e-05 -2.45735e-05 0 0 -2.73453e-05 -4.36423e-05 -4.28826e-05 -2.61139e-05 0 0 -2.91254e-05 -4.61953e-05 -4.50412e-05 -2.72546e-05 0 0 -3.05514e-05 -4.81073e-05 -4.64852e-05 -2.79373e-05 0 0 -3.15182e-05 -4.92738e-05 -4.72601e-05 -2.81037e-05 0 0 -3.20202e-05 -4.94978e-05 -4.66142e-05 -2.75098e-05 0 0 -3.1607e-05 -4.84807e-05 -4.50175e-05 -2.60373e-05 0 0 -3.05698e-05 -4.60159e-05 -4.18503e-05 -2.36314e-05 0 0 -2.85133e-05 -4.20474e-05 -3.68387e-05 -2.036e-05 0 0 -2.53343e-05 -3.63207e-05 -3.07681e-05 -1.61055e-05 0 0 -2.10782e-05 -2.91169e-05 -2.28709e-05 -1.09045e-05 0 0 -1.52315e-05 -1.95474e-05 -1.28959e-05 -4.7689e-06 0 0 -8.44675e-06 -8.32613e-06 -2.03328e-06 2.01748e-06 0 0 1.95951e-07 4.54934e-06 9.98496e-06 8.72837e-06 0 0 9.90128e-06 1.85888e-05 2.18623e-05 1.4914e-05 0 0 2.07578e-05 3.35125e-05 3.27973e-05 1.98031e-05 0 0 3.26814e-05 4.78057e-05 4.14874e-05 2.36171e-05 0 0 4.38574e-05 6.02018e-05 4.87078e-05 2.32118e-05 0 0 5.33301e-05 6.97326e-05 5.09882e-05 2.16978e-05 0 0 6.0511e-05 7.67227e-05 4.99109e-05 1.8221e-05 0 0 6.5116e-05 8.01876e-05 4.71713e-05 1.30227e-05 0 0 6.83705e-05 7.91276e-05 4.19179e-05 8.13294e-06 0 0 6.75839e-05 7.61955e-05 3.6705e-05 3.1946e-06 0 0 6.51343e-05 7.08719e-05 2.99929e-05 -1.7622e-06 0 0 6.00662e-05 6.15338e-05 2.12318e-05 -6.43072e-06 0 0 5.23697e-05 5.06869e-05 1.2203e-05 -1.05069e-05 0 0 4.39899e-05 4.01627e-05 3.68765e-06 -1.38864e-05 0 0 3.36019e-05 2.98769e-05 -3.58339e-06 -1.66525e-05 0 0 1.94135e-05 1.57594e-05 -9.57253e-06 -1.90884e-05 0 0 1.92208e-06 -3.14024e-06 -1.81613e-05 -2.15994e-05 0 0 -1.68686e-05 -2.6555e-05 -3.05745e-05 -2.45892e-05 0 0 -3.52435e-05 -5.39864e-05 -4.6749e-05 -2.79395e-05 0 0 -5.10557e-05 -8.3327e-05 -6.58091e-05 -3.13308e-05 0 0 -7.4601e-05 -0.000110104 -8.52953e-05 -3.44537e-05 0 0 -0.000119046 -0.000141485 -0.000104066 -3.98463e-05 0 0 -0.000182818 -0.000204118 -0.00013198 -5.2564e-05 0 0 -0.00025374 -0.000295807 -0.000191744 -8.5219e-05 0 0 -0.000321889 -0.000424099 -0.00029606 -0.000125679 0 0 -0.00037466 -0.000562761 -0.000423275 -0.000150486 0 0 -0.000464042 -0.000713948 -0.000556923 -0.000149983 0 0 -0.000612327 -0.00090358 -0.00065714 -0.000127646 0 0 -0.000799867 -0.0011162 -0.000668194 -2.02313e-05 0 0 -0.00100521 -0.0013361 -0.000669136 0.000205829 0 0 -0.00119112 -0.00154318 -0.000674648 0.00036757 0 0 -0.00123316 -0.00163598 -0.000704566 0.00039441 0 0 -0.00119825 -0.00155073 -0.000658371 0.000324691 0 0 -0.00107877 -0.00116351 -0.000436658 -4.161e-05 0 0 -0.000921035 -0.000958671 -0.000427621 -0.000182671 0 0 -0.000856905 -0.00105117 -0.000570906 -8.19527e-05 0 0 -0.000791302 -0.00106603 -0.000608278 -7.36463e-05 0 0 -0.000231662 -0.000442949 -0.00036699 -0.000399991 0 0 0.00115729 0.00144976 0.000440492 -0.00051183 0 0 0.00168227 0.00251648 0.00129014 -0.000387997 0 0 0.00167009 0.00250267 0.00148808 -2.74158e-05 0 0 0.00156719 0.00235195 0.00148189 0.000345064 0 0 0.00130276 0.00192938 0.00140185 0.00049738 0 0 0.00103373 0.00148814 0.0011663 0.000505699 0 0 0.000791776 0.00110339 0.00092252 0.000498609 0 0 0.000593754 0.000805159 0.000717698 0.000456764 0 0 0.000446251 0.000598103 0.000566826 0.0003911 0 0 0.000342933 0.000471082 0.000467536 0.000331778 0 0 0.00027146 0.000401291 0.000406596 0.00028074 0 0 0.000220816 0.000360034 0.000366613 0.000237359 0 0 0.000183332 0.000320759 0.000329126 0.000201022 0 0 0.000154538 0.000275831 0.000285116 0.000169798 0 0 0.000131867 0.000232839 0.000241849 0.000142693 0 0 0.000113966 0.000197379 0.00020553 0.00012155 0 0 9.96151e-05 0.000169734 0.000176663 0.000106204 0 0 8.82036e-05 0.00014648 0.000150489 9.37844e-05 0 0 8.00309e-05 0.000128188 0.000128261 8.28699e-05 0 0 7.56117e-05 0.000120636 0.000119323 7.49666e-05 0 0 7.44477e-05 0.000119261 0.000118169 7.31466e-05 0 0 7.42286e-05 0.000119287 0.000118463 7.31124e-05 0 0 7.39127e-05 0.000119159 0.000118648 7.31118e-05 0 0 7.26642e-05 0.00011743 0.000117169 7.22051e-05 0 0 6.91508e-05 0.000111812 0.000111624 6.88355e-05 0 0 6.26229e-05 0.000101233 0.000101057 6.23394e-05 0 0 5.30781e-05 8.58087e-05 8.56816e-05 5.28732e-05 0 0 4.12291e-05 6.66539e-05 6.65675e-05 4.10899e-05 0 0 2.86944e-05 4.63897e-05 4.63364e-05 2.86082e-05 0 0 1.73932e-05 2.81206e-05 2.8092e-05 1.73469e-05 0 0 9.03312e-06 1.46056e-05 1.45928e-05 9.01232e-06 0 0 4.03773e-06 6.52939e-06 6.52469e-06 4.03012e-06 0 0 1.60559e-06 2.59674e-06 2.59531e-06 1.60327e-06 0 0 5.93816e-07 9.60507e-07 9.60127e-07 5.932e-07 0 0 2.113e-07 3.41815e-07 3.41722e-07 2.11149e-07 0 0 7.36577e-08 1.19163e-07 1.19141e-07 7.3622e-08 0 0 2.53631e-08 4.10342e-08 4.10293e-08 2.53548e-08 0 0 8.65795e-09 1.40079e-08 1.40068e-08 8.65584e-09 0 0 2.93463e-09 4.74796e-09 4.74785e-09 2.93392e-09 0 0 9.88372e-10 1.59916e-09 1.59902e-09 9.88123e-10 0 0 3.3089e-10 5.35316e-10 5.35343e-10 3.30589e-10 0 0 1.10118e-10 1.78033e-10 1.78201e-10 1.09769e-10 0 0 3.63802e-11 5.88139e-11 5.88967e-11 3.6182e-11 0 0 1.19051e-11 1.92683e-11 1.91556e-11 1.19597e-11 0 0 3.84986e-12 6.19973e-12 5.99888e-12 3.97665e-12 0 0 1.25128e-12 1.82092e-12 1.77852e-12 1.33353e-12 0 0 4.36893e-13 2.98824e-13 5.03108e-13 4.84273e-13 0 0 -1.5659e-14 9.5051e-14 -1.33424e-13 2.45401e-13 0 0 -2.28956e-13 9.34676e-14 -3.97758e-13 2.23382e-13 0 0 -1.30541e-13 -2.59157e-13 -8.70779e-14 -3.09928e-15 0 0 -1.11241e-13 -4.04907e-13 7.95173e-14 -1.13453e-13 0 0 -8.20825e-14 -4.01658e-13 -1.91129e-14 -5.59105e-14 0 0 4.27479e-14 -4.31838e-13 -1.71308e-13 4.93247e-14 0 0 4.14471e-14 -4.3866e-13 -8.41406e-14 -5.9899e-14 0 0 -2.14762e-13 -1.69789e-13 -3.39352e-14 -4.0287e-13 0 0 -4.4007e-13 1.41966e-13 -2.77553e-13 -3.83649e-13 0 0 -4.35678e-13 1.50665e-13 -3.75335e-13 -2.39472e-13 0 0 -2.79069e-13 -1.47486e-13 -8.93706e-14 -3.56e-13 0 0 -3.55407e-13 -1.2601e-13 -1.36969e-13 -2.2788e-13 0 0 -4.55369e-13 6.2317e-14 -4.58676e-13 2.82672e-14 0 0 -3.88719e-13 8.06989e-15 -4.93672e-13 3.98092e-14 0
				</DataArray>
				<DataArray Name="VitesseY" type="Float32" format="ascii">