<?xml version="1.0"?>
<VTKFile type="PolyData">
	<PolyData>
		<Piece NumberOfPoints="1206" NumberOfPolys="1000">
			<Points>
				<DataArray type="Float32" NumberOfComponents="3" format="ascii">
 0 0 0 0.02 0 0 0.04 0 0 0.06 0 0 0.08 0 0 0.1 0 0 0 0.005 0 0.02 0.005 0 0.04 0.005 0 0.06 0.005 0 0.08 0.005 0 0.1 0.005 0 0 0.01 0 0.02 0.01 0 0.04 0.01 0 0.06 0.01 0 0.08 0.01 0 0.1 0.01 0 0 0.015 0 0.02 0.015 0 0.04 0.015 0 0.06 0.015 0 0.08 0.015 0 0.1 0.015 0 0 0.02 0 0.02 0.02 0 0.04 0.02 0 0.06 0.02 0 0.08 0.02 0 0.1 0.02 0 0 0.025 0 0.02 0.025 0 0.04 0.025 0 0.06 0.025 0 0.08 0.025 0 0.1 0.025 0 0 0.03 0 0.02 0.03 0 0.04 0.03 0 0.06 0.03 0 0.08 0.03 0 0.1 0.03 0 0 0.035 0 0.02 0.035 0 0.04 0.035 0 0.06 0.035 0 0.08 0.035 0 0.1 0.035 0 0 0.04 0 0.02 0.04 0 0.04 0.04 0 0.06 0.04 0 0.08 0.04 0 0.1 0.04 0 0 0.045 0 0.02 0.045 0 0.04 0.045 0 0.06 0.045 0 0.08 0.045 0 0.1 0.045 0 0 0.05 0 0.02 0.05 0 0.04 0.05 0 0.06 0.05 0 0.08 0.05 0 0.1 0.05 0 0 0.055 0 0.02 0.055 0 0.04 0.055 0 0.06 0.055 0 0.08 0.055 0 0.1 0.055 0 0 0.06 0 0.02 0.06 0 0.04 0.06 0 0.06 0.06 0 0.08 0.06 0 0.1 0.06 0 0 0.065 0 0.02 0.065 0 0.04 0.065 0 0.06 0.065 0 0.08 0.065 0 0.1 0.065 0 0 0.07 0 0.02 0.07 0 0.04 0.07 0 0.06 0.07 0 0.08 0.07 0 0.1 0.07 0 0 0.075 0 0.02 0.075 0 0.04 0.075 0 0.06 0.075 0 0.08 0.075 0 0.1 0.075 0 0 0.08 0 0.02 0.08 0 0.04 0.08 0 0.06 0.08 0 0.08 0.08 0 0.1 0.08 0 0 0.085 0 0.02 0.085 0 0.04 0.085 0 0.06 0.085 0 0.08 0.085 0 0.1 0.085 0 0 0.09 0 0.02 0.09 0 0.04 0.09 0 0.06 0.09 0 0.08 0.09 0 0.1 0.09 0 0 0.095 0 0.02 0.095 0 0.04 0.095 0 0.06 0.095 0 0.08 0.095 0 0.1 0.095 0 0 0.1 0 0.02 0.1 0 0.04 0.1 0 0.06 0.1 0 0.08 0.1 0 0.1 0.1 0 0 0.105 0 0.02 0.105 0 0.04 0.105 0 0.06 0.105 0 0.08 0.105 0 0.1 0.105 0 0 0.11 0 0.02 0.11 0 0.04 0.11 0 0.06 0.11 0 0.08 0.11 0 0.1 0.11 0 0 0.115 0 0.02 0.115 0 0.04 0.115 0 0.06 0.115 0 0.08 0.115 0 0.1 0.115 0 0 0.12 0 0.02 0.12 0 0.04 0.12 0 0.06 0.12 0 0.08 0.12 0 0.1 0.12 0 0 0.125 0 0.02 0.125 0 0.04 0.125 0 0.06 0.125 0 0.08 0.125 0 0.1 0.125 0 0 0.13 0 0.02 0.13 0 0.04 0.13 0 0.06 0.13 0 0.08 0.13 0 0.1 0.13 0 0 0.135 0 0.02 0.135 0 0.04 0.135 0 0.06 0.135 0 0.08 0.135 0 0.1 0.135 0 0 0.14 0 0.02 0.14 0 0.04 0.14 0 0.06 0.14 0 0.08 0.14 0 0.1 0.14 0 0 0.145 0 0.02 0.145 0 0.04 0.145 0 0.06 0.145 0 0.08 0.145 0 0.1 0.145 0 0 0.15 0 0.02 0.15 0 0.04 0.15 0 0.06 0.15 0 0.08 0.15 0 0.1 0.15 0 0 0.155 0 0.02 0.155 0 0.04 0.155 0 0.06 0.155 0 0.08 0.155 0 0.1 0.155 0 0 0.16 0 0.02 0.16 0 0.04 0.16 0 0.06 0.16 0 0.08 0.16 0 0.1 0.16 0 0 0.165 0 0.02 0.165 0 0.04 0.165 0 0.06 0.165 0 0.08 0.165 0 0.1 0.165 0 0 0.17 0 0.02 0.17 0 0.04 0.17 0 0.06 0.17 0 0.08 0.17 0 0.1 0.17 0 0 0.175 0 0.02 0.175 0 0.04 0.175 0 0.06 0.175 0 0.08 0.175 0 0.1 0.175 0 0 0.18 0 0.02 0.18 0 0.04 0.18 0 0.06 0.18 0 0.08 0.18 0 0.1 0.18 0 0 0.185 0 0.02 0.185 0 0.04 0.185 0 0.06 0.185 0 0.08 0.185 0 0.1 0.185 0 0 0.19 0 0.02 0.19 0 0.04 0.19 0 0.06 0.19 0 0.08 0.19 0 0.1 0.19 0 0 0.195 0 0.02 0.195 0 0.04 0.195 0 0.06 0.195 0 0.08 0.195 0 0.1 0.195 0 0 0.2 0 0.02 0.2 0 0.04 0.2 0 0.06 0.2 0 0.08 0.2 0 0.1 0.2 0 0 0.205 0 0.02 0.205 0 0.04 0.205 0 0.06 0.205 0 0.08 0.205 0 0.1 0.205 0 0 0.21 0 0.02 0.21 0 0.04 0.21 0 0.06 0.21 0 0.08 0.21 0 0.1 0.21 0 0 0.215 0 0.02 0.215 0 0.04 0.215 0 0.06 0.215 0 0.08 0.215 0 0.1 0.215 0 0 0.22 0 0.02 0.22 0 0.04 0.22 0 0.06 0.22 0 0.08 0.22 0 0.1 0.22 0 0 0.225 0 0.02 0.225 0 0.04 0.225 0 0.06 0.225 0 0.08 0.225 0 0.1 0.225 0 0 0.23 0 0.02 0.23 0 0.04 0.23 0 0.06 0.23 0 0.08 0.23 0 0.1 0.23 0 0 0.235 0 0.02 0.235 0 0.04 0.235 0 0.06 0.235 0 0.08 0.235 0 0.1 0.235 0 0 0.24 0 0.02 0.24 0 0.04 0.24 0 0.06 0.24 0 0.08 0.24 0 0.1 0.24 0 0 0.245 0 0.02 0.245 0 0.04 0.245 0 0.06 0.245 0 0.08 0.245 0 0.1 0.245 0 0 0.25 0 0.02 0.25 0 0.04 0.25 0 0.06 0.25 0 0.08 0.25 0 0.1 0.25 0 0 0.255 0 0.02 0.255 0 0.04 0.255 0 0.06 0.255 0 0.08 0.255 0 0.1 0.255 0 0 0.26 0 0.02 0.26 0 0.04 0.26 0 0.06 0.26 0 0.08 0.26 0 0.1 0.26 0 0 0.265 0 0.02 0.265 0 0.04 0.265 0 0.06 0.265 0 0.08 0.265 0 0.1 0.265 0 0 0.27 0 0.02 0.27 0 0.04 0.27 0 0.06 0.27 0 0.08 0.27 0 0.1 0.27 0 0 0.275 0 0.02 0.275 0 0.04 0.275 0 0.06 0.275 0 0.08 0.275 0 0.1 0.275 0 0 0.28 0 0.02 0.28 0 0.04 0.28 0 0.06 0.28 0 0.08 0.28 0 0.1 0.28 0 0 0.285 0 0.02 0.285 0 0.04 0.285 0 0.06 0.285 0 0.08 0.285 0 0.1 0.285 0 0 0.29 0 0.02 0.29 0 0.04 0.29 0 0.06 0.29 0 0.08 0.29 0 0.1 0.29 0 0 0.295 0 0.02 0.295 0 0.04 0.295 0 0.06 0.295 0 0.08 0.295 0 0.1 0.295 0 0 0.3 0 0.02 0.3 0 0.04 0.3 0 0.06 0.3 0 0.08 0.3 0 0.1 0.3 0 0 0.305 0 0.02 0.305 0 0.04 0.305 0 0.06 0.305 0 0.08 0.305 0 0.1 0.305 0 0 0.31 0 0.02 0.31 0 0.04 0.31 0 0.06 0.31 0 0.08 0.31 0 0.1 0.31 0 0 0.315 0 0.02 0.315 0 0.04 0.315 0 0.06 0.315 0 0.08 0.315 0 0.1 0.315 0 0 0.32 0 0.02 0.32 0 0.04 0.32 0 0.06 0.32 0 0.08 0.32 0 0.1 0.32 0 0 0.325 0 0.02 0.325 0 0.04 0.325 0 0.06 0.325 0 0.08 0.325 0 0.1 0.325 0 0 0.33 0 0.02 0.33 0 0.04 0.33 0 0.06 0.33 0 0.08 0.33 0 0.1 0.33 0 0 0.335 0 0.02 0.335 0 0.04 0.335 0 0.06 0.335 0 0.08 0.335 0 0.1 0.335 0 0 0.34 0 0.02 0.34 0 0.04 0.34 0 0.06 0.34 0 0.08 0.34 0 0.1 0.34 0 0 0.345 0 0.02 0.345 0 0.04 0.345 0 0.06 0.345 0 0.08 0.345 0 0.1 0.345 0 0 0.35 0 0.02 0.35 0 0.04 0.35 0 0.06 0.35 0 0.08 0.35 0 0.1 0.35 0 0 0.355 0 0.02 0.355 0 0.04 0.355 0 0.06 0.355 0 0.08 0.355 0 0.1 0.355 0 0 0.36 0 0.02 0.36 0 0.04 0.36 0 0.06 0.36 0 0.08 0.36 0 0.1 0.36 0 0 0.365 0 0.02 0.365 0 0.04 0.365 0 0.06 0.365 0 0.08 0.365 0 0.1 0.365 0 0 0.37 0 0.02 0.37 0 0.04 0.37 0 0.06 0.37 0 0.08 0.37 0 0.1 0.37 0 0 0.375 0 0.02 0.375 0 0.04 0.375 0 0.06 0.375 0 0.08 0.375 0 0.1 0.375 0 0 0.38 0 0.02 0.38 0 0.04 0.38 0 0.06 0.38 0 0.08 0.38 0 0.1 0.38 0 0 0.385 0 0.02 0.385 0 0.04 0.385 0 0.06 0.385 0 0.08 0.385 0 0.1 0.385 0 0 0.39 0 0.02 0.39 0 0.04 0.39 0 0.06 0.39 0 0.08 0.39 0 0.1 0.39 0 0 0.395 0 0.02 0.395 0 0.04 0.395 0 0.06 0.395 0 0.08 0.395 0 0.1 0.395 0 0 0.4 0 0.02 0.4 0 0.04 0.4 0 0.06 0.4 0 0.08 0.4 0 0.1 0.4 0 0 0.405 0 0.02 0.405 0 0.04 0.405 0 0.06 0.405 0 0.08 0.405 0 0.1 0.405 0 0 0.41 0 0.02 0.41 0 0.04 0.41 0 0.06 0.41 0 0.08 0.41 0 0.1 0.41 0 0 0.415 0 0.02 0.415 0 0.04 0.415 0 0.06 0.415 0 0.08 0.415 0 0.1 0.415 0 0 0.42 0 0.02 0.42 0 0.04 0.42 0 0.06 0.42 0 0.08 0.42 0 0.1 0.42 0 0 0.425 0 0.02 0.425 0 0.04 0.425 0 0.06 0.425 0 0.08 0.425 0 0.1 0.425 0 0 0.43 0 0.02 0.43 0 0.04 0.43 0 0.06 0.43 0 0.08 0.43 0 0.1 0.43 0 0 0.435 0 0.02 0.435 0 0.04 0.435 0 0.06 0.435 0 0.08 0.435 0 0.1 0.435 0 0 0.44 0 0.02 0.44 0 0.04 0.44 0 0.06 0.44 0 0.08 0.44 0 0.1 0.44 0 0 0.445 0 0.02 0.445 0 0.04 0.445 0 0.06 0.445 0 0.08 0.445 0 0.1 0.445 0 0 0.45 0 0.02 0.45 0 0.04 0.45 0 0.06 0.45 0 0.08 0.45 0 0.1 0.45 0 0 0.455 0 0.02 0.455 0 0.04 0.455 0 0.06 0.455 0 0.08 0.455 0 0.1 0.455 0 0 0.46 0 0.02 0.46 0 0.04 0.46 0 0.06 0.46 0 0.08 0.46 0 0.1 0.46 0 0 0.465 0 0.02 0.465 0 0.04 0.465 0 0.06 0.465 0 0.08 0.465 0 0.1 0.465 0 0 0.47 0 0.02 0.47 0 0.04 0.47 0 0.06 0.47 0 0.08 0.47 0 0.1 0.47 0 0 0.475 0 0.02 0.475 0 0.04 0.475 0 0.06 0.475 0 0.08 0.475 0 0.1 0.475 0 0 0.48 0 0.02 0.48 0 0.04 0.48 0 0.06 0.48 0 0.08 0.48 0 0.1 0.48 0 0 0.485 0 0.02 0.485 0 0.04 0.485 0 0.06 0.485 0 0.08 0.485 0 0.1 0.485 0 0 0.49 0 0.02 0.49 0 0.04 0.49 0 0.06 0.49 0 0.08 0.49 0 0.1 0.49 0 0 0.495 0 0.02 0.495 0 0.04 0.495 0 0.06 0.495 0 0.08 0.495 0 0.1 0.495 0 0 0.5 0 0.02 0.5 0 0.04 0.5 0 0.06 0.5 0 0.08 0.5 0 0.1 0.5 0 0 0.505 0 0.02 0.505 0 0.04 0.505 0 0.06 0.505 0 0.08 0.505 0 0.1 0.505 0 0 0.51 0 0.02 0.51 0 0.04 0.51 0 0.06 0.51 0 0.08 0.51 0 0.1 0.51 0 0 0.515 0 0.02 0.515 0 0.04 0.515 0 0.06 0.515 0 0.08 0.515 0 0.1 0.515 0 0 0.52 0 0.02 0.52 0 0.04 0.52 0 0.06 0.52 0 0.08 0.52 0 0.1 0.52 0 0 0.525 0 0.02 0.525 0 0.04 0.525 0 0.06 0.525 0 0.08 0.525 0 0.1 0.525 0 0 0.53 0 0.02 0.53 0 0.04 0.53 0 0.06 0.53 0 0.08 0.53 0 0.1 0.53 0 0 0.535 0 0.02 0.535 0 0.04 0.535 0 0.06 0.535 0 0.08 0.535 0 0.1 0.535 0 0 0.54 0 0.02 0.54 0 0.04 0.54 0 0.06 0.54 0 0.08 0.54 0 0.1 0.54 0 0 0.545 0 0.02 0.545 0 0.04 0.545 0 0.06 0.545 0 0.08 0.545 0 0.1 0.545 0 0 0.55 0 0.02 0.55 0 0.04 0.55 0 0.06 0.55 0 0.08 0.55 0 0.1 0.55 0 0 0.555 0 0.02 0.555 0 0.04 0.555 0 0.06 0.555 0 0.08 0.555 0 0.1 0.555 0 0 0.56 0 0.02 0.56 0 0.04 0.56 0 0.06 0.56 0 0.08 0.56 0 0.1 0.56 0 0 0.565 0 0.02 0.565 0 0.04 0.565 0 0.06 0.565 0 0.08 0.565 0 0.1 0.565 0 0 0.57 0 0.02 0.57 0 0.04 0.57 0 0.06 0.57 0 0.08 0.57 0 0.1 0.57 0 0 0.575 0 0.02 0.575 0 0.04 0.575 0 0.06 0.575 0 0.08 0.575 0 0.1 0.575 0 0 0.58 0 0.02 0.58 0 0.04 0.58 0 0.06 0.58 0 0.08 0.58 0 0.1 0.58 0 0 0.585 0 0.02 0.585 0 0.04 0.585 0 0.06 0.585 0 0.08 0.585 0 0.1 0.585 0 0 0.59 0 0.02 0.59 0 0.04 0.59 0 0.06 0.59 0 0.08 0.59 0 0.1 0.59 0 0 0.595 0 0.02 0.595 0 0.04 0.595 0 0.06 0.595 0 0.08 0.595 0 0.1 0.595 0 0 0.6 0 0.02 0.6 0 0.04 0.6 0 0.06 0.6 0 0.08 0.6 0 0.1 0.6 0 0 0.605 0 0.02 0.605 0 0.04 0.605 0 0.06 0.605 0 0.08 0.605 0 0.1 0.605 0 0 0.61 0 0.02 0.61 0 0.04 0.61 0 0.06 0.61 0 0.08 0.61 0 0.1 0.61 0 0 0.615 0 0.02 0.615 0 0.04 0.615 0 0.06 0.615 0 0.08 0.615 0 0.1 0.615 0 0 0.62 0 0.02 0.62 0 0.04 0.62 0 0.06 0.62 0 0.08 0.62 0 0.1 0.62 0 0 0.625 0 0.02 0.625 0 0.04 0.625 0 0.06 0.625 0 0.08 0.625 0 0.1 0.625 0 0 0.63 0 0.02 0.63 0 0.04 0.63 0 0.06 0.63 0 0.08 0.63 0 0.1 0.63 0 0 0.635 0 0.02 0.635 0 0.04 0.635 0 0.06 0.635 0 0.08 0.635 0 0.1 0.635 0 0 0.64 0 0.02 0.64 0 0.04 0.64 0 0.06 0.64 0 0.08 0.64 0 0.1 0.64 0 0 0.645 0 0.02 0.645 0 0.04 0.645 0 0.06 0.645 0 0.08 0.645 0 0.1 0.645 0 0 0.65 0 0.02 0.65 0 0.04 0.65 0 0.06 0.65 0 0.08 0.65 0 0.1 0.65 0 0 0.655 0 0.02 0.655 0 0.04 0.655 0 0.06 0.655 0 0.08 0.655 0 0.1 0.655 0 0 0.66 0 0.02 0.66 0 0.04 0.66 0 0.06 0.66 0 0.08 0.66 0 0.1 0.66 0 0 0.665 0 0.02 0.665 0 0.04 0.665 0 0.06 0.665 0 0.08 0.665 0 0.1 0.665 0 0 0.67 0 0.02 0.67 0 0.04 0.67 0 0.06 0.67 0 0.08 0.67 0 0.1 0.67 0 0 0.675 0 0.02 0.675 0 0.04 0.675 0 0.06 0.675 0 0.08 0.675 0 0.1 0.675 0 0 0.68 0 0.02 0.68 0 0.04 0.68 0 0.06 0.68 0 0.08 0.68 0 0.1 0.68 0 0 0.685 0 0.02 0.685 0 0.04 0.685 0 0.06 0.685 0 0.08 0.685 0 0.1 0.685 0 0 0.69 0 0.02 0.69 0 0.04 0.69 0 0.06 0.69 0 0.08 0.69 0 0.1 
[...]
			<PointData Scalars="VitesseX">
				<DataArray Name="VitesseX" type="Float32" format="ascii">
 0 -2.14988e-14 -3.78693e-15 1.18302e-14 1.60915e-14 0 0 -1.51489e-14 -1.01935e-14 1.53033e-14 1.37819e-14 0 0 -7.36255e-15 -1.52196e-14 1.66787e-14 1.24848e-14 0 0 -5.12017e-15 -1.35716e-14 1.48054e-14 1.41937e-14 0 0 3.71009e-16 -1.58389e-14 1.41795e-14 1.87441e-14 0 0 4.41673e-15 -1.43678e-14 1.48362e-14 1.86242e-14 0 0 -6.32562e-15 8.05511e-15 3.2268e-15 2.22048e-14 0 0 -7.8068e-15 1.57614e-14 9.29379e-15 1.608e-14 0 0 6.71395e-15 1.04213e-14 1.26699e-14 1.80912e-14 0 0 1.11425e-14 1.80077e-14 9.72018e-15 1.78472e-14 0 0 6.39032e-15 3.18328e-14 8.92262e-15 9.41842e-15 0 0 5.99016e-15 3.44807e-14 1.03435e-14 5.86322e-15 0 0 -5.5036e-15 4.60917e-14 4.59961e-15 2.25208e-15 0 0 -6.75813e-16 2.89356e-14 1.28584e-14 -4.43867e-15 0 0 3.732e-15 1.50183e-14 1.64148e-14 -4.72236e-15 0 0 -1.531e-14 2.74589e-14 1.55741e-14 -1.02707e-14 0 0 -9.49773e-15 -3.5379e-15 4.5912e-14 -2.07284e-14 0 0 7.6476e-15 -2.68609e-14 6.25987e-14 -2.46172e-14 0 0 -1.60059e-14 2.33718e-14 3.10393e-15 1.86474e-14 0 0 -3.22535e-15 5.84484e-15 -3.77531e-15 3.75219e-14 0 0 2.37054e-14 -2.51208e-14 -9.66925e-15 4.60883e-14 0 0 -2.14422e-14 2.86559e-14 -4.89178e-14 5.61466e-14 0 0 -4.1923e-15 -1.90731e-14 1.76338e-14 1.60846e-14 0 0 3.73039e-14 -6.8756e-14 4.85448e-14 1.91715e-14 0 0 -1.0193e-14 1.00253e-14 -8.86687e-15 4.21776e-14 0 0 -2.99482e-14 4.20209e-14 -2.12837e-15 1.77776e-14 0 0 3.11874e-14 -4.35649e-14 1.03168e-13 -3.66712e-14 0 0 3.57925e-14 -2.15081e-14 7.40857e-14 -1.61271e-14 0 0 2.45831e-14 2.78245e-14 8.38009e-15 2.13772e-14 0 0 4.99848e-14 -1.47602e-14 4.28492e-14 -7.90559e-15 0 0 2.6588e-15 5.442e-14 -1.5884e-14 5.69307e-15 0 0 2.25842e-14 2.42187e-14 2.1368e-14 -1.82218e-14 0 0 5.23853e-14 -1.36698e-14 1.5282e-14 1.63671e-14 0 0 2.9787e-14 2.40624e-14 -5.72892e-14 8.8304e-14 0 0 -8.56973e-15 6.63428e-14 -7.32623e-14 8.28635e-14 0 0 -2.66545e-14 5.38609e-14 -1.81962e-14 2.74799e-14 0 0 2.29027e-15 -4.47781e-14 9.23202e-14 -1.92686e-14 0 0 -1.81665e-14 -9.07179e-15 4.40019e-14 2.06281e-14 0 0 -1.26703e-14 1.83169e-14 1.88558e-14 9.66438e-15 0 0 -2.26532e-14 6.77842e-14 -6.055e-14 6.41276e-14 0 0 -5.35741e-14 9.22887e-14 -7.26647e-14 5.02812e-14 0 0 -7.83503e-15 -2.92375e-15 2.07899e-14 -2.89738e-14 0 0 7.62635e-14 -7.3549e-14 -9.95764e-15 2.47211e-14 0 0 4.75166e-14 1.54644e-14 -1.34303e-13 9.58444e-14 0 0 8.28982e-14 -4.58792e-14 -3.70472e-14 5.85851e-15 0 0 1.01129e-13 -7.86984e-14 -7.07365e-15 -1.59334e-14 0 0 6.03068e-14 8.7435e-15 -1.65094e-13 1.3685e-13 0 0 2.99544e-14 4.3781e-14 -1.92346e-13 1.87687e-13 0 0 -4.8033e-15 4.14386e-14 -1.22803e-13 1.14983e-13 0 0 6.37301e-14 -9.2881e-14 3.66279e-14 -8.85344e-15 0 0 4.19426e-14 -7.51203e-14 5.5773e-14 -3.66505e-14 0 0 5.95729e-14 -4.29729e-14 -1.94388e-14 4.87932e-14 0 0 1.3155e-13 -5.67403e-14 6.47513e-16 3.81445e-14 0 0 2.00815e-13 -7.97721e-14 8.43271e-14 -1.8255e-14 0 0 1.3821e-13 1.10401e-13 -7.80293e-14 1.15706e-13 0 0 5.08813e-14 2.35883e-13 -1.12363e-13 1.30209e-13 0 0 9.94303e-14 1.2874e-13 4.15208e-14 4.41451e-14 0 0 8.37073e-14 1.36734e-13 7.6058e-14 4.67738e-14 0 0 1.86669e-13 2.10186e-14 1.76783e-13 2.81605e-15 0 0 2.00844e-13 2.22652e-14 2.13665e-13 -7.7465e-14 0 0 6.478e-14 2.70527e-13 6.52407e-16 2.14662e-14 0 0 1.39018e-13 2.22961e-13 -2.52315e-14 6.0526e-14 0 0 1.89701e-13 7.96863e-14 5.26526e-14 -1.56796e-14 0 0 8.00707e-14 -1.39383e-13 -3.68166e-14 -1.06115e-13 0 0 -4.65565e-13 -9.64954e-13 -8.04729e-13 -5.719e-13 0 0 -2.89088e-12 -4.48118e-12 -4.75442e-12 -2.70182e-12 0 0 -1.20218e-11 -1.98867e-11 -1.96868e-11 -1.21734e-11 0 0 -4.54088e-11 -7.39776e-11 -7.3917e-11 -4.5639e-11 0 0 -1.51752e-10 -2.45442e-10 -2.46159e-10 -1.51718e-10 0 0 -4.53719e-10 -7.34818e-10 -7.35089e-10 -4.54212e-10 0 0 -1.23809e-09 -2.0046e-09 -2.00479e-09 -1.23922e-09 0 0 -3.13911e-09 -5.08084e-09 -5.08189e-09 -3.1414e-09 0 0 -7.54165e-09 -1.22054e-08 -1.22096e-08 -7.54745e-09 0 0 -1.74717e-08 -2.82791e-08 -2.82919e-08 -1.74908e-08 0 0 -3.95523e-08 -6.40348e-08 -6.40812e-08 -3.96271e-08 0 0 -8.65225e-08 -1.40149e-07 -1.40336e-07 -8.68258e-08 0 0 -1.76587e-07 -2.86261e-07 -2.86923e-07 -1.7766e-07 0 0 -3.31924e-07 -5.38691e-07 -5.40701e-07 -3.35176e-07 0 0 -5.8214e-07 -9.46178e-07 -9.51437e-07 -5.90649e-07 0 0 -9.66113e-07 -1.57312e-06 -1.58539e-06 -9.85951e-07 0 0 -1.53309e-06 -2.50172e-06 -2.52781e-06 -1.57535e-06 0 0 -2.34374e-06 -3.8338e-06 -3.88524e-06 -2.42674e-06 0 0 -3.46946e-06 -5.69143e-06 -5.78746e-06 -3.62579e-06 0 0 -4.99203e-06 -8.21066e-06 -8.37431e-06 -5.25369e-06 0 0 -6.99801e-06 -1.15544e-05 -1.18512e-05 -7.48414e-06 0 0 -9.57832e-06 -1.58474e-05 -1.62246e-05 -1.01942e-05 0 0 -1.28331e-05 -2.13111e-05 -2.21826e-05 -1.41504e-05 0 0 -1.67761e-05 -2.8009e-05 -2.85707e-05 -1.80522e-05 0 0 -2.16758e-05 -3.59152e-05 -3.78986e-05 -2.40939e-05 0 0 -2.71205e-05 -4.5925e-05 -4.71505e-05 -2.9994e-05 0 0 -3.39158e-05 -5.59428e-05 -5.84062e-05 -3.74487e-05 0 0 -4.09419e-05 -6.90357e-05 -7.20187e-05 -4.58904e-05 0 0 -4.95475e-05 -8.25484e-05 -8.53074e-05 -5.40813e-05 0 0 -5.80415e-05 -9.62832e-05 -9.94678e-05 -6.31444e-05 0 0 -6.79764e-05 -0.000111944 -0.000114581 -7.21831e-05 0 0 -7.80348e-05 -0.000127781 -0.0001293 -8.06733e-05 0 0 -8.82939e-05 -0.000143136 -0.000142783 -8.7982e-05 0 0 -9.90421e-05 -0.000157621 -0.000154339 -9.36108e-05 0 0 -0.000109656 -0.00017113 -0.000163592 -9.72106e-05 0 0 -0.000120126 -0.000183504 -0.000170248 -9.93496e-05 0 0 -0.000130392 -0.000194332 -0.000174357 -9.77145e-05 0 0 -0.000140144 -0.000203114 -0.000174217 -9.34023e-05 0 0 -0.000149189 -0.000209524 -0.000171662 -8.64711e-05 0 0 -0.000157441 -0.000213577 -0.000164377 -7.66218e-05 0 0 -0.000164345 -0.000215658 -0.000156501 -6.77157e-05 0 0 -0.000169406 -0.00021616 -0.000149665 -6.03746e-05 0 0 -0.000168263 -0.000215376 -0.000151225 -6.28383e-05 0 0 -0.00016555 -0.000216618 -0.000158182 -7.10645e-05 0 0 -0.000165939 -0.000223236 -0.000176848 -8.69323e-05 0 0 -0.000170213 -0.000236464 -0.000200228 -0.000108308 0 0 -0.000180899 -0.000262286 -0.000231347 -0.000138304 0 0 -0.000190353 -0.00030192 -0.000282676 -0.000169775 0 0 -0.00020155 -0.000344318 -0.000340878 -0.000200117 0 0 -0.000221431 -0.000383831 -0.000397114 -0.000231105 0 0 -0.000251514 -0.000418484 -0.000445566 -0.000264154 0 0 -0.000294554 -0.000479916 -0.00049397 -0.000307368 0 0 -0.000345958 -0.000581001 -0.000574153 -0.000364249 0 0 -0.000397638 -0.000709853 -0.000693108 -0.000407936 0 0 -0.000442681 -0.000853896 -0.000846061 -0.000406203 0 0 -0.000479344 -0.000996729 -0.00100714 -0.000382965 0 0 -0.000558913 -0.00115623 -0.00104198 -0.000290193 0 0 -0.000709847 -0.00133026 -0.00102404 -6.95689e-05 0 0 -0.000878226 -0.00146169 -0.000941998 0.000162028 0 0 -0.000960477 -0.00152096 -0.000885248 0.000252523 0 0 -0.00094209 -0.00147405 -0.000820463 0.000212409 0 0 -0.000870866 -0.00128034 -0.00064402 3.51358e-06 0 0 -0.000721564 -0.000972384 -0.000640762 -0.000286816 0 0 -0.000600772 -0.000981822 -0.000778922 -0.000263732 0 0 -0.000530123 -0.00100602 -0.000934873 -0.000229534 0 0 -0.000167852 -0.000611196 -0.000770897 -0.000402198 0 0 0.00123976 0.00145045 0.000287979 -0.000623574 0 0 0.00183548 0.00270765 0.00142105 -0.000536347 0 0 0.00181551 0.00268767 0.00159835 -0.000172688 0 0 0.00168217 0.00246062 0.00157211 0.000327625 0 0 0.00142185 0.00201787 0.00143504 0.000518175 0 0 0.00117836 0.00162223 0.001224 0.000518061 0 0 0.000976054 0.00131813 0.00103965 0.000515153 0 0 0.000823831 0.00110834 0.000900089 0.000507928 0 0 0.000714044 0.000970718 0.00080712 0.000489153 0 0 0.000624349 0.000872554 0.00075146 0.000457755 0 0 0.000535239 0.000784893 0.000715006 0.000423167 0 0 0.000452216 0.000701977 0.000671445 0.00038941 0 0 0.000393208 0.000632941 0.000620542 0.000361668 0 0 0.000360991 0.00058082 0.000570354 0.000340159 0 0 0.000336535 0.000534945 0.000522833 0.000316318 0 0 0.000303968 0.000482792 0.000472526 0.000287177 0 0 0.000265874 0.00042308 0.000414984 0.000252739 0 0 0.000222594 0.000354921 0.000348819 0.000212712 0 0 0.000175124 0.000279762 0.000275469 0.000168183 0 0 0.00012662 0.000202662 0.000199961 0.000122255 0 0 8.19847e-05 0.000131463 0.000129986 7.96014e-05 0 0 4.64784e-05 7.46539e-05 7.3973e-05 4.53777e-05 0 0 2.25873e-05 3.63417e-05 3.60882e-05 2.2177e-05 0 0 9.4338e-06 1.52023e-05 1.5126e-05 9.31025e-06 0 0 3.50658e-06 5.65809e-06 5.63872e-06 3.47524e-06 0 0 1.21311e-06 1.95935e-06 1.95502e-06 1.2061e-06 0 0 4.04726e-07 6.54128e-07 6.53223e-07 4.03262e-07 0 0 1.32512e-07 2.14263e-07 2.14082e-07 1.32219e-07 0 0 4.28861e-08 6.93627e-08 6.93278e-08 4.28293e-08 0 0 1.37538e-08 2.22489e-08 2.22422e-08 1.37433e-08 0 0 4.37371e-09 7.07565e-09 7.07456e-09 4.37191e-09 0 0 1.37903e-09 2.23089e-09 2.23089e-09 1.37875e-09 0 0 4.31032e-10 6.97282e-10 6.97327e-10 4.31024e-10 0 0 1.33629e-10 2.16023e-10 2.16267e-10 1.3343e-10 0 0 4.10937e-11 6.65965e-11 6.65134e-11 4.10614e-11 0 0 1.2638e-11 2.05796e-11 2.0314e-11 1.27643e-11 0 0 3.94849e-12 6.59366e-12 6.198e-12 4.14169e-12 0 0 1.40853e-12 2.25308e-12 2.08983e-12 1.40618e-12 0 0 7.38447e-13 8.0287e-13 1.02128e-12 4.86807e-13 0 0 4.21142e-13 5.61133e-13 4.87057e-13 4.9135e-13 0 0 2.59687e-13 6.17986e-13 2.14555e-13 5.53424e-13 0 0 2.0408e-13 5.93505e-13 2.8896e-13 3.48642e-13 0 0 2.87279e-13 4.41701e-13 4.42913e-13 2.14457e-13 0 0 3.87704e-13 2.71204e-13 6.20381e-13 8.54705e-14 0 0 3.23499e-13 3.5473e-13 5.19163e-13 1.99484e-13 0 0 3.04873e-13 3.86207e-13 4.65658e-13 2.5365e-13 0 0 3.47854e-13 2.77148e-13 6.27032e-13 5.72011e-14 0 0 3.4032e-13 3.16831e-13 5.61537e-13 1.3058e-13 0 0 4.11878e-13 2.25846e-13 5.74985e-13 2.28149e-13 0 0 2.23773e-13 5.05526e-13 2.54306e-13 4.66191e-13 0 0 1.76506e-13 6.10381e-13 1.72727e-13 5.29842e-13 0 0 3.74491e-13 1.55048e-13 7.19158e-13 2.13351e-13 0 0 8.85366e-14 3.37378e-13 6.45391e-13 2.72125e-13 0 0 -4.53183e-14 5.69433e-13 3.73822e-13 4.27814e-13 0 0 9.36708e-14 4.19631e-13 5.06236e-13 2.62276e-13 0 0 1.90763e-13 3.12459e-13 6.36626e-13 7.67509e-14 0 0 1.66251e-13 4.86216e-13 4.63111e-13 8.89057e-14 0 0 4.57406e-14 6.56926e-13 2.9251e-13 1.71443e-13 0 0 9.89902e-14 4.38985e-13 7.20188e-13 -1.67087e-13 0 0 1.76476e-13 3.45426e-13 8.22482e-13 -1.7375e-13 0 0 1.25707e-13 4.73044e-13 5.42717e-13 6.45231e-14 0 0 1.13868e-13 5.49988e-13 3.21198e-13 2.31483e-13 0 0 1.66524e-13 5.94301e-13 7.95374e-14 3.80514e-13 0 0 1.83277e-13 5.46177e-13 2.13674e-13 1.47142e-13 0 0 1.47595e-14 8.47322e-13 -1.36273e-13 4.12523e-13 0 0 -2.20172e-15 9.12353e-13 -3.06449e-13 5.29697e-13 0 0 3.10199e-13 4.216e-13 1.66365e-13 1.79121e-13 0 0 4.80249e-13 2.04333e-13 3.68726e-13 -4.63791e-15 0 0 3.40961e-13 4.33306e-13 2.66378e-14 2.15045e-13 0 0 -2.24108e-14 1.0183e-12 -6.50025e-13 5.95369e-13 0 0 -2.11807e-13 1.32644e-12 -9.28553e-13 6.68151e-13 0
				</DataArray>
				<DataArray Name="VitesseY" type="Float32" format="ascii">