<?xml version="1.0"?>
<VTKFile type="PolyData">
	<PolyData>
		<Piece NumberOfPoints="1206" NumberOfPolys="1000">
			<Points>
				<DataArray type="Float32" NumberOfComponents="3" format="ascii">
 0 0 0 0.02 0 0 0.04 0 0 0.06 0 0 0.08 0 0 0.1 0 0 0 0.005 0 0.02 0.005 0 0.04 0.005 0 0.06 0.005 0 0.08 0.005 0 0.1 0.005 0 0 0.01 0 0.02 0.01 0 0.04 0.01 0 0.06 0.01 0 0.08 0.01 0 0.1 0.01 0 0 0.015 0 0.02 0.015 0 0.04 0.015 0 0.06 0.015 0 0.08 0.015 0 0.1 0.015 0 0 0.02 0 0.02 0.02 0 0.04 0.02 0 0.06 0.02 0 0.08 0.02 0 0.1 0.02 0 0 0.025 0 0.02 0.025 0 0.04 0.025 0 0.06 0.025 0 0.08 0.025 0 0.1 0.025 0 0 0.03 0 0.02 0.03 0 0.04 0.03 0 0.06 0.03 0 0.08 0.03 0 0.1 0.03 0 0 0.035 0 0.02 0.035 0 0.04 0.035 0 0.06 0.035 0 0.08 0.035 0 0.1 0.035 0 0 0.04 0 0.02 0.04 0 0.04 0.04 0 0.06 0.04 0 0.08 0.04 0 0.1 0.04 0 0 0.045 0 0.02 0.045 0 0.04 0.045 0 0.06 0.045 0 0.08 0.045 0 0.1 0.045 0 0 0.05 0 0.02 0.05 0 0.04 0.05 0 0.06 0.05 0 0.08 0.05 0 0.1 0.05 0 0 0.055 0 0.02 0.055 0 0.04 0.055 0 0.06 0.055 0 0.08 0.055 0 0.1 0.055 0 0 0.06 0 0.02 0.06 0 0.04 0.06 0 0.06 0.06 0 0.08 0.06 0 0.1 0.06 0 0 0.065 0 0.02 0.065 0 0.04 0.065 0 0.06 0.065 0 0.08 0.065 0 0.1 0.065 0 0 0.07 0 0.02 0.07 0 0.04 0.07 0 0.06 0.07 0 0.08 0.07 0 0.1 0.07 0 0 0.075 0 0.02 0.075 0 0.04 0.075 0 0.06 0.075 0 0.08 0.075 0 0.1 0.075 0 0 0.08 0 0.02 0.08 0 0.04 0.08 0 0.06 0.08 0 0.08 0.08 0 0.1 0.08 0 0 0.085 0 0.02 0.085 0 0.04 0.085 0 0.06 0.085 0 0.08 0.085 0 0.1 0.085 0 0 0.09 0 0.02 0.09 0 0.04 0.09 0 0.06 0.09 0 0.08 0.09 0 0.1 0.09 0 0 0.095 0 0.02 0.095 0 0.04 0.095 0 0.06 0.095 0 0.08 0.095 0 0.1 0.095 0 0 0.1 0 0.02 0.1 0 0.04 0.1 0 0.06 0.1 0 0.08 0.1 0 0.1 0.1 0 0 0.105 0 0.02 0.105 0 0.04 0.105 0 0.06 0.105 0 0.08 0.105 0 0.1 0.105 0 0 0.11 0 0.02 0.11 0 0.04 0.11 0 0.06 0.11 0 0.08 0.11 0 0.1 0.11 0 0 0.115 0 0.02 0.115 0 0.04 0.115 0 0.06 0.115 0 0.08 0.115 0 0.1 0.115 0 0 0.12 0 0.02 0.12 0 0.04 0.12 0 0.06 0.12 0 0.08 0.12 0 0.1 0.12 0 0 0.125 0 0.02 0.125 0 0.04 0.125 0 0.06 0.125 0 0.08 0.125 0 0.1 0.125 0 0 0.13 0 0.02 0.13 0 0.04 0.13 0 0.06 0.13 0 0.08 0.13 0 0.1 0.13 0 0 0.135 0 0.02 0.135 0 0.04 0.135 0 0.06 0.135 0 0.08 0.135 0 0.1 0.135 0 0 0.14 0 0.02 0.14 0 0.04 0.14 0 0.06 0.14 0 0.08 0.14 0 0.1 0.14 0 0 0.145 0 0.02 0.145 0 0.04 0.145 0 0.06 0.145 0 0.08 0.145 0 0.1 0.145 0 0 0.15 0 0.02 0.15 0 0.04 0.15 0 0.06 0.15 0 0.08 0.15 0 0.1 0.15 0 0 0.155 0 0.02 0.155 0 0.04 0.155 0 0.06 0.155 0 0.08 0.155 0 0.1 0.155 0 0 0.16 0 0.02 0.16 0 0.04 0.16 0 0.06 0.16 0 0.08 0.16 0 0.1 0.16 0 0 0.165 0 0.02 0.165 0 0.04 0.165 0 0.06 0.165 0 0.08 0.165 0 0.1 0.165 0 0 0.17 0 0.02 0.17 0 0.04 0.17 0 0.06 0.17 0 0.08 0.17 0 0.1 0.17 0 0 0.175 0 0.02 0.175 0 0.04 0.175 0 0.06 0.175 0 0.08 0.175 0 0.1 0.175 0 0 0.18 0 0.02 0.18 0 0.04 0.18 0 0.06 0.18 0 0.08 0.18 0 0.1 0.18 0 0 0.185 0 0.02 0.185 0 0.04 0.185 0 0.06 0.185 0 0.08 0.185 0 0.1 0.185 0 0 0.19 0 0.02 0.19 0 0.04 0.19 0 0.06 0.19 0 0.08 0.19 0 0.1 0.19 0 0 0.195 0 0.02 0.195 0 0.04 0.195 0 0.06 0.195 0 0.08 0.195 0 0.1 0.195 0 0 0.2 0 0.02 0.2 0 0.04 0.2 0 0.06 0.2 0 0.08 0.2 0 0.1 0.2 0 0 0.205 0 0.02 0.205 0 0.04 0.205 0 0.06 0.205 0 0.08 0.205 0 0.1 0.205 0 0 0.21 0 0.02 0.21 0 0.04 0.21 0 0.06 0.21 0 0.08 0.21 0 0.1 0.21 0 0 0.215 0 0.02 0.215 0 0.04 0.215 0 0.06 0.215 0 0.08 0.215 0 0.1 0.215 0 0 0.22 0 0.02 0.22 0 0.04 0.22 0 0.06 0.22 0 0.08 0.22 0 0.1 0.22 0 0 0.225 0 0.02 0.225 0 0.04 0.225 0 0.06 0.225 0 0.08 0.225 0 0.1 0.225 0 0 0.23 0 0.02 0.23 0 0.04 0.23 0 0.06 0.23 0 0.08 0.23 0 0.1 0.23 0 0 0.235 0 0.02 0.235 0 0.04 0.235 0 0.06 0.235 0 0.08 0.235 0 0.1 0.235 0 0 0.24 0 0.02 0.24 0 0.04 0.24 0 0.06 0.24 0 0.08 0.24 0 0.1 0.24 0 0 0.245 0 0.02 0.245 0 0.04 0.245 0 0.06 0.245 0 0.08 0.245 0 0.1 0.245 0 0 0.25 0 0.02 0.25 0 0.04 0.25 0 0.06 0.25 0 0.08 0.25 0 0.1 0.25 0 0 0.255 0 0.02 0.255 0 0.04 0.255 0 0.06 0.255 0 0.08 0.255 0 0.1 0.255 0 0 0.26 0 0.02 0.26 0 0.04 0.26 0 0.06 0.26 0 0.08 0.26 0 0.1 0.26 0 0 0.265 0 0.02 0.265 0 0.04 0.265 0 0.06 0.265 0 0.08 0.265 0 0.1 0.265 0 0 0.27 0 0.02 0.27 0 0.04 0.27 0 0.06 0.27 0 0.08 0.27 0 0.1 0.27 0 0 0.275 0 0.02 0.275 0 0.04 0.275 0 0.06 0.275 0 0.08 0.275 0 0.1 0.275 0 0 0.28 0 0.02 0.28 0 0.04 0.28 0 0.06 0.28 0 0.08 0.28 0 0.1 0.28 0 0 0.285 0 0.02 0.285 0 0.04 0.285 0 0.06 0.285 0 0.08 0.285 0 0.1 0.285 0 0 0.29 0 0.02 0.29 0 0.04 0.29 0 0.06 0.29 0 0.08 0.29 0 0.1 0.29 0 0 0.295 0 0.02 0.295 0 0.04 0.295 0 0.06 0.295 0 0.08 0.295 0 0.1 0.295 0 0 0.3 0 0.02 0.3 0 0.04 0.3 0 0.06 0.3 0 0.08 0.3 0 0.1 0.3 0 0 0.305 0 0.02 0.305 0 0.04 0.305 0 0.06 0.305 0 0.08 0.305 0 0.1 0.305 0 0 0.31 0 0.02 0.31 0 0.04 0.31 0 0.06 0.31 0 0.08 0.31 0 0.1 0.31 0 0 0.315 0 0.02 0.315 0 0.04 0.315 0 0.06 0.315 0 0.08 0.315 0 0.1 0.315 0 0 0.32 0 0.02 0.32 0 0.04 0.32 0 0.06 0.32 0 0.08 0.32 0 0.1 0.32 0 0 0.325 0 0.02 0.325 0 0.04 0.325 0 0.06 0.325 0 0.08 0.325 0 0.1 0.325 0 0 0.33 0 0.02 0.33 0 0.04 0.33 0 0.06 0.33 0 0.08 0.33 0 0.1 0.33 0 0 0.335 0 0.02 0.335 0 0.04 0.335 0 0.06 0.335 0 0.08 0.335 0 0.1 0.335 0 0 0.34 0 0.02 0.34 0 0.04 0.34 0 0.06 0.34 0 0.08 0.34 0 0.1 0.34 0 0 0.345 0 0.02 0.345 0 0.04 0.345 0 0.06 0.345 0 0.08 0.345 0 0.1 0.345 0 0 0.35 0 0.02 0.35 0 0.04 0.35 0 0.06 0.35 0 0.08 0.35 0 0.1 0.35 0 0 0.355 0 0.02 0.355 0 0.04 0.355 0 0.06 0.355 0 0.08 0.355 0 0.1 0.355 0 0 0.36 0 0.02 0.36 0 0.04 0.36 0 0.06 0.36 0 0.08 0.36 0 0.1 0.36 0 0 0.365 0 0.02 0.365 0 0.04 0.365 0 0.06 0.365 0 0.08 0.365 0 0.1 0.365 0 0 0.37 0 0.02 0.37 0 0.04 0.37 0 0.06 0.37 0 0.08 0.37 0 0.1 0.37 0 0 0.375 0 0.02 0.375 0 0.04 0.375 0 0.06 0.375 0 0.08 0.375 0 0.1 0.375 0 0 0.38 0 0.02 0.38 0 0.04 0.38 0 0.06 0.38 0 0.08 0.38 0 0.1 0.38 0 0 0.385 0 0.02 0.385 0 0.04 0.385 0 0.06 0.385 0 0.08 0.385 0 0.1 0.385 0 0 0.39 0 0.02 0.39 0 0.04 0.39 0 0.06 0.39 0 0.08 0.39 0 0.1 0.39 0 0 0.395 0 0.02 0.395 0 0.04 0.395 0 0.06 0.395 0 0.08 0.395 0 0.1 0.395 0 0 0.4 0 0.02 0.4 0 0.04 0.4 0 0.06 0.4 0 0.08 0.4 0 0.1 0.4 0 0 0.405 0 0.02 0.405 0 0.04 0.405 0 0.06 0.405 0 0.08 0.405 0 0.1 0.405 0 0 0.41 0 0.02 0.41 0 0.04 0.41 0 0.06 0.41 0 0.08 0.41 0 0.1 0.41 0 0 0.415 0 0.02 0.415 0 0.04 0.415 0 0.06 0.415 0 0.08 0.415 0 0.1 0.415 0 0 0.42 0 0.02 0.42 0 0.04 0.42 0 0.06 0.42 0 0.08 0.42 0 0.1 0.42 0 0 0.425 0 0.02 0.425 0 0.04 0.425 0 0.06 0.425 0 0.08 0.425 0 0.1 0.425 0 0 0.43 0 0.02 0.43 0 0.04 0.43 0 0.06 0.43 0 0.08 0.43 0 0.1 0.43 0 0 0.435 0 0.02 0.435 0 0.04 0.435 0 0.06 0.435 0 0.08 0.435 0 0.1 0.435 0 0 0.44 0 0.02 0.44 0 0.04 0.44 0 0.06 0.44 0 0.08 0.44 0 0.1 0.44 0 0 0.445 0 0.02 0.445 0 0.04 0.445 0 0.06 0.445 0 0.08 0.445 0 0.1 0.445 0 0 0.45 0 0.02 0.45 0 0.04 0.45 0 0.06 0.45 0 0.08 0.45 0 0.1 0.45 0 0 0.455 0 0.02 0.455 0 0.04 0.455 0 0.06 0.455 0 0.08 0.455 0 0.1 0.455 0 0 0.46 0 0.02 0.46 0 0.04 0.46 0 0.06 0.46 0 0.08 0.46 0 0.1 0.46 0 0 0.465 0 0.02 0.465 0 0.04 0.465 0 0.06 0.465 0 0.08 0.465 0 0.1 0.465 0 0 0.47 0 0.02 0.47 0 0.04 0.47 0 0.06 0.47 0 0.08 0.47 0 0.1 0.47 0 0 0.475 0 0.02 0.475 0 0.04 0.475 0 0.06 0.475 0 0.08 0.475 0 0.1 0.475 0 0 0.48 0 0.02 0.48 0 0.04 0.48 0 0.06 0.48 0 0.08 0.48 0 0.1 0.48 0 0 0.485 0 0.02 0.485 0 0.04 0.485 0 0.06 0.485 0 0.08 0.485 0 0.1 0.485 0 0 0.49 0 0.02 0.49 0 0.04 0.49 0 0.06 0.49 0 0.08 0.49 0 0.1 0.49 0 0 0.495 0 0.02 0.495 0 0.04 0.495 0 0.06 0.495 0 0.08 0.495 0 0.1 0.495 0 0 0.5 0 0.02 0.5 0 0.04 0.5 0 0.06 0.5 0 0.08 0.5 0 0.1 0.5 0 0 0.505 0 0.02 0.505 0 0.04 0.505 0 0.06 0.505 0 0.08 0.505 0 0.1 0.505 0 0 0.51 0 0.02 0.51 0 0.04 0.51 0 0.06 0.51 0 0.08 0.51 0 0.1 0.51 0 0 0.515 0 0.02 0.515 0 0.04 0.515 0 0.06 0.515 0 0.08 0.515 0 0.1 0.515 0 0 0.52 0 0.02 0.52 0 0.04 0.52 0 0.06 0.52 0 0.08 0.52 0 0.1 0.52 0 0 0.525 0 0.02 0.525 0 0.04 0.525 0 0.06 0.525 0 0.08 0.525 0 0.1 0.525 0 0 0.53 0 0.02 0.53 0 0.04 0.53 0 0.06 0.53 0 0.08 0.53 0 0.1 0.53 0 0 0.535 0 0.02 0.535 0 0.04 0.535 0 0.06 0.535 0 0.08 0.535 0 0.1 0.535 0 0 0.54 0 0.02 0.54 0 0.04 0.54 0 0.06 0.54 0 0.08 0.54 0 0.1 0.54 0 0 0.545 0 0.02 0.545 0 0.04 0.545 0 0.06 0.545 0 0.08 0.545 0 0.1 0.545 0 0 0.55 0 0.02 0.55 0 0.04 0.55 0 0.06 0.55 0 0.08 0.55 0 0.1 0.55 0 0 0.555 0 0.02 0.555 0 0.04 0.555 0 0.06 0.555 0 0.08 0.555 0 0.1 0.555 0 0 0.56 0 0.02 0.56 0 0.04 0.56 0 0.06 0.56 0 0.08 0.56 0 0.1 0.56 0 0 0.565 0 0.02 0.565 0 0.04 0.565 0 0.06 0.565 0 0.08 0.565 0 0.1 0.565 0 0 0.57 0 0.02 0.57 0 0.04 0.57 0 0.06 0.57 0 0.08 0.57 0 0.1 0.57 0 0 0.575 0 0.02 0.575 0 0.04 0.575 0 0.06 0.575 0 0.08 0.575 0 0.1 0.575 0 0 0.58 0 0.02 0.58 0 0.04 0.58 0 0.06 0.58 0 0.08 0.58 0 0.1 0.58 0 0 0.585 0 0.02 0.585 0 0.04 0.585 0 0.06 0.585 0 0.08 0.585 0 0.1 0.585 0 0 0.59 0 0.02 0.59 0 0.04 0.59 0 0.06 0.59 0 0.08 0.59 0 0.1 0.59 0 0 0.595 0 0.02 0.595 0 0.04 0.595 0 0.06 0.595 0 0.08 0.595 0 0.1 0.595 0 0 0.6 0 0.02 0.6 0 0.04 0.6 0 0.06 0.6 0 0.08 0.6 0 0.1 0.6 0 0 0.605 0 0.02 0.605 0 0.04 0.605 0 0.06 0.605 0 0.08 0.605 0 0.1 0.605 0 0 0.61 0 0.02 0.61 0 0.04 0.61 0 0.06 0.61 0 0.08 0.61 0 0.1 0.61 0 0 0.615 0 0.02 0.615 0 0.04 0.615 0 0.06 0.615 0 0.08 0.615 0 0.1 0.615 0 0 0.62 0 0.02 0.62 0 0.04 0.62 0 0.06 0.62 0 0.08 0.62 0 0.1 0.62 0 0 0.625 0 0.02 0.625 0 0.04 0.625 0 0.06 0.625 0 0.08 0.625 0 0.1 0.625 0 0 0.63 0 0.02 0.63 0 0.04 0.63 0 0.06 0.63 0 0.08 0.63 0 0.1 0.63 0 0 0.635 0 0.02 0.635 0 0.04 0.635 0 0.06 0.635 0 0.08 0.635 0 0.1 0.635 0 0 0.64 0 0.02 0.64 0 0.04 0.64 0 0.06 0.64 0 0.08 0.64 0 0.1 0.64 0 0 0.645 0 0.02 0.645 0 0.04 0.645 0 0.06 0.645 0 0.08 0.645 0 0.1 0.645 0 0 0.65 0 0.02 0.65 0 0.04 0.65 0 0.06 0.65 0 0.08 0.65 0 0.1 0.65 0 0 0.655 0 0.02 0.655 0 0.04 0.655 0 0.06 0.655 0 0.08 0.655 0 0.1 0.655 0 0 0.66 0 0.02 0.66 0 0.04 0.66 0 0.06 0.66 0 0.08 0.66 0 0.1 0.66 0 0 0.665 0 0.02 0.665 0 0.04 0.665 0 0.06 0.665 0 0.08 0.665 0 0.1 0.665 0 0 0.67 0 0.02 0.67 0 0.04 0.67 0 0.06 0.67 0 0.08 0.67 0 0.1 0.67 0 0 0.675 0 0.02 0.675 0 0.04 0.675 0 0.06 0.675 0 0.08 0.675 0 0.1 0.675 0 0 0.68 0 0.02 0.68 0 0.04 0.68 0 0.06 0.68 0 0.08 0.68 0 0.1 0.68 0 0 0.685 0 0.02 0.685 0 0.04 0.685 0 0.06 0.685 0 0.08 0.685 0 0.1 0.685 0 0 0.69 0 0.02 0.69 0 0.04 0.69 0 0.06 0.69 0 0.08 0.69 0 0.1 
[...]
			<PointData Scalars="VitesseX">
				<DataArray Name="VitesseX" type="Float32" format="ascii">
 0 -1.54243e-14 -1.20799e-14 -1.37097e-14 -5.4041e-15 0 0 -1.26369e-14 -1.62875e-14 -1.00028e-14 -6.34989e-15 0 0 -7.92391e-15 -2.36861e-14 -4.49459e-15 -5.62255e-15 0 0 -8.38847e-15 -2.45243e-14 -2.81539e-15 -3.94822e-15 0 0 -1.49207e-14 -1.63049e-14 -8.4848e-15 -2.22663e-15 0 0 -1.59416e-14 -1.25431e-14 -1.6184e-14 2.85821e-15 0 0 -9.89261e-15 -1.79546e-14 -1.28562e-14 -6.87739e-16 0 0 -1.48428e-14 -1.66789e-14 -4.2622e-15 -1.5152e-14 0 0 -2.03544e-14 -1.61665e-14 5.42906e-15 -3.06658e-14 0 0 -1.64117e-14 -1.38703e-14 2.00051e-15 -2.43983e-14 0 0 -2.03708e-14 -2.67446e-15 -6.72723e-15 -1.3083e-14 0 0 -2.74706e-14 3.59862e-15 -1.26594e-14 -6.18758e-15 0 0 -1.85978e-14 -1.48036e-14 8.52556e-15 -1.588e-14 0 0 -1.31628e-14 -1.32094e-14 7.9226e-15 -1.61391e-14 0 0 -1.33629e-14 -1.60612e-15 -1.44459e-14 3.74753e-15 0 0 9.99944e-16 -3.32456e-14 1.56453e-14 -6.80657e-15 0 0 -8.58131e-15 -1.79147e-14 -8.73702e-15 1.27358e-14 0 0 -9.20179e-15 -1.61804e-14 -2.50878e-14 3.32514e-14 0 0 -4.49591e-15 -3.07955e-14 -2.42063e-14 4.46367e-14 0 0 -1.18263e-14 -3.58148e-14 -2.45437e-14 4.83397e-14 0 0 -2.43842e-14 -3.75621e-14 -2.91746e-14 5.18556e-14 0 0 -5.7868e-14 2.28609e-15 -5.66755e-14 4.49803e-14 0 0 -1.87285e-14 -7.02084e-14 3.47182e-14 -3.11929e-14 0 0 -7.39944e-15 -8.08885e-14 3.11698e-14 -3.02232e-14 0 0 -2.50508e-14 -3.77718e-14 -5.07444e-14 2.89774e-14 0 0 -1.31522e-14 -5.32193e-14 -5.79202e-14 3.93876e-14 0 0 4.27315e-14 -1.18509e-13 -2.09584e-14 1.64987e-14 0 0 8.79732e-14 -1.51425e-13 1.71744e-14 -3.18977e-14 0 0 2.42273e-14 -2.22416e-14 -5.91378e-14 -2.69136e-14 0 0 -1.25367e-14 4.81896e-14 -1.0826e-13 -2.84238e-14 0 0 1.11333e-14 1.16947e-14 -6.47697e-14 -6.03536e-14 0 0 -1.25253e-14 3.30465e-14 -6.04688e-14 -3.85225e-14 0 0 -2.05368e-14 2.84973e-14 -4.11317e-14 -2.34505e-14 0 0 1.95098e-14 -3.29389e-14 1.16398e-15 4.75841e-15 0 0 1.81664e-14 -3.1303e-14 1.91525e-14 1.6349e-14 0 0 1.35609e-14 1.821e-15 -1.85306e-15 4.1555e-14 0 0 -4.16555e-15 4.9536e-14 -5.51108e-14 9.4165e-14 0 0 -6.36999e-14 8.17751e-14 -2.1609e-14 9.65313e-14 0 0 -7.06979e-14 3.53787e-14 7.84189e-14 7.51666e-14 0 0 -6.57656e-14 4.57458e-14 7.99832e-14 6.5686e-14 0 0 -3.30476e-14 3.84167e-14 9.9349e-14 3.95548e-14 0 0 4.79218e-14 -4.06617e-14 1.42538e-13 3.96133e-14 0 0 4.88035e-14 -6.84682e-15 4.49469e-14 1.18754e-13 0 0 9.5676e-14 -7.38945e-14 3.46275e-14 1.40193e-13 0 0 4.59285e-14 -7.57716e-14 7.24054e-15 1.38373e-13 0 0 7.70781e-15 -7.64329e-14 -8.49481e-15 1.05165e-13 0 0 1.3317e-14 -1.18302e-13 1.53945e-14 5.1173e-14 0 0 -6.11805e-14 -4.31817e-14 -1.62811e-13 1.20817e-13 0 0 -9.37904e-14 -1.76969e-13 -3.17613e-13 2.34839e-14 0 0 -3.71598e-13 -6.80752e-13 -7.98386e-13 -3.04838e-13 0 0 -1.45371e-12 -2.34632e-12 -2.61828e-12 -1.24439e-12 0 0 -4.86991e-12 -7.95872e-12 -8.00501e-12 -4.77154e-12 0 0 -1.48606e-11 -2.42893e-11 -2.39969e-11 -1.49628e-11 0 0 -4.14312e-11 -6.71843e-11 -6.70102e-11 -4.14558e-11 0 0 -1.05264e-10 -1.70185e-10 -1.70389e-10 -1.05096e-10 0 0 -2.45378e-10 -3.96826e-10 -3.97159e-10 -2.45219e-10 0 0 -5.31265e-10 -8.59529e-10 -8.59761e-10 -5.31279e-10 0 0 -1.0833e-09 -1.75297e-09 -1.7531e-09 -1.08344e-09 0 0 -2.10811e-09 -3.41131e-09 -3.41139e-09 -2.1083e-09 0 0 -3.96395e-09 -6.41402e-09 -6.41415e-09 -3.96416e-09 0 0 -7.27529e-09 -1.17719e-08 -1.17721e-08 -7.27573e-09 0 0 -1.31334e-08 -2.12509e-08 -2.12514e-08 -1.31346e-08 0 0 -2.34441e-08 -3.79354e-08 -3.79381e-08 -2.34484e-08 0 0 -4.12815e-08 -6.68018e-08 -6.68157e-08 -4.13016e-08 0 0 -7.02425e-08 -1.1367e-07 -1.13687e-07 -7.02708e-08 0 0 -1.14069e-07 -1.84611e-07 -1.84656e-07 -1.14145e-07 0 0 -1.77258e-07 -2.86917e-07 -2.87053e-07 -1.77475e-07 0 0 -2.6526e-07 -4.2944e-07 -4.29731e-07 -2.65735e-07 0 0 -3.8444e-07 -6.22503e-07 -6.23089e-07 -3.85381e-07 0 0 -5.42162e-07 -8.78123e-07 -8.79217e-07 -5.43932e-07 0 0 -7.46906e-07 -1.2101e-06 -1.21202e-06 -7.50039e-07 0 0 -1.00812e-06 -1.63379e-06 -1.63702e-06 -1.01335e-06 0 0 -1.33622e-06 -2.16622e-06 -2.17139e-06 -1.34458e-06 0 0 -1.74235e-06 -2.82557e-06 -2.83343e-06 -1.75506e-06 0 0 -2.23799e-06 -3.63051e-06 -3.64237e-06 -2.2571e-06 0 0 -2.83449e-06 -4.59975e-06 -4.61508e-06 -2.85982e-06 0 0 -3.54323e-06 -5.75044e-06 -5.7773e-06 -3.58386e-06 0 0 -4.37095e-06 -7.09926e-06 -7.11425e-06 -4.40661e-06 0 0 -5.33444e-06 -8.65118e-06 -8.72608e-06 -5.42e-06 0 0 -6.40926e-06 -1.04339e-05 -1.04045e-05 -6.44555e-06 0 0 -7.66681e-06 -1.2384e-05 -1.25273e-05 -7.76473e-06 0 0 -8.95654e-06 -1.46441e-05 -1.45872e-05 -9.04746e-06 0 0 -1.04959e-05 -1.69001e-05 -1.70435e-05 -1.05616e-05 0 0 -1.20035e-05 -1.95243e-05 -1.95398e-05 -1.20772e-05 0 0 -1.36813e-05 -2.21112e-05 -2.20913e-05 -1.36718e-05 0 0 -1.53527e-05 -2.48001e-05 -2.47544e-05 -1.52822e-05 0 0 -1.70305e-05 -2.74568e-05 -2.73415e-05 -1.68289e-05 0 0 -1.86572e-05 -2.99844e-05 -2.97349e-05 -1.82414e-05 0 0 -2.01627e-05 -3.22784e-05 -3.18513e-05 -1.94716e-05 0 0 -2.14788e-05 -3.42403e-05 -3.36104e-05 -2.04628e-05 0 0 -2.25349e-05 -3.57535e-05 -3.48812e-05 -2.11234e-05 0 0 -2.32469e-05 -3.6701e-05 -3.56291e-05 -2.14408e-05 0 0 -2.36024e-05 -3.69258e-05 -3.52975e-05 -2.10774e-05 0 0 -2.32792e-05 -3.61939e-05 -3.43021e-05 -2.02251e-05 0 0 -2.24755e-05 -3.44688e-05 -3.21869e-05 -1.87017e-05 0 0 -2.08967e-05 -3.15953e-05 -2.87966e-05 -1.64929e-05 0 0 -1.84319e-05 -2.73122e-05 -2.43202e-05 -1.33564e-05 0 0 -1.50814e-05 -2.16393e-05 -1.80683e-05 -9.4008e-06 0 0 -1.05283e-05 -1.40996e-05 -1.03739e-05 -4.67482e-06 0 0 -5.21994e-06 -5.37292e-06 -1.8673e-06 7.36954e-07 0 0 1.64148e-06 5.05945e-06 8.33946e-06 6.73049e-06 0 0 9.39135e-06 1.71096e-05 1.95718e-05 1.33302e-05 0 0 1.84017e-05 3.05914e-05 3.15298e-05 1.98317e-05 0 0 2.85685e-05 4.50138e-05 4.32054e-05 2.57704e-05 0 0 3.93947e-05 5.9237e-05 5.37859e-05 3.04638e-05 0 0 4.98913e-05 7.23253e-05 6.21224e-05 3.44038e-05 0 0 5.91498e-05 8.30976e-05 6.76351e-05 3.43718e-05 0 0 6.6626e-05 9.11184e-05 7.19719e-05 3.37399e-05 0 0 7.20777e-05 9.61688e-05 7.18117e-05 3.22655e-05 0 0 7.52919e-05 9.94548e-05 7.0685e-05 2.94073e-05 0 0 7.6871e-05 9.87582e-05 6.78453e-05 2.65981e-05 0 0 7.56633e-05 9.63885e-05 6.38748e-05 2.41117e-05 0 0 7.23826e-05 9.16491e-05 6.02639e-05 2.21596e-05 0 0 6.73179e-05 8.53115e-05 5.67098e-05 2.07602e-05 0 0 5.99923e-05 7.63495e-05 5.19721e-05 1.9836e-05 0 0 5.08776e-05 6.59335e-05 4.68496e-05 1.93122e-05 0 0 4.16492e-05 5.54325e-05 4.17513e-05 1.91701e-05 0 0 3.17539e-05 4.55712e-05 3.68554e-05 1.92622e-05 0 0 1.91175e-05 3.43036e-05 3.26714e-05 1.92693e-05 0 0 2.59064e-06 1.86382e-05 2.7364e-05 1.87279e-05 0 0 -1.70096e-05 -2.45362e-06 1.7487e-05 1.66902e-05 0 0 -3.74618e-05 -3.03037e-05 1.32874e-06 1.20729e-05 0 0 -5.65743e-05 -6.3015e-05 -2.08757e-05 5.99577e-06 0 0 -7.29954e-05 -9.4548e-05 -4.62584e-05 -6.37914e-07 0 0 -0.000102994 -0.000128114 -7.13845e-05 -7.68195e-06 0 0 -0.000154985 -0.000171184 -9.56654e-05 -1.81483e-05 0 0 -0.000221657 -0.000245242 -0.000140136 -4.12769e-05 0 0 -0.00028968 -0.000356566 -0.000224641 -8.38137e-05 0 0 -0.000349084 -0.000476958 -0.000341406 -0.000130085 0 0 -0.000404591 -0.000615751 -0.000472634 -0.000167712 0 0 -0.000501063 -0.000777668 -0.0006052 -0.00017208 0 0 -0.00064777 -0.000964205 -0.000706551 -0.000154283 0 0 -0.000831252 -0.00117657 -0.00073101 -5.31235e-05 0 0 -0.00104938 -0.00140207 -0.000748759 0.00015563 0 0 -0.00116943 -0.00160697 -0.00079761 0.000304933 0 0 -0.00117018 -0.00166349 -0.000837284 0.000312136 0 0 -0.0011393 -0.00157568 -0.000776756 0.000225643 0 0 -0.00102857 -0.00111404 -0.000499021 -0.000186689 0 0 -0.000915757 -0.00091445 -0.000479229 -0.00026993 0 0 -0.000863896 -0.00101213 -0.000594298 -0.000160364 0 0 -0.000752509 -0.001007 -0.000599917 -0.000163993 0 0 -4.56535e-05 -0.000325566 -0.000337611 -0.000451177 0 0 0.00125129 0.00151589 0.000468028 -0.000505796 0 0 0.00170936 0.00250624 0.00127299 -0.000378106 0 0 0.00169667 0.00248917 0.00143065 -2.43352e-05 0 0 0.00160447 0.00234115 0.00142474 0.000326789 0 0 0.00134721 0.00192345 0.00135001 0.000472666 0 0 0.00107489 0.00148194 0.00112149 0.000481748 0 0 0.000829725 0.00109642 0.000882246 0.000478154 0 0 0.00062715 0.000801725 0.000683408 0.000446654 0 0 0.000473051 0.000600268 0.000538766 0.000376293 0 0 0.000361449 0.000472347 0.000442414 0.000310596 0 0 0.000278468 0.00039249 0.000379791 0.000256627 0 0 0.000214033 0.000336869 0.000335601 0.00021415 0 0 0.000164359 0.000288014 0.000296328 0.000179626 0 0 0.000127009 0.000238912 0.000252608 0.000150689 0 0 9.89471e-05 0.000191215 0.00020825 0.000125143 0 0 7.78411e-05 0.000149162 0.000166168 0.000101565 0 0 6.30811e-05 0.000117534 0.000131813 8.19449e-05 0 0 5.31561e-05 9.56443e-05 0.000106275 6.76119e-05 0 0 4.56353e-05 7.85549e-05 8.50211e-05 5.61869e-05 0 0 3.96954e-05 6.52936e-05 6.75799e-05 4.59266e-05 0 0 3.68761e-05 5.93353e-05 5.95274e-05 3.85335e-05 0 0 3.64631e-05 5.83451e-05 5.82107e-05 3.6794e-05 0 0 3.70118e-05 5.93311e-05 5.91772e-05 3.70713e-05 0 0 3.89829e-05 6.27927e-05 6.26608e-05 3.87887e-05 0 0 4.1157e-05 6.64703e-05 6.63538e-05 4.0971e-05 0 0 4.22295e-05 6.82413e-05 6.81228e-05 4.2047e-05 0 0 4.152e-05 6.71169e-05 6.70119e-05 4.13539e-05 0 0 3.79995e-05 6.14416e-05 6.13622e-05 3.78706e-05 0 0 3.19997e-05 5.17415e-05 5.16837e-05 3.19064e-05 0 0 2.44485e-05 3.95336e-05 3.94963e-05 2.43882e-05 0 0 1.64856e-05 2.66586e-05 2.66374e-05 1.64513e-05 0 0 9.54126e-06 1.543e-05 1.54196e-05 9.52447e-06 0 0 4.71553e-06 7.62648e-06 7.62223e-06 4.70865e-06 0 0 2.02796e-06 3.28015e-06 3.27871e-06 2.02564e-06 0 0 7.91692e-07 1.28065e-06 1.28023e-06 7.91021e-07 0 0 2.92293e-07 4.72853e-07 4.72745e-07 2.92119e-07 0 0 1.04708e-07 1.694e-07 1.69373e-07 1.04665e-07 0 0 3.68617e-08 5.96388e-08 5.96323e-08 3.68516e-08 0 0 1.28276e-08 2.07543e-08 2.0753e-08 1.2825e-08 0 0 4.42442e-09 7.15841e-09 7.15831e-09 4.42368e-09 0 0 1.51459e-09 2.4503e-09 2.45049e-09 1.51432e-09 0 0 5.1494e-10 8.32928e-10 8.33059e-10 5.14831e-10 0 0 1.73861e-10 2.81317e-10 2.81184e-10 1.73981e-10 0 0 5.82681e-11 9.43061e-11 9.42618e-11 5.83979e-11 0 0 1.93402e-11 3.12204e-11 3.14483e-11 1.93235e-11 0 0 6.25494e-12 1.01868e-11 1.02736e-11 6.37328e-12 0 0 1.87227e-12 3.20665e-12 3.20297e-12 2.15765e-12 0 0 5.21475e-13 7.56639e-13 1.00846e-12 7.30798e-13 0 0 1.63948e-13 -4.63078e-14 1.9924e-13 3.0681e-13 0 0 1.1866e-13 -3.71806e-13 -1.93194e-14 1.10095e-13 0 0 -7.10176e-14 -2.57325e-13 -1.33002e-13 -5.1649e-14 0 0 -1.41805e-13 -2.11169e-13 -1.62571e-13 -1.16169e-13 0 0 -1.03594e-13 -3.24242e-13 -7.76989e-14 -1.09051e-13 0 0 -1.61193e-13 -2.67392e-13 -8.57448e-14 -1.12671e-13 0 0 -1.65716e-13 -2.18469e-13 -8.57061e-14 -1.83486e-13 0 0 -4.2319e-14 -3.90419e-13 1.4441e-13 -3.92374e-13 0 0 -2.80259e-13 -2.00014e-14 -3.08086e-13 -1.4938e-13 0 0 -3.98713e-13 1.9192e-13 -7.26687e-13 3.1918e-14 0 0 -1.29232e-13 -1.77488e-13 -4.92509e-13 -1.472e-13 0
				</DataArray>
				<DataArray Name="VitesseY" type="Float32" format="ascii">