<?xml version="1.0"?>
<VTKFile type="PolyData">
	<PolyData>
		<Piece NumberOfPoints="1206" NumberOfPolys="1000">
			<Points>
				<DataArray type="Float32" NumberOfComponents="3" format="ascii">
 0 0 0 0.02 0 0 0.04 0 0 0.06 0 0 0.08 0 0 0.1 0 0 0 0.005 0 0.02 0.005 0 0.04 0.005 0 0.06 0.005 0 0.08 0.005 0 0.1 0.005 0 0 0.01 0 0.02 0.01 0 0.04 0.01 0 0.06 0.01 0 0.08 0.01 0 0.1 0.01 0 0 0.015 0 0.02 0.015 0 0.04 0.015 0 0.06 0.015 0 0.08 0.015 0 0.1 0.015 0 0 0.02 0 0.02 0.02 0 0.04 0.02 0 0.06 0.02 0 0.08 0.02 0 0.1 0.02 0 0 0.025 0 0.02 0.025 0 0.04 0.025 0 0.06 0.025 0 0.08 0.025 0 0.1 0.025 0 0 0.03 0 0.02 0.03 0 0.04 0.03 0 0.06 0.03 0 0.08 0.03 0 0.1 0.03 0 0 0.035 0 0.02 0.035 0 0.04 0.035 0 0.06 0.035 0 0.08 0.035 0 0.1 0.035 0 0 0.04 0 0.02 0.04 0 0.04 0.04 0 0.06 0.04 0 0.08 0.04 0 0.1 0.04 0 0 0.045 0 0.02 0.045 0 0.04 0.045 0 0.06 0.045 0 0.08 0.045 0 0.1 0.045 0 0 0.05 0 0.02 0.05 0 0.04 0.05 0 0.06 0.05 0 0.08 0.05 0 0.1 0.05 0 0 0.055 0 0.02 0.055 0 0.04 0.055 0 0.06 0.055 0 0.08 0.055 0 0.1 0.055 0 0 0.06 0 0.02 0.06 0 0.04 0.06 0 0.06 0.06 0 0.08 0.06 0 0.1 0.06 0 0 0.065 0 0.02 0.065 0 0.04 0.065 0 0.06 0.065 0 0.08 0.065 0 0.1 0.065 0 0 0.07 0 0.02 0.07 0 0.04 0.07 0 0.06 0.07 0 0.08 0.07 0 0.1 0.07 0 0 0.075 0 0.02 0.075 0 0.04 0.075 0 0.06 0.075 0 0.08 0.075 0 0.1 0.075 0 0 0.08 0 0.02 0.08 0 0.04 0.08 0 0.06 0.08 0 0.08 0.08 0 0.1 0.08 0 0 0.085 0 0.02 0.085 0 0.04 0.085 0 0.06 0.085 0 0.08 0.085 0 0.1 0.085 0 0 0.09 0 0.02 0.09 0 0.04 0.09 0 0.06 0.09 0 0.08 0.09 0 0.1 0.09 0 0 0.095 0 0.02 0.095 0 0.04 0.095 0 0.06 0.095 0 0.08 0.095 0 0.1 0.095 0 0 0.1 0 0.02 0.1 0 0.04 0.1 0 0.06 0.1 0 0.08 0.1 0 0.1 0.1 0 0 0.105 0 0.02 0.105 0 0.04 0.105 0 0.06 0.105 0 0.08 0.105 0 0.1 0.105 0 0 0.11 0 0.02 0.11 0 0.04 0.11 0 0.06 0.11 0 0.08 0.11 0 0.1 0.11 0 0 0.115 0 0.02 0.115 0 0.04 0.115 0 0.06 0.115 0 0.08 0.115 0 0.1 0.115 0 0 0.12 0 0.02 0.12 0 0.04 0.12 0 0.06 0.12 0 0.08 0.12 0 0.1 0.12 0 0 0.125 0 0.02 0.125 0 0.04 0.125 0 0.06 0.125 0 0.08 0.125 0 0.1 0.125 0 0 0.13 0 0.02 0.13 0 0.04 0.13 0 0.06 0.13 0 0.08 0.13 0 0.1 0.13 0 0 0.135 0 0.02 0.135 0 0.04 0.135 0 0.06 0.135 0 0.08 0.135 0 0.1 0.135 0 0 0.14 0 0.02 0.14 0 0.04 0.14 0 0.06 0.14 0 0.08 0.14 0 0.1 0.14 0 0 0.145 0 0.02 0.145 0 0.04 0.145 0 0.06 0.145 0 0.08 0.145 0 0.1 0.145 0 0 0.15 0 0.02 0.15 0 0.04 0.15 0 0.06 0.15 0 0.08 0.15 0 0.1 0.15 0 0 0.155 0 0.02 0.155 0 0.04 0.155 0 0.06 0.155 0 0.08 0.155 0 0.1 0.155 0 0 0.16 0 0.02 0.16 0 0.04 0.16 0 0.06 0.16 0 0.08 0.16 0 0.1 0.16 0 0 0.165 0 0.02 0.165 0 0.04 0.165 0 0.06 0.165 0 0.08 0.165 0 0.1 0.165 0 0 0.17 0 0.02 0.17 0 0.04 0.17 0 0.06 0.17 0 0.08 0.17 0 0.1 0.17 0 0 0.175 0 0.02 0.175 0 0.04 0.175 0 0.06 0.175 0 0.08 0.175 0 0.1 0.175 0 0 0.18 0 0.02 0.18 0 0.04 0.18 0 0.06 0.18 0 0.08 0.18 0 0.1 0.18 0 0 0.185 0 0.02 0.185 0 0.04 0.185 0 0.06 0.185 0 0.08 0.185 0 0.1 0.185 0 0 0.19 0 0.02 0.19 0 0.04 0.19 0 0.06 0.19 0 0.08 0.19 0 0.1 0.19 0 0 0.195 0 0.02 0.195 0 0.04 0.195 0 0.06 0.195 0 0.08 0.195 0 0.1 0.195 0 0 0.2 0 0.02 0.2 0 0.04 0.2 0 0.06 0.2 0 0.08 0.2 0 0.1 0.2 0 0 0.205 0 0.02 0.205 0 0.04 0.205 0 0.06 0.205 0 0.08 0.205 0 0.1 0.205 0 0 0.21 0 0.02 0.21 0 0.04 0.21 0 0.06 0.21 0 0.08 0.21 0 0.1 0.21 0 0 0.215 0 0.02 0.215 0 0.04 0.215 0 0.06 0.215 0 0.08 0.215 0 0.1 0.215 0 0 0.22 0 0.02 0.22 0 0.04 0.22 0 0.06 0.22 0 0.08 0.22 0 0.1 0.22 0 0 0.225 0 0.02 0.225 0 0.04 0.225 0 0.06 0.225 0 0.08 0.225 0 0.1 0.225 0 0 0.23 0 0.02 0.23 0 0.04 0.23 0 0.06 0.23 0 0.08 0.23 0 0.1 0.23 0 0 0.235 0 0.02 0.235 0 0.04 0.235 0 0.06 0.235 0 0.08 0.235 0 0.1 0.235 0 0 0.24 0 0.02 0.24 0 0.04 0.24 0 0.06 0.24 0 0.08 0.24 0 0.1 0.24 0 0 0.245 0 0.02 0.245 0 0.04 0.245 0 0.06 0.245 0 0.08 0.245 0 0.1 0.245 0 0 0.25 0 0.02 0.25 0 0.04 0.25 0 0.06 0.25 0 0.08 0.25 0 0.1 0.25 0 0 0.255 0 0.02 0.255 0 0.04 0.255 0 0.06 0.255 0 0.08 0.255 0 0.1 0.255 0 0 0.26 0 0.02 0.26 0 0.04 0.26 0 0.06 0.26 0 0.08 0.26 0 0.1 0.26 0 0 0.265 0 0.02 0.265 0 0.04 0.265 0 0.06 0.265 0 0.08 0.265 0 0.1 0.265 0 0 0.27 0 0.02 0.27 0 0.04 0.27 0 0.06 0.27 0 0.08 0.27 0 0.1 0.27 0 0 0.275 0 0.02 0.275 0 0.04 0.275 0 0.06 0.275 0 0.08 0.275 0 0.1 0.275 0 0 0.28 0 0.02 0.28 0 0.04 0.28 0 0.06 0.28 0 0.08 0.28 0 0.1 0.28 0 0 0.285 0 0.02 0.285 0 0.04 0.285 0 0.06 0.285 0 0.08 0.285 0 0.1 0.285 0 0 0.29 0 0.02 0.29 0 0.04 0.29 0 0.06 0.29 0 0.08 0.29 0 0.1 0.29 0 0 0.295 0 0.02 0.295 0 0.04 0.295 0 0.06 0.295 0 0.08 0.295 0 0.1 0.295 0 0 0.3 0 0.02 0.3 0 0.04 0.3 0 0.06 0.3 0 0.08 0.3 0 0.1 0.3 0 0 0.305 0 0.02 0.305 0 0.04 0.305 0 0.06 0.305 0 0.08 0.305 0 0.1 0.305 0 0 0.31 0 0.02 0.31 0 0.04 0.31 0 0.06 0.31 0 0.08 0.31 0 0.1 0.31 0 0 0.315 0 0.02 0.315 0 0.04 0.315 0 0.06 0.315 0 0.08 0.315 0 0.1 0.315 0 0 0.32 0 0.02 0.32 0 0.04 0.32 0 0.06 0.32 0 0.08 0.32 0 0.1 0.32 0 0 0.325 0 0.02 0.325 0 0.04 0.325 0 0.06 0.325 0 0.08 0.325 0 0.1 0.325 0 0 0.33 0 0.02 0.33 0 0.04 0.33 0 0.06 0.33 0 0.08 0.33 0 0.1 0.33 0 0 0.335 0 0.02 0.335 0 0.04 0.335 0 0.06 0.335 0 0.08 0.335 0 0.1 0.335 0 0 0.34 0 0.02 0.34 0 0.04 0.34 0 0.06 0.34 0 0.08 0.34 0 0.1 0.34 0 0 0.345 0 0.02 0.345 0 0.04 0.345 0 0.06 0.345 0 0.08 0.345 0 0.1 0.345 0 0 0.35 0 0.02 0.35 0 0.04 0.35 0 0.06 0.35 0 0.08 0.35 0 0.1 0.35 0 0 0.355 0 0.02 0.355 0 0.04 0.355 0 0.06 0.355 0 0.08 0.355 0 0.1 0.355 0 0 0.36 0 0.02 0.36 0 0.04 0.36 0 0.06 0.36 0 0.08 0.36 0 0.1 0.36 0 0 0.365 0 0.02 0.365 0 0.04 0.365 0 0.06 0.365 0 0.08 0.365 0 0.1 0.365 0 0 0.37 0 0.02 0.37 0 0.04 0.37 0 0.06 0.37 0 0.08 0.37 0 0.1 0.37 0 0 0.375 0 0.02 0.375 0 0.04 0.375 0 0.06 0.375 0 0.08 0.375 0 0.1 0.375 0 0 0.38 0 0.02 0.38 0 0.04 0.38 0 0.06 0.38 0 0.08 0.38 0 0.1 0.38 0 0 0.385 0 0.02 0.385 0 0.04 0.385 0 0.06 0.385 0 0.08 0.385 0 0.1 0.385 0 0 0.39 0 0.02 0.39 0 0.04 0.39 0 0.06 0.39 0 0.08 0.39 0 0.1 0.39 0 0 0.395 0 0.02 0.395 0 0.04 0.395 0 0.06 0.395 0 0.08 0.395 0 0.1 0.395 0 0 0.4 0 0.02 0.4 0 0.04 0.4 0 0.06 0.4 0 0.08 0.4 0 0.1 0.4 0 0 0.405 0 0.02 0.405 0 0.04 0.405 0 0.06 0.405 0 0.08 0.405 0 0.1 0.405 0 0 0.41 0 0.02 0.41 0 0.04 0.41 0 0.06 0.41 0 0.08 0.41 0 0.1 0.41 0 0 0.415 0 0.02 0.415 0 0.04 0.415 0 0.06 0.415 0 0.08 0.415 0 0.1 0.415 0 0 0.42 0 0.02 0.42 0 0.04 0.42 0 0.06 0.42 0 0.08 0.42 0 0.1 0.42 0 0 0.425 0 0.02 0.425 0 0.04 0.425 0 0.06 0.425 0 0.08 0.425 0 0.1 0.425 0 0 0.43 0 0.02 0.43 0 0.04 0.43 0 0.06 0.43 0 0.08 0.43 0 0.1 0.43 0 0 0.435 0 0.02 0.435 0 0.04 0.435 0 0.06 0.435 0 0.08 0.435 0 0.1 0.435 0 0 0.44 0 0.02 0.44 0 0.04 0.44 0 0.06 0.44 0 0.08 0.44 0 0.1 0.44 0 0 0.445 0 0.02 0.445 0 0.04 0.445 0 0.06 0.445 0 0.08 0.445 0 0.1 0.445 0 0 0.45 0 0.02 0.45 0 0.04 0.45 0 0.06 0.45 0 0.08 0.45 0 0.1 0.45 0 0 0.455 0 0.02 0.455 0 0.04 0.455 0 0.06 0.455 0 0.08 0.455 0 0.1 0.455 0 0 0.46 0 0.02 0.46 0 0.04 0.46 0 0.06 0.46 0 0.08 0.46 0 0.1 0.46 0 0 0.465 0 0.02 0.465 0 0.04 0.465 0 0.06 0.465 0 0.08 0.465 0 0.1 0.465 0 0 0.47 0 0.02 0.47 0 0.04 0.47 0 0.06 0.47 0 0.08 0.47 0 0.1 0.47 0 0 0.475 0 0.02 0.475 0 0.04 0.475 0 0.06 0.475 0 0.08 0.475 0 0.1 0.475 0 0 0.48 0 0.02 0.48 0 0.04 0.48 0 0.06 0.48 0 0.08 0.48 0 0.1 0.48 0 0 0.485 0 0.02 0.485 0 0.04 0.485 0 0.06 0.485 0 0.08 0.485 0 0.1 0.485 0 0 0.49 0 0.02 0.49 0 0.04 0.49 0 0.06 0.49 0 0.08 0.49 0 0.1 0.49 0 0 0.495 0 0.02 0.495 0 0.04 0.495 0 0.06 0.495 0 0.08 0.495 0 0.1 0.495 0 0 0.5 0 0.02 0.5 0 0.04 0.5 0 0.06 0.5 0 0.08 0.5 0 0.1 0.5 0 0 0.505 0 0.02 0.505 0 0.04 0.505 0 0.06 0.505 0 0.08 0.505 0 0.1 0.505 0 0 0.51 0 0.02 0.51 0 0.04 0.51 0 0.06 0.51 0 0.08 0.51 0 0.1 0.51 0 0 0.515 0 0.02 0.515 0 0.04 0.515 0 0.06 0.515 0 0.08 0.515 0 0.1 0.515 0 0 0.52 0 0.02 0.52 0 0.04 0.52 0 0.06 0.52 0 0.08 0.52 0 0.1 0.52 0 0 0.525 0 0.02 0.525 0 0.04 0.525 0 0.06 0.525 0 0.08 0.525 0 0.1 0.525 0 0 0.53 0 0.02 0.53 0 0.04 0.53 0 0.06 0.53 0 0.08 0.53 0 0.1 0.53 0 0 0.535 0 0.02 0.535 0 0.04 0.535 0 0.06 0.535 0 0.08 0.535 0 0.1 0.535 0 0 0.54 0 0.02 0.54 0 0.04 0.54 0 0.06 0.54 0 0.08 0.54 0 0.1 0.54 0 0 0.545 0 0.02 0.545 0 0.04 0.545 0 0.06 0.545 0 0.08 0.545 0 0.1 0.545 0 0 0.55 0 0.02 0.55 0 0.04 0.55 0 0.06 0.55 0 0.08 0.55 0 0.1 0.55 0 0 0.555 0 0.02 0.555 0 0.04 0.555 0 0.06 0.555 0 0.08 0.555 0 0.1 0.555 0 0 0.56 0 0.02 0.56 0 0.04 0.56 0 0.06 0.56 0 0.08 0.56 0 0.1 0.56 0 0 0.565 0 0.02 0.565 0 0.04 0.565 0 0.06 0.565 0 0.08 0.565 0 0.1 0.565 0 0 0.57 0 0.02 0.57 0 0.04 0.57 0 0.06 0.57 0 0.08 0.57 0 0.1 0.57 0 0 0.575 0 0.02 0.575 0 0.04 0.575 0 0.06 0.575 0 0.08 0.575 0 0.1 0.575 0 0 0.58 0 0.02 0.58 0 0.04 0.58 0 0.06 0.58 0 0.08 0.58 0 0.1 0.58 0 0 0.585 0 0.02 0.585 0 0.04 0.585 0 0.06 0.585 0 0.08 0.585 0 0.1 0.585 0 0 0.59 0 0.02 0.59 0 0.04 0.59 0 0.06 0.59 0 0.08 0.59 0 0.1 0.59 0 0 0.595 0 0.02 0.595 0 0.04 0.595 0 0.06 0.595 0 0.08 0.595 0 0.1 0.595 0 0 0.6 0 0.02 0.6 0 0.04 0.6 0 0.06 0.6 0 0.08 0.6 0 0.1 0.6 0 0 0.605 0 0.02 0.605 0 0.04 0.605 0 0.06 0.605 0 0.08 0.605 0 0.1 0.605 0 0 0.61 0 0.02 0.61 0 0.04 0.61 0 0.06 0.61 0 0.08 0.61 0 0.1 0.61 0 0 0.615 0 0.02 0.615 0 0.04 0.615 0 0.06 0.615 0 0.08 0.615 0 0.1 0.615 0 0 0.62 0 0.02 0.62 0 0.04 0.62 0 0.06 0.62 0 0.08 0.62 0 0.1 0.62 0 0 0.625 0 0.02 0.625 0 0.04 0.625 0 0.06 0.625 0 0.08 0.625 0 0.1 0.625 0 0 0.63 0 0.02 0.63 0 0.04 0.63 0 0.06 0.63 0 0.08 0.63 0 0.1 0.63 0 0 0.635 0 0.02 0.635 0 0.04 0.635 0 0.06 0.635 0 0.08 0.635 0 0.1 0.635 0 0 0.64 0 0.02 0.64 0 0.04 0.64 0 0.06 0.64 0 0.08 0.64 0 0.1 0.64 0 0 0.645 0 0.02 0.645 0 0.04 0.645 0 0.06 0.645 0 0.08 0.645 0 0.1 0.645 0 0 0.65 0 0.02 0.65 0 0.04 0.65 0 0.06 0.65 0 0.08 0.65 0 0.1 0.65 0 0 0.655 0 0.02 0.655 0 0.04 0.655 0 0.06 0.655 0 0.08 0.655 0 0.1 0.655 0 0 0.66 0 0.02 0.66 0 0.04 0.66 0 0.06 0.66 0 0.08 0.66 0 0.1 0.66 0 0 0.665 0 0.02 0.665 0 0.04 0.665 0 0.06 0.665 0 0.08 0.665 0 0.1 0.665 0 0 0.67 0 0.02 0.67 0 0.04 0.67 0 0.06 0.67 0 0.08 0.67 0 0.1 0.67 0 0 0.675 0 0.02 0.675 0 0.04 0.675 0 0.06 0.675 0 0.08 0.675 0 0.1 0.675 0 0 0.68 0 0.02 0.68 0 0.04 0.68 0 0.06 0.68 0 0.08 0.68 0 0.1 0.68 0 0 0.685 0 0.02 0.685 0 0.04 0.685 0 0.06 0.685 0 0.08 0.685 0 0.1 0.685 0 0 0.69 0 0.02 0.69 0 0.04 0.69 0 0.06 0.69 0 0.08 0.69 0 0.1 
[...]
			<PointData Scalars="VitesseX">
				<DataArray Name="VitesseX" type="Float32" format="ascii">
 0 -2.73901e-14 1.07426e-14 -1.14691e-14 -3.51156e-15 0 0 -2.34457e-14 8.45482e-16 -4.01533e-15 -5.35797e-15 0 0 -1.55904e-14 -2.52957e-14 2.48494e-14 -2.15393e-14 0 0 -4.93356e-14 1.53206e-14 -5.74965e-15 -9.68302e-15 0 0 -3.42607e-14 -3.45794e-15 3.63449e-15 -1.55338e-14 0 0 2.2177e-14 -7.49535e-14 4.26759e-14 -2.56359e-14 0 0 -8.91086e-15 -1.46758e-14 -4.63746e-14 4.7127e-14 0 0 -5.52648e-14 5.80893e-14 -1.20196e-13 1.05749e-13 0 0 -3.23252e-14 9.41484e-15 -4.75424e-14 6.69803e-14 0 0 -8.18238e-15 -6.09174e-14 6.91957e-14 -1.39798e-14 0 0 -7.13217e-14 1.19178e-14 4.0533e-14 -1.02738e-14 0 0 -5.21161e-14 -1.92372e-14 7.79211e-14 -3.19292e-14 0 0 -7.97135e-14 4.95015e-14 -1.47475e-14 3.70484e-14 0 0 -3.79621e-14 1.39621e-14 6.31525e-15 3.08325e-14 0 0 -7.16246e-15 -2.02868e-14 5.99416e-14 -1.76797e-14 0 0 -8.66986e-14 1.28803e-13 -1.10412e-13 7.40292e-14 0 0 4.37475e-14 -4.9414e-14 4.49787e-15 -1.83584e-14 0 0 1.44727e-14 -2.3976e-14 -3.78657e-14 -1.69861e-14 0 0 -6.21031e-15 -4.18107e-14 -3.25678e-14 -1.49503e-14 0 0 1.92568e-15 -7.8093e-14 -3.10373e-14 3.50431e-15 0 0 -1.23866e-13 1.05571e-13 -1.87055e-13 9.21931e-14 0 0 -1.31734e-13 1.13338e-13 -1.44225e-13 4.44866e-14 0 0 3.39902e-15 -9.00222e-14 6.94651e-14 -8.23281e-14 0 0 5.77199e-14 -1.96292e-13 1.68209e-13 -1.26888e-13 0 0 -1.22692e-13 4.77644e-14 -7.74063e-14 1.02296e-14 0 0 -2.55733e-13 2.22905e-13 -2.44049e-13 7.37541e-14 0 0 -1.18321e-13 3.56384e-15 -5.51213e-14 -6.51898e-14 0 0 -1.20633e-15 -1.38138e-13 5.48136e-14 -1.68468e-13 0 0 -9.38381e-14 1.38187e-14 -7.6604e-14 -1.19952e-13 0 0 -2.09834e-13 1.61961e-13 -2.24091e-13 9.69621e-15 0 0 -1.11869e-13 -2.29016e-14 -6.57733e-14 -3.55696e-14 0 0 -1.36307e-13 -2.90435e-14 -5.75622e-15 -7.65165e-14 0 0 -1.59225e-13 1.84317e-14 -1.49978e-14 -2.01462e-14 0 0 7.21658e-14 -2.62132e-13 2.38614e-13 -7.80321e-14 0 0 -9.83164e-14 5.29447e-14 -4.04114e-14 1.07663e-13 0 0 -2.26422e-13 2.03922e-13 -1.23466e-13 1.3111e-13 0 0 -1.98392e-13 1.04907e-13 1.48768e-14 1.16331e-14 0 0 -3.17417e-14 -1.43738e-13 2.55606e-13 -2.03238e-13 0 0 -6.49155e-14 -1.00977e-13 2.22261e-13 -2.53731e-13 0 0 -1.99386e-13 8.61071e-14 3.1477e-14 -1.56776e-13 0 0 -1.66153e-13 6.87487e-14 -1.02236e-14 -8.55217e-14 0 0 -1.36891e-13 6.92775e-14 -1.11667e-13 3.78272e-14 0 0 3.73666e-14 -1.87816e-13 3.05762e-14 -6.52104e-15 0 0 -1.41269e-13 4.5961e-14 -2.05983e-13 1.11939e-13 0 0 -3.97978e-13 2.88909e-13 -2.90702e-13 4.59063e-14 0 0 -2.31199e-13 -1.07131e-13 1.94633e-13 -3.18473e-13 0 0 -1.91187e-13 -1.86046e-13 2.87113e-13 -4.16886e-13 0 0 -1.74535e-13 -1.648e-13 2.8843e-13 -4.48975e-13 0 0 -1.26015e-13 -1.25011e-13 1.6108e-13 -3.05647e-13 0 0 -2.87276e-13 2.27248e-13 -2.68523e-13 1.08631e-14 0 0 -4.09252e-13 4.17366e-13 -3.98817e-13 -8.05305e-15 0 0 -4.42638e-13 4.73837e-13 -3.96406e-13 -1.52814e-13 0 0 1.13117e-13 -3.89431e-13 4.56886e-13 -7.19003e-13 0 0 -2.93346e-14 -1.57552e-13 2.55549e-13 -6.32158e-13 0 0 -4.74698e-13 5.63001e-13 -4.25702e-13 -2.41338e-13 0 0 -2.11171e-13 1.00462e-13 4.75929e-14 -4.64906e-13 0 0 -3.65343e-13 2.79437e-13 -1.49958e-13 -2.32039e-13 0 0 -2.08049e-13 -6.33058e-14 1.48106e-13 -3.2115e-13 0 0 -2.64446e-13 -5.26056e-14 1.46454e-13 -3.1228e-13 0 0 -5.45282e-13 4.32307e-13 -3.30289e-13 -1.15718e-13 0 0 -2.41851e-13 8.59515e-14 -8.72803e-14 -3.30275e-13 0 0 -3.83766e-14 -7.59383e-14 -1.03504e-13 -2.80199e-13 0 0 -2.86912e-14 -5.55214e-14 -2.40188e-13 -1.11206e-13 0 0 -2.70024e-13 2.02546e-13 -4.77549e-13 1.15131e-13 0 0 -2.55683e-13 1.37231e-13 -4.2106e-13 1.21975e-13 0 0 -4.54782e-14 -1.43582e-13 -1.15947e-13 -1.18051e-13 0 0 1.80357e-14 -1.8546e-13 -2.01754e-14 -2.10349e-13 0 0 -1.72336e-14 -1.65679e-13 2.63692e-14 -2.0098e-13 0 0 -4.56543e-13 3.59552e-13 -3.2923e-13 5.89998e-14 0 0 -4.76557e-13 3.22769e-13 -2.03309e-13 6.73576e-14 0 0 3.65584e-14 -4.3528e-13 5.86739e-13 -3.77464e-13 0 0 -1.87769e-13 -4.05707e-14 2.45895e-13 -2.03999e-13 0 0 -4.69469e-13 3.69888e-13 -1.23094e-13 -4.20796e-14 0 0 -5.78066e-13 5.73474e-13 -2.75823e-13 -1.07449e-13 0 0 -2.06143e-13 1.52034e-13 5.23333e-14 -3.70816e-13 0 0 6.61594e-14 -2.50305e-13 4.27562e-13 -6.24915e-13 0 0 -4.92748e-13 4.65028e-13 -1.40925e-13 -2.36366e-13 0 0 -4.44597e-13 2.66707e-13 -6.50441e-14 -5.28271e-14 0 0 -3.81097e-13 2.11998e-13 -3.0924e-13 2.84426e-13 0 0 -5.66967e-14 -1.87884e-13 -3.9119e-14 1.22667e-13 0 0 -3.10936e-13 6.21066e-14 3.37583e-14 -2.03481e-13 0 0 -6.11629e-13 4.38953e-13 -1.9018e-13 -2.92004e-13 0 0 3.23026e-13 -8.54064e-13 7.53892e-13 -7.40297e-13 0 0 -1.07626e-13 -2.81975e-13 1.61547e-13 -3.24091e-13 0 0 -1.04487e-12 9.64682e-13 -1.0353e-12 4.02278e-13 0 0 -1.30754e-14 -3.82566e-13 -1.31827e-13 2.31747e-14 0 0 6.57101e-13 -1.21709e-12 5.31452e-13 -2.80996e-13 0 0 -1.46413e-13 -9.43861e-14 -3.28802e-13 1.37941e-13 0 0 -4.81567e-13 1.9963e-13 -4.19537e-13 1.70768e-13 0 0 -8.08912e-13 2.60565e-13 -6.59539e-13 4.48577e-13 0 0 -1.46371e-14 -8.22568e-13 -1.55977e-13 -1.21534e-13 0 0 6.08016e-12 4.69782e-12 3.05455e-12 -5.70767e-13 0 0 7.10887e-11 9.04679e-11 5.62827e-11 1.69738e-11 0 0 -3.48684e-11 -1.16933e-10 -2.39167e-10 -2.29647e-10 0 0 -2.22324e-08 -3.79314e-08 -4.09044e-08 -2.70468e-08 0 0 -3.33818e-07 -6.68519e-07 -8.33278e-07 -6.00216e-07 0 0 -1.80792e-06 -4.32893e-06 -6.13357e-06 -4.72943e-06 0 0 -5.56484e-06 -1.72492e-05 -2.85027e-05 -2.37972e-05 0 0 -1.22814e-05 -4.77559e-05 -9.06205e-05 -8.15241e-05 0 0 -1.84915e-05 -0.000101103 -0.00021417 -0.000198073 0 0 -1.75521e-05 -0.000218022 -0.000493865 -0.00046253 0 0 -5.41146e-06 -0.000360976 -0.000796212 -0.000486915 0 0 2.42582e-05 -0.000350433 -0.000786198 -0.000437652 0 0 4.11254e-05 -0.000204289 -0.000549637 -0.000270866 0 0 3.45704e-05 6.14227e-05 -3.27501e-05 -8.38461e-05 0 0 1.1401e-05 0.000315984 0.000405934 7.63167e-05 0 0 1.08101e-05 0.000385356 0.000673769 0.000169956 0 0 1.14016e-05 0.000420699 0.000827351 0.000287015 0 0 3.33318e-06 0.000565577 0.00125937 0.000737273 0 0 3.42421e-05 0.000572268 0.00123374 0.000883854 0 0 7.12434e-05 0.000397925 0.000762423 0.000625996 0 0 6.76052e-05 0.000232556 0.00038861 0.000333405 0 0 4.82219e-05 0.000134656 0.000208486 0.000169816 0 0 2.90314e-05 7.23752e-05 0.000105865 8.2655e-05 0 0 1.43986e-05 3.20618e-05 4.33162e-05 3.25631e-05 0 0 5.48112e-06 1.10589e-05 1.38578e-05 9.98565e-06 0 0 1.54198e-06 2.89093e-06 3.37997e-06 2.33352e-06 0 0 3.25066e-07 5.7808e-07 6.42397e-07 4.29137e-07 0 0 5.63765e-08 9.69916e-08 1.04121e-07 6.79119e-08 0 0 8.68414e-09 1.4626e-08 1.53361e-08 9.83294e-09 0 0 1.23452e-09 2.05085e-09 2.11701e-09 1.3412e-09 0 0 1.64538e-10 2.70925e-10 2.76665e-10 1.73948e-10 0 0 2.01043e-11 3.45703e-11 3.34575e-11 2.19925e-11 0 0 2.3092e-12 3.82601e-12 3.99217e-12 2.45039e-12 0 0 1.17201e-13 2.03299e-13 4.70555e-13 3.67557e-14 0 0 -2.35407e-15 -2.93297e-13 1.90554e-14 -2.39671e-13 0 0 -2.05606e-14 -3.55458e-13 -8.52977e-14 -2.43977e-13 0 0 -7.87221e-13 6.84543e-13 -1.01448e-12 3.79584e-13 0 0 -3.55465e-13 -3.76934e-14 -2.95683e-13 -2.37075e-14 0 0 -2.91768e-13 -1.89232e-13 -8.34137e-14 -2.43283e-13 0 0 -1.65344e-13 -3.30796e-13 -5.27059e-14 -2.87698e-13 0 0 -1.62759e-13 -3.69169e-13 -1.15361e-13 -1.77087e-13 0 0 -8.33051e-13 5.7771e-13 -1.04082e-12 5.39316e-13 0 0 -2.74919e-13 -2.96024e-13 -1.8666e-13 4.96073e-14 0 0 -3.39839e-13 -1.88601e-13 -1.32132e-13 -2.18689e-13 0 0 -2.57243e-13 -7.63649e-14 -3.22542e-13 -4.12628e-13 0 0 -1.22445e-13 -3.99665e-13 -8.65584e-14 -5.73297e-13 0 0 -9.27961e-13 4.9588e-13 -9.82834e-13 2.58036e-13 0 0 -2.87716e-13 -4.32071e-13 -3.27604e-13 9.70307e-14 0 0 -1.91857e-13 -5.06354e-13 -2.30542e-13 -3.779e-14 0 0 -4.90063e-13 -9.36729e-14 -4.53847e-13 -2.08885e-13 0 0 1.78863e-13 -1.26592e-12 7.1589e-13 -9.80682e-13 0 0 -9.05673e-13 1.71851e-13 -4.15983e-13 -1.96712e-13 0 0 -1.23698e-12 7.5391e-13 -8.22272e-13 8.26772e-14 0 0 1.43408e-13 -9.5147e-13 7.59428e-13 -8.03061e-13 0 0 -2.70184e-13 -1.27194e-13 1.09745e-13 -4.06365e-13 0 0 -3.01737e-13 -9.5187e-14 -7.71999e-14 -6.70501e-14 0 0 -6.87348e-13 2.96052e-13 -6.79325e-13 6.71814e-13 0 0 -1.0242e-12 5.36169e-13 -8.01184e-13 7.62866e-13 0 0 2.31797e-14 -1.00181e-12 8.51801e-13 -5.26422e-13 0 0 -4.42549e-13 -1.87135e-13 2.39741e-13 -2.8788e-13 0 0 -3.94129e-13 -2.81624e-13 1.43072e-13 1.80976e-13 0 0 -6.89534e-13 -5.58504e-14 -2.69816e-13 8.08567e-13 0 0 -8.47547e-13 4.60384e-14 -3.93158e-13 7.68751e-13 0 0 -5.12772e-13 -3.13107e-13 -3.80444e-14 5.20551e-14 0 0 -2.01412e-13 -4.56276e-13 -2.1657e-13 -2.17052e-13 0 0 -8.12626e-14 -5.7092e-13 -4.56955e-13 -1.59361e-13 0 0 -9.59549e-13 4.2393e-13 -1.16921e-12 1.37396e-13 0 0 -7.28154e-13 -1.93951e-13 -2.59808e-13 -4.57665e-13 0 0 -3.13233e-13 -8.85162e-13 5.43471e-13 -1.08899e-12 0 0 6.5222e-14 -1.14011e-12 4.45433e-13 -1.17967e-12 0 0 -4.0374e-13 -1.01432e-13 -1.07345e-12 -8.33947e-14 0 0 -9.47321e-13 7.46414e-13 -1.97545e-12 5.36101e-13 0 0 -3.08853e-13 -4.46782e-13 -6.30075e-13 -3.54309e-13 0 0 -5.50191e-14 -1.13824e-12 3.8527e-13 -1.1174e-12 0 0 -2.52929e-13 -7.75287e-13 4.18251e-14 -1.04097e-12 0 0 -7.18856e-13 2.58527e-14 -9.71331e-13 -2.42765e-13 0 0 -9.27858e-13 3.80912e-13 -1.76837e-12 7.27309e-13 0 0 -2.86036e-14 -9.06705e-13 -9.87363e-13 6.38435e-13 0 0 -2.79505e-13 -5.50601e-13 -9.8909e-13 2.5008e-13 0 0 -6.02937e-13 -4.06031e-14 -1.06956e-12 -3.42416e-13 0 0 -6.08859e-15 -1.16535e-12 2.87312e-13 -1.43804e-12 0 0 -7.76397e-13 -2.35767e-13 -3.36484e-13 -1.01293e-12 0 0 -4.967e-13 -3.63146e-13 -4.81778e-13 -8.05294e-13 0 0 -4.04788e-13 -1.21977e-13 -1.21692e-12 -3.54522e-13 0 0 -4.6226e-13 -1.81362e-14 -1.35026e-12 -2.70076e-13 0 0 5.53825e-14 -1.20321e-12 2.911e-13 -1.00272e-12 0 0 -7.96492e-13 -2.5004e-13 -3.20078e-13 -4.17617e-13 0 0 -4.91067e-13 -4.2024e-13 -5.46581e-13 -3.14678e-13 0 0 -4.37759e-13 -1.13328e-13 -1.23344e-12 -3.03126e-14 0 0 -5.50273e-13 5.57962e-14 -1.32124e-12 -1.35233e-13 0 0 2.04931e-13 -1.45346e-12 4.9793e-13 -1.07302e-12 0 0 -5.66864e-13 -5.23703e-13 -5.26387e-14 -5.77046e-13 0 0 -4.82618e-13 -4.55272e-13 -4.13039e-13 -3.21889e-13 0 0 -3.87221e-13 -4.08436e-13 -7.89678e-13 -3.78731e-13 0 0 -6.12557e-13 -1.6581e-13 -8.91004e-13 -6.29564e-13 0 0 2.46095e-14 -1.44883e-12 5.70436e-13 -1.45175e-12 0 0 -7.01381e-13 -4.04634e-13 -2.90807e-13 -8.31839e-13 0 0 -6.64215e-13 -5.89615e-14 -7.23082e-13 -5.68199e-13 0 0 -1.09937e-12 5.10065e-13 -1.12241e-12 -4.1576e-13 0 0 -1.31998e-12 3.41239e-13 -7.70693e-13 -5.34635e-13 0 0 2.59732e-13 -2.24031e-12 1.54388e-12 -1.71186e-12 0 0 -1.2668e-12 2.34386e-13 -7.57023e-13 -4.09786e-13 0 0 -2.05075e-12 1.77794e-12 -2.10962e-12 9.01784e-14 0 0 -4.18806e-13 -4.14375e-13 7.41095e-14 -1.49528e-12 0 0 -1.54078e-13 -7.84859e-13 5.87719e-13 -1.96101e-12 0 0 2.31808e-13 -1.44476e-12 8.64468e-13 -1.87875e-12 0 0 -1.14373e-12 8.35185e-13 -1.84095e-12 1.45493e-13 0 0 -1.30785e-12 1.14357e-12 -1.9735e-12 1.9203e-13 0 0 6.15052e-14 -1.28289e-12 9.85595e-13 -1.82687e-12 0 0 -2.05377e-13 -1.10107e-12 1.16148e-12 -2.03176e-12 0
				</DataArray>
				<DataArray Name="VitesseY" type="Float32" format="ascii">