<?xml version="1.0"?>
<VTKFile type="PolyData">
	<PolyData>
		<Piece NumberOfPoints="1206" NumberOfPolys="1000">
			<Points>
				<DataArray type="Float32" NumberOfComponents="3" format="ascii">
 0 0 0 0.02 0 0 0.04 0 0 0.06 0 0 0.08 0 0 0.1 0 0 0 0.005 0 0.02 0.005 0 0.04 0.005 0 0.06 0.005 0 0.08 0.005 0 0.1 0.005 0 0 0.01 0 0.02 0.01 0 0.04 0.01 0 0.06 0.01 0 0.08 0.01 0 0.1 0.01 0 0 0.015 0 0.02 0.015 0 0.04 0.015 0 0.06 0.015 0 0.08 0.015 0 0.1 0.015 0 0 0.02 0 0.02 0.02 0 0.04 0.02 0 0.06 0.02 0 0.08 0.02 0 0.1 0.02 0 0 0.025 0 0.02 0.025 0 0.04 0.025 0 0.06 0.025 0 0.08 0.025 0 0.1 0.025 0 0 0.03 0 0.02 0.03 0 0.04 0.03 0 0.06 0.03 0 0.08 0.03 0 0.1 0.03 0 0 0.035 0 0.02 0.035 0 0.04 0.035 0 0.06 0.035 0 0.08 0.035 0 0.1 0.035 0 0 0.04 0 0.02 0.04 0 0.04 0.04 0 0.06 0.04 0 0.08 0.04 0 0.1 0.04 0 0 0.045 0 0.02 0.045 0 0.04 0.045 0 0.06 0.045 0 0.08 0.045 0 0.1 0.045 0 0 0.05 0 0.02 0.05 0 0.04 0.05 0 0.06 0.05 0 0.08 0.05 0 0.1 0.05 0 0 0.055 0 0.02 0.055 0 0.04 0.055 0 0.06 0.055 0 0.08 0.055 0 0.1 0.055 0 0 0.06 0 0.02 0.06 0 0.04 0.06 0 0.06 0.06 0 0.08 0.06 0 0.1 0.06 0 0 0.065 0 0.02 0.065 0 0.04 0.065 0 0.06 0.065 0 0.08 0.065 0 0.1 0.065 0 0 0.07 0 0.02 0.07 0 0.04 0.07 0 0.06 0.07 0 0.08 0.07 0 0.1 0.07 0 0 0.075 0 0.02 0.075 0 0.04 0.075 0 0.06 0.075 0 0.08 0.075 0 0.1 0.075 0 0 0.08 0 0.02 0.08 0 0.04 0.08 0 0.06 0.08 0 0.08 0.08 0 0.1 0.08 0 0 0.085 0 0.02 0.085 0 0.04 0.085 0 0.06 0.085 0 0.08 0.085 0 0.1 0.085 0 0 0.09 0 0.02 0.09 0 0.04 0.09 0 0.06 0.09 0 0.08 0.09 0 0.1 0.09 0 0 0.095 0 0.02 0.095 0 0.04 0.095 0 0.06 0.095 0 0.08 0.095 0 0.1 0.095 0 0 0.1 0 0.02 0.1 0 0.04 0.1 0 0.06 0.1 0 0.08 0.1 0 0.1 0.1 0 0 0.105 0 0.02 0.105 0 0.04 0.105 0 0.06 0.105 0 0.08 0.105 0 0.1 0.105 0 0 0.11 0 0.02 0.11 0 0.04 0.11 0 0.06 0.11 0 0.08 0.11 0 0.1 0.11 0 0 0.115 0 0.02 0.115 0 0.04 0.115 0 0.06 0.115 0 0.08 0.115 0 0.1 0.115 0 0 0.12 0 0.02 0.12 0 0.04 0.12 0 0.06 0.12 0 0.08 0.12 0 0.1 0.12 0 0 0.125 0 0.02 0.125 0 0.04 0.125 0 0.06 0.125 0 0.08 0.125 0 0.1 0.125 0 0 0.13 0 0.02 0.13 0 0.04 0.13 0 0.06 0.13 0 0.08 0.13 0 0.1 0.13 0 0 0.135 0 0.02 0.135 0 0.04 0.135 0 0.06 0.135 0 0.08 0.135 0 0.1 0.135 0 0 0.14 0 0.02 0.14 0 0.04 0.14 0 0.06 0.14 0 0.08 0.14 0 0.1 0.14 0 0 0.145 0 0.02 0.145 0 0.04 0.145 0 0.06 0.145 0 0.08 0.145 0 0.1 0.145 0 0 0.15 0 0.02 0.15 0 0.04 0.15 0 0.06 0.15 0 0.08 0.15 0 0.1 0.15 0 0 0.155 0 0.02 0.155 0 0.04 0.155 0 0.06 0.155 0 0.08 0.155 0 0.1 0.155 0 0 0.16 0 0.02 0.16 0 0.04 0.16 0 0.06 0.16 0 0.08 0.16 0 0.1 0.16 0 0 0.165 0 0.02 0.165 0 0.04 0.165 0 0.06 0.165 0 0.08 0.165 0 0.1 0.165 0 0 0.17 0 0.02 0.17 0 0.04 0.17 0 0.06 0.17 0 0.08 0.17 0 0.1 0.17 0 0 0.175 0 0.02 0.175 0 0.04 0.175 0 0.06 0.175 0 0.08 0.175 0 0.1 0.175 0 0 0.18 0 0.02 0.18 0 0.04 0.18 0 0.06 0.18 0 0.08 0.18 0 0.1 0.18 0 0 0.185 0 0.02 0.185 0 0.04 0.185 0 0.06 0.185 0 0.08 0.185 0 0.1 0.185 0 0 0.19 0 0.02 0.19 0 0.04 0.19 0 0.06 0.19 0 0.08 0.19 0 0.1 0.19 0 0 0.195 0 0.02 0.195 0 0.04 0.195 0 0.06 0.195 0 0.08 0.195 0 0.1 0.195 0 0 0.2 0 0.02 0.2 0 0.04 0.2 0 0.06 0.2 0 0.08 0.2 0 0.1 0.2 0 0 0.205 0 0.02 0.205 0 0.04 0.205 0 0.06 0.205 0 0.08 0.205 0 0.1 0.205 0 0 0.21 0 0.02 0.21 0 0.04 0.21 0 0.06 0.21 0 0.08 0.21 0 0.1 0.21 0 0 0.215 0 0.02 0.215 0 0.04 0.215 0 0.06 0.215 0 0.08 0.215 0 0.1 0.215 0 0 0.22 0 0.02 0.22 0 0.04 0.22 0 0.06 0.22 0 0.08 0.22 0 0.1 0.22 0 0 0.225 0 0.02 0.225 0 0.04 0.225 0 0.06 0.225 0 0.08 0.225 0 0.1 0.225 0 0 0.23 0 0.02 0.23 0 0.04 0.23 0 0.06 0.23 0 0.08 0.23 0 0.1 0.23 0 0 0.235 0 0.02 0.235 0 0.04 0.235 0 0.06 0.235 0 0.08 0.235 0 0.1 0.235 0 0 0.24 0 0.02 0.24 0 0.04 0.24 0 0.06 0.24 0 0.08 0.24 0 0.1 0.24 0 0 0.245 0 0.02 0.245 0 0.04 0.245 0 0.06 0.245 0 0.08 0.245 0 0.1 0.245 0 0 0.25 0 0.02 0.25 0 0.04 0.25 0 0.06 0.25 0 0.08 0.25 0 0.1 0.25 0 0 0.255 0 0.02 0.255 0 0.04 0.255 0 0.06 0.255 0 0.08 0.255 0 0.1 0.255 0 0 0.26 0 0.02 0.26 0 0.04 0.26 0 0.06 0.26 0 0.08 0.26 0 0.1 0.26 0 0 0.265 0 0.02 0.265 0 0.04 0.265 0 0.06 0.265 0 0.08 0.265 0 0.1 0.265 0 0 0.27 0 0.02 0.27 0 0.04 0.27 0 0.06 0.27 0 0.08 0.27 0 0.1 0.27 0 0 0.275 0 0.02 0.275 0 0.04 0.275 0 0.06 0.275 0 0.08 0.275 0 0.1 0.275 0 0 0.28 0 0.02 0.28 0 0.04 0.28 0 0.06 0.28 0 0.08 0.28 0 0.1 0.28 0 0 0.285 0 0.02 0.285 0 0.04 0.285 0 0.06 0.285 0 0.08 0.285 0 0.1 0.285 0 0 0.29 0 0.02 0.29 0 0.04 0.29 0 0.06 0.29 0 0.08 0.29 0 0.1 0.29 0 0 0.295 0 0.02 0.295 0 0.04 0.295 0 0.06 0.295 0 0.08 0.295 0 0.1 0.295 0 0 0.3 0 0.02 0.3 0 0.04 0.3 0 0.06 0.3 0 0.08 0.3 0 0.1 0.3 0 0 0.305 0 0.02 0.305 0 0.04 0.305 0 0.06 0.305 0 0.08 0.305 0 0.1 0.305 0 0 0.31 0 0.02 0.31 0 0.04 0.31 0 0.06 0.31 0 0.08 0.31 0 0.1 0.31 0 0 0.315 0 0.02 0.315 0 0.04 0.315 0 0.06 0.315 0 0.08 0.315 0 0.1 0.315 0 0 0.32 0 0.02 0.32 0 0.04 0.32 0 0.06 0.32 0 0.08 0.32 0 0.1 0.32 0 0 0.325 0 0.02 0.325 0 0.04 0.325 0 0.06 0.325 0 0.08 0.325 0 0.1 0.325 0 0 0.33 0 0.02 0.33 0 0.04 0.33 0 0.06 0.33 0 0.08 0.33 0 0.1 0.33 0 0 0.335 0 0.02 0.335 0 0.04 0.335 0 0.06 0.335 0 0.08 0.335 0 0.1 0.335 0 0 0.34 0 0.02 0.34 0 0.04 0.34 0 0.06 0.34 0 0.08 0.34 0 0.1 0.34 0 0 0.345 0 0.02 0.345 0 0.04 0.345 0 0.06 0.345 0 0.08 0.345 0 0.1 0.345 0 0 0.35 0 0.02 0.35 0 0.04 0.35 0 0.06 0.35 0 0.08 0.35 0 0.1 0.35 0 0 0.355 0 0.02 0.355 0 0.04 0.355 0 0.06 0.355 0 0.08 0.355 0 0.1 0.355 0 0 0.36 0 0.02 0.36 0 0.04 0.36 0 0.06 0.36 0 0.08 0.36 0 0.1 0.36 0 0 0.365 0 0.02 0.365 0 0.04 0.365 0 0.06 0.365 0 0.08 0.365 0 0.1 0.365 0 0 0.37 0 0.02 0.37 0 0.04 0.37 0 0.06 0.37 0 0.08 0.37 0 0.1 0.37 0 0 0.375 0 0.02 0.375 0 0.04 0.375 0 0.06 0.375 0 0.08 0.375 0 0.1 0.375 0 0 0.38 0 0.02 0.38 0 0.04 0.38 0 0.06 0.38 0 0.08 0.38 0 0.1 0.38 0 0 0.385 0 0.02 0.385 0 0.04 0.385 0 0.06 0.385 0 0.08 0.385 0 0.1 0.385 0 0 0.39 0 0.02 0.39 0 0.04 0.39 0 0.06 0.39 0 0.08 0.39 0 0.1 0.39 0 0 0.395 0 0.02 0.395 0 0.04 0.395 0 0.06 0.395 0 0.08 0.395 0 0.1 0.395 0 0 0.4 0 0.02 0.4 0 0.04 0.4 0 0.06 0.4 0 0.08 0.4 0 0.1 0.4 0 0 0.405 0 0.02 0.405 0 0.04 0.405 0 0.06 0.405 0 0.08 0.405 0 0.1 0.405 0 0 0.41 0 0.02 0.41 0 0.04 0.41 0 0.06 0.41 0 0.08 0.41 0 0.1 0.41 0 0 0.415 0 0.02 0.415 0 0.04 0.415 0 0.06 0.415 0 0.08 0.415 0 0.1 0.415 0 0 0.42 0 0.02 0.42 0 0.04 0.42 0 0.06 0.42 0 0.08 0.42 0 0.1 0.42 0 0 0.425 0 0.02 0.425 0 0.04 0.425 0 0.06 0.425 0 0.08 0.425 0 0.1 0.425 0 0 0.43 0 0.02 0.43 0 0.04 0.43 0 0.06 0.43 0 0.08 0.43 0 0.1 0.43 0 0 0.435 0 0.02 0.435 0 0.04 0.435 0 0.06 0.435 0 0.08 0.435 0 0.1 0.435 0 0 0.44 0 0.02 0.44 0 0.04 0.44 0 0.06 0.44 0 0.08 0.44 0 0.1 0.44 0 0 0.445 0 0.02 0.445 0 0.04 0.445 0 0.06 0.445 0 0.08 0.445 0 0.1 0.445 0 0 0.45 0 0.02 0.45 0 0.04 0.45 0 0.06 0.45 0 0.08 0.45 0 0.1 0.45 0 0 0.455 0 0.02 0.455 0 0.04 0.455 0 0.06 0.455 0 0.08 0.455 0 0.1 0.455 0 0 0.46 0 0.02 0.46 0 0.04 0.46 0 0.06 0.46 0 0.08 0.46 0 0.1 0.46 0 0 0.465 0 0.02 0.465 0 0.04 0.465 0 0.06 0.465 0 0.08 0.465 0 0.1 0.465 0 0 0.47 0 0.02 0.47 0 0.04 0.47 0 0.06 0.47 0 0.08 0.47 0 0.1 0.47 0 0 0.475 0 0.02 0.475 0 0.04 0.475 0 0.06 0.475 0 0.08 0.475 0 0.1 0.475 0 0 0.48 0 0.02 0.48 0 0.04 0.48 0 0.06 0.48 0 0.08 0.48 0 0.1 0.48 0 0 0.485 0 0.02 0.485 0 0.04 0.485 0 0.06 0.485 0 0.08 0.485 0 0.1 0.485 0 0 0.49 0 0.02 0.49 0 0.04 0.49 0 0.06 0.49 0 0.08 0.49 0 0.1 0.49 0 0 0.495 0 0.02 0.495 0 0.04 0.495 0 0.06 0.495 0 0.08 0.495 0 0.1 0.495 0 0 0.5 0 0.02 0.5 0 0.04 0.5 0 0.06 0.5 0 0.08 0.5 0 0.1 0.5 0 0 0.505 0 0.02 0.505 0 0.04 0.505 0 0.06 0.505 0 0.08 0.505 0 0.1 0.505 0 0 0.51 0 0.02 0.51 0 0.04 0.51 0 0.06 0.51 0 0.08 0.51 0 0.1 0.51 0 0 0.515 0 0.02 0.515 0 0.04 0.515 0 0.06 0.515 0 0.08 0.515 0 0.1 0.515 0 0 0.52 0 0.02 0.52 0 0.04 0.52 0 0.06 0.52 0 0.08 0.52 0 0.1 0.52 0 0 0.525 0 0.02 0.525 0 0.04 0.525 0 0.06 0.525 0 0.08 0.525 0 0.1 0.525 0 0 0.53 0 0.02 0.53 0 0.04 0.53 0 0.06 0.53 0 0.08 0.53 0 0.1 0.53 0 0 0.535 0 0.02 0.535 0 0.04 0.535 0 0.06 0.535 0 0.08 0.535 0 0.1 0.535 0 0 0.54 0 0.02 0.54 0 0.04 0.54 0 0.06 0.54 0 0.08 0.54 0 0.1 0.54 0 0 0.545 0 0.02 0.545 0 0.04 0.545 0 0.06 0.545 0 0.08 0.545 0 0.1 0.545 0 0 0.55 0 0.02 0.55 0 0.04 0.55 0 0.06 0.55 0 0.08 0.55 0 0.1 0.55 0 0 0.555 0 0.02 0.555 0 0.04 0.555 0 0.06 0.555 0 0.08 0.555 0 0.1 0.555 0 0 0.56 0 0.02 0.56 0 0.04 0.56 0 0.06 0.56 0 0.08 0.56 0 0.1 0.56 0 0 0.565 0 0.02 0.565 0 0.04 0.565 0 0.06 0.565 0 0.08 0.565 0 0.1 0.565 0 0 0.57 0 0.02 0.57 0 0.04 0.57 0 0.06 0.57 0 0.08 0.57 0 0.1 0.57 0 0 0.575 0 0.02 0.575 0 0.04 0.575 0 0.06 0.575 0 0.08 0.575 0 0.1 0.575 0 0 0.58 0 0.02 0.58 0 0.04 0.58 0 0.06 0.58 0 0.08 0.58 0 0.1 0.58 0 0 0.585 0 0.02 0.585 0 0.04 0.585 0 0.06 0.585 0 0.08 0.585 0 0.1 0.585 0 0 0.59 0 0.02 0.59 0 0.04 0.59 0 0.06 0.59 0 0.08 0.59 0 0.1 0.59 0 0 0.595 0 0.02 0.595 0 0.04 0.595 0 0.06 0.595 0 0.08 0.595 0 0.1 0.595 0 0 0.6 0 0.02 0.6 0 0.04 0.6 0 0.06 0.6 0 0.08 0.6 0 0.1 0.6 0 0 0.605 0 0.02 0.605 0 0.04 0.605 0 0.06 0.605 0 0.08 0.605 0 0.1 0.605 0 0 0.61 0 0.02 0.61 0 0.04 0.61 0 0.06 0.61 0 0.08 0.61 0 0.1 0.61 0 0 0.615 0 0.02 0.615 0 0.04 0.615 0 0.06 0.615 0 0.08 0.615 0 0.1 0.615 0 0 0.62 0 0.02 0.62 0 0.04 0.62 0 0.06 0.62 0 0.08 0.62 0 0.1 0.62 0 0 0.625 0 0.02 0.625 0 0.04 0.625 0 0.06 0.625 0 0.08 0.625 0 0.1 0.625 0 0 0.63 0 0.02 0.63 0 0.04 0.63 0 0.06 0.63 0 0.08 0.63 0 0.1 0.63 0 0 0.635 0 0.02 0.635 0 0.04 0.635 0 0.06 0.635 0 0.08 0.635 0 0.1 0.635 0 0 0.64 0 0.02 0.64 0 0.04 0.64 0 0.06 0.64 0 0.08 0.64 0 0.1 0.64 0 0 0.645 0 0.02 0.645 0 0.04 0.645 0 0.06 0.645 0 0.08 0.645 0 0.1 0.645 0 0 0.65 0 0.02 0.65 0 0.04 0.65 0 0.06 0.65 0 0.08 0.65 0 0.1 0.65 0 0 0.655 0 0.02 0.655 0 0.04 0.655 0 0.06 0.655 0 0.08 0.655 0 0.1 0.655 0 0 0.66 0 0.02 0.66 0 0.04 0.66 0 0.06 0.66 0 0.08 0.66 0 0.1 0.66 0 0 0.665 0 0.02 0.665 0 0.04 0.665 0 0.06 0.665 0 0.08 0.665 0 0.1 0.665 0 0 0.67 0 0.02 0.67 0 0.04 0.67 0 0.06 0.67 0 0.08 0.67 0 0.1 0.67 0 0 0.675 0 0.02 0.675 0 0.04 0.675 0 0.06 0.675 0 0.08 0.675 0 0.1 0.675 0 0 0.68 0 0.02 0.68 0 0.04 0.68 0 0.06 0.68 0 0.08 0.68 0 0.1 0.68 0 0 0.685 0 0.02 0.685 0 0.04 0.685 0 0.06 0.685 0 0.08 0.685 0 0.1 0.685 0 0 0.69 0 0.02 0.69 0 0.04 0.69 0 0.06 0.69 0 0.08 0.69 0 0.1 
[...]
			<PointData Scalars="VitesseX">
				<DataArray Name="VitesseX" type="Float32" format="ascii">
 0 -2.83397e-14 -7.41862e-15 7.24704e-15 8.07324e-15 0 0 -2.10612e-14 -1.52716e-14 1.1707e-14 5.9151e-15 0 0 -1.40704e-14 -1.71883e-14 8.49325e-15 6.10978e-15 0 0 -1.26875e-14 -1.30584e-14 2.16559e-15 8.89389e-15 0 0 -7.08779e-15 -1.78238e-14 4.27385e-15 1.29037e-14 0 0 -3.99742e-15 -1.71666e-14 4.72167e-15 1.28231e-14 0 0 -5.31611e-15 -2.19453e-15 -6.76926e-15 1.48814e-14 0 0 2.24709e-15 1.57443e-16 -9.55593e-16 8.21696e-15 0 0 1.04348e-14 8.30282e-15 -7.15804e-15 1.26799e-14 0 0 2.13584e-14 2.72279e-15 5.84737e-16 1.82527e-14 0 0 2.1985e-14 1.70847e-15 1.20253e-14 1.32092e-14 0 0 7.93363e-15 2.74511e-14 4.30237e-15 2.74899e-15 0 0 -1.35857e-14 4.72147e-14 7.64611e-15 -9.61383e-15 0 0 -1.22869e-14 4.48802e-14 -4.26809e-16 3.75126e-16 0 0 9.70534e-16 3.07528e-14 -1.37494e-14 1.42844e-14 0 0 1.71189e-14 -1.64356e-14 2.35236e-14 -2.05461e-14 0 0 1.07436e-14 -1.9493e-14 1.59115e-14 -2.50294e-14 0 0 1.68842e-14 -4.10192e-14 2.79955e-14 -3.02088e-14 0 0 1.19912e-14 -5.1456e-14 2.21549e-14 -8.17008e-16 0 0 5.23799e-15 -4.78759e-14 -6.56672e-15 5.71669e-14 0 0 9.4501e-15 -6.08859e-14 -5.20792e-15 6.74314e-14 0 0 -3.18267e-14 -8.7889e-15 -3.50582e-14 6.86168e-14 0 0 -1.24901e-14 -6.12512e-14 3.8747e-14 2.3098e-14 0 0 -4.38334e-15 -7.54006e-14 4.36506e-14 2.30313e-14 0 0 -4.83303e-14 1.38017e-14 -6.75977e-14 8.697e-14 0 0 -4.7954e-14 2.53555e-14 -8.19559e-14 9.93773e-14 0 0 -2.11515e-14 -2.3511e-14 -2.37568e-14 7.60352e-14 0 0 -2.3525e-14 -2.16702e-14 2.58349e-15 4.2883e-14 0 0 1.31358e-14 -7.16486e-14 8.68674e-14 -2.92102e-14 0 0 5.65651e-15 -4.34561e-14 3.74179e-14 3.45121e-14 0 0 -2.79378e-14 1.01789e-14 -1.50815e-14 6.81106e-14 0 0 -2.84405e-14 4.4322e-15 1.06653e-14 2.70364e-14 0 0 5.93037e-15 -3.36561e-14 5.46911e-14 -2.99512e-14 0 0 2.32038e-14 -6.89397e-14 1.07524e-13 -8.14428e-14 0 0 -1.48036e-14 -1.39683e-14 3.00163e-14 -9.31185e-15 0 0 -1.26434e-14 -1.89392e-14 2.21373e-14 2.04388e-14 0 0 -3.34043e-14 -2.33745e-14 5.28071e-14 3.20482e-14 0 0 -1.47388e-14 -4.29699e-14 5.30224e-14 4.96736e-14 0 0 1.71968e-14 -2.78208e-14 1.31332e-14 4.42089e-14 0 0 3.66827e-14 -2.09288e-14 3.41981e-14 -9.45989e-15 0 0 6.64705e-14 -3.67511e-14 8.77514e-14 -7.46304e-14 0 0 6.76144e-14 -3.4616e-15 4.46782e-14 -5.3634e-14 0 0 8.29396e-14 -2.55123e-14 6.64178e-14 -8.9477e-14 0 0 4.96604e-14 4.41014e-14 -3.33335e-15 -6.97025e-14 0 0 5.41558e-14 8.59128e-14 -4.80086e-14 -4.09443e-14 0 0 7.35269e-14 1.11495e-13 -1.08932e-13 3.98453e-14 0 0 7.85672e-14 1.04255e-13 -1.84359e-13 1.68425e-13 0 0 7.76996e-14 4.78613e-14 -1.24394e-13 1.46074e-13 0 0 6.10545e-14 2.25666e-15 -2.83004e-14 7.14604e-14 0 0 1.48321e-13 -1.52619e-13 1.02272e-13 5.69845e-15 0 0 1.35209e-13 -1.05865e-13 2.84859e-14 4.20721e-14 0 0 1.24498e-13 -7.43535e-14 -1.14802e-14 5.74966e-14 0 0 1.93409e-13 -1.07257e-13 -3.52973e-14 7.85987e-14 0 0 1.76031e-13 -6.45813e-14 -3.68473e-14 -1.6551e-15 0 0 1.13333e-13 6.53636e-14 -1.19212e-13 3.05707e-14 0 0 1.08176e-13 1.40351e-13 -2.11507e-13 1.74187e-13 0 0 1.20697e-13 1.51775e-14 5.87304e-15 8.81535e-14 0 0 1.43492e-13 -9.84269e-14 1.83443e-13 6.31329e-14 0 0 1.79499e-13 -1.12615e-13 1.92651e-13 1.2294e-13 0 0 8.24505e-14 4.18588e-14 1.41775e-13 7.94639e-14 0 0 -2.22917e-14 2.20579e-13 5.67597e-15 9.61376e-14 0 0 2.95955e-14 1.62845e-13 2.12346e-14 6.2164e-14 0 0 1.35642e-13 4.10583e-14 8.66903e-14 -7.79495e-15 0 0 1.4125e-13 4.39095e-14 7.63282e-14 1.35505e-14 0 0 4.48549e-14 1.3499e-13 6.51958e-14 3.09511e-14 0 0 3.85998e-14 1.01478e-13 6.83449e-14 4.34631e-14 0 0 2.39946e-13 -2.04068e-13 2.21635e-13 -1.67624e-14 0 0 1.57272e-13 -8.68153e-15 -1.17211e-14 5.90978e-14 0 0 -5.5368e-15 2.6511e-13 -2.75393e-13 1.3605e-13 0 0 1.75448e-13 7.84025e-14 -1.58321e-13 6.29529e-14 0 0 3.69722e-13 -1.0741e-13 3.68048e-16 -6.15189e-15 0 0 2.76905e-13 -8.80147e-14 4.74733e-14 -3.28486e-15 0 0 -5.02092e-15 2.83391e-13 -2.62391e-13 1.92811e-13 0 0 5.85079e-14 3.5505e-13 -3.80194e-13 2.24643e-13 0 0 2.50758e-13 2.14467e-13 -2.10902e-13 2.70486e-14 0 0 3.55819e-13 9.99041e-14 -3.93872e-14 -9.54693e-14 0 0 4.39513e-13 -5.28334e-14 1.0116e-13 -1.07241e-13 0 0 3.6521e-13 1.78238e-13 -9.03586e-14 2.02546e-13 0 0 3.84753e-13 6.70267e-13 -1.97245e-13 6.67302e-13 0 0 8.5003e-13 1.21976e-12 5.44819e-13 1.043e-12 0 0 2.16231e-12 2.90162e-12 2.76099e-12 2.05665e-12 0 0 5.13988e-12 7.67287e-12 7.85286e-12 4.94173e-12 0 0 1.16433e-11 1.87145e-11 1.88789e-11 1.17448e-11 0 0 2.45139e-11 4.05818e-11 4.06523e-11 2.54116e-11 0 0 4.39721e-11 7.30747e-11 7.40152e-11 4.65653e-11 0 0 4.51542e-11 7.83187e-11 8.39962e-11 5.46767e-11 0 0 -6.67671e-11 -9.72299e-11 -8.45147e-11 -4.57827e-11 0 0 -5.75583e-10 -9.05017e-10 -8.73236e-10 -5.23437e-10 0 0 -2.26211e-09 -3.60407e-09 -3.53563e-09 -2.15033e-09 0 0 -7.01638e-09 -1.12542e-08 -1.11331e-08 -6.81937e-09 0 0 -1.89962e-08 -3.0627e-08 -3.04915e-08 -1.87765e-08 0 0 -4.66526e-08 -7.5592e-08 -7.57218e-08 -4.68629e-08 0 0 -1.05934e-07 -1.72588e-07 -1.74028e-07 -1.08277e-07 0 0 -2.27621e-07 -3.68616e-07 -3.76783e-07 -2.34396e-07 0 0 -4.48351e-07 -7.63954e-07 -7.59466e-07 -4.90213e-07 0 0 -8.90333e-07 -1.42789e-06 -1.53838e-06 -9.28102e-07 0 0 -1.60413e-06 -2.65871e-06 -2.69436e-06 -1.83974e-06 0 0 -2.62478e-06 -4.81371e-06 -5.13697e-06 -3.06956e-06 0 0 -4.81438e-06 -7.44846e-06 -8.04512e-06 -5.61753e-06 0 0 -6.98261e-06 -1.30886e-05 -1.39262e-05 -8.75834e-06 0 0 -1.11318e-05 -1.92135e-05 -2.13585e-05 -1.41886e-05 0 0 -1.63128e-05 -2.79662e-05 -3.10551e-05 -2.08104e-05 0 0 -2.25528e-05 -4.14069e-05 -4.60385e-05 -3.07419e-05 0 0 -3.23801e-05 -5.74154e-05 -6.28414e-05 -4.20829e-05 0 0 -4.22583e-05 -7.41026e-05 -8.25768e-05 -5.45566e-05 0 0 -5.52658e-05 -9.52615e-05 -0.000102068 -6.61868e-05 0 0 -7.05001e-05 -0.000116677 -0.000119965 -7.57605e-05 0 0 -8.57045e-05 -0.000137499 -0.000135875 -8.32537e-05 0 0 -0.000100571 -0.000157338 -0.000150109 -8.92362e-05 0 0 -0.000114825 -0.00017575 -0.000163081 -9.42415e-05 0 0 -0.000128446 -0.00019307 -0.000175205 -9.88124e-05 0 0 -0.000141338 -0.000211386 -0.000185798 -0.000103972 0 0 -0.00015574 -0.000231515 -0.000198169 -0.000109577 0 0 -0.00017291 -0.00025335 -0.000216834 -0.000115287 0 0 -0.000190742 -0.000274922 -0.000237827 -0.000120167 0 0 -0.000206878 -0.000295846 -0.000256895 -0.000127061 0 0 -0.000232839 -0.000336843 -0.000289184 -0.000139287 0 0 -0.000286111 -0.000424828 -0.000337031 -0.000152034 0 0 -0.00035857 -0.00052175 -0.000388492 -0.000161562 0 0 -0.000443405 -0.000617348 -0.000451223 -0.000164659 0 0 -0.000534586 -0.000765119 -0.000542411 -0.000160155 0 0 -0.00062714 -0.00100976 -0.000676651 -0.000110994 0 0 -0.00069802 -0.00129825 -0.000843267 5.07296e-05 0 0 -0.000734316 -0.00139811 -0.000886805 0.000108791 0 0 -0.000724189 -0.00137184 -0.000866216 9.82311e-05 0 0 -0.000670179 -0.00126782 -0.000807032 6.21828e-05 0 0 -0.000538794 -0.00101977 -0.000686934 1.67375e-05 0 0 -0.000413064 -0.000822603 -0.00059608 2.06867e-05 0 0 -0.000338126 -0.000603527 -0.000444839 -2.71227e-05 0 0 -9.71172e-05 0.000275522 6.79786e-05 -0.000419311 0 0 0.000553063 0.00138604 0.000836604 -0.000516028 0 0 0.000742218 0.0014375 0.000963271 -0.000201627 0 0 0.000727179 0.00131334 0.000942236 0.000220653 0 0 0.000651237 0.00106259 0.000838063 0.000301762 0 0 0.000540154 0.000838856 0.00069689 0.000301081 0 0 0.000440971 0.000665126 0.000576077 0.000291767 0 0 0.000361872 0.000544194 0.000485477 0.000265785 0 0 0.000305825 0.000466182 0.000423959 0.000239973 0 0 0.00027097 0.000419887 0.000386593 0.000220348 0 0 0.000247643 0.000388668 0.000363305 0.000208088 0 0 0.00022522 0.000355115 0.000339696 0.000199313 0 0 0.000202737 0.000321205 0.000313654 0.000188835 0 0 0.00018427 0.000293346 0.000289987 0.000177639 0 0 0.000171421 0.000273983 0.000271211 0.000166754 0 0 0.000159997 0.000256323 0.000253443 0.000155325 0 0 0.000145402 0.000233393 0.000231108 0.000141705 0 0 0.000127522 0.000205076 0.000203479 0.00012494 0 0 0.000106432 0.000171447 0.000170456 0.00010483 0 0 8.30551e-05 0.000133985 0.000133456 8.22004e-05 0 0 5.92944e-05 9.57796e-05 9.55636e-05 5.89459e-05 0 0 3.77522e-05 6.1041e-05 6.0982e-05 3.7657e-05 0 0 2.09579e-05 3.39077e-05 3.39028e-05 2.09502e-05 0 0 9.92041e-06 1.60563e-05 1.60621e-05 9.92971e-06 0 0 4.01233e-06 6.49516e-06 6.49896e-06 4.01847e-06 0 0 1.435e-06 2.32309e-06 2.32459e-06 1.43742e-06 0 0 4.74538e-07 7.682e-07 7.6867e-07 4.75299e-07 0 0 1.50367e-07 2.43404e-07 2.43534e-07 1.50577e-07 0 0 4.64668e-08 7.52115e-08 7.52448e-08 4.65201e-08 0 0 1.41086e-08 2.28349e-08 2.28424e-08 1.41215e-08 0 0 4.22074e-09 6.83128e-09 6.83244e-09 4.22392e-09 0 0 1.24532e-09 2.01559e-09 2.01572e-09 1.24603e-09 0 0 3.62576e-10 5.86665e-10 5.8695e-10 3.62585e-10 0 0 1.04271e-10 1.68503e-10 1.68843e-10 1.04114e-10 0 0 2.96513e-11 4.79399e-11 4.80098e-11 2.96432e-11 0 0 8.32813e-12 1.38497e-11 1.34127e-11 8.54454e-12 0 0 2.51572e-12 3.98134e-12 4.00932e-12 2.43244e-12 0 0 9.50955e-13 1.14739e-12 1.50917e-12 7.33835e-13 0 0 4.03357e-13 6.34826e-13 5.78199e-13 4.01478e-13 0 0 3.65141e-13 3.18112e-13 5.16523e-13 1.91652e-13 0 0 2.83566e-13 2.79513e-13 4.36703e-13 2.31854e-13 0 0 2.46127e-13 2.59321e-13 3.94573e-13 2.90248e-13 0 0 2.40716e-13 2.36167e-13 3.32731e-13 3.84694e-13 0 0 2.32224e-13 3.08173e-13 1.54643e-13 5.70343e-13 0 0 3.4587e-13 1.72059e-13 3.83227e-13 3.38879e-13 0 0 2.07139e-13 3.95183e-13 2.51215e-13 3.47694e-13 0 0 2.32783e-13 3.51322e-13 2.86673e-13 3.90412e-13 0 0 3.28186e-13 1.48733e-13 6.47739e-13 8.5374e-14 0 0 1.79549e-13 3.1949e-13 5.76922e-13 1.31279e-13 0 0 2.27299e-13 2.30426e-13 5.99914e-13 2.85072e-13 0 0 2.95226e-13 1.86742e-13 5.90465e-13 3.79872e-13 0 0 2.32043e-13 3.3498e-13 4.16463e-13 4.65491e-13 0 0 1.10486e-13 5.63264e-13 3.4682e-13 3.191e-13 0 0 2.22354e-13 4.48777e-13 5.16419e-13 1.45254e-13 0 0 2.86172e-13 4.05672e-13 4.46567e-13 3.41573e-13 0 0 1.41378e-13 6.17917e-13 2.15234e-13 6.15531e-13 0 0 1.55798e-13 5.10669e-13 2.99936e-13 6.05301e-13 0 0 2.80736e-13 2.3322e-13 6.27958e-13 3.31561e-13 0 0 4.3156e-13 1.71315e-13 5.96121e-13 2.11499e-13 0 0 5.3566e-13 1.32616e-13 5.05345e-13 1.69806e-13 0 0 3.60929e-13 3.6333e-13 4.36359e-13 5.55342e-14 0 0 1.32394e-13 6.93787e-13 3.23839e-13 -6.93778e-14 0 0 1.74949e-13 5.53582e-13 2.78279e-13 1.90398e-13 0 0 1.0543e-13 6.46274e-13 -2.06604e-14 6.04133e-13 0 0 3.41126e-13 3.11334e-13 3.80648e-13 2.09363e-13 0 0 5.52897e-13 1.64034e-13 4.72935e-13 8.34676e-14 0 0 3.74647e-13 5.02052e-13 8.54234e-14 3.62666e-13 0 0 2.71364e-13 5.48371e-13 1.67358e-13 2.22828e-13 0 0 4.10652e-13 3.42677e-13 4.41177e-13 -8.85799e-14 0 0 4.06291e-13 4.42465e-13 2.47864e-13 3.98467e-14 0 0 -2.34273e-14 1.20584e-12 -5.60474e-13 4.60519e-13 0 0 -2.32707e-13 1.5732e-12 -9.21138e-13 5.77023e-13 0
				</DataArray>
				<DataArray Name="VitesseY" type="Float32" format="ascii">