<?xml version="1.0"?>
<VTKFile type="PolyData">
	<PolyData>
		<Piece NumberOfPoints="1206" NumberOfPolys="1000">
			<Points>
				<DataArray type="Float32" NumberOfComponents="3" format="ascii">
 0 0 0 0.02 0 0 0.04 0 0 0.06 0 0 0.08 0 0 0.1 0 0 0 0.005 0 0.02 0.005 0 0.04 0.005 0 0.06 0.005 0 0.08 0.005 0 0.1 0.005 0 0 0.01 0 0.02 0.01 0 0.04 0.01 0 0.06 0.01 0 0.08 0.01 0 0.1 0.01 0 0 0.015 0 0.02 0.015 0 0.04 0.015 0 0.06 0.015 0 0.08 0.015 0 0.1 0.015 0 0 0.02 0 0.02 0.02 0 0.04 0.02 0 0.06 0.02 0 0.08 0.02 0 0.1 0.02 0 0 0.025 0 0.02 0.025 0 0.04 0.025 0 0.06 0.025 0 0.08 0.025 0 0.1 0.025 0 0 0.03 0 0.02 0.03 0 0.04 0.03 0 0.06 0.03 0 0.08 0.03 0 0.1 0.03 0 0 0.035 0 0.02 0.035 0 0.04 0.035 0 0.06 0.035 0 0.08 0.035 0 0.1 0.035 0 0 0.04 0 0.02 0.04 0 0.04 0.04 0 0.06 0.04 0 0.08 0.04 0 0.1 0.04 0 0 0.045 0 0.02 0.045 0 0.04 0.045 0 0.06 0.045 0 0.08 0.045 0 0.1 0.045 0 0 0.05 0 0.02 0.05 0 0.04 0.05 0 0.06 0.05 0 0.08 0.05 0 0.1 0.05 0 0 0.055 0 0.02 0.055 0 0.04 0.055 0 0.06 0.055 0 0.08 0.055 0 0.1 0.055 0 0 0.06 0 0.02 0.06 0 0.04 0.06 0 0.06 0.06 0 0.08 0.06 0 0.1 0.06 0 0 0.065 0 0.02 0.065 0 0.04 0.065 0 0.06 0.065 0 0.08 0.065 0 0.1 0.065 0 0 0.07 0 0.02 0.07 0 0.04 0.07 0 0.06 0.07 0 0.08 0.07 0 0.1 0.07 0 0 0.075 0 0.02 0.075 0 0.04 0.075 0 0.06 0.075 0 0.08 0.075 0 0.1 0.075 0 0 0.08 0 0.02 0.08 0 0.04 0.08 0 0.06 0.08 0 0.08 0.08 0 0.1 0.08 0 0 0.085 0 0.02 0.085 0 0.04 0.085 0 0.06 0.085 0 0.08 0.085 0 0.1 0.085 0 0 0.09 0 0.02 0.09 0 0.04 0.09 0 0.06 0.09 0 0.08 0.09 0 0.1 0.09 0 0 0.095 0 0.02 0.095 0 0.04 0.095 0 0.06 0.095 0 0.08 0.095 0 0.1 0.095 0 0 0.1 0 0.02 0.1 0 0.04 0.1 0 0.06 0.1 0 0.08 0.1 0 0.1 0.1 0 0 0.105 0 0.02 0.105 0 0.04 0.105 0 0.06 0.105 0 0.08 0.105 0 0.1 0.105 0 0 0.11 0 0.02 0.11 0 0.04 0.11 0 0.06 0.11 0 0.08 0.11 0 0.1 0.11 0 0 0.115 0 0.02 0.115 0 0.04 0.115 0 0.06 0.115 0 0.08 0.115 0 0.1 0.115 0 0 0.12 0 0.02 0.12 0 0.04 0.12 0 0.06 0.12 0 0.08 0.12 0 0.1 0.12 0 0 0.125 0 0.02 0.125 0 0.04 0.125 0 0.06 0.125 0 0.08 0.125 0 0.1 0.125 0 0 0.13 0 0.02 0.13 0 0.04 0.13 0 0.06 0.13 0 0.08 0.13 0 0.1 0.13 0 0 0.135 0 0.02 0.135 0 0.04 0.135 0 0.06 0.135 0 0.08 0.135 0 0.1 0.135 0 0 0.14 0 0.02 0.14 0 0.04 0.14 0 0.06 0.14 0 0.08 0.14 0 0.1 0.14 0 0 0.145 0 0.02 0.145 0 0.04 0.145 0 0.06 0.145 0 0.08 0.145 0 0.1 0.145 0 0 0.15 0 0.02 0.15 0 0.04 0.15 0 0.06 0.15 0 0.08 0.15 0 0.1 0.15 0 0 0.155 0 0.02 0.155 0 0.04 0.155 0 0.06 0.155 0 0.08 0.155 0 0.1 0.155 0 0 0.16 0 0.02 0.16 0 0.04 0.16 0 0.06 0.16 0 0.08 0.16 0 0.1 0.16 0 0 0.165 0 0.02 0.165 0 0.04 0.165 0 0.06 0.165 0 0.08 0.165 0 0.1 0.165 0 0 0.17 0 0.02 0.17 0 0.04 0.17 0 0.06 0.17 0 0.08 0.17 0 0.1 0.17 0 0 0.175 0 0.02 0.175 0 0.04 0.175 0 0.06 0.175 0 0.08 0.175 0 0.1 0.175 0 0 0.18 0 0.02 0.18 0 0.04 0.18 0 0.06 0.18 0 0.08 0.18 0 0.1 0.18 0 0 0.185 0 0.02 0.185 0 0.04 0.185 0 0.06 0.185 0 0.08 0.185 0 0.1 0.185 0 0 0.19 0 0.02 0.19 0 0.04 0.19 0 0.06 0.19 0 0.08 0.19 0 0.1 0.19 0 0 0.195 0 0.02 0.195 0 0.04 0.195 0 0.06 0.195 0 0.08 0.195 0 0.1 0.195 0 0 0.2 0 0.02 0.2 0 0.04 0.2 0 0.06 0.2 0 0.08 0.2 0 0.1 0.2 0 0 0.205 0 0.02 0.205 0 0.04 0.205 0 0.06 0.205 0 0.08 0.205 0 0.1 0.205 0 0 0.21 0 0.02 0.21 0 0.04 0.21 0 0.06 0.21 0 0.08 0.21 0 0.1 0.21 0 0 0.215 0 0.02 0.215 0 0.04 0.215 0 0.06 0.215 0 0.08 0.215 0 0.1 0.215 0 0 0.22 0 0.02 0.22 0 0.04 0.22 0 0.06 0.22 0 0.08 0.22 0 0.1 0.22 0 0 0.225 0 0.02 0.225 0 0.04 0.225 0 0.06 0.225 0 0.08 0.225 0 0.1 0.225 0 0 0.23 0 0.02 0.23 0 0.04 0.23 0 0.06 0.23 0 0.08 0.23 0 0.1 0.23 0 0 0.235 0 0.02 0.235 0 0.04 0.235 0 0.06 0.235 0 0.08 0.235 0 0.1 0.235 0 0 0.24 0 0.02 0.24 0 0.04 0.24 0 0.06 0.24 0 0.08 0.24 0 0.1 0.24 0 0 0.245 0 0.02 0.245 0 0.04 0.245 0 0.06 0.245 0 0.08 0.245 0 0.1 0.245 0 0 0.25 0 0.02 0.25 0 0.04 0.25 0 0.06 0.25 0 0.08 0.25 0 0.1 0.25 0 0 0.255 0 0.02 0.255 0 0.04 0.255 0 0.06 0.255 0 0.08 0.255 0 0.1 0.255 0 0 0.26 0 0.02 0.26 0 0.04 0.26 0 0.06 0.26 0 0.08 0.26 0 0.1 0.26 0 0 0.265 0 0.02 0.265 0 0.04 0.265 0 0.06 0.265 0 0.08 0.265 0 0.1 0.265 0 0 0.27 0 0.02 0.27 0 0.04 0.27 0 0.06 0.27 0 0.08 0.27 0 0.1 0.27 0 0 0.275 0 0.02 0.275 0 0.04 0.275 0 0.06 0.275 0 0.08 0.275 0 0.1 0.275 0 0 0.28 0 0.02 0.28 0 0.04 0.28 0 0.06 0.28 0 0.08 0.28 0 0.1 0.28 0 0 0.285 0 0.02 0.285 0 0.04 0.285 0 0.06 0.285 0 0.08 0.285 0 0.1 0.285 0 0 0.29 0 0.02 0.29 0 0.04 0.29 0 0.06 0.29 0 0.08 0.29 0 0.1 0.29 0 0 0.295 0 0.02 0.295 0 0.04 0.295 0 0.06 0.295 0 0.08 0.295 0 0.1 0.295 0 0 0.3 0 0.02 0.3 0 0.04 0.3 0 0.06 0.3 0 0.08 0.3 0 0.1 0.3 0 0 0.305 0 0.02 0.305 0 0.04 0.305 0 0.06 0.305 0 0.08 0.305 0 0.1 0.305 0 0 0.31 0 0.02 0.31 0 0.04 0.31 0 0.06 0.31 0 0.08 0.31 0 0.1 0.31 0 0 0.315 0 0.02 0.315 0 0.04 0.315 0 0.06 0.315 0 0.08 0.315 0 0.1 0.315 0 0 0.32 0 0.02 0.32 0 0.04 0.32 0 0.06 0.32 0 0.08 0.32 0 0.1 0.32 0 0 0.325 0 0.02 0.325 0 0.04 0.325 0 0.06 0.325 0 0.08 0.325 0 0.1 0.325 0 0 0.33 0 0.02 0.33 0 0.04 0.33 0 0.06 0.33 0 0.08 0.33 0 0.1 0.33 0 0 0.335 0 0.02 0.335 0 0.04 0.335 0 0.06 0.335 0 0.08 0.335 0 0.1 0.335 0 0 0.34 0 0.02 0.34 0 0.04 0.34 0 0.06 0.34 0 0.08 0.34 0 0.1 0.34 0 0 0.345 0 0.02 0.345 0 0.04 0.345 0 0.06 0.345 0 0.08 0.345 0 0.1 0.345 0 0 0.35 0 0.02 0.35 0 0.04 0.35 0 0.06 0.35 0 0.08 0.35 0 0.1 0.35 0 0 0.355 0 0.02 0.355 0 0.04 0.355 0 0.06 0.355 0 0.08 0.355 0 0.1 0.355 0 0 0.36 0 0.02 0.36 0 0.04 0.36 0 0.06 0.36 0 0.08 0.36 0 0.1 0.36 0 0 0.365 0 0.02 0.365 0 0.04 0.365 0 0.06 0.365 0 0.08 0.365 0 0.1 0.365 0 0 0.37 0 0.02 0.37 0 0.04 0.37 0 0.06 0.37 0 0.08 0.37 0 0.1 0.37 0 0 0.375 0 0.02 0.375 0 0.04 0.375 0 0.06 0.375 0 0.08 0.375 0 0.1 0.375 0 0 0.38 0 0.02 0.38 0 0.04 0.38 0 0.06 0.38 0 0.08 0.38 0 0.1 0.38 0 0 0.385 0 0.02 0.385 0 0.04 0.385 0 0.06 0.385 0 0.08 0.385 0 0.1 0.385 0 0 0.39 0 0.02 0.39 0 0.04 0.39 0 0.06 0.39 0 0.08 0.39 0 0.1 0.39 0 0 0.395 0 0.02 0.395 0 0.04 0.395 0 0.06 0.395 0 0.08 0.395 0 0.1 0.395 0 0 0.4 0 0.02 0.4 0 0.04 0.4 0 0.06 0.4 0 0.08 0.4 0 0.1 0.4 0 0 0.405 0 0.02 0.405 0 0.04 0.405 0 0.06 0.405 0 0.08 0.405 0 0.1 0.405 0 0 0.41 0 0.02 0.41 0 0.04 0.41 0 0.06 0.41 0 0.08 0.41 0 0.1 0.41 0 0 0.415 0 0.02 0.415 0 0.04 0.415 0 0.06 0.415 0 0.08 0.415 0 0.1 0.415 0 0 0.42 0 0.02 0.42 0 0.04 0.42 0 0.06 0.42 0 0.08 0.42 0 0.1 0.42 0 0 0.425 0 0.02 0.425 0 0.04 0.425 0 0.06 0.425 0 0.08 0.425 0 0.1 0.425 0 0 0.43 0 0.02 0.43 0 0.04 0.43 0 0.06 0.43 0 0.08 0.43 0 0.1 0.43 0 0 0.435 0 0.02 0.435 0 0.04 0.435 0 0.06 0.435 0 0.08 0.435 0 0.1 0.435 0 0 0.44 0 0.02 0.44 0 0.04 0.44 0 0.06 0.44 0 0.08 0.44 0 0.1 0.44 0 0 0.445 0 0.02 0.445 0 0.04 0.445 0 0.06 0.445 0 0.08 0.445 0 0.1 0.445 0 0 0.45 0 0.02 0.45 0 0.04 0.45 0 0.06 0.45 0 0.08 0.45 0 0.1 0.45 0 0 0.455 0 0.02 0.455 0 0.04 0.455 0 0.06 0.455 0 0.08 0.455 0 0.1 0.455 0 0 0.46 0 0.02 0.46 0 0.04 0.46 0 0.06 0.46 0 0.08 0.46 0 0.1 0.46 0 0 0.465 0 0.02 0.465 0 0.04 0.465 0 0.06 0.465 0 0.08 0.465 0 0.1 0.465 0 0 0.47 0 0.02 0.47 0 0.04 0.47 0 0.06 0.47 0 0.08 0.47 0 0.1 0.47 0 0 0.475 0 0.02 0.475 0 0.04 0.475 0 0.06 0.475 0 0.08 0.475 0 0.1 0.475 0 0 0.48 0 0.02 0.48 0 0.04 0.48 0 0.06 0.48 0 0.08 0.48 0 0.1 0.48 0 0 0.485 0 0.02 0.485 0 0.04 0.485 0 0.06 0.485 0 0.08 0.485 0 0.1 0.485 0 0 0.49 0 0.02 0.49 0 0.04 0.49 0 0.06 0.49 0 0.08 0.49 0 0.1 0.49 0 0 0.495 0 0.02 0.495 0 0.04 0.495 0 0.06 0.495 0 0.08 0.495 0 0.1 0.495 0 0 0.5 0 0.02 0.5 0 0.04 0.5 0 0.06 0.5 0 0.08 0.5 0 0.1 0.5 0 0 0.505 0 0.02 0.505 0 0.04 0.505 0 0.06 0.505 0 0.08 0.505 0 0.1 0.505 0 0 0.51 0 0.02 0.51 0 0.04 0.51 0 0.06 0.51 0 0.08 0.51 0 0.1 0.51 0 0 0.515 0 0.02 0.515 0 0.04 0.515 0 0.06 0.515 0 0.08 0.515 0 0.1 0.515 0 0 0.52 0 0.02 0.52 0 0.04 0.52 0 0.06 0.52 0 0.08 0.52 0 0.1 0.52 0 0 0.525 0 0.02 0.525 0 0.04 0.525 0 0.06 0.525 0 0.08 0.525 0 0.1 0.525 0 0 0.53 0 0.02 0.53 0 0.04 0.53 0 0.06 0.53 0 0.08 0.53 0 0.1 0.53 0 0 0.535 0 0.02 0.535 0 0.04 0.535 0 0.06 0.535 0 0.08 0.535 0 0.1 0.535 0 0 0.54 0 0.02 0.54 0 0.04 0.54 0 0.06 0.54 0 0.08 0.54 0 0.1 0.54 0 0 0.545 0 0.02 0.545 0 0.04 0.545 0 0.06 0.545 0 0.08 0.545 0 0.1 0.545 0 0 0.55 0 0.02 0.55 0 0.04 0.55 0 0.06 0.55 0 0.08 0.55 0 0.1 0.55 0 0 0.555 0 0.02 0.555 0 0.04 0.555 0 0.06 0.555 0 0.08 0.555 0 0.1 0.555 0 0 0.56 0 0.02 0.56 0 0.04 0.56 0 0.06 0.56 0 0.08 0.56 0 0.1 0.56 0 0 0.565 0 0.02 0.565 0 0.04 0.565 0 0.06 0.565 0 0.08 0.565 0 0.1 0.565 0 0 0.57 0 0.02 0.57 0 0.04 0.57 0 0.06 0.57 0 0.08 0.57 0 0.1 0.57 0 0 0.575 0 0.02 0.575 0 0.04 0.575 0 0.06 0.575 0 0.08 0.575 0 0.1 0.575 0 0 0.58 0 0.02 0.58 0 0.04 0.58 0 0.06 0.58 0 0.08 0.58 0 0.1 0.58 0 0 0.585 0 0.02 0.585 0 0.04 0.585 0 0.06 0.585 0 0.08 0.585 0 0.1 0.585 0 0 0.59 0 0.02 0.59 0 0.04 0.59 0 0.06 0.59 0 0.08 0.59 0 0.1 0.59 0 0 0.595 0 0.02 0.595 0 0.04 0.595 0 0.06 0.595 0 0.08 0.595 0 0.1 0.595 0 0 0.6 0 0.02 0.6 0 0.04 0.6 0 0.06 0.6 0 0.08 0.6 0 0.1 0.6 0 0 0.605 0 0.02 0.605 0 0.04 0.605 0 0.06 0.605 0 0.08 0.605 0 0.1 0.605 0 0 0.61 0 0.02 0.61 0 0.04 0.61 0 0.06 0.61 0 0.08 0.61 0 0.1 0.61 0 0 0.615 0 0.02 0.615 0 0.04 0.615 0 0.06 0.615 0 0.08 0.615 0 0.1 0.615 0 0 0.62 0 0.02 0.62 0 0.04 0.62 0 0.06 0.62 0 0.08 0.62 0 0.1 0.62 0 0 0.625 0 0.02 0.625 0 0.04 0.625 0 0.06 0.625 0 0.08 0.625 0 0.1 0.625 0 0 0.63 0 0.02 0.63 0 0.04 0.63 0 0.06 0.63 0 0.08 0.63 0 0.1 0.63 0 0 0.635 0 0.02 0.635 0 0.04 0.635 0 0.06 0.635 0 0.08 0.635 0 0.1 0.635 0 0 0.64 0 0.02 0.64 0 0.04 0.64 0 0.06 0.64 0 0.08 0.64 0 0.1 0.64 0 0 0.645 0 0.02 0.645 0 0.04 0.645 0 0.06 0.645 0 0.08 0.645 0 0.1 0.645 0 0 0.65 0 0.02 0.65 0 0.04 0.65 0 0.06 0.65 0 0.08 0.65 0 0.1 0.65 0 0 0.655 0 0.02 0.655 0 0.04 0.655 0 0.06 0.655 0 0.08 0.655 0 0.1 0.655 0 0 0.66 0 0.02 0.66 0 0.04 0.66 0 0.06 0.66 0 0.08 0.66 0 0.1 0.66 0 0 0.665 0 0.02 0.665 0 0.04 0.665 0 0.06 0.665 0 0.08 0.665 0 0.1 0.665 0 0 0.67 0 0.02 0.67 0 0.04 0.67 0 0.06 0.67 0 0.08 0.67 0 0.1 0.67 0 0 0.675 0 0.02 0.675 0 0.04 0.675 0 0.06 0.675 0 0.08 0.675 0 0.1 0.675 0 0 0.68 0 0.02 0.68 0 0.04 0.68 0 0.06 0.68 0 0.08 0.68 0 0.1 0.68 0 0 0.685 0 0.02 0.685 0 0.04 0.685 0 0.06 0.685 0 0.08 0.685 0 0.1 0.685 0 0 0.69 0 0.02 0.69 0 0.04 0.69 0 0.06 0.69 0 0.08 0.69 0 0.1 
[...]
			<PointData Scalars="VitesseX">
				<DataArray Name="VitesseX" type="Float32" format="ascii">
 0 -7.90618e-15 -6.17176e-15 -1.36566e-14 -2.61892e-14 0 0 -4.04061e-15 -1.41391e-14 -6.2724e-15 -3.03114e-14 0 0 -7.28159e-15 -1.11981e-14 -1.41628e-14 -2.35016e-14 0 0 -1.23266e-14 -7.7319e-15 -2.0892e-14 -2.16007e-14 0 0 -1.16677e-14 -2.1614e-14 -6.43838e-15 -2.87468e-14 0 0 -1.21269e-14 -3.40117e-14 3.23847e-15 -2.74366e-14 0 0 -2.5574e-14 -2.15531e-14 -1.55823e-14 -1.35351e-14 0 0 -2.38219e-14 -2.78393e-14 -1.64299e-14 -1.22287e-14 0 0 -7.45155e-15 -5.24283e-14 3.84642e-16 -1.71814e-14 0 0 -2.02081e-14 -3.70216e-14 -1.56213e-14 6.39205e-15 0 0 -3.22341e-14 -2.38967e-14 -2.68866e-14 2.24815e-14 0 0 -2.65045e-14 -3.33353e-14 -1.44834e-14 1.13549e-14 0 0 -2.29824e-14 -3.324e-14 -6.62983e-15 -2.1779e-15 0 0 -2.10277e-14 -2.18001e-14 -1.05906e-14 -1.8802e-14 0 0 -3.15234e-14 8.48379e-15 -1.94734e-14 -5.39007e-14 0 0 -1.84107e-14 -1.15607e-14 1.5389e-14 -8.52339e-14 0 0 5.74804e-15 -4.14972e-14 3.88912e-14 -8.35311e-14 0 0 -2.67352e-14 3.80917e-14 -4.82685e-14 -3.25924e-14 0 0 -2.39423e-14 5.74904e-14 -7.74969e-14 -2.24435e-14 0 0 7.86685e-15 1.44962e-14 -4.84651e-14 -3.91425e-14 0 0 3.34434e-14 -3.26831e-14 1.23557e-15 -6.472e-14 0 0 4.59129e-14 -5.27269e-14 2.28221e-14 -7.93674e-14 0 0 2.07672e-14 -2.2739e-14 3.10821e-15 -9.29413e-14 0 0 5.48228e-15 7.17395e-15 -4.75665e-14 -6.15736e-14 0 0 -1.35486e-14 4.41643e-14 -9.2235e-14 -2.16752e-14 0 0 1.042e-14 -1.03517e-14 -1.78236e-14 -6.92183e-14 0 0 5.43131e-14 -9.15808e-14 3.61525e-14 -6.41216e-14 0 0 4.44897e-14 -8.04977e-14 -2.35917e-15 -7.89836e-15 0 0 -1.03015e-14 5.04267e-15 -7.53797e-14 2.69647e-14 0 0 -1.43454e-14 4.43811e-15 -4.0195e-14 -2.77704e-14 0 0 2.94046e-15 -2.37529e-14 2.35851e-14 -9.65131e-14 0 0 -3.01496e-14 4.06048e-14 -1.81718e-14 -9.40369e-14 0 0 -2.65599e-14 3.83296e-14 -2.85425e-14 -8.72115e-14 0 0 -6.57022e-15 -1.37562e-14 1.93614e-14 -9.25053e-14 0 0 -1.45709e-14 -3.19367e-14 3.29041e-14 -6.28546e-14 0 0 -2.82929e-14 -2.21545e-14 1.04552e-15 -1.95365e-14 0 0 -1.09747e-14 -2.28362e-14 -1.6449e-14 5.38355e-16 0 0 -1.58983e-14 -1.95e-14 -3.45069e-14 2.35728e-14 0 0 -5.73545e-14 3.18611e-15 -6.48532e-14 2.96375e-14 0 0 -5.58919e-14 -3.30695e-14 -1.31394e-14 -6.00625e-14 0 0 -4.67175e-14 -6.16447e-14 -6.98345e-16 -8.50704e-14 0 0 -8.20307e-14 -1.44847e-14 -7.23259e-14 -3.07225e-15 0 0 -2.28435e-14 -7.41898e-14 -3.80292e-14 -2.51926e-14 0 0 3.12438e-14 -1.25007e-13 -6.58689e-15 -3.86636e-14 0 0 1.42237e-14 -1.03653e-13 -1.61513e-14 2.64884e-15 0 0 -3.65662e-14 -3.09484e-14 -6.97019e-14 6.90951e-14 0 0 -9.34573e-14 -1.12339e-15 -7.18322e-14 9.60805e-14 0 0 -1.15531e-13 -3.88931e-14 -1.24617e-14 6.19175e-14 0 0 -6.66215e-14 -1.20514e-13 4.69227e-14 3.13286e-14 0 0 7.41479e-14 -2.728e-13 7.80119e-14 2.47919e-14 0 0 6.22787e-14 -2.20631e-13 6.62448e-15 -2.0283e-14 0 0 4.25965e-14 -1.59659e-13 -3.54117e-14 -9.54506e-14 0 0 1.01215e-13 -1.9831e-13 -6.53688e-14 -1.00049e-13 0 0 8.88171e-14 -2.14856e-13 -3.81967e-14 -1.22069e-13 0 0 -2.24405e-15 -1.35459e-13 -1.21535e-13 -4.27007e-14 0 0 -4.20325e-14 -8.26311e-14 -2.61937e-13 7.09228e-14 0 0 -5.40157e-14 -1.95579e-13 -1.24001e-13 -5.92466e-14 0 0 1.92344e-14 -3.40626e-13 5.72194e-15 -1.89316e-13 0 0 7.84415e-14 -3.28745e-13 -5.0547e-14 -1.60015e-13 0 0 -5.30493e-14 -1.90524e-13 -1.13654e-13 -1.27634e-13 0 0 -1.48037e-13 -1.0788e-13 -1.61647e-13 -8.42169e-14 0 0 -1.838e-13 -1.26194e-13 -1.10818e-13 -5.65831e-14 0 0 -2.34097e-13 -1.6881e-13 -4.05369e-14 -6.15241e-14 0 0 -2.30091e-13 -2.72153e-13 8.46718e-14 -1.44267e-13 0 0 -2.21588e-13 -2.61534e-13 6.72927e-14 -1.49198e-13 0 0 -2.84983e-13 -1.88992e-13 -4.40922e-14 -7.5171e-14 0 0 -2.02748e-13 -3.21934e-13 7.74593e-14 -1.6462e-13 0 0 -1.14291e-13 -3.43862e-13 1.00361e-13 -2.16974e-13 0 0 -1.48219e-13 -1.60325e-13 -5.60468e-15 -4.42407e-14 0 0 -1.01317e-13 1.17462e-13 6.83273e-14 1.99641e-13 0 0 1.20967e-13 4.22516e-13 4.2629e-13 4.10668e-13 0 0 6.05885e-13 1.02466e-12 1.28682e-12 8.04426e-13 0 0 1.51011e-12 2.25061e-12 2.75002e-12 1.59921e-12 0 0 3.02935e-12 4.61797e-12 5.07451e-12 3.13295e-12 0 0 5.25666e-12 8.46455e-12 8.63565e-12 5.5796e-12 0 0 7.92863e-12 1.29358e-11 1.29759e-11 8.30542e-12 0 0 8.88883e-12 1.45983e-11 1.4719e-11 9.26146e-12 0 0 7.09658e-13 1.45251e-12 1.76876e-12 1.22488e-12 0 0 -3.24986e-11 -5.20629e-11 -5.13385e-11 -3.15553e-11 0 0 -1.30844e-10 -2.1073e-10 -2.09371e-10 -1.28941e-10 0 0 -3.80124e-10 -6.13178e-10 -6.10758e-10 -3.76383e-10 0 0 -9.53456e-10 -1.53936e-09 -1.5352e-09 -9.46681e-10 0 0 -2.18372e-09 -3.52799e-09 -3.52138e-09 -2.17286e-09 0 0 -4.69166e-09 -7.57449e-09 -7.58061e-09 -4.66848e-09 0 0 -9.57556e-09 -1.55675e-08 -1.54186e-08 -9.64416e-09 0 0 -1.88546e-08 -3.0254e-08 -3.08574e-08 -1.8531e-08 0 0 -3.53428e-08 -5.74487e-08 -5.60599e-08 -3.62768e-08 0 0 -6.34869e-08 -1.04796e-07 -1.0729e-07 -6.29276e-08 0 0 -1.15977e-07 -1.78741e-07 -1.78546e-07 -1.17584e-07 0 0 -1.85573e-07 -3.24404e-07 -3.2529e-07 -1.88982e-07 0 0 -3.31429e-07 -5.00755e-07 -5.04929e-07 -3.36988e-07 0 0 -4.97975e-07 -8.69075e-07 -8.70402e-07 -5.08165e-07 0 0 -8.18353e-07 -1.28545e-06 -1.33021e-06 -8.65433e-07 0 0 -1.26585e-06 -2.02928e-06 -1.98328e-06 -1.23644e-06 0 0 -1.77077e-06 -3.09922e-06 -3.23227e-06 -2.0015e-06 0 0 -2.80519e-06 -4.41669e-06 -4.41512e-06 -2.80939e-06 0 0 -3.81484e-06 -6.24525e-06 -6.51131e-06 -4.02567e-06 0 0 -5.44196e-06 -9.23775e-06 -9.35342e-06 -5.91418e-06 0 0 -7.53133e-06 -1.22086e-05 -1.2411e-05 -7.80796e-06 0 0 -9.83938e-06 -1.61281e-05 -1.67716e-05 -1.05954e-05 0 0 -1.31523e-05 -2.18918e-05 -2.22424e-05 -1.40059e-05 0 0 -1.69248e-05 -2.78087e-05 -2.82568e-05 -1.76461e-05 0 0 -2.09431e-05 -3.42241e-05 -3.48747e-05 -2.18165e-05 0 0 -2.56592e-05 -4.15746e-05 -4.17614e-05 -2.5921e-05 0 0 -3.03656e-05 -4.87289e-05 -4.82115e-05 -2.95901e-05 0 0 -3.46266e-05 -5.48853e-05 -5.33882e-05 -3.23023e-05 0 0 -3.79479e-05 -5.93448e-05 -5.67504e-05 -3.38704e-05 0 0 -4.03185e-05 -6.2265e-05 -5.8625e-05 -3.4473e-05 0 0 -4.19782e-05 -6.41571e-05 -5.96054e-05 -3.44869e-05 0 0 -4.31393e-05 -6.54642e-05 -6.02202e-05 -3.45217e-05 0 0 -4.40578e-05 -6.65737e-05 -6.07644e-05 -3.47674e-05 0 0 -4.4926e-05 -6.78723e-05 -6.2128e-05 -3.55451e-05 0 0 -4.60613e-05 -7.02933e-05 -6.5152e-05 -3.72765e-05 0 0 -4.72761e-05 -7.2989e-05 -6.84552e-05 -4.00054e-05 0 0 -4.94243e-05 -7.73187e-05 -7.38939e-05 -4.46083e-05 0 0 -5.44413e-05 -8.68557e-05 -8.47716e-05 -5.1646e-05 0 0 -6.14454e-05 -9.89685e-05 -9.80696e-05 -5.8913e-05 0 0 -6.77544e-05 -0.000110243 -0.000111538 -6.90475e-05 0 0 -7.64814e-05 -0.000126813 -0.000131658 -8.38744e-05 0 0 -9.05176e-05 -0.000152403 -0.000159765 -0.000102314 0 0 -0.000107559 -0.000181586 -0.000189381 -0.000120299 0 0 -0.000124765 -0.000210191 -0.000216969 -0.000139004 0 0 -0.000139022 -0.000234848 -0.000246883 -0.000161755 0 0 -0.000157554 -0.000263111 -0.000283933 -0.000184439 0 0 -0.000183376 -0.000305016 -0.000323373 -0.000203094 0 0 -0.000208686 -0.000355153 -0.000362451 -0.000218695 0 0 -0.000239408 -0.000405767 -0.000397918 -0.000239847 0 0 -0.00028834 -0.000448902 -0.000422371 -0.000241854 0 0 -0.000362627 -0.000516847 -0.000457662 -0.000237291 0 0 -0.000470369 -0.000669136 -0.000527891 -0.000218749 0 0 -0.000599114 -0.000891147 -0.000603122 -0.000155933 0 0 -0.000741412 -0.00115219 -0.000679784 3.41552e-05 0 0 -0.000840527 -0.00135427 -0.000686708 0.000229102 0 0 -0.00084265 -0.00137368 -0.000691476 0.000243915 0 0 -0.000825299 -0.00132745 -0.000668987 0.000213078 0 0 -0.000766566 -0.00115165 -0.00055396 8.69439e-05 0 0 -0.000668376 -0.0009745 -0.000542009 -4.08567e-05 0 0 -0.000596109 -0.000909865 -0.000594184 -7.98597e-05 0 0 -0.00046336 -0.000738113 -0.000588256 -0.000224099 0 0 0.000175919 0.000293418 -0.000274973 -0.000648231 0 0 0.00112202 0.00164864 0.000533114 -0.000593193 0 0 0.00129194 0.00187126 0.00109474 -0.000190354 0 0 0.00124778 0.00180672 0.00111415 0.000290584 0 0 0.00108174 0.00156095 0.00109534 0.000434885 0 0 0.000887074 0.00126935 0.00100568 0.000449341 0 0 0.000715943 0.00101588 0.000867414 0.000450132 0 0 0.000578358 0.000820126 0.000744911 0.000440845 0 0 0.00047312 0.000684381 0.000649077 0.000402884 0 0 0.000395404 0.000598131 0.000578809 0.000357975 0 0 0.000342643 0.000542406 0.000524885 0.000317907 0 0 0.000308926 0.000496623 0.000477368 0.000282829 0 0 0.000281689 0.000444596 0.000426104 0.00025056 0 0 0.000249716 0.000388912 0.000370748 0.00021864 0 0 0.000215306 0.000332065 0.000314188 0.000185354 0 0 0.000181287 0.000277157 0.000260259 0.000153407 0 0 0.000150952 0.000230316 0.000215767 0.000127135 0 0 0.000125136 0.00019248 0.000181423 0.00010722 0 0 0.000101761 0.000158855 0.000151488 9.01095e-05 0 0 8.12727e-05 0.000128621 0.000124113 7.43561e-05 0 0 6.62203e-05 0.000105355 0.000102426 6.16807e-05 0 0 5.75858e-05 9.14748e-05 8.91717e-05 5.38553e-05 0 0 5.30732e-05 8.43552e-05 8.24612e-05 4.99767e-05 0 0 4.95357e-05 7.90849e-05 7.77108e-05 4.73129e-05 0 0 4.56214e-05 7.31095e-05 7.21743e-05 4.41119e-05 0 0 4.11648e-05 6.6133e-05 6.55055e-05 4.01508e-05 0 0 3.57729e-05 5.7575e-05 5.71681e-05 3.5115e-05 0 0 2.93062e-05 4.723e-05 4.69813e-05 2.8904e-05 0 0 2.21316e-05 3.57034e-05 3.55646e-05 2.19072e-05 0 0 1.50092e-05 2.42343e-05 2.41688e-05 1.49033e-05 0 0 8.90164e-06 1.43815e-05 1.43543e-05 8.85759e-06 0 0 4.53755e-06 7.33429e-06 7.3248e-06 4.5222e-06 0 0 1.99462e-06 3.22516e-06 3.22243e-06 1.99021e-06 0 0 7.81672e-07 1.26422e-06 1.26353e-06 7.80565e-07 0 0 2.85257e-07 4.61432e-07 4.61279e-07 2.85009e-07 0 0 1.0019e-07 1.62084e-07 1.62052e-07 1.00137e-07 0 0 3.445e-08 5.57361e-08 5.57295e-08 3.44394e-08 0 0 1.16843e-08 1.89046e-08 1.89033e-08 1.16821e-08 0 0 3.92081e-09 6.34391e-09 6.34357e-09 3.9204e-09 0 0 1.30315e-09 2.10857e-09 2.10859e-09 1.30299e-09 0 0 4.29157e-10 6.94266e-10 6.94553e-10 4.28871e-10 0 0 1.39957e-10 2.26478e-10 2.26477e-10 1.39811e-10 0 0 4.51032e-11 7.31871e-11 7.28795e-11 4.50296e-11 0 0 1.42921e-11 2.33154e-11 2.29579e-11 1.42743e-11 0 0 4.41271e-12 7.11271e-12 7.03581e-12 4.30795e-12 0 0 1.25807e-12 1.91344e-12 2.05357e-12 1.03658e-12 0 0 1.9518e-13 4.40424e-13 3.03491e-13 1.33007e-13 0 0 -9.03794e-14 -7.23414e-14 -1.9969e-13 -2.24255e-13 0 0 -1.07507e-13 -3.65854e-13 -1.84205e-13 -4.40992e-13 0 0 -2.1051e-13 -2.64232e-13 -4.20492e-13 -2.97221e-13 0 0 -3.62006e-13 -1.85851e-13 -4.78118e-13 -1.5798e-13 0 0 -3.18582e-13 -3.61338e-13 -2.92002e-13 -1.23144e-13 0 0 -2.83233e-13 -4.30784e-13 -1.96006e-13 -1.27544e-13 0 0 -3.20217e-13 -4.51083e-13 3.21518e-14 -3.6996e-13 0 0 -3.24674e-13 -3.84671e-13 -7.86189e-14 -2.82598e-13 0 0 -3.19305e-13 -4.05613e-13 -1.38738e-13 -1.82446e-13 0 0 -3.02455e-13 -6.41729e-13 2.28737e-13 -4.06313e-13 0 0 -3.90435e-13 -7.10693e-13 4.73646e-13 -6.45406e-13 0 0 -5.47301e-13 -5.3821e-13 3.51509e-13 -7.01294e-13 0 0 -5.33149e-13 -3.77253e-13 -4.94936e-14 -4.00958e-13 0 0 -5.42837e-13 -1.77775e-13 -4.11759e-13 -1.68167e-13 0 0 -6.32979e-13 -2.38062e-14 -5.27914e-13 -1.4958e-13 0
				</DataArray>
				<DataArray Name="VitesseY" type="Float32" format="ascii">