<?xml version="1.0"?>
<VTKFile type="PolyData">
	<PolyData>
		<Piece NumberOfPoints="1206" NumberOfPolys="1000">
			<Points>
				<DataArray type="Float32" NumberOfComponents="3" format="ascii">
 0 0 0 0.02 0 0 0.04 0 0 0.06 0 0 0.08 0 0 0.1 0 0 0 0.005 0 0.02 0.005 0 0.04 0.005 0 0.06 0.005 0 0.08 0.005 0 0.1 0.005 0 0 0.01 0 0.02 0.01 0 0.04 0.01 0 0.06 0.01 0 0.08 0.01 0 0.1 0.01 0 0 0.015 0 0.02 0.015 0 0.04 0.015 0 0.06 0.015 0 0.08 0.015 0 0.1 0.015 0 0 0.02 0 0.02 0.02 0 0.04 0.02 0 0.06 0.02 0 0.08 0.02 0 0.1 0.02 0 0 0.025 0 0.02 0.025 0 0.04 0.025 0 0.06 0.025 0 0.08 0.025 0 0.1 0.025 0 0 0.03 0 0.02 0.03 0 0.04 0.03 0 0.06 0.03 0 0.08 0.03 0 0.1 0.03 0 0 0.035 0 0.02 0.035 0 0.04 0.035 0 0.06 0.035 0 0.08 0.035 0 0.1 0.035 0 0 0.04 0 0.02 0.04 0 0.04 0.04 0 0.06 0.04 0 0.08 0.04 0 0.1 0.04 0 0 0.045 0 0.02 0.045 0 0.04 0.045 0 0.06 0.045 0 0.08 0.045 0 0.1 0.045 0 0 0.05 0 0.02 0.05 0 0.04 0.05 0 0.06 0.05 0 0.08 0.05 0 0.1 0.05 0 0 0.055 0 0.02 0.055 0 0.04 0.055 0 0.06 0.055 0 0.08 0.055 0 0.1 0.055 0 0 0.06 0 0.02 0.06 0 0.04 0.06 0 0.06 0.06 0 0.08 0.06 0 0.1 0.06 0 0 0.065 0 0.02 0.065 0 0.04 0.065 0 0.06 0.065 0 0.08 0.065 0 0.1 0.065 0 0 0.07 0 0.02 0.07 0 0.04 0.07 0 0.06 0.07 0 0.08 0.07 0 0.1 0.07 0 0 0.075 0 0.02 0.075 0 0.04 0.075 0 0.06 0.075 0 0.08 0.075 0 0.1 0.075 0 0 0.08 0 0.02 0.08 0 0.04 0.08 0 0.06 0.08 0 0.08 0.08 0 0.1 0.08 0 0 0.085 0 0.02 0.085 0 0.04 0.085 0 0.06 0.085 0 0.08 0.085 0 0.1 0.085 0 0 0.09 0 0.02 0.09 0 0.04 0.09 0 0.06 0.09 0 0.08 0.09 0 0.1 0.09 0 0 0.095 0 0.02 0.095 0 0.04 0.095 0 0.06 0.095 0 0.08 0.095 0 0.1 0.095 0 0 0.1 0 0.02 0.1 0 0.04 0.1 0 0.06 0.1 0 0.08 0.1 0 0.1 0.1 0 0 0.105 0 0.02 0.105 0 0.04 0.105 0 0.06 0.105 0 0.08 0.105 0 0.1 0.105 0 0 0.11 0 0.02 0.11 0 0.04 0.11 0 0.06 0.11 0 0.08 0.11 0 0.1 0.11 0 0 0.115 0 0.02 0.115 0 0.04 0.115 0 0.06 0.115 0 0.08 0.115 0 0.1 0.115 0 0 0.12 0 0.02 0.12 0 0.04 0.12 0 0.06 0.12 0 0.08 0.12 0 0.1 0.12 0 0 0.125 0 0.02 0.125 0 0.04 0.125 0 0.06 0.125 0 0.08 0.125 0 0.1 0.125 0 0 0.13 0 0.02 0.13 0 0.04 0.13 0 0.06 0.13 0 0.08 0.13 0 0.1 0.13 0 0 0.135 0 0.02 0.135 0 0.04 0.135 0 0.06 0.135 0 0.08 0.135 0 0.1 0.135 0 0 0.14 0 0.02 0.14 0 0.04 0.14 0 0.06 0.14 0 0.08 0.14 0 0.1 0.14 0 0 0.145 0 0.02 0.145 0 0.04 0.145 0 0.06 0.145 0 0.08 0.145 0 0.1 0.145 0 0 0.15 0 0.02 0.15 0 0.04 0.15 0 0.06 0.15 0 0.08 0.15 0 0.1 0.15 0 0 0.155 0 0.02 0.155 0 0.04 0.155 0 0.06 0.155 0 0.08 0.155 0 0.1 0.155 0 0 0.16 0 0.02 0.16 0 0.04 0.16 0 0.06 0.16 0 0.08 0.16 0 0.1 0.16 0 0 0.165 0 0.02 0.165 0 0.04 0.165 0 0.06 0.165 0 0.08 0.165 0 0.1 0.165 0 0 0.17 0 0.02 0.17 0 0.04 0.17 0 0.06 0.17 0 0.08 0.17 0 0.1 0.17 0 0 0.175 0 0.02 0.175 0 0.04 0.175 0 0.06 0.175 0 0.08 0.175 0 0.1 0.175 0 0 0.18 0 0.02 0.18 0 0.04 0.18 0 0.06 0.18 0 0.08 0.18 0 0.1 0.18 0 0 0.185 0 0.02 0.185 0 0.04 0.185 0 0.06 0.185 0 0.08 0.185 0 0.1 0.185 0 0 0.19 0 0.02 0.19 0 0.04 0.19 0 0.06 0.19 0 0.08 0.19 0 0.1 0.19 0 0 0.195 0 0.02 0.195 0 0.04 0.195 0 0.06 0.195 0 0.08 0.195 0 0.1 0.195 0 0 0.2 0 0.02 0.2 0 0.04 0.2 0 0.06 0.2 0 0.08 0.2 0 0.1 0.2 0 0 0.205 0 0.02 0.205 0 0.04 0.205 0 0.06 0.205 0 0.08 0.205 0 0.1 0.205 0 0 0.21 0 0.02 0.21 0 0.04 0.21 0 0.06 0.21 0 0.08 0.21 0 0.1 0.21 0 0 0.215 0 0.02 0.215 0 0.04 0.215 0 0.06 0.215 0 0.08 0.215 0 0.1 0.215 0 0 0.22 0 0.02 0.22 0 0.04 0.22 0 0.06 0.22 0 0.08 0.22 0 0.1 0.22 0 0 0.225 0 0.02 0.225 0 0.04 0.225 0 0.06 0.225 0 0.08 0.225 0 0.1 0.225 0 0 0.23 0 0.02 0.23 0 0.04 0.23 0 0.06 0.23 0 0.08 0.23 0 0.1 0.23 0 0 0.235 0 0.02 0.235 0 0.04 0.235 0 0.06 0.235 0 0.08 0.235 0 0.1 0.235 0 0 0.24 0 0.02 0.24 0 0.04 0.24 0 0.06 0.24 0 0.08 0.24 0 0.1 0.24 0 0 0.245 0 0.02 0.245 0 0.04 0.245 0 0.06 0.245 0 0.08 0.245 0 0.1 0.245 0 0 0.25 0 0.02 0.25 0 0.04 0.25 0 0.06 0.25 0 0.08 0.25 0 0.1 0.25 0 0 0.255 0 0.02 0.255 0 0.04 0.255 0 0.06 0.255 0 0.08 0.255 0 0.1 0.255 0 0 0.26 0 0.02 0.26 0 0.04 0.26 0 0.06 0.26 0 0.08 0.26 0 0.1 0.26 0 0 0.265 0 0.02 0.265 0 0.04 0.265 0 0.06 0.265 0 0.08 0.265 0 0.1 0.265 0 0 0.27 0 0.02 0.27 0 0.04 0.27 0 0.06 0.27 0 0.08 0.27 0 0.1 0.27 0 0 0.275 0 0.02 0.275 0 0.04 0.275 0 0.06 0.275 0 0.08 0.275 0 0.1 0.275 0 0 0.28 0 0.02 0.28 0 0.04 0.28 0 0.06 0.28 0 0.08 0.28 0 0.1 0.28 0 0 0.285 0 0.02 0.285 0 0.04 0.285 0 0.06 0.285 0 0.08 0.285 0 0.1 0.285 0 0 0.29 0 0.02 0.29 0 0.04 0.29 0 0.06 0.29 0 0.08 0.29 0 0.1 0.29 0 0 0.295 0 0.02 0.295 0 0.04 0.295 0 0.06 0.295 0 0.08 0.295 0 0.1 0.295 0 0 0.3 0 0.02 0.3 0 0.04 0.3 0 0.06 0.3 0 0.08 0.3 0 0.1 0.3 0 0 0.305 0 0.02 0.305 0 0.04 0.305 0 0.06 0.305 0 0.08 0.305 0 0.1 0.305 0 0 0.31 0 0.02 0.31 0 0.04 0.31 0 0.06 0.31 0 0.08 0.31 0 0.1 0.31 0 0 0.315 0 0.02 0.315 0 0.04 0.315 0 0.06 0.315 0 0.08 0.315 0 0.1 0.315 0 0 0.32 0 0.02 0.32 0 0.04 0.32 0 0.06 0.32 0 0.08 0.32 0 0.1 0.32 0 0 0.325 0 0.02 0.325 0 0.04 0.325 0 0.06 0.325 0 0.08 0.325 0 0.1 0.325 0 0 0.33 0 0.02 0.33 0 0.04 0.33 0 0.06 0.33 0 0.08 0.33 0 0.1 0.33 0 0 0.335 0 0.02 0.335 0 0.04 0.335 0 0.06 0.335 0 0.08 0.335 0 0.1 0.335 0 0 0.34 0 0.02 0.34 0 0.04 0.34 0 0.06 0.34 0 0.08 0.34 0 0.1 0.34 0 0 0.345 0 0.02 0.345 0 0.04 0.345 0 0.06 0.345 0 0.08 0.345 0 0.1 0.345 0 0 0.35 0 0.02 0.35 0 0.04 0.35 0 0.06 0.35 0 0.08 0.35 0 0.1 0.35 0 0 0.355 0 0.02 0.355 0 0.04 0.355 0 0.06 0.355 0 0.08 0.355 0 0.1 0.355 0 0 0.36 0 0.02 0.36 0 0.04 0.36 0 0.06 0.36 0 0.08 0.36 0 0.1 0.36 0 0 0.365 0 0.02 0.365 0 0.04 0.365 0 0.06 0.365 0 0.08 0.365 0 0.1 0.365 0 0 0.37 0 0.02 0.37 0 0.04 0.37 0 0.06 0.37 0 0.08 0.37 0 0.1 0.37 0 0 0.375 0 0.02 0.375 0 0.04 0.375 0 0.06 0.375 0 0.08 0.375 0 0.1 0.375 0 0 0.38 0 0.02 0.38 0 0.04 0.38 0 0.06 0.38 0 0.08 0.38 0 0.1 0.38 0 0 0.385 0 0.02 0.385 0 0.04 0.385 0 0.06 0.385 0 0.08 0.385 0 0.1 0.385 0 0 0.39 0 0.02 0.39 0 0.04 0.39 0 0.06 0.39 0 0.08 0.39 0 0.1 0.39 0 0 0.395 0 0.02 0.395 0 0.04 0.395 0 0.06 0.395 0 0.08 0.395 0 0.1 0.395 0 0 0.4 0 0.02 0.4 0 0.04 0.4 0 0.06 0.4 0 0.08 0.4 0 0.1 0.4 0 0 0.405 0 0.02 0.405 0 0.04 0.405 0 0.06 0.405 0 0.08 0.405 0 0.1 0.405 0 0 0.41 0 0.02 0.41 0 0.04 0.41 0 0.06 0.41 0 0.08 0.41 0 0.1 0.41 0 0 0.415 0 0.02 0.415 0 0.04 0.415 0 0.06 0.415 0 0.08 0.415 0 0.1 0.415 0 0 0.42 0 0.02 0.42 0 0.04 0.42 0 0.06 0.42 0 0.08 0.42 0 0.1 0.42 0 0 0.425 0 0.02 0.425 0 0.04 0.425 0 0.06 0.425 0 0.08 0.425 0 0.1 0.425 0 0 0.43 0 0.02 0.43 0 0.04 0.43 0 0.06 0.43 0 0.08 0.43 0 0.1 0.43 0 0 0.435 0 0.02 0.435 0 0.04 0.435 0 0.06 0.435 0 0.08 0.435 0 0.1 0.435 0 0 0.44 0 0.02 0.44 0 0.04 0.44 0 0.06 0.44 0 0.08 0.44 0 0.1 0.44 0 0 0.445 0 0.02 0.445 0 0.04 0.445 0 0.06 0.445 0 0.08 0.445 0 0.1 0.445 0 0 0.45 0 0.02 0.45 0 0.04 0.45 0 0.06 0.45 0 0.08 0.45 0 0.1 0.45 0 0 0.455 0 0.02 0.455 0 0.04 0.455 0 0.06 0.455 0 0.08 0.455 0 0.1 0.455 0 0 0.46 0 0.02 0.46 0 0.04 0.46 0 0.06 0.46 0 0.08 0.46 0 0.1 0.46 0 0 0.465 0 0.02 0.465 0 0.04 0.465 0 0.06 0.465 0 0.08 0.465 0 0.1 0.465 0 0 0.47 0 0.02 0.47 0 0.04 0.47 0 0.06 0.47 0 0.08 0.47 0 0.1 0.47 0 0 0.475 0 0.02 0.475 0 0.04 0.475 0 0.06 0.475 0 0.08 0.475 0 0.1 0.475 0 0 0.48 0 0.02 0.48 0 0.04 0.48 0 0.06 0.48 0 0.08 0.48 0 0.1 0.48 0 0 0.485 0 0.02 0.485 0 0.04 0.485 0 0.06 0.485 0 0.08 0.485 0 0.1 0.485 0 0 0.49 0 0.02 0.49 0 0.04 0.49 0 0.06 0.49 0 0.08 0.49 0 0.1 0.49 0 0 0.495 0 0.02 0.495 0 0.04 0.495 0 0.06 0.495 0 0.08 0.495 0 0.1 0.495 0 0 0.5 0 0.02 0.5 0 0.04 0.5 0 0.06 0.5 0 0.08 0.5 0 0.1 0.5 0 0 0.505 0 0.02 0.505 0 0.04 0.505 0 0.06 0.505 0 0.08 0.505 0 0.1 0.505 0 0 0.51 0 0.02 0.51 0 0.04 0.51 0 0.06 0.51 0 0.08 0.51 0 0.1 0.51 0 0 0.515 0 0.02 0.515 0 0.04 0.515 0 0.06 0.515 0 0.08 0.515 0 0.1 0.515 0 0 0.52 0 0.02 0.52 0 0.04 0.52 0 0.06 0.52 0 0.08 0.52 0 0.1 0.52 0 0 0.525 0 0.02 0.525 0 0.04 0.525 0 0.06 0.525 0 0.08 0.525 0 0.1 0.525 0 0 0.53 0 0.02 0.53 0 0.04 0.53 0 0.06 0.53 0 0.08 0.53 0 0.1 0.53 0 0 0.535 0 0.02 0.535 0 0.04 0.535 0 0.06 0.535 0 0.08 0.535 0 0.1 0.535 0 0 0.54 0 0.02 0.54 0 0.04 0.54 0 0.06 0.54 0 0.08 0.54 0 0.1 0.54 0 0 0.545 0 0.02 0.545 0 0.04 0.545 0 0.06 0.545 0 0.08 0.545 0 0.1 0.545 0 0 0.55 0 0.02 0.55 0 0.04 0.55 0 0.06 0.55 0 0.08 0.55 0 0.1 0.55 0 0 0.555 0 0.02 0.555 0 0.04 0.555 0 0.06 0.555 0 0.08 0.555 0 0.1 0.555 0 0 0.56 0 0.02 0.56 0 0.04 0.56 0 0.06 0.56 0 0.08 0.56 0 0.1 0.56 0 0 0.565 0 0.02 0.565 0 0.04 0.565 0 0.06 0.565 0 0.08 0.565 0 0.1 0.565 0 0 0.57 0 0.02 0.57 0 0.04 0.57 0 0.06 0.57 0 0.08 0.57 0 0.1 0.57 0 0 0.575 0 0.02 0.575 0 0.04 0.575 0 0.06 0.575 0 0.08 0.575 0 0.1 0.575 0 0 0.58 0 0.02 0.58 0 0.04 0.58 0 0.06 0.58 0 0.08 0.58 0 0.1 0.58 0 0 0.585 0 0.02 0.585 0 0.04 0.585 0 0.06 0.585 0 0.08 0.585 0 0.1 0.585 0 0 0.59 0 0.02 0.59 0 0.04 0.59 0 0.06 0.59 0 0.08 0.59 0 0.1 0.59 0 0 0.595 0 0.02 0.595 0 0.04 0.595 0 0.06 0.595 0 0.08 0.595 0 0.1 0.595 0 0 0.6 0 0.02 0.6 0 0.04 0.6 0 0.06 0.6 0 0.08 0.6 0 0.1 0.6 0 0 0.605 0 0.02 0.605 0 0.04 0.605 0 0.06 0.605 0 0.08 0.605 0 0.1 0.605 0 0 0.61 0 0.02 0.61 0 0.04 0.61 0 0.06 0.61 0 0.08 0.61 0 0.1 0.61 0 0 0.615 0 0.02 0.615 0 0.04 0.615 0 0.06 0.615 0 0.08 0.615 0 0.1 0.615 0 0 0.62 0 0.02 0.62 0 0.04 0.62 0 0.06 0.62 0 0.08 0.62 0 0.1 0.62 0 0 0.625 0 0.02 0.625 0 0.04 0.625 0 0.06 0.625 0 0.08 0.625 0 0.1 0.625 0 0 0.63 0 0.02 0.63 0 0.04 0.63 0 0.06 0.63 0 0.08 0.63 0 0.1 0.63 0 0 0.635 0 0.02 0.635 0 0.04 0.635 0 0.06 0.635 0 0.08 0.635 0 0.1 0.635 0 0 0.64 0 0.02 0.64 0 0.04 0.64 0 0.06 0.64 0 0.08 0.64 0 0.1 0.64 0 0 0.645 0 0.02 0.645 0 0.04 0.645 0 0.06 0.645 0 0.08 0.645 0 0.1 0.645 0 0 0.65 0 0.02 0.65 0 0.04 0.65 0 0.06 0.65 0 0.08 0.65 0 0.1 0.65 0 0 0.655 0 0.02 0.655 0 0.04 0.655 0 0.06 0.655 0 0.08 0.655 0 0.1 0.655 0 0 0.66 0 0.02 0.66 0 0.04 0.66 0 0.06 0.66 0 0.08 0.66 0 0.1 0.66 0 0 0.665 0 0.02 0.665 0 0.04 0.665 0 0.06 0.665 0 0.08 0.665 0 0.1 0.665 0 0 0.67 0 0.02 0.67 0 0.04 0.67 0 0.06 0.67 0 0.08 0.67 0 0.1 0.67 0 0 0.675 0 0.02 0.675 0 0.04 0.675 0 0.06 0.675 0 0.08 0.675 0 0.1 0.675 0 0 0.68 0 0.02 0.68 0 0.04 0.68 0 0.06 0.68 0 0.08 0.68 0 0.1 0.68 0 0 0.685 0 0.02 0.685 0 0.04 0.685 0 0.06 0.685 0 0.08 0.685 0 0.1 0.685 0 0 0.69 0 0.02 0.69 0 0.04 0.69 0 0.06 0.69 0 0.08 0.69 0 0.1 
[...]
			<PointData Scalars="VitesseX">
				<DataArray Name="VitesseX" type="Float32" format="ascii">
 0 7.68476e-15 -1.23275e-14 -1.95313e-14 -1.53551e-14 0 0 6.00145e-15 -1.14017e-14 -1.98332e-14 -1.45848e-14 0 0 4.44483e-15 -1.02795e-14 -1.98274e-14 -1.45567e-14 0 0 -6.84126e-16 -6.02073e-15 -1.9031e-14 -1.76662e-14 0 0 -2.15365e-15 -8.15979e-15 -1.41124e-14 -2.23456e-14 0 0 -8.6858e-15 -9.85869e-16 -2.28103e-14 -1.83801e-14 0 0 -1.3024e-14 -8.39453e-15 -1.2316e-14 -2.80222e-14 0 0 -2.02064e-15 -3.72361e-14 1.5223e-14 -5.12619e-14 0 0 -8.7237e-15 -3.13909e-14 -8.5708e-15 -3.05462e-14 0 0 -1.69872e-14 -2.7536e-14 -3.40559e-14 -1.11365e-15 0 0 -1.73854e-14 -2.80199e-14 -5.14689e-14 7.99675e-15 0 0 -2.06891e-14 -2.8633e-14 -5.30177e-14 1.39803e-15 0 0 -1.46487e-14 -5.43608e-14 -1.24339e-14 -2.47288e-14 0 0 -1.83781e-14 -5.70637e-14 -2.27155e-15 -2.08887e-14 0 0 -2.78341e-14 -5.25083e-14 -4.87998e-15 -2.54134e-15 0 0 -2.89207e-14 -5.65451e-14 2.85877e-15 3.43502e-15 0 0 -2.13324e-14 -4.81872e-14 -1.3968e-14 2.53492e-14 0 0 -3.62214e-14 -1.04704e-14 -3.80114e-14 3.33093e-14 0 0 -3.68744e-14 -5.38978e-15 -2.68573e-14 1.48202e-14 0 0 -2.12961e-14 -1.69911e-14 -7.68227e-15 -3.00045e-15 0 0 -2.3185e-14 -2.03948e-14 3.98942e-14 -5.98938e-14 0 0 -2.59933e-14 6.71198e-16 4.12857e-15 -2.50059e-14 0 0 -3.88225e-14 5.93653e-14 -9.84325e-14 5.82363e-14 0 0 -2.49767e-14 5.38605e-14 -8.9231e-14 3.32361e-14 0 0 1.75703e-14 -2.67395e-14 1.67366e-14 -5.63775e-14 0 0 2.79373e-14 -9.22066e-14 1.00204e-13 -1.28903e-13 0 0 -2.62948e-14 -3.71704e-14 4.63869e-14 -1.08505e-13 0 0 -4.43612e-14 -8.39955e-15 1.07632e-14 -9.20795e-14 0 0 -5.24506e-14 2.32346e-14 -4.83085e-14 -6.96109e-14 0 0 -5.19531e-14 2.30281e-14 -7.32186e-14 -4.07586e-14 0 0 -6.73745e-15 -8.676e-14 3.73297e-14 -6.20142e-14 0 0 -1.71626e-14 -8.64765e-14 5.6722e-14 -6.87459e-14 0 0 -2.94686e-14 -4.40623e-14 -1.60759e-14 -1.15777e-14 0 0 -2.68445e-14 -1.27081e-14 -1.02027e-13 7.52665e-14 0 0 -5.72764e-14 4.51372e-14 -1.73455e-13 1.25487e-13 0 0 -4.75656e-14 -2.96689e-15 -8.60938e-14 2.71193e-14 0 0 1.0292e-14 -1.06072e-13 5.99323e-14 -1.28524e-13 0 0 2.22793e-14 -7.60493e-14 1.23707e-14 -1.03999e-13 0 0 1.62242e-15 -2.53865e-14 -2.71502e-14 -6.46959e-14 0 0 -2.45965e-14 9.08576e-15 -4.38136e-14 -5.68184e-14 0 0 -1.94721e-14 1.71801e-14 -6.58266e-14 -4.41895e-14 0 0 -2.39978e-14 -3.05146e-14 2.17802e-14 -1.1232e-13 0 0 -6.91428e-14 1.47092e-14 4.71806e-15 -1.31907e-13 0 0 -6.74092e-14 3.29048e-14 -2.53426e-14 -1.23452e-13 0 0 -9.47624e-14 4.03391e-14 -3.57662e-15 -1.36784e-13 0 0 -6.69968e-14 -2.76617e-15 4.22311e-14 -1.72626e-13 0 0 -2.15384e-14 -4.0232e-14 5.72032e-14 -1.88974e-13 0 0 -1.11496e-14 -2.45769e-14 2.8226e-14 -1.70492e-13 0 0 -2.41189e-14 2.52957e-14 -2.27799e-14 -1.36099e-13 0 0 -9.45848e-14 1.14762e-13 -3.24545e-14 -1.22091e-13 0 0 -1.01661e-13 5.16058e-14 1.00001e-13 -1.63912e-13 0 0 -1.02921e-13 3.06924e-14 8.94769e-14 -9.58031e-14 0 0 -1.31404e-13 7.36512e-14 1.96948e-14 -2.37659e-14 0 0 -1.45302e-13 6.14645e-14 -1.29931e-14 -3.52299e-14 0 0 -5.78331e-14 -7.62456e-14 9.66472e-14 -1.73038e-13 0 0 3.0298e-14 -1.89604e-13 1.78267e-13 -2.71653e-13 0 0 -7.87888e-14 -5.71453e-14 3.22029e-14 -2.10553e-13 0 0 -1.51071e-13 7.41065e-14 -1.15357e-13 -1.15381e-13 0 0 -9.81673e-14 2.61778e-14 -1.33981e-13 -9.37727e-14 0 0 -8.29696e-14 -7.38068e-14 -8.14463e-14 -1.40378e-13 0 0 -6.29654e-14 -1.22462e-13 -8.00817e-14 -2.10718e-13 0 0 2.26482e-14 -1.60165e-13 -1.4157e-13 -2.2589e-13 0 0 8.97322e-14 -2.00811e-13 -1.8719e-13 -1.63127e-13 0 0 5.9569e-14 -1.25569e-13 -2.26544e-13 -1.71886e-13 0 0 5.87706e-14 -1.22591e-13 -1.44059e-13 -2.35572e-13 0 0 -1.70706e-14 -6.96472e-14 -1.1257e-13 -2.26305e-13 0 0 -1.83626e-13 1.43568e-13 -3.19715e-13 -6.98493e-14 0 0 -1.39615e-13 2.14881e-14 -1.91009e-13 -9.01637e-14 0 0 -6.25183e-14 -1.90873e-13 1.16465e-13 -2.81546e-13 0 0 -3.65194e-14 -1.12648e-13 3.35605e-14 -3.07222e-13 0 0 6.20271e-15 -7.65504e-14 -7.78168e-14 -2.69765e-13 0 0 -1.45694e-14 5.8403e-14 -1.65996e-13 -2.23521e-13 0 0 -1.67885e-14 1.81445e-13 -2.54753e-14 -1.80756e-13 0 0 1.58553e-13 2.8488e-13 5.03191e-13 -1.57806e-13 0 0 5.91287e-13 7.80557e-13 1.26159e-12 1.91566e-13 0 0 1.45748e-12 2.16228e-12 2.66191e-12 1.13342e-12 0 0 3.14772e-12 5.12778e-12 5.42923e-12 3.09921e-12 0 0 6.23209e-12 1.05395e-11 1.0541e-11 6.58634e-12 0 0 1.1149e-11 1.86982e-11 1.87623e-11 1.17294e-11 0 0 1.6312e-11 2.68998e-11 2.75927e-11 1.69738e-11 0 0 1.0934e-11 1.84975e-11 1.97622e-11 1.21645e-11 0 0 -2.85515e-11 -4.47e-11 -4.25754e-11 -2.60397e-11 0 0 -1.72085e-10 -2.75369e-10 -2.7154e-10 -1.66609e-10 0 0 -5.81518e-10 -9.34843e-10 -9.27482e-10 -5.70126e-10 0 0 -1.61176e-09 -2.5969e-09 -2.5834e-09 -1.59038e-09 0 0 -3.98882e-09 -6.43676e-09 -6.41523e-09 -3.95449e-09 0 0 -9.11465e-09 -1.47284e-08 -1.47038e-08 -9.07552e-09 0 0 -1.9617e-08 -3.16551e-08 -3.17431e-08 -1.95643e-08 0 0 -3.99271e-08 -6.54455e-08 -6.46348e-08 -4.06518e-08 0 0 -7.93243e-08 -1.26421e-07 -1.30435e-07 -7.80434e-08 0 0 -1.47448e-07 -2.4107e-07 -2.35896e-07 -1.54011e-07 0 0 -2.61548e-07 -4.41242e-07 -4.52593e-07 -2.65797e-07 0 0 -4.82648e-07 -7.32644e-07 -7.45687e-07 -4.97379e-07 0 0 -7.53655e-07 -1.34158e-06 -1.35594e-06 -7.90107e-07 0 0 -1.32307e-06 -2.02884e-06 -2.07483e-06 -1.40377e-06 0 0 -1.98098e-06 -3.41313e-06 -3.45168e-06 -2.0793e-06 0 0 -3.05818e-06 -5.17177e-06 -5.46335e-06 -3.4848e-06 0 0 -4.80774e-06 -7.52241e-06 -7.60549e-06 -4.94149e-06 0 0 -6.47527e-06 -1.13303e-05 -1.20049e-05 -7.4949e-06 0 0 -9.69584e-06 -1.63775e-05 -1.67333e-05 -1.07363e-05 0 0 -1.31069e-05 -2.14906e-05 -2.27715e-05 -1.45276e-05 0 0 -1.75325e-05 -2.95969e-05 -3.09956e-05 -1.99134e-05 0 0 -2.34249e-05 -3.93791e-05 -4.05334e-05 -2.57904e-05 0 0 -2.97537e-05 -4.92429e-05 -5.1029e-05 -3.22202e-05 0 0 -3.67684e-05 -6.03826e-05 -6.13798e-05 -3.83754e-05 0 0 -4.42565e-05 -7.12246e-05 -7.07672e-05 -4.35489e-05 0 0 -5.13273e-05 -8.09158e-05 -7.83782e-05 -4.72617e-05 0 0 -5.76867e-05 -8.92491e-05 -8.43344e-05 -4.97678e-05 0 0 -6.33007e-05 -9.64187e-05 -8.9128e-05 -5.15257e-05 0 0 -6.81633e-05 -0.000102594 -9.32022e-05 -5.29093e-05 0 0 -7.25083e-05 -0.000108244 -9.70692e-05 -5.44278e-05 0 0 -7.65456e-05 -0.000113794 -0.000100624 -5.61052e-05 0 0 -8.10548e-05 -0.000119913 -0.000105735 -5.87517e-05 0 0 -8.76924e-05 -0.000129125 -0.000115216 -6.30517e-05 0 0 -9.46647e-05 -0.000139845 -0.000125309 -6.84819e-05 0 0 -0.000101951 -0.00015232 -0.000136173 -7.7336e-05 0 0 -0.000115561 -0.000174276 -0.000158462 -9.00956e-05 0 0 -0.000135532 -0.000206155 -0.000185934 -0.000105072 0 0 -0.000156362 -0.000239467 -0.000215893 -0.000121326 0 0 -0.000175042 -0.00026725 -0.000249581 -0.000144205 0 0 -0.000196071 -0.000306105 -0.000299211 -0.000174407 0 0 -0.000227459 -0.000368084 -0.000361162 -0.000209566 0 0 -0.000272038 -0.00043866 -0.000423625 -0.00024388 0 0 -0.000322687 -0.000507054 -0.000479771 -0.000286671 0 0 -0.000394744 -0.000574347 -0.000536982 -0.000342746 0 0 -0.000498969 -0.000681701 -0.000607896 -0.000349501 0 0 -0.000613207 -0.000871122 -0.000701706 -0.000326722 0 0 -0.000728816 -0.00112325 -0.000812652 -0.000219092 0 0 -0.000850717 -0.0013382 -0.000812199 1.13599e-06 0 0 -0.000906767 -0.00137637 -0.000798624 9.54119e-05 0 0 -0.000882254 -0.00133396 -0.000781624 7.6764e-05 0 0 -0.000793966 -0.00116314 -0.000723718 -1.94681e-05 0 0 -0.000642167 -0.000967027 -0.000727908 -0.000156682 0 0 -0.000519281 -0.000856982 -0.000776379 -0.000257834 0 0 -0.000419623 -0.000697671 -0.000750708 -0.000560031 0 0 8.22184e-05 0.000243807 -0.000345397 -0.000852687 0 0 0.001024 0.00163178 0.000616251 -0.000651526 0 0 0.00119115 0.00178881 0.00111399 -8.28461e-05 0 0 0.00114714 0.00171549 0.00112292 0.000377805 0 0 0.000997603 0.00146442 0.00109261 0.000451413 0 0 0.000833344 0.00119387 0.000968307 0.000454829 0 0 0.00068682 0.000966605 0.000817473 0.00043831 0 0 0.000566937 0.000798146 0.000685464 0.000379499 0 0 0.000475296 0.000678639 0.000578972 0.000315732 0 0 0.000405307 0.000588091 0.000496213 0.000262155 0 0 0.000347845 0.000510813 0.000430763 0.000222484 0 0 0.000296291 0.000438379 0.000374474 0.000194003 0 0 0.000249289 0.000370335 0.000322832 0.000171489 0 0 0.00021037 0.000313493 0.000278993 0.000153051 0 0 0.000179447 0.000269456 0.000244654 0.000138099 0 0 0.000151428 0.000230955 0.000214643 0.000124418 0 0 0.000125549 0.000195539 0.000186591 0.000111136 0 0 0.000105882 0.000168028 0.000163848 9.95726e-05 0 0 9.50799e-05 0.000151921 0.000149525 9.14143e-05 0 0 8.97979e-05 0.000143565 0.000141453 8.63498e-05 0 0 8.44608e-05 0.0001353 0.000133582 8.16729e-05 0 0 7.7459e-05 0.000124373 0.000123142 7.54681e-05 0 0 6.88582e-05 0.000110761 0.000109909 6.74814e-05 0 0 5.83689e-05 9.4012e-05 9.34475e-05 5.74561e-05 0 0 4.62579e-05 7.45799e-05 7.42309e-05 4.56936e-05 0 0 3.35351e-05 5.41126e-05 5.39207e-05 3.32247e-05 0 0 2.16517e-05 3.49621e-05 3.48717e-05 2.15054e-05 0 0 1.2161e-05 1.96476e-05 1.96109e-05 1.21016e-05 0 0 5.84576e-06 9.44887e-06 9.43671e-06 5.82611e-06 0 0 2.42679e-06 3.92396e-06 3.92066e-06 2.42145e-06 0 0 9.04058e-07 1.46218e-06 1.46142e-06 9.02828e-07 0 0 3.15499e-07 5.10364e-07 5.10211e-07 3.15251e-07 0 0 1.06357e-07 1.72067e-07 1.72039e-07 1.06312e-07 0 0 3.515e-08 5.68704e-08 5.68656e-08 3.51427e-08 0 0 1.146e-08 1.85426e-08 1.85419e-08 1.14592e-08 0 0 3.69468e-09 5.9785e-09 5.97842e-09 3.69476e-09 0 0 1.17881e-09 1.90767e-09 1.90765e-09 1.17895e-09 0 0 3.72232e-10 6.02466e-10 6.02567e-10 3.72342e-10 0 0 1.16245e-10 1.88277e-10 1.88375e-10 1.16341e-10 0 0 3.58171e-11 5.82242e-11 5.81675e-11 3.59666e-11 0 0 1.08369e-11 1.77948e-11 1.76518e-11 1.10102e-11 0 0 3.20758e-12 5.26513e-12 5.32559e-12 3.19302e-12 0 0 9.61808e-13 1.33098e-12 1.66991e-12 7.59486e-13 0 0 2.21585e-13 2.54281e-13 4.17538e-13 1.98187e-13 0 0 -1.0854e-13 1.21364e-13 -1.81189e-13 2.09693e-13 0 0 -8.14355e-14 -1.39543e-13 -9.70607e-14 6.11834e-14 0 0 -3.73627e-14 -3.36406e-13 1.83145e-13 -1.47661e-13 0 0 -4.96852e-14 -2.71723e-13 1.80423e-14 5.3858e-14 0 0 4.25679e-14 -2.53359e-13 -1.33685e-13 1.62319e-13 0 0 1.73699e-15 -1.58114e-13 -1.2156e-13 2.44178e-14 0 0 -2.54213e-14 -1.67877e-13 -1.51517e-13 7.23878e-14 0 0 -1.0348e-13 -1.28442e-13 -2.06503e-13 1.93311e-13 0 0 -2.96715e-13 7.55348e-14 -2.68196e-13 2.17204e-13 0 0 -2.37758e-13 1.95085e-15 -1.14447e-13 3.02902e-15 0 0 9.95239e-14 -2.82389e-13 -1.49783e-15 -1.27835e-13 0 0 1.93716e-13 -1.67365e-13 -2.59182e-13 -2.65962e-14 0 0 6.23776e-14 8.21968e-15 -3.50298e-13 3.59301e-14 0 0 2.46408e-14 8.57949e-14 -5.99884e-13 3.42974e-13 0 0 3.79821e-14 -5.78854e-15 -4.94322e-13 2.8771e-13 0 0 -1.06232e-13 -9.69127e-15 -2.24562e-13 -4.06243e-14 0 0 -1.91967e-13 8.51654e-14 -3.51054e-13 -2.59961e-14 0 0 4.00279e-14 -3.37546e-13 -6.50461e-14 -7.10896e-14 0 0 2.62605e-13 -7.0105e-13 2.75407e-13 -2.2187e-13 0 0 1.8342e-13 -6.10126e-13 1.65784e-13 -6.20851e-14 0 0 5.96657e-14 -4.97544e-13 -5.20464e-14 2.38703e-13 0 0 1.01179e-13 -5.6731e-13 -4.62372e-14 2.78547e-13 0
				</DataArray>
				<DataArray Name="VitesseY" type="Float32" format="ascii">