<?xml version="1.0"?>
<VTKFile type="PolyData">
	<PolyData>
		<Piece NumberOfPoints="1206" NumberOfPolys="1000">
			<Points>
				<DataArray type="Float32" NumberOfComponents="3" format="ascii">
 0 0 0 0.02 0 0 0.04 0 0 0.06 0 0 0.08 0 0 0.1 0 0 0 0.005 0 0.02 0.005 0 0.04 0.005 0 0.06 0.005 0 0.08 0.005 0 0.1 0.005 0 0 0.01 0 0.02 0.01 0 0.04 0.01 0 0.06 0.01 0 0.08 0.01 0 0.1 0.01 0 0 0.015 0 0.02 0.015 0 0.04 0.015 0 0.06 0.015 0 0.08 0.015 0 0.1 0.015 0 0 0.02 0 0.02 0.02 0 0.04 0.02 0 0.06 0.02 0 0.08 0.02 0 0.1 0.02 0 0 0.025 0 0.02 0.025 0 0.04 0.025 0 0.06 0.025 0 0.08 0.025 0 0.1 0.025 0 0 0.03 0 0.02 0.03 0 0.04 0.03 0 0.06 0.03 0 0.08 0.03 0 0.1 0.03 0 0 0.035 0 0.02 0.035 0 0.04 0.035 0 0.06 0.035 0 0.08 0.035 0 0.1 0.035 0 0 0.04 0 0.02 0.04 0 0.04 0.04 0 0.06 0.04 0 0.08 0.04 0 0.1 0.04 0 0 0.045 0 0.02 0.045 0 0.04 0.045 0 0.06 0.045 0 0.08 0.045 0 0.1 0.045 0 0 0.05 0 0.02 0.05 0 0.04 0.05 0 0.06 0.05 0 0.08 0.05 0 0.1 0.05 0 0 0.055 0 0.02 0.055 0 0.04 0.055 0 0.06 0.055 0 0.08 0.055 0 0.1 0.055 0 0 0.06 0 0.02 0.06 0 0.04 0.06 0 0.06 0.06 0 0.08 0.06 0 0.1 0.06 0 0 0.065 0 0.02 0.065 0 0.04 0.065 0 0.06 0.065 0 0.08 0.065 0 0.1 0.065 0 0 0.07 0 0.02 0.07 0 0.04 0.07 0 0.06 0.07 0 0.08 0.07 0 0.1 0.07 0 0 0.075 0 0.02 0.075 0 0.04 0.075 0 0.06 0.075 0 0.08 0.075 0 0.1 0.075 0 0 0.08 0 0.02 0.08 0 0.04 0.08 0 0.06 0.08 0 0.08 0.08 0 0.1 0.08 0 0 0.085 0 0.02 0.085 0 0.04 0.085 0 0.06 0.085 0 0.08 0.085 0 0.1 0.085 0 0 0.09 0 0.02 0.09 0 0.04 0.09 0 0.06 0.09 0 0.08 0.09 0 0.1 0.09 0 0 0.095 0 0.02 0.095 0 0.04 0.095 0 0.06 0.095 0 0.08 0.095 0 0.1 0.095 0 0 0.1 0 0.02 0.1 0 0.04 0.1 0 0.06 0.1 0 0.08 0.1 0 0.1 0.1 0 0 0.105 0 0.02 0.105 0 0.04 0.105 0 0.06 0.105 0 0.08 0.105 0 0.1 0.105 0 0 0.11 0 0.02 0.11 0 0.04 0.11 0 0.06 0.11 0 0.08 0.11 0 0.1 0.11 0 0 0.115 0 0.02 0.115 0 0.04 0.115 0 0.06 0.115 0 0.08 0.115 0 0.1 0.115 0 0 0.12 0 0.02 0.12 0 0.04 0.12 0 0.06 0.12 0 0.08 0.12 0 0.1 0.12 0 0 0.125 0 0.02 0.125 0 0.04 0.125 0 0.06 0.125 0 0.08 0.125 0 0.1 0.125 0 0 0.13 0 0.02 0.13 0 0.04 0.13 0 0.06 0.13 0 0.08 0.13 0 0.1 0.13 0 0 0.135 0 0.02 0.135 0 0.04 0.135 0 0.06 0.135 0 0.08 0.135 0 0.1 0.135 0 0 0.14 0 0.02 0.14 0 0.04 0.14 0 0.06 0.14 0 0.08 0.14 0 0.1 0.14 0 0 0.145 0 0.02 0.145 0 0.04 0.145 0 0.06 0.145 0 0.08 0.145 0 0.1 0.145 0 0 0.15 0 0.02 0.15 0 0.04 0.15 0 0.06 0.15 0 0.08 0.15 0 0.1 0.15 0 0 0.155 0 0.02 0.155 0 0.04 0.155 0 0.06 0.155 0 0.08 0.155 0 0.1 0.155 0 0 0.16 0 0.02 0.16 0 0.04 0.16 0 0.06 0.16 0 0.08 0.16 0 0.1 0.16 0 0 0.165 0 0.02 0.165 0 0.04 0.165 0 0.06 0.165 0 0.08 0.165 0 0.1 0.165 0 0 0.17 0 0.02 0.17 0 0.04 0.17 0 0.06 0.17 0 0.08 0.17 0 0.1 0.17 0 0 0.175 0 0.02 0.175 0 0.04 0.175 0 0.06 0.175 0 0.08 0.175 0 0.1 0.175 0 0 0.18 0 0.02 0.18 0 0.04 0.18 0 0.06 0.18 0 0.08 0.18 0 0.1 0.18 0 0 0.185 0 0.02 0.185 0 0.04 0.185 0 0.06 0.185 0 0.08 0.185 0 0.1 0.185 0 0 0.19 0 0.02 0.19 0 0.04 0.19 0 0.06 0.19 0 0.08 0.19 0 0.1 0.19 0 0 0.195 0 0.02 0.195 0 0.04 0.195 0 0.06 0.195 0 0.08 0.195 0 0.1 0.195 0 0 0.2 0 0.02 0.2 0 0.04 0.2 0 0.06 0.2 0 0.08 0.2 0 0.1 0.2 0 0 0.205 0 0.02 0.205 0 0.04 0.205 0 0.06 0.205 0 0.08 0.205 0 0.1 0.205 0 0 0.21 0 0.02 0.21 0 0.04 0.21 0 0.06 0.21 0 0.08 0.21 0 0.1 0.21 0 0 0.215 0 0.02 0.215 0 0.04 0.215 0 0.06 0.215 0 0.08 0.215 0 0.1 0.215 0 0 0.22 0 0.02 0.22 0 0.04 0.22 0 0.06 0.22 0 0.08 0.22 0 0.1 0.22 0 0 0.225 0 0.02 0.225 0 0.04 0.225 0 0.06 0.225 0 0.08 0.225 0 0.1 0.225 0 0 0.23 0 0.02 0.23 0 0.04 0.23 0 0.06 0.23 0 0.08 0.23 0 0.1 0.23 0 0 0.235 0 0.02 0.235 0 0.04 0.235 0 0.06 0.235 0 0.08 0.235 0 0.1 0.235 0 0 0.24 0 0.02 0.24 0 0.04 0.24 0 0.06 0.24 0 0.08 0.24 0 0.1 0.24 0 0 0.245 0 0.02 0.245 0 0.04 0.245 0 0.06 0.245 0 0.08 0.245 0 0.1 0.245 0 0 0.25 0 0.02 0.25 0 0.04 0.25 0 0.06 0.25 0 0.08 0.25 0 0.1 0.25 0 0 0.255 0 0.02 0.255 0 0.04 0.255 0 0.06 0.255 0 0.08 0.255 0 0.1 0.255 0 0 0.26 0 0.02 0.26 0 0.04 0.26 0 0.06 0.26 0 0.08 0.26 0 0.1 0.26 0 0 0.265 0 0.02 0.265 0 0.04 0.265 0 0.06 0.265 0 0.08 0.265 0 0.1 0.265 0 0 0.27 0 0.02 0.27 0 0.04 0.27 0 0.06 0.27 0 0.08 0.27 0 0.1 0.27 0 0 0.275 0 0.02 0.275 0 0.04 0.275 0 0.06 0.275 0 0.08 0.275 0 0.1 0.275 0 0 0.28 0 0.02 0.28 0 0.04 0.28 0 0.06 0.28 0 0.08 0.28 0 0.1 0.28 0 0 0.285 0 0.02 0.285 0 0.04 0.285 0 0.06 0.285 0 0.08 0.285 0 0.1 0.285 0 0 0.29 0 0.02 0.29 0 0.04 0.29 0 0.06 0.29 0 0.08 0.29 0 0.1 0.29 0 0 0.295 0 0.02 0.295 0 0.04 0.295 0 0.06 0.295 0 0.08 0.295 0 0.1 0.295 0 0 0.3 0 0.02 0.3 0 0.04 0.3 0 0.06 0.3 0 0.08 0.3 0 0.1 0.3 0 0 0.305 0 0.02 0.305 0 0.04 0.305 0 0.06 0.305 0 0.08 0.305 0 0.1 0.305 0 0 0.31 0 0.02 0.31 0 0.04 0.31 0 0.06 0.31 0 0.08 0.31 0 0.1 0.31 0 0 0.315 0 0.02 0.315 0 0.04 0.315 0 0.06 0.315 0 0.08 0.315 0 0.1 0.315 0 0 0.32 0 0.02 0.32 0 0.04 0.32 0 0.06 0.32 0 0.08 0.32 0 0.1 0.32 0 0 0.325 0 0.02 0.325 0 0.04 0.325 0 0.06 0.325 0 0.08 0.325 0 0.1 0.325 0 0 0.33 0 0.02 0.33 0 0.04 0.33 0 0.06 0.33 0 0.08 0.33 0 0.1 0.33 0 0 0.335 0 0.02 0.335 0 0.04 0.335 0 0.06 0.335 0 0.08 0.335 0 0.1 0.335 0 0 0.34 0 0.02 0.34 0 0.04 0.34 0 0.06 0.34 0 0.08 0.34 0 0.1 0.34 0 0 0.345 0 0.02 0.345 0 0.04 0.345 0 0.06 0.345 0 0.08 0.345 0 0.1 0.345 0 0 0.35 0 0.02 0.35 0 0.04 0.35 0 0.06 0.35 0 0.08 0.35 0 0.1 0.35 0 0 0.355 0 0.02 0.355 0 0.04 0.355 0 0.06 0.355 0 0.08 0.355 0 0.1 0.355 0 0 0.36 0 0.02 0.36 0 0.04 0.36 0 0.06 0.36 0 0.08 0.36 0 0.1 0.36 0 0 0.365 0 0.02 0.365 0 0.04 0.365 0 0.06 0.365 0 0.08 0.365 0 0.1 0.365 0 0 0.37 0 0.02 0.37 0 0.04 0.37 0 0.06 0.37 0 0.08 0.37 0 0.1 0.37 0 0 0.375 0 0.02 0.375 0 0.04 0.375 0 0.06 0.375 0 0.08 0.375 0 0.1 0.375 0 0 0.38 0 0.02 0.38 0 0.04 0.38 0 0.06 0.38 0 0.08 0.38 0 0.1 0.38 0 0 0.385 0 0.02 0.385 0 0.04 0.385 0 0.06 0.385 0 0.08 0.385 0 0.1 0.385 0 0 0.39 0 0.02 0.39 0 0.04 0.39 0 0.06 0.39 0 0.08 0.39 0 0.1 0.39 0 0 0.395 0 0.02 0.395 0 0.04 0.395 0 0.06 0.395 0 0.08 0.395 0 0.1 0.395 0 0 0.4 0 0.02 0.4 0 0.04 0.4 0 0.06 0.4 0 0.08 0.4 0 0.1 0.4 0 0 0.405 0 0.02 0.405 0 0.04 0.405 0 0.06 0.405 0 0.08 0.405 0 0.1 0.405 0 0 0.41 0 0.02 0.41 0 0.04 0.41 0 0.06 0.41 0 0.08 0.41 0 0.1 0.41 0 0 0.415 0 0.02 0.415 0 0.04 0.415 0 0.06 0.415 0 0.08 0.415 0 0.1 0.415 0 0 0.42 0 0.02 0.42 0 0.04 0.42 0 0.06 0.42 0 0.08 0.42 0 0.1 0.42 0 0 0.425 0 0.02 0.425 0 0.04 0.425 0 0.06 0.425 0 0.08 0.425 0 0.1 0.425 0 0 0.43 0 0.02 0.43 0 0.04 0.43 0 0.06 0.43 0 0.08 0.43 0 0.1 0.43 0 0 0.435 0 0.02 0.435 0 0.04 0.435 0 0.06 0.435 0 0.08 0.435 0 0.1 0.435 0 0 0.44 0 0.02 0.44 0 0.04 0.44 0 0.06 0.44 0 0.08 0.44 0 0.1 0.44 0 0 0.445 0 0.02 0.445 0 0.04 0.445 0 0.06 0.445 0 0.08 0.445 0 0.1 0.445 0 0 0.45 0 0.02 0.45 0 0.04 0.45 0 0.06 0.45 0 0.08 0.45 0 0.1 0.45 0 0 0.455 0 0.02 0.455 0 0.04 0.455 0 0.06 0.455 0 0.08 0.455 0 0.1 0.455 0 0 0.46 0 0.02 0.46 0 0.04 0.46 0 0.06 0.46 0 0.08 0.46 0 0.1 0.46 0 0 0.465 0 0.02 0.465 0 0.04 0.465 0 0.06 0.465 0 0.08 0.465 0 0.1 0.465 0 0 0.47 0 0.02 0.47 0 0.04 0.47 0 0.06 0.47 0 0.08 0.47 0 0.1 0.47 0 0 0.475 0 0.02 0.475 0 0.04 0.475 0 0.06 0.475 0 0.08 0.475 0 0.1 0.475 0 0 0.48 0 0.02 0.48 0 0.04 0.48 0 0.06 0.48 0 0.08 0.48 0 0.1 0.48 0 0 0.485 0 0.02 0.485 0 0.04 0.485 0 0.06 0.485 0 0.08 0.485 0 0.1 0.485 0 0 0.49 0 0.02 0.49 0 0.04 0.49 0 0.06 0.49 0 0.08 0.49 0 0.1 0.49 0 0 0.495 0 0.02 0.495 0 0.04 0.495 0 0.06 0.495 0 0.08 0.495 0 0.1 0.495 0 0 0.5 0 0.02 0.5 0 0.04 0.5 0 0.06 0.5 0 0.08 0.5 0 0.1 0.5 0 0 0.505 0 0.02 0.505 0 0.04 0.505 0 0.06 0.505 0 0.08 0.505 0 0.1 0.505 0 0 0.51 0 0.02 0.51 0 0.04 0.51 0 0.06 0.51 0 0.08 0.51 0 0.1 0.51 0 0 0.515 0 0.02 0.515 0 0.04 0.515 0 0.06 0.515 0 0.08 0.515 0 0.1 0.515 0 0 0.52 0 0.02 0.52 0 0.04 0.52 0 0.06 0.52 0 0.08 0.52 0 0.1 0.52 0 0 0.525 0 0.02 0.525 0 0.04 0.525 0 0.06 0.525 0 0.08 0.525 0 0.1 0.525 0 0 0.53 0 0.02 0.53 0 0.04 0.53 0 0.06 0.53 0 0.08 0.53 0 0.1 0.53 0 0 0.535 0 0.02 0.535 0 0.04 0.535 0 0.06 0.535 0 0.08 0.535 0 0.1 0.535 0 0 0.54 0 0.02 0.54 0 0.04 0.54 0 0.06 0.54 0 0.08 0.54 0 0.1 0.54 0 0 0.545 0 0.02 0.545 0 0.04 0.545 0 0.06 0.545 0 0.08 0.545 0 0.1 0.545 0 0 0.55 0 0.02 0.55 0 0.04 0.55 0 0.06 0.55 0 0.08 0.55 0 0.1 0.55 0 0 0.555 0 0.02 0.555 0 0.04 0.555 0 0.06 0.555 0 0.08 0.555 0 0.1 0.555 0 0 0.56 0 0.02 0.56 0 0.04 0.56 0 0.06 0.56 0 0.08 0.56 0 0.1 0.56 0 0 0.565 0 0.02 0.565 0 0.04 0.565 0 0.06 0.565 0 0.08 0.565 0 0.1 0.565 0 0 0.57 0 0.02 0.57 0 0.04 0.57 0 0.06 0.57 0 0.08 0.57 0 0.1 0.57 0 0 0.575 0 0.02 0.575 0 0.04 0.575 0 0.06 0.575 0 0.08 0.575 0 0.1 0.575 0 0 0.58 0 0.02 0.58 0 0.04 0.58 0 0.06 0.58 0 0.08 0.58 0 0.1 0.58 0 0 0.585 0 0.02 0.585 0 0.04 0.585 0 0.06 0.585 0 0.08 0.585 0 0.1 0.585 0 0 0.59 0 0.02 0.59 0 0.04 0.59 0 0.06 0.59 0 0.08 0.59 0 0.1 0.59 0 0 0.595 0 0.02 0.595 0 0.04 0.595 0 0.06 0.595 0 0.08 0.595 0 0.1 0.595 0 0 0.6 0 0.02 0.6 0 0.04 0.6 0 0.06 0.6 0 0.08 0.6 0 0.1 0.6 0 0 0.605 0 0.02 0.605 0 0.04 0.605 0 0.06 0.605 0 0.08 0.605 0 0.1 0.605 0 0 0.61 0 0.02 0.61 0 0.04 0.61 0 0.06 0.61 0 0.08 0.61 0 0.1 0.61 0 0 0.615 0 0.02 0.615 0 0.04 0.615 0 0.06 0.615 0 0.08 0.615 0 0.1 0.615 0 0 0.62 0 0.02 0.62 0 0.04 0.62 0 0.06 0.62 0 0.08 0.62 0 0.1 0.62 0 0 0.625 0 0.02 0.625 0 0.04 0.625 0 0.06 0.625 0 0.08 0.625 0 0.1 0.625 0 0 0.63 0 0.02 0.63 0 0.04 0.63 0 0.06 0.63 0 0.08 0.63 0 0.1 0.63 0 0 0.635 0 0.02 0.635 0 0.04 0.635 0 0.06 0.635 0 0.08 0.635 0 0.1 0.635 0 0 0.64 0 0.02 0.64 0 0.04 0.64 0 0.06 0.64 0 0.08 0.64 0 0.1 0.64 0 0 0.645 0 0.02 0.645 0 0.04 0.645 0 0.06 0.645 0 0.08 0.645 0 0.1 0.645 0 0 0.65 0 0.02 0.65 0 0.04 0.65 0 0.06 0.65 0 0.08 0.65 0 0.1 0.65 0 0 0.655 0 0.02 0.655 0 0.04 0.655 0 0.06 0.655 0 0.08 0.655 0 0.1 0.655 0 0 0.66 0 0.02 0.66 0 0.04 0.66 0 0.06 0.66 0 0.08 0.66 0 0.1 0.66 0 0 0.665 0 0.02 0.665 0 0.04 0.665 0 0.06 0.665 0 0.08 0.665 0 0.1 0.665 0 0 0.67 0 0.02 0.67 0 0.04 0.67 0 0.06 0.67 0 0.08 0.67 0 0.1 0.67 0 0 0.675 0 0.02 0.675 0 0.04 0.675 0 0.06 0.675 0 0.08 0.675 0 0.1 0.675 0 0 0.68 0 0.02 0.68 0 0.04 0.68 0 0.06 0.68 0 0.08 0.68 0 0.1 0.68 0 0 0.685 0 0.02 0.685 0 0.04 0.685 0 0.06 0.685 0 0.08 0.685 0 0.1 0.685 0 0 0.69 0 0.02 0.69 0 0.04 0.69 0 0.06 0.69 0 0.08 0.69 0 0.1 
[...]
			<PointData Scalars="VitesseX">
				<DataArray Name="VitesseX" type="Float32" format="ascii">
 0 1.32772e-14 6.27091e-14 3.23763e-14 1.66024e-14 0 0 2.21006e-14 4.72134e-14 4.38242e-14 8.92013e-15 0 0 2.7095e-14 3.58717e-14 4.41919e-14 7.46582e-15 0 0 3.17452e-14 3.05868e-14 2.84027e-14 1.83905e-14 0 0 3.98362e-14 1.89414e-14 2.221e-14 1.64962e-14 0 0 4.44471e-14 1.59049e-15 3.69102e-14 -8.36617e-15 0 0 2.09356e-14 2.4387e-14 1.31119e-14 -5.89947e-16 0 0 7.18111e-15 3.9964e-14 -1.07642e-14 2.05987e-14 0 0 2.06772e-14 2.56464e-14 -1.18258e-14 3.27007e-14 0 0 3.55412e-14 1.32103e-14 7.86166e-16 2.2194e-14 0 0 2.31234e-14 3.2941e-14 -3.89414e-15 1.5425e-14 0 0 3.87765e-15 5.44468e-14 -4.5495e-15 -2.73148e-16 0 0 -8.79161e-15 6.81024e-14 1.61714e-14 -3.82901e-14 0 0 -9.95587e-15 6.6249e-14 2.62494e-14 -3.56334e-14 0 0 1.21098e-14 3.55617e-14 3.97193e-14 -2.14802e-14 0 0 -7.5952e-15 6.68422e-14 1.53863e-14 1.32613e-15 0 0 2.13901e-14 1.54275e-14 7.61452e-14 -1.71959e-14 0 0 3.87722e-14 -7.51467e-16 7.25099e-14 1.76608e-14 0 0 8.43064e-15 6.96251e-14 -3.11479e-14 1.17879e-13 0 0 1.72681e-14 6.02123e-14 -1.47924e-14 1.19421e-13 0 0 2.755e-14 4.98582e-14 2.61633e-14 7.85125e-14 0 0 1.56121e-14 8.29327e-14 1.67039e-14 6.6944e-14 0 0 5.6642e-14 2.21384e-14 9.57104e-14 1.03158e-14 0 0 1.10699e-13 -5.47613e-14 1.841e-13 -4.88863e-14 0 0 2.57482e-14 9.04211e-14 4.78953e-14 2.23023e-14 0 0 -3.47118e-14 2.0608e-13 -7.31359e-14 9.07345e-14 0 0 4.678e-14 8.2277e-14 4.22727e-14 8.37033e-15 0 0 9.88558e-14 -2.37426e-14 1.37681e-13 -5.11754e-14 0 0 5.151e-14 4.68786e-14 7.79679e-14 -3.74948e-14 0 0 3.55195e-14 6.72369e-14 9.57488e-14 -9.10334e-14 0 0 5.41769e-14 3.49663e-14 1.37384e-13 -1.10857e-13 0 0 3.70185e-14 6.04522e-14 7.54939e-14 -4.44574e-14 0 0 2.4935e-14 7.62801e-14 1.17642e-14 3.23663e-14 0 0 6.369e-14 3.48044e-14 1.65842e-14 7.03776e-14 0 0 6.54916e-15 1.29012e-13 -7.83569e-14 1.34532e-13 0 0 3.5657e-15 1.2328e-13 -3.447e-14 7.11326e-14 0 0 8.36803e-14 -3.30854e-15 1.06381e-13 -9.42041e-15 0 0 7.44256e-14 2.54033e-14 8.5424e-14 4.00222e-14 0 0 2.86656e-14 1.10165e-13 3.49031e-14 7.24983e-14 0 0 5.24467e-14 9.04976e-14 5.26348e-14 5.62207e-14 0 0 1.16634e-13 4.67763e-14 5.48102e-14 6.29434e-14 0 0 1.57599e-13 2.93218e-14 3.87686e-14 6.27888e-14 0 0 1.73674e-13 -4.60358e-14 1.63123e-13 -3.28402e-14 0 0 8.18185e-14 5.56251e-14 1.02602e-13 3.65707e-14 0 0 -8.72598e-15 1.89497e-13 -4.08025e-14 1.50605e-13 0 0 7.88777e-14 3.65501e-14 1.41414e-13 1.94728e-14 0 0 1.2504e-13 -6.02957e-14 2.74218e-13 -5.72179e-14 0 0 6.22665e-14 2.34792e-14 1.69815e-13 2.9756e-14 0 0 -1.59171e-14 1.15167e-13 8.06472e-14 7.91549e-14 0 0 -1.06097e-13 2.21099e-13 1.76069e-14 1.10192e-13 0 0 -1.16158e-13 2.52171e-13 1.32609e-14 9.57102e-14 0 0 -3.41121e-14 1.54642e-13 7.875e-14 6.70547e-14 0 0 1.92482e-13 -1.7493e-13 3.26069e-13 -6.89101e-14 0 0 1.01651e-13 -3.84374e-15 1.22102e-13 2.66739e-14 0 0 -1.4165e-13 3.5795e-13 -1.94216e-13 1.86274e-13 0 0 -1.15261e-13 2.1181e-13 4.72813e-14 2.71896e-14 0 0 -9.98889e-14 1.72542e-13 9.04879e-14 1.51203e-14 0 0 -7.20269e-14 1.91027e-13 -2.22492e-15 1.05616e-13 0 0 -1.45748e-15 8.61733e-14 8.19755e-14 1.17698e-13 0 0 2.91875e-14 2.45882e-14 1.6992e-13 5.25065e-14 0 0 2.07023e-14 7.86256e-14 7.98343e-14 7.71135e-14 0 0 2.50738e-14 8.25284e-14 5.4401e-14 9.13692e-14 0 0 5.1704e-14 6.93597e-14 7.76969e-14 3.4359e-14 0 0 1.23146e-13 6.09602e-14 3.2642e-14 3.79095e-14 0 0 1.54411e-13 8.43035e-14 -1.93657e-14 7.02741e-14 0 0 9.73272e-14 1.79125e-13 -9.20536e-14 1.36311e-13 0 0 1.5057e-13 5.50898e-14 1.26166e-13 2.70759e-14 0 0 1.32757e-13 8.70254e-14 1.32336e-13 7.4199e-14 0 0 -3.70365e-15 2.95033e-13 -7.62187e-14 2.83773e-13 0 0 7.83177e-14 1.58233e-13 1.24346e-13 1.61525e-13 0 0 2.43865e-13 -5.10282e-14 4.48836e-13 -1.15086e-13 0 0 1.04833e-13 1.96612e-13 2.62737e-13 -4.19475e-15 0 0 -1.26827e-13 4.89587e-13 -2.37805e-14 2.48499e-13 0 0 -1.41323e-13 4.03077e-13 1.2541e-13 2.2248e-13 0 0 -3.69388e-14 1.16045e-13 4.66317e-13 1.19217e-13 0 0 1.48043e-14 -5.67012e-14 6.50207e-13 1.32001e-13 0 0 -1.6466e-13 3.65107e-14 1.51316e-13 3.95797e-13 0 0 -1.0646e-12 -1.07589e-12 -1.4421e-12 -3.82613e-13 0 0 -7.00434e-12 -1.07801e-11 -1.09741e-11 -6.71392e-12 0 0 -4.24641e-11 -6.87769e-11 -6.88373e-11 -4.26499e-11 0 0 -2.21765e-10 -3.59003e-10 -3.60188e-10 -2.22787e-10 0 0 -1.00812e-09 -1.63361e-09 -1.63746e-09 -1.01409e-09 0 0 -4.10717e-09 -6.65975e-09 -6.67602e-09 -4.13562e-09 0 0 -1.53973e-08 -2.49873e-08 -2.50778e-08 -1.55454e-08 0 0 -5.44212e-08 -8.85569e-08 -8.9179e-08 -5.54262e-08 0 0 -1.75899e-07 -2.88039e-07 -2.92294e-07 -1.82782e-07 0 0 -4.74603e-07 -7.8395e-07 -8.03876e-07 -5.06847e-07 0 0 -1.09328e-06 -1.82333e-06 -1.89155e-06 -1.20351e-06 0 0 -2.25341e-06 -3.80541e-06 -4.00287e-06 -2.57303e-06 0 0 -4.25048e-06 -7.28473e-06 -7.79059e-06 -5.06566e-06 0 0 -7.45207e-06 -1.30242e-05 -1.4207e-05 -9.38979e-06 0 0 -1.22896e-05 -2.17995e-05 -2.41919e-05 -1.60619e-05 0 0 -1.913e-05 -3.49738e-05 -4.00269e-05 -2.75713e-05 0 0 -2.83814e-05 -5.25048e-05 -6.00719e-05 -4.03153e-05 0 0 -4.04261e-05 -7.61826e-05 -9.15447e-05 -6.47951e-05 0 0 -5.48924e-05 -0.000107629 -0.000127661 -8.78832e-05 0 0 -7.31109e-05 -0.000139918 -0.000169282 -0.000120662 0 0 -9.36715e-05 -0.000184026 -0.0002249 -0.000159377 0 0 -0.000117666 -0.000232907 -0.000281196 -0.000197244 0 0 -0.000142968 -0.000280847 -0.000336079 -0.000232236 0 0 -0.000174749 -0.000331524 -0.0003887 -0.000262666 0 0 -0.000205164 -0.000389976 -0.000437776 -0.000286077 0 0 -0.000248427 -0.000448824 -0.000480599 -0.000305542 0 0 -0.000294353 -0.000513179 -0.000513716 -0.000301367 0 0 -0.00035073 -0.000576202 -0.000539214 -0.000284051 0 0 -0.000425247 -0.000642015 -0.000543137 -0.00026085 0 0 -0.000500311 -0.000706605 -0.000548272 -0.000244013 0 0 -0.000578473 -0.000781758 -0.000570354 -0.000253521 0 0 -0.000658313 -0.000922116 -0.000648041 -0.000282403 0 0 -0.000728327 -0.00110486 -0.000784315 -0.000284514 0 0 -0.000799066 -0.00129611 -0.00092198 -0.000237904 0 0 -0.000896911 -0.00148459 -0.00101029 -9.54015e-06 0 0 -0.000997689 -0.0016921 -0.00100956 0.000371851 0 0 -0.00112664 -0.00184274 -0.000953435 0.0004926 0 0 -0.00115469 -0.00183197 -0.000896075 0.000458929 0 0 -0.00111578 -0.00170472 -0.000766422 0.000312957 0 0 -0.000987556 -0.00132989 -0.000581129 -2.92055e-05 0 0 -0.000798962 -0.000961376 -0.00051328 -0.000137303 0 0 -0.000662533 -0.000694648 -0.000408255 -0.000168582 0 0 -0.000319558 7.9331e-05 0.000104298 -0.000389223 0 0 0.000637073 0.00178963 0.00139551 -0.000558752 0 0 0.000941169 0.00209187 0.00167925 -0.000346899 0 0 0.000930737 0.00199978 0.00164064 9.23335e-05 0 0 0.000899692 0.00170808 0.00145329 0.00044717 0 0 0.000853923 0.00140752 0.00119535 0.000539908 0 0 0.000774975 0.00117535 0.00100149 0.000542679 0 0 0.000687526 0.00103175 0.000913458 0.000524376 0 0 0.00060108 0.000928357 0.000850365 0.000477194 0 0 0.000510933 0.000800485 0.000748161 0.000426487 0 0 0.000414149 0.000653433 0.000622131 0.000363471 0 0 0.000313709 0.000498289 0.000482105 0.000287524 0 0 0.000216501 0.000346335 0.000340065 0.000206195 0 0 0.000133038 0.000214075 0.000212317 0.000130203 0 0 7.09204e-05 0.000114634 0.000114441 7.06112e-05 0 0 3.19689e-05 5.18233e-05 5.19383e-05 3.21549e-05 0 0 1.22193e-05 1.98324e-05 1.99079e-05 1.23413e-05 0 0 4.10296e-06 6.66093e-06 6.68833e-06 4.1473e-06 0 0 1.26954e-06 2.0604e-06 2.06811e-06 1.28202e-06 0 0 3.7506e-07 6.08392e-07 6.10285e-07 3.78123e-07 0 0 1.07546e-07 1.74358e-07 1.74784e-07 1.08236e-07 0 0 3.01227e-08 4.88127e-08 4.89029e-08 3.02692e-08 0 0 8.25874e-09 1.33774e-08 1.33957e-08 8.28813e-09 0 0 2.21755e-09 3.59106e-09 3.5942e-09 2.2233e-09 0 0 5.8332e-10 9.44405e-10 9.44667e-10 5.84351e-10 0 0 1.50635e-10 2.43219e-10 2.43537e-10 1.50379e-10 0 0 3.83082e-11 6.16178e-11 6.15508e-11 3.80576e-11 0 0 9.8414e-12 1.54235e-11 1.54665e-11 9.50655e-12 0 0 2.6423e-12 4.1405e-12 3.80529e-12 2.57917e-12 0 0 8.64173e-13 1.45688e-12 8.56439e-13 1.03178e-12 0 0 6.80359e-13 3.97599e-13 5.6619e-13 5.05316e-13 0 0 3.52673e-13 5.99112e-13 4.75403e-14 6.17349e-13 0 0 3.31034e-13 5.03643e-13 1.9783e-13 2.73697e-13 0 0 3.75769e-13 3.91476e-13 3.72015e-13 4.32294e-14 0 0 3.35258e-13 5.24034e-13 2.11984e-13 7.75666e-14 0 0 4.80099e-13 4.13257e-13 2.38702e-13 8.24187e-14 0 0 5.49197e-13 4.11868e-13 2.08155e-13 1.85618e-13 0 0 5.6129e-13 3.07283e-13 5.5136e-13 -1.69377e-13 0 0 2.5975e-13 6.24116e-13 4.39388e-13 -9.9337e-14 0 0 3.05254e-13 5.32559e-13 4.67776e-13 1.73412e-14 0 0 3.36866e-13 5.07438e-13 4.23006e-13 2.01613e-13 0 0 3.89135e-13 4.58913e-13 3.67385e-13 4.63339e-13 0 0 4.3457e-13 4.29918e-13 4.08878e-13 3.89318e-13 0 0 2.93129e-13 5.75203e-13 4.28034e-13 3.21838e-13 0 0 2.93233e-13 4.33353e-13 6.97136e-13 1.67813e-13 0 0 1.87465e-13 5.608e-13 5.06521e-13 3.36749e-13 0 0 7.51938e-14 6.60125e-13 3.47443e-13 4.09808e-13 0 0 8.27135e-14 4.91032e-13 6.12749e-13 1.05021e-13 0 0 2.56916e-13 2.90616e-13 6.26927e-13 1.77865e-13 0 0 6.35225e-13 -1.6643e-13 9.3503e-13 1.00616e-13 0 0 3.86511e-13 1.4464e-13 7.44276e-13 1.98541e-13 0 0 3.18202e-14 6.20909e-13 3.54016e-13 4.35386e-13 0 0 1.89071e-13 4.15714e-13 4.91436e-13 4.42398e-13 0 0 1.34796e-13 5.70019e-13 2.68678e-13 6.74924e-13 0 0 4.06996e-13 1.89201e-13 7.00488e-13 2.61824e-13 0 0 3.33534e-13 2.73984e-13 6.65955e-13 6.39223e-14 0 0 1.04988e-13 5.72879e-13 2.97895e-13 2.90218e-13 0 0 2.62159e-13 3.9692e-13 2.30767e-13 3.50441e-13 0 0 5.08135e-14 6.90933e-13 -7.048e-14 3.88341e-13 0 0 3.34323e-13 1.6411e-13 5.70479e-13 -1.27796e-13 0 0 3.98155e-13 7.06936e-14 6.2809e-13 -1.27577e-13 0 0 1.878e-13 4.05357e-13 1.30175e-13 2.63084e-13 0 0 4.42941e-13 5.1305e-14 4.76684e-13 3.20443e-14 0 0 2.01893e-13 4.2498e-13 2.87671e-13 8.87287e-14 0 0 2.46551e-13 3.24798e-13 2.4805e-13 2.27092e-13 0 0 4.11069e-13 1.07118e-13 2.75011e-13 3.66505e-13 0 0 3.88921e-13 4.29367e-13 -1.3291e-13 6.03252e-13 0 0 5.99971e-13 3.33416e-13 3.2495e-14 3.54128e-13 0 0 3.423e-13 6.70706e-13 -7.82006e-14 2.96096e-13 0 0 3.14803e-13 4.36824e-13 2.81047e-13 1.81899e-13 0 0 4.25292e-13 1.73451e-13 4.14612e-13 2.38665e-13 0 0 5.07202e-13 1.92337e-13 2.79068e-13 2.99078e-13 0 0 9.6215e-13 -4.52338e-13 8.42423e-13 1.27448e-14 0 0 5.02442e-13 2.91361e-13 1.17971e-13 4.45707e-13 0 0 1.5831e-13 8.47082e-13 -3.66923e-13 7.72403e-13 0 0 4.88536e-13 2.91446e-13 1.06864e-13 6.37496e-13 0 0 5.13793e-13 2.85795e-13 5.61917e-14 7.24033e-13 0 0 6.46912e-13 5.02988e-14 2.2714e-13 7.34194e-13 0 0 2.70354e-13 4.1152e-13 -4.03052e-14 1.07809e-12 0 0 1.20452e-13 5.82894e-13 -6.78203e-14 1.06843e-12 0 0 5.00959e-13 3.20074e-14 4.13406e-13 6.38989e-13 0 0 5.16084e-13 6.90608e-15 3.53119e-13 6.49431e-13 0
				</DataArray>
				<DataArray Name="VitesseY" type="Float32" format="ascii">