<?xml version="1.0"?>
<VTKFile type="PolyData">
	<PolyData>
		<Piece NumberOfPoints="1206" NumberOfPolys="1000">
			<Points>
				<DataArray type="Float32" NumberOfComponents="3" format="ascii">
 0 0 0 0.02 0 0 0.04 0 0 0.06 0 0 0.08 0 0 0.1 0 0 0 0.005 0 0.02 0.005 0 0.04 0.005 0 0.06 0.005 0 0.08 0.005 0 0.1 0.005 0 0 0.01 0 0.02 0.01 0 0.04 0.01 0 0.06 0.01 0 0.08 0.01 0 0.1 0.01 0 0 0.015 0 0.02 0.015 0 0.04 0.015 0 0.06 0.015 0 0.08 0.015 0 0.1 0.015 0 0 0.02 0 0.02 0.02 0 0.04 0.02 0 0.06 0.02 0 0.08 0.02 0 0.1 0.02 0 0 0.025 0 0.02 0.025 0 0.04 0.025 0 0.06 0.025 0 0.08 0.025 0 0.1 0.025 0 0 0.03 0 0.02 0.03 0 0.04 0.03 0 0.06 0.03 0 0.08 0.03 0 0.1 0.03 0 0 0.035 0 0.02 0.035 0 0.04 0.035 0 0.06 0.035 0 0.08 0.035 0 0.1 0.035 0 0 0.04 0 0.02 0.04 0 0.04 0.04 0 0.06 0.04 0 0.08 0.04 0 0.1 0.04 0 0 0.045 0 0.02 0.045 0 0.04 0.045 0 0.06 0.045 0 0.08 0.045 0 0.1 0.045 0 0 0.05 0 0.02 0.05 0 0.04 0.05 0 0.06 0.05 0 0.08 0.05 0 0.1 0.05 0 0 0.055 0 0.02 0.055 0 0.04 0.055 0 0.06 0.055 0 0.08 0.055 0 0.1 0.055 0 0 0.06 0 0.02 0.06 0 0.04 0.06 0 0.06 0.06 0 0.08 0.06 0 0.1 0.06 0 0 0.065 0 0.02 0.065 0 0.04 0.065 0 0.06 0.065 0 0.08 0.065 0 0.1 0.065 0 0 0.07 0 0.02 0.07 0 0.04 0.07 0 0.06 0.07 0 0.08 0.07 0 0.1 0.07 0 0 0.075 0 0.02 0.075 0 0.04 0.075 0 0.06 0.075 0 0.08 0.075 0 0.1 0.075 0 0 0.08 0 0.02 0.08 0 0.04 0.08 0 0.06 0.08 0 0.08 0.08 0 0.1 0.08 0 0 0.085 0 0.02 0.085 0 0.04 0.085 0 0.06 0.085 0 0.08 0.085 0 0.1 0.085 0 0 0.09 0 0.02 0.09 0 0.04 0.09 0 0.06 0.09 0 0.08 0.09 0 0.1 0.09 0 0 0.095 0 0.02 0.095 0 0.04 0.095 0 0.06 0.095 0 0.08 0.095 0 0.1 0.095 0 0 0.1 0 0.02 0.1 0 0.04 0.1 0 0.06 0.1 0 0.08 0.1 0 0.1 0.1 0 0 0.105 0 0.02 0.105 0 0.04 0.105 0 0.06 0.105 0 0.08 0.105 0 0.1 0.105 0 0 0.11 0 0.02 0.11 0 0.04 0.11 0 0.06 0.11 0 0.08 0.11 0 0.1 0.11 0 0 0.115 0 0.02 0.115 0 0.04 0.115 0 0.06 0.115 0 0.08 0.115 0 0.1 0.115 0 0 0.12 0 0.02 0.12 0 0.04 0.12 0 0.06 0.12 0 0.08 0.12 0 0.1 0.12 0 0 0.125 0 0.02 0.125 0 0.04 0.125 0 0.06 0.125 0 0.08 0.125 0 0.1 0.125 0 0 0.13 0 0.02 0.13 0 0.04 0.13 0 0.06 0.13 0 0.08 0.13 0 0.1 0.13 0 0 0.135 0 0.02 0.135 0 0.04 0.135 0 0.06 0.135 0 0.08 0.135 0 0.1 0.135 0 0 0.14 0 0.02 0.14 0 0.04 0.14 0 0.06 0.14 0 0.08 0.14 0 0.1 0.14 0 0 0.145 0 0.02 0.145 0 0.04 0.145 0 0.06 0.145 0 0.08 0.145 0 0.1 0.145 0 0 0.15 0 0.02 0.15 0 0.04 0.15 0 0.06 0.15 0 0.08 0.15 0 0.1 0.15 0 0 0.155 0 0.02 0.155 0 0.04 0.155 0 0.06 0.155 0 0.08 0.155 0 0.1 0.155 0 0 0.16 0 0.02 0.16 0 0.04 0.16 0 0.06 0.16 0 0.08 0.16 0 0.1 0.16 0 0 0.165 0 0.02 0.165 0 0.04 0.165 0 0.06 0.165 0 0.08 0.165 0 0.1 0.165 0 0 0.17 0 0.02 0.17 0 0.04 0.17 0 0.06 0.17 0 0.08 0.17 0 0.1 0.17 0 0 0.175 0 0.02 0.175 0 0.04 0.175 0 0.06 0.175 0 0.08 0.175 0 0.1 0.175 0 0 0.18 0 0.02 0.18 0 0.04 0.18 0 0.06 0.18 0 0.08 0.18 0 0.1 0.18 0 0 0.185 0 0.02 0.185 0 0.04 0.185 0 0.06 0.185 0 0.08 0.185 0 0.1 0.185 0 0 0.19 0 0.02 0.19 0 0.04 0.19 0 0.06 0.19 0 0.08 0.19 0 0.1 0.19 0 0 0.195 0 0.02 0.195 0 0.04 0.195 0 0.06 0.195 0 0.08 0.195 0 0.1 0.195 0 0 0.2 0 0.02 0.2 0 0.04 0.2 0 0.06 0.2 0 0.08 0.2 0 0.1 0.2 0 0 0.205 0 0.02 0.205 0 0.04 0.205 0 0.06 0.205 0 0.08 0.205 0 0.1 0.205 0 0 0.21 0 0.02 0.21 0 0.04 0.21 0 0.06 0.21 0 0.08 0.21 0 0.1 0.21 0 0 0.215 0 0.02 0.215 0 0.04 0.215 0 0.06 0.215 0 0.08 0.215 0 0.1 0.215 0 0 0.22 0 0.02 0.22 0 0.04 0.22 0 0.06 0.22 0 0.08 0.22 0 0.1 0.22 0 0 0.225 0 0.02 0.225 0 0.04 0.225 0 0.06 0.225 0 0.08 0.225 0 0.1 0.225 0 0 0.23 0 0.02 0.23 0 0.04 0.23 0 0.06 0.23 0 0.08 0.23 0 0.1 0.23 0 0 0.235 0 0.02 0.235 0 0.04 0.235 0 0.06 0.235 0 0.08 0.235 0 0.1 0.235 0 0 0.24 0 0.02 0.24 0 0.04 0.24 0 0.06 0.24 0 0.08 0.24 0 0.1 0.24 0 0 0.245 0 0.02 0.245 0 0.04 0.245 0 0.06 0.245 0 0.08 0.245 0 0.1 0.245 0 0 0.25 0 0.02 0.25 0 0.04 0.25 0 0.06 0.25 0 0.08 0.25 0 0.1 0.25 0 0 0.255 0 0.02 0.255 0 0.04 0.255 0 0.06 0.255 0 0.08 0.255 0 0.1 0.255 0 0 0.26 0 0.02 0.26 0 0.04 0.26 0 0.06 0.26 0 0.08 0.26 0 0.1 0.26 0 0 0.265 0 0.02 0.265 0 0.04 0.265 0 0.06 0.265 0 0.08 0.265 0 0.1 0.265 0 0 0.27 0 0.02 0.27 0 0.04 0.27 0 0.06 0.27 0 0.08 0.27 0 0.1 0.27 0 0 0.275 0 0.02 0.275 0 0.04 0.275 0 0.06 0.275 0 0.08 0.275 0 0.1 0.275 0 0 0.28 0 0.02 0.28 0 0.04 0.28 0 0.06 0.28 0 0.08 0.28 0 0.1 0.28 0 0 0.285 0 0.02 0.285 0 0.04 0.285 0 0.06 0.285 0 0.08 0.285 0 0.1 0.285 0 0 0.29 0 0.02 0.29 0 0.04 0.29 0 0.06 0.29 0 0.08 0.29 0 0.1 0.29 0 0 0.295 0 0.02 0.295 0 0.04 0.295 0 0.06 0.295 0 0.08 0.295 0 0.1 0.295 0 0 0.3 0 0.02 0.3 0 0.04 0.3 0 0.06 0.3 0 0.08 0.3 0 0.1 0.3 0 0 0.305 0 0.02 0.305 0 0.04 0.305 0 0.06 0.305 0 0.08 0.305 0 0.1 0.305 0 0 0.31 0 0.02 0.31 0 0.04 0.31 0 0.06 0.31 0 0.08 0.31 0 0.1 0.31 0 0 0.315 0 0.02 0.315 0 0.04 0.315 0 0.06 0.315 0 0.08 0.315 0 0.1 0.315 0 0 0.32 0 0.02 0.32 0 0.04 0.32 0 0.06 0.32 0 0.08 0.32 0 0.1 0.32 0 0 0.325 0 0.02 0.325 0 0.04 0.325 0 0.06 0.325 0 0.08 0.325 0 0.1 0.325 0 0 0.33 0 0.02 0.33 0 0.04 0.33 0 0.06 0.33 0 0.08 0.33 0 0.1 0.33 0 0 0.335 0 0.02 0.335 0 0.04 0.335 0 0.06 0.335 0 0.08 0.335 0 0.1 0.335 0 0 0.34 0 0.02 0.34 0 0.04 0.34 0 0.06 0.34 0 0.08 0.34 0 0.1 0.34 0 0 0.345 0 0.02 0.345 0 0.04 0.345 0 0.06 0.345 0 0.08 0.345 0 0.1 0.345 0 0 0.35 0 0.02 0.35 0 0.04 0.35 0 0.06 0.35 0 0.08 0.35 0 0.1 0.35 0 0 0.355 0 0.02 0.355 0 0.04 0.355 0 0.06 0.355 0 0.08 0.355 0 0.1 0.355 0 0 0.36 0 0.02 0.36 0 0.04 0.36 0 0.06 0.36 0 0.08 0.36 0 0.1 0.36 0 0 0.365 0 0.02 0.365 0 0.04 0.365 0 0.06 0.365 0 0.08 0.365 0 0.1 0.365 0 0 0.37 0 0.02 0.37 0 0.04 0.37 0 0.06 0.37 0 0.08 0.37 0 0.1 0.37 0 0 0.375 0 0.02 0.375 0 0.04 0.375 0 0.06 0.375 0 0.08 0.375 0 0.1 0.375 0 0 0.38 0 0.02 0.38 0 0.04 0.38 0 0.06 0.38 0 0.08 0.38 0 0.1 0.38 0 0 0.385 0 0.02 0.385 0 0.04 0.385 0 0.06 0.385 0 0.08 0.385 0 0.1 0.385 0 0 0.39 0 0.02 0.39 0 0.04 0.39 0 0.06 0.39 0 0.08 0.39 0 0.1 0.39 0 0 0.395 0 0.02 0.395 0 0.04 0.395 0 0.06 0.395 0 0.08 0.395 0 0.1 0.395 0 0 0.4 0 0.02 0.4 0 0.04 0.4 0 0.06 0.4 0 0.08 0.4 0 0.1 0.4 0 0 0.405 0 0.02 0.405 0 0.04 0.405 0 0.06 0.405 0 0.08 0.405 0 0.1 0.405 0 0 0.41 0 0.02 0.41 0 0.04 0.41 0 0.06 0.41 0 0.08 0.41 0 0.1 0.41 0 0 0.415 0 0.02 0.415 0 0.04 0.415 0 0.06 0.415 0 0.08 0.415 0 0.1 0.415 0 0 0.42 0 0.02 0.42 0 0.04 0.42 0 0.06 0.42 0 0.08 0.42 0 0.1 0.42 0 0 0.425 0 0.02 0.425 0 0.04 0.425 0 0.06 0.425 0 0.08 0.425 0 0.1 0.425 0 0 0.43 0 0.02 0.43 0 0.04 0.43 0 0.06 0.43 0 0.08 0.43 0 0.1 0.43 0 0 0.435 0 0.02 0.435 0 0.04 0.435 0 0.06 0.435 0 0.08 0.435 0 0.1 0.435 0 0 0.44 0 0.02 0.44 0 0.04 0.44 0 0.06 0.44 0 0.08 0.44 0 0.1 0.44 0 0 0.445 0 0.02 0.445 0 0.04 0.445 0 0.06 0.445 0 0.08 0.445 0 0.1 0.445 0 0 0.45 0 0.02 0.45 0 0.04 0.45 0 0.06 0.45 0 0.08 0.45 0 0.1 0.45 0 0 0.455 0 0.02 0.455 0 0.04 0.455 0 0.06 0.455 0 0.08 0.455 0 0.1 0.455 0 0 0.46 0 0.02 0.46 0 0.04 0.46 0 0.06 0.46 0 0.08 0.46 0 0.1 0.46 0 0 0.465 0 0.02 0.465 0 0.04 0.465 0 0.06 0.465 0 0.08 0.465 0 0.1 0.465 0 0 0.47 0 0.02 0.47 0 0.04 0.47 0 0.06 0.47 0 0.08 0.47 0 0.1 0.47 0 0 0.475 0 0.02 0.475 0 0.04 0.475 0 0.06 0.475 0 0.08 0.475 0 0.1 0.475 0 0 0.48 0 0.02 0.48 0 0.04 0.48 0 0.06 0.48 0 0.08 0.48 0 0.1 0.48 0 0 0.485 0 0.02 0.485 0 0.04 0.485 0 0.06 0.485 0 0.08 0.485 0 0.1 0.485 0 0 0.49 0 0.02 0.49 0 0.04 0.49 0 0.06 0.49 0 0.08 0.49 0 0.1 0.49 0 0 0.495 0 0.02 0.495 0 0.04 0.495 0 0.06 0.495 0 0.08 0.495 0 0.1 0.495 0 0 0.5 0 0.02 0.5 0 0.04 0.5 0 0.06 0.5 0 0.08 0.5 0 0.1 0.5 0 0 0.505 0 0.02 0.505 0 0.04 0.505 0 0.06 0.505 0 0.08 0.505 0 0.1 0.505 0 0 0.51 0 0.02 0.51 0 0.04 0.51 0 0.06 0.51 0 0.08 0.51 0 0.1 0.51 0 0 0.515 0 0.02 0.515 0 0.04 0.515 0 0.06 0.515 0 0.08 0.515 0 0.1 0.515 0 0 0.52 0 0.02 0.52 0 0.04 0.52 0 0.06 0.52 0 0.08 0.52 0 0.1 0.52 0 0 0.525 0 0.02 0.525 0 0.04 0.525 0 0.06 0.525 0 0.08 0.525 0 0.1 0.525 0 0 0.53 0 0.02 0.53 0 0.04 0.53 0 0.06 0.53 0 0.08 0.53 0 0.1 0.53 0 0 0.535 0 0.02 0.535 0 0.04 0.535 0 0.06 0.535 0 0.08 0.535 0 0.1 0.535 0 0 0.54 0 0.02 0.54 0 0.04 0.54 0 0.06 0.54 0 0.08 0.54 0 0.1 0.54 0 0 0.545 0 0.02 0.545 0 0.04 0.545 0 0.06 0.545 0 0.08 0.545 0 0.1 0.545 0 0 0.55 0 0.02 0.55 0 0.04 0.55 0 0.06 0.55 0 0.08 0.55 0 0.1 0.55 0 0 0.555 0 0.02 0.555 0 0.04 0.555 0 0.06 0.555 0 0.08 0.555 0 0.1 0.555 0 0 0.56 0 0.02 0.56 0 0.04 0.56 0 0.06 0.56 0 0.08 0.56 0 0.1 0.56 0 0 0.565 0 0.02 0.565 0 0.04 0.565 0 0.06 0.565 0 0.08 0.565 0 0.1 0.565 0 0 0.57 0 0.02 0.57 0 0.04 0.57 0 0.06 0.57 0 0.08 0.57 0 0.1 0.57 0 0 0.575 0 0.02 0.575 0 0.04 0.575 0 0.06 0.575 0 0.08 0.575 0 0.1 0.575 0 0 0.58 0 0.02 0.58 0 0.04 0.58 0 0.06 0.58 0 0.08 0.58 0 0.1 0.58 0 0 0.585 0 0.02 0.585 0 0.04 0.585 0 0.06 0.585 0 0.08 0.585 0 0.1 0.585 0 0 0.59 0 0.02 0.59 0 0.04 0.59 0 0.06 0.59 0 0.08 0.59 0 0.1 0.59 0 0 0.595 0 0.02 0.595 0 0.04 0.595 0 0.06 0.595 0 0.08 0.595 0 0.1 0.595 0 0 0.6 0 0.02 0.6 0 0.04 0.6 0 0.06 0.6 0 0.08 0.6 0 0.1 0.6 0 0 0.605 0 0.02 0.605 0 0.04 0.605 0 0.06 0.605 0 0.08 0.605 0 0.1 0.605 0 0 0.61 0 0.02 0.61 0 0.04 0.61 0 0.06 0.61 0 0.08 0.61 0 0.1 0.61 0 0 0.615 0 0.02 0.615 0 0.04 0.615 0 0.06 0.615 0 0.08 0.615 0 0.1 0.615 0 0 0.62 0 0.02 0.62 0 0.04 0.62 0 0.06 0.62 0 0.08 0.62 0 0.1 0.62 0 0 0.625 0 0.02 0.625 0 0.04 0.625 0 0.06 0.625 0 0.08 0.625 0 0.1 0.625 0 0 0.63 0 0.02 0.63 0 0.04 0.63 0 0.06 0.63 0 0.08 0.63 0 0.1 0.63 0 0 0.635 0 0.02 0.635 0 0.04 0.635 0 0.06 0.635 0 0.08 0.635 0 0.1 0.635 0 0 0.64 0 0.02 0.64 0 0.04 0.64 0 0.06 0.64 0 0.08 0.64 0 0.1 0.64 0 0 0.645 0 0.02 0.645 0 0.04 0.645 0 0.06 0.645 0 0.08 0.645 0 0.1 0.645 0 0 0.65 0 0.02 0.65 0 0.04 0.65 0 0.06 0.65 0 0.08 0.65 0 0.1 0.65 0 0 0.655 0 0.02 0.655 0 0.04 0.655 0 0.06 0.655 0 0.08 0.655 0 0.1 0.655 0 0 0.66 0 0.02 0.66 0 0.04 0.66 0 0.06 0.66 0 0.08 0.66 0 0.1 0.66 0 0 0.665 0 0.02 0.665 0 0.04 0.665 0 0.06 0.665 0 0.08 0.665 0 0.1 0.665 0 0 0.67 0 0.02 0.67 0 0.04 0.67 0 0.06 0.67 0 0.08 0.67 0 0.1 0.67 0 0 0.675 0 0.02 0.675 0 0.04 0.675 0 0.06 0.675 0 0.08 0.675 0 0.1 0.675 0 0 0.68 0 0.02 0.68 0 0.04 0.68 0 0.06 0.68 0 0.08 0.68 0 0.1 0.68 0 0 0.685 0 0.02 0.685 0 0.04 0.685 0 0.06 0.685 0 0.08 0.685 0 0.1 0.685 0 0 0.69 0 0.02 0.69 0 0.04 0.69 0 0.06 0.69 0 0.08 0.69 0 0.1 
[...]
			<PointData Scalars="VitesseX">
				<DataArray Name="VitesseX" type="Float32" format="ascii">
 0 5.68783e-17 -2.49863e-14 4.97338e-16 -1.41244e-14 0 0 -3.53255e-15 -1.6506e-14 -8.84907e-15 -9.52298e-15 0 0 -6.79699e-15 -5.95394e-15 -2.07247e-14 -3.38456e-15 0 0 -1.18882e-15 -1.21811e-14 -1.31793e-14 -9.19915e-15 0 0 -3.40014e-15 -5.2635e-15 -2.02118e-14 -4.50489e-15 0 0 -1.19833e-14 1.29176e-14 -4.23092e-14 8.78411e-15 0 0 -4.76795e-15 -3.72288e-16 -2.72651e-14 -8.82491e-15 0 0 9.98487e-15 -3.23446e-14 7.53532e-15 -3.27244e-14 0 0 8.06532e-15 -3.09041e-14 2.56511e-15 -2.87359e-14 0 0 -2.21857e-14 1.71926e-14 -4.26188e-14 -8.04736e-15 0 0 -2.18075e-14 1.24803e-14 -3.82052e-14 -1.50642e-14 0 0 5.95899e-16 -1.86402e-14 -2.97448e-14 -1.73084e-14 0 0 8.31835e-15 -4.1354e-14 -5.85942e-15 -3.84354e-14 0 0 -9.91566e-15 -2.75724e-14 -1.21911e-15 -5.21912e-14 0 0 -1.21911e-14 -3.14284e-14 -2.71394e-15 -3.10018e-14 0 0 -1.64076e-14 -4.46597e-14 1.07303e-14 -4.32848e-15 0 0 -3.67373e-14 -2.74775e-14 -1.41739e-14 4.33792e-14 0 0 -3.81899e-14 -2.62443e-14 -2.76641e-14 7.4746e-14 0 0 -2.98553e-14 -3.63015e-14 -1.14623e-14 5.09102e-14 0 0 -4.32981e-14 -2.69192e-14 -3.04525e-15 1.79185e-14 0 0 -3.26511e-14 -6.00441e-14 4.82067e-14 -2.56637e-14 0 0 -3.32895e-14 -6.29862e-14 3.87774e-14 -1.16864e-14 0 0 -4.26992e-14 -3.35121e-14 -8.87352e-15 3.2661e-14 0 0 -2.4914e-14 -3.00116e-14 4.40147e-15 8.98123e-15 0 0 -7.37238e-15 -4.55995e-14 3.55396e-14 -3.02553e-14 0 0 3.33156e-14 -1.04108e-13 1.24705e-13 -1.12005e-13 0 0 -3.47455e-14 1.08553e-14 4.14401e-14 -1.0109e-13 0 0 -6.19964e-14 7.42621e-14 -8.06411e-14 -9.98432e-15 0 0 -5.98505e-15 -5.97478e-15 -8.41691e-14 3.12488e-14 0 0 3.38488e-15 -4.81072e-14 -2.47915e-14 -3.8505e-14 0 0 1.01451e-14 -8.0973e-14 3.72725e-14 -9.05676e-14 0 0 2.02404e-16 -8.1375e-14 3.15042e-14 -5.96555e-14 0 0 -3.83969e-14 -3.38158e-14 -1.5467e-14 -2.09031e-14 0 0 -2.41859e-14 -4.66832e-14 -4.64626e-14 3.60217e-14 0 0 -3.75923e-14 -1.35866e-14 -8.71112e-14 7.38256e-14 0 0 -4.57102e-14 1.01631e-14 -7.18003e-14 4.16812e-14 0 0 3.86603e-14 -1.06843e-13 7.0344e-14 -8.4696e-14 0 0 3.47311e-14 -8.2925e-14 1.98084e-14 -5.32733e-14 0 0 1.76515e-14 -2.2548e-14 -7.51378e-14 1.58378e-14 0 0 1.66049e-14 8.68955e-15 -9.08421e-14 -4.5336e-15 0 0 6.09071e-15 2.49209e-14 -6.17407e-14 -4.53784e-14 0 0 7.59687e-14 -7.63106e-14 7.68151e-14 -1.53111e-13 0 0 2.56551e-14 1.28899e-14 -1.55706e-14 -7.85269e-14 0 0 -4.66947e-14 1.05309e-13 -1.08178e-13 8.83436e-15 0 0 -1.32837e-14 5.26071e-14 -5.56374e-14 -3.86607e-14 0 0 6.89757e-15 3.04227e-15 1.43318e-14 -1.27544e-13 0 0 2.32688e-14 -1.63092e-14 1.73993e-14 -1.50239e-13 0 0 2.68523e-14 2.04454e-14 -3.45547e-14 -1.37051e-13 0 0 -2.9467e-15 7.22519e-14 -6.0852e-14 -1.33715e-13 0 0 -6.66654e-14 1.77283e-13 -1.80587e-13 -2.43273e-14 0 0 -1.00266e-13 1.95691e-13 -1.51015e-13 -4.09528e-14 0 0 -1.5428e-13 1.90884e-13 -5.47104e-14 -8.30276e-14 0 0 -1.18537e-13 1.01563e-13 3.0259e-15 -2.46495e-14 0 0 -1.27931e-13 1.02379e-13 -1.85119e-14 4.67522e-14 0 0 -1.52682e-13 1.05796e-13 -1.89851e-14 6.53754e-14 0 0 -1.10496e-13 2.93958e-14 4.60745e-14 -1.88611e-14 0 0 -1.30154e-13 9.80564e-14 -2.0312e-14 -8.2873e-14 0 0 -1.13267e-13 1.51002e-13 -1.42514e-13 -8.24102e-14 0 0 -4.9738e-14 1.41377e-13 -2.32079e-13 -3.13406e-14 0 0 3.33051e-14 4.66714e-14 -1.46935e-13 -8.63555e-14 0 0 1.14926e-13 -1.42735e-13 2.44336e-14 -1.39779e-13 0 0 3.84449e-14 -9.83764e-14 -5.04654e-14 -4.82804e-14 0 0 -5.20653e-14 8.87888e-14 -2.65721e-13 -1.54854e-15 0 0 1.62953e-14 7.79226e-14 -3.16051e-13 -3.9883e-14 0 0 1.13072e-13 3.08945e-14 -2.87098e-13 -1.03357e-13 0 0 2.02048e-13 -2.93177e-14 -2.55411e-13 -1.42502e-13 0 0 9.65166e-14 1.12087e-13 -3.52362e-13 -7.35203e-14 0 0 8.78566e-14 8.86482e-14 -2.60258e-13 -1.11013e-13 0 0 1.55836e-13 -9.50163e-14 -6.59043e-14 -1.70908e-13 0 0 5.89965e-14 -2.83971e-14 -6.93612e-14 -1.69949e-13 0 0 -9.05345e-14 1.53215e-13 -1.96941e-13 -1.70091e-13 0 0 -1.14213e-13 3.24747e-13 -3.99563e-13 -9.7303e-14 0 0 -2.67248e-14 1.58832e-13 -2.16925e-13 -2.16935e-13 0 0 7.74733e-14 -2.11415e-14 1.1264e-13 -4.60013e-13 0 0 6.64613e-14 1.58496e-13 2.16929e-13 -3.30675e-13 0 0 2.16349e-13 6.38563e-13 4.81534e-13 4.17334e-14 0 0 7.31127e-13 1.58341e-12 1.31703e-12 8.58104e-13 0 0 2.03189e-12 3.58949e-12 3.4274e-12 2.29655e-12 0 0 4.79926e-12 7.75051e-12 7.91983e-12 5.00361e-12 0 0 9.83641e-12 1.57109e-11 1.62117e-11 1e-11 0 0 1.72696e-11 2.84308e-11 2.86364e-11 1.78318e-11 0 0 2.35083e-11 3.93792e-11 3.97274e-11 2.49283e-11 0 0 7.03548e-12 1.35885e-11 1.50012e-11 1.00893e-11 0 0 -8.25668e-11 -1.29557e-10 -1.25697e-10 -7.57647e-11 0 0 -3.94247e-10 -6.30133e-10 -6.21244e-10 -3.79637e-10 0 0 -1.27774e-09 -2.05245e-09 -2.03415e-09 -1.24824e-09 0 0 -3.50143e-09 -5.6394e-09 -5.6071e-09 -3.4494e-09 0 0 -8.64196e-09 -1.39481e-08 -1.39047e-08 -8.57188e-09 0 0 -1.97399e-08 -3.19264e-08 -3.19088e-08 -1.9712e-08 0 0 -4.25149e-08 -6.86263e-08 -6.9001e-08 -4.25869e-08 0 0 -8.60954e-08 -1.42232e-07 -1.404e-07 -8.87082e-08 0 0 -1.71648e-07 -2.72813e-07 -2.84202e-07 -1.70088e-07 0 0 -3.16629e-07 -5.19327e-07 -5.10949e-07 -3.36396e-07 0 0 -5.52567e-07 -9.51169e-07 -9.80064e-07 -5.76926e-07 0 0 -1.0242e-06 -1.55084e-06 -1.598e-06 -1.07869e-06 0 0 -1.56846e-06 -2.827e-06 -2.88909e-06 -1.69499e-06 0 0 -2.69982e-06 -4.22062e-06 -4.39983e-06 -2.99323e-06 0 0 -4.03989e-06 -6.88346e-06 -7.05749e-06 -4.3793e-06 0 0 -5.99342e-06 -1.05522e-05 -1.12412e-05 -7.11104e-06 0 0 -9.26726e-06 -1.48905e-05 -1.55196e-05 -1.01791e-05 0 0 -1.24052e-05 -2.13748e-05 -2.30324e-05 -1.4806e-05 0 0 -1.7796e-05 -3.07762e-05 -3.20842e-05 -2.08109e-05 0 0 -2.37833e-05 -4.00569e-05 -4.26042e-05 -2.73776e-05 0 0 -3.07437e-05 -5.18457e-05 -5.49098e-05 -3.53775e-05 0 0 -3.95084e-05 -6.60289e-05 -6.81801e-05 -4.32866e-05 0 0 -4.9136e-05 -8.00854e-05 -8.06576e-05 -5.02497e-05 0 0 -5.83621e-05 -9.29977e-05 -9.1194e-05 -5.55445e-05 0 0 -6.69326e-05 -0.000104474 -9.97332e-05 -5.93165e-05 0 0 -7.49903e-05 -0.000114812 -0.000106819 -6.20394e-05 0 0 -8.25634e-05 -0.000124326 -0.000112998 -6.42284e-05 0 0 -8.97804e-05 -0.000133485 -0.000118758 -6.63921e-05 0 0 -9.68811e-05 -0.000142592 -0.000125238 -6.86509e-05 0 0 -0.000104513 -0.000152202 -0.000133818 -7.21323e-05 0 0 -0.000112238 -0.000163472 -0.000142591 -7.67829e-05 0 0 -0.000121362 -0.000177907 -0.000152572 -8.40201e-05 0 0 -0.000136822 -0.000200972 -0.000172391 -9.40495e-05 0 0 -0.00015791 -0.000231658 -0.000197849 -0.000104585 0 0 -0.000179066 -0.000262271 -0.000222547 -0.000117769 0 0 -0.000198047 -0.000289559 -0.000260386 -0.000137303 0 0 -0.000228758 -0.00034441 -0.000313303 -0.000164699 0 0 -0.000273255 -0.000426374 -0.000380139 -0.000195824 0 0 -0.000329138 -0.000509445 -0.000446818 -0.000232845 0 0 -0.000397921 -0.000583146 -0.000504392 -0.000279456 0 0 -0.000486215 -0.000683849 -0.000586873 -0.000330008 0 0 -0.000605042 -0.000848752 -0.000691836 -0.000333989 0 0 -0.000734169 -0.00108835 -0.000797913 -0.000296855 0 0 -0.000864551 -0.00135691 -0.000874901 -0.000136893 0 0 -0.000909759 -0.00143095 -0.000879374 -2.18108e-05 0 0 -0.000896147 -0.00137857 -0.000849882 -5.57734e-05 0 0 -0.00084543 -0.00118761 -0.00073795 -0.000180243 0 0 -0.000706151 -0.000895075 -0.000584402 -0.000461503 0 0 -0.000568898 -0.000663355 -0.000570872 -0.000692393 0 0 -0.000414263 -0.000439685 -0.000549657 -0.000751413 0 0 0.000121684 0.000354186 -0.000276525 -0.000724128 0 0 0.00093858 0.00154483 0.000630791 -0.000489441 0 0 0.00104841 0.00169881 0.00108577 -6.95301e-05 0 0 0.00101785 0.00162993 0.00108962 0.00030318 0 0 0.000915301 0.00139218 0.00104508 0.000388211 0 0 0.000775756 0.00113313 0.000895446 0.000384046 0 0 0.000644775 0.000913081 0.000735911 0.000352582 0 0 0.000530419 0.000743228 0.000601367 0.00029906 0 0 0.000436848 0.000617437 0.000500302 0.000251874 0 0 0.000362671 0.000522665 0.000428542 0.000216462 0 0 0.000303257 0.000446111 0.000375262 0.000192417 0 0 0.000256574 0.000383111 0.000332779 0.000176092 0 0 0.000222209 0.000334821 0.000299386 0.000164269 0 0 0.000194184 0.000295365 0.000270868 0.000153464 0 0 0.000166741 0.00025733 0.000242529 0.000141798 0 0 0.000142028 0.000223126 0.000216079 0.000130327 0 0 0.000125072 0.000199214 0.000196138 0.000120313 0 0 0.000116261 0.000186115 0.000183837 0.000112792 0 0 0.000110115 0.000176385 0.000174166 0.000106562 0 0 0.00010175 0.000163246 0.000161509 9.89428e-05 0 0 9.12249e-05 0.000146619 0.000145362 8.91914e-05 0 0 7.83589e-05 0.000126119 0.000125256 7.69625e-05 0 0 6.33464e-05 0.000102072 0.000101521 6.24555e-05 0 0 4.72151e-05 7.61522e-05 7.58373e-05 4.6706e-05 0 0 3.16329e-05 5.10639e-05 5.09114e-05 3.13864e-05 0 0 1.85992e-05 3.00435e-05 2.99797e-05 1.8496e-05 0 0 9.38854e-06 1.51735e-05 1.51517e-05 9.35326e-06 0 0 4.05488e-06 6.55615e-06 6.55021e-06 4.04527e-06 0 0 1.54216e-06 2.4942e-06 2.49286e-06 1.54001e-06 0 0 5.39574e-07 8.72853e-07 8.7261e-07 5.39181e-07 0 0 1.80413e-07 2.91884e-07 2.91848e-07 1.80354e-07 0 0 5.88273e-08 9.51814e-08 9.51781e-08 5.88213e-08 0 0 1.88746e-08 3.05401e-08 3.05401e-08 1.88751e-08 0 0 5.97968e-09 9.67576e-09 9.67595e-09 5.98051e-09 0 0 1.87291e-09 3.03045e-09 3.03094e-09 1.87321e-09 0 0 5.80028e-10 9.38745e-10 9.38929e-10 5.80309e-10 0 0 1.77585e-10 2.876e-10 2.87587e-10 1.77951e-10 0 0 5.36952e-11 8.70441e-11 8.72134e-11 5.39722e-11 0 0 1.59654e-11 2.60123e-11 2.62509e-11 1.61781e-11 0 0 4.60167e-12 7.70267e-12 7.90296e-12 4.77246e-12 0 0 1.23829e-12 2.229e-12 2.43533e-12 1.42662e-12 0 0 4.09962e-13 4.46698e-13 9.00933e-13 4.17789e-13 0 0 1.98525e-13 -4.84026e-14 4.13164e-13 2.13852e-13 0 0 1.20467e-14 -3.44953e-15 1.02579e-13 2.34005e-13 0 0 -6.34906e-14 1.09736e-13 -1.07822e-13 2.71928e-13 0 0 -6.95861e-14 1.52163e-13 -1.73645e-13 3.14653e-13 0 0 -2.08193e-14 9.20014e-14 -1.03462e-13 2.46453e-13 0 0 7.01415e-15 7.00624e-14 -2.4091e-14 1.31492e-13 0 0 3.58041e-17 4.86223e-16 1.37095e-13 6.44936e-14 0 0 1.08251e-14 -1.64837e-13 3.15872e-13 1.45304e-13 0 0 -5.206e-14 -1.49741e-13 3.07655e-13 1.85984e-13 0 0 8.97122e-14 -1.75122e-13 1.75181e-13 2.44064e-13 0 0 1.64419e-13 -2.88977e-14 -9.59789e-14 3.75037e-13 0 0 1.09224e-13 1.38131e-13 -2.19565e-13 3.92549e-13 0 0 6.83152e-14 1.33844e-13 3.09715e-14 5.80853e-14 0 0 -5.77446e-14 1.73439e-13 2.61246e-13 -2.49095e-13 0 0 9.03284e-14 -4.088e-14 4.07603e-13 -2.51511e-13 0 0 3.01746e-13 -2.10152e-13 2.21209e-13 2.96376e-14 0 0 2.69416e-13 4.24808e-14 -2.45067e-13 3.36756e-13 0 0 1.81534e-13 2.17139e-13 -4.62166e-13 3.81305e-13 0 0 1.94391e-13 1.07417e-13 -3.73902e-13 2.48042e-13 0 0 2.45607e-13 2.75629e-14 -1.92201e-13 3.27918e-14 0 0 2.21937e-13 1.04065e-13 -3.46269e-13 1.52514e-13 0 0 2.81483e-13 4.72036e-14 -4.48051e-13 3.77266e-13 0 0 4.37418e-13 -3.21513e-13 6.83163e-14 4.49045e-14 0 0 2.92885e-13 -2.14023e-13 9.1401e-14 -5.57114e-14 0 0 3.60517e-13 -2.25469e-13 -1.42482e-13 2.40849e-13 0 0 6.05439e-13 -5.14801e-13 -5.59963e-14 3.19171e-13 0
				</DataArray>
				<DataArray Name="VitesseY" type="Float32" format="ascii">