<?xml version="1.0"?>
<VTKFile type="PolyData">
	<PolyData>
		<Piece NumberOfPoints="1206" NumberOfPolys="1000">
			<Points>
				<DataArray type="Float32" NumberOfComponents="3" format="ascii">
 0 0 0 0.02 0 0 0.04 0 0 0.06 0 0 0.08 0 0 0.1 0 0 0 0.005 0 0.02 0.005 0 0.04 0.005 0 0.06 0.005 0 0.08 0.005 0 0.1 0.005 0 0 0.01 0 0.02 0.01 0 0.04 0.01 0 0.06 0.01 0 0.08 0.01 0 0.1 0.01 0 0 0.015 0 0.02 0.015 0 0.04 0.015 0 0.06 0.015 0 0.08 0.015 0 0.1 0.015 0 0 0.02 0 0.02 0.02 0 0.04 0.02 0 0.06 0.02 0 0.08 0.02 0 0.1 0.02 0 0 0.025 0 0.02 0.025 0 0.04 0.025 0 0.06 0.025 0 0.08 0.025 0 0.1 0.025 0 0 0.03 0 0.02 0.03 0 0.04 0.03 0 0.06 0.03 0 0.08 0.03 0 0.1 0.03 0 0 0.035 0 0.02 0.035 0 0.04 0.035 0 0.06 0.035 0 0.08 0.035 0 0.1 0.035 0 0 0.04 0 0.02 0.04 0 0.04 0.04 0 0.06 0.04 0 0.08 0.04 0 0.1 0.04 0 0 0.045 0 0.02 0.045 0 0.04 0.045 0 0.06 0.045 0 0.08 0.045 0 0.1 0.045 0 0 0.05 0 0.02 0.05 0 0.04 0.05 0 0.06 0.05 0 0.08 0.05 0 0.1 0.05 0 0 0.055 0 0.02 0.055 0 0.04 0.055 0 0.06 0.055 0 0.08 0.055 0 0.1 0.055 0 0 0.06 0 0.02 0.06 0 0.04 0.06 0 0.06 0.06 0 0.08 0.06 0 0.1 0.06 0 0 0.065 0 0.02 0.065 0 0.04 0.065 0 0.06 0.065 0 0.08 0.065 0 0.1 0.065 0 0 0.07 0 0.02 0.07 0 0.04 0.07 0 0.06 0.07 0 0.08 0.07 0 0.1 0.07 0 0 0.075 0 0.02 0.075 0 0.04 0.075 0 0.06 0.075 0 0.08 0.075 0 0.1 0.075 0 0 0.08 0 0.02 0.08 0 0.04 0.08 0 0.06 0.08 0 0.08 0.08 0 0.1 0.08 0 0 0.085 0 0.02 0.085 0 0.04 0.085 0 0.06 0.085 0 0.08 0.085 0 0.1 0.085 0 0 0.09 0 0.02 0.09 0 0.04 0.09 0 0.06 0.09 0 0.08 0.09 0 0.1 0.09 0 0 0.095 0 0.02 0.095 0 0.04 0.095 0 0.06 0.095 0 0.08 0.095 0 0.1 0.095 0 0 0.1 0 0.02 0.1 0 0.04 0.1 0 0.06 0.1 0 0.08 0.1 0 0.1 0.1 0 0 0.105 0 0.02 0.105 0 0.04 0.105 0 0.06 0.105 0 0.08 0.105 0 0.1 0.105 0 0 0.11 0 0.02 0.11 0 0.04 0.11 0 0.06 0.11 0 0.08 0.11 0 0.1 0.11 0 0 0.115 0 0.02 0.115 0 0.04 0.115 0 0.06 0.115 0 0.08 0.115 0 0.1 0.115 0 0 0.12 0 0.02 0.12 0 0.04 0.12 0 0.06 0.12 0 0.08 0.12 0 0.1 0.12 0 0 0.125 0 0.02 0.125 0 0.04 0.125 0 0.06 0.125 0 0.08 0.125 0 0.1 0.125 0 0 0.13 0 0.02 0.13 0 0.04 0.13 0 0.06 0.13 0 0.08 0.13 0 0.1 0.13 0 0 0.135 0 0.02 0.135 0 0.04 0.135 0 0.06 0.135 0 0.08 0.135 0 0.1 0.135 0 0 0.14 0 0.02 0.14 0 0.04 0.14 0 0.06 0.14 0 0.08 0.14 0 0.1 0.14 0 0 0.145 0 0.02 0.145 0 0.04 0.145 0 0.06 0.145 0 0.08 0.145 0 0.1 0.145 0 0 0.15 0 0.02 0.15 0 0.04 0.15 0 0.06 0.15 0 0.08 0.15 0 0.1 0.15 0 0 0.155 0 0.02 0.155 0 0.04 0.155 0 0.06 0.155 0 0.08 0.155 0 0.1 0.155 0 0 0.16 0 0.02 0.16 0 0.04 0.16 0 0.06 0.16 0 0.08 0.16 0 0.1 0.16 0 0 0.165 0 0.02 0.165 0 0.04 0.165 0 0.06 0.165 0 0.08 0.165 0 0.1 0.165 0 0 0.17 0 0.02 0.17 0 0.04 0.17 0 0.06 0.17 0 0.08 0.17 0 0.1 0.17 0 0 0.175 0 0.02 0.175 0 0.04 0.175 0 0.06 0.175 0 0.08 0.175 0 0.1 0.175 0 0 0.18 0 0.02 0.18 0 0.04 0.18 0 0.06 0.18 0 0.08 0.18 0 0.1 0.18 0 0 0.185 0 0.02 0.185 0 0.04 0.185 0 0.06 0.185 0 0.08 0.185 0 0.1 0.185 0 0 0.19 0 0.02 0.19 0 0.04 0.19 0 0.06 0.19 0 0.08 0.19 0 0.1 0.19 0 0 0.195 0 0.02 0.195 0 0.04 0.195 0 0.06 0.195 0 0.08 0.195 0 0.1 0.195 0 0 0.2 0 0.02 0.2 0 0.04 0.2 0 0.06 0.2 0 0.08 0.2 0 0.1 0.2 0 0 0.205 0 0.02 0.205 0 0.04 0.205 0 0.06 0.205 0 0.08 0.205 0 0.1 0.205 0 0 0.21 0 0.02 0.21 0 0.04 0.21 0 0.06 0.21 0 0.08 0.21 0 0.1 0.21 0 0 0.215 0 0.02 0.215 0 0.04 0.215 0 0.06 0.215 0 0.08 0.215 0 0.1 0.215 0 0 0.22 0 0.02 0.22 0 0.04 0.22 0 0.06 0.22 0 0.08 0.22 0 0.1 0.22 0 0 0.225 0 0.02 0.225 0 0.04 0.225 0 0.06 0.225 0 0.08 0.225 0 0.1 0.225 0 0 0.23 0 0.02 0.23 0 0.04 0.23 0 0.06 0.23 0 0.08 0.23 0 0.1 0.23 0 0 0.235 0 0.02 0.235 0 0.04 0.235 0 0.06 0.235 0 0.08 0.235 0 0.1 0.235 0 0 0.24 0 0.02 0.24 0 0.04 0.24 0 0.06 0.24 0 0.08 0.24 0 0.1 0.24 0 0 0.245 0 0.02 0.245 0 0.04 0.245 0 0.06 0.245 0 0.08 0.245 0 0.1 0.245 0 0 0.25 0 0.02 0.25 0 0.04 0.25 0 0.06 0.25 0 0.08 0.25 0 0.1 0.25 0 0 0.255 0 0.02 0.255 0 0.04 0.255 0 0.06 0.255 0 0.08 0.255 0 0.1 0.255 0 0 0.26 0 0.02 0.26 0 0.04 0.26 0 0.06 0.26 0 0.08 0.26 0 0.1 0.26 0 0 0.265 0 0.02 0.265 0 0.04 0.265 0 0.06 0.265 0 0.08 0.265 0 0.1 0.265 0 0 0.27 0 0.02 0.27 0 0.04 0.27 0 0.06 0.27 0 0.08 0.27 0 0.1 0.27 0 0 0.275 0 0.02 0.275 0 0.04 0.275 0 0.06 0.275 0 0.08 0.275 0 0.1 0.275 0 0 0.28 0 0.02 0.28 0 0.04 0.28 0 0.06 0.28 0 0.08 0.28 0 0.1 0.28 0 0 0.285 0 0.02 0.285 0 0.04 0.285 0 0.06 0.285 0 0.08 0.285 0 0.1 0.285 0 0 0.29 0 0.02 0.29 0 0.04 0.29 0 0.06 0.29 0 0.08 0.29 0 0.1 0.29 0 0 0.295 0 0.02 0.295 0 0.04 0.295 0 0.06 0.295 0 0.08 0.295 0 0.1 0.295 0 0 0.3 0 0.02 0.3 0 0.04 0.3 0 0.06 0.3 0 0.08 0.3 0 0.1 0.3 0 0 0.305 0 0.02 0.305 0 0.04 0.305 0 0.06 0.305 0 0.08 0.305 0 0.1 0.305 0 0 0.31 0 0.02 0.31 0 0.04 0.31 0 0.06 0.31 0 0.08 0.31 0 0.1 0.31 0 0 0.315 0 0.02 0.315 0 0.04 0.315 0 0.06 0.315 0 0.08 0.315 0 0.1 0.315 0 0 0.32 0 0.02 0.32 0 0.04 0.32 0 0.06 0.32 0 0.08 0.32 0 0.1 0.32 0 0 0.325 0 0.02 0.325 0 0.04 0.325 0 0.06 0.325 0 0.08 0.325 0 0.1 0.325 0 0 0.33 0 0.02 0.33 0 0.04 0.33 0 0.06 0.33 0 0.08 0.33 0 0.1 0.33 0 0 0.335 0 0.02 0.335 0 0.04 0.335 0 0.06 0.335 0 0.08 0.335 0 0.1 0.335 0 0 0.34 0 0.02 0.34 0 0.04 0.34 0 0.06 0.34 0 0.08 0.34 0 0.1 0.34 0 0 0.345 0 0.02 0.345 0 0.04 0.345 0 0.06 0.345 0 0.08 0.345 0 0.1 0.345 0 0 0.35 0 0.02 0.35 0 0.04 0.35 0 0.06 0.35 0 0.08 0.35 0 0.1 0.35 0 0 0.355 0 0.02 0.355 0 0.04 0.355 0 0.06 0.355 0 0.08 0.355 0 0.1 0.355 0 0 0.36 0 0.02 0.36 0 0.04 0.36 0 0.06 0.36 0 0.08 0.36 0 0.1 0.36 0 0 0.365 0 0.02 0.365 0 0.04 0.365 0 0.06 0.365 0 0.08 0.365 0 0.1 0.365 0 0 0.37 0 0.02 0.37 0 0.04 0.37 0 0.06 0.37 0 0.08 0.37 0 0.1 0.37 0 0 0.375 0 0.02 0.375 0 0.04 0.375 0 0.06 0.375 0 0.08 0.375 0 0.1 0.375 0 0 0.38 0 0.02 0.38 0 0.04 0.38 0 0.06 0.38 0 0.08 0.38 0 0.1 0.38 0 0 0.385 0 0.02 0.385 0 0.04 0.385 0 0.06 0.385 0 0.08 0.385 0 0.1 0.385 0 0 0.39 0 0.02 0.39 0 0.04 0.39 0 0.06 0.39 0 0.08 0.39 0 0.1 0.39 0 0 0.395 0 0.02 0.395 0 0.04 0.395 0 0.06 0.395 0 0.08 0.395 0 0.1 0.395 0 0 0.4 0 0.02 0.4 0 0.04 0.4 0 0.06 0.4 0 0.08 0.4 0 0.1 0.4 0 0 0.405 0 0.02 0.405 0 0.04 0.405 0 0.06 0.405 0 0.08 0.405 0 0.1 0.405 0 0 0.41 0 0.02 0.41 0 0.04 0.41 0 0.06 0.41 0 0.08 0.41 0 0.1 0.41 0 0 0.415 0 0.02 0.415 0 0.04 0.415 0 0.06 0.415 0 0.08 0.415 0 0.1 0.415 0 0 0.42 0 0.02 0.42 0 0.04 0.42 0 0.06 0.42 0 0.08 0.42 0 0.1 0.42 0 0 0.425 0 0.02 0.425 0 0.04 0.425 0 0.06 0.425 0 0.08 0.425 0 0.1 0.425 0 0 0.43 0 0.02 0.43 0 0.04 0.43 0 0.06 0.43 0 0.08 0.43 0 0.1 0.43 0 0 0.435 0 0.02 0.435 0 0.04 0.435 0 0.06 0.435 0 0.08 0.435 0 0.1 0.435 0 0 0.44 0 0.02 0.44 0 0.04 0.44 0 0.06 0.44 0 0.08 0.44 0 0.1 0.44 0 0 0.445 0 0.02 0.445 0 0.04 0.445 0 0.06 0.445 0 0.08 0.445 0 0.1 0.445 0 0 0.45 0 0.02 0.45 0 0.04 0.45 0 0.06 0.45 0 0.08 0.45 0 0.1 0.45 0 0 0.455 0 0.02 0.455 0 0.04 0.455 0 0.06 0.455 0 0.08 0.455 0 0.1 0.455 0 0 0.46 0 0.02 0.46 0 0.04 0.46 0 0.06 0.46 0 0.08 0.46 0 0.1 0.46 0 0 0.465 0 0.02 0.465 0 0.04 0.465 0 0.06 0.465 0 0.08 0.465 0 0.1 0.465 0 0 0.47 0 0.02 0.47 0 0.04 0.47 0 0.06 0.47 0 0.08 0.47 0 0.1 0.47 0 0 0.475 0 0.02 0.475 0 0.04 0.475 0 0.06 0.475 0 0.08 0.475 0 0.1 0.475 0 0 0.48 0 0.02 0.48 0 0.04 0.48 0 0.06 0.48 0 0.08 0.48 0 0.1 0.48 0 0 0.485 0 0.02 0.485 0 0.04 0.485 0 0.06 0.485 0 0.08 0.485 0 0.1 0.485 0 0 0.49 0 0.02 0.49 0 0.04 0.49 0 0.06 0.49 0 0.08 0.49 0 0.1 0.49 0 0 0.495 0 0.02 0.495 0 0.04 0.495 0 0.06 0.495 0 0.08 0.495 0 0.1 0.495 0 0 0.5 0 0.02 0.5 0 0.04 0.5 0 0.06 0.5 0 0.08 0.5 0 0.1 0.5 0 0 0.505 0 0.02 0.505 0 0.04 0.505 0 0.06 0.505 0 0.08 0.505 0 0.1 0.505 0 0 0.51 0 0.02 0.51 0 0.04 0.51 0 0.06 0.51 0 0.08 0.51 0 0.1 0.51 0 0 0.515 0 0.02 0.515 0 0.04 0.515 0 0.06 0.515 0 0.08 0.515 0 0.1 0.515 0 0 0.52 0 0.02 0.52 0 0.04 0.52 0 0.06 0.52 0 0.08 0.52 0 0.1 0.52 0 0 0.525 0 0.02 0.525 0 0.04 0.525 0 0.06 0.525 0 0.08 0.525 0 0.1 0.525 0 0 0.53 0 0.02 0.53 0 0.04 0.53 0 0.06 0.53 0 0.08 0.53 0 0.1 0.53 0 0 0.535 0 0.02 0.535 0 0.04 0.535 0 0.06 0.535 0 0.08 0.535 0 0.1 0.535 0 0 0.54 0 0.02 0.54 0 0.04 0.54 0 0.06 0.54 0 0.08 0.54 0 0.1 0.54 0 0 0.545 0 0.02 0.545 0 0.04 0.545 0 0.06 0.545 0 0.08 0.545 0 0.1 0.545 0 0 0.55 0 0.02 0.55 0 0.04 0.55 0 0.06 0.55 0 0.08 0.55 0 0.1 0.55 0 0 0.555 0 0.02 0.555 0 0.04 0.555 0 0.06 0.555 0 0.08 0.555 0 0.1 0.555 0 0 0.56 0 0.02 0.56 0 0.04 0.56 0 0.06 0.56 0 0.08 0.56 0 0.1 0.56 0 0 0.565 0 0.02 0.565 0 0.04 0.565 0 0.06 0.565 0 0.08 0.565 0 0.1 0.565 0 0 0.57 0 0.02 0.57 0 0.04 0.57 0 0.06 0.57 0 0.08 0.57 0 0.1 0.57 0 0 0.575 0 0.02 0.575 0 0.04 0.575 0 0.06 0.575 0 0.08 0.575 0 0.1 0.575 0 0 0.58 0 0.02 0.58 0 0.04 0.58 0 0.06 0.58 0 0.08 0.58 0 0.1 0.58 0 0 0.585 0 0.02 0.585 0 0.04 0.585 0 0.06 0.585 0 0.08 0.585 0 0.1 0.585 0 0 0.59 0 0.02 0.59 0 0.04 0.59 0 0.06 0.59 0 0.08 0.59 0 0.1 0.59 0 0 0.595 0 0.02 0.595 0 0.04 0.595 0 0.06 0.595 0 0.08 0.595 0 0.1 0.595 0 0 0.6 0 0.02 0.6 0 0.04 0.6 0 0.06 0.6 0 0.08 0.6 0 0.1 0.6 0 0 0.605 0 0.02 0.605 0 0.04 0.605 0 0.06 0.605 0 0.08 0.605 0 0.1 0.605 0 0 0.61 0 0.02 0.61 0 0.04 0.61 0 0.06 0.61 0 0.08 0.61 0 0.1 0.61 0 0 0.615 0 0.02 0.615 0 0.04 0.615 0 0.06 0.615 0 0.08 0.615 0 0.1 0.615 0 0 0.62 0 0.02 0.62 0 0.04 0.62 0 0.06 0.62 0 0.08 0.62 0 0.1 0.62 0 0 0.625 0 0.02 0.625 0 0.04 0.625 0 0.06 0.625 0 0.08 0.625 0 0.1 0.625 0 0 0.63 0 0.02 0.63 0 0.04 0.63 0 0.06 0.63 0 0.08 0.63 0 0.1 0.63 0 0 0.635 0 0.02 0.635 0 0.04 0.635 0 0.06 0.635 0 0.08 0.635 0 0.1 0.635 0 0 0.64 0 0.02 0.64 0 0.04 0.64 0 0.06 0.64 0 0.08 0.64 0 0.1 0.64 0 0 0.645 0 0.02 0.645 0 0.04 0.645 0 0.06 0.645 0 0.08 0.645 0 0.1 0.645 0 0 0.65 0 0.02 0.65 0 0.04 0.65 0 0.06 0.65 0 0.08 0.65 0 0.1 0.65 0 0 0.655 0 0.02 0.655 0 0.04 0.655 0 0.06 0.655 0 0.08 0.655 0 0.1 0.655 0 0 0.66 0 0.02 0.66 0 0.04 0.66 0 0.06 0.66 0 0.08 0.66 0 0.1 0.66 0 0 0.665 0 0.02 0.665 0 0.04 0.665 0 0.06 0.665 0 0.08 0.665 0 0.1 0.665 0 0 0.67 0 0.02 0.67 0 0.04 0.67 0 0.06 0.67 0 0.08 0.67 0 0.1 0.67 0 0 0.675 0 0.02 0.675 0 0.04 0.675 0 0.06 0.675 0 0.08 0.675 0 0.1 0.675 0 0 0.68 0 0.02 0.68 0 0.04 0.68 0 0.06 0.68 0 0.08 0.68 0 0.1 0.68 0 0 0.685 0 0.02 0.685 0 0.04 0.685 0 0.06 0.685 0 0.08 0.685 0 0.1 0.685 0 0 0.69 0 0.02 0.69 0 0.04 0.69 0 0.06 0.69 0 0.08 0.69 0 0.1 
[...]
			<PointData Scalars="VitesseX">
				<DataArray Name="VitesseX" type="Float32" format="ascii">
 0 6.59675e-15 -1.15281e-14 1.94527e-14 2.23856e-14 0 0 1.36141e-16 -1.49087e-15 1.29894e-14 2.60179e-14 0 0 -6.43437e-15 8.54429e-15 1.27388e-14 2.68031e-14 0 0 -9.90457e-15 1.26252e-14 2.22883e-14 2.07555e-14 0 0 -1.6637e-14 2.44773e-14 1.9814e-14 2.34296e-14 0 0 -1.96354e-14 3.09274e-14 2.14755e-14 2.36746e-14 0 0 5.68121e-15 -4.35467e-15 6.3487e-14 -5.56585e-15 0 0 1.51125e-14 -1.52037e-14 7.66513e-14 -1.14686e-14 0 0 1.33134e-15 -1.03138e-15 6.59205e-14 6.63527e-15 0 0 -9.37104e-15 1.4294e-14 4.62162e-14 3.04408e-14 0 0 -9.86092e-15 2.0357e-14 3.13692e-14 4.39911e-14 0 0 7.66856e-15 -6.63002e-15 5.61289e-14 2.85755e-14 0 0 1.92358e-14 -2.08205e-14 7.72034e-14 1.096e-14 0 0 2.71033e-14 -1.88221e-14 7.20543e-14 1.31317e-14 0 0 2.10912e-14 1.20797e-14 2.83044e-14 4.12167e-14 0 0 1.28765e-14 4.19472e-14 1.41684e-14 2.84265e-14 0 0 2.44352e-14 2.4377e-14 5.27529e-14 -1.09288e-14 0 0 1.499e-14 2.52149e-14 5.61771e-14 -3.74187e-15 0 0 2.70187e-15 2.64681e-14 4.52456e-14 2.86204e-14 0 0 -5.14777e-15 3.54428e-14 2.34989e-14 5.01851e-14 0 0 -6.11745e-15 3.25407e-14 4.55474e-14 1.27515e-14 0 0 1.12002e-14 1.03996e-14 5.54733e-14 4.91845e-15 0 0 1.38936e-14 2.1509e-14 8.74072e-15 4.58082e-14 0 0 -2.65713e-14 9.06656e-14 -6.08305e-14 7.632e-14 0 0 5.41323e-16 3.40119e-14 7.7056e-15 2.28647e-14 0 0 4.31179e-14 -4.4531e-14 8.2806e-14 -5.17719e-15 0 0 -3.28102e-15 1.66018e-14 3.1507e-14 4.76533e-14 0 0 3.53196e-15 -1.1284e-14 7.55533e-14 4.22448e-14 0 0 3.46377e-15 -5.12565e-15 7.61187e-14 3.62499e-14 0 0 -3.26028e-14 7.25009e-14 8.17575e-15 8.30165e-14 0 0 1.41063e-14 2.91004e-14 4.67747e-14 9.08694e-14 0 0 2.31974e-14 3.76899e-14 6.42735e-14 5.88369e-14 0 0 -1.94728e-14 1.07233e-13 4.81674e-14 4.44027e-14 0 0 -2.21219e-14 1.18291e-13 4.23729e-14 6.23929e-14 0 0 8.67669e-14 -6.71243e-15 1.2038e-13 3.07114e-14 0 0 5.9433e-14 3.13266e-14 1.03976e-13 1.98335e-14 0 0 -2.98545e-14 1.34373e-13 1.53003e-14 9.08479e-14 0 0 3.30248e-14 1.68575e-14 9.46308e-14 1.11027e-13 0 0 -6.09434e-15 4.70314e-14 9.04934e-14 1.1409e-13 0 0 -4.96764e-15 2.92601e-14 1.05515e-13 9.06184e-14 0 0 3.25304e-14 -2.72133e-14 1.00877e-13 1.07237e-13 0 0 -2.02928e-14 7.26218e-14 2.08009e-15 1.10884e-13 0 0 -9.51771e-14 1.53385e-13 1.11937e-14 -5.36657e-16 0 0 -5.22049e-14 2.96868e-14 1.47306e-13 -9.27612e-14 0 0 1.33526e-15 -2.51038e-14 1.33034e-13 -5.06983e-14 0 0 -5.66065e-14 9.0833e-14 2.08878e-14 -3.98453e-15 0 0 -1.03575e-13 1.7598e-13 -6.205e-14 1.57997e-14 0 0 -3.60734e-14 1.2648e-13 -1.03598e-13 7.15816e-14 0 0 8.3415e-14 -2.78846e-14 9.20541e-15 3.74492e-14 0 0 1.31991e-13 -1.33975e-13 1.76606e-13 -5.34119e-14 0 0 1.73347e-13 -2.46989e-13 3.4044e-13 -1.32174e-13 0 0 1.2002e-13 -1.2078e-13 2.26997e-13 -9.44379e-14 0 0 1.01079e-14 1.35752e-13 -4.2879e-14 6.03175e-14 0 0 -5.24327e-14 2.20579e-13 -1.08633e-13 1.45376e-13 0 0 1.16546e-13 -6.87215e-14 1.97113e-13 -1.38432e-14 0 0 1.84774e-13 -1.53512e-13 2.72763e-13 -5.95863e-14 0 0 1.05775e-13 2.43019e-14 8.67778e-14 6.68336e-14 0 0 1.29425e-13 2.43361e-14 1.47325e-13 4.33805e-14 0 0 5.0189e-14 1.62918e-13 8.51103e-14 1.25406e-13 0 0 -1.39064e-14 2.36713e-13 7.85653e-14 1.67284e-13 0 0 7.97841e-14 9.81603e-14 2.33301e-13 1.11991e-13 0 0 6.97932e-14 1.09544e-13 2.43856e-13 1.44468e-13 0 0 -1.09792e-14 1.57538e-13 2.92459e-13 9.64602e-14 0 0 -3.08886e-14 1.73447e-13 3.15518e-13 9.03068e-14 0 0 -1.66389e-14 1.95631e-13 2.83234e-13 1.31793e-13 0 0 9.01196e-14 3.74336e-14 4.46157e-13 4.72717e-14 0 0 -1.15787e-13 3.00109e-13 2.23967e-13 2.01092e-13 0 0 -1.43954e-13 2.10158e-13 3.00411e-13 1.65102e-13 0 0 6.9052e-16 -2.74499e-13 5.05552e-13 -6.50005e-14 0 0 -6.60067e-13 -7.67621e-13 -6.20052e-13 -3.19919e-13 0 0 -3.36029e-12 -4.89012e-12 -5.02926e-12 -2.86904e-12 0 0 -1.53944e-11 -2.46727e-11 -2.48396e-11 -1.50482e-11 0 0 -6.41257e-11 -1.0456e-10 -1.04182e-10 -6.43604e-11 0 0 -2.38115e-10 -3.86092e-10 -3.85883e-10 -2.38654e-10 0 0 -7.88633e-10 -1.27632e-09 -1.27708e-09 -7.89527e-10 0 0 -2.37524e-09 -3.84462e-09 -3.84694e-09 -2.37841e-09 0 0 -6.65804e-09 -1.07784e-08 -1.07861e-08 -6.66953e-09 0 0 -1.77546e-08 -2.87505e-08 -2.87782e-08 -1.78003e-08 0 0 -4.58624e-08 -7.43116e-08 -7.44398e-08 -4.60713e-08 0 0 -1.12865e-07 -1.83128e-07 -1.83756e-07 -1.13882e-07 0 0 -2.51652e-07 -4.09093e-07 -4.11455e-07 -2.55477e-07 0 0 -5.07856e-07 -8.2779e-07 -8.35283e-07 -5.19981e-07 0 0 -9.42224e-07 -1.54106e-06 -1.56146e-06 -9.75239e-07 0 0 -1.63779e-06 -2.68969e-06 -2.7388e-06 -1.71717e-06 0 0 -2.70165e-06 -4.45862e-06 -4.56628e-06 -2.87638e-06 0 0 -4.26587e-06 -7.07652e-06 -7.29251e-06 -4.61252e-06 0 0 -6.48121e-06 -1.08264e-05 -1.12464e-05 -7.17166e-06 0 0 -9.52008e-06 -1.59746e-05 -1.66635e-05 -1.06068e-05 0 0 -1.35463e-05 -2.29543e-05 -2.43402e-05 -1.58147e-05 0 0 -1.87078e-05 -3.18393e-05 -3.33838e-05 -2.13473e-05 0 0 -2.52666e-05 -4.31074e-05 -4.68658e-05 -3.06206e-05 0 0 -3.29671e-05 -5.74235e-05 -6.07699e-05 -3.94309e-05 0 0 -4.26339e-05 -7.25266e-05 -7.87101e-05 -5.19901e-05 0 0 -5.31907e-05 -9.3087e-05 -0.000100928 -6.60494e-05 0 0 -6.60316e-05 -0.000114033 -0.000122475 -7.99144e-05 0 0 -7.91978e-05 -0.000136198 -0.000146687 -9.60213e-05 0 0 -9.52766e-05 -0.000162236 -0.000172798 -0.000112072 0 0 -0.000111209 -0.000189009 -0.000198206 -0.000127005 0 0 -0.000129101 -0.000215113 -0.000221432 -0.000139566 0 0 -0.000148044 -0.00024057 -0.000241359 -0.000148796 0 0 -0.000166969 -0.000265866 -0.000257473 -0.000154129 0 0 -0.000189766 -0.000290813 -0.00026944 -0.000156055 0 0 -0.000212679 -0.000314914 -0.000276772 -0.000152945 0 0 -0.000236259 -0.000337655 -0.000280908 -0.000144821 0 0 -0.000263112 -0.000358656 -0.000278482 -0.000131299 0 0 -0.000289373 -0.000378319 -0.000275383 -0.000119527 0 0 -0.000312346 -0.000396751 -0.000277987 -0.000116971 0 0 -0.000334248 -0.000414436 -0.000288894 -0.000123043 0 0 -0.00035738 -0.000453822 -0.000314125 -0.000140936 0 0 -0.000382142 -0.000502361 -0.000362418 -0.000166949 0 0 -0.000422808 -0.000545933 -0.000415578 -0.00019242 0 0 -0.000480138 -0.000592697 -0.000461054 -0.000239049 0 0 -0.000546004 -0.00068807 -0.000526765 -0.000299828 0 0 -0.000613117 -0.000829411 -0.000649701 -0.000366073 0 0 -0.000678357 -0.000989225 -0.000817204 -0.000395089 0 0 -0.000736704 -0.0011492 -0.00101308 -0.000386704 0 0 -0.00079666 -0.00131405 -0.00112419 -0.000326068 0 0 -0.000925109 -0.00149541 -0.00111422 -0.000123719 0 0 -0.00111976 -0.00168599 -0.00105552 9.9333e-05 0 0 -0.00125956 -0.00179752 -0.00101152 0.000195963 0 0 -0.00124842 -0.00176296 -0.000963555 0.000178661 0 0 -0.00118159 -0.00156534 -0.000760227 7.13386e-05 0 0 -0.000978794 -0.00120629 -0.000601538 -0.000220495 0 0 -0.000721072 -0.000968027 -0.000672296 -0.000288751 0 0 -0.000534145 -0.000843967 -0.000830002 -0.00033352 0 0 -8.0131e-05 -0.000328761 -0.000710788 -0.000603079 0 0 0.00112676 0.00168689 0.000376273 -0.00078912 0 0 0.00159345 0.00268918 0.00153565 -0.000628643 0 0 0.00156671 0.00263816 0.00168188 -0.000129295 0 0 0.00144391 0.00236443 0.00165905 0.000379885 0 0 0.00125325 0.0019592 0.00151674 0.000558363 0 0 0.00108113 0.00161313 0.00129427 0.000570131 0 0 0.000938527 0.00135026 0.00110304 0.000568314 0 0 0.000816084 0.0011451 0.000960342 0.000566451 0 0 0.000702284 0.000980007 0.000865057 0.000552527 0 0 0.00060089 0.000861498 0.000802155 0.000504251 0 0 0.00052375 0.000784843 0.00074586 0.000451418 0 0 0.000467754 0.000718675 0.000679965 0.000405992 0 0 0.000414318 0.000639025 0.000607304 0.000363486 0 0 0.000353466 0.00054965 0.000525713 0.000314938 0 0 0.000287872 0.000450983 0.000434077 0.000260575 0 0 0.00021958 0.000346153 0.00033525 0.000201972 0 0 0.000152968 0.00024254 0.000236445 0.00014311 0 0 9.50302e-05 0.000151359 0.000148395 9.0234e-05 0 0 5.1351e-05 8.21214e-05 8.09278e-05 4.942e-05 0 0 2.36706e-05 3.79909e-05 3.76091e-05 2.3053e-05 0 0 9.39659e-06 1.51236e-05 1.50244e-05 9.23601e-06 0 0 3.34056e-06 5.38764e-06 5.36601e-06 3.30557e-06 0 0 1.11239e-06 1.79652e-06 1.79235e-06 1.10565e-06 0 0 3.58041e-07 5.78725e-07 5.77987e-07 3.56847e-07 0 0 1.13001e-07 1.82741e-07 1.8262e-07 1.12804e-07 0 0 3.51649e-08 5.68831e-08 5.68651e-08 3.51353e-08 0 0 1.08084e-08 1.74863e-08 1.74844e-08 1.08045e-08 0 0 3.28214e-09 5.31037e-09 5.31059e-09 3.28186e-09 0 0 9.84445e-10 1.59317e-09 1.59321e-09 9.84715e-10 0 0 2.91617e-10 4.72209e-10 4.72161e-10 2.91984e-10 0 0 8.53911e-11 1.38407e-10 1.38337e-10 8.58306e-11 0 0 2.4832e-11 4.03081e-11 4.03247e-11 2.50805e-11 0 0 7.24231e-12 1.19347e-11 1.19327e-11 7.41465e-12 0 0 2.24851e-12 3.77865e-12 3.94853e-12 2.16082e-12 0 0 9.34521e-13 1.43912e-12 1.66192e-12 7.03174e-13 0 0 6.45697e-13 7.94155e-13 9.54118e-13 3.86471e-13 0 0 5.76797e-13 6.23739e-13 8.08242e-13 2.37157e-13 0 0 5.02997e-13 6.72104e-13 5.90635e-13 3.39905e-13 0 0 4.78141e-13 6.84118e-13 5.28703e-13 3.55545e-13 0 0 4.78842e-13 6.75754e-13 5.54915e-13 3.14339e-13 0 0 5.16676e-13 6.0729e-13 5.76326e-13 3.44227e-13 0 0 4.63393e-13 6.21435e-13 5.797e-13 3.62832e-13 0 0 3.92719e-13 7.78016e-13 3.77201e-13 3.76705e-13 0 0 4.57755e-13 7.19624e-13 4.44608e-13 2.02152e-13 0 0 5.04243e-13 5.56156e-13 7.34938e-13 -5.56867e-14 0 0 5.27765e-13 5.11522e-13 6.74263e-13 6.67133e-14 0 0 4.68963e-13 6.57839e-13 4.72659e-13 2.15131e-13 0 0 4.21142e-13 8.1769e-13 2.52773e-13 3.28972e-13 0 0 4.39171e-13 7.3634e-13 3.00318e-13 3.51205e-13 0 0 4.55276e-13 5.69181e-13 5.21504e-13 3.03372e-13 0 0 5.45919e-13 3.45519e-13 7.61651e-13 2.38129e-13 0 0 5.22441e-13 3.34737e-13 8.41677e-13 1.58913e-13 0 0 2.55649e-13 7.62936e-13 3.53686e-13 4.57323e-13 0 0 3.61731e-13 5.46836e-13 5.06607e-13 4.75261e-13 0 0 4.82904e-13 3.79517e-13 7.61981e-13 3.43327e-13 0 0 2.86408e-13 7.25537e-13 5.0466e-13 4.5674e-13 0 0 4.32563e-13 4.10813e-13 7.2933e-13 3.93349e-13 0 0 3.89766e-13 3.18498e-13 8.09034e-13 4.15631e-13 0 0 2.56498e-13 4.39995e-13 7.35517e-13 5.10498e-13 0 0 1.99593e-13 4.55199e-13 7.34668e-13 5.01827e-13 0 0 9.42508e-14 5.10009e-13 6.89183e-13 5.1676e-13 0 0 1.48855e-13 3.69075e-13 7.08311e-13 5.27061e-13 0 0 9.99301e-15 6.21269e-13 3.3584e-13 7.8798e-13 0 0 8.33778e-14 5.55949e-13 4.18454e-13 6.29614e-13 0 0 1.72593e-13 4.45977e-13 5.94504e-13 3.43613e-13 0 0 2.9247e-14 7.35231e-13 3.12525e-13 5.8745e-13 0 0 1.4842e-13 4.46587e-13 7.2256e-13 4.18692e-13 0 0 1.33656e-13 3.59162e-13 9.5598e-13 2.0753e-13 0 0 1.16433e-14 5.4275e-13 9.20278e-13 7.07594e-14 0 0 -8.00842e-14 7.41871e-13 7.35588e-13 1.1994e-13 0 0 -4.27229e-14 8.18996e-13 5.60263e-13 2.28018e-13 0 0 2.74188e-13 3.97538e-13 1.01728e-12 -1.51329e-13 0 0 3.06739e-13 3.95528e-13 1.01055e-12 -1.70252e-13 0 0 1.32485e-13 6.71485e-13 7.85533e-13 -4.98556e-14 0 0 1.23163e-13 6.42385e-13 9.10491e-13 -1.72298e-13 0
				</DataArray>
				<DataArray Name="VitesseY" type="Float32" format="ascii">