<?xml version="1.0"?>
<VTKFile type="PolyData">
	<PolyData>
		<Piece NumberOfPoints="1206" NumberOfPolys="1000">
			<Points>
				<DataArray type="Float32" NumberOfComponents="3" format="ascii">
 0 0 0 0.02 0 0 0.04 0 0 0.06 0 0 0.08 0 0 0.1 0 0 0 0.005 0 0.02 0.005 0 0.04 0.005 0 0.06 0.005 0 0.08 0.005 0 0.1 0.005 0 0 0.01 0 0.02 0.01 0 0.04 0.01 0 0.06 0.01 0 0.08 0.01 0 0.1 0.01 0 0 0.015 0 0.02 0.015 0 0.04 0.015 0 0.06 0.015 0 0.08 0.015 0 0.1 0.015 0 0 0.02 0 0.02 0.02 0 0.04 0.02 0 0.06 0.02 0 0.08 0.02 0 0.1 0.02 0 0 0.025 0 0.02 0.025 0 0.04 0.025 0 0.06 0.025 0 0.08 0.025 0 0.1 0.025 0 0 0.03 0 0.02 0.03 0 0.04 0.03 0 0.06 0.03 0 0.08 0.03 0 0.1 0.03 0 0 0.035 0 0.02 0.035 0 0.04 0.035 0 0.06 0.035 0 0.08 0.035 0 0.1 0.035 0 0 0.04 0 0.02 0.04 0 0.04 0.04 0 0.06 0.04 0 0.08 0.04 0 0.1 0.04 0 0 0.045 0 0.02 0.045 0 0.04 0.045 0 0.06 0.045 0 0.08 0.045 0 0.1 0.045 0 0 0.05 0 0.02 0.05 0 0.04 0.05 0 0.06 0.05 0 0.08 0.05 0 0.1 0.05 0 0 0.055 0 0.02 0.055 0 0.04 0.055 0 0.06 0.055 0 0.08 0.055 0 0.1 0.055 0 0 0.06 0 0.02 0.06 0 0.04 0.06 0 0.06 0.06 0 0.08 0.06 0 0.1 0.06 0 0 0.065 0 0.02 0.065 0 0.04 0.065 0 0.06 0.065 0 0.08 0.065 0 0.1 0.065 0 0 0.07 0 0.02 0.07 0 0.04 0.07 0 0.06 0.07 0 0.08 0.07 0 0.1 0.07 0 0 0.075 0 0.02 0.075 0 0.04 0.075 0 0.06 0.075 0 0.08 0.075 0 0.1 0.075 0 0 0.08 0 0.02 0.08 0 0.04 0.08 0 0.06 0.08 0 0.08 0.08 0 0.1 0.08 0 0 0.085 0 0.02 0.085 0 0.04 0.085 0 0.06 0.085 0 0.08 0.085 0 0.1 0.085 0 0 0.09 0 0.02 0.09 0 0.04 0.09 0 0.06 0.09 0 0.08 0.09 0 0.1 0.09 0 0 0.095 0 0.02 0.095 0 0.04 0.095 0 0.06 0.095 0 0.08 0.095 0 0.1 0.095 0 0 0.1 0 0.02 0.1 0 0.04 0.1 0 0.06 0.1 0 0.08 0.1 0 0.1 0.1 0 0 0.105 0 0.02 0.105 0 0.04 0.105 0 0.06 0.105 0 0.08 0.105 0 0.1 0.105 0 0 0.11 0 0.02 0.11 0 0.04 0.11 0 0.06 0.11 0 0.08 0.11 0 0.1 0.11 0 0 0.115 0 0.02 0.115 0 0.04 0.115 0 0.06 0.115 0 0.08 0.115 0 0.1 0.115 0 0 0.12 0 0.02 0.12 0 0.04 0.12 0 0.06 0.12 0 0.08 0.12 0 0.1 0.12 0 0 0.125 0 0.02 0.125 0 0.04 0.125 0 0.06 0.125 0 0.08 0.125 0 0.1 0.125 0 0 0.13 0 0.02 0.13 0 0.04 0.13 0 0.06 0.13 0 0.08 0.13 0 0.1 0.13 0 0 0.135 0 0.02 0.135 0 0.04 0.135 0 0.06 0.135 0 0.08 0.135 0 0.1 0.135 0 0 0.14 0 0.02 0.14 0 0.04 0.14 0 0.06 0.14 0 0.08 0.14 0 0.1 0.14 0 0 0.145 0 0.02 0.145 0 0.04 0.145 0 0.06 0.145 0 0.08 0.145 0 0.1 0.145 0 0 0.15 0 0.02 0.15 0 0.04 0.15 0 0.06 0.15 0 0.08 0.15 0 0.1 0.15 0 0 0.155 0 0.02 0.155 0 0.04 0.155 0 0.06 0.155 0 0.08 0.155 0 0.1 0.155 0 0 0.16 0 0.02 0.16 0 0.04 0.16 0 0.06 0.16 0 0.08 0.16 0 0.1 0.16 0 0 0.165 0 0.02 0.165 0 0.04 0.165 0 0.06 0.165 0 0.08 0.165 0 0.1 0.165 0 0 0.17 0 0.02 0.17 0 0.04 0.17 0 0.06 0.17 0 0.08 0.17 0 0.1 0.17 0 0 0.175 0 0.02 0.175 0 0.04 0.175 0 0.06 0.175 0 0.08 0.175 0 0.1 0.175 0 0 0.18 0 0.02 0.18 0 0.04 0.18 0 0.06 0.18 0 0.08 0.18 0 0.1 0.18 0 0 0.185 0 0.02 0.185 0 0.04 0.185 0 0.06 0.185 0 0.08 0.185 0 0.1 0.185 0 0 0.19 0 0.02 0.19 0 0.04 0.19 0 0.06 0.19 0 0.08 0.19 0 0.1 0.19 0 0 0.195 0 0.02 0.195 0 0.04 0.195 0 0.06 0.195 0 0.08 0.195 0 0.1 0.195 0 0 0.2 0 0.02 0.2 0 0.04 0.2 0 0.06 0.2 0 0.08 0.2 0 0.1 0.2 0 0 0.205 0 0.02 0.205 0 0.04 0.205 0 0.06 0.205 0 0.08 0.205 0 0.1 0.205 0 0 0.21 0 0.02 0.21 0 0.04 0.21 0 0.06 0.21 0 0.08 0.21 0 0.1 0.21 0 0 0.215 0 0.02 0.215 0 0.04 0.215 0 0.06 0.215 0 0.08 0.215 0 0.1 0.215 0 0 0.22 0 0.02 0.22 0 0.04 0.22 0 0.06 0.22 0 0.08 0.22 0 0.1 0.22 0 0 0.225 0 0.02 0.225 0 0.04 0.225 0 0.06 0.225 0 0.08 0.225 0 0.1 0.225 0 0 0.23 0 0.02 0.23 0 0.04 0.23 0 0.06 0.23 0 0.08 0.23 0 0.1 0.23 0 0 0.235 0 0.02 0.235 0 0.04 0.235 0 0.06 0.235 0 0.08 0.235 0 0.1 0.235 0 0 0.24 0 0.02 0.24 0 0.04 0.24 0 0.06 0.24 0 0.08 0.24 0 0.1 0.24 0 0 0.245 0 0.02 0.245 0 0.04 0.245 0 0.06 0.245 0 0.08 0.245 0 0.1 0.245 0 0 0.25 0 0.02 0.25 0 0.04 0.25 0 0.06 0.25 0 0.08 0.25 0 0.1 0.25 0 0 0.255 0 0.02 0.255 0 0.04 0.255 0 0.06 0.255 0 0.08 0.255 0 0.1 0.255 0 0 0.26 0 0.02 0.26 0 0.04 0.26 0 0.06 0.26 0 0.08 0.26 0 0.1 0.26 0 0 0.265 0 0.02 0.265 0 0.04 0.265 0 0.06 0.265 0 0.08 0.265 0 0.1 0.265 0 0 0.27 0 0.02 0.27 0 0.04 0.27 0 0.06 0.27 0 0.08 0.27 0 0.1 0.27 0 0 0.275 0 0.02 0.275 0 0.04 0.275 0 0.06 0.275 0 0.08 0.275 0 0.1 0.275 0 0 0.28 0 0.02 0.28 0 0.04 0.28 0 0.06 0.28 0 0.08 0.28 0 0.1 0.28 0 0 0.285 0 0.02 0.285 0 0.04 0.285 0 0.06 0.285 0 0.08 0.285 0 0.1 0.285 0 0 0.29 0 0.02 0.29 0 0.04 0.29 0 0.06 0.29 0 0.08 0.29 0 0.1 0.29 0 0 0.295 0 0.02 0.295 0 0.04 0.295 0 0.06 0.295 0 0.08 0.295 0 0.1 0.295 0 0 0.3 0 0.02 0.3 0 0.04 0.3 0 0.06 0.3 0 0.08 0.3 0 0.1 0.3 0 0 0.305 0 0.02 0.305 0 0.04 0.305 0 0.06 0.305 0 0.08 0.305 0 0.1 0.305 0 0 0.31 0 0.02 0.31 0 0.04 0.31 0 0.06 0.31 0 0.08 0.31 0 0.1 0.31 0 0 0.315 0 0.02 0.315 0 0.04 0.315 0 0.06 0.315 0 0.08 0.315 0 0.1 0.315 0 0 0.32 0 0.02 0.32 0 0.04 0.32 0 0.06 0.32 0 0.08 0.32 0 0.1 0.32 0 0 0.325 0 0.02 0.325 0 0.04 0.325 0 0.06 0.325 0 0.08 0.325 0 0.1 0.325 0 0 0.33 0 0.02 0.33 0 0.04 0.33 0 0.06 0.33 0 0.08 0.33 0 0.1 0.33 0 0 0.335 0 0.02 0.335 0 0.04 0.335 0 0.06 0.335 0 0.08 0.335 0 0.1 0.335 0 0 0.34 0 0.02 0.34 0 0.04 0.34 0 0.06 0.34 0 0.08 0.34 0 0.1 0.34 0 0 0.345 0 0.02 0.345 0 0.04 0.345 0 0.06 0.345 0 0.08 0.345 0 0.1 0.345 0 0 0.35 0 0.02 0.35 0 0.04 0.35 0 0.06 0.35 0 0.08 0.35 0 0.1 0.35 0 0 0.355 0 0.02 0.355 0 0.04 0.355 0 0.06 0.355 0 0.08 0.355 0 0.1 0.355 0 0 0.36 0 0.02 0.36 0 0.04 0.36 0 0.06 0.36 0 0.08 0.36 0 0.1 0.36 0 0 0.365 0 0.02 0.365 0 0.04 0.365 0 0.06 0.365 0 0.08 0.365 0 0.1 0.365 0 0 0.37 0 0.02 0.37 0 0.04 0.37 0 0.06 0.37 0 0.08 0.37 0 0.1 0.37 0 0 0.375 0 0.02 0.375 0 0.04 0.375 0 0.06 0.375 0 0.08 0.375 0 0.1 0.375 0 0 0.38 0 0.02 0.38 0 0.04 0.38 0 0.06 0.38 0 0.08 0.38 0 0.1 0.38 0 0 0.385 0 0.02 0.385 0 0.04 0.385 0 0.06 0.385 0 0.08 0.385 0 0.1 0.385 0 0 0.39 0 0.02 0.39 0 0.04 0.39 0 0.06 0.39 0 0.08 0.39 0 0.1 0.39 0 0 0.395 0 0.02 0.395 0 0.04 0.395 0 0.06 0.395 0 0.08 0.395 0 0.1 0.395 0 0 0.4 0 0.02 0.4 0 0.04 0.4 0 0.06 0.4 0 0.08 0.4 0 0.1 0.4 0 0 0.405 0 0.02 0.405 0 0.04 0.405 0 0.06 0.405 0 0.08 0.405 0 0.1 0.405 0 0 0.41 0 0.02 0.41 0 0.04 0.41 0 0.06 0.41 0 0.08 0.41 0 0.1 0.41 0 0 0.415 0 0.02 0.415 0 0.04 0.415 0 0.06 0.415 0 0.08 0.415 0 0.1 0.415 0 0 0.42 0 0.02 0.42 0 0.04 0.42 0 0.06 0.42 0 0.08 0.42 0 0.1 0.42 0 0 0.425 0 0.02 0.425 0 0.04 0.425 0 0.06 0.425 0 0.08 0.425 0 0.1 0.425 0 0 0.43 0 0.02 0.43 0 0.04 0.43 0 0.06 0.43 0 0.08 0.43 0 0.1 0.43 0 0 0.435 0 0.02 0.435 0 0.04 0.435 0 0.06 0.435 0 0.08 0.435 0 0.1 0.435 0 0 0.44 0 0.02 0.44 0 0.04 0.44 0 0.06 0.44 0 0.08 0.44 0 0.1 0.44 0 0 0.445 0 0.02 0.445 0 0.04 0.445 0 0.06 0.445 0 0.08 0.445 0 0.1 0.445 0 0 0.45 0 0.02 0.45 0 0.04 0.45 0 0.06 0.45 0 0.08 0.45 0 0.1 0.45 0 0 0.455 0 0.02 0.455 0 0.04 0.455 0 0.06 0.455 0 0.08 0.455 0 0.1 0.455 0 0 0.46 0 0.02 0.46 0 0.04 0.46 0 0.06 0.46 0 0.08 0.46 0 0.1 0.46 0 0 0.465 0 0.02 0.465 0 0.04 0.465 0 0.06 0.465 0 0.08 0.465 0 0.1 0.465 0 0 0.47 0 0.02 0.47 0 0.04 0.47 0 0.06 0.47 0 0.08 0.47 0 0.1 0.47 0 0 0.475 0 0.02 0.475 0 0.04 0.475 0 0.06 0.475 0 0.08 0.475 0 0.1 0.475 0 0 0.48 0 0.02 0.48 0 0.04 0.48 0 0.06 0.48 0 0.08 0.48 0 0.1 0.48 0 0 0.485 0 0.02 0.485 0 0.04 0.485 0 0.06 0.485 0 0.08 0.485 0 0.1 0.485 0 0 0.49 0 0.02 0.49 0 0.04 0.49 0 0.06 0.49 0 0.08 0.49 0 0.1 0.49 0 0 0.495 0 0.02 0.495 0 0.04 0.495 0 0.06 0.495 0 0.08 0.495 0 0.1 0.495 0 0 0.5 0 0.02 0.5 0 0.04 0.5 0 0.06 0.5 0 0.08 0.5 0 0.1 0.5 0 0 0.505 0 0.02 0.505 0 0.04 0.505 0 0.06 0.505 0 0.08 0.505 0 0.1 0.505 0 0 0.51 0 0.02 0.51 0 0.04 0.51 0 0.06 0.51 0 0.08 0.51 0 0.1 0.51 0 0 0.515 0 0.02 0.515 0 0.04 0.515 0 0.06 0.515 0 0.08 0.515 0 0.1 0.515 0 0 0.52 0 0.02 0.52 0 0.04 0.52 0 0.06 0.52 0 0.08 0.52 0 0.1 0.52 0 0 0.525 0 0.02 0.525 0 0.04 0.525 0 0.06 0.525 0 0.08 0.525 0 0.1 0.525 0 0 0.53 0 0.02 0.53 0 0.04 0.53 0 0.06 0.53 0 0.08 0.53 0 0.1 0.53 0 0 0.535 0 0.02 0.535 0 0.04 0.535 0 0.06 0.535 0 0.08 0.535 0 0.1 0.535 0 0 0.54 0 0.02 0.54 0 0.04 0.54 0 0.06 0.54 0 0.08 0.54 0 0.1 0.54 0 0 0.545 0 0.02 0.545 0 0.04 0.545 0 0.06 0.545 0 0.08 0.545 0 0.1 0.545 0 0 0.55 0 0.02 0.55 0 0.04 0.55 0 0.06 0.55 0 0.08 0.55 0 0.1 0.55 0 0 0.555 0 0.02 0.555 0 0.04 0.555 0 0.06 0.555 0 0.08 0.555 0 0.1 0.555 0 0 0.56 0 0.02 0.56 0 0.04 0.56 0 0.06 0.56 0 0.08 0.56 0 0.1 0.56 0 0 0.565 0 0.02 0.565 0 0.04 0.565 0 0.06 0.565 0 0.08 0.565 0 0.1 0.565 0 0 0.57 0 0.02 0.57 0 0.04 0.57 0 0.06 0.57 0 0.08 0.57 0 0.1 0.57 0 0 0.575 0 0.02 0.575 0 0.04 0.575 0 0.06 0.575 0 0.08 0.575 0 0.1 0.575 0 0 0.58 0 0.02 0.58 0 0.04 0.58 0 0.06 0.58 0 0.08 0.58 0 0.1 0.58 0 0 0.585 0 0.02 0.585 0 0.04 0.585 0 0.06 0.585 0 0.08 0.585 0 0.1 0.585 0 0 0.59 0 0.02 0.59 0 0.04 0.59 0 0.06 0.59 0 0.08 0.59 0 0.1 0.59 0 0 0.595 0 0.02 0.595 0 0.04 0.595 0 0.06 0.595 0 0.08 0.595 0 0.1 0.595 0 0 0.6 0 0.02 0.6 0 0.04 0.6 0 0.06 0.6 0 0.08 0.6 0 0.1 0.6 0 0 0.605 0 0.02 0.605 0 0.04 0.605 0 0.06 0.605 0 0.08 0.605 0 0.1 0.605 0 0 0.61 0 0.02 0.61 0 0.04 0.61 0 0.06 0.61 0 0.08 0.61 0 0.1 0.61 0 0 0.615 0 0.02 0.615 0 0.04 0.615 0 0.06 0.615 0 0.08 0.615 0 0.1 0.615 0 0 0.62 0 0.02 0.62 0 0.04 0.62 0 0.06 0.62 0 0.08 0.62 0 0.1 0.62 0 0 0.625 0 0.02 0.625 0 0.04 0.625 0 0.06 0.625 0 0.08 0.625 0 0.1 0.625 0 0 0.63 0 0.02 0.63 0 0.04 0.63 0 0.06 0.63 0 0.08 0.63 0 0.1 0.63 0 0 0.635 0 0.02 0.635 0 0.04 0.635 0 0.06 0.635 0 0.08 0.635 0 0.1 0.635 0 0 0.64 0 0.02 0.64 0 0.04 0.64 0 0.06 0.64 0 0.08 0.64 0 0.1 0.64 0 0 0.645 0 0.02 0.645 0 0.04 0.645 0 0.06 0.645 0 0.08 0.645 0 0.1 0.645 0 0 0.65 0 0.02 0.65 0 0.04 0.65 0 0.06 0.65 0 0.08 0.65 0 0.1 0.65 0 0 0.655 0 0.02 0.655 0 0.04 0.655 0 0.06 0.655 0 0.08 0.655 0 0.1 0.655 0 0 0.66 0 0.02 0.66 0 0.04 0.66 0 0.06 0.66 0 0.08 0.66 0 0.1 0.66 0 0 0.665 0 0.02 0.665 0 0.04 0.665 0 0.06 0.665 0 0.08 0.665 0 0.1 0.665 0 0 0.67 0 0.02 0.67 0 0.04 0.67 0 0.06 0.67 0 0.08 0.67 0 0.1 0.67 0 0 0.675 0 0.02 0.675 0 0.04 0.675 0 0.06 0.675 0 0.08 0.675 0 0.1 0.675 0 0 0.68 0 0.02 0.68 0 0.04 0.68 0 0.06 0.68 0 0.08 0.68 0 0.1 0.68 0 0 0.685 0 0.02 0.685 0 0.04 0.685 0 0.06 0.685 0 0.08 0.685 0 0.1 0.685 0 0 0.69 0 0.02 0.69 0 0.04 0.69 0 0.06 0.69 0 0.08 0.69 0 0.1 
[...]
			<PointData Scalars="VitesseX">
				<DataArray Name="VitesseX" type="Float32" format="ascii">
 0 8.35565e-15 1.27621e-16 -8.4579e-15 -2.86374e-14 0 0 5.12437e-15 4.34606e-15 -1.22879e-14 -2.63439e-14 0 0 -6.75973e-16 7.87658e-15 -1.53367e-14 -2.24703e-14 0 0 -2.79048e-15 7.5353e-16 -8.28457e-15 -2.47308e-14 0 0 -1.30974e-15 -8.15218e-15 -4.94903e-15 -2.18566e-14 0 0 -6.7193e-15 -3.68296e-15 -1.51857e-14 -1.08593e-14 0 0 -2.11476e-14 9.55436e-15 -2.27205e-14 -1.08981e-14 0 0 -1.64884e-14 -1.61175e-14 5.29567e-15 -2.35838e-14 0 0 -5.90112e-15 -4.25491e-14 2.37415e-14 -3.14027e-14 0 0 -1.65482e-14 -2.26107e-14 -1.26226e-14 -9.77701e-15 0 0 -1.21882e-14 -3.35774e-14 -1.99663e-14 6.95548e-16 0 0 -8.72994e-15 -4.26927e-14 -2.38241e-14 1.00171e-14 0 0 -2.30359e-14 -1.67726e-14 -5.25155e-14 3.0926e-14 0 0 -1.3189e-14 -2.27901e-14 -4.31651e-14 1.78916e-14 0 0 1.06607e-14 -5.76493e-14 6.73245e-15 -2.46516e-14 0 0 9.09989e-15 -5.44722e-14 1.47622e-14 -2.61218e-14 0 0 2.71871e-15 -3.82492e-14 -1.54363e-14 1.85285e-14 0 0 -1.53809e-14 -2.11686e-14 -1.15081e-14 2.44466e-14 0 0 -2.19548e-14 5.37474e-15 -2.49838e-14 3.10532e-14 0 0 -1.73895e-15 -4.52509e-16 -2.29079e-14 1.60644e-14 0 0 3.12076e-14 -5.48701e-14 4.6724e-14 -5.13426e-14 0 0 4.19158e-14 -6.87818e-14 4.97485e-14 -5.7763e-14 0 0 -7.04807e-16 -1.21213e-14 -6.81772e-15 -3.16985e-14 0 0 -4.29657e-14 4.01725e-14 -5.40937e-14 -2.25789e-14 0 0 -4.82217e-14 4.79707e-14 -6.0627e-14 -3.92701e-14 0 0 -2.21056e-14 -2.45978e-16 -8.34118e-15 -7.81708e-14 0 0 -2.69229e-14 -8.214e-15 -1.37577e-14 -5.83119e-14 0 0 -5.39209e-14 2.70751e-14 -7.67984e-14 1.23027e-14 0 0 -5.64286e-14 8.71059e-15 -9.16928e-14 6.11627e-14 0 0 -3.71673e-14 -4.99517e-14 -3.28403e-14 3.1422e-14 0 0 -2.78586e-14 -5.58227e-14 -2.82306e-14 1.0516e-14 0 0 -3.10833e-14 -3.69556e-14 -3.9368e-14 -1.01783e-14 0 0 -5.46214e-14 -6.49135e-15 -4.15615e-14 -4.12985e-14 0 0 -3.06759e-14 -5.41247e-14 1.48074e-14 -7.91293e-14 0 0 -1.76869e-14 -8.61651e-14 3.63747e-14 -6.20807e-14 0 0 -4.46867e-14 -5.20384e-14 -8.76441e-15 -5.70327e-15 0 0 -3.83015e-14 -4.12612e-14 -1.79277e-15 -3.55528e-14 0 0 1.62672e-15 -7.10838e-14 -1.06911e-15 -1.47631e-14 0 0 3.44471e-14 -8.03634e-14 -4.62261e-14 8.79132e-14 0 0 2.61718e-14 -6.52186e-14 -3.23121e-14 5.63965e-14 0 0 2.54478e-14 -8.12234e-14 2.30283e-14 -2.03688e-14 0 0 3.05321e-15 -2.63624e-14 -1.76164e-14 9.73975e-15 0 0 -2.45773e-14 -6.14968e-15 2.56581e-14 -3.53118e-14 0 0 -5.52838e-14 5.40664e-14 2.72234e-14 -5.77293e-14 0 0 -2.85528e-14 4.74383e-14 6.08026e-14 -5.57147e-14 0 0 1.95119e-14 5.98441e-14 2.46732e-14 -6.10287e-15 0 0 -2.28499e-14 1.70008e-13 -9.42337e-14 7.94768e-14 0 0 -1.26771e-14 7.12458e-14 8.95451e-15 3.58691e-14 0 0 1.40421e-14 -2.83929e-14 1.11965e-13 -6.25953e-14 0 0 1.19385e-14 -7.43418e-14 1.78477e-13 -1.58561e-13 0 0 5.76725e-14 -1.69039e-13 2.28791e-13 -1.94954e-13 0 0 2.31611e-14 -9.62434e-14 9.10404e-14 -1.15948e-13 0 0 -4.55621e-14 -2.72013e-14 -1.14515e-13 -7.04428e-15 0 0 -5.80132e-14 -2.76287e-13 -2.41251e-13 -1.17462e-13 0 0 -4.44955e-13 -9.73338e-13 -7.73294e-13 -6.0581e-13 0 0 -2.00121e-12 -3.35275e-12 -3.12557e-12 -2.06967e-12 0 0 -7.0633e-12 -1.14827e-11 -1.13131e-11 -7.00315e-12 0 0 -2.25695e-11 -3.64225e-11 -3.63105e-11 -2.24334e-11 0 0 -6.52091e-11 -1.05367e-10 -1.05259e-10 -6.51389e-11 0 0 -1.71458e-10 -2.77453e-10 -2.77318e-10 -1.71568e-10 0 0 -4.13965e-10 -6.69694e-10 -6.69865e-10 -4.14004e-10 0 0 -9.28166e-10 -1.50175e-09 -1.50199e-09 -9.28287e-10 0 0 -1.96325e-09 -3.17676e-09 -3.17693e-09 -1.96363e-09 0 0 -3.97759e-09 -6.43615e-09 -6.43639e-09 -3.97822e-09 0 0 -7.81512e-09 -1.26458e-08 -1.26462e-08 -7.8165e-09 0 0 -1.50395e-08 -2.43356e-08 -2.43376e-08 -1.50426e-08 0 0 -2.85518e-08 -4.62023e-08 -4.62082e-08 -2.85615e-08 0 0 -5.32556e-08 -8.61867e-08 -8.6207e-08 -5.32896e-08 0 0 -9.50495e-08 -1.53845e-07 -1.53912e-07 -9.51537e-08 0 0 -1.60483e-07 -2.59831e-07 -2.60002e-07 -1.6078e-07 0 0 -2.57769e-07 -4.17435e-07 -4.17868e-07 -2.58476e-07 0 0 -3.96949e-07 -6.4303e-07 -6.44008e-07 -3.98502e-07 0 0 -5.90215e-07 -9.56574e-07 -9.58554e-07 -5.93408e-07 0 0 -8.51991e-07 -1.38159e-06 -1.38535e-06 -8.5807e-07 0 0 -1.19904e-06 -1.94552e-06 -1.95224e-06 -1.20991e-06 0 0 -1.65045e-06 -2.6797e-06 -2.69107e-06 -1.66884e-06 0 0 -2.22726e-06 -3.61872e-06 -3.63725e-06 -2.2573e-06 0 0 -2.95207e-06 -4.79962e-06 -4.8276e-06 -2.99731e-06 0 0 -3.84826e-06 -6.26114e-06 -6.30671e-06 -3.92131e-06 0 0 -4.93786e-06 -8.03994e-06 -8.08976e-06 -5.02394e-06 0 0 -6.24728e-06 -1.0172e-05 -1.0293e-05 -6.41784e-06 0 0 -7.77542e-06 -1.26911e-05 -1.27147e-05 -7.8958e-06 0 0 -9.59352e-06 -1.55828e-05 -1.58806e-05 -9.88872e-06 0 0 -1.15656e-05 -1.89874e-05 -1.89521e-05 -1.18114e-05 0 0 -1.3976e-05 -2.25474e-05 -2.29505e-05 -1.42844e-05 0 0 -1.63592e-05 -2.68861e-05 -2.69939e-05 -1.67673e-05 0 0 -1.92409e-05 -3.11334e-05 -3.13162e-05 -1.94974e-05 0 0 -2.20901e-05 -3.59276e-05 -3.61485e-05 -2.24299e-05 0 0 -2.52166e-05 -4.08672e-05 -4.09061e-05 -2.52904e-05 0 0 -2.83308e-05 -4.57064e-05 -4.55414e-05 -2.80543e-05 0 0 -3.14345e-05 -5.04574e-05 -5.00141e-05 -3.0688e-05 0 0 -3.44438e-05 -5.50119e-05 -5.41614e-05 -3.30569e-05 0 0 -3.72282e-05 -5.91144e-05 -5.771e-05 -3.49662e-05 0 0 -3.96531e-05 -6.24838e-05 -6.03628e-05 -3.62351e-05 0 0 -4.15944e-05 -6.48913e-05 -6.19576e-05 -3.68695e-05 0 0 -4.29272e-05 -6.62781e-05 -6.22698e-05 -3.64165e-05 0 0 -4.36532e-05 -6.62478e-05 -6.11463e-05 -3.52893e-05 0 0 -4.32154e-05 -6.49137e-05 -5.8502e-05 -3.29654e-05 0 0 -4.2e-05 -6.16695e-05 -5.40621e-05 -2.93093e-05 0 0 -3.94357e-05 -5.64436e-05 -4.6995e-05 -2.44789e-05 0 0 -3.54443e-05 -4.88193e-05 -3.84492e-05 -1.85446e-05 0 0 -3.01971e-05 -3.97013e-05 -2.85098e-05 -1.19229e-05 0 0 -2.29985e-05 -2.82989e-05 -1.68512e-05 -4.85563e-06 0 0 -1.46805e-05 -1.51743e-05 -4.91295e-06 1.80153e-06 0 0 -4.01956e-06 -5.26364e-07 6.19476e-06 7.06826e-06 0 0 8.02843e-06 1.38946e-05 1.49037e-05 1.07637e-05 0 0 2.00426e-05 2.70128e-05 2.24082e-05 9.79576e-06 0 0 3.09914e-05 3.7426e-05 2.24511e-05 6.95668e-06 0 0 3.97355e-05 4.65849e-05 2.053e-05 8.25999e-07 0 0 4.56909e-05 4.71343e-05 1.48547e-05 -6.59611e-06 0 0 5.04135e-05 4.58807e-05 7.24801e-06 -1.51519e-05 0 0 4.99689e-05 4.19968e-05 -3.06961e-06 -2.46713e-05 0 0 4.77657e-05 3.25028e-05 -1.7019e-05 -3.39977e-05 0 0 4.25117e-05 2.15679e-05 -3.13362e-05 -4.28467e-05 0 0 3.55117e-05 1.13712e-05 -4.46394e-05 -5.12507e-05 0 0 2.51131e-05 -2.0379e-06 -5.59858e-05 -5.92444e-05 0 0 1.04667e-05 -2.11738e-05 -6.91835e-05 -6.67976e-05 0 0 -6.12394e-06 -4.46174e-05 -8.5448e-05 -7.37693e-05 0 0 -2.25468e-05 -7.03363e-05 -0.000103171 -7.98257e-05 0 0 -3.65841e-05 -9.69031e-05 -0.000121404 -8.44582e-05 0 0 -5.52266e-05 -0.00012211 -0.000139425 -8.7102e-05 0 0 -9.04671e-05 -0.000145294 -0.000155136 -8.98608e-05 0 0 -0.000146333 -0.00018792 -0.000174204 -9.87602e-05 0 0 -0.000214307 -0.000272306 -0.000213366 -0.00012584 0 0 -0.000282908 -0.000385113 -0.000301811 -0.000161322 0 0 -0.000341683 -0.000519019 -0.000423084 -0.000178369 0 0 -0.000401035 -0.000670968 -0.000553607 -0.000175998 0 0 -0.000533075 -0.00083752 -0.000650719 -0.000151363 0 0 -0.000734176 -0.0010485 -0.000654575 -4.3383e-05 0 0 -0.000958066 -0.00129694 -0.000642531 0.000203065 0 0 -0.00117869 -0.00154555 -0.000642613 0.000433712 0 0 -0.00122562 -0.0016417 -0.000658599 0.000467454 0 0 -0.00120048 -0.00156952 -0.000597795 0.00039349 0 0 -0.0011118 -0.00127261 -0.000376386 7.8473e-05 0 0 -0.000982155 -0.000959785 -0.000367606 -0.000151142 0 0 -0.000882575 -0.000976487 -0.000488903 -9.60948e-05 0 0 -0.000770384 -0.000938161 -0.000559815 -0.000124082 0 0 -0.000222146 -0.000362565 -0.000364134 -0.000437601 0 0 0.00112249 0.00142404 0.0004355 -0.000515305 0 0 0.00164015 0.00253191 0.0013299 -0.000387969 0 0 0.00162159 0.00252137 0.00154353 -2.41224e-05 0 0 0.00150866 0.00237011 0.00153583 0.000357483 0 0 0.00124478 0.00194166 0.00143871 0.000510295 0 0 0.000982809 0.00149066 0.00118409 0.000511588 0 0 0.000754447 0.00110063 0.000937001 0.00050292 0 0 0.000579371 0.000808359 0.000736926 0.000468725 0 0 0.000457545 0.000621659 0.000595887 0.000410419 0 0 0.000375293 0.000520059 0.00050742 0.00035343 0 0 0.000316385 0.000466595 0.000453462 0.000301308 0 0 0.000270807 0.000427674 0.000413226 0.000256861 0 0 0.000235031 0.000382349 0.00037115 0.000219902 0 0 0.000206216 0.000336632 0.000328887 0.000190288 0 0 0.000181383 0.000296127 0.000292366 0.000168543 0 0 0.0001591 0.000261127 0.000260793 0.000152216 0 0 0.000140774 0.000230804 0.000231132 0.000138574 0 0 0.000128622 0.000207587 0.000205687 0.000127549 0 0 0.000122672 0.000195922 0.000193236 0.000120208 0 0 0.000119735 0.000191976 0.000190166 0.000116874 0 0 0.000116693 0.000188023 0.000186821 0.000114744 0 0 0.000112105 0.000180994 0.00018022 0.000110858 0 0 0.000105116 0.000169832 0.000169305 0.000104263 0 0 9.47239e-05 0.000153074 0.000152695 9.41114e-05 0 0 8.0598e-05 0.000130248 0.00012997 8.01479e-05 0 0 6.34778e-05 0.000102578 0.000102379 6.31562e-05 0 0 4.52899e-05 7.31853e-05 7.30545e-05 4.50788e-05 0 0 2.84815e-05 4.60258e-05 4.59511e-05 2.83606e-05 0 0 1.54462e-05 2.49638e-05 2.49281e-05 1.53884e-05 0 0 7.17804e-06 1.16031e-05 1.15893e-05 7.15574e-06 0 0 2.92102e-06 4.72276e-06 4.71837e-06 2.91385e-06 0 0 1.08739e-06 1.75848e-06 1.75728e-06 1.08545e-06 0 0 3.85425e-07 6.23394e-07 6.23101e-07 3.84951e-07 0 0 1.3324e-07 2.15532e-07 2.15464e-07 1.3313e-07 0 0 4.54339e-08 7.35014e-08 7.3486e-08 4.54091e-08 0 0 1.53557e-08 2.48435e-08 2.48401e-08 1.53503e-08 0 0 5.15413e-09 8.33927e-09 8.33835e-09 5.15308e-09 0 0 1.71946e-09 2.78209e-09 2.78202e-09 1.71919e-09 0 0 5.7033e-10 9.22564e-10 9.22954e-10 5.70098e-10 0 0 1.87981e-10 3.0419e-10 3.04467e-10 1.87773e-10 0 0 6.15932e-11 9.96575e-11 9.98703e-11 6.13657e-11 0 0 2.01707e-11 3.22774e-11 3.26249e-11 1.98359e-11 0 0 6.50555e-12 1.04843e-11 1.05106e-11 6.21814e-12 0 0 2.05824e-12 3.42336e-12 3.35889e-12 1.74016e-12 0 0 6.51952e-13 1.08098e-12 1.0679e-12 4.18228e-13 0 0 1.57878e-13 3.85448e-13 1.69491e-13 1.68361e-13 0 0 9.87525e-14 4.89492e-14 -3.9999e-14 9.33977e-14 0 0 1.22938e-13 -9.52145e-14 -1.43205e-13 1.43358e-13 0 0 9.26967e-14 -1.44881e-13 -1.5086e-13 8.35688e-14 0 0 2.14154e-14 -8.20598e-14 -2.39408e-13 1.78962e-13 0 0 -1.07681e-13 9.85914e-14 -4.30829e-13 3.01927e-13 0 0 -7.10015e-14 -6.4341e-14 -1.19567e-13 -6.36585e-14 0 0 -7.02697e-14 -1.67841e-13 4.67937e-14 -3.38172e-13 0 0 -2.3647e-13 -1.93198e-14 -1.338e-13 -2.59566e-13 0 0 -1.59992e-13 -2.53341e-13 6.18277e-14 -3.52606e-13 0 0 -4.15016e-14 -3.68995e-13 9.54623e-14 -3.44183e-13 0 0 -8.96946e-14 -1.16222e-13 -2.05472e-13 -1.33362e-13 0 0 -3.16789e-13 2.57054e-13 -4.55271e-13 -7.69787e-14 0 0 -4.20023e-13 2.26863e-13 -3.22146e-13 -1.38799e-13 0 0 -3.83881e-13 -9.36317e-14 1.07317e-13 -3.37851e-13 0 0 -1.95821e-13 -2.809e-13 1.17647e-13 -2.81285e-13 0 0 -2.05341e-13 -9.17486e-14 -2.6232e-13 2.99487e-14 0 0 -4.20789e-13 1.92643e-13 -4.57518e-13 1.12236e-13 0
				</DataArray>
				<DataArray Name="VitesseY" type="Float32" format="ascii">