<?xml version="1.0"?>
<VTKFile type="PolyData">
	<PolyData>
		<Piece NumberOfPoints="1206" NumberOfPolys="1000">
			<Points>
				<DataArray type="Float32" NumberOfComponents="3" format="ascii">
 0 0 0 0.02 0 0 0.04 0 0 0.06 0 0 0.08 0 0 0.1 0 0 0 0.005 0 0.02 0.005 0 0.04 0.005 0 0.06 0.005 0 0.08 0.005 0 0.1 0.005 0 0 0.01 0 0.02 0.01 0 0.04 0.01 0 0.06 0.01 0 0.08 0.01 0 0.1 0.01 0 0 0.015 0 0.02 0.015 0 0.04 0.015 0 0.06 0.015 0 0.08 0.015 0 0.1 0.015 0 0 0.02 0 0.02 0.02 0 0.04 0.02 0 0.06 0.02 0 0.08 0.02 0 0.1 0.02 0 0 0.025 0 0.02 0.025 0 0.04 0.025 0 0.06 0.025 0 0.08 0.025 0 0.1 0.025 0 0 0.03 0 0.02 0.03 0 0.04 0.03 0 0.06 0.03 0 0.08 0.03 0 0.1 0.03 0 0 0.035 0 0.02 0.035 0 0.04 0.035 0 0.06 0.035 0 0.08 0.035 0 0.1 0.035 0 0 0.04 0 0.02 0.04 0 0.04 0.04 0 0.06 0.04 0 0.08 0.04 0 0.1 0.04 0 0 0.045 0 0.02 0.045 0 0.04 0.045 0 0.06 0.045 0 0.08 0.045 0 0.1 0.045 0 0 0.05 0 0.02 0.05 0 0.04 0.05 0 0.06 0.05 0 0.08 0.05 0 0.1 0.05 0 0 0.055 0 0.02 0.055 0 0.04 0.055 0 0.06 0.055 0 0.08 0.055 0 0.1 0.055 0 0 0.06 0 0.02 0.06 0 0.04 0.06 0 0.06 0.06 0 0.08 0.06 0 0.1 0.06 0 0 0.065 0 0.02 0.065 0 0.04 0.065 0 0.06 0.065 0 0.08 0.065 0 0.1 0.065 0 0 0.07 0 0.02 0.07 0 0.04 0.07 0 0.06 0.07 0 0.08 0.07 0 0.1 0.07 0 0 0.075 0 0.02 0.075 0 0.04 0.075 0 0.06 0.075 0 0.08 0.075 0 0.1 0.075 0 0 0.08 0 0.02 0.08 0 0.04 0.08 0 0.06 0.08 0 0.08 0.08 0 0.1 0.08 0 0 0.085 0 0.02 0.085 0 0.04 0.085 0 0.06 0.085 0 0.08 0.085 0 0.1 0.085 0 0 0.09 0 0.02 0.09 0 0.04 0.09 0 0.06 0.09 0 0.08 0.09 0 0.1 0.09 0 0 0.095 0 0.02 0.095 0 0.04 0.095 0 0.06 0.095 0 0.08 0.095 0 0.1 0.095 0 0 0.1 0 0.02 0.1 0 0.04 0.1 0 0.06 0.1 0 0.08 0.1 0 0.1 0.1 0 0 0.105 0 0.02 0.105 0 0.04 0.105 0 0.06 0.105 0 0.08 0.105 0 0.1 0.105 0 0 0.11 0 0.02 0.11 0 0.04 0.11 0 0.06 0.11 0 0.08 0.11 0 0.1 0.11 0 0 0.115 0 0.02 0.115 0 0.04 0.115 0 0.06 0.115 0 0.08 0.115 0 0.1 0.115 0 0 0.12 0 0.02 0.12 0 0.04 0.12 0 0.06 0.12 0 0.08 0.12 0 0.1 0.12 0 0 0.125 0 0.02 0.125 0 0.04 0.125 0 0.06 0.125 0 0.08 0.125 0 0.1 0.125 0 0 0.13 0 0.02 0.13 0 0.04 0.13 0 0.06 0.13 0 0.08 0.13 0 0.1 0.13 0 0 0.135 0 0.02 0.135 0 0.04 0.135 0 0.06 0.135 0 0.08 0.135 0 0.1 0.135 0 0 0.14 0 0.02 0.14 0 0.04 0.14 0 0.06 0.14 0 0.08 0.14 0 0.1 0.14 0 0 0.145 0 0.02 0.145 0 0.04 0.145 0 0.06 0.145 0 0.08 0.145 0 0.1 0.145 0 0 0.15 0 0.02 0.15 0 0.04 0.15 0 0.06 0.15 0 0.08 0.15 0 0.1 0.15 0 0 0.155 0 0.02 0.155 0 0.04 0.155 0 0.06 0.155 0 0.08 0.155 0 0.1 0.155 0 0 0.16 0 0.02 0.16 0 0.04 0.16 0 0.06 0.16 0 0.08 0.16 0 0.1 0.16 0 0 0.165 0 0.02 0.165 0 0.04 0.165 0 0.06 0.165 0 0.08 0.165 0 0.1 0.165 0 0 0.17 0 0.02 0.17 0 0.04 0.17 0 0.06 0.17 0 0.08 0.17 0 0.1 0.17 0 0 0.175 0 0.02 0.175 0 0.04 0.175 0 0.06 0.175 0 0.08 0.175 0 0.1 0.175 0 0 0.18 0 0.02 0.18 0 0.04 0.18 0 0.06 0.18 0 0.08 0.18 0 0.1 0.18 0 0 0.185 0 0.02 0.185 0 0.04 0.185 0 0.06 0.185 0 0.08 0.185 0 0.1 0.185 0 0 0.19 0 0.02 0.19 0 0.04 0.19 0 0.06 0.19 0 0.08 0.19 0 0.1 0.19 0 0 0.195 0 0.02 0.195 0 0.04 0.195 0 0.06 0.195 0 0.08 0.195 0 0.1 0.195 0 0 0.2 0 0.02 0.2 0 0.04 0.2 0 0.06 0.2 0 0.08 0.2 0 0.1 0.2 0 0 0.205 0 0.02 0.205 0 0.04 0.205 0 0.06 0.205 0 0.08 0.205 0 0.1 0.205 0 0 0.21 0 0.02 0.21 0 0.04 0.21 0 0.06 0.21 0 0.08 0.21 0 0.1 0.21 0 0 0.215 0 0.02 0.215 0 0.04 0.215 0 0.06 0.215 0 0.08 0.215 0 0.1 0.215 0 0 0.22 0 0.02 0.22 0 0.04 0.22 0 0.06 0.22 0 0.08 0.22 0 0.1 0.22 0 0 0.225 0 0.02 0.225 0 0.04 0.225 0 0.06 0.225 0 0.08 0.225 0 0.1 0.225 0 0 0.23 0 0.02 0.23 0 0.04 0.23 0 0.06 0.23 0 0.08 0.23 0 0.1 0.23 0 0 0.235 0 0.02 0.235 0 0.04 0.235 0 0.06 0.235 0 0.08 0.235 0 0.1 0.235 0 0 0.24 0 0.02 0.24 0 0.04 0.24 0 0.06 0.24 0 0.08 0.24 0 0.1 0.24 0 0 0.245 0 0.02 0.245 0 0.04 0.245 0 0.06 0.245 0 0.08 0.245 0 0.1 0.245 0 0 0.25 0 0.02 0.25 0 0.04 0.25 0 0.06 0.25 0 0.08 0.25 0 0.1 0.25 0 0 0.255 0 0.02 0.255 0 0.04 0.255 0 0.06 0.255 0 0.08 0.255 0 0.1 0.255 0 0 0.26 0 0.02 0.26 0 0.04 0.26 0 0.06 0.26 0 0.08 0.26 0 0.1 0.26 0 0 0.265 0 0.02 0.265 0 0.04 0.265 0 0.06 0.265 0 0.08 0.265 0 0.1 0.265 0 0 0.27 0 0.02 0.27 0 0.04 0.27 0 0.06 0.27 0 0.08 0.27 0 0.1 0.27 0 0 0.275 0 0.02 0.275 0 0.04 0.275 0 0.06 0.275 0 0.08 0.275 0 0.1 0.275 0 0 0.28 0 0.02 0.28 0 0.04 0.28 0 0.06 0.28 0 0.08 0.28 0 0.1 0.28 0 0 0.285 0 0.02 0.285 0 0.04 0.285 0 0.06 0.285 0 0.08 0.285 0 0.1 0.285 0 0 0.29 0 0.02 0.29 0 0.04 0.29 0 0.06 0.29 0 0.08 0.29 0 0.1 0.29 0 0 0.295 0 0.02 0.295 0 0.04 0.295 0 0.06 0.295 0 0.08 0.295 0 0.1 0.295 0 0 0.3 0 0.02 0.3 0 0.04 0.3 0 0.06 0.3 0 0.08 0.3 0 0.1 0.3 0 0 0.305 0 0.02 0.305 0 0.04 0.305 0 0.06 0.305 0 0.08 0.305 0 0.1 0.305 0 0 0.31 0 0.02 0.31 0 0.04 0.31 0 0.06 0.31 0 0.08 0.31 0 0.1 0.31 0 0 0.315 0 0.02 0.315 0 0.04 0.315 0 0.06 0.315 0 0.08 0.315 0 0.1 0.315 0 0 0.32 0 0.02 0.32 0 0.04 0.32 0 0.06 0.32 0 0.08 0.32 0 0.1 0.32 0 0 0.325 0 0.02 0.325 0 0.04 0.325 0 0.06 0.325 0 0.08 0.325 0 0.1 0.325 0 0 0.33 0 0.02 0.33 0 0.04 0.33 0 0.06 0.33 0 0.08 0.33 0 0.1 0.33 0 0 0.335 0 0.02 0.335 0 0.04 0.335 0 0.06 0.335 0 0.08 0.335 0 0.1 0.335 0 0 0.34 0 0.02 0.34 0 0.04 0.34 0 0.06 0.34 0 0.08 0.34 0 0.1 0.34 0 0 0.345 0 0.02 0.345 0 0.04 0.345 0 0.06 0.345 0 0.08 0.345 0 0.1 0.345 0 0 0.35 0 0.02 0.35 0 0.04 0.35 0 0.06 0.35 0 0.08 0.35 0 0.1 0.35 0 0 0.355 0 0.02 0.355 0 0.04 0.355 0 0.06 0.355 0 0.08 0.355 0 0.1 0.355 0 0 0.36 0 0.02 0.36 0 0.04 0.36 0 0.06 0.36 0 0.08 0.36 0 0.1 0.36 0 0 0.365 0 0.02 0.365 0 0.04 0.365 0 0.06 0.365 0 0.08 0.365 0 0.1 0.365 0 0 0.37 0 0.02 0.37 0 0.04 0.37 0 0.06 0.37 0 0.08 0.37 0 0.1 0.37 0 0 0.375 0 0.02 0.375 0 0.04 0.375 0 0.06 0.375 0 0.08 0.375 0 0.1 0.375 0 0 0.38 0 0.02 0.38 0 0.04 0.38 0 0.06 0.38 0 0.08 0.38 0 0.1 0.38 0 0 0.385 0 0.02 0.385 0 0.04 0.385 0 0.06 0.385 0 0.08 0.385 0 0.1 0.385 0 0 0.39 0 0.02 0.39 0 0.04 0.39 0 0.06 0.39 0 0.08 0.39 0 0.1 0.39 0 0 0.395 0 0.02 0.395 0 0.04 0.395 0 0.06 0.395 0 0.08 0.395 0 0.1 0.395 0 0 0.4 0 0.02 0.4 0 0.04 0.4 0 0.06 0.4 0 0.08 0.4 0 0.1 0.4 0 0 0.405 0 0.02 0.405 0 0.04 0.405 0 0.06 0.405 0 0.08 0.405 0 0.1 0.405 0 0 0.41 0 0.02 0.41 0 0.04 0.41 0 0.06 0.41 0 0.08 0.41 0 0.1 0.41 0 0 0.415 0 0.02 0.415 0 0.04 0.415 0 0.06 0.415 0 0.08 0.415 0 0.1 0.415 0 0 0.42 0 0.02 0.42 0 0.04 0.42 0 0.06 0.42 0 0.08 0.42 0 0.1 0.42 0 0 0.425 0 0.02 0.425 0 0.04 0.425 0 0.06 0.425 0 0.08 0.425 0 0.1 0.425 0 0 0.43 0 0.02 0.43 0 0.04 0.43 0 0.06 0.43 0 0.08 0.43 0 0.1 0.43 0 0 0.435 0 0.02 0.435 0 0.04 0.435 0 0.06 0.435 0 0.08 0.435 0 0.1 0.435 0 0 0.44 0 0.02 0.44 0 0.04 0.44 0 0.06 0.44 0 0.08 0.44 0 0.1 0.44 0 0 0.445 0 0.02 0.445 0 0.04 0.445 0 0.06 0.445 0 0.08 0.445 0 0.1 0.445 0 0 0.45 0 0.02 0.45 0 0.04 0.45 0 0.06 0.45 0 0.08 0.45 0 0.1 0.45 0 0 0.455 0 0.02 0.455 0 0.04 0.455 0 0.06 0.455 0 0.08 0.455 0 0.1 0.455 0 0 0.46 0 0.02 0.46 0 0.04 0.46 0 0.06 0.46 0 0.08 0.46 0 0.1 0.46 0 0 0.465 0 0.02 0.465 0 0.04 0.465 0 0.06 0.465 0 0.08 0.465 0 0.1 0.465 0 0 0.47 0 0.02 0.47 0 0.04 0.47 0 0.06 0.47 0 0.08 0.47 0 0.1 0.47 0 0 0.475 0 0.02 0.475 0 0.04 0.475 0 0.06 0.475 0 0.08 0.475 0 0.1 0.475 0 0 0.48 0 0.02 0.48 0 0.04 0.48 0 0.06 0.48 0 0.08 0.48 0 0.1 0.48 0 0 0.485 0 0.02 0.485 0 0.04 0.485 0 0.06 0.485 0 0.08 0.485 0 0.1 0.485 0 0 0.49 0 0.02 0.49 0 0.04 0.49 0 0.06 0.49 0 0.08 0.49 0 0.1 0.49 0 0 0.495 0 0.02 0.495 0 0.04 0.495 0 0.06 0.495 0 0.08 0.495 0 0.1 0.495 0 0 0.5 0 0.02 0.5 0 0.04 0.5 0 0.06 0.5 0 0.08 0.5 0 0.1 0.5 0 0 0.505 0 0.02 0.505 0 0.04 0.505 0 0.06 0.505 0 0.08 0.505 0 0.1 0.505 0 0 0.51 0 0.02 0.51 0 0.04 0.51 0 0.06 0.51 0 0.08 0.51 0 0.1 0.51 0 0 0.515 0 0.02 0.515 0 0.04 0.515 0 0.06 0.515 0 0.08 0.515 0 0.1 0.515 0 0 0.52 0 0.02 0.52 0 0.04 0.52 0 0.06 0.52 0 0.08 0.52 0 0.1 0.52 0 0 0.525 0 0.02 0.525 0 0.04 0.525 0 0.06 0.525 0 0.08 0.525 0 0.1 0.525 0 0 0.53 0 0.02 0.53 0 0.04 0.53 0 0.06 0.53 0 0.08 0.53 0 0.1 0.53 0 0 0.535 0 0.02 0.535 0 0.04 0.535 0 0.06 0.535 0 0.08 0.535 0 0.1 0.535 0 0 0.54 0 0.02 0.54 0 0.04 0.54 0 0.06 0.54 0 0.08 0.54 0 0.1 0.54 0 0 0.545 0 0.02 0.545 0 0.04 0.545 0 0.06 0.545 0 0.08 0.545 0 0.1 0.545 0 0 0.55 0 0.02 0.55 0 0.04 0.55 0 0.06 0.55 0 0.08 0.55 0 0.1 0.55 0 0 0.555 0 0.02 0.555 0 0.04 0.555 0 0.06 0.555 0 0.08 0.555 0 0.1 0.555 0 0 0.56 0 0.02 0.56 0 0.04 0.56 0 0.06 0.56 0 0.08 0.56 0 0.1 0.56 0 0 0.565 0 0.02 0.565 0 0.04 0.565 0 0.06 0.565 0 0.08 0.565 0 0.1 0.565 0 0 0.57 0 0.02 0.57 0 0.04 0.57 0 0.06 0.57 0 0.08 0.57 0 0.1 0.57 0 0 0.575 0 0.02 0.575 0 0.04 0.575 0 0.06 0.575 0 0.08 0.575 0 0.1 0.575 0 0 0.58 0 0.02 0.58 0 0.04 0.58 0 0.06 0.58 0 0.08 0.58 0 0.1 0.58 0 0 0.585 0 0.02 0.585 0 0.04 0.585 0 0.06 0.585 0 0.08 0.585 0 0.1 0.585 0 0 0.59 0 0.02 0.59 0 0.04 0.59 0 0.06 0.59 0 0.08 0.59 0 0.1 0.59 0 0 0.595 0 0.02 0.595 0 0.04 0.595 0 0.06 0.595 0 0.08 0.595 0 0.1 0.595 0 0 0.6 0 0.02 0.6 0 0.04 0.6 0 0.06 0.6 0 0.08 0.6 0 0.1 0.6 0 0 0.605 0 0.02 0.605 0 0.04 0.605 0 0.06 0.605 0 0.08 0.605 0 0.1 0.605 0 0 0.61 0 0.02 0.61 0 0.04 0.61 0 0.06 0.61 0 0.08 0.61 0 0.1 0.61 0 0 0.615 0 0.02 0.615 0 0.04 0.615 0 0.06 0.615 0 0.08 0.615 0 0.1 0.615 0 0 0.62 0 0.02 0.62 0 0.04 0.62 0 0.06 0.62 0 0.08 0.62 0 0.1 0.62 0 0 0.625 0 0.02 0.625 0 0.04 0.625 0 0.06 0.625 0 0.08 0.625 0 0.1 0.625 0 0 0.63 0 0.02 0.63 0 0.04 0.63 0 0.06 0.63 0 0.08 0.63 0 0.1 0.63 0 0 0.635 0 0.02 0.635 0 0.04 0.635 0 0.06 0.635 0 0.08 0.635 0 0.1 0.635 0 0 0.64 0 0.02 0.64 0 0.04 0.64 0 0.06 0.64 0 0.08 0.64 0 0.1 0.64 0 0 0.645 0 0.02 0.645 0 0.04 0.645 0 0.06 0.645 0 0.08 0.645 0 0.1 0.645 0 0 0.65 0 0.02 0.65 0 0.04 0.65 0 0.06 0.65 0 0.08 0.65 0 0.1 0.65 0 0 0.655 0 0.02 0.655 0 0.04 0.655 0 0.06 0.655 0 0.08 0.655 0 0.1 0.655 0 0 0.66 0 0.02 0.66 0 0.04 0.66 0 0.06 0.66 0 0.08 0.66 0 0.1 0.66 0 0 0.665 0 0.02 0.665 0 0.04 0.665 0 0.06 0.665 0 0.08 0.665 0 0.1 0.665 0 0 0.67 0 0.02 0.67 0 0.04 0.67 0 0.06 0.67 0 0.08 0.67 0 0.1 0.67 0 0 0.675 0 0.02 0.675 0 0.04 0.675 0 0.06 0.675 0 0.08 0.675 0 0.1 0.675 0 0 0.68 0 0.02 0.68 0 0.04 0.68 0 0.06 0.68 0 0.08 0.68 0 0.1 0.68 0 0 0.685 0 0.02 0.685 0 0.04 0.685 0 0.06 0.685 0 0.08 0.685 0 0.1 0.685 0 0 0.69 0 0.02 0.69 0 0.04 0.69 0 0.06 0.69 0 0.08 0.69 0 0.1 
[...]
			<PointData Scalars="VitesseX">
				<DataArray Name="VitesseX" type="Float32" format="ascii">
 0 1.57588e-14 -9.27525e-15 1.78272e-14 1.73375e-14 0 0 8.85551e-15 8.0222e-16 1.27134e-14 1.96225e-14 0 0 1.2161e-15 1.09775e-14 1.44826e-14 1.73832e-14 0 0 -2.03603e-15 1.29253e-14 2.53192e-14 1.36212e-14 0 0 -1.03234e-14 2.3913e-14 2.41033e-14 1.78741e-14 0 0 -1.03044e-14 2.41212e-14 3.19759e-14 1.11015e-14 0 0 9.35114e-15 -6.95722e-15 6.89213e-14 -1.5507e-14 0 0 1.25718e-14 -1.40076e-14 7.2418e-14 -1.24238e-14 0 0 3.82791e-15 -1.02613e-14 6.73541e-14 -1.57429e-15 0 0 -4.59192e-15 -3.60708e-16 4.51247e-14 2.48406e-14 0 0 -1.29458e-14 2.85681e-14 -7.31606e-15 6.44984e-14 0 0 7.12901e-15 7.90091e-15 9.47887e-15 4.75682e-14 0 0 5.39571e-14 -5.9552e-14 7.30172e-14 6.54411e-15 0 0 3.85294e-14 -6.69565e-15 8.90387e-15 4.68332e-14 0 0 4.3031e-15 5.06189e-14 -1.46791e-14 3.94391e-14 0 0 1.37196e-15 3.60805e-14 4.53425e-14 -2.18141e-14 0 0 1.04315e-14 3.33937e-14 3.85461e-14 -1.03309e-14 0 0 -6.16205e-15 6.79651e-14 -2.77996e-15 2.64357e-14 0 0 9.50254e-15 3.35173e-14 4.66234e-14 -1.27747e-14 0 0 2.12315e-14 -2.62084e-16 8.98556e-14 -5.40769e-14 0 0 8.66389e-15 3.01553e-14 4.74586e-14 -3.80564e-14 0 0 1.80585e-14 4.15869e-14 -4.21197e-15 -8.91853e-15 0 0 -7.21938e-15 8.72864e-14 -7.82166e-14 3.53573e-14 0 0 -3.68897e-14 1.20908e-13 -1.13982e-13 6.49339e-14 0 0 9.21431e-15 6.37499e-15 1.27967e-14 9.72582e-15 0 0 2.85476e-14 -7.3037e-14 1.15476e-13 -3.51608e-14 0 0 -2.29151e-14 -1.6121e-14 5.95887e-14 2.77215e-14 0 0 -8.79094e-15 -4.41778e-14 1.02389e-13 5.27216e-15 0 0 -1.85663e-14 -2.26634e-14 9.7346e-14 -3.34383e-15 0 0 -1.26859e-15 -3.22711e-15 4.78583e-14 2.63144e-14 0 0 -1.33269e-14 3.25447e-14 1.00066e-14 5.8549e-14 0 0 -2.80053e-14 4.83769e-14 1.75379e-14 6.16096e-14 0 0 -1.97803e-14 6.84681e-14 1.95535e-14 4.70702e-14 0 0 -8.40069e-15 5.31548e-14 4.79121e-14 4.5279e-14 0 0 5.63017e-14 -4.693e-14 1.5015e-13 -2.41699e-15 0 0 1.66868e-14 4.34222e-14 7.80449e-14 1.99005e-14 0 0 -7.31653e-15 8.79848e-14 1.33513e-14 8.98429e-14 0 0 -4.71916e-15 6.10584e-14 4.98052e-14 1.06488e-13 0 0 -3.73176e-14 5.72403e-14 1.3382e-13 1.90382e-14 0 0 -6.80194e-14 4.68437e-14 1.80253e-13 -2.95296e-14 0 0 -7.9294e-14 7.31017e-14 1.29664e-13 1.39265e-15 0 0 -8.38554e-14 1.16635e-13 3.96983e-14 6.01573e-14 0 0 -4.80937e-14 4.07794e-14 7.49189e-14 8.67123e-14 0 0 -3.39882e-14 -5.99036e-14 2.21923e-13 -1.30756e-15 0 0 -4.71751e-14 -1.42637e-15 1.74752e-13 -1.45782e-14 0 0 -6.93107e-14 8.78476e-14 6.9892e-14 3.2855e-14 0 0 -1.22929e-13 1.65377e-13 7.7414e-15 4.16029e-14 0 0 -5.06494e-14 9.10127e-14 4.01738e-14 1.21685e-14 0 0 2.61585e-14 9.41978e-15 6.19294e-14 3.5701e-14 0 0 7.19453e-14 -2.07842e-14 1.24595e-13 -5.05073e-15 0 0 1.71208e-13 -1.73419e-13 3.58333e-13 -1.61078e-13 0 0 1.24683e-13 -6.53111e-14 2.45024e-13 -8.96158e-14 0 0 -1.13653e-14 1.71276e-13 -1.28999e-15 8.0193e-14 0 0 -1.39194e-14 1.59086e-13 -8.70122e-15 1.39508e-13 0 0 1.25798e-13 -6.33384e-14 2.1314e-13 2.47059e-14 0 0 2.16129e-13 -1.5649e-13 3.16289e-13 -6.36121e-14 0 0 1.12193e-13 2.95366e-14 1.49888e-13 -1.58671e-14 0 0 1.93482e-14 1.3082e-13 8.09696e-14 1.50785e-14 0 0 2.13403e-14 1.28219e-13 1.14067e-13 1.04221e-14 0 0 4.92907e-14 1.04763e-13 1.44331e-13 4.01139e-14 0 0 1.25597e-13 1.62253e-14 1.997e-13 1.05496e-13 0 0 7.23531e-14 1.47028e-14 2.72365e-13 1.17988e-13 0 0 -6.04576e-15 2.21995e-14 3.61866e-13 9.64388e-14 0 0 -1.03383e-14 4.22098e-14 3.65833e-13 1.29443e-13 0 0 3.07942e-14 2.85345e-14 3.58775e-13 1.49881e-13 0 0 -2.89123e-14 1.06105e-13 3.26015e-13 1.08625e-13 0 0 -2.24984e-13 4.11059e-13 5.29994e-14 2.19985e-13 0 0 -6.27823e-14 1.58996e-13 2.86134e-13 9.77003e-14 0 0 9.56446e-14 -1.18467e-13 5.82848e-13 -1.15051e-14 0 0 1.83543e-15 4.40063e-14 4.08905e-13 1.48235e-13 0 0 -4.80482e-14 1.59235e-13 2.67697e-13 1.89976e-13 0 0 1.86731e-14 1.19954e-13 2.21922e-13 1.6126e-13 0 0 3.1885e-13 -2.64548e-13 4.43995e-13 9.51537e-16 0 0 2.90518e-13 -1.78302e-13 3.85809e-13 2.75848e-15 0 0 9.01529e-14 9.12064e-14 2.67779e-13 8.17356e-14 0 0 2.75494e-14 1.84093e-13 1.2702e-13 2.70021e-13 0 0 3.33621e-14 2.5231e-13 3.66112e-14 3.23907e-13 0 0 3.11706e-13 -1.7359e-13 6.59871e-13 -2.07671e-13 0 0 2.32102e-13 -3.58956e-14 5.92681e-13 -3.42611e-13 0 0 1.74163e-13 1.60153e-13 3.0148e-13 -1.81405e-13 0 0 4.23408e-13 -2.13651e-13 5.51585e-13 -1.76475e-13 0 0 5.04861e-13 -4.4915e-14 3.90803e-13 1.28115e-13 0 0 5.51354e-13 5.53881e-13 5.20901e-13 5.3275e-13 0 0 1.28575e-12 2.10398e-12 1.86484e-12 1.50541e-12 0 0 4.04794e-12 6.67833e-12 6.60619e-12 4.38351e-12 0 0 1.22209e-11 1.98717e-11 2.03757e-11 1.27621e-11 0 0 3.27075e-11 5.33069e-11 5.51798e-11 3.43937e-11 0 0 7.51379e-11 1.23741e-10 1.2892e-10 8.11037e-11 0 0 1.34314e-10 2.29431e-10 2.44362e-10 1.57581e-10 0 0 2.80059e-11 8.66368e-11 1.37857e-10 1.11964e-10 0 0 -8.11378e-10 -1.20524e-09 -1.0745e-09 -5.97897e-10 0 0 -4.3604e-09 -6.81184e-09 -6.51187e-09 -3.87325e-09 0 0 -1.59502e-08 -2.5383e-08 -2.48548e-08 -1.50951e-08 0 0 -4.83501e-08 -7.79673e-08 -7.76291e-08 -4.78037e-08 0 0 -1.28828e-07 -2.10359e-07 -2.12682e-07 -1.32588e-07 0 0 -3.09745e-07 -5.12701e-07 -5.26788e-07 -3.32542e-07 0 0 -6.81646e-07 -1.14839e-06 -1.19943e-06 -7.6742e-07 0 0 -1.45228e-06 -2.39433e-06 -2.54553e-06 -1.64692e-06 0 0 -2.62632e-06 -4.78736e-06 -5.13637e-06 -3.45555e-06 0 0 -4.92569e-06 -8.53796e-06 -9.85534e-06 -6.24357e-06 0 0 -8.46344e-06 -1.49868e-05 -1.64114e-05 -1.2102e-05 0 0 -1.25307e-05 -2.555e-05 -3.00259e-05 -1.96847e-05 0 0 -2.05092e-05 -3.68975e-05 -4.50737e-05 -3.18679e-05 0 0 -2.85361e-05 -5.61129e-05 -6.77462e-05 -4.75044e-05 0 0 -4.1e-05 -8.12185e-05 -9.67975e-05 -6.83374e-05 0 0 -5.73273e-05 -0.000108308 -0.000127829 -8.86032e-05 0 0 -7.56018e-05 -0.000137617 -0.00015695 -0.000105773 0 0 -9.82561e-05 -0.000169449 -0.000183217 -0.000119067 0 0 -0.00012134 -0.000202308 -0.000207438 -0.000129996 0 0 -0.000143505 -0.000234426 -0.000230012 -0.000140198 0 0 -0.000164105 -0.000263628 -0.000254258 -0.000150047 0 0 -0.000181763 -0.00028639 -0.000280031 -0.000158482 0 0 -0.0001942 -0.000306629 -0.000304532 -0.000164793 0 0 -0.000214519 -0.000349513 -0.000327083 -0.000178917 0 0 -0.000259401 -0.000415645 -0.00036215 -0.000193213 0 0 -0.000316998 -0.00049742 -0.00040913 -0.000192263 0 0 -0.000377128 -0.000571273 -0.000456363 -0.00018081 0 0 -0.00043514 -0.000687303 -0.000515773 -0.000136211 0 0 -0.000485307 -0.0008948 -0.000601388 2.84729e-05 0 0 -0.000514908 -0.00110027 -0.000682506 0.000254597 0 0 -0.00050872 -0.00110213 -0.000677296 0.0002841 0 0 -0.00048076 -0.00101111 -0.000601525 0.000246482 0 0 -0.000402096 -0.000729286 -0.000435805 0.000118421 0 0 -0.000292187 -0.000446911 -0.000314634 -2.15831e-06 0 0 -0.000215447 -0.000237402 -0.000236581 -0.000317697 0 0 -5.79932e-05 0.000273691 -1.58676e-05 -0.000609725 0 0 0.000283037 0.000858207 0.000575322 -0.000372583 0 0 0.000404496 0.000886544 0.000819303 0.000169407 0 0 0.000395577 0.000823455 0.000804275 0.000390427 0 0 0.000364914 0.000700623 0.000730468 0.000397407 0 0 0.000329634 0.000593518 0.000624319 0.000382771 0 0 0.000300724 0.000515576 0.000535685 0.000338092 0 0 0.000280384 0.000467087 0.000474632 0.000296589 0 0 0.000264818 0.000434442 0.000434006 0.000265894 0 0 0.000249645 0.000405831 0.00040322 0.000244848 0 0 0.000234019 0.000378569 0.000377155 0.000230313 0 0 0.000218087 0.000352755 0.000352538 0.00021711 0 0 0.00019994 0.000323954 0.000324217 0.000200231 0 0 0.000178019 0.000288942 0.000289771 0.000179338 0 0 0.000152016 0.000247167 0.000248456 0.000154098 0 0 0.000122693 0.000199793 0.000201256 0.000125062 0 0 9.18858e-05 0.000149797 0.000151134 9.40501e-05 0 0 6.23072e-05 0.000101642 0.000102646 6.39335e-05 0 0 3.74265e-05 6.10462e-05 6.16458e-05 3.83969e-05 0 0 1.94017e-05 3.16233e-05 3.19075e-05 1.98616e-05 0 0 8.49601e-06 1.38318e-05 1.39368e-05 8.66582e-06 0 0 3.17352e-06 5.16007e-06 5.19119e-06 3.22388e-06 0 0 1.04918e-06 1.70392e-06 1.71171e-06 1.06179e-06 0 0 3.21898e-07 5.22273e-07 5.24042e-07 3.2476e-07 0 0 9.46593e-08 1.53469e-07 1.53848e-07 9.52728e-08 0 0 2.70907e-08 4.38972e-08 4.39758e-08 2.72174e-08 0 0 7.59303e-09 1.22986e-08 1.23146e-08 7.61854e-09 0 0 2.08912e-09 3.38282e-09 3.38614e-09 2.09429e-09 0 0 5.64696e-10 9.14363e-10 9.15113e-10 5.65869e-10 0 0 1.49986e-10 2.43197e-10 2.43222e-10 1.50504e-10 0 0 3.92473e-11 6.38116e-11 6.37862e-11 3.96373e-11 0 0 1.02063e-11 1.67357e-11 1.66952e-11 1.05381e-11 0 0 2.90295e-12 4.39129e-12 4.77418e-12 2.87611e-12 0 0 1.12175e-12 1.23324e-12 1.82548e-12 8.3856e-13 0 0 5.53271e-13 7.12504e-13 8.67093e-13 3.806e-13 0 0 3.49334e-13 7.56595e-13 4.91617e-13 3.12055e-13 0 0 4.75873e-13 5.11453e-13 6.90353e-13 8.2931e-14 0 0 5.18308e-13 4.87741e-13 7.7712e-13 -5.46801e-14 0 0 3.28064e-13 8.42094e-13 4.45842e-13 1.49979e-13 0 0 5.30557e-13 5.37492e-13 6.55853e-13 1.4429e-13 0 0 5.05916e-13 5.42867e-13 6.67775e-13 1.94167e-13 0 0 4.92202e-13 6.07281e-13 5.44716e-13 3.08997e-13 0 0 6.48344e-13 4.67423e-13 6.22625e-13 2.63885e-13 0 0 4.26788e-13 9.03826e-13 2.50304e-13 3.28842e-13 0 0 4.45279e-13 9.2108e-13 2.69703e-13 2.38061e-13 0 0 5.1409e-13 7.78114e-13 4.1935e-13 2.30038e-13 0 0 5.62276e-13 6.95658e-13 5.28656e-13 1.53254e-13 0 0 7.24388e-13 4.32126e-13 8.19767e-13 -2.35485e-14 0 0 5.33088e-13 6.53079e-13 5.40203e-13 3.06006e-13 0 0 4.21143e-13 7.63773e-13 4.15756e-13 4.6141e-13 0 0 2.74525e-13 9.18891e-13 4.27072e-13 3.07239e-13 0 0 3.26449e-13 8.41932e-13 4.8132e-13 2.34158e-13 0 0 5.43826e-13 4.18864e-13 8.6029e-13 9.0387e-14 0 0 4.02676e-13 5.93724e-13 5.64482e-13 4.82893e-13 0 0 4.0292e-13 6.78393e-13 4.56435e-13 5.87768e-13 0 0 4.53808e-13 5.85862e-13 8.23439e-13 1.45715e-13 0 0 5.13591e-13 4.17353e-13 9.38321e-13 1.35447e-13 0 0 2.78868e-13 6.18835e-13 7.63924e-13 2.92503e-13 0 0 1.43696e-13 7.43512e-13 6.85574e-13 3.51764e-13 0 0 3.95144e-13 3.81871e-13 9.211e-13 3.13716e-13 0 0 3.52194e-13 4.97132e-13 7.0035e-13 4.57271e-13 0 0 2.72472e-13 5.90196e-13 6.42599e-13 3.93627e-13 0 0 1.98263e-13 5.69892e-13 8.04341e-13 2.4364e-13 0 0 -1.10688e-13 8.26543e-13 6.63796e-13 2.67146e-13 0 0 6.78742e-16 5.26963e-13 9.98699e-13 -3.23562e-14 0 0 1.32296e-13 4.12554e-13 1.03679e-12 -1.02215e-13 0 0 1.98359e-14 7.62035e-13 6.35118e-13 4.82293e-14 0 0 2.17999e-13 4.52797e-13 9.42783e-13 -1.81873e-13 0 0 2.53556e-13 3.08313e-13 1.3095e-12 -5.39452e-13 0 0 -1.16572e-13 9.46948e-13 9.00717e-13 -4.30978e-13 0 0 -3.00031e-13 1.17981e-12 6.76585e-13 -1.84107e-13 0 0 1.42234e-13 5.63625e-13 1.03679e-12 -1.95544e-13 0 0 2.54486e-13 5.13569e-13 1.11726e-12 -3.16758e-13 0 0 3.46935e-14 8.11846e-13 8.84959e-13 -2.14209e-13 0 0 2.25538e-14 7.1001e-13 1.0024e-12 -2.15662e-13 0 0 -2.14619e-15 6.37247e-13 1.26621e-12 -4.47227e-13 0
				</DataArray>
				<DataArray Name="VitesseY" type="Float32" format="ascii">