<?xml version="1.0"?>
<VTKFile type="PolyData">
	<PolyData>
		<Piece NumberOfPoints="1206" NumberOfPolys="1000">
			<Points>
				<DataArray type="Float32" NumberOfComponents="3" format="ascii">
 0 0 0 0.02 0 0 0.04 0 0 0.06 0 0 0.08 0 0 0.1 0 0 0 0.005 0 0.02 0.005 0 0.04 0.005 0 0.06 0.005 0 0.08 0.005 0 0.1 0.005 0 0 0.01 0 0.02 0.01 0 0.04 0.01 0 0.06 0.01 0 0.08 0.01 0 0.1 0.01 0 0 0.015 0 0.02 0.015 0 0.04 0.015 0 0.06 0.015 0 0.08 0.015 0 0.1 0.015 0 0 0.02 0 0.02 0.02 0 0.04 0.02 0 0.06 0.02 0 0.08 0.02 0 0.1 0.02 0 0 0.025 0 0.02 0.025 0 0.04 0.025 0 0.06 0.025 0 0.08 0.025 0 0.1 0.025 0 0 0.03 0 0.02 0.03 0 0.04 0.03 0 0.06 0.03 0 0.08 0.03 0 0.1 0.03 0 0 0.035 0 0.02 0.035 0 0.04 0.035 0 0.06 0.035 0 0.08 0.035 0 0.1 0.035 0 0 0.04 0 0.02 0.04 0 0.04 0.04 0 0.06 0.04 0 0.08 0.04 0 0.1 0.04 0 0 0.045 0 0.02 0.045 0 0.04 0.045 0 0.06 0.045 0 0.08 0.045 0 0.1 0.045 0 0 0.05 0 0.02 0.05 0 0.04 0.05 0 0.06 0.05 0 0.08 0.05 0 0.1 0.05 0 0 0.055 0 0.02 0.055 0 0.04 0.055 0 0.06 0.055 0 0.08 0.055 0 0.1 0.055 0 0 0.06 0 0.02 0.06 0 0.04 0.06 0 0.06 0.06 0 0.08 0.06 0 0.1 0.06 0 0 0.065 0 0.02 0.065 0 0.04 0.065 0 0.06 0.065 0 0.08 0.065 0 0.1 0.065 0 0 0.07 0 0.02 0.07 0 0.04 0.07 0 0.06 0.07 0 0.08 0.07 0 0.1 0.07 0 0 0.075 0 0.02 0.075 0 0.04 0.075 0 0.06 0.075 0 0.08 0.075 0 0.1 0.075 0 0 0.08 0 0.02 0.08 0 0.04 0.08 0 0.06 0.08 0 0.08 0.08 0 0.1 0.08 0 0 0.085 0 0.02 0.085 0 0.04 0.085 0 0.06 0.085 0 0.08 0.085 0 0.1 0.085 0 0 0.09 0 0.02 0.09 0 0.04 0.09 0 0.06 0.09 0 0.08 0.09 0 0.1 0.09 0 0 0.095 0 0.02 0.095 0 0.04 0.095 0 0.06 0.095 0 0.08 0.095 0 0.1 0.095 0 0 0.1 0 0.02 0.1 0 0.04 0.1 0 0.06 0.1 0 0.08 0.1 0 0.1 0.1 0 0 0.105 0 0.02 0.105 0 0.04 0.105 0 0.06 0.105 0 0.08 0.105 0 0.1 0.105 0 0 0.11 0 0.02 0.11 0 0.04 0.11 0 0.06 0.11 0 0.08 0.11 0 0.1 0.11 0 0 0.115 0 0.02 0.115 0 0.04 0.115 0 0.06 0.115 0 0.08 0.115 0 0.1 0.115 0 0 0.12 0 0.02 0.12 0 0.04 0.12 0 0.06 0.12 0 0.08 0.12 0 0.1 0.12 0 0 0.125 0 0.02 0.125 0 0.04 0.125 0 0.06 0.125 0 0.08 0.125 0 0.1 0.125 0 0 0.13 0 0.02 0.13 0 0.04 0.13 0 0.06 0.13 0 0.08 0.13 0 0.1 0.13 0 0 0.135 0 0.02 0.135 0 0.04 0.135 0 0.06 0.135 0 0.08 0.135 0 0.1 0.135 0 0 0.14 0 0.02 0.14 0 0.04 0.14 0 0.06 0.14 0 0.08 0.14 0 0.1 0.14 0 0 0.145 0 0.02 0.145 0 0.04 0.145 0 0.06 0.145 0 0.08 0.145 0 0.1 0.145 0 0 0.15 0 0.02 0.15 0 0.04 0.15 0 0.06 0.15 0 0.08 0.15 0 0.1 0.15 0 0 0.155 0 0.02 0.155 0 0.04 0.155 0 0.06 0.155 0 0.08 0.155 0 0.1 0.155 0 0 0.16 0 0.02 0.16 0 0.04 0.16 0 0.06 0.16 0 0.08 0.16 0 0.1 0.16 0 0 0.165 0 0.02 0.165 0 0.04 0.165 0 0.06 0.165 0 0.08 0.165 0 0.1 0.165 0 0 0.17 0 0.02 0.17 0 0.04 0.17 0 0.06 0.17 0 0.08 0.17 0 0.1 0.17 0 0 0.175 0 0.02 0.175 0 0.04 0.175 0 0.06 0.175 0 0.08 0.175 0 0.1 0.175 0 0 0.18 0 0.02 0.18 0 0.04 0.18 0 0.06 0.18 0 0.08 0.18 0 0.1 0.18 0 0 0.185 0 0.02 0.185 0 0.04 0.185 0 0.06 0.185 0 0.08 0.185 0 0.1 0.185 0 0 0.19 0 0.02 0.19 0 0.04 0.19 0 0.06 0.19 0 0.08 0.19 0 0.1 0.19 0 0 0.195 0 0.02 0.195 0 0.04 0.195 0 0.06 0.195 0 0.08 0.195 0 0.1 0.195 0 0 0.2 0 0.02 0.2 0 0.04 0.2 0 0.06 0.2 0 0.08 0.2 0 0.1 0.2 0 0 0.205 0 0.02 0.205 0 0.04 0.205 0 0.06 0.205 0 0.08 0.205 0 0.1 0.205 0 0 0.21 0 0.02 0.21 0 0.04 0.21 0 0.06 0.21 0 0.08 0.21 0 0.1 0.21 0 0 0.215 0 0.02 0.215 0 0.04 0.215 0 0.06 0.215 0 0.08 0.215 0 0.1 0.215 0 0 0.22 0 0.02 0.22 0 0.04 0.22 0 0.06 0.22 0 0.08 0.22 0 0.1 0.22 0 0 0.225 0 0.02 0.225 0 0.04 0.225 0 0.06 0.225 0 0.08 0.225 0 0.1 0.225 0 0 0.23 0 0.02 0.23 0 0.04 0.23 0 0.06 0.23 0 0.08 0.23 0 0.1 0.23 0 0 0.235 0 0.02 0.235 0 0.04 0.235 0 0.06 0.235 0 0.08 0.235 0 0.1 0.235 0 0 0.24 0 0.02 0.24 0 0.04 0.24 0 0.06 0.24 0 0.08 0.24 0 0.1 0.24 0 0 0.245 0 0.02 0.245 0 0.04 0.245 0 0.06 0.245 0 0.08 0.245 0 0.1 0.245 0 0 0.25 0 0.02 0.25 0 0.04 0.25 0 0.06 0.25 0 0.08 0.25 0 0.1 0.25 0 0 0.255 0 0.02 0.255 0 0.04 0.255 0 0.06 0.255 0 0.08 0.255 0 0.1 0.255 0 0 0.26 0 0.02 0.26 0 0.04 0.26 0 0.06 0.26 0 0.08 0.26 0 0.1 0.26 0 0 0.265 0 0.02 0.265 0 0.04 0.265 0 0.06 0.265 0 0.08 0.265 0 0.1 0.265 0 0 0.27 0 0.02 0.27 0 0.04 0.27 0 0.06 0.27 0 0.08 0.27 0 0.1 0.27 0 0 0.275 0 0.02 0.275 0 0.04 0.275 0 0.06 0.275 0 0.08 0.275 0 0.1 0.275 0 0 0.28 0 0.02 0.28 0 0.04 0.28 0 0.06 0.28 0 0.08 0.28 0 0.1 0.28 0 0 0.285 0 0.02 0.285 0 0.04 0.285 0 0.06 0.285 0 0.08 0.285 0 0.1 0.285 0 0 0.29 0 0.02 0.29 0 0.04 0.29 0 0.06 0.29 0 0.08 0.29 0 0.1 0.29 0 0 0.295 0 0.02 0.295 0 0.04 0.295 0 0.06 0.295 0 0.08 0.295 0 0.1 0.295 0 0 0.3 0 0.02 0.3 0 0.04 0.3 0 0.06 0.3 0 0.08 0.3 0 0.1 0.3 0 0 0.305 0 0.02 0.305 0 0.04 0.305 0 0.06 0.305 0 0.08 0.305 0 0.1 0.305 0 0 0.31 0 0.02 0.31 0 0.04 0.31 0 0.06 0.31 0 0.08 0.31 0 0.1 0.31 0 0 0.315 0 0.02 0.315 0 0.04 0.315 0 0.06 0.315 0 0.08 0.315 0 0.1 0.315 0 0 0.32 0 0.02 0.32 0 0.04 0.32 0 0.06 0.32 0 0.08 0.32 0 0.1 0.32 0 0 0.325 0 0.02 0.325 0 0.04 0.325 0 0.06 0.325 0 0.08 0.325 0 0.1 0.325 0 0 0.33 0 0.02 0.33 0 0.04 0.33 0 0.06 0.33 0 0.08 0.33 0 0.1 0.33 0 0 0.335 0 0.02 0.335 0 0.04 0.335 0 0.06 0.335 0 0.08 0.335 0 0.1 0.335 0 0 0.34 0 0.02 0.34 0 0.04 0.34 0 0.06 0.34 0 0.08 0.34 0 0.1 0.34 0 0 0.345 0 0.02 0.345 0 0.04 0.345 0 0.06 0.345 0 0.08 0.345 0 0.1 0.345 0 0 0.35 0 0.02 0.35 0 0.04 0.35 0 0.06 0.35 0 0.08 0.35 0 0.1 0.35 0 0 0.355 0 0.02 0.355 0 0.04 0.355 0 0.06 0.355 0 0.08 0.355 0 0.1 0.355 0 0 0.36 0 0.02 0.36 0 0.04 0.36 0 0.06 0.36 0 0.08 0.36 0 0.1 0.36 0 0 0.365 0 0.02 0.365 0 0.04 0.365 0 0.06 0.365 0 0.08 0.365 0 0.1 0.365 0 0 0.37 0 0.02 0.37 0 0.04 0.37 0 0.06 0.37 0 0.08 0.37 0 0.1 0.37 0 0 0.375 0 0.02 0.375 0 0.04 0.375 0 0.06 0.375 0 0.08 0.375 0 0.1 0.375 0 0 0.38 0 0.02 0.38 0 0.04 0.38 0 0.06 0.38 0 0.08 0.38 0 0.1 0.38 0 0 0.385 0 0.02 0.385 0 0.04 0.385 0 0.06 0.385 0 0.08 0.385 0 0.1 0.385 0 0 0.39 0 0.02 0.39 0 0.04 0.39 0 0.06 0.39 0 0.08 0.39 0 0.1 0.39 0 0 0.395 0 0.02 0.395 0 0.04 0.395 0 0.06 0.395 0 0.08 0.395 0 0.1 0.395 0 0 0.4 0 0.02 0.4 0 0.04 0.4 0 0.06 0.4 0 0.08 0.4 0 0.1 0.4 0 0 0.405 0 0.02 0.405 0 0.04 0.405 0 0.06 0.405 0 0.08 0.405 0 0.1 0.405 0 0 0.41 0 0.02 0.41 0 0.04 0.41 0 0.06 0.41 0 0.08 0.41 0 0.1 0.41 0 0 0.415 0 0.02 0.415 0 0.04 0.415 0 0.06 0.415 0 0.08 0.415 0 0.1 0.415 0 0 0.42 0 0.02 0.42 0 0.04 0.42 0 0.06 0.42 0 0.08 0.42 0 0.1 0.42 0 0 0.425 0 0.02 0.425 0 0.04 0.425 0 0.06 0.425 0 0.08 0.425 0 0.1 0.425 0 0 0.43 0 0.02 0.43 0 0.04 0.43 0 0.06 0.43 0 0.08 0.43 0 0.1 0.43 0 0 0.435 0 0.02 0.435 0 0.04 0.435 0 0.06 0.435 0 0.08 0.435 0 0.1 0.435 0 0 0.44 0 0.02 0.44 0 0.04 0.44 0 0.06 0.44 0 0.08 0.44 0 0.1 0.44 0 0 0.445 0 0.02 0.445 0 0.04 0.445 0 0.06 0.445 0 0.08 0.445 0 0.1 0.445 0 0 0.45 0 0.02 0.45 0 0.04 0.45 0 0.06 0.45 0 0.08 0.45 0 0.1 0.45 0 0 0.455 0 0.02 0.455 0 0.04 0.455 0 0.06 0.455 0 0.08 0.455 0 0.1 0.455 0 0 0.46 0 0.02 0.46 0 0.04 0.46 0 0.06 0.46 0 0.08 0.46 0 0.1 0.46 0 0 0.465 0 0.02 0.465 0 0.04 0.465 0 0.06 0.465 0 0.08 0.465 0 0.1 0.465 0 0 0.47 0 0.02 0.47 0 0.04 0.47 0 0.06 0.47 0 0.08 0.47 0 0.1 0.47 0 0 0.475 0 0.02 0.475 0 0.04 0.475 0 0.06 0.475 0 0.08 0.475 0 0.1 0.475 0 0 0.48 0 0.02 0.48 0 0.04 0.48 0 0.06 0.48 0 0.08 0.48 0 0.1 0.48 0 0 0.485 0 0.02 0.485 0 0.04 0.485 0 0.06 0.485 0 0.08 0.485 0 0.1 0.485 0 0 0.49 0 0.02 0.49 0 0.04 0.49 0 0.06 0.49 0 0.08 0.49 0 0.1 0.49 0 0 0.495 0 0.02 0.495 0 0.04 0.495 0 0.06 0.495 0 0.08 0.495 0 0.1 0.495 0 0 0.5 0 0.02 0.5 0 0.04 0.5 0 0.06 0.5 0 0.08 0.5 0 0.1 0.5 0 0 0.505 0 0.02 0.505 0 0.04 0.505 0 0.06 0.505 0 0.08 0.505 0 0.1 0.505 0 0 0.51 0 0.02 0.51 0 0.04 0.51 0 0.06 0.51 0 0.08 0.51 0 0.1 0.51 0 0 0.515 0 0.02 0.515 0 0.04 0.515 0 0.06 0.515 0 0.08 0.515 0 0.1 0.515 0 0 0.52 0 0.02 0.52 0 0.04 0.52 0 0.06 0.52 0 0.08 0.52 0 0.1 0.52 0 0 0.525 0 0.02 0.525 0 0.04 0.525 0 0.06 0.525 0 0.08 0.525 0 0.1 0.525 0 0 0.53 0 0.02 0.53 0 0.04 0.53 0 0.06 0.53 0 0.08 0.53 0 0.1 0.53 0 0 0.535 0 0.02 0.535 0 0.04 0.535 0 0.06 0.535 0 0.08 0.535 0 0.1 0.535 0 0 0.54 0 0.02 0.54 0 0.04 0.54 0 0.06 0.54 0 0.08 0.54 0 0.1 0.54 0 0 0.545 0 0.02 0.545 0 0.04 0.545 0 0.06 0.545 0 0.08 0.545 0 0.1 0.545 0 0 0.55 0 0.02 0.55 0 0.04 0.55 0 0.06 0.55 0 0.08 0.55 0 0.1 0.55 0 0 0.555 0 0.02 0.555 0 0.04 0.555 0 0.06 0.555 0 0.08 0.555 0 0.1 0.555 0 0 0.56 0 0.02 0.56 0 0.04 0.56 0 0.06 0.56 0 0.08 0.56 0 0.1 0.56 0 0 0.565 0 0.02 0.565 0 0.04 0.565 0 0.06 0.565 0 0.08 0.565 0 0.1 0.565 0 0 0.57 0 0.02 0.57 0 0.04 0.57 0 0.06 0.57 0 0.08 0.57 0 0.1 0.57 0 0 0.575 0 0.02 0.575 0 0.04 0.575 0 0.06 0.575 0 0.08 0.575 0 0.1 0.575 0 0 0.58 0 0.02 0.58 0 0.04 0.58 0 0.06 0.58 0 0.08 0.58 0 0.1 0.58 0 0 0.585 0 0.02 0.585 0 0.04 0.585 0 0.06 0.585 0 0.08 0.585 0 0.1 0.585 0 0 0.59 0 0.02 0.59 0 0.04 0.59 0 0.06 0.59 0 0.08 0.59 0 0.1 0.59 0 0 0.595 0 0.02 0.595 0 0.04 0.595 0 0.06 0.595 0 0.08 0.595 0 0.1 0.595 0 0 0.6 0 0.02 0.6 0 0.04 0.6 0 0.06 0.6 0 0.08 0.6 0 0.1 0.6 0 0 0.605 0 0.02 0.605 0 0.04 0.605 0 0.06 0.605 0 0.08 0.605 0 0.1 0.605 0 0 0.61 0 0.02 0.61 0 0.04 0.61 0 0.06 0.61 0 0.08 0.61 0 0.1 0.61 0 0 0.615 0 0.02 0.615 0 0.04 0.615 0 0.06 0.615 0 0.08 0.615 0 0.1 0.615 0 0 0.62 0 0.02 0.62 0 0.04 0.62 0 0.06 0.62 0 0.08 0.62 0 0.1 0.62 0 0 0.625 0 0.02 0.625 0 0.04 0.625 0 0.06 0.625 0 0.08 0.625 0 0.1 0.625 0 0 0.63 0 0.02 0.63 0 0.04 0.63 0 0.06 0.63 0 0.08 0.63 0 0.1 0.63 0 0 0.635 0 0.02 0.635 0 0.04 0.635 0 0.06 0.635 0 0.08 0.635 0 0.1 0.635 0 0 0.64 0 0.02 0.64 0 0.04 0.64 0 0.06 0.64 0 0.08 0.64 0 0.1 0.64 0 0 0.645 0 0.02 0.645 0 0.04 0.645 0 0.06 0.645 0 0.08 0.645 0 0.1 0.645 0 0 0.65 0 0.02 0.65 0 0.04 0.65 0 0.06 0.65 0 0.08 0.65 0 0.1 0.65 0 0 0.655 0 0.02 0.655 0 0.04 0.655 0 0.06 0.655 0 0.08 0.655 0 0.1 0.655 0 0 0.66 0 0.02 0.66 0 0.04 0.66 0 0.06 0.66 0 0.08 0.66 0 0.1 0.66 0 0 0.665 0 0.02 0.665 0 0.04 0.665 0 0.06 0.665 0 0.08 0.665 0 0.1 0.665 0 0 0.67 0 0.02 0.67 0 0.04 0.67 0 0.06 0.67 0 0.08 0.67 0 0.1 0.67 0 0 0.675 0 0.02 0.675 0 0.04 0.675 0 0.06 0.675 0 0.08 0.675 0 0.1 0.675 0 0 0.68 0 0.02 0.68 0 0.04 0.68 0 0.06 0.68 0 0.08 0.68 0 0.1 0.68 0 0 0.685 0 0.02 0.685 0 0.04 0.685 0 0.06 0.685 0 0.08 0.685 0 0.1 0.685 0 0 0.69 0 0.02 0.69 0 0.04 0.69 0 0.06 0.69 0 0.08 0.69 0 0.1 
[...]
			<PointData Scalars="VitesseX">
				<DataArray Name="VitesseX" type="Float32" format="ascii">
 0 4.71894e-15 -3.6392e-14 1.38245e-15 7.8805e-15 0 0 2.06276e-15 -3.33452e-14 -6.45555e-15 1.59029e-14 0 0 -2.47254e-14 2.72311e-15 -3.29107e-14 3.09252e-14 0 0 1.26478e-14 -3.8094e-14 -2.39002e-17 1.54343e-14 0 0 1.17355e-14 -2.7035e-14 -2.66701e-14 3.19344e-14 0 0 -5.53349e-14 3.38931e-14 -6.66025e-14 3.88031e-14 0 0 -3.08777e-14 -5.30355e-14 5.04895e-14 -5.69546e-14 0 0 2.76562e-14 -1.27016e-13 1.2488e-13 -1.41609e-13 0 0 8.92464e-15 -7.39405e-14 3.52718e-14 -8.02841e-14 0 0 -5.20407e-14 3.65853e-14 -1.23288e-13 5.57404e-14 0 0 2.52023e-15 -4.10193e-14 -9.63531e-14 6.37044e-14 0 0 -4.76646e-14 -1.87714e-14 -9.26497e-14 1.30051e-14 0 0 3.28791e-14 -1.33285e-13 2.79078e-14 -1.03171e-13 0 0 -2.66598e-14 -6.12242e-14 -4.14434e-15 -8.61319e-14 0 0 -1.01204e-13 -7.56374e-16 -6.85161e-14 -2.06922e-14 0 0 5.21581e-14 -2.4155e-13 1.03506e-13 -8.09243e-14 0 0 -1.29811e-13 2.7322e-14 -7.30272e-14 1.41156e-14 0 0 -7.70165e-14 8.39e-16 -7.46944e-14 1.01961e-13 0 0 -5.78493e-14 3.0887e-15 -1.27162e-13 1.97343e-13 0 0 -1.00361e-13 3.56875e-14 -1.20206e-13 1.26006e-13 0 0 6.50457e-14 -2.28772e-13 1.37264e-13 -1.09365e-13 0 0 3.96752e-14 -2.04745e-13 9.25134e-14 -1.1692e-13 0 0 -9.40115e-14 2.57022e-14 -2.02267e-13 3.22478e-14 0 0 -1.61129e-13 1.32991e-13 -3.15993e-13 5.91606e-14 0 0 1.40896e-14 -1.81366e-13 2.9048e-14 -1.84596e-13 0 0 1.98027e-13 -4.50746e-13 2.74314e-13 -3.60004e-13 0 0 9.16472e-15 -1.16868e-13 -7.80991e-14 -1.2794e-13 0 0 -1.38647e-13 1.78458e-13 -3.90051e-13 1.11109e-13 0 0 -3.12208e-14 3.31247e-14 -2.39699e-13 1.28028e-14 0 0 1.04255e-13 -2.38502e-13 6.26131e-14 -1.82981e-13 0 0 2.43122e-15 -1.74329e-13 4.6774e-14 -1.48922e-13 0 0 1.03534e-14 -1.87252e-13 4.09049e-14 -1.47684e-13 0 0 2.21696e-14 -1.4933e-13 -3.27129e-14 -1.08204e-13 0 0 -1.95971e-13 1.81269e-13 -3.44658e-13 9.31414e-14 0 0 1.44188e-14 -1.84185e-13 -7.49692e-15 -1.05473e-13 0 0 9.53201e-14 -3.78718e-13 1.78857e-13 -1.83691e-13 0 0 1.13286e-13 -3.36801e-13 2.51155e-14 1.08539e-13 0 0 -1.31323e-13 1.26337e-13 -4.11093e-13 5.17432e-13 0 0 -1.24998e-13 1.12081e-13 -4.05481e-13 5.79441e-13 0 0 5.30331e-14 -2.32739e-13 -9.70313e-14 3.03822e-13 0 0 5.27481e-15 -2.07401e-13 -9.05523e-15 7.49391e-15 0 0 8.77154e-14 -2.89734e-13 6.42991e-14 -1.88362e-13 0 0 -1.44065e-13 3.97522e-14 -2.06231e-13 -8.83198e-14 0 0 -4.45222e-14 -1.52218e-13 4.14581e-14 -2.52267e-13 0 0 2.45601e-13 -5.58909e-13 3.37396e-13 -3.97083e-13 0 0 -6.04582e-14 -6.65377e-14 -2.303e-13 3.18225e-14 0 0 1.21771e-14 -4.0523e-14 -4.77362e-13 3.38103e-13 0 0 -1.80789e-14 -2.89576e-14 -4.69328e-13 2.96799e-13 0 0 -1.58388e-13 -1.99342e-14 -2.92272e-13 1.68451e-14 0 0 1.48493e-13 -5.94893e-13 2.63818e-13 -3.61439e-13 0 0 1.343e-13 -7.10148e-13 4.07838e-13 -4.16097e-13 0 0 1.89358e-13 -7.35276e-13 2.10381e-13 -3.88873e-14 0 0 -3.92967e-13 2.00816e-13 -6.58034e-13 5.8611e-13 0 0 -1.82315e-13 -1.96033e-14 -3.59745e-13 2.76637e-13 0 0 1.81832e-13 -7.14006e-13 2.83804e-13 -1.05722e-13 0 0 -3.33312e-13 -2.21366e-13 -1.06278e-13 1.78579e-13 0 0 1.17598e-13 -6.17685e-13 2.11271e-13 -1.63458e-13 0 0 -1.99429e-14 -2.9747e-13 4.39096e-14 -2.40918e-13 0 0 6.05135e-14 -3.34644e-13 8.43504e-14 -2.44495e-13 0 0 3.31474e-13 -6.94348e-13 3.13158e-13 -2.10981e-13 0 0 -2.0282e-13 -9.6958e-14 -2.27504e-13 2.70771e-13 0 0 -2.68871e-13 -1.02482e-14 -3.63131e-13 3.67368e-13 0 0 -1.97593e-13 -1.75185e-13 -7.49799e-14 1.12691e-13 0 0 1.16892e-13 -5.40916e-13 5.10946e-13 -4.98656e-13 0 0 6.70085e-14 -4.09638e-13 3.69411e-13 -4.17023e-13 0 0 -2.71362e-13 2.14295e-14 -2.37448e-13 1.78889e-13 0 0 -2.28287e-13 1.57781e-14 -3.85357e-13 3.17137e-13 0 0 -2.1799e-13 -2.26659e-14 -2.72423e-13 1.67951e-13 0 0 1.71636e-13 -4.86228e-13 2.31443e-13 -3.21443e-13 0 0 2.38145e-13 -5.30966e-13 -6.72245e-15 -1.91002e-14 0 0 -4.7824e-13 2.88292e-13 -7.78113e-13 5.81836e-13 0 0 -7.21883e-14 -3.0029e-13 -1.06243e-13 5.69589e-14 0 0 1.24772e-13 -7.40899e-13 3.3567e-13 -6.71752e-14 0 0 1.251e-13 -8.46474e-13 4.37007e-13 2.0507e-13 0 0 -1.64192e-13 -2.84237e-13 -2.09852e-13 8.40273e-13 0 0 -5.36706e-13 1.63322e-13 -7.99235e-13 1.35488e-12 0 0 9.73579e-14 -8.71896e-13 2.36025e-13 3.51612e-13 0 0 -1.24959e-13 -6.83656e-13 3.18475e-13 -2.41192e-13 0 0 -1.65355e-14 -6.98253e-13 2.82109e-13 -4.42534e-13 0 0 -3.29016e-13 -1.16341e-13 -1.85432e-13 -3.07875e-13 0 0 -2.73532e-13 -3.60014e-13 -2.25516e-13 1.06018e-13 0 0 2.32545e-13 -9.71722e-13 -2.49859e-13 1.46182e-13 0 0 -6.44084e-13 4.39623e-13 -1.3908e-12 3.05177e-13 0 0 -2.30675e-13 -1.47213e-13 -5.54976e-13 -2.53252e-13 0 0 5.52191e-13 -1.51609e-12 8.48089e-13 -9.58861e-13 0 0 -3.76941e-13 -2.27518e-13 -1.70875e-13 -6.36268e-13 0 0 -6.79448e-13 5.72693e-13 -1.20483e-12 -2.20788e-13 0 0 3.16521e-14 -4.98812e-13 -3.42692e-13 -5.58318e-13 0 0 -2.40194e-14 -5.61405e-13 5.17921e-14 -9.856e-13 0 0 2.29008e-13 -7.63833e-13 1.52234e-13 -9.06528e-13 0 0 -1.4032e-13 9.02104e-14 -6.64626e-13 -3.55082e-13 0 0 -4.52552e-13 7.35658e-13 -1.33681e-12 -1.15106e-13 0 0 1.61995e-13 -5.53094e-13 -1.46959e-13 -4.4102e-13 0 0 6.62058e-14 -6.56631e-13 2.63527e-13 -8.36339e-13 0 0 3.61591e-13 -8.82313e-13 -1.14027e-14 -4.17235e-13 0 0 -7.95188e-13 7.16743e-13 -1.37517e-12 3.85718e-13 0 0 4.4305e-14 -1.57597e-13 -5.45609e-13 -1.16462e-13 0 0 3.70485e-13 -7.935e-13 1.09998e-13 -3.35219e-13 0 0 -3.79967e-13 -2.61319e-13 3.83105e-13 -7.14751e-13 0 0 3.20378e-13 -8.1931e-13 3.01172e-13 -1.74099e-13 0 0 1.2834e-13 -5.86774e-13 -8.21863e-15 2.09588e-13 0 0 -2.39543e-13 -2.09784e-13 -5.28627e-13 1.52733e-13 0 0 -3.04007e-13 -2.11715e-13 -5.19551e-13 -4.27393e-14 0 0 -2.90178e-13 -2.96987e-13 -2.93201e-13 -7.85632e-14 0 0 -2.14682e-13 -2.94803e-13 1.03496e-13 2.64434e-13 0 0 -5.21563e-13 2.88025e-13 -4.58639e-13 5.00333e-13 0 0 -3.10072e-13 1.38285e-14 -3.56372e-13 2.39052e-13 0 0 1.66598e-13 -8.0463e-13 4.1108e-13 -5.23798e-13 0 0 2.65765e-13 -9.80342e-13 5.2357e-13 -6.76931e-13 0 0 -1.7559e-13 -6.42523e-14 -6.28886e-13 9.36074e-14 0 0 -7.38796e-13 8.9622e-13 -1.60747e-12 5.72503e-13 0 0 -1.46672e-13 -2.4616e-13 -4.44767e-13 -9.52805e-14 0 0 3.77575e-13 -1.08155e-12 5.15503e-13 -1.00809e-12 0 0 3.55464e-13 -9.79616e-13 3.92295e-13 -1.05311e-12 0 0 -2.55706e-13 5.16408e-14 -7.06651e-13 -2.67706e-13 0 0 -7.56464e-13 7.47619e-13 -1.29969e-12 1.13548e-13 0 0 -2.67059e-13 -3.42287e-13 -1.8116e-13 -3.26243e-13 0 0 3.89056e-13 -1.24566e-12 6.90723e-13 -1.03441e-12 0 0 -1.56455e-13 -2.94907e-13 -2.83087e-13 -5.1068e-13 0 0 -1.71369e-13 -4.06592e-13 -4.5158e-13 1.01144e-13 0 0 -3.66618e-13 -2.268e-13 -5.33426e-13 7.32169e-14 0 0 -5.7789e-13 -2.15843e-13 -3.79432e-13 -1.02473e-14 0 0 3.91748e-13 -1.52044e-12 6.39867e-13 -6.9565e-13 0 0 -3.63751e-13 -1.5791e-13 -6.74771e-13 -2.0114e-13 0 0 -3.02156e-13 -3.05787e-13 -6.62324e-13 2.51005e-13 0 0 -3.03561e-13 -3.10497e-13 -4.72506e-13 2.48149e-14 0 0 -5.60578e-13 -2.66898e-13 -3.19839e-13 -1.02776e-13 0 0 4.74638e-13 -1.72011e-12 8.46157e-13 -8.14115e-13 0 0 -2.46116e-13 -4.09475e-13 -3.52996e-13 -3.40243e-13 0 0 -3.06804e-13 -3.45992e-13 -5.48556e-13 2.02353e-13 0 0 -2.81879e-13 -4.28315e-13 -3.28884e-13 -4.72066e-14 0 0 -5.42711e-13 -4.11955e-13 -1.11152e-13 -2.27954e-13 0 0 3.83228e-13 -1.63908e-12 9.41306e-13 -9.86758e-13 0 0 -2.9978e-13 -2.73873e-13 -3.09432e-13 -5.85828e-13 0 0 -2.83283e-13 -3.27801e-13 -5.27864e-13 7.73431e-14 0 0 -2.6935e-13 -3.55091e-13 -4.64558e-13 3.33523e-14 0 0 -4.65809e-13 -3.06843e-13 -3.60498e-13 -7.16967e-14 0 0 4.43091e-13 -1.50328e-12 5.74304e-13 -6.88602e-13 0 0 -1.52193e-13 -2.10306e-13 -6.15375e-13 -4.04411e-13 0 0 -2.55272e-13 -1.19333e-13 -6.57476e-13 -1.61611e-13 0 0 -4.67704e-14 -6.19148e-13 -3.44127e-13 -1.57158e-13 0 0 -7.79729e-13 4.98938e-13 -1.47222e-12 2.20617e-13 0 0 3.5026e-13 -1.04919e-12 9.57482e-14 -9.20978e-13 0 0 5.87186e-13 -1.57434e-12 5.02835e-13 -9.89723e-13 0 0 -8.95682e-13 4.95609e-13 -1.74909e-12 5.02979e-13 0 0 -3.49761e-13 -4.34172e-13 -1.12897e-12 4.98667e-13 0 0 -4.6817e-13 -4.7192e-13 -7.22773e-13 1.98612e-14 0 0 9.34354e-14 -1.0972e-12 1.90905e-13 -8.27832e-13 0 0 4.94057e-13 -1.61691e-12 4.14481e-13 -4.08846e-13 0 0 -9.1083e-13 4.56067e-13 -2.00706e-12 1.64712e-12 0 0 -3.31156e-13 -5.05564e-13 -1.30812e-12 1.64391e-12 0 0 -4.12929e-13 -6.7582e-13 -5.29184e-13 3.20854e-13 0 0 1.66526e-13 -1.19512e-12 2.93177e-13 -1.2818e-12 0 0 1.80567e-13 -1.15274e-12 2.02391e-13 -1.40337e-12 0 0 -4.34765e-13 -5.00018e-13 -6.15718e-13 -3.95478e-13 0 0 -4.60697e-13 -3.12394e-13 -7.00729e-13 -3.05379e-13 0 0 -4.89794e-13 -3.46419e-13 -4.39736e-13 -3.86928e-13 0 0 4.28487e-13 -1.58054e-12 5.10076e-13 -6.77741e-13 0 0 -1.19083e-13 -3.97956e-13 -9.22093e-13 1.58371e-13 0 0 -6.34503e-13 5.98453e-13 -2.38408e-12 1.2514e-12 0 0 -7.79786e-13 6.94014e-13 -2.16814e-12 6.77945e-13 0 0 -5.02088e-14 -1.18928e-12 3.9817e-13 -9.54898e-13 0 0 6.23652e-13 -2.43558e-12 1.80651e-12 -2.17497e-12 0 0 -2.9611e-13 -5.74929e-13 -5.33864e-13 -1.02888e-12 0 0 -7.61176e-13 5.84715e-13 -2.40438e-12 7.1178e-13 0 0 -6.3004e-13 4.73323e-13 -2.09397e-12 4.23507e-13 0 0 3.092e-14 -1.02649e-12 -2.65797e-13 -7.86242e-13 0 0 5.78385e-13 -2.07442e-12 8.72057e-13 -2.36058e-12 0 0 -4.24644e-13 -5.44761e-13 -2.92642e-13 -2.51137e-12 0 0 -1.81406e-13 -9.93517e-13 1.9141e-13 -1.81106e-12 0 0 -2.64535e-15 -1.08291e-12 1.13348e-13 -1.12334e-12 0 0 -9.79764e-13 6.04243e-13 -1.93562e-12 7.16596e-14 0 0 -4.83429e-14 -6.40132e-13 -1.23749e-12 -3.01614e-13 0 0 -2.07814e-13 -6.70333e-13 -6.09221e-13 -8.67571e-13 0 0 -1.52713e-13 -1.11405e-12 3.63282e-13 -1.02928e-12 0 0 2.99625e-14 -1.04788e-12 1.42871e-14 -8.14567e-13 0 0 -8.6278e-13 5.93065e-13 -2.03092e-12 1.30046e-13 0 0 5.79232e-14 -7.15185e-13 -1.21253e-12 -2.0991e-13 0 0 -4.40902e-14 -8.10791e-13 -5.06331e-13 -1.0254e-12 0 0 -5.37787e-14 -1.16018e-12 3.92944e-13 -1.24777e-12 0 0 1.29836e-13 -1.21798e-12 1.31494e-13 -7.63737e-13 0 0 -8.51618e-13 4.62376e-13 -2.05179e-12 3.7672e-13 0 0 -6.99727e-14 -6.22095e-13 -1.46227e-12 -3.01475e-14 0 0 -1.48621e-13 -7.65855e-13 -6.19746e-13 -8.30895e-13 0 0 -1.11519e-13 -1.13526e-12 2.10477e-13 -8.42844e-13 0 0 1.0767e-13 -1.14291e-12 -2.1049e-13 -4.37879e-13 0 0 -9.52869e-13 7.30076e-13 -2.37759e-12 5.87744e-13 0 0 -5.37643e-14 -5.31895e-13 -1.47923e-12 1.64595e-13 0 0 -1.02734e-13 -7.56878e-13 -7.33473e-13 -5.33347e-13 0 0 1.67444e-13 -1.40422e-12 9.94e-14 -8.30551e-13 0 0 4.8532e-13 -1.34678e-12 -8.42931e-13 -3.83766e-13 0 0 -1.30649e-12 1.28748e-12 -3.44538e-12 6.56738e-13 0 0 6.12429e-13 -1.81112e-12 2.07368e-13 -1.3446e-12 0 0 1.2864e-12 -3.01223e-12 1.7642e-12 -1.95682e-12 0 0 -7.59817e-13 -2.68268e-15 -1.7335e-12 5.03141e-13 0 0 -8.42606e-13 3.69712e-13 -2.9869e-12 1.58166e-12 0 0 -1.30217e-12 6.99537e-13 -2.85003e-12 1.33985e-12 0 0 5.22351e-13 -2.25829e-12 8.99373e-13 -1.01434e-12 0 0 7.63569e-13 -2.68113e-12 1.4093e-12 -1.25507e-12 0 0 -1.00629e-12 2.65099e-13 -2.4546e-12 1.28579e-12 0 0 -7.88542e-13 3.17068e-13 -3.32348e-12 2.06327e-12 0
				</DataArray>
				<DataArray Name="VitesseY" type="Float32" format="ascii">