<?xml version="1.0"?>
<VTKFile type="PolyData">
	<PolyData>
		<Piece NumberOfPoints="1206" NumberOfPolys="1000">
			<Points>
				<DataArray type="Float32" NumberOfComponents="3" format="ascii">
 0 0 0 0.02 0 0 0.04 0 0 0.06 0 0 0.08 0 0 0.1 0 0 0 0.005 0 0.02 0.005 0 0.04 0.005 0 0.06 0.005 0 0.08 0.005 0 0.1 0.005 0 0 0.01 0 0.02 0.01 0 0.04 0.01 0 0.06 0.01 0 0.08 0.01 0 0.1 0.01 0 0 0.015 0 0.02 0.015 0 0.04 0.015 0 0.06 0.015 0 0.08 0.015 0 0.1 0.015 0 0 0.02 0 0.02 0.02 0 0.04 0.02 0 0.06 0.02 0 0.08 0.02 0 0.1 0.02 0 0 0.025 0 0.02 0.025 0 0.04 0.025 0 0.06 0.025 0 0.08 0.025 0 0.1 0.025 0 0 0.03 0 0.02 0.03 0 0.04 0.03 0 0.06 0.03 0 0.08 0.03 0 0.1 0.03 0 0 0.035 0 0.02 0.035 0 0.04 0.035 0 0.06 0.035 0 0.08 0.035 0 0.1 0.035 0 0 0.04 0 0.02 0.04 0 0.04 0.04 0 0.06 0.04 0 0.08 0.04 0 0.1 0.04 0 0 0.045 0 0.02 0.045 0 0.04 0.045 0 0.06 0.045 0 0.08 0.045 0 0.1 0.045 0 0 0.05 0 0.02 0.05 0 0.04 0.05 0 0.06 0.05 0 0.08 0.05 0 0.1 0.05 0 0 0.055 0 0.02 0.055 0 0.04 0.055 0 0.06 0.055 0 0.08 0.055 0 0.1 0.055 0 0 0.06 0 0.02 0.06 0 0.04 0.06 0 0.06 0.06 0 0.08 0.06 0 0.1 0.06 0 0 0.065 0 0.02 0.065 0 0.04 0.065 0 0.06 0.065 0 0.08 0.065 0 0.1 0.065 0 0 0.07 0 0.02 0.07 0 0.04 0.07 0 0.06 0.07 0 0.08 0.07 0 0.1 0.07 0 0 0.075 0 0.02 0.075 0 0.04 0.075 0 0.06 0.075 0 0.08 0.075 0 0.1 0.075 0 0 0.08 0 0.02 0.08 0 0.04 0.08 0 0.06 0.08 0 0.08 0.08 0 0.1 0.08 0 0 0.085 0 0.02 0.085 0 0.04 0.085 0 0.06 0.085 0 0.08 0.085 0 0.1 0.085 0 0 0.09 0 0.02 0.09 0 0.04 0.09 0 0.06 0.09 0 0.08 0.09 0 0.1 0.09 0 0 0.095 0 0.02 0.095 0 0.04 0.095 0 0.06 0.095 0 0.08 0.095 0 0.1 0.095 0 0 0.1 0 0.02 0.1 0 0.04 0.1 0 0.06 0.1 0 0.08 0.1 0 0.1 0.1 0 0 0.105 0 0.02 0.105 0 0.04 0.105 0 0.06 0.105 0 0.08 0.105 0 0.1 0.105 0 0 0.11 0 0.02 0.11 0 0.04 0.11 0 0.06 0.11 0 0.08 0.11 0 0.1 0.11 0 0 0.115 0 0.02 0.115 0 0.04 0.115 0 0.06 0.115 0 0.08 0.115 0 0.1 0.115 0 0 0.12 0 0.02 0.12 0 0.04 0.12 0 0.06 0.12 0 0.08 0.12 0 0.1 0.12 0 0 0.125 0 0.02 0.125 0 0.04 0.125 0 0.06 0.125 0 0.08 0.125 0 0.1 0.125 0 0 0.13 0 0.02 0.13 0 0.04 0.13 0 0.06 0.13 0 0.08 0.13 0 0.1 0.13 0 0 0.135 0 0.02 0.135 0 0.04 0.135 0 0.06 0.135 0 0.08 0.135 0 0.1 0.135 0 0 0.14 0 0.02 0.14 0 0.04 0.14 0 0.06 0.14 0 0.08 0.14 0 0.1 0.14 0 0 0.145 0 0.02 0.145 0 0.04 0.145 0 0.06 0.145 0 0.08 0.145 0 0.1 0.145 0 0 0.15 0 0.02 0.15 0 0.04 0.15 0 0.06 0.15 0 0.08 0.15 0 0.1 0.15 0 0 0.155 0 0.02 0.155 0 0.04 0.155 0 0.06 0.155 0 0.08 0.155 0 0.1 0.155 0 0 0.16 0 0.02 0.16 0 0.04 0.16 0 0.06 0.16 0 0.08 0.16 0 0.1 0.16 0 0 0.165 0 0.02 0.165 0 0.04 0.165 0 0.06 0.165 0 0.08 0.165 0 0.1 0.165 0 0 0.17 0 0.02 0.17 0 0.04 0.17 0 0.06 0.17 0 0.08 0.17 0 0.1 0.17 0 0 0.175 0 0.02 0.175 0 0.04 0.175 0 0.06 0.175 0 0.08 0.175 0 0.1 0.175 0 0 0.18 0 0.02 0.18 0 0.04 0.18 0 0.06 0.18 0 0.08 0.18 0 0.1 0.18 0 0 0.185 0 0.02 0.185 0 0.04 0.185 0 0.06 0.185 0 0.08 0.185 0 0.1 0.185 0 0 0.19 0 0.02 0.19 0 0.04 0.19 0 0.06 0.19 0 0.08 0.19 0 0.1 0.19 0 0 0.195 0 0.02 0.195 0 0.04 0.195 0 0.06 0.195 0 0.08 0.195 0 0.1 0.195 0 0 0.2 0 0.02 0.2 0 0.04 0.2 0 0.06 0.2 0 0.08 0.2 0 0.1 0.2 0 0 0.205 0 0.02 0.205 0 0.04 0.205 0 0.06 0.205 0 0.08 0.205 0 0.1 0.205 0 0 0.21 0 0.02 0.21 0 0.04 0.21 0 0.06 0.21 0 0.08 0.21 0 0.1 0.21 0 0 0.215 0 0.02 0.215 0 0.04 0.215 0 0.06 0.215 0 0.08 0.215 0 0.1 0.215 0 0 0.22 0 0.02 0.22 0 0.04 0.22 0 0.06 0.22 0 0.08 0.22 0 0.1 0.22 0 0 0.225 0 0.02 0.225 0 0.04 0.225 0 0.06 0.225 0 0.08 0.225 0 0.1 0.225 0 0 0.23 0 0.02 0.23 0 0.04 0.23 0 0.06 0.23 0 0.08 0.23 0 0.1 0.23 0 0 0.235 0 0.02 0.235 0 0.04 0.235 0 0.06 0.235 0 0.08 0.235 0 0.1 0.235 0 0 0.24 0 0.02 0.24 0 0.04 0.24 0 0.06 0.24 0 0.08 0.24 0 0.1 0.24 0 0 0.245 0 0.02 0.245 0 0.04 0.245 0 0.06 0.245 0 0.08 0.245 0 0.1 0.245 0 0 0.25 0 0.02 0.25 0 0.04 0.25 0 0.06 0.25 0 0.08 0.25 0 0.1 0.25 0 0 0.255 0 0.02 0.255 0 0.04 0.255 0 0.06 0.255 0 0.08 0.255 0 0.1 0.255 0 0 0.26 0 0.02 0.26 0 0.04 0.26 0 0.06 0.26 0 0.08 0.26 0 0.1 0.26 0 0 0.265 0 0.02 0.265 0 0.04 0.265 0 0.06 0.265 0 0.08 0.265 0 0.1 0.265 0 0 0.27 0 0.02 0.27 0 0.04 0.27 0 0.06 0.27 0 0.08 0.27 0 0.1 0.27 0 0 0.275 0 0.02 0.275 0 0.04 0.275 0 0.06 0.275 0 0.08 0.275 0 0.1 0.275 0 0 0.28 0 0.02 0.28 0 0.04 0.28 0 0.06 0.28 0 0.08 0.28 0 0.1 0.28 0 0 0.285 0 0.02 0.285 0 0.04 0.285 0 0.06 0.285 0 0.08 0.285 0 0.1 0.285 0 0 0.29 0 0.02 0.29 0 0.04 0.29 0 0.06 0.29 0 0.08 0.29 0 0.1 0.29 0 0 0.295 0 0.02 0.295 0 0.04 0.295 0 0.06 0.295 0 0.08 0.295 0 0.1 0.295 0 0 0.3 0 0.02 0.3 0 0.04 0.3 0 0.06 0.3 0 0.08 0.3 0 0.1 0.3 0 0 0.305 0 0.02 0.305 0 0.04 0.305 0 0.06 0.305 0 0.08 0.305 0 0.1 0.305 0 0 0.31 0 0.02 0.31 0 0.04 0.31 0 0.06 0.31 0 0.08 0.31 0 0.1 0.31 0 0 0.315 0 0.02 0.315 0 0.04 0.315 0 0.06 0.315 0 0.08 0.315 0 0.1 0.315 0 0 0.32 0 0.02 0.32 0 0.04 0.32 0 0.06 0.32 0 0.08 0.32 0 0.1 0.32 0 0 0.325 0 0.02 0.325 0 0.04 0.325 0 0.06 0.325 0 0.08 0.325 0 0.1 0.325 0 0 0.33 0 0.02 0.33 0 0.04 0.33 0 0.06 0.33 0 0.08 0.33 0 0.1 0.33 0 0 0.335 0 0.02 0.335 0 0.04 0.335 0 0.06 0.335 0 0.08 0.335 0 0.1 0.335 0 0 0.34 0 0.02 0.34 0 0.04 0.34 0 0.06 0.34 0 0.08 0.34 0 0.1 0.34 0 0 0.345 0 0.02 0.345 0 0.04 0.345 0 0.06 0.345 0 0.08 0.345 0 0.1 0.345 0 0 0.35 0 0.02 0.35 0 0.04 0.35 0 0.06 0.35 0 0.08 0.35 0 0.1 0.35 0 0 0.355 0 0.02 0.355 0 0.04 0.355 0 0.06 0.355 0 0.08 0.355 0 0.1 0.355 0 0 0.36 0 0.02 0.36 0 0.04 0.36 0 0.06 0.36 0 0.08 0.36 0 0.1 0.36 0 0 0.365 0 0.02 0.365 0 0.04 0.365 0 0.06 0.365 0 0.08 0.365 0 0.1 0.365 0 0 0.37 0 0.02 0.37 0 0.04 0.37 0 0.06 0.37 0 0.08 0.37 0 0.1 0.37 0 0 0.375 0 0.02 0.375 0 0.04 0.375 0 0.06 0.375 0 0.08 0.375 0 0.1 0.375 0 0 0.38 0 0.02 0.38 0 0.04 0.38 0 0.06 0.38 0 0.08 0.38 0 0.1 0.38 0 0 0.385 0 0.02 0.385 0 0.04 0.385 0 0.06 0.385 0 0.08 0.385 0 0.1 0.385 0 0 0.39 0 0.02 0.39 0 0.04 0.39 0 0.06 0.39 0 0.08 0.39 0 0.1 0.39 0 0 0.395 0 0.02 0.395 0 0.04 0.395 0 0.06 0.395 0 0.08 0.395 0 0.1 0.395 0 0 0.4 0 0.02 0.4 0 0.04 0.4 0 0.06 0.4 0 0.08 0.4 0 0.1 0.4 0 0 0.405 0 0.02 0.405 0 0.04 0.405 0 0.06 0.405 0 0.08 0.405 0 0.1 0.405 0 0 0.41 0 0.02 0.41 0 0.04 0.41 0 0.06 0.41 0 0.08 0.41 0 0.1 0.41 0 0 0.415 0 0.02 0.415 0 0.04 0.415 0 0.06 0.415 0 0.08 0.415 0 0.1 0.415 0 0 0.42 0 0.02 0.42 0 0.04 0.42 0 0.06 0.42 0 0.08 0.42 0 0.1 0.42 0 0 0.425 0 0.02 0.425 0 0.04 0.425 0 0.06 0.425 0 0.08 0.425 0 0.1 0.425 0 0 0.43 0 0.02 0.43 0 0.04 0.43 0 0.06 0.43 0 0.08 0.43 0 0.1 0.43 0 0 0.435 0 0.02 0.435 0 0.04 0.435 0 0.06 0.435 0 0.08 0.435 0 0.1 0.435 0 0 0.44 0 0.02 0.44 0 0.04 0.44 0 0.06 0.44 0 0.08 0.44 0 0.1 0.44 0 0 0.445 0 0.02 0.445 0 0.04 0.445 0 0.06 0.445 0 0.08 0.445 0 0.1 0.445 0 0 0.45 0 0.02 0.45 0 0.04 0.45 0 0.06 0.45 0 0.08 0.45 0 0.1 0.45 0 0 0.455 0 0.02 0.455 0 0.04 0.455 0 0.06 0.455 0 0.08 0.455 0 0.1 0.455 0 0 0.46 0 0.02 0.46 0 0.04 0.46 0 0.06 0.46 0 0.08 0.46 0 0.1 0.46 0 0 0.465 0 0.02 0.465 0 0.04 0.465 0 0.06 0.465 0 0.08 0.465 0 0.1 0.465 0 0 0.47 0 0.02 0.47 0 0.04 0.47 0 0.06 0.47 0 0.08 0.47 0 0.1 0.47 0 0 0.475 0 0.02 0.475 0 0.04 0.475 0 0.06 0.475 0 0.08 0.475 0 0.1 0.475 0 0 0.48 0 0.02 0.48 0 0.04 0.48 0 0.06 0.48 0 0.08 0.48 0 0.1 0.48 0 0 0.485 0 0.02 0.485 0 0.04 0.485 0 0.06 0.485 0 0.08 0.485 0 0.1 0.485 0 0 0.49 0 0.02 0.49 0 0.04 0.49 0 0.06 0.49 0 0.08 0.49 0 0.1 0.49 0 0 0.495 0 0.02 0.495 0 0.04 0.495 0 0.06 0.495 0 0.08 0.495 0 0.1 0.495 0 0 0.5 0 0.02 0.5 0 0.04 0.5 0 0.06 0.5 0 0.08 0.5 0 0.1 0.5 0 0 0.505 0 0.02 0.505 0 0.04 0.505 0 0.06 0.505 0 0.08 0.505 0 0.1 0.505 0 0 0.51 0 0.02 0.51 0 0.04 0.51 0 0.06 0.51 0 0.08 0.51 0 0.1 0.51 0 0 0.515 0 0.02 0.515 0 0.04 0.515 0 0.06 0.515 0 0.08 0.515 0 0.1 0.515 0 0 0.52 0 0.02 0.52 0 0.04 0.52 0 0.06 0.52 0 0.08 0.52 0 0.1 0.52 0 0 0.525 0 0.02 0.525 0 0.04 0.525 0 0.06 0.525 0 0.08 0.525 0 0.1 0.525 0 0 0.53 0 0.02 0.53 0 0.04 0.53 0 0.06 0.53 0 0.08 0.53 0 0.1 0.53 0 0 0.535 0 0.02 0.535 0 0.04 0.535 0 0.06 0.535 0 0.08 0.535 0 0.1 0.535 0 0 0.54 0 0.02 0.54 0 0.04 0.54 0 0.06 0.54 0 0.08 0.54 0 0.1 0.54 0 0 0.545 0 0.02 0.545 0 0.04 0.545 0 0.06 0.545 0 0.08 0.545 0 0.1 0.545 0 0 0.55 0 0.02 0.55 0 0.04 0.55 0 0.06 0.55 0 0.08 0.55 0 0.1 0.55 0 0 0.555 0 0.02 0.555 0 0.04 0.555 0 0.06 0.555 0 0.08 0.555 0 0.1 0.555 0 0 0.56 0 0.02 0.56 0 0.04 0.56 0 0.06 0.56 0 0.08 0.56 0 0.1 0.56 0 0 0.565 0 0.02 0.565 0 0.04 0.565 0 0.06 0.565 0 0.08 0.565 0 0.1 0.565 0 0 0.57 0 0.02 0.57 0 0.04 0.57 0 0.06 0.57 0 0.08 0.57 0 0.1 0.57 0 0 0.575 0 0.02 0.575 0 0.04 0.575 0 0.06 0.575 0 0.08 0.575 0 0.1 0.575 0 0 0.58 0 0.02 0.58 0 0.04 0.58 0 0.06 0.58 0 0.08 0.58 0 0.1 0.58 0 0 0.585 0 0.02 0.585 0 0.04 0.585 0 0.06 0.585 0 0.08 0.585 0 0.1 0.585 0 0 0.59 0 0.02 0.59 0 0.04 0.59 0 0.06 0.59 0 0.08 0.59 0 0.1 0.59 0 0 0.595 0 0.02 0.595 0 0.04 0.595 0 0.06 0.595 0 0.08 0.595 0 0.1 0.595 0 0 0.6 0 0.02 0.6 0 0.04 0.6 0 0.06 0.6 0 0.08 0.6 0 0.1 0.6 0 0 0.605 0 0.02 0.605 0 0.04 0.605 0 0.06 0.605 0 0.08 0.605 0 0.1 0.605 0 0 0.61 0 0.02 0.61 0 0.04 0.61 0 0.06 0.61 0 0.08 0.61 0 0.1 0.61 0 0 0.615 0 0.02 0.615 0 0.04 0.615 0 0.06 0.615 0 0.08 0.615 0 0.1 0.615 0 0 0.62 0 0.02 0.62 0 0.04 0.62 0 0.06 0.62 0 0.08 0.62 0 0.1 0.62 0 0 0.625 0 0.02 0.625 0 0.04 0.625 0 0.06 0.625 0 0.08 0.625 0 0.1 0.625 0 0 0.63 0 0.02 0.63 0 0.04 0.63 0 0.06 0.63 0 0.08 0.63 0 0.1 0.63 0 0 0.635 0 0.02 0.635 0 0.04 0.635 0 0.06 0.635 0 0.08 0.635 0 0.1 0.635 0 0 0.64 0 0.02 0.64 0 0.04 0.64 0 0.06 0.64 0 0.08 0.64 0 0.1 0.64 0 0 0.645 0 0.02 0.645 0 0.04 0.645 0 0.06 0.645 0 0.08 0.645 0 0.1 0.645 0 0 0.65 0 0.02 0.65 0 0.04 0.65 0 0.06 0.65 0 0.08 0.65 0 0.1 0.65 0 0 0.655 0 0.02 0.655 0 0.04 0.655 0 0.06 0.655 0 0.08 0.655 0 0.1 0.655 0 0 0.66 0 0.02 0.66 0 0.04 0.66 0 0.06 0.66 0 0.08 0.66 0 0.1 0.66 0 0 0.665 0 0.02 0.665 0 0.04 0.665 0 0.06 0.665 0 0.08 0.665 0 0.1 0.665 0 0 0.67 0 0.02 0.67 0 0.04 0.67 0 0.06 0.67 0 0.08 0.67 0 0.1 0.67 0 0 0.675 0 0.02 0.675 0 0.04 0.675 0 0.06 0.675 0 0.08 0.675 0 0.1 0.675 0 0 0.68 0 0.02 0.68 0 0.04 0.68 0 0.06 0.68 0 0.08 0.68 0 0.1 0.68 0 0 0.685 0 0.02 0.685 0 0.04 0.685 0 0.06 0.685 0 0.08 0.685 0 0.1 0.685 0 0 0.69 0 0.02 0.69 0 0.04 0.69 0 0.06 0.69 0 0.08 0.69 0 0.1 
[...]
			<PointData Scalars="VitesseX">
				<DataArray Name="VitesseX" type="Float32" format="ascii">
 0 -1.474e-14 -1.95881e-14 9.74113e-15 -1.20481e-14 0 0 -1.68445e-14 -1.72546e-14 6.18223e-15 -7.29843e-15 0 0 -1.85609e-14 -1.22364e-14 -5.44562e-15 5.31783e-15 0 0 -6.96284e-15 -2.61468e-14 2.11453e-15 2.29342e-15 0 0 -2.62195e-15 -2.36448e-14 -5.00759e-15 4.69207e-15 0 0 -5.392e-15 -3.58166e-15 -2.90721e-14 1.62712e-14 0 0 -1.76826e-15 -1.32546e-15 -2.8284e-14 1.30231e-14 0 0 2.13143e-15 -4.85406e-15 -1.6075e-14 2.47827e-15 0 0 1.531e-16 3.7912e-15 -1.42009e-14 -4.06913e-15 0 0 -2.87546e-15 2.12429e-14 -2.91597e-14 6.44837e-15 0 0 1.22063e-14 2.53763e-16 3.97818e-15 -1.80635e-14 0 0 -3.26921e-16 7.54859e-15 4.33513e-15 -2.65428e-14 0 0 -4.42945e-15 6.62374e-15 -4.00765e-15 -2.08943e-14 0 0 7.19727e-15 -8.06321e-15 4.30593e-15 -2.58215e-14 0 0 -1.42554e-14 1.0862e-14 -7.73623e-15 -3.13207e-14 0 0 -1.25729e-14 -1.34135e-14 1.15415e-14 -3.99377e-14 0 0 -1.25541e-14 -1.41087e-14 -1.73807e-14 9.13964e-15 0 0 2.38272e-15 -5.46263e-14 1.16984e-15 2.28364e-14 0 0 -8.66384e-15 -6.74182e-14 3.22924e-17 5.11255e-14 0 0 -4.72337e-14 -2.27027e-14 -5.09518e-14 9.6976e-14 0 0 -2.70053e-14 -6.5542e-14 -6.94515e-15 6.93111e-14 0 0 -1.25929e-14 -7.53188e-14 6.00019e-15 4.74955e-14 0 0 -1.71291e-14 -7.36814e-14 5.3891e-14 -3.05412e-14 0 0 -2.61102e-14 -7.84935e-14 8.55257e-14 -5.93551e-14 0 0 -4.64514e-14 -3.82538e-14 3.96166e-14 -9.5865e-15 0 0 -2.32672e-14 -6.55586e-14 6.08431e-14 -1.1836e-14 0 0 -1.41739e-14 -3.04936e-14 -4.06921e-15 3.41138e-14 0 0 -4.19313e-14 3.67841e-14 -5.53278e-14 4.36665e-14 0 0 -1.80244e-14 -1.57869e-14 2.89472e-14 -2.93343e-14 0 0 7.28533e-15 -4.59896e-14 2.82318e-14 -1.96686e-14 0 0 -1.73376e-15 -3.01764e-14 -1.67469e-14 -4.95026e-15 0 0 -6.82802e-15 -4.40428e-14 9.7539e-15 -4.73992e-14 0 0 -2.18308e-14 -2.92038e-14 -1.31523e-14 -2.45337e-14 0 0 -3.40739e-14 -6.31732e-15 -1.52322e-14 -2.05765e-14 0 0 -4.12266e-14 7.07431e-15 -2.46815e-15 -1.78239e-14 0 0 -4.52418e-14 1.5338e-14 -1.53912e-14 9.33944e-15 0 0 2.61851e-14 -9.09445e-14 6.68314e-14 -1.89217e-14 0 0 4.30206e-14 -6.89154e-14 4.58193e-15 2.42658e-14 0 0 2.66389e-14 -1.22509e-14 -6.02513e-14 4.48636e-14 0 0 3.72044e-14 -1.50733e-14 -4.83058e-14 1.41042e-14 0 0 5.3876e-14 -1.91826e-14 -2.10532e-14 -2.83783e-14 0 0 9.77186e-14 -8.62786e-14 9.87652e-14 -1.49979e-13 0 0 5.86711e-14 1.78636e-14 -2.45664e-14 -7.54551e-14 0 0 2.09437e-14 1.35224e-13 -1.71454e-13 2.97092e-14 0 0 9.90587e-14 3.26084e-14 -9.32367e-14 -1.15559e-14 0 0 1.29277e-13 -8.96415e-15 -8.18784e-14 1.6599e-14 0 0 6.08868e-14 6.21026e-14 -6.97899e-14 -1.70809e-14 0 0 1.22944e-14 8.4783e-14 -7.30651e-14 -6.60628e-15 0 0 2.78042e-14 4.97291e-14 -8.72864e-14 2.78363e-14 0 0 1.11396e-14 5.4485e-14 -8.38954e-14 -2.44068e-15 0 0 -1.89661e-14 1.12851e-13 -1.86973e-13 8.1296e-14 0 0 3.2389e-14 6.94069e-14 -1.74737e-13 8.79987e-14 0 0 1.30421e-14 3.86242e-14 -4.54673e-14 -3.15602e-14 0 0 4.24259e-15 4.14841e-14 -1.18509e-14 -9.18456e-16 0 0 -6.36576e-14 1.65791e-13 -1.4323e-13 1.25766e-13 0 0 -1.27509e-13 2.50585e-13 -1.94464e-13 1.55917e-13 0 0 7.59941e-15 9.73066e-14 -8.4748e-14 1.27857e-13 0 0 6.59213e-14 1.42072e-14 -3.99653e-15 6.21696e-14 0 0 -5.59298e-15 7.8748e-14 -4.58588e-15 -4.28171e-15 0 0 5.09803e-14 2.94739e-14 -2.51559e-14 1.5864e-14 0 0 1.34432e-13 -1.62479e-14 -1.21637e-14 -1.52798e-14 0 0 8.76202e-14 9.92704e-14 -7.07519e-14 -3.02426e-14 0 0 -1.84637e-14 2.16138e-13 -1.52697e-13 5.0993e-14 0 0 1.21166e-14 1.41724e-13 -1.15866e-13 4.81762e-14 0 0 6.39064e-14 1.00369e-13 -2.20946e-13 9.74843e-14 0 0 1.55192e-13 3.24755e-14 -2.06339e-13 1.64998e-14 0 0 3.44258e-13 -1.64727e-13 -1.50785e-14 -2.02376e-13 0 0 2.44106e-13 3.66234e-14 -2.57274e-13 -4.20134e-14 0 0 1.60687e-13 1.86955e-13 -3.75516e-13 5.20585e-14 0 0 1.41087e-13 9.31581e-14 -1.76278e-13 -6.90301e-14 0 0 -5.76439e-15 1.52569e-13 -1.82648e-13 -1.86763e-14 0 0 8.2656e-15 1.69201e-13 -1.93397e-13 2.47624e-15 0 0 7.50131e-14 1.64126e-13 -2.26292e-13 -7.18662e-15 0 0 6.03425e-14 2.40631e-13 -2.92528e-13 -1.22643e-13 0 0 -1.91862e-14 3.1032e-13 -2.50456e-13 -2.18887e-13 0 0 1.13102e-14 3.53336e-13 -1.48403e-13 -1.35916e-13 0 0 3.05175e-13 3.15758e-13 1.70991e-13 7.46311e-14 0 0 7.57628e-13 6.77763e-13 6.89708e-13 5.19642e-13 0 0 1.52374e-12 2.03225e-12 1.88848e-12 1.56967e-12 0 0 3.2716e-12 5.33756e-12 4.82269e-12 3.62892e-12 0 0 7.21233e-12 1.22152e-11 1.14648e-11 7.81079e-12 0 0 1.50774e-11 2.51071e-11 2.46652e-11 1.57793e-11 0 0 2.70419e-11 4.46631e-11 4.49796e-11 2.81865e-11 0 0 3.36753e-11 5.6543e-11 5.81926e-11 3.68319e-11 0 0 -9.90297e-12 -1.18752e-11 -7.58486e-12 -2.51851e-12 0 0 -2.19259e-10 -3.45331e-10 -3.3436e-10 -2.01187e-10 0 0 -9.2597e-10 -1.47818e-09 -1.45378e-09 -8.86334e-10 0 0 -2.92219e-09 -4.68967e-09 -4.64213e-09 -2.8452e-09 0 0 -7.95165e-09 -1.28063e-08 -1.27325e-08 -7.83198e-09 0 0 -1.95871e-08 -3.16455e-08 -3.15875e-08 -1.94926e-08 0 0 -4.46742e-08 -7.24176e-08 -7.25795e-08 -4.49375e-08 0 0 -9.6185e-08 -1.55427e-07 -1.57124e-07 -9.72476e-08 0 0 -1.92859e-07 -3.22553e-07 -3.18892e-07 -2.03019e-07 0 0 -3.84827e-07 -6.11944e-07 -6.46644e-07 -3.87698e-07 0 0 -7.02739e-07 -1.15671e-06 -1.15069e-06 -7.67961e-07 0 0 -1.19423e-06 -2.11437e-06 -2.20234e-06 -1.30321e-06 0 0 -2.21544e-06 -3.36849e-06 -3.53386e-06 -2.42926e-06 0 0 -3.30645e-06 -6.06531e-06 -6.29786e-06 -3.7573e-06 0 0 -5.51762e-06 -8.95248e-06 -9.60892e-06 -6.4375e-06 0 0 -8.22286e-06 -1.3904e-05 -1.46837e-05 -9.57788e-06 0 0 -1.17479e-05 -2.12927e-05 -2.298e-05 -1.48444e-05 0 0 -1.7547e-05 -2.96651e-05 -3.18255e-05 -2.09452e-05 0 0 -2.32156e-05 -4.00403e-05 -4.42023e-05 -2.89211e-05 0 0 -3.18177e-05 -5.53521e-05 -5.90315e-05 -3.87785e-05 0 0 -4.18474e-05 -7.12347e-05 -7.55142e-05 -4.87889e-05 0 0 -5.26871e-05 -8.82145e-05 -9.12572e-05 -5.78396e-05 0 0 -6.44682e-05 -0.000104604 -0.000104955 -6.49473e-05 0 0 -7.62055e-05 -0.000120127 -0.000116557 -7.02041e-05 0 0 -8.77469e-05 -0.000134987 -0.000126709 -7.42098e-05 0 0 -9.87327e-05 -0.000149077 -0.000135995 -7.75805e-05 0 0 -0.000109095 -0.000162326 -0.000145095 -8.07613e-05 0 0 -0.000119065 -0.000174726 -0.000154354 -8.4206e-05 0 0 -0.000128546 -0.000188351 -0.000163142 -8.88069e-05 0 0 -0.000140258 -0.000205454 -0.000173137 -9.46104e-05 0 0 -0.000156814 -0.00022829 -0.000191273 -0.000101862 0 0 -0.000176937 -0.000254582 -0.000213805 -0.000108796 0 0 -0.000195755 -0.000278845 -0.000235322 -0.000118016 0 0 -0.000217795 -0.000311414 -0.000270904 -0.000133329 0 0 -0.00025965 -0.000383823 -0.000324464 -0.000153412 0 0 -0.000320375 -0.000481658 -0.000384567 -0.000176352 0 0 -0.000392794 -0.000572902 -0.000452227 -0.00020255 0 0 -0.00047628 -0.000671623 -0.000523798 -0.000234266 0 0 -0.000569757 -0.000836233 -0.000637494 -0.000246777 0 0 -0.000677412 -0.00105879 -0.000780196 -0.000222678 0 0 -0.000801132 -0.0012953 -0.000841322 -0.00012913 0 0 -0.000873523 -0.00138495 -0.000846824 -8.81641e-05 0 0 -0.000857259 -0.0013379 -0.000823755 -0.000114341 0 0 -0.000793898 -0.00113784 -0.000713503 -0.000238587 0 0 -0.000625692 -0.000853307 -0.000616495 -0.000411089 0 0 -0.000445905 -0.000657947 -0.000640126 -0.000408974 0 0 -0.000307155 -0.000536776 -0.000639551 -0.000365482 0 0 3.73359e-05 0.000101626 -0.000277626 -0.00042768 0 0 0.000683353 0.0014371 0.00077779 -0.000413555 0 0 0.000895103 0.00161338 0.00104151 -0.000158439 0 0 0.000882261 0.00152947 0.00103686 0.000215442 0 0 0.00081151 0.00126991 0.000952744 0.000315665 0 0 0.000679204 0.0010094 0.000786818 0.000311678 0 0 0.000554747 0.000796793 0.00063885 0.00029156 0 0 0.000449216 0.000640349 0.000524131 0.000258752 0 0 0.000366496 0.000530513 0.000444004 0.000229861 0 0 0.000305052 0.000452908 0.000389947 0.000207729 0 0 0.000263103 0.000398993 0.000353878 0.000192725 0 0 0.000234859 0.00036072 0.000328737 0.000183285 0 0 0.000209657 0.0003248 0.000303615 0.000174733 0 0 0.000183945 0.000287948 0.000276516 0.000164208 0 0 0.000162108 0.000256691 0.000251868 0.00015352 0 0 0.000147933 0.000236141 0.000233537 0.000143725 0 0 0.000139282 0.000223 0.000220355 0.00013518 0 0 0.000129651 0.000207805 0.000205428 0.000125825 0 0 0.00011709 0.00018801 0.000186208 0.000114178 0 0 0.000101713 0.000163584 0.000162321 9.96708e-05 0 0 8.36513e-05 0.000134721 0.000133909 8.23383e-05 0 0 6.38932e-05 0.000103022 0.000102555 6.31398e-05 0 0 4.42687e-05 7.14574e-05 7.12368e-05 4.39122e-05 0 0 2.71433e-05 4.38487e-05 4.37596e-05 2.69992e-05 0 0 1.43858e-05 2.32538e-05 2.32249e-05 1.43391e-05 0 0 6.49635e-06 1.05057e-05 1.04988e-05 6.48509e-06 0 0 2.53985e-06 4.1086e-06 4.10741e-06 2.53792e-06 0 0 8.95816e-07 1.44939e-06 1.44931e-06 8.95685e-07 0 0 2.97563e-07 4.81494e-07 4.81527e-07 2.97617e-07 0 0 9.56803e-08 1.54829e-07 1.54848e-07 9.57108e-08 0 0 3.01612e-08 4.88071e-08 4.88132e-08 3.01718e-08 0 0 9.36873e-09 1.51605e-08 1.51622e-08 9.37194e-09 0 0 2.873e-09 4.6489e-09 4.64949e-09 2.87374e-09 0 0 8.70242e-10 1.40821e-09 1.40837e-09 8.70504e-10 0 0 2.60392e-10 4.21474e-10 4.21485e-10 2.60593e-10 0 0 7.70104e-11 1.24596e-10 1.24788e-10 7.70136e-11 0 0 2.25093e-11 3.64074e-11 3.66193e-11 2.2515e-11 0 0 6.44669e-12 1.06023e-11 1.06928e-11 6.6822e-12 0 0 1.82792e-12 3.07686e-12 3.17113e-12 2.18253e-12 0 0 6.12491e-13 7.9384e-13 1.14068e-12 7.89428e-13 0 0 2.26307e-13 2.41504e-13 5.11762e-13 4.23582e-13 0 0 3.91803e-14 2.55407e-13 1.69848e-13 3.96862e-13 0 0 6.31573e-14 1.40769e-13 2.10274e-13 2.5054e-13 0 0 1.39916e-13 -1.83785e-14 3.75771e-13 1.42352e-13 0 0 1.56281e-13 -3.01342e-14 4.12679e-13 1.70248e-13 0 0 1.87587e-13 -1.5525e-14 3.30779e-13 3.11335e-13 0 0 3.78979e-14 2.48066e-13 8.47951e-14 5.05149e-13 0 0 4.64557e-14 1.9823e-13 2.46807e-13 4.0152e-13 0 0 1.26917e-13 9.67182e-14 3.8967e-13 2.06693e-13 0 0 6.61506e-14 2.39647e-13 1.69235e-13 3.52452e-13 0 0 1.56391e-13 2.04498e-13 9.3061e-14 4.39802e-13 0 0 2.54596e-13 5.90795e-14 3.77692e-13 7.17598e-14 0 0 1.48041e-13 1.44472e-13 4.07657e-13 1.50325e-13 0 0 5.76368e-14 1.95845e-13 2.90896e-13 4.61739e-13 0 0 7.17641e-14 2.52858e-13 1.84012e-13 4.10637e-13 0 0 2.67942e-13 2.48348e-13 6.84504e-14 3.31227e-13 0 0 4.93025e-13 -3.5284e-15 2.52679e-13 1.75616e-13 0 0 4.16457e-13 9.42772e-14 4.2614e-13 -2.63148e-13 0 0 2.00462e-13 2.22293e-13 4.2474e-13 -2.76051e-13 0 0 2.47458e-13 4.66093e-14 3.50764e-13 1.22449e-13 0 0 3.81308e-13 3.99084e-14 1.87501e-13 2.04472e-13 0 0 2.55628e-13 3.96442e-13 -2.22635e-13 3.90771e-13 0 0 3.08243e-13 3.55284e-13 -2.73626e-13 4.60189e-13 0 0 6.06431e-13 -5.33794e-14 -1.49101e-13 5.04667e-13 0 0 5.63481e-13 1.22345e-13 -3.27383e-13 5.56865e-13 0 0 3.80852e-13 3.86105e-13 -2.90686e-13 3.02532e-13 0 0 4.34358e-13 1.65132e-13 6.85098e-14 2.68354e-15 0 0 3.66438e-13 2.61056e-13 -7.38888e-14 1.28381e-13 0 0 3.40456e-13 4.4453e-13 -4.40825e-13 4.49318e-13 0 0 3.81549e-13 4.41281e-13 -5.15405e-13 5.30469e-13 0
				</DataArray>
				<DataArray Name="VitesseY" type="Float32" format="ascii">