<?xml version="1.0"?>
<VTKFile type="PolyData">
	<PolyData>
		<Piece NumberOfPoints="1206" NumberOfPolys="1000">
			<Points>
				<DataArray type="Float32" NumberOfComponents="3" format="ascii">
 0 0 0 0.02 0 0 0.04 0 0 0.06 0 0 0.08 0 0 0.1 0 0 0 0.005 0 0.02 0.005 0 0.04 0.005 0 0.06 0.005 0 0.08 0.005 0 0.1 0.005 0 0 0.01 0 0.02 0.01 0 0.04 0.01 0 0.06 0.01 0 0.08 0.01 0 0.1 0.01 0 0 0.015 0 0.02 0.015 0 0.04 0.015 0 0.06 0.015 0 0.08 0.015 0 0.1 0.015 0 0 0.02 0 0.02 0.02 0 0.04 0.02 0 0.06 0.02 0 0.08 0.02 0 0.1 0.02 0 0 0.025 0 0.02 0.025 0 0.04 0.025 0 0.06 0.025 0 0.08 0.025 0 0.1 0.025 0 0 0.03 0 0.02 0.03 0 0.04 0.03 0 0.06 0.03 0 0.08 0.03 0 0.1 0.03 0 0 0.035 0 0.02 0.035 0 0.04 0.035 0 0.06 0.035 0 0.08 0.035 0 0.1 0.035 0 0 0.04 0 0.02 0.04 0 0.04 0.04 0 0.06 0.04 0 0.08 0.04 0 0.1 0.04 0 0 0.045 0 0.02 0.045 0 0.04 0.045 0 0.06 0.045 0 0.08 0.045 0 0.1 0.045 0 0 0.05 0 0.02 0.05 0 0.04 0.05 0 0.06 0.05 0 0.08 0.05 0 0.1 0.05 0 0 0.055 0 0.02 0.055 0 0.04 0.055 0 0.06 0.055 0 0.08 0.055 0 0.1 0.055 0 0 0.06 0 0.02 0.06 0 0.04 0.06 0 0.06 0.06 0 0.08 0.06 0 0.1 0.06 0 0 0.065 0 0.02 0.065 0 0.04 0.065 0 0.06 0.065 0 0.08 0.065 0 0.1 0.065 0 0 0.07 0 0.02 0.07 0 0.04 0.07 0 0.06 0.07 0 0.08 0.07 0 0.1 0.07 0 0 0.075 0 0.02 0.075 0 0.04 0.075 0 0.06 0.075 0 0.08 0.075 0 0.1 0.075 0 0 0.08 0 0.02 0.08 0 0.04 0.08 0 0.06 0.08 0 0.08 0.08 0 0.1 0.08 0 0 0.085 0 0.02 0.085 0 0.04 0.085 0 0.06 0.085 0 0.08 0.085 0 0.1 0.085 0 0 0.09 0 0.02 0.09 0 0.04 0.09 0 0.06 0.09 0 0.08 0.09 0 0.1 0.09 0 0 0.095 0 0.02 0.095 0 0.04 0.095 0 0.06 0.095 0 0.08 0.095 0 0.1 0.095 0 0 0.1 0 0.02 0.1 0 0.04 0.1 0 0.06 0.1 0 0.08 0.1 0 0.1 0.1 0 0 0.105 0 0.02 0.105 0 0.04 0.105 0 0.06 0.105 0 0.08 0.105 0 0.1 0.105 0 0 0.11 0 0.02 0.11 0 0.04 0.11 0 0.06 0.11 0 0.08 0.11 0 0.1 0.11 0 0 0.115 0 0.02 0.115 0 0.04 0.115 0 0.06 0.115 0 0.08 0.115 0 0.1 0.115 0 0 0.12 0 0.02 0.12 0 0.04 0.12 0 0.06 0.12 0 0.08 0.12 0 0.1 0.12 0 0 0.125 0 0.02 0.125 0 0.04 0.125 0 0.06 0.125 0 0.08 0.125 0 0.1 0.125 0 0 0.13 0 0.02 0.13 0 0.04 0.13 0 0.06 0.13 0 0.08 0.13 0 0.1 0.13 0 0 0.135 0 0.02 0.135 0 0.04 0.135 0 0.06 0.135 0 0.08 0.135 0 0.1 0.135 0 0 0.14 0 0.02 0.14 0 0.04 0.14 0 0.06 0.14 0 0.08 0.14 0 0.1 0.14 0 0 0.145 0 0.02 0.145 0 0.04 0.145 0 0.06 0.145 0 0.08 0.145 0 0.1 0.145 0 0 0.15 0 0.02 0.15 0 0.04 0.15 0 0.06 0.15 0 0.08 0.15 0 0.1 0.15 0 0 0.155 0 0.02 0.155 0 0.04 0.155 0 0.06 0.155 0 0.08 0.155 0 0.1 0.155 0 0 0.16 0 0.02 0.16 0 0.04 0.16 0 0.06 0.16 0 0.08 0.16 0 0.1 0.16 0 0 0.165 0 0.02 0.165 0 0.04 0.165 0 0.06 0.165 0 0.08 0.165 0 0.1 0.165 0 0 0.17 0 0.02 0.17 0 0.04 0.17 0 0.06 0.17 0 0.08 0.17 0 0.1 0.17 0 0 0.175 0 0.02 0.175 0 0.04 0.175 0 0.06 0.175 0 0.08 0.175 0 0.1 0.175 0 0 0.18 0 0.02 0.18 0 0.04 0.18 0 0.06 0.18 0 0.08 0.18 0 0.1 0.18 0 0 0.185 0 0.02 0.185 0 0.04 0.185 0 0.06 0.185 0 0.08 0.185 0 0.1 0.185 0 0 0.19 0 0.02 0.19 0 0.04 0.19 0 0.06 0.19 0 0.08 0.19 0 0.1 0.19 0 0 0.195 0 0.02 0.195 0 0.04 0.195 0 0.06 0.195 0 0.08 0.195 0 0.1 0.195 0 0 0.2 0 0.02 0.2 0 0.04 0.2 0 0.06 0.2 0 0.08 0.2 0 0.1 0.2 0 0 0.205 0 0.02 0.205 0 0.04 0.205 0 0.06 0.205 0 0.08 0.205 0 0.1 0.205 0 0 0.21 0 0.02 0.21 0 0.04 0.21 0 0.06 0.21 0 0.08 0.21 0 0.1 0.21 0 0 0.215 0 0.02 0.215 0 0.04 0.215 0 0.06 0.215 0 0.08 0.215 0 0.1 0.215 0 0 0.22 0 0.02 0.22 0 0.04 0.22 0 0.06 0.22 0 0.08 0.22 0 0.1 0.22 0 0 0.225 0 0.02 0.225 0 0.04 0.225 0 0.06 0.225 0 0.08 0.225 0 0.1 0.225 0 0 0.23 0 0.02 0.23 0 0.04 0.23 0 0.06 0.23 0 0.08 0.23 0 0.1 0.23 0 0 0.235 0 0.02 0.235 0 0.04 0.235 0 0.06 0.235 0 0.08 0.235 0 0.1 0.235 0 0 0.24 0 0.02 0.24 0 0.04 0.24 0 0.06 0.24 0 0.08 0.24 0 0.1 0.24 0 0 0.245 0 0.02 0.245 0 0.04 0.245 0 0.06 0.245 0 0.08 0.245 0 0.1 0.245 0 0 0.25 0 0.02 0.25 0 0.04 0.25 0 0.06 0.25 0 0.08 0.25 0 0.1 0.25 0 0 0.255 0 0.02 0.255 0 0.04 0.255 0 0.06 0.255 0 0.08 0.255 0 0.1 0.255 0 0 0.26 0 0.02 0.26 0 0.04 0.26 0 0.06 0.26 0 0.08 0.26 0 0.1 0.26 0 0 0.265 0 0.02 0.265 0 0.04 0.265 0 0.06 0.265 0 0.08 0.265 0 0.1 0.265 0 0 0.27 0 0.02 0.27 0 0.04 0.27 0 0.06 0.27 0 0.08 0.27 0 0.1 0.27 0 0 0.275 0 0.02 0.275 0 0.04 0.275 0 0.06 0.275 0 0.08 0.275 0 0.1 0.275 0 0 0.28 0 0.02 0.28 0 0.04 0.28 0 0.06 0.28 0 0.08 0.28 0 0.1 0.28 0 0 0.285 0 0.02 0.285 0 0.04 0.285 0 0.06 0.285 0 0.08 0.285 0 0.1 0.285 0 0 0.29 0 0.02 0.29 0 0.04 0.29 0 0.06 0.29 0 0.08 0.29 0 0.1 0.29 0 0 0.295 0 0.02 0.295 0 0.04 0.295 0 0.06 0.295 0 0.08 0.295 0 0.1 0.295 0 0 0.3 0 0.02 0.3 0 0.04 0.3 0 0.06 0.3 0 0.08 0.3 0 0.1 0.3 0 0 0.305 0 0.02 0.305 0 0.04 0.305 0 0.06 0.305 0 0.08 0.305 0 0.1 0.305 0 0 0.31 0 0.02 0.31 0 0.04 0.31 0 0.06 0.31 0 0.08 0.31 0 0.1 0.31 0 0 0.315 0 0.02 0.315 0 0.04 0.315 0 0.06 0.315 0 0.08 0.315 0 0.1 0.315 0 0 0.32 0 0.02 0.32 0 0.04 0.32 0 0.06 0.32 0 0.08 0.32 0 0.1 0.32 0 0 0.325 0 0.02 0.325 0 0.04 0.325 0 0.06 0.325 0 0.08 0.325 0 0.1 0.325 0 0 0.33 0 0.02 0.33 0 0.04 0.33 0 0.06 0.33 0 0.08 0.33 0 0.1 0.33 0 0 0.335 0 0.02 0.335 0 0.04 0.335 0 0.06 0.335 0 0.08 0.335 0 0.1 0.335 0 0 0.34 0 0.02 0.34 0 0.04 0.34 0 0.06 0.34 0 0.08 0.34 0 0.1 0.34 0 0 0.345 0 0.02 0.345 0 0.04 0.345 0 0.06 0.345 0 0.08 0.345 0 0.1 0.345 0 0 0.35 0 0.02 0.35 0 0.04 0.35 0 0.06 0.35 0 0.08 0.35 0 0.1 0.35 0 0 0.355 0 0.02 0.355 0 0.04 0.355 0 0.06 0.355 0 0.08 0.355 0 0.1 0.355 0 0 0.36 0 0.02 0.36 0 0.04 0.36 0 0.06 0.36 0 0.08 0.36 0 0.1 0.36 0 0 0.365 0 0.02 0.365 0 0.04 0.365 0 0.06 0.365 0 0.08 0.365 0 0.1 0.365 0 0 0.37 0 0.02 0.37 0 0.04 0.37 0 0.06 0.37 0 0.08 0.37 0 0.1 0.37 0 0 0.375 0 0.02 0.375 0 0.04 0.375 0 0.06 0.375 0 0.08 0.375 0 0.1 0.375 0 0 0.38 0 0.02 0.38 0 0.04 0.38 0 0.06 0.38 0 0.08 0.38 0 0.1 0.38 0 0 0.385 0 0.02 0.385 0 0.04 0.385 0 0.06 0.385 0 0.08 0.385 0 0.1 0.385 0 0 0.39 0 0.02 0.39 0 0.04 0.39 0 0.06 0.39 0 0.08 0.39 0 0.1 0.39 0 0 0.395 0 0.02 0.395 0 0.04 0.395 0 0.06 0.395 0 0.08 0.395 0 0.1 0.395 0 0 0.4 0 0.02 0.4 0 0.04 0.4 0 0.06 0.4 0 0.08 0.4 0 0.1 0.4 0 0 0.405 0 0.02 0.405 0 0.04 0.405 0 0.06 0.405 0 0.08 0.405 0 0.1 0.405 0 0 0.41 0 0.02 0.41 0 0.04 0.41 0 0.06 0.41 0 0.08 0.41 0 0.1 0.41 0 0 0.415 0 0.02 0.415 0 0.04 0.415 0 0.06 0.415 0 0.08 0.415 0 0.1 0.415 0 0 0.42 0 0.02 0.42 0 0.04 0.42 0 0.06 0.42 0 0.08 0.42 0 0.1 0.42 0 0 0.425 0 0.02 0.425 0 0.04 0.425 0 0.06 0.425 0 0.08 0.425 0 0.1 0.425 0 0 0.43 0 0.02 0.43 0 0.04 0.43 0 0.06 0.43 0 0.08 0.43 0 0.1 0.43 0 0 0.435 0 0.02 0.435 0 0.04 0.435 0 0.06 0.435 0 0.08 0.435 0 0.1 0.435 0 0 0.44 0 0.02 0.44 0 0.04 0.44 0 0.06 0.44 0 0.08 0.44 0 0.1 0.44 0 0 0.445 0 0.02 0.445 0 0.04 0.445 0 0.06 0.445 0 0.08 0.445 0 0.1 0.445 0 0 0.45 0 0.02 0.45 0 0.04 0.45 0 0.06 0.45 0 0.08 0.45 0 0.1 0.45 0 0 0.455 0 0.02 0.455 0 0.04 0.455 0 0.06 0.455 0 0.08 0.455 0 0.1 0.455 0 0 0.46 0 0.02 0.46 0 0.04 0.46 0 0.06 0.46 0 0.08 0.46 0 0.1 0.46 0 0 0.465 0 0.02 0.465 0 0.04 0.465 0 0.06 0.465 0 0.08 0.465 0 0.1 0.465 0 0 0.47 0 0.02 0.47 0 0.04 0.47 0 0.06 0.47 0 0.08 0.47 0 0.1 0.47 0 0 0.475 0 0.02 0.475 0 0.04 0.475 0 0.06 0.475 0 0.08 0.475 0 0.1 0.475 0 0 0.48 0 0.02 0.48 0 0.04 0.48 0 0.06 0.48 0 0.08 0.48 0 0.1 0.48 0 0 0.485 0 0.02 0.485 0 0.04 0.485 0 0.06 0.485 0 0.08 0.485 0 0.1 0.485 0 0 0.49 0 0.02 0.49 0 0.04 0.49 0 0.06 0.49 0 0.08 0.49 0 0.1 0.49 0 0 0.495 0 0.02 0.495 0 0.04 0.495 0 0.06 0.495 0 0.08 0.495 0 0.1 0.495 0 0 0.5 0 0.02 0.5 0 0.04 0.5 0 0.06 0.5 0 0.08 0.5 0 0.1 0.5 0 0 0.505 0 0.02 0.505 0 0.04 0.505 0 0.06 0.505 0 0.08 0.505 0 0.1 0.505 0 0 0.51 0 0.02 0.51 0 0.04 0.51 0 0.06 0.51 0 0.08 0.51 0 0.1 0.51 0 0 0.515 0 0.02 0.515 0 0.04 0.515 0 0.06 0.515 0 0.08 0.515 0 0.1 0.515 0 0 0.52 0 0.02 0.52 0 0.04 0.52 0 0.06 0.52 0 0.08 0.52 0 0.1 0.52 0 0 0.525 0 0.02 0.525 0 0.04 0.525 0 0.06 0.525 0 0.08 0.525 0 0.1 0.525 0 0 0.53 0 0.02 0.53 0 0.04 0.53 0 0.06 0.53 0 0.08 0.53 0 0.1 0.53 0 0 0.535 0 0.02 0.535 0 0.04 0.535 0 0.06 0.535 0 0.08 0.535 0 0.1 0.535 0 0 0.54 0 0.02 0.54 0 0.04 0.54 0 0.06 0.54 0 0.08 0.54 0 0.1 0.54 0 0 0.545 0 0.02 0.545 0 0.04 0.545 0 0.06 0.545 0 0.08 0.545 0 0.1 0.545 0 0 0.55 0 0.02 0.55 0 0.04 0.55 0 0.06 0.55 0 0.08 0.55 0 0.1 0.55 0 0 0.555 0 0.02 0.555 0 0.04 0.555 0 0.06 0.555 0 0.08 0.555 0 0.1 0.555 0 0 0.56 0 0.02 0.56 0 0.04 0.56 0 0.06 0.56 0 0.08 0.56 0 0.1 0.56 0 0 0.565 0 0.02 0.565 0 0.04 0.565 0 0.06 0.565 0 0.08 0.565 0 0.1 0.565 0 0 0.57 0 0.02 0.57 0 0.04 0.57 0 0.06 0.57 0 0.08 0.57 0 0.1 0.57 0 0 0.575 0 0.02 0.575 0 0.04 0.575 0 0.06 0.575 0 0.08 0.575 0 0.1 0.575 0 0 0.58 0 0.02 0.58 0 0.04 0.58 0 0.06 0.58 0 0.08 0.58 0 0.1 0.58 0 0 0.585 0 0.02 0.585 0 0.04 0.585 0 0.06 0.585 0 0.08 0.585 0 0.1 0.585 0 0 0.59 0 0.02 0.59 0 0.04 0.59 0 0.06 0.59 0 0.08 0.59 0 0.1 0.59 0 0 0.595 0 0.02 0.595 0 0.04 0.595 0 0.06 0.595 0 0.08 0.595 0 0.1 0.595 0 0 0.6 0 0.02 0.6 0 0.04 0.6 0 0.06 0.6 0 0.08 0.6 0 0.1 0.6 0 0 0.605 0 0.02 0.605 0 0.04 0.605 0 0.06 0.605 0 0.08 0.605 0 0.1 0.605 0 0 0.61 0 0.02 0.61 0 0.04 0.61 0 0.06 0.61 0 0.08 0.61 0 0.1 0.61 0 0 0.615 0 0.02 0.615 0 0.04 0.615 0 0.06 0.615 0 0.08 0.615 0 0.1 0.615 0 0 0.62 0 0.02 0.62 0 0.04 0.62 0 0.06 0.62 0 0.08 0.62 0 0.1 0.62 0 0 0.625 0 0.02 0.625 0 0.04 0.625 0 0.06 0.625 0 0.08 0.625 0 0.1 0.625 0 0 0.63 0 0.02 0.63 0 0.04 0.63 0 0.06 0.63 0 0.08 0.63 0 0.1 0.63 0 0 0.635 0 0.02 0.635 0 0.04 0.635 0 0.06 0.635 0 0.08 0.635 0 0.1 0.635 0 0 0.64 0 0.02 0.64 0 0.04 0.64 0 0.06 0.64 0 0.08 0.64 0 0.1 0.64 0 0 0.645 0 0.02 0.645 0 0.04 0.645 0 0.06 0.645 0 0.08 0.645 0 0.1 0.645 0 0 0.65 0 0.02 0.65 0 0.04 0.65 0 0.06 0.65 0 0.08 0.65 0 0.1 0.65 0 0 0.655 0 0.02 0.655 0 0.04 0.655 0 0.06 0.655 0 0.08 0.655 0 0.1 0.655 0 0 0.66 0 0.02 0.66 0 0.04 0.66 0 0.06 0.66 0 0.08 0.66 0 0.1 0.66 0 0 0.665 0 0.02 0.665 0 0.04 0.665 0 0.06 0.665 0 0.08 0.665 0 0.1 0.665 0 0 0.67 0 0.02 0.67 0 0.04 0.67 0 0.06 0.67 0 0.08 0.67 0 0.1 0.67 0 0 0.675 0 0.02 0.675 0 0.04 0.675 0 0.06 0.675 0 0.08 0.675 0 0.1 0.675 0 0 0.68 0 0.02 0.68 0 0.04 0.68 0 0.06 0.68 0 0.08 0.68 0 0.1 0.68 0 0 0.685 0 0.02 0.685 0 0.04 0.685 0 0.06 0.685 0 0.08 0.685 0 0.1 0.685 0 0 0.69 0 0.02 0.69 0 0.04 0.69 0 0.06 0.69 0 0.08 0.69 0 0.1 
[...]
			<PointData Scalars="VitesseX">
				<DataArray Name="VitesseX" type="Float32" format="ascii">
 0 2.87205e-15 -3.98771e-15 -2.15493e-14 -2.08432e-14 0 0 6.14957e-15 -1.19328e-14 -1.2824e-14 -2.75378e-14 0 0 4.06616e-15 -1.35875e-14 -1.13304e-14 -3.05018e-14 0 0 -4.08131e-15 -9.63031e-15 -1.61468e-14 -2.69417e-14 0 0 -3.82862e-15 -2.18568e-14 -7.42026e-15 -2.62238e-14 0 0 -7.77013e-15 -2.4345e-14 -9.46645e-15 -2.26964e-14 0 0 -1.7866e-14 -1.42039e-14 -2.55353e-14 -1.68641e-14 0 0 -1.64295e-14 -2.9298e-14 -1.22761e-14 -2.79872e-14 0 0 -1.83614e-14 -4.44638e-14 -1.32573e-15 -2.76892e-14 0 0 -8.51227e-15 -6.15661e-14 -6.77689e-15 -7.72932e-15 0 0 -1.70072e-14 -5.09731e-14 -2.75313e-14 1.16004e-14 0 0 -4.30697e-14 -1.85411e-14 -4.85378e-14 2.07377e-14 0 0 -3.44215e-14 -3.97278e-14 -2.39326e-14 1.0302e-14 0 0 -2.30657e-14 -6.289e-14 -7.79194e-15 7.10052e-15 0 0 -2.91304e-14 -4.76899e-14 -1.86392e-14 1.00406e-14 0 0 -9.2011e-15 -6.36596e-14 1.61734e-14 -3.77771e-14 0 0 -9.31361e-15 -4.41554e-14 1.9877e-14 -8.17326e-14 0 0 -3.44562e-14 2.30347e-14 -5.26918e-14 -3.31949e-14 0 0 -3.85861e-14 4.57966e-14 -7.25025e-14 1.0984e-14 0 0 -1.78026e-14 1.77989e-14 -1.67084e-14 -2.62751e-14 0 0 2.80333e-14 -3.07138e-14 3.99992e-14 -8.71734e-14 0 0 3.08986e-14 -1.37126e-14 3.60414e-14 -1.17652e-13 0 0 -1.14133e-14 6.69898e-14 -7.40937e-14 -4.02165e-14 0 0 -3.50419e-14 9.89948e-14 -1.36624e-13 1.97705e-14 0 0 -2.06616e-14 4.3017e-14 -7.12381e-14 -2.97372e-14 0 0 1.81342e-15 -2.56606e-14 -1.84448e-16 -7.29381e-14 0 0 3.26977e-14 -7.42965e-14 2.2018e-14 -6.49014e-14 0 0 3.26436e-14 -6.97859e-14 1.78629e-14 -7.18285e-14 0 0 -4.78188e-14 4.43242e-14 -5.23688e-14 -7.28858e-14 0 0 -8.06954e-14 7.57858e-14 -6.79007e-14 -6.6436e-14 0 0 -1.97921e-14 -4.27638e-14 2.88449e-14 -9.54913e-14 0 0 -2.58272e-15 -6.17755e-14 3.08921e-15 -4.80195e-14 0 0 -2.53154e-14 -2.42826e-14 -2.66406e-14 -2.71959e-14 0 0 -5.57518e-14 9.27858e-15 -3.47715e-14 -2.90188e-14 0 0 -8.241e-14 5.86682e-14 -7.75305e-14 -3.4259e-15 0 0 -3.70436e-14 2.31923e-15 -3.47612e-14 -3.8461e-15 0 0 1.78808e-14 -9.90688e-14 6.17591e-14 -6.03041e-14 0 0 -6.14948e-15 -7.47641e-14 3.56557e-14 -7.33205e-14 0 0 -4.11529e-14 -1.6753e-14 -4.37106e-14 -3.24425e-14 0 0 -4.62062e-14 -2.23311e-14 -3.20749e-14 -3.75303e-14 0 0 -8.82729e-14 1.59934e-14 -3.16103e-14 -7.41289e-14 0 0 -8.5293e-14 3.37904e-14 -5.46311e-14 -1.01907e-13 0 0 -3.9522e-14 -5.34354e-14 1.42086e-14 -1.44069e-13 0 0 -5.93441e-14 -6.21013e-14 3.23988e-14 -1.61018e-13 0 0 -4.61698e-14 -4.91278e-14 -8.26433e-15 -1.24786e-13 0 0 -5.55645e-14 -2.30843e-14 -2.99555e-14 -8.91847e-14 0 0 -6.82884e-14 -3.28827e-15 -1.29339e-14 -7.16303e-14 0 0 -6.76378e-14 -2.21108e-14 4.60979e-14 -6.34894e-14 0 0 -9.70602e-14 -2.41838e-14 8.97962e-14 -5.53218e-14 0 0 -4.88349e-14 -1.31527e-13 1.91903e-13 -1.23335e-13 0 0 2.68753e-14 -1.88983e-13 1.51282e-13 -8.19997e-14 0 0 3.945e-14 -1.68292e-13 6.80833e-14 -6.94643e-14 0 0 -3.11589e-14 -7.71468e-14 1.01469e-14 -1.48781e-13 0 0 -1.34811e-14 -6.83488e-14 3.36485e-15 -1.95135e-13 0 0 5.57331e-14 -1.6762e-13 5.84273e-14 -2.3559e-13 0 0 1.51237e-14 -1.69671e-13 4.56726e-14 -2.0565e-13 0 0 3.81545e-14 -2.04918e-13 2.80512e-15 -1.25527e-13 0 0 -3.12689e-14 -2.26571e-13 1.37123e-14 -1.43358e-13 0 0 -1.45376e-13 -2.26953e-13 5.09526e-14 -2.27041e-13 0 0 -1.22528e-13 -1.85683e-13 -6.45256e-14 -2.07745e-13 0 0 -1.16635e-13 -7.7226e-14 -2.29543e-13 -1.43768e-13 0 0 -6.77231e-14 -1.20654e-13 -1.7906e-13 -2.05281e-13 0 0 2.84612e-14 -2.45984e-13 -3.03486e-14 -3.04625e-13 0 0 7.21856e-15 -2.8387e-13 1.32398e-14 -2.47839e-13 0 0 -1.065e-13 -2.7432e-13 1.20487e-14 -1.9613e-13 0 0 -2.29308e-13 -1.76022e-13 -5.98386e-14 -1.44668e-13 0 0 -2.87984e-13 -1.40787e-13 -1.77604e-16 -1.98882e-13 0 0 -2.47196e-13 -1.39266e-13 4.2134e-15 -2.41535e-13 0 0 -1.94261e-13 -1.21782e-13 -4.28293e-14 -1.69872e-13 0 0 -1.18164e-13 -1.08033e-13 -4.15603e-14 -1.43395e-13 0 0 -3.30938e-14 -8.76033e-14 8.82215e-14 -1.35449e-13 0 0 1.2243e-13 4.13052e-14 3.72007e-13 -5.77082e-14 0 0 4.25163e-13 4.87084e-13 8.39359e-13 2.61686e-13 0 0 1.01112e-12 1.5048e-12 1.78226e-12 9.63026e-13 0 0 2.16009e-12 3.4625e-12 3.71904e-12 2.19291e-12 0 0 4.32701e-12 6.87773e-12 7.258e-12 4.27809e-12 0 0 7.66338e-12 1.22716e-11 1.27817e-11 7.59549e-12 0 0 1.13529e-11 1.84867e-11 1.89552e-11 1.15176e-11 0 0 1.04441e-11 1.74914e-11 1.79814e-11 1.11574e-11 0 0 -7.39187e-12 -1.10523e-11 -1.02562e-11 -6.14156e-12 0 0 -7.56957e-11 -1.2099e-10 -1.19376e-10 -7.32522e-11 0 0 -2.72991e-10 -4.3913e-10 -4.35935e-10 -2.68221e-10 0 0 -7.70549e-10 -1.24226e-09 -1.23631e-09 -7.61671e-10 0 0 -1.91634e-09 -3.09315e-09 -3.08308e-09 -1.90114e-09 0 0 -4.38137e-09 -7.07842e-09 -7.064e-09 -4.35941e-09 0 0 -9.42013e-09 -1.52033e-08 -1.52252e-08 -9.37803e-09 0 0 -1.92151e-08 -3.13387e-08 -3.09889e-08 -1.94314e-08 0 0 -3.80057e-08 -6.07847e-08 -6.23016e-08 -3.73147e-08 0 0 -7.10199e-08 -1.15755e-07 -1.13015e-07 -7.34066e-08 0 0 -1.2707e-07 -2.1154e-07 -2.16644e-07 -1.27114e-07 0 0 -2.33328e-07 -3.56465e-07 -3.59264e-07 -2.37775e-07 0 0 -3.6953e-07 -6.51545e-07 -6.54492e-07 -3.80439e-07 0 0 -6.56186e-07 -9.96552e-07 -1.00896e-06 -6.77756e-07 0 0 -9.83558e-07 -1.70908e-06 -1.71704e-06 -1.01457e-06 0 0 -1.57305e-06 -2.55408e-06 -2.67107e-06 -1.72072e-06 0 0 -2.4673e-06 -3.87017e-06 -3.83189e-06 -2.43316e-06 0 0 -3.3705e-06 -5.94594e-06 -6.21598e-06 -3.84938e-06 0 0 -5.22031e-06 -8.4981e-06 -8.56705e-06 -5.50133e-06 0 0 -7.09758e-06 -1.15096e-05 -1.21088e-05 -7.62271e-06 0 0 -9.81573e-06 -1.66821e-05 -1.71786e-05 -1.09006e-05 0 0 -1.34245e-05 -2.23113e-05 -2.28036e-05 -1.43865e-05 0 0 -1.72795e-05 -2.83969e-05 -2.959e-05 -1.87328e-05 0 0 -2.22167e-05 -3.6775e-05 -3.76649e-05 -2.3839e-05 0 0 -2.79784e-05 -4.59409e-05 -4.64644e-05 -2.90505e-05 0 0 -3.39321e-05 -5.49099e-05 -5.48669e-05 -3.38788e-05 0 0 -3.95504e-05 -6.30244e-05 -6.19415e-05 -3.76862e-05 0 0 -4.43964e-05 -6.96417e-05 -6.70693e-05 -4.01308e-05 0 0 -4.84847e-05 -7.48927e-05 -7.06295e-05 -4.15349e-05 0 0 -5.19907e-05 -7.92086e-05 -7.32807e-05 -4.2385e-05 0 0 -5.49419e-05 -8.28499e-05 -7.55277e-05 -4.30206e-05 0 0 -5.74433e-05 -8.61145e-05 -7.77486e-05 -4.38488e-05 0 0 -5.97001e-05 -8.94331e-05 -8.07026e-05 -4.53726e-05 0 0 -6.16102e-05 -9.26684e-05 -8.35395e-05 -4.72411e-05 0 0 -6.46091e-05 -9.75522e-05 -8.84189e-05 -5.10485e-05 0 0 -7.06188e-05 -0.000107321 -9.90786e-05 -5.64892e-05 0 0 -7.74305e-05 -0.000118344 -0.000110389 -6.32002e-05 0 0 -8.37256e-05 -0.000129787 -0.000123825 -7.2758e-05 0 0 -9.49122e-05 -0.000149468 -0.000144985 -8.79869e-05 0 0 -0.00011223 -0.00017926 -0.000175057 -0.000105404 0 0 -0.000131379 -0.000211684 -0.000206214 -0.000124037 0 0 -0.000150086 -0.00024171 -0.000236461 -0.00014563 0 0 -0.000165583 -0.000269403 -0.000277455 -0.000175066 0 0 -0.000189441 -0.000313303 -0.000328865 -0.000206468 0 0 -0.00022433 -0.000370798 -0.000381815 -0.000233798 0 0 -0.000259001 -0.000431822 -0.000432495 -0.000262031 0 0 -0.000308225 -0.000487974 -0.00047746 -0.000303334 0 0 -0.000382595 -0.00054766 -0.000509666 -0.000306274 0 0 -0.000477108 -0.00067132 -0.000574575 -0.00029352 0 0 -0.000594582 -0.000874933 -0.000668477 -0.000242477 0 0 -0.000734058 -0.00111841 -0.000724866 -8.33195e-05 0 0 -0.000863187 -0.00136208 -0.000757747 0.000139418 0 0 -0.000883559 -0.00143141 -0.000777574 0.000222339 0 0 -0.000859803 -0.0013727 -0.000747066 0.000188729 0 0 -0.000768825 -0.00116152 -0.000626705 6.48438e-05 0 0 -0.000628454 -0.000845354 -0.000579468 -7.23686e-05 0 0 -0.000527754 -0.00072955 -0.000618128 -0.000135523 0 0 -0.000398126 -0.000615629 -0.000644322 -0.000280475 0 0 0.00016899 0.000180473 -0.000376176 -0.000702369 0 0 0.00108193 0.00156236 0.000511782 -0.000642979 0 0 0.00125649 0.00182342 0.00109553 -0.000160375 0 0 0.0012158 0.00176567 0.00112492 0.000348093 0 0 0.00106111 0.0015319 0.00110773 0.000460878 0 0 0.00087598 0.00124585 0.00100982 0.000474948 0 0 0.00071153 0.000998611 0.000863313 0.000472645 0 0 0.00057716 0.000812335 0.000735693 0.000443465 0 0 0.000475913 0.00068833 0.000635111 0.00038233 0 0 0.00040642 0.000607871 0.000557251 0.000325363 0 0 0.000358979 0.000546257 0.000492994 0.000277268 0 0 0.000320024 0.000486371 0.000434526 0.000238707 0 0 0.000279246 0.000421107 0.000377045 0.000206563 0 0 0.000236898 0.000355316 0.000319493 0.000177098 0 0 0.000197582 0.000295444 0.000267297 0.000150639 0 0 0.000165232 0.000248012 0.000226594 0.000129728 0 0 0.000137782 0.000209557 0.000194419 0.000113015 0 0 0.000112486 0.000174533 0.000165233 9.77108e-05 0 0 9.14793e-05 0.000144649 0.000139685 8.39476e-05 0 0 7.8082e-05 0.000124508 0.000121689 7.37988e-05 0 0 7.1713e-05 0.000114165 0.000111954 6.80426e-05 0 0 6.76475e-05 0.000107963 0.000106139 6.46422e-05 0 0 6.29039e-05 0.000100788 9.95013e-05 6.08232e-05 0 0 5.72608e-05 9.19807e-05 9.11032e-05 5.58425e-05 0 0 5.03857e-05 8.10831e-05 8.04989e-05 4.94412e-05 0 0 4.2049e-05 6.77552e-05 6.73836e-05 4.14482e-05 0 0 3.25785e-05 5.2546e-05 5.23269e-05 3.22243e-05 0 0 2.28883e-05 3.69467e-05 3.68339e-05 2.2706e-05 0 0 1.41903e-05 2.29207e-05 2.28704e-05 1.4109e-05 0 0 7.59513e-06 1.22739e-05 1.22548e-05 7.56421e-06 0 0 3.48392e-06 5.63232e-06 5.62639e-06 3.47432e-06 0 0 1.39981e-06 2.26368e-06 2.26212e-06 1.39729e-06 0 0 5.14419e-07 8.32059e-07 8.31703e-07 5.13842e-07 0 0 1.79821e-07 2.90897e-07 2.90823e-07 1.79701e-07 0 0 6.11949e-08 9.90037e-08 9.89892e-08 6.11713e-08 0 0 2.04909e-08 3.31527e-08 3.315e-08 2.04865e-08 0 0 6.78057e-09 1.09708e-08 1.09705e-08 6.77974e-09 0 0 2.2209e-09 3.59369e-09 3.59356e-09 2.22082e-09 0 0 7.20378e-10 1.16584e-09 1.16576e-09 7.20389e-10 0 0 2.31385e-10 3.7452e-10 3.74532e-10 2.31312e-10 0 0 7.35641e-11 1.18994e-10 1.19112e-10 7.34515e-11 0 0 2.3108e-11 3.72505e-11 3.75113e-11 2.28939e-11 0 0 7.0333e-12 1.14649e-11 1.16353e-11 6.89849e-12 0 0 2.00579e-12 3.32968e-12 3.49176e-12 2.00752e-12 0 0 5.55449e-13 7.49107e-13 9.20571e-13 4.94186e-13 0 0 3.39728e-14 1.11542e-13 -2.18194e-14 1.08839e-13 0 0 -1.08863e-13 -1.66758e-13 -1.85273e-13 -8.50649e-14 0 0 -1.02451e-13 -3.25933e-13 -1.06087e-13 -2.75313e-13 0 0 -2.12097e-13 -2.71852e-13 -1.50849e-13 -2.57726e-13 0 0 -2.54983e-13 -2.66304e-13 -1.94682e-13 -2.1177e-13 0 0 -2.20936e-13 -1.59198e-13 -4.28699e-13 1.74447e-14 0 0 -9.70286e-14 -1.70833e-13 -6.07599e-13 2.71741e-13 0 0 -3.16423e-14 -2.64604e-13 -4.25452e-13 1.14306e-13 0 0 -1.44127e-13 -2.41415e-13 -1.72812e-13 -2.1045e-13 0 0 -1.49417e-13 -2.32275e-13 -2.42612e-13 -2.14708e-13 0 0 -1.97792e-13 -8.21569e-14 -5.48294e-13 8.78285e-14 0 0 -1.29334e-13 -3.13665e-13 -2.97537e-13 1.25059e-13 0 0 -1.0646e-13 -4.01385e-13 -1.09231e-13 3.02701e-14 0 0 -2.69072e-13 -1.83262e-13 -1.81167e-13 -1.03295e-13 0 0 -1.90382e-13 -5.74931e-13 3.33434e-13 -4.24992e-13 0 0 -2.88296e-13 -6.05131e-13 3.71588e-13 -4.3863e-13 0 0 -2.56734e-13 -5.26305e-13 1.21979e-14 -1.59827e-13 0 0 -2.45098e-13 -3.96335e-13 -3.56132e-13 1.63057e-13 0 0 -4.09917e-13 -1.36666e-13 -5.88903e-13 2.75262e-13 0
				</DataArray>
				<DataArray Name="VitesseY" type="Float32" format="ascii">