<?xml version="1.0"?>
<VTKFile type="PolyData">
	<PolyData>
		<Piece NumberOfPoints="1206" NumberOfPolys="1000">
			<Points>
				<DataArray type="Float32" NumberOfComponents="3" format="ascii">
 0 0 0 0.02 0 0 0.04 0 0 0.06 0 0 0.08 0 0 0.1 0 0 0 0.005 0 0.02 0.005 0 0.04 0.005 0 0.06 0.005 0 0.08 0.005 0 0.1 0.005 0 0 0.01 0 0.02 0.01 0 0.04 0.01 0 0.06 0.01 0 0.08 0.01 0 0.1 0.01 0 0 0.015 0 0.02 0.015 0 0.04 0.015 0 0.06 0.015 0 0.08 0.015 0 0.1 0.015 0 0 0.02 0 0.02 0.02 0 0.04 0.02 0 0.06 0.02 0 0.08 0.02 0 0.1 0.02 0 0 0.025 0 0.02 0.025 0 0.04 0.025 0 0.06 0.025 0 0.08 0.025 0 0.1 0.025 0 0 0.03 0 0.02 0.03 0 0.04 0.03 0 0.06 0.03 0 0.08 0.03 0 0.1 0.03 0 0 0.035 0 0.02 0.035 0 0.04 0.035 0 0.06 0.035 0 0.08 0.035 0 0.1 0.035 0 0 0.04 0 0.02 0.04 0 0.04 0.04 0 0.06 0.04 0 0.08 0.04 0 0.1 0.04 0 0 0.045 0 0.02 0.045 0 0.04 0.045 0 0.06 0.045 0 0.08 0.045 0 0.1 0.045 0 0 0.05 0 0.02 0.05 0 0.04 0.05 0 0.06 0.05 0 0.08 0.05 0 0.1 0.05 0 0 0.055 0 0.02 0.055 0 0.04 0.055 0 0.06 0.055 0 0.08 0.055 0 0.1 0.055 0 0 0.06 0 0.02 0.06 0 0.04 0.06 0 0.06 0.06 0 0.08 0.06 0 0.1 0.06 0 0 0.065 0 0.02 0.065 0 0.04 0.065 0 0.06 0.065 0 0.08 0.065 0 0.1 0.065 0 0 0.07 0 0.02 0.07 0 0.04 0.07 0 0.06 0.07 0 0.08 0.07 0 0.1 0.07 0 0 0.075 0 0.02 0.075 0 0.04 0.075 0 0.06 0.075 0 0.08 0.075 0 0.1 0.075 0 0 0.08 0 0.02 0.08 0 0.04 0.08 0 0.06 0.08 0 0.08 0.08 0 0.1 0.08 0 0 0.085 0 0.02 0.085 0 0.04 0.085 0 0.06 0.085 0 0.08 0.085 0 0.1 0.085 0 0 0.09 0 0.02 0.09 0 0.04 0.09 0 0.06 0.09 0 0.08 0.09 0 0.1 0.09 0 0 0.095 0 0.02 0.095 0 0.04 0.095 0 0.06 0.095 0 0.08 0.095 0 0.1 0.095 0 0 0.1 0 0.02 0.1 0 0.04 0.1 0 0.06 0.1 0 0.08 0.1 0 0.1 0.1 0 0 0.105 0 0.02 0.105 0 0.04 0.105 0 0.06 0.105 0 0.08 0.105 0 0.1 0.105 0 0 0.11 0 0.02 0.11 0 0.04 0.11 0 0.06 0.11 0 0.08 0.11 0 0.1 0.11 0 0 0.115 0 0.02 0.115 0 0.04 0.115 0 0.06 0.115 0 0.08 0.115 0 0.1 0.115 0 0 0.12 0 0.02 0.12 0 0.04 0.12 0 0.06 0.12 0 0.08 0.12 0 0.1 0.12 0 0 0.125 0 0.02 0.125 0 0.04 0.125 0 0.06 0.125 0 0.08 0.125 0 0.1 0.125 0 0 0.13 0 0.02 0.13 0 0.04 0.13 0 0.06 0.13 0 0.08 0.13 0 0.1 0.13 0 0 0.135 0 0.02 0.135 0 0.04 0.135 0 0.06 0.135 0 0.08 0.135 0 0.1 0.135 0 0 0.14 0 0.02 0.14 0 0.04 0.14 0 0.06 0.14 0 0.08 0.14 0 0.1 0.14 0 0 0.145 0 0.02 0.145 0 0.04 0.145 0 0.06 0.145 0 0.08 0.145 0 0.1 0.145 0 0 0.15 0 0.02 0.15 0 0.04 0.15 0 0.06 0.15 0 0.08 0.15 0 0.1 0.15 0 0 0.155 0 0.02 0.155 0 0.04 0.155 0 0.06 0.155 0 0.08 0.155 0 0.1 0.155 0 0 0.16 0 0.02 0.16 0 0.04 0.16 0 0.06 0.16 0 0.08 0.16 0 0.1 0.16 0 0 0.165 0 0.02 0.165 0 0.04 0.165 0 0.06 0.165 0 0.08 0.165 0 0.1 0.165 0 0 0.17 0 0.02 0.17 0 0.04 0.17 0 0.06 0.17 0 0.08 0.17 0 0.1 0.17 0 0 0.175 0 0.02 0.175 0 0.04 0.175 0 0.06 0.175 0 0.08 0.175 0 0.1 0.175 0 0 0.18 0 0.02 0.18 0 0.04 0.18 0 0.06 0.18 0 0.08 0.18 0 0.1 0.18 0 0 0.185 0 0.02 0.185 0 0.04 0.185 0 0.06 0.185 0 0.08 0.185 0 0.1 0.185 0 0 0.19 0 0.02 0.19 0 0.04 0.19 0 0.06 0.19 0 0.08 0.19 0 0.1 0.19 0 0 0.195 0 0.02 0.195 0 0.04 0.195 0 0.06 0.195 0 0.08 0.195 0 0.1 0.195 0 0 0.2 0 0.02 0.2 0 0.04 0.2 0 0.06 0.2 0 0.08 0.2 0 0.1 0.2 0 0 0.205 0 0.02 0.205 0 0.04 0.205 0 0.06 0.205 0 0.08 0.205 0 0.1 0.205 0 0 0.21 0 0.02 0.21 0 0.04 0.21 0 0.06 0.21 0 0.08 0.21 0 0.1 0.21 0 0 0.215 0 0.02 0.215 0 0.04 0.215 0 0.06 0.215 0 0.08 0.215 0 0.1 0.215 0 0 0.22 0 0.02 0.22 0 0.04 0.22 0 0.06 0.22 0 0.08 0.22 0 0.1 0.22 0 0 0.225 0 0.02 0.225 0 0.04 0.225 0 0.06 0.225 0 0.08 0.225 0 0.1 0.225 0 0 0.23 0 0.02 0.23 0 0.04 0.23 0 0.06 0.23 0 0.08 0.23 0 0.1 0.23 0 0 0.235 0 0.02 0.235 0 0.04 0.235 0 0.06 0.235 0 0.08 0.235 0 0.1 0.235 0 0 0.24 0 0.02 0.24 0 0.04 0.24 0 0.06 0.24 0 0.08 0.24 0 0.1 0.24 0 0 0.245 0 0.02 0.245 0 0.04 0.245 0 0.06 0.245 0 0.08 0.245 0 0.1 0.245 0 0 0.25 0 0.02 0.25 0 0.04 0.25 0 0.06 0.25 0 0.08 0.25 0 0.1 0.25 0 0 0.255 0 0.02 0.255 0 0.04 0.255 0 0.06 0.255 0 0.08 0.255 0 0.1 0.255 0 0 0.26 0 0.02 0.26 0 0.04 0.26 0 0.06 0.26 0 0.08 0.26 0 0.1 0.26 0 0 0.265 0 0.02 0.265 0 0.04 0.265 0 0.06 0.265 0 0.08 0.265 0 0.1 0.265 0 0 0.27 0 0.02 0.27 0 0.04 0.27 0 0.06 0.27 0 0.08 0.27 0 0.1 0.27 0 0 0.275 0 0.02 0.275 0 0.04 0.275 0 0.06 0.275 0 0.08 0.275 0 0.1 0.275 0 0 0.28 0 0.02 0.28 0 0.04 0.28 0 0.06 0.28 0 0.08 0.28 0 0.1 0.28 0 0 0.285 0 0.02 0.285 0 0.04 0.285 0 0.06 0.285 0 0.08 0.285 0 0.1 0.285 0 0 0.29 0 0.02 0.29 0 0.04 0.29 0 0.06 0.29 0 0.08 0.29 0 0.1 0.29 0 0 0.295 0 0.02 0.295 0 0.04 0.295 0 0.06 0.295 0 0.08 0.295 0 0.1 0.295 0 0 0.3 0 0.02 0.3 0 0.04 0.3 0 0.06 0.3 0 0.08 0.3 0 0.1 0.3 0 0 0.305 0 0.02 0.305 0 0.04 0.305 0 0.06 0.305 0 0.08 0.305 0 0.1 0.305 0 0 0.31 0 0.02 0.31 0 0.04 0.31 0 0.06 0.31 0 0.08 0.31 0 0.1 0.31 0 0 0.315 0 0.02 0.315 0 0.04 0.315 0 0.06 0.315 0 0.08 0.315 0 0.1 0.315 0 0 0.32 0 0.02 0.32 0 0.04 0.32 0 0.06 0.32 0 0.08 0.32 0 0.1 0.32 0 0 0.325 0 0.02 0.325 0 0.04 0.325 0 0.06 0.325 0 0.08 0.325 0 0.1 0.325 0 0 0.33 0 0.02 0.33 0 0.04 0.33 0 0.06 0.33 0 0.08 0.33 0 0.1 0.33 0 0 0.335 0 0.02 0.335 0 0.04 0.335 0 0.06 0.335 0 0.08 0.335 0 0.1 0.335 0 0 0.34 0 0.02 0.34 0 0.04 0.34 0 0.06 0.34 0 0.08 0.34 0 0.1 0.34 0 0 0.345 0 0.02 0.345 0 0.04 0.345 0 0.06 0.345 0 0.08 0.345 0 0.1 0.345 0 0 0.35 0 0.02 0.35 0 0.04 0.35 0 0.06 0.35 0 0.08 0.35 0 0.1 0.35 0 0 0.355 0 0.02 0.355 0 0.04 0.355 0 0.06 0.355 0 0.08 0.355 0 0.1 0.355 0 0 0.36 0 0.02 0.36 0 0.04 0.36 0 0.06 0.36 0 0.08 0.36 0 0.1 0.36 0 0 0.365 0 0.02 0.365 0 0.04 0.365 0 0.06 0.365 0 0.08 0.365 0 0.1 0.365 0 0 0.37 0 0.02 0.37 0 0.04 0.37 0 0.06 0.37 0 0.08 0.37 0 0.1 0.37 0 0 0.375 0 0.02 0.375 0 0.04 0.375 0 0.06 0.375 0 0.08 0.375 0 0.1 0.375 0 0 0.38 0 0.02 0.38 0 0.04 0.38 0 0.06 0.38 0 0.08 0.38 0 0.1 0.38 0 0 0.385 0 0.02 0.385 0 0.04 0.385 0 0.06 0.385 0 0.08 0.385 0 0.1 0.385 0 0 0.39 0 0.02 0.39 0 0.04 0.39 0 0.06 0.39 0 0.08 0.39 0 0.1 0.39 0 0 0.395 0 0.02 0.395 0 0.04 0.395 0 0.06 0.395 0 0.08 0.395 0 0.1 0.395 0 0 0.4 0 0.02 0.4 0 0.04 0.4 0 0.06 0.4 0 0.08 0.4 0 0.1 0.4 0 0 0.405 0 0.02 0.405 0 0.04 0.405 0 0.06 0.405 0 0.08 0.405 0 0.1 0.405 0 0 0.41 0 0.02 0.41 0 0.04 0.41 0 0.06 0.41 0 0.08 0.41 0 0.1 0.41 0 0 0.415 0 0.02 0.415 0 0.04 0.415 0 0.06 0.415 0 0.08 0.415 0 0.1 0.415 0 0 0.42 0 0.02 0.42 0 0.04 0.42 0 0.06 0.42 0 0.08 0.42 0 0.1 0.42 0 0 0.425 0 0.02 0.425 0 0.04 0.425 0 0.06 0.425 0 0.08 0.425 0 0.1 0.425 0 0 0.43 0 0.02 0.43 0 0.04 0.43 0 0.06 0.43 0 0.08 0.43 0 0.1 0.43 0 0 0.435 0 0.02 0.435 0 0.04 0.435 0 0.06 0.435 0 0.08 0.435 0 0.1 0.435 0 0 0.44 0 0.02 0.44 0 0.04 0.44 0 0.06 0.44 0 0.08 0.44 0 0.1 0.44 0 0 0.445 0 0.02 0.445 0 0.04 0.445 0 0.06 0.445 0 0.08 0.445 0 0.1 0.445 0 0 0.45 0 0.02 0.45 0 0.04 0.45 0 0.06 0.45 0 0.08 0.45 0 0.1 0.45 0 0 0.455 0 0.02 0.455 0 0.04 0.455 0 0.06 0.455 0 0.08 0.455 0 0.1 0.455 0 0 0.46 0 0.02 0.46 0 0.04 0.46 0 0.06 0.46 0 0.08 0.46 0 0.1 0.46 0 0 0.465 0 0.02 0.465 0 0.04 0.465 0 0.06 0.465 0 0.08 0.465 0 0.1 0.465 0 0 0.47 0 0.02 0.47 0 0.04 0.47 0 0.06 0.47 0 0.08 0.47 0 0.1 0.47 0 0 0.475 0 0.02 0.475 0 0.04 0.475 0 0.06 0.475 0 0.08 0.475 0 0.1 0.475 0 0 0.48 0 0.02 0.48 0 0.04 0.48 0 0.06 0.48 0 0.08 0.48 0 0.1 0.48 0 0 0.485 0 0.02 0.485 0 0.04 0.485 0 0.06 0.485 0 0.08 0.485 0 0.1 0.485 0 0 0.49 0 0.02 0.49 0 0.04 0.49 0 0.06 0.49 0 0.08 0.49 0 0.1 0.49 0 0 0.495 0 0.02 0.495 0 0.04 0.495 0 0.06 0.495 0 0.08 0.495 0 0.1 0.495 0 0 0.5 0 0.02 0.5 0 0.04 0.5 0 0.06 0.5 0 0.08 0.5 0 0.1 0.5 0 0 0.505 0 0.02 0.505 0 0.04 0.505 0 0.06 0.505 0 0.08 0.505 0 0.1 0.505 0 0 0.51 0 0.02 0.51 0 0.04 0.51 0 0.06 0.51 0 0.08 0.51 0 0.1 0.51 0 0 0.515 0 0.02 0.515 0 0.04 0.515 0 0.06 0.515 0 0.08 0.515 0 0.1 0.515 0 0 0.52 0 0.02 0.52 0 0.04 0.52 0 0.06 0.52 0 0.08 0.52 0 0.1 0.52 0 0 0.525 0 0.02 0.525 0 0.04 0.525 0 0.06 0.525 0 0.08 0.525 0 0.1 0.525 0 0 0.53 0 0.02 0.53 0 0.04 0.53 0 0.06 0.53 0 0.08 0.53 0 0.1 0.53 0 0 0.535 0 0.02 0.535 0 0.04 0.535 0 0.06 0.535 0 0.08 0.535 0 0.1 0.535 0 0 0.54 0 0.02 0.54 0 0.04 0.54 0 0.06 0.54 0 0.08 0.54 0 0.1 0.54 0 0 0.545 0 0.02 0.545 0 0.04 0.545 0 0.06 0.545 0 0.08 0.545 0 0.1 0.545 0 0 0.55 0 0.02 0.55 0 0.04 0.55 0 0.06 0.55 0 0.08 0.55 0 0.1 0.55 0 0 0.555 0 0.02 0.555 0 0.04 0.555 0 0.06 0.555 0 0.08 0.555 0 0.1 0.555 0 0 0.56 0 0.02 0.56 0 0.04 0.56 0 0.06 0.56 0 0.08 0.56 0 0.1 0.56 0 0 0.565 0 0.02 0.565 0 0.04 0.565 0 0.06 0.565 0 0.08 0.565 0 0.1 0.565 0 0 0.57 0 0.02 0.57 0 0.04 0.57 0 0.06 0.57 0 0.08 0.57 0 0.1 0.57 0 0 0.575 0 0.02 0.575 0 0.04 0.575 0 0.06 0.575 0 0.08 0.575 0 0.1 0.575 0 0 0.58 0 0.02 0.58 0 0.04 0.58 0 0.06 0.58 0 0.08 0.58 0 0.1 0.58 0 0 0.585 0 0.02 0.585 0 0.04 0.585 0 0.06 0.585 0 0.08 0.585 0 0.1 0.585 0 0 0.59 0 0.02 0.59 0 0.04 0.59 0 0.06 0.59 0 0.08 0.59 0 0.1 0.59 0 0 0.595 0 0.02 0.595 0 0.04 0.595 0 0.06 0.595 0 0.08 0.595 0 0.1 0.595 0 0 0.6 0 0.02 0.6 0 0.04 0.6 0 0.06 0.6 0 0.08 0.6 0 0.1 0.6 0 0 0.605 0 0.02 0.605 0 0.04 0.605 0 0.06 0.605 0 0.08 0.605 0 0.1 0.605 0 0 0.61 0 0.02 0.61 0 0.04 0.61 0 0.06 0.61 0 0.08 0.61 0 0.1 0.61 0 0 0.615 0 0.02 0.615 0 0.04 0.615 0 0.06 0.615 0 0.08 0.615 0 0.1 0.615 0 0 0.62 0 0.02 0.62 0 0.04 0.62 0 0.06 0.62 0 0.08 0.62 0 0.1 0.62 0 0 0.625 0 0.02 0.625 0 0.04 0.625 0 0.06 0.625 0 0.08 0.625 0 0.1 0.625 0 0 0.63 0 0.02 0.63 0 0.04 0.63 0 0.06 0.63 0 0.08 0.63 0 0.1 0.63 0 0 0.635 0 0.02 0.635 0 0.04 0.635 0 0.06 0.635 0 0.08 0.635 0 0.1 0.635 0 0 0.64 0 0.02 0.64 0 0.04 0.64 0 0.06 0.64 0 0.08 0.64 0 0.1 0.64 0 0 0.645 0 0.02 0.645 0 0.04 0.645 0 0.06 0.645 0 0.08 0.645 0 0.1 0.645 0 0 0.65 0 0.02 0.65 0 0.04 0.65 0 0.06 0.65 0 0.08 0.65 0 0.1 0.65 0 0 0.655 0 0.02 0.655 0 0.04 0.655 0 0.06 0.655 0 0.08 0.655 0 0.1 0.655 0 0 0.66 0 0.02 0.66 0 0.04 0.66 0 0.06 0.66 0 0.08 0.66 0 0.1 0.66 0 0 0.665 0 0.02 0.665 0 0.04 0.665 0 0.06 0.665 0 0.08 0.665 0 0.1 0.665 0 0 0.67 0 0.02 0.67 0 0.04 0.67 0 0.06 0.67 0 0.08 0.67 0 0.1 0.67 0 0 0.675 0 0.02 0.675 0 0.04 0.675 0 0.06 0.675 0 0.08 0.675 0 0.1 0.675 0 0 0.68 0 0.02 0.68 0 0.04 0.68 0 0.06 0.68 0 0.08 0.68 0 0.1 0.68 0 0 0.685 0 0.02 0.685 0 0.04 0.685 0 0.06 0.685 0 0.08 0.685 0 0.1 0.685 0 0 0.69 0 0.02 0.69 0 0.04 0.69 0 0.06 0.69 0 0.08 0.69 0 0.1 
[...]
			<PointData Scalars="VitesseX">
				<DataArray Name="VitesseX" type="Float32" format="ascii">
 0 -2.68147e-15 -1.37469e-14 1.46379e-14 -2.80558e-14 0 0 1.03639e-15 -1.53437e-14 1.32378e-14 -2.25066e-14 0 0 -1.24902e-15 4.50527e-16 -1.07668e-14 5.77136e-15 0 0 2.17476e-14 -2.45033e-14 1.33259e-14 4.06683e-15 0 0 1.95604e-14 -1.35982e-14 1.96956e-14 1.68386e-15 0 0 -2.39177e-14 5.57007e-14 -2.35589e-14 2.77847e-14 0 0 -1.60847e-14 3.29686e-14 2.34536e-14 -6.37564e-16 0 0 2.0203e-14 -2.09138e-14 8.38828e-14 -3.71981e-14 0 0 9.11657e-15 1.19173e-14 6.18837e-14 -2.75607e-14 0 0 7.51892e-15 4.34809e-14 2.55124e-14 -1.76506e-15 0 0 6.06016e-14 -9.91805e-15 4.67304e-14 3.29141e-16 0 0 3.40908e-14 3.82504e-14 -2.29717e-14 5.06589e-14 0 0 6.55577e-14 -2.8987e-14 3.29968e-14 1.32878e-14 0 0 6.00252e-14 -2.90505e-14 2.07866e-14 2.34499e-15 0 0 2.9012e-14 1.77887e-14 -4.25379e-14 4.1044e-14 0 0 8.33133e-14 -9.85971e-14 9.01116e-14 -3.79014e-14 0 0 6.55881e-16 2.77525e-14 -1.56393e-14 2.34739e-14 0 0 1.0462e-14 3.53908e-14 -1.27905e-14 8.89651e-15 0 0 3.78653e-14 -7.55899e-15 6.19357e-14 -5.61593e-14 0 0 2.28143e-14 2.80326e-14 2.0846e-14 -2.70267e-14 0 0 7.8441e-14 -6.57688e-14 8.51492e-14 -6.85291e-14 0 0 7.68392e-14 -9.4443e-14 9.42866e-14 -6.78137e-14 0 0 2.11632e-15 1.27888e-14 -3.21279e-14 1.4663e-14 0 0 -8.34963e-14 1.35095e-13 -1.41719e-13 6.81659e-14 0 0 1.26832e-14 -1.09462e-14 -7.36825e-15 8.32035e-15 0 0 1.37757e-13 -2.07165e-13 1.85834e-13 -7.47655e-14 0 0 8.76763e-15 -1.23602e-14 2.7562e-14 1.01963e-14 0 0 -4.43586e-14 7.98415e-14 -8.04743e-14 9.44011e-14 0 0 2.56659e-14 -1.1944e-14 -2.28743e-14 1.09809e-13 0 0 6.51091e-14 -5.51e-14 9.29139e-15 1.17269e-13 0 0 2.78194e-14 -1.43971e-15 -2.34042e-14 1.33227e-13 0 0 3.50219e-14 -7.80926e-15 -2.59574e-16 6.94109e-14 0 0 6.56578e-14 -5.2456e-14 5.44822e-14 -3.83747e-14 0 0 -3.65821e-14 8.40176e-14 -5.4396e-14 -6.15513e-14 0 0 7.63284e-15 2.27528e-14 -1.36454e-14 -1.27524e-13 0 0 8.12419e-14 -6.85978e-14 1.88442e-14 -1.01537e-13 0 0 8.39236e-14 -7.10705e-14 8.56139e-16 -6.51925e-14 0 0 -1.04084e-14 8.88022e-14 -1.53739e-13 5.00501e-14 0 0 8.06584e-14 -6.47035e-14 6.43586e-16 -7.8116e-16 0 0 1.29502e-13 -1.4585e-13 7.0509e-14 -2.66813e-14 0 0 9.24385e-15 2.72506e-16 -4.87755e-15 -1.36634e-14 0 0 -2.63274e-14 -3.06656e-14 1.35083e-13 -1.58389e-13 0 0 -1.34902e-13 1.42045e-13 -1.75275e-14 -9.27736e-14 0 0 -5.05334e-14 9.22888e-14 -5.96063e-14 -3.33181e-14 0 0 1.47214e-13 -1.32746e-13 7.49262e-14 -5.53919e-14 0 0 8.65666e-14 4.91766e-14 -1.48245e-13 1.31068e-13 0 0 1.20179e-13 6.2422e-14 -2.07332e-13 1.84583e-13 0 0 9.92141e-14 6.35017e-14 -1.62797e-13 1.17268e-13 0 0 2.63685e-14 1.17465e-13 -1.60465e-13 6.79219e-14 0 0 9.96362e-14 6.80016e-16 -3.13617e-14 -5.62915e-14 0 0 2.00087e-13 -1.09843e-13 6.2568e-14 -1.3899e-13 0 0 2.8312e-13 -1.97364e-13 1.21332e-13 -1.45579e-13 0 0 -1.06743e-13 3.96724e-13 -5.01135e-13 3.21469e-13 0 0 7.56294e-15 1.33162e-13 -2.41712e-13 1.86959e-13 0 0 3.72562e-13 -4.08262e-13 2.78306e-13 -2.06905e-13 0 0 1.96232e-13 -3.78291e-14 -1.37096e-13 1.6135e-15 0 0 2.33575e-13 -7.83535e-14 -1.29165e-13 -3.03534e-14 0 0 1.52581e-13 1.04432e-13 -3.55952e-13 4.00881e-14 0 0 1.37153e-13 1.37344e-13 -3.85833e-13 -2.46832e-14 0 0 2.86475e-13 -1.56982e-13 -1.36956e-13 -1.38891e-13 0 0 2.3441e-13 -1.67772e-13 -1.14788e-13 -1.14587e-13 0 0 8.8617e-14 -6.4926e-14 -4.03832e-14 -2.18645e-13 0 0 -5.1979e-14 7.71066e-14 -7.5286e-14 -1.73155e-13 0 0 4.41876e-14 -7.27822e-14 5.81598e-14 -2.05083e-13 0 0 6.25966e-14 -5.90233e-14 1.4548e-14 -1.51412e-13 0 0 -1.48513e-14 7.75448e-14 -7.82194e-14 -7.00895e-14 0 0 -1.35569e-14 7.68509e-14 -4.78817e-14 -4.41274e-14 0 0 1.34639e-15 8.03679e-14 -1.18255e-13 7.71262e-14 0 0 1.85429e-13 -1.52306e-13 7.41989e-14 -4.28879e-14 0 0 2.28543e-13 -1.29697e-13 3.76646e-14 -8.37293e-14 0 0 -1.21084e-14 3.46951e-13 -4.51814e-13 1.60214e-13 0 0 2.10953e-13 1.30323e-14 -8.3898e-14 -1.20266e-13 0 0 3.58543e-13 -2.0957e-13 1.56619e-13 -2.47696e-13 0 0 3.46962e-13 -1.43077e-13 5.58002e-14 -9.89501e-14 0 0 2.13486e-13 7.74755e-14 -1.5921e-13 6.41333e-14 0 0 1.55551e-13 2.7748e-13 -3.1344e-13 1.01364e-13 0 0 6.19526e-13 -2.06623e-13 1.34366e-13 -1.81378e-13 0 0 4.75199e-13 1.50449e-13 -1.34776e-13 -6.13539e-14 0 0 3.24623e-13 2.41854e-13 8.23336e-14 -3.60081e-13 0 0 1.93133e-13 4.20124e-13 -8.53525e-14 -1.3678e-13 0 0 4.25954e-13 7.44015e-14 5.58405e-14 1.32299e-13 0 0 6.1742e-13 -3.79116e-13 5.49348e-13 9.99679e-14 0 0 -1.04233e-13 7.02583e-13 -4.88397e-13 8.91234e-13 0 0 1.6651e-13 2.26215e-13 3.187e-15 5.42064e-13 0 0 8.81663e-13 -8.59254e-13 1.09076e-12 -2.02757e-13 0 0 -1.67273e-14 -3.94115e-14 -1.9898e-13 1.92172e-13 0 0 -5.90761e-12 -7.99194e-12 -9.74407e-12 -5.80306e-12 0 0 -8.03193e-11 -1.33419e-10 -1.37571e-10 -8.76548e-11 0 0 -8.35864e-10 -1.37253e-09 -1.39557e-09 -8.73937e-10 0 0 -7.11259e-09 -1.16428e-08 -1.18073e-08 -7.38045e-09 0 0 -5.15926e-08 -8.56207e-08 -8.82764e-08 -5.58898e-08 0 0 -2.88394e-07 -4.95848e-07 -5.3231e-07 -3.47429e-07 0 0 -1.06731e-06 -1.9145e-06 -2.14967e-06 -1.44722e-06 0 0 -2.97418e-06 -5.62573e-06 -6.64036e-06 -4.61551e-06 0 0 -6.88251e-06 -1.37823e-05 -1.718e-05 -1.23527e-05 0 0 -1.37999e-05 -2.94615e-05 -3.87109e-05 -2.87021e-05 0 0 -2.41892e-05 -5.72938e-05 -8.00409e-05 -6.16499e-05 0 0 -3.8655e-05 -9.58754e-05 -0.000138517 -0.000105627 0 0 -5.65691e-05 -0.000152108 -0.000234715 -0.000192989 0 0 -7.62151e-05 -0.000231908 -0.000358348 -0.000279745 0 0 -9.90627e-05 -0.000303891 -0.000473626 -0.000348459 0 0 -0.000115877 -0.000393403 -0.000584666 -0.000439791 0 0 -0.000124642 -0.000509242 -0.000761721 -0.000556537 0 0 -0.00013784 -0.00062892 -0.000980838 -0.000555512 0 0 -0.000171119 -0.000786519 -0.00113719 -0.000491694 0 0 -0.000183859 -0.000976395 -0.0011546 -0.000217506 0 0 -0.000164511 -0.00100313 -0.00113248 0.000219757 0 0 -9.97905e-05 -0.000948044 -0.00104511 0.000341178 0 0 2.09991e-05 -0.000722153 -0.000880204 0.000326807 0 0 0.000136416 -0.000371446 -0.000579861 0.000211436 0 0 0.000165075 -4.46166e-05 -0.0002849 1.3972e-05 0 0 0.000177328 0.000191409 -9.20605e-05 -0.00017696 0 0 0.000184211 0.00036253 5.40385e-06 -0.00057413 0 0 0.000207699 0.000862865 0.000437482 -0.000660053 0 0 0.000368772 0.00126303 0.0013842 -3.1214e-05 0 0 0.00047593 0.00119714 0.00141002 0.00063681 0 0 0.000465482 0.00100231 0.00121426 0.000706698 0 0 0.000406161 0.000821658 0.000984687 0.000662836 0 0 0.00032952 0.00065699 0.000786763 0.000538387 0 0 0.000250728 0.00048811 0.000581366 0.00039934 0 0 0.000172131 0.000324914 0.000380292 0.000261318 0 0 0.000102943 0.000188763 0.000215715 0.000146677 0 0 5.19614e-05 9.2718e-05 0.000103307 6.91107e-05 0 0 2.13385e-05 3.7112e-05 4.03041e-05 2.6501e-05 0 0 7.09508e-06 1.20842e-05 1.28291e-05 8.30028e-06 0 0 1.9769e-06 3.31271e-06 3.45347e-06 2.20465e-06 0 0 4.91399e-07 8.14216e-07 8.37832e-07 5.2961e-07 0 0 1.13773e-07 1.87076e-07 1.90768e-07 1.19747e-07 0 0 2.5061e-08 4.09952e-08 4.15459e-08 2.59525e-08 0 0 5.30143e-09 8.64154e-09 8.72071e-09 5.42938e-09 0 0 1.08176e-09 1.75894e-09 1.7699e-09 1.09935e-09 0 0 2.13411e-10 3.46582e-10 3.47586e-10 2.15803e-10 0 0 4.09714e-11 6.59772e-11 6.62681e-11 4.0898e-11 0 0 7.54489e-12 1.23815e-11 1.19935e-11 7.57335e-12 0 0 1.47395e-12 2.07722e-12 2.14722e-12 1.33179e-12 0 0 3.45841e-13 1.97342e-13 3.60147e-13 3.07389e-13 0 0 -6.6876e-15 1.00452e-13 -1.80091e-13 2.90917e-13 0 0 2.66984e-13 -4.26288e-13 2.83539e-13 -1.33093e-13 0 0 -4.62686e-14 3.31998e-14 -2.42295e-14 -6.44654e-14 0 0 -1.59523e-13 1.55771e-13 -1.4497e-14 -2.11768e-14 0 0 8.14192e-14 -2.13475e-13 3.55134e-13 -1.09054e-13 0 0 -2.20129e-13 2.65163e-13 -5.87735e-14 1.35621e-13 0 0 8.39305e-14 -2.18022e-13 3.02473e-13 3.04491e-14 0 0 2.23413e-13 -3.34646e-13 2.1734e-13 2.37886e-13 0 0 -1.93158e-13 2.60643e-13 -2.428e-13 3.5047e-13 0 0 6.3915e-15 -1.50938e-13 3.31218e-13 -1.20208e-13 0 0 -8.92916e-14 1.35042e-13 1.32768e-13 3.21343e-14 0 0 9.31081e-14 2.36895e-14 3.98831e-13 -1.72836e-13 0 0 2.03166e-13 -9.63546e-14 6.66588e-13 -4.05853e-13 0 0 4.42258e-14 2.03902e-13 2.38241e-13 -6.28512e-14 0 0 4.10268e-13 -4.34494e-13 8.39923e-13 -4.60859e-13 0 0 -3.25741e-14 2.23613e-13 1.48359e-13 -1.54666e-13 0 0 -6.55274e-14 3.50495e-13 -1.95002e-13 4.50641e-14 0 0 2.23995e-13 -1.03183e-13 6.32045e-14 6.52136e-14 0 0 1.97945e-13 -1.58214e-13 4.29575e-16 3.28275e-13 0 0 -7.02621e-14 1.18341e-14 -2.47285e-14 2.05099e-13 0 0 -3.19689e-13 2.63954e-13 -1.52755e-13 4.09533e-14 0 0 5.53228e-14 -2.65585e-13 2.12803e-13 -2.02194e-13 0 0 1.75046e-13 -3.5618e-13 1.43221e-14 -6.07728e-14 0 0 1.36189e-13 -3.08215e-13 -8.13917e-14 -1.64417e-13 0 0 -2.89546e-13 1.58543e-13 -3.7433e-13 -1.4467e-13 0 0 -4.77435e-13 1.81561e-13 -1.8975e-13 -2.83774e-13 0 0 -1.69231e-13 -3.44369e-13 2.85565e-13 -4.47189e-13 0 0 -2.1624e-13 -2.56926e-13 9.4124e-14 -8.04801e-14 0 0 -7.3919e-14 -4.54991e-13 6.98752e-14 1.80021e-13 0 0 2.23488e-13 -8.25397e-13 1.12155e-13 4.02768e-13 0 0 1.05195e-13 -6.17426e-13 1.55948e-14 4.20738e-13 0 0 -1.56017e-13 -2.69768e-13 -8.82599e-14 3.23187e-13 0 0 -5.9177e-13 2.83189e-13 -5.17359e-13 5.30696e-13 0 0 -3.8462e-13 -8.06258e-14 -3.21311e-13 3.66319e-13 0 0 2.28856e-14 -6.79786e-13 -1.1612e-13 4.15442e-13 0 0 9.38357e-15 -5.83304e-13 -4.4397e-13 7.34884e-13 0 0 1.88936e-13 -8.68811e-13 -6.13615e-14 3.73578e-13 0 0 -3.57792e-13 -1.42702e-13 -3.67127e-13 2.32682e-13 0 0 -4.71975e-13 -7.06111e-14 -2.80163e-13 2.06486e-14 0 0 -1.8643e-13 -5.11997e-13 -5.98333e-15 -1.17846e-13 0 0 -1.58193e-13 -4.19472e-13 -1.55455e-13 -1.015e-13 0 0 1.17147e-13 -6.66896e-13 8.45564e-14 -2.66991e-13 0 0 -3.36439e-13 -5.99734e-14 -2.90432e-13 -1.04719e-13 0 0 -4.97864e-13 -6.91173e-16 -1.56036e-13 -2.07547e-13 0 0 -2.59808e-13 -2.84783e-13 7.07088e-14 -3.87729e-13 0 0 -2.63241e-13 -1.46007e-14 -3.23911e-13 -2.68571e-13 0 0 9.50154e-14 -3.89122e-13 -9.35315e-14 -4.12391e-13 0 0 -8.93131e-14 -1.95082e-13 -2.64716e-13 -2.38851e-13 0 0 -3.5808e-13 3.11818e-14 -2.99733e-13 -2.41561e-13 0 0 -2.81302e-13 -1.51187e-13 1.24697e-13 -6.58215e-13 0 0 -4.44054e-13 1.18622e-13 -1.08739e-13 -5.21322e-13 0 0 -4.98296e-14 -5.50348e-13 4.21669e-13 -7.0814e-13 0 0 -2.45191e-13 -2.01594e-13 -1.99352e-13 -1.51446e-13 0 0 -2.98982e-13 -2.20948e-14 -5.40981e-13 2.24974e-13 0 0 -4.2066e-14 -3.59072e-13 3.86041e-14 -3.48927e-13 0 0 -6.72233e-13 8.24915e-13 -9.922e-13 5.81169e-14 0 0 -6.49366e-14 -5.57165e-14 -1.04821e-13 -3.96132e-13 0 0 2.4645e-13 -6.62641e-13 4.9028e-13 -7.24894e-13 0 0 -1.1994e-13 -2.1921e-13 5.43109e-14 -3.76067e-13 0 0 1.37579e-13 -6.37627e-13 6.07035e-13 -7.13853e-13 0 0 -3.84153e-13 4.05524e-13 -3.53748e-13 -3.4366e-13 0 0 -1.37261e-14 -6.85417e-14 2.52468e-13 -9.95899e-13 0 0 2.30378e-13 -4.70529e-13 6.26796e-13 -1.30832e-12 0 0 -1.21775e-13 1.82828e-13 -2.57045e-13 -6.04167e-13 0 0 1.83741e-13 -2.3016e-13 5.08071e-14 -6.82143e-13 0
				</DataArray>
				<DataArray Name="VitesseY" type="Float32" format="ascii">