<?xml version="1.0"?>
<VTKFile type="PolyData">
	<PolyData>
		<Piece NumberOfPoints="1206" NumberOfPolys="1000">
			<Points>
				<DataArray type="Float32" NumberOfComponents="3" format="ascii">
 0 0 0 0.02 0 0 0.04 0 0 0.06 0 0 0.08 0 0 0.1 0 0 0 0.005 0 0.02 0.005 0 0.04 0.005 0 0.06 0.005 0 0.08 0.005 0 0.1 0.005 0 0 0.01 0 0.02 0.01 0 0.04 0.01 0 0.06 0.01 0 0.08 0.01 0 0.1 0.01 0 0 0.015 0 0.02 0.015 0 0.04 0.015 0 0.06 0.015 0 0.08 0.015 0 0.1 0.015 0 0 0.02 0 0.02 0.02 0 0.04 0.02 0 0.06 0.02 0 0.08 0.02 0 0.1 0.02 0 0 0.025 0 0.02 0.025 0 0.04 0.025 0 0.06 0.025 0 0.08 0.025 0 0.1 0.025 0 0 0.03 0 0.02 0.03 0 0.04 0.03 0 0.06 0.03 0 0.08 0.03 0 0.1 0.03 0 0 0.035 0 0.02 0.035 0 0.04 0.035 0 0.06 0.035 0 0.08 0.035 0 0.1 0.035 0 0 0.04 0 0.02 0.04 0 0.04 0.04 0 0.06 0.04 0 0.08 0.04 0 0.1 0.04 0 0 0.045 0 0.02 0.045 0 0.04 0.045 0 0.06 0.045 0 0.08 0.045 0 0.1 0.045 0 0 0.05 0 0.02 0.05 0 0.04 0.05 0 0.06 0.05 0 0.08 0.05 0 0.1 0.05 0 0 0.055 0 0.02 0.055 0 0.04 0.055 0 0.06 0.055 0 0.08 0.055 0 0.1 0.055 0 0 0.06 0 0.02 0.06 0 0.04 0.06 0 0.06 0.06 0 0.08 0.06 0 0.1 0.06 0 0 0.065 0 0.02 0.065 0 0.04 0.065 0 0.06 0.065 0 0.08 0.065 0 0.1 0.065 0 0 0.07 0 0.02 0.07 0 0.04 0.07 0 0.06 0.07 0 0.08 0.07 0 0.1 0.07 0 0 0.075 0 0.02 0.075 0 0.04 0.075 0 0.06 0.075 0 0.08 0.075 0 0.1 0.075 0 0 0.08 0 0.02 0.08 0 0.04 0.08 0 0.06 0.08 0 0.08 0.08 0 0.1 0.08 0 0 0.085 0 0.02 0.085 0 0.04 0.085 0 0.06 0.085 0 0.08 0.085 0 0.1 0.085 0 0 0.09 0 0.02 0.09 0 0.04 0.09 0 0.06 0.09 0 0.08 0.09 0 0.1 0.09 0 0 0.095 0 0.02 0.095 0 0.04 0.095 0 0.06 0.095 0 0.08 0.095 0 0.1 0.095 0 0 0.1 0 0.02 0.1 0 0.04 0.1 0 0.06 0.1 0 0.08 0.1 0 0.1 0.1 0 0 0.105 0 0.02 0.105 0 0.04 0.105 0 0.06 0.105 0 0.08 0.105 0 0.1 0.105 0 0 0.11 0 0.02 0.11 0 0.04 0.11 0 0.06 0.11 0 0.08 0.11 0 0.1 0.11 0 0 0.115 0 0.02 0.115 0 0.04 0.115 0 0.06 0.115 0 0.08 0.115 0 0.1 0.115 0 0 0.12 0 0.02 0.12 0 0.04 0.12 0 0.06 0.12 0 0.08 0.12 0 0.1 0.12 0 0 0.125 0 0.02 0.125 0 0.04 0.125 0 0.06 0.125 0 0.08 0.125 0 0.1 0.125 0 0 0.13 0 0.02 0.13 0 0.04 0.13 0 0.06 0.13 0 0.08 0.13 0 0.1 0.13 0 0 0.135 0 0.02 0.135 0 0.04 0.135 0 0.06 0.135 0 0.08 0.135 0 0.1 0.135 0 0 0.14 0 0.02 0.14 0 0.04 0.14 0 0.06 0.14 0 0.08 0.14 0 0.1 0.14 0 0 0.145 0 0.02 0.145 0 0.04 0.145 0 0.06 0.145 0 0.08 0.145 0 0.1 0.145 0 0 0.15 0 0.02 0.15 0 0.04 0.15 0 0.06 0.15 0 0.08 0.15 0 0.1 0.15 0 0 0.155 0 0.02 0.155 0 0.04 0.155 0 0.06 0.155 0 0.08 0.155 0 0.1 0.155 0 0 0.16 0 0.02 0.16 0 0.04 0.16 0 0.06 0.16 0 0.08 0.16 0 0.1 0.16 0 0 0.165 0 0.02 0.165 0 0.04 0.165 0 0.06 0.165 0 0.08 0.165 0 0.1 0.165 0 0 0.17 0 0.02 0.17 0 0.04 0.17 0 0.06 0.17 0 0.08 0.17 0 0.1 0.17 0 0 0.175 0 0.02 0.175 0 0.04 0.175 0 0.06 0.175 0 0.08 0.175 0 0.1 0.175 0 0 0.18 0 0.02 0.18 0 0.04 0.18 0 0.06 0.18 0 0.08 0.18 0 0.1 0.18 0 0 0.185 0 0.02 0.185 0 0.04 0.185 0 0.06 0.185 0 0.08 0.185 0 0.1 0.185 0 0 0.19 0 0.02 0.19 0 0.04 0.19 0 0.06 0.19 0 0.08 0.19 0 0.1 0.19 0 0 0.195 0 0.02 0.195 0 0.04 0.195 0 0.06 0.195 0 0.08 0.195 0 0.1 0.195 0 0 0.2 0 0.02 0.2 0 0.04 0.2 0 0.06 0.2 0 0.08 0.2 0 0.1 0.2 0 0 0.205 0 0.02 0.205 0 0.04 0.205 0 0.06 0.205 0 0.08 0.205 0 0.1 0.205 0 0 0.21 0 0.02 0.21 0 0.04 0.21 0 0.06 0.21 0 0.08 0.21 0 0.1 0.21 0 0 0.215 0 0.02 0.215 0 0.04 0.215 0 0.06 0.215 0 0.08 0.215 0 0.1 0.215 0 0 0.22 0 0.02 0.22 0 0.04 0.22 0 0.06 0.22 0 0.08 0.22 0 0.1 0.22 0 0 0.225 0 0.02 0.225 0 0.04 0.225 0 0.06 0.225 0 0.08 0.225 0 0.1 0.225 0 0 0.23 0 0.02 0.23 0 0.04 0.23 0 0.06 0.23 0 0.08 0.23 0 0.1 0.23 0 0 0.235 0 0.02 0.235 0 0.04 0.235 0 0.06 0.235 0 0.08 0.235 0 0.1 0.235 0 0 0.24 0 0.02 0.24 0 0.04 0.24 0 0.06 0.24 0 0.08 0.24 0 0.1 0.24 0 0 0.245 0 0.02 0.245 0 0.04 0.245 0 0.06 0.245 0 0.08 0.245 0 0.1 0.245 0 0 0.25 0 0.02 0.25 0 0.04 0.25 0 0.06 0.25 0 0.08 0.25 0 0.1 0.25 0 0 0.255 0 0.02 0.255 0 0.04 0.255 0 0.06 0.255 0 0.08 0.255 0 0.1 0.255 0 0 0.26 0 0.02 0.26 0 0.04 0.26 0 0.06 0.26 0 0.08 0.26 0 0.1 0.26 0 0 0.265 0 0.02 0.265 0 0.04 0.265 0 0.06 0.265 0 0.08 0.265 0 0.1 0.265 0 0 0.27 0 0.02 0.27 0 0.04 0.27 0 0.06 0.27 0 0.08 0.27 0 0.1 0.27 0 0 0.275 0 0.02 0.275 0 0.04 0.275 0 0.06 0.275 0 0.08 0.275 0 0.1 0.275 0 0 0.28 0 0.02 0.28 0 0.04 0.28 0 0.06 0.28 0 0.08 0.28 0 0.1 0.28 0 0 0.285 0 0.02 0.285 0 0.04 0.285 0 0.06 0.285 0 0.08 0.285 0 0.1 0.285 0 0 0.29 0 0.02 0.29 0 0.04 0.29 0 0.06 0.29 0 0.08 0.29 0 0.1 0.29 0 0 0.295 0 0.02 0.295 0 0.04 0.295 0 0.06 0.295 0 0.08 0.295 0 0.1 0.295 0 0 0.3 0 0.02 0.3 0 0.04 0.3 0 0.06 0.3 0 0.08 0.3 0 0.1 0.3 0 0 0.305 0 0.02 0.305 0 0.04 0.305 0 0.06 0.305 0 0.08 0.305 0 0.1 0.305 0 0 0.31 0 0.02 0.31 0 0.04 0.31 0 0.06 0.31 0 0.08 0.31 0 0.1 0.31 0 0 0.315 0 0.02 0.315 0 0.04 0.315 0 0.06 0.315 0 0.08 0.315 0 0.1 0.315 0 0 0.32 0 0.02 0.32 0 0.04 0.32 0 0.06 0.32 0 0.08 0.32 0 0.1 0.32 0 0 0.325 0 0.02 0.325 0 0.04 0.325 0 0.06 0.325 0 0.08 0.325 0 0.1 0.325 0 0 0.33 0 0.02 0.33 0 0.04 0.33 0 0.06 0.33 0 0.08 0.33 0 0.1 0.33 0 0 0.335 0 0.02 0.335 0 0.04 0.335 0 0.06 0.335 0 0.08 0.335 0 0.1 0.335 0 0 0.34 0 0.02 0.34 0 0.04 0.34 0 0.06 0.34 0 0.08 0.34 0 0.1 0.34 0 0 0.345 0 0.02 0.345 0 0.04 0.345 0 0.06 0.345 0 0.08 0.345 0 0.1 0.345 0 0 0.35 0 0.02 0.35 0 0.04 0.35 0 0.06 0.35 0 0.08 0.35 0 0.1 0.35 0 0 0.355 0 0.02 0.355 0 0.04 0.355 0 0.06 0.355 0 0.08 0.355 0 0.1 0.355 0 0 0.36 0 0.02 0.36 0 0.04 0.36 0 0.06 0.36 0 0.08 0.36 0 0.1 0.36 0 0 0.365 0 0.02 0.365 0 0.04 0.365 0 0.06 0.365 0 0.08 0.365 0 0.1 0.365 0 0 0.37 0 0.02 0.37 0 0.04 0.37 0 0.06 0.37 0 0.08 0.37 0 0.1 0.37 0 0 0.375 0 0.02 0.375 0 0.04 0.375 0 0.06 0.375 0 0.08 0.375 0 0.1 0.375 0 0 0.38 0 0.02 0.38 0 0.04 0.38 0 0.06 0.38 0 0.08 0.38 0 0.1 0.38 0 0 0.385 0 0.02 0.385 0 0.04 0.385 0 0.06 0.385 0 0.08 0.385 0 0.1 0.385 0 0 0.39 0 0.02 0.39 0 0.04 0.39 0 0.06 0.39 0 0.08 0.39 0 0.1 0.39 0 0 0.395 0 0.02 0.395 0 0.04 0.395 0 0.06 0.395 0 0.08 0.395 0 0.1 0.395 0 0 0.4 0 0.02 0.4 0 0.04 0.4 0 0.06 0.4 0 0.08 0.4 0 0.1 0.4 0 0 0.405 0 0.02 0.405 0 0.04 0.405 0 0.06 0.405 0 0.08 0.405 0 0.1 0.405 0 0 0.41 0 0.02 0.41 0 0.04 0.41 0 0.06 0.41 0 0.08 0.41 0 0.1 0.41 0 0 0.415 0 0.02 0.415 0 0.04 0.415 0 0.06 0.415 0 0.08 0.415 0 0.1 0.415 0 0 0.42 0 0.02 0.42 0 0.04 0.42 0 0.06 0.42 0 0.08 0.42 0 0.1 0.42 0 0 0.425 0 0.02 0.425 0 0.04 0.425 0 0.06 0.425 0 0.08 0.425 0 0.1 0.425 0 0 0.43 0 0.02 0.43 0 0.04 0.43 0 0.06 0.43 0 0.08 0.43 0 0.1 0.43 0 0 0.435 0 0.02 0.435 0 0.04 0.435 0 0.06 0.435 0 0.08 0.435 0 0.1 0.435 0 0 0.44 0 0.02 0.44 0 0.04 0.44 0 0.06 0.44 0 0.08 0.44 0 0.1 0.44 0 0 0.445 0 0.02 0.445 0 0.04 0.445 0 0.06 0.445 0 0.08 0.445 0 0.1 0.445 0 0 0.45 0 0.02 0.45 0 0.04 0.45 0 0.06 0.45 0 0.08 0.45 0 0.1 0.45 0 0 0.455 0 0.02 0.455 0 0.04 0.455 0 0.06 0.455 0 0.08 0.455 0 0.1 0.455 0 0 0.46 0 0.02 0.46 0 0.04 0.46 0 0.06 0.46 0 0.08 0.46 0 0.1 0.46 0 0 0.465 0 0.02 0.465 0 0.04 0.465 0 0.06 0.465 0 0.08 0.465 0 0.1 0.465 0 0 0.47 0 0.02 0.47 0 0.04 0.47 0 0.06 0.47 0 0.08 0.47 0 0.1 0.47 0 0 0.475 0 0.02 0.475 0 0.04 0.475 0 0.06 0.475 0 0.08 0.475 0 0.1 0.475 0 0 0.48 0 0.02 0.48 0 0.04 0.48 0 0.06 0.48 0 0.08 0.48 0 0.1 0.48 0 0 0.485 0 0.02 0.485 0 0.04 0.485 0 0.06 0.485 0 0.08 0.485 0 0.1 0.485 0 0 0.49 0 0.02 0.49 0 0.04 0.49 0 0.06 0.49 0 0.08 0.49 0 0.1 0.49 0 0 0.495 0 0.02 0.495 0 0.04 0.495 0 0.06 0.495 0 0.08 0.495 0 0.1 0.495 0 0 0.5 0 0.02 0.5 0 0.04 0.5 0 0.06 0.5 0 0.08 0.5 0 0.1 0.5 0 0 0.505 0 0.02 0.505 0 0.04 0.505 0 0.06 0.505 0 0.08 0.505 0 0.1 0.505 0 0 0.51 0 0.02 0.51 0 0.04 0.51 0 0.06 0.51 0 0.08 0.51 0 0.1 0.51 0 0 0.515 0 0.02 0.515 0 0.04 0.515 0 0.06 0.515 0 0.08 0.515 0 0.1 0.515 0 0 0.52 0 0.02 0.52 0 0.04 0.52 0 0.06 0.52 0 0.08 0.52 0 0.1 0.52 0 0 0.525 0 0.02 0.525 0 0.04 0.525 0 0.06 0.525 0 0.08 0.525 0 0.1 0.525 0 0 0.53 0 0.02 0.53 0 0.04 0.53 0 0.06 0.53 0 0.08 0.53 0 0.1 0.53 0 0 0.535 0 0.02 0.535 0 0.04 0.535 0 0.06 0.535 0 0.08 0.535 0 0.1 0.535 0 0 0.54 0 0.02 0.54 0 0.04 0.54 0 0.06 0.54 0 0.08 0.54 0 0.1 0.54 0 0 0.545 0 0.02 0.545 0 0.04 0.545 0 0.06 0.545 0 0.08 0.545 0 0.1 0.545 0 0 0.55 0 0.02 0.55 0 0.04 0.55 0 0.06 0.55 0 0.08 0.55 0 0.1 0.55 0 0 0.555 0 0.02 0.555 0 0.04 0.555 0 0.06 0.555 0 0.08 0.555 0 0.1 0.555 0 0 0.56 0 0.02 0.56 0 0.04 0.56 0 0.06 0.56 0 0.08 0.56 0 0.1 0.56 0 0 0.565 0 0.02 0.565 0 0.04 0.565 0 0.06 0.565 0 0.08 0.565 0 0.1 0.565 0 0 0.57 0 0.02 0.57 0 0.04 0.57 0 0.06 0.57 0 0.08 0.57 0 0.1 0.57 0 0 0.575 0 0.02 0.575 0 0.04 0.575 0 0.06 0.575 0 0.08 0.575 0 0.1 0.575 0 0 0.58 0 0.02 0.58 0 0.04 0.58 0 0.06 0.58 0 0.08 0.58 0 0.1 0.58 0 0 0.585 0 0.02 0.585 0 0.04 0.585 0 0.06 0.585 0 0.08 0.585 0 0.1 0.585 0 0 0.59 0 0.02 0.59 0 0.04 0.59 0 0.06 0.59 0 0.08 0.59 0 0.1 0.59 0 0 0.595 0 0.02 0.595 0 0.04 0.595 0 0.06 0.595 0 0.08 0.595 0 0.1 0.595 0 0 0.6 0 0.02 0.6 0 0.04 0.6 0 0.06 0.6 0 0.08 0.6 0 0.1 0.6 0 0 0.605 0 0.02 0.605 0 0.04 0.605 0 0.06 0.605 0 0.08 0.605 0 0.1 0.605 0 0 0.61 0 0.02 0.61 0 0.04 0.61 0 0.06 0.61 0 0.08 0.61 0 0.1 0.61 0 0 0.615 0 0.02 0.615 0 0.04 0.615 0 0.06 0.615 0 0.08 0.615 0 0.1 0.615 0 0 0.62 0 0.02 0.62 0 0.04 0.62 0 0.06 0.62 0 0.08 0.62 0 0.1 0.62 0 0 0.625 0 0.02 0.625 0 0.04 0.625 0 0.06 0.625 0 0.08 0.625 0 0.1 0.625 0 0 0.63 0 0.02 0.63 0 0.04 0.63 0 0.06 0.63 0 0.08 0.63 0 0.1 0.63 0 0 0.635 0 0.02 0.635 0 0.04 0.635 0 0.06 0.635 0 0.08 0.635 0 0.1 0.635 0 0 0.64 0 0.02 0.64 0 0.04 0.64 0 0.06 0.64 0 0.08 0.64 0 0.1 0.64 0 0 0.645 0 0.02 0.645 0 0.04 0.645 0 0.06 0.645 0 0.08 0.645 0 0.1 0.645 0 0 0.65 0 0.02 0.65 0 0.04 0.65 0 0.06 0.65 0 0.08 0.65 0 0.1 0.65 0 0 0.655 0 0.02 0.655 0 0.04 0.655 0 0.06 0.655 0 0.08 0.655 0 0.1 0.655 0 0 0.66 0 0.02 0.66 0 0.04 0.66 0 0.06 0.66 0 0.08 0.66 0 0.1 0.66 0 0 0.665 0 0.02 0.665 0 0.04 0.665 0 0.06 0.665 0 0.08 0.665 0 0.1 0.665 0 0 0.67 0 0.02 0.67 0 0.04 0.67 0 0.06 0.67 0 0.08 0.67 0 0.1 0.67 0 0 0.675 0 0.02 0.675 0 0.04 0.675 0 0.06 0.675 0 0.08 0.675 0 0.1 0.675 0 0 0.68 0 0.02 0.68 0 0.04 0.68 0 0.06 0.68 0 0.08 0.68 0 0.1 0.68 0 0 0.685 0 0.02 0.685 0 0.04 0.685 0 0.06 0.685 0 0.08 0.685 0 0.1 0.685 0 0 0.69 0 0.02 0.69 0 0.04 0.69 0 0.06 0.69 0 0.08 0.69 0 0.1 
[...]
			<PointData Scalars="VitesseX">
				<DataArray Name="VitesseX" type="Float32" format="ascii">
 0 2.59605e-14 -1.79969e-14 1.52244e-14 -3.77033e-16 0 0 1.95994e-14 -2.56306e-15 -1.91022e-15 1.47817e-14 0 0 1.66013e-14 8.33576e-15 -3.51817e-15 1.92065e-14 0 0 1.53554e-14 1.32032e-14 1.51265e-14 2.89777e-15 0 0 -6.77874e-15 4.83262e-14 1.02005e-14 -3.22418e-15 0 0 -1.00782e-14 6.29586e-14 6.85996e-15 -1.8527e-15 0 0 4.54213e-14 8.73304e-16 5.44923e-14 -2.36147e-14 0 0 6.74908e-14 -1.74651e-14 7.26471e-14 -3.75741e-14 0 0 5.27561e-14 7.25685e-15 4.66334e-14 -2.05391e-14 0 0 2.08588e-14 5.12639e-14 -5.37014e-15 1.41472e-14 0 0 7.61466e-15 7.00765e-14 -3.80373e-14 3.32065e-14 0 0 3.80736e-14 2.46233e-14 -1.93013e-14 3.14421e-14 0 0 6.34933e-14 -8.57177e-15 1.16408e-14 1.38583e-14 0 0 6.12009e-14 -2.54208e-16 1.63661e-14 7.44813e-15 0 0 4.01427e-14 3.23313e-14 -1.97774e-17 4.70935e-15 0 0 6.58218e-14 -7.92088e-15 5.40944e-14 -5.00254e-14 0 0 3.56267e-14 4.05481e-14 2.0884e-15 -1.73883e-14 0 0 -1.29005e-14 8.70019e-14 -1.39583e-14 -4.30757e-15 0 0 5.8495e-15 5.5412e-14 1.20967e-14 -7.10931e-15 0 0 2.15388e-14 5.63027e-14 -2.42275e-14 3.15665e-14 0 0 7.53695e-14 -4.74111e-14 7.03699e-14 -7.82325e-15 0 0 8.84568e-14 -6.98183e-14 7.13211e-14 1.49427e-14 0 0 1.44002e-14 6.74103e-14 -7.41501e-14 9.87878e-14 0 0 -1.12379e-15 1.12301e-13 -1.49891e-13 1.55285e-13 0 0 9.5794e-14 -4.33889e-14 3.0745e-15 6.82093e-14 0 0 1.6531e-13 -1.70068e-13 1.85881e-13 -5.66284e-14 0 0 8.82979e-14 -2.0807e-14 4.35728e-14 6.34857e-14 0 0 8.37295e-15 1.39444e-13 -1.17999e-13 1.78438e-13 0 0 7.56594e-14 2.61196e-14 2.68001e-14 6.74044e-14 0 0 1.22954e-13 -7.46984e-14 1.33806e-13 -8.93634e-15 0 0 9.44103e-14 -2.33825e-14 5.96095e-14 1.70167e-14 0 0 5.84485e-14 4.7764e-14 -1.68681e-14 1.11731e-14 0 0 3.00028e-14 8.18638e-14 -4.60627e-14 -3.2638e-14 0 0 1.68246e-14 1.22963e-13 -1.24371e-13 1.41827e-14 0 0 8.63202e-14 -1.65193e-14 1.54152e-14 -5.26442e-14 0 0 1.61576e-13 -1.61231e-13 1.35809e-13 -9.46198e-14 0 0 8.72778e-14 -1.87693e-14 -3.38321e-14 7.97796e-15 0 0 7.06516e-15 1.38158e-13 -1.91317e-13 8.87263e-14 0 0 4.82092e-14 9.48066e-14 -1.62678e-13 8.33799e-14 0 0 7.07127e-14 3.88594e-14 -6.01559e-14 9.15611e-15 0 0 6.7678e-14 -2.09319e-16 5.74194e-14 -7.35321e-14 0 0 8.07644e-14 -3.66392e-14 1.41036e-13 -1.33652e-13 0 0 9.21179e-14 -2.82019e-15 4.8854e-14 -1.57662e-14 0 0 2.09959e-13 -1.1146e-13 9.99528e-14 1.08507e-14 0 0 3.02518e-13 -1.78918e-13 1.64073e-13 -5.90189e-14 0 0 2.446e-13 -2.09379e-14 -4.58118e-14 7.41712e-14 0 0 8.9176e-14 2.29235e-13 -2.81702e-13 2.19018e-13 0 0 8.91855e-14 2.00266e-13 -2.21539e-13 1.89437e-13 0 0 2.33061e-13 -1.52555e-14 -6.90784e-14 1.60934e-13 0 0 4.11975e-13 -3.00357e-13 1.6611e-13 7.42082e-14 0 0 5.45481e-13 -5.86279e-13 4.62287e-13 -8.4852e-14 0 0 2.73573e-13 -2.48207e-13 1.89234e-13 5.40012e-15 0 0 -7.28578e-14 2.78955e-13 -3.00625e-13 2.28323e-13 0 0 4.18535e-14 1.62294e-13 -2.65554e-13 2.56311e-13 0 0 3.37096e-13 -2.48461e-13 3.52366e-14 1.30472e-13 0 0 3.96316e-13 -2.62167e-13 -9.62789e-15 1.50404e-13 0 0 3.12245e-13 -6.61897e-14 -2.01439e-13 1.76888e-13 0 0 2.46232e-13 -2.37015e-14 -1.84448e-13 6.47185e-14 0 0 2.20739e-13 -1.06076e-14 -1.60324e-13 -1.63995e-14 0 0 2.71602e-13 -1.07852e-13 -4.53623e-14 -1.14314e-13 0 0 2.63668e-13 -1.32526e-13 -8.14593e-15 -9.25178e-14 0 0 1.60783e-13 2.59926e-14 -1.4677e-13 4.79946e-14 0 0 1.65702e-13 3.26236e-15 -5.39415e-14 -2.47031e-14 0 0 1.60807e-13 -3.05921e-14 4.57672e-14 -1.20147e-13 0 0 9.26738e-14 4.16841e-14 -1.92693e-14 -5.99771e-14 0 0 1.05338e-13 -6.44431e-15 6.35201e-14 -1.08908e-13 0 0 1.49427e-14 1.87223e-13 -1.54821e-13 3.12983e-14 0 0 1.29682e-13 6.73482e-14 -1.08174e-13 -5.33827e-15 0 0 3.72938e-13 -3.18265e-13 2.6401e-13 -2.39909e-13 0 0 2.80536e-13 -1.03883e-13 -5.71635e-15 -2.77399e-14 0 0 1.36898e-13 2.23937e-13 -3.65469e-13 2.1635e-13 0 0 2.89627e-13 6.74745e-14 -2.53467e-13 2.42218e-13 0 0 5.45791e-13 -2.82905e-13 4.9074e-14 1.7114e-13 0 0 5.27844e-13 -1.97421e-13 3.9607e-14 1.37223e-13 0 0 4.4233e-13 1.05472e-13 -2.41249e-13 2.9265e-13 0 0 3.99962e-13 3.04831e-13 -4.44775e-13 4.22629e-13 0 0 4.47755e-13 1.52116e-13 -1.17983e-13 1.52239e-13 0 0 5.73631e-13 -1.45799e-13 3.47538e-13 -1.54895e-13 0 0 5.86986e-13 -1.22816e-13 2.55265e-13 6.24405e-14 0 0 5.09293e-13 -1.77143e-15 2.11017e-13 2.16094e-13 0 0 3.82211e-13 9.89975e-14 3.82538e-13 6.6556e-14 0 0 2.94652e-13 3.58721e-13 -1.65127e-14 3.15914e-13 0 0 4.1389e-14 2.37436e-13 -9.4316e-13 4.85447e-13 0 0 -3.11288e-12 -5.60184e-12 -5.94729e-12 -3.29343e-12 0 0 -3.56538e-11 -5.93897e-11 -5.89065e-11 -3.76473e-11 0 0 -2.80864e-10 -4.57765e-10 -4.61929e-10 -2.88243e-10 0 0 -1.83851e-09 -2.99211e-09 -3.01608e-09 -1.87489e-09 0 0 -1.06058e-08 -1.72849e-08 -1.74401e-08 -1.08553e-08 0 0 -5.53784e-08 -9.09653e-08 -9.26467e-08 -5.81009e-08 0 0 -2.44123e-07 -4.08744e-07 -4.25758e-07 -2.71654e-07 0 0 -7.96141e-07 -1.36599e-06 -1.46248e-06 -9.52269e-07 0 0 -2.06544e-06 -3.65057e-06 -4.03351e-06 -2.68514e-06 0 0 -4.61419e-06 -8.41219e-06 -9.60549e-06 -6.54597e-06 0 0 -9.17974e-06 -1.73759e-05 -2.05735e-05 -1.43169e-05 0 0 -1.6423e-05 -3.29292e-05 -4.07276e-05 -2.9267e-05 0 0 -2.70172e-05 -5.58745e-05 -7.12235e-05 -5.10601e-05 0 0 -4.10799e-05 -9.08756e-05 -0.000123036 -9.45406e-05 0 0 -5.87425e-05 -0.000136848 -0.000185044 -0.000135177 0 0 -8.11898e-05 -0.000186914 -0.000261604 -0.000202133 0 0 -0.000105271 -0.000259252 -0.000364684 -0.000275969 0 0 -0.000130731 -0.000336918 -0.000468526 -0.00034247 0 0 -0.000157343 -0.000408906 -0.00056292 -0.000383065 0 0 -0.000189924 -0.000486924 -0.000634122 -0.000426349 0 0 -0.000223134 -0.000584082 -0.000719746 -0.000465878 0 0 -0.000293432 -0.000699381 -0.000814779 -0.000457745 0 0 -0.000367119 -0.000874385 -0.000946244 -0.000421302 0 0 -0.000372442 -0.00105676 -0.00106901 -0.000320024 0 0 -0.000362562 -0.00121885 -0.00107386 -3.63616e-05 0 0 -0.000352028 -0.00124965 -0.00106766 0.000344122 0 0 -0.000364029 -0.0012562 -0.00104838 0.000599683 0 0 -0.000336675 -0.00120724 -0.00098818 0.000597852 0 0 -0.000222868 -0.00095538 -0.000752007 0.000537001 0 0 -7.43744e-05 -0.000568408 -0.000400112 0.000366363 0 0 0.000115651 -0.000246368 -0.000163681 0.000234234 0 0 0.000297949 -4.79717e-05 -0.000107491 3.20667e-05 0 0 0.000334876 0.000427674 0.000137351 -0.000483969 0 0 0.00039812 0.00136611 0.00117918 -0.000457915 0 0 0.000553952 0.0014873 0.00146317 7.56279e-05 0 0 0.000623154 0.00138377 0.00137998 0.000509597 0 0 0.000616354 0.00117581 0.00118381 0.000581803 0 0 0.000559275 0.000995914 0.00102136 0.000583026 0 0 0.00046949 0.000831147 0.000871509 0.000537639 0 0 0.000373737 0.000655092 0.000695274 0.00043782 0 0 0.00027406 0.000475922 0.00050884 0.000326724 0 0 0.000180129 0.000310456 0.000332413 0.000215637 0 0 0.000103682 0.000177422 0.000189041 0.000122505 0 0 5.0645e-05 8.58652e-05 9.06641e-05 5.84099e-05 0 0 2.04511e-05 3.43158e-05 3.58265e-05 2.2895e-05 0 0 6.90505e-06 1.14761e-05 1.18505e-05 7.51083e-06 0 0 2.03146e-06 3.3499e-06 3.4276e-06 2.15718e-06 0 0 5.49286e-07 9.00568e-07 9.15152e-07 5.72883e-07 0 0 1.4079e-07 2.29888e-07 2.32464e-07 1.44958e-07 0 0 3.46928e-08 5.64863e-08 5.69229e-08 3.5398e-08 0 0 8.26577e-09 1.34318e-08 1.3503e-08 8.38102e-09 0 0 1.90896e-09 3.09768e-09 3.10893e-09 1.92712e-09 0 0 4.27995e-10 6.9373e-10 6.9535e-10 4.30733e-10 0 0 9.33212e-11 1.51103e-10 1.51172e-10 9.37071e-11 0 0 2.00762e-11 3.18132e-11 3.23517e-11 1.97162e-11 0 0 4.26148e-12 6.70873e-12 6.82683e-12 4.13737e-12 0 0 9.90182e-13 1.52315e-12 1.51896e-12 9.48184e-13 0 0 3.7565e-13 4.47574e-13 4.1677e-13 3.31444e-13 0 0 1.18752e-13 5.33156e-13 -1.74236e-13 4.78888e-13 0 0 5.19012e-13 -1.24238e-13 3.27089e-13 1.42158e-13 0 0 6.1682e-13 -2.82955e-13 4.72422e-13 -3.01714e-14 0 0 1.09947e-13 4.96824e-13 -2.68074e-13 4.62002e-13 0 0 1.49318e-13 3.54255e-13 -4.87193e-14 3.79683e-13 0 0 2.68702e-13 1.36143e-13 2.09391e-13 7.61141e-14 0 0 4.71797e-13 -2.46134e-13 6.32142e-13 -2.3537e-13 0 0 5.77422e-13 -3.89945e-13 7.39551e-13 -2.13403e-13 0 0 8.10751e-17 6.58006e-13 -2.77625e-13 2.92295e-13 0 0 2.59302e-13 3.51618e-13 2.84862e-14 -1.47969e-14 0 0 5.14807e-13 6.62497e-14 1.69413e-13 -2.39202e-14 0 0 4.85595e-13 1.16482e-13 7.96893e-14 1.0056e-13 0 0 4.83068e-13 -1.12065e-14 2.88813e-13 -4.52754e-14 0 0 1.08009e-13 3.98807e-13 -7.08834e-15 3.65403e-14 0 0 -4.60386e-14 4.88232e-13 -4.84999e-14 2.72211e-14 0 0 2.09387e-13 2.95029e-14 2.91656e-13 -1.20868e-13 0 0 6.58032e-13 -6.71235e-13 6.66831e-13 -1.95397e-13 0 0 3.94598e-13 -3.46879e-13 2.36669e-13 1.57148e-13 0 0 -1.88118e-13 3.9162e-13 -2.90449e-13 3.96289e-13 0 0 -3.43278e-13 5.66817e-13 -2.02709e-13 2.2317e-13 0 0 2.82697e-13 -4.12521e-13 7.21974e-13 -1.8713e-13 0 0 5.96543e-13 -9.9195e-13 1.05098e-12 -1.23983e-13 0 0 4.7643e-14 -2.10821e-13 2.01155e-13 3.96805e-13 0 0 -3.09132e-13 4.20537e-13 -3.87312e-13 5.96236e-13 0 0 -6.17913e-14 1.55065e-13 -2.19933e-13 6.13381e-13 0 0 2.30351e-13 -3.97286e-13 3.97752e-13 3.47769e-13 0 0 4.92587e-14 -3.18183e-13 6.53982e-13 1.34373e-14 0 0 -3.5215e-13 2.38638e-13 1.37768e-13 2.54411e-13 0 0 -9.32232e-14 -1.86419e-13 3.15894e-13 3.18418e-13 0 0 1.95283e-13 -5.01141e-13 3.27828e-13 4.6634e-13 0 0 -1.20041e-13 1.00142e-13 -4.0296e-13 8.64354e-13 0 0 -7.10779e-14 -5.11294e-14 -1.78663e-13 5.83656e-13 0 0 3.03785e-15 -2.40819e-13 1.00072e-13 2.56782e-13 0 0 8.6879e-14 -3.99786e-13 3.10999e-13 2.88082e-14 0 0 3.47526e-15 -2.58682e-13 2.18063e-13 1.37691e-14 0 0 -3.8192e-13 3.11059e-13 -3.74675e-13 3.2091e-13 0 0 -2.19437e-13 -2.95428e-14 3.57945e-14 -2.01099e-14 0 0 -1.64349e-14 -1.83607e-13 9.47627e-14 -1.17001e-13 0 0 2.26901e-13 -4.04254e-13 1.90081e-13 -2.69661e-13 0 0 1.78146e-13 -3.76194e-13 3.54989e-13 -4.42018e-13 0 0 -3.73969e-13 4.92864e-13 -4.78723e-13 7.12372e-14 0 0 -2.04151e-13 2.72728e-13 -2.74138e-13 -1.14406e-13 0 0 6.79277e-14 6.83431e-14 -2.45939e-13 9.92943e-15 0 0 2.00202e-13 -5.47227e-14 -2.92045e-13 2.42564e-13 0 0 5.10892e-14 -1.12281e-13 1.1794e-13 -1.1371e-13 0 0 -4.18883e-13 5.33261e-13 -3.44409e-13 -1.7857e-14 0 0 1.50666e-14 8.07249e-14 -7.63981e-14 -2.46115e-13 0 0 5.31221e-13 -3.89611e-13 1.41216e-13 -3.26146e-13 0 0 7.3602e-13 -6.89469e-13 4.16421e-13 -5.22354e-13 0 0 2.25606e-13 -2.60536e-13 2.72318e-13 -4.45569e-13 0 0 -4.8585e-13 8.51306e-13 -8.71975e-13 4.87683e-13 0 0 4.94414e-13 -5.40182e-13 4.35144e-13 -1.69624e-13 0 0 1.18811e-12 -1.50089e-12 1.36885e-12 -7.80194e-13 0 0 3.80483e-13 -8.02714e-14 -1.18595e-13 1.87024e-15 0 0 -3.25954e-13 8.93643e-13 -9.39894e-13 4.07733e-13 0 0 -3.56056e-13 8.34404e-13 -8.30012e-13 4.44397e-13 0 0 8.55019e-13 -9.4027e-13 8.292e-13 -4.1746e-13 0 0 1.07159e-12 -1.04469e-12 7.9683e-13 -3.08307e-13 0 0 -9.50694e-14 9.07263e-13 -1.10363e-12 6.99144e-13 0 0 -4.07997e-13 1.38202e-12 -1.44847e-12 7.27664e-13 0
				</DataArray>
				<DataArray Name="VitesseY" type="Float32" format="ascii">