<?xml version="1.0"?>
<VTKFile type="PolyData">
	<PolyData>
		<Piece NumberOfPoints="1206" NumberOfPolys="1000">
			<Points>
				<DataArray type="Float32" NumberOfComponents="3" format="ascii">
 0 0 0 0.02 0 0 0.04 0 0 0.06 0 0 0.08 0 0 0.1 0 0 0 0.005 0 0.02 0.005 0 0.04 0.005 0 0.06 0.005 0 0.08 0.005 0 0.1 0.005 0 0 0.01 0 0.02 0.01 0 0.04 0.01 0 0.06 0.01 0 0.08 0.01 0 0.1 0.01 0 0 0.015 0 0.02 0.015 0 0.04 0.015 0 0.06 0.015 0 0.08 0.015 0 0.1 0.015 0 0 0.02 0 0.02 0.02 0 0.04 0.02 0 0.06 0.02 0 0.08 0.02 0 0.1 0.02 0 0 0.025 0 0.02 0.025 0 0.04 0.025 0 0.06 0.025 0 0.08 0.025 0 0.1 0.025 0 0 0.03 0 0.02 0.03 0 0.04 0.03 0 0.06 0.03 0 0.08 0.03 0 0.1 0.03 0 0 0.035 0 0.02 0.035 0 0.04 0.035 0 0.06 0.035 0 0.08 0.035 0 0.1 0.035 0 0 0.04 0 0.02 0.04 0 0.04 0.04 0 0.06 0.04 0 0.08 0.04 0 0.1 0.04 0 0 0.045 0 0.02 0.045 0 0.04 0.045 0 0.06 0.045 0 0.08 0.045 0 0.1 0.045 0 0 0.05 0 0.02 0.05 0 0.04 0.05 0 0.06 0.05 0 0.08 0.05 0 0.1 0.05 0 0 0.055 0 0.02 0.055 0 0.04 0.055 0 0.06 0.055 0 0.08 0.055 0 0.1 0.055 0 0 0.06 0 0.02 0.06 0 0.04 0.06 0 0.06 0.06 0 0.08 0.06 0 0.1 0.06 0 0 0.065 0 0.02 0.065 0 0.04 0.065 0 0.06 0.065 0 0.08 0.065 0 0.1 0.065 0 0 0.07 0 0.02 0.07 0 0.04 0.07 0 0.06 0.07 0 0.08 0.07 0 0.1 0.07 0 0 0.075 0 0.02 0.075 0 0.04 0.075 0 0.06 0.075 0 0.08 0.075 0 0.1 0.075 0 0 0.08 0 0.02 0.08 0 0.04 0.08 0 0.06 0.08 0 0.08 0.08 0 0.1 0.08 0 0 0.085 0 0.02 0.085 0 0.04 0.085 0 0.06 0.085 0 0.08 0.085 0 0.1 0.085 0 0 0.09 0 0.02 0.09 0 0.04 0.09 0 0.06 0.09 0 0.08 0.09 0 0.1 0.09 0 0 0.095 0 0.02 0.095 0 0.04 0.095 0 0.06 0.095 0 0.08 0.095 0 0.1 0.095 0 0 0.1 0 0.02 0.1 0 0.04 0.1 0 0.06 0.1 0 0.08 0.1 0 0.1 0.1 0 0 0.105 0 0.02 0.105 0 0.04 0.105 0 0.06 0.105 0 0.08 0.105 0 0.1 0.105 0 0 0.11 0 0.02 0.11 0 0.04 0.11 0 0.06 0.11 0 0.08 0.11 0 0.1 0.11 0 0 0.115 0 0.02 0.115 0 0.04 0.115 0 0.06 0.115 0 0.08 0.115 0 0.1 0.115 0 0 0.12 0 0.02 0.12 0 0.04 0.12 0 0.06 0.12 0 0.08 0.12 0 0.1 0.12 0 0 0.125 0 0.02 0.125 0 0.04 0.125 0 0.06 0.125 0 0.08 0.125 0 0.1 0.125 0 0 0.13 0 0.02 0.13 0 0.04 0.13 0 0.06 0.13 0 0.08 0.13 0 0.1 0.13 0 0 0.135 0 0.02 0.135 0 0.04 0.135 0 0.06 0.135 0 0.08 0.135 0 0.1 0.135 0 0 0.14 0 0.02 0.14 0 0.04 0.14 0 0.06 0.14 0 0.08 0.14 0 0.1 0.14 0 0 0.145 0 0.02 0.145 0 0.04 0.145 0 0.06 0.145 0 0.08 0.145 0 0.1 0.145 0 0 0.15 0 0.02 0.15 0 0.04 0.15 0 0.06 0.15 0 0.08 0.15 0 0.1 0.15 0 0 0.155 0 0.02 0.155 0 0.04 0.155 0 0.06 0.155 0 0.08 0.155 0 0.1 0.155 0 0 0.16 0 0.02 0.16 0 0.04 0.16 0 0.06 0.16 0 0.08 0.16 0 0.1 0.16 0 0 0.165 0 0.02 0.165 0 0.04 0.165 0 0.06 0.165 0 0.08 0.165 0 0.1 0.165 0 0 0.17 0 0.02 0.17 0 0.04 0.17 0 0.06 0.17 0 0.08 0.17 0 0.1 0.17 0 0 0.175 0 0.02 0.175 0 0.04 0.175 0 0.06 0.175 0 0.08 0.175 0 0.1 0.175 0 0 0.18 0 0.02 0.18 0 0.04 0.18 0 0.06 0.18 0 0.08 0.18 0 0.1 0.18 0 0 0.185 0 0.02 0.185 0 0.04 0.185 0 0.06 0.185 0 0.08 0.185 0 0.1 0.185 0 0 0.19 0 0.02 0.19 0 0.04 0.19 0 0.06 0.19 0 0.08 0.19 0 0.1 0.19 0 0 0.195 0 0.02 0.195 0 0.04 0.195 0 0.06 0.195 0 0.08 0.195 0 0.1 0.195 0 0 0.2 0 0.02 0.2 0 0.04 0.2 0 0.06 0.2 0 0.08 0.2 0 0.1 0.2 0 0 0.205 0 0.02 0.205 0 0.04 0.205 0 0.06 0.205 0 0.08 0.205 0 0.1 0.205 0 0 0.21 0 0.02 0.21 0 0.04 0.21 0 0.06 0.21 0 0.08 0.21 0 0.1 0.21 0 0 0.215 0 0.02 0.215 0 0.04 0.215 0 0.06 0.215 0 0.08 0.215 0 0.1 0.215 0 0 0.22 0 0.02 0.22 0 0.04 0.22 0 0.06 0.22 0 0.08 0.22 0 0.1 0.22 0 0 0.225 0 0.02 0.225 0 0.04 0.225 0 0.06 0.225 0 0.08 0.225 0 0.1 0.225 0 0 0.23 0 0.02 0.23 0 0.04 0.23 0 0.06 0.23 0 0.08 0.23 0 0.1 0.23 0 0 0.235 0 0.02 0.235 0 0.04 0.235 0 0.06 0.235 0 0.08 0.235 0 0.1 0.235 0 0 0.24 0 0.02 0.24 0 0.04 0.24 0 0.06 0.24 0 0.08 0.24 0 0.1 0.24 0 0 0.245 0 0.02 0.245 0 0.04 0.245 0 0.06 0.245 0 0.08 0.245 0 0.1 0.245 0 0 0.25 0 0.02 0.25 0 0.04 0.25 0 0.06 0.25 0 0.08 0.25 0 0.1 0.25 0 0 0.255 0 0.02 0.255 0 0.04 0.255 0 0.06 0.255 0 0.08 0.255 0 0.1 0.255 0 0 0.26 0 0.02 0.26 0 0.04 0.26 0 0.06 0.26 0 0.08 0.26 0 0.1 0.26 0 0 0.265 0 0.02 0.265 0 0.04 0.265 0 0.06 0.265 0 0.08 0.265 0 0.1 0.265 0 0 0.27 0 0.02 0.27 0 0.04 0.27 0 0.06 0.27 0 0.08 0.27 0 0.1 0.27 0 0 0.275 0 0.02 0.275 0 0.04 0.275 0 0.06 0.275 0 0.08 0.275 0 0.1 0.275 0 0 0.28 0 0.02 0.28 0 0.04 0.28 0 0.06 0.28 0 0.08 0.28 0 0.1 0.28 0 0 0.285 0 0.02 0.285 0 0.04 0.285 0 0.06 0.285 0 0.08 0.285 0 0.1 0.285 0 0 0.29 0 0.02 0.29 0 0.04 0.29 0 0.06 0.29 0 0.08 0.29 0 0.1 0.29 0 0 0.295 0 0.02 0.295 0 0.04 0.295 0 0.06 0.295 0 0.08 0.295 0 0.1 0.295 0 0 0.3 0 0.02 0.3 0 0.04 0.3 0 0.06 0.3 0 0.08 0.3 0 0.1 0.3 0 0 0.305 0 0.02 0.305 0 0.04 0.305 0 0.06 0.305 0 0.08 0.305 0 0.1 0.305 0 0 0.31 0 0.02 0.31 0 0.04 0.31 0 0.06 0.31 0 0.08 0.31 0 0.1 0.31 0 0 0.315 0 0.02 0.315 0 0.04 0.315 0 0.06 0.315 0 0.08 0.315 0 0.1 0.315 0 0 0.32 0 0.02 0.32 0 0.04 0.32 0 0.06 0.32 0 0.08 0.32 0 0.1 0.32 0 0 0.325 0 0.02 0.325 0 0.04 0.325 0 0.06 0.325 0 0.08 0.325 0 0.1 0.325 0 0 0.33 0 0.02 0.33 0 0.04 0.33 0 0.06 0.33 0 0.08 0.33 0 0.1 0.33 0 0 0.335 0 0.02 0.335 0 0.04 0.335 0 0.06 0.335 0 0.08 0.335 0 0.1 0.335 0 0 0.34 0 0.02 0.34 0 0.04 0.34 0 0.06 0.34 0 0.08 0.34 0 0.1 0.34 0 0 0.345 0 0.02 0.345 0 0.04 0.345 0 0.06 0.345 0 0.08 0.345 0 0.1 0.345 0 0 0.35 0 0.02 0.35 0 0.04 0.35 0 0.06 0.35 0 0.08 0.35 0 0.1 0.35 0 0 0.355 0 0.02 0.355 0 0.04 0.355 0 0.06 0.355 0 0.08 0.355 0 0.1 0.355 0 0 0.36 0 0.02 0.36 0 0.04 0.36 0 0.06 0.36 0 0.08 0.36 0 0.1 0.36 0 0 0.365 0 0.02 0.365 0 0.04 0.365 0 0.06 0.365 0 0.08 0.365 0 0.1 0.365 0 0 0.37 0 0.02 0.37 0 0.04 0.37 0 0.06 0.37 0 0.08 0.37 0 0.1 0.37 0 0 0.375 0 0.02 0.375 0 0.04 0.375 0 0.06 0.375 0 0.08 0.375 0 0.1 0.375 0 0 0.38 0 0.02 0.38 0 0.04 0.38 0 0.06 0.38 0 0.08 0.38 0 0.1 0.38 0 0 0.385 0 0.02 0.385 0 0.04 0.385 0 0.06 0.385 0 0.08 0.385 0 0.1 0.385 0 0 0.39 0 0.02 0.39 0 0.04 0.39 0 0.06 0.39 0 0.08 0.39 0 0.1 0.39 0 0 0.395 0 0.02 0.395 0 0.04 0.395 0 0.06 0.395 0 0.08 0.395 0 0.1 0.395 0 0 0.4 0 0.02 0.4 0 0.04 0.4 0 0.06 0.4 0 0.08 0.4 0 0.1 0.4 0 0 0.405 0 0.02 0.405 0 0.04 0.405 0 0.06 0.405 0 0.08 0.405 0 0.1 0.405 0 0 0.41 0 0.02 0.41 0 0.04 0.41 0 0.06 0.41 0 0.08 0.41 0 0.1 0.41 0 0 0.415 0 0.02 0.415 0 0.04 0.415 0 0.06 0.415 0 0.08 0.415 0 0.1 0.415 0 0 0.42 0 0.02 0.42 0 0.04 0.42 0 0.06 0.42 0 0.08 0.42 0 0.1 0.42 0 0 0.425 0 0.02 0.425 0 0.04 0.425 0 0.06 0.425 0 0.08 0.425 0 0.1 0.425 0 0 0.43 0 0.02 0.43 0 0.04 0.43 0 0.06 0.43 0 0.08 0.43 0 0.1 0.43 0 0 0.435 0 0.02 0.435 0 0.04 0.435 0 0.06 0.435 0 0.08 0.435 0 0.1 0.435 0 0 0.44 0 0.02 0.44 0 0.04 0.44 0 0.06 0.44 0 0.08 0.44 0 0.1 0.44 0 0 0.445 0 0.02 0.445 0 0.04 0.445 0 0.06 0.445 0 0.08 0.445 0 0.1 0.445 0 0 0.45 0 0.02 0.45 0 0.04 0.45 0 0.06 0.45 0 0.08 0.45 0 0.1 0.45 0 0 0.455 0 0.02 0.455 0 0.04 0.455 0 0.06 0.455 0 0.08 0.455 0 0.1 0.455 0 0 0.46 0 0.02 0.46 0 0.04 0.46 0 0.06 0.46 0 0.08 0.46 0 0.1 0.46 0 0 0.465 0 0.02 0.465 0 0.04 0.465 0 0.06 0.465 0 0.08 0.465 0 0.1 0.465 0 0 0.47 0 0.02 0.47 0 0.04 0.47 0 0.06 0.47 0 0.08 0.47 0 0.1 0.47 0 0 0.475 0 0.02 0.475 0 0.04 0.475 0 0.06 0.475 0 0.08 0.475 0 0.1 0.475 0 0 0.48 0 0.02 0.48 0 0.04 0.48 0 0.06 0.48 0 0.08 0.48 0 0.1 0.48 0 0 0.485 0 0.02 0.485 0 0.04 0.485 0 0.06 0.485 0 0.08 0.485 0 0.1 0.485 0 0 0.49 0 0.02 0.49 0 0.04 0.49 0 0.06 0.49 0 0.08 0.49 0 0.1 0.49 0 0 0.495 0 0.02 0.495 0 0.04 0.495 0 0.06 0.495 0 0.08 0.495 0 0.1 0.495 0 0 0.5 0 0.02 0.5 0 0.04 0.5 0 0.06 0.5 0 0.08 0.5 0 0.1 0.5 0 0 0.505 0 0.02 0.505 0 0.04 0.505 0 0.06 0.505 0 0.08 0.505 0 0.1 0.505 0 0 0.51 0 0.02 0.51 0 0.04 0.51 0 0.06 0.51 0 0.08 0.51 0 0.1 0.51 0 0 0.515 0 0.02 0.515 0 0.04 0.515 0 0.06 0.515 0 0.08 0.515 0 0.1 0.515 0 0 0.52 0 0.02 0.52 0 0.04 0.52 0 0.06 0.52 0 0.08 0.52 0 0.1 0.52 0 0 0.525 0 0.02 0.525 0 0.04 0.525 0 0.06 0.525 0 0.08 0.525 0 0.1 0.525 0 0 0.53 0 0.02 0.53 0 0.04 0.53 0 0.06 0.53 0 0.08 0.53 0 0.1 0.53 0 0 0.535 0 0.02 0.535 0 0.04 0.535 0 0.06 0.535 0 0.08 0.535 0 0.1 0.535 0 0 0.54 0 0.02 0.54 0 0.04 0.54 0 0.06 0.54 0 0.08 0.54 0 0.1 0.54 0 0 0.545 0 0.02 0.545 0 0.04 0.545 0 0.06 0.545 0 0.08 0.545 0 0.1 0.545 0 0 0.55 0 0.02 0.55 0 0.04 0.55 0 0.06 0.55 0 0.08 0.55 0 0.1 0.55 0 0 0.555 0 0.02 0.555 0 0.04 0.555 0 0.06 0.555 0 0.08 0.555 0 0.1 0.555 0 0 0.56 0 0.02 0.56 0 0.04 0.56 0 0.06 0.56 0 0.08 0.56 0 0.1 0.56 0 0 0.565 0 0.02 0.565 0 0.04 0.565 0 0.06 0.565 0 0.08 0.565 0 0.1 0.565 0 0 0.57 0 0.02 0.57 0 0.04 0.57 0 0.06 0.57 0 0.08 0.57 0 0.1 0.57 0 0 0.575 0 0.02 0.575 0 0.04 0.575 0 0.06 0.575 0 0.08 0.575 0 0.1 0.575 0 0 0.58 0 0.02 0.58 0 0.04 0.58 0 0.06 0.58 0 0.08 0.58 0 0.1 0.58 0 0 0.585 0 0.02 0.585 0 0.04 0.585 0 0.06 0.585 0 0.08 0.585 0 0.1 0.585 0 0 0.59 0 0.02 0.59 0 0.04 0.59 0 0.06 0.59 0 0.08 0.59 0 0.1 0.59 0 0 0.595 0 0.02 0.595 0 0.04 0.595 0 0.06 0.595 0 0.08 0.595 0 0.1 0.595 0 0 0.6 0 0.02 0.6 0 0.04 0.6 0 0.06 0.6 0 0.08 0.6 0 0.1 0.6 0 0 0.605 0 0.02 0.605 0 0.04 0.605 0 0.06 0.605 0 0.08 0.605 0 0.1 0.605 0 0 0.61 0 0.02 0.61 0 0.04 0.61 0 0.06 0.61 0 0.08 0.61 0 0.1 0.61 0 0 0.615 0 0.02 0.615 0 0.04 0.615 0 0.06 0.615 0 0.08 0.615 0 0.1 0.615 0 0 0.62 0 0.02 0.62 0 0.04 0.62 0 0.06 0.62 0 0.08 0.62 0 0.1 0.62 0 0 0.625 0 0.02 0.625 0 0.04 0.625 0 0.06 0.625 0 0.08 0.625 0 0.1 0.625 0 0 0.63 0 0.02 0.63 0 0.04 0.63 0 0.06 0.63 0 0.08 0.63 0 0.1 0.63 0 0 0.635 0 0.02 0.635 0 0.04 0.635 0 0.06 0.635 0 0.08 0.635 0 0.1 0.635 0 0 0.64 0 0.02 0.64 0 0.04 0.64 0 0.06 0.64 0 0.08 0.64 0 0.1 0.64 0 0 0.645 0 0.02 0.645 0 0.04 0.645 0 0.06 0.645 0 0.08 0.645 0 0.1 0.645 0 0 0.65 0 0.02 0.65 0 0.04 0.65 0 0.06 0.65 0 0.08 0.65 0 0.1 0.65 0 0 0.655 0 0.02 0.655 0 0.04 0.655 0 0.06 0.655 0 0.08 0.655 0 0.1 0.655 0 0 0.66 0 0.02 0.66 0 0.04 0.66 0 0.06 0.66 0 0.08 0.66 0 0.1 0.66 0 0 0.665 0 0.02 0.665 0 0.04 0.665 0 0.06 0.665 0 0.08 0.665 0 0.1 0.665 0 0 0.67 0 0.02 0.67 0 0.04 0.67 0 0.06 0.67 0 0.08 0.67 0 0.1 0.67 0 0 0.675 0 0.02 0.675 0 0.04 0.675 0 0.06 0.675 0 0.08 0.675 0 0.1 0.675 0 0 0.68 0 0.02 0.68 0 0.04 0.68 0 0.06 0.68 0 0.08 0.68 0 0.1 0.68 0 0 0.685 0 0.02 0.685 0 0.04 0.685 0 0.06 0.685 0 0.08 0.685 0 0.1 0.685 0 0 0.69 0 0.02 0.69 0 0.04 0.69 0 0.06 0.69 0 0.08 0.69 0 0.1 
[...]
			<PointData Scalars="VitesseX">
				<DataArray Name="VitesseX" type="Float32" format="ascii">
 0 -1.28962e-14 -1.07792e-14 8.54467e-15 2.58614e-14 0 0 -1.1422e-14 -1.27321e-14 1.38578e-14 2.31018e-14 0 0 -1.1804e-14 -7.40687e-15 1.3841e-14 2.32455e-14 0 0 -1.28135e-14 1.35616e-15 9.394e-15 2.89044e-14 0 0 -1.62499e-14 1.22134e-14 8.39926e-15 2.97508e-14 0 0 -1.72076e-15 -3.70612e-15 3.2159e-14 1.40476e-14 0 0 6.03057e-15 -1.19139e-14 4.93099e-14 6.50068e-16 0 0 -1.40786e-15 2.63141e-15 4.68345e-14 1.07604e-15 0 0 8.93915e-15 -7.95813e-15 6.60856e-14 -7.3968e-15 0 0 3.86276e-15 1.52395e-14 3.81016e-14 1.82087e-14 0 0 -7.53047e-15 5.22879e-14 -7.05775e-15 4.97334e-14 0 0 1.27412e-14 2.13282e-14 3.49838e-14 1.73879e-14 0 0 8.2259e-15 2.33816e-14 4.71233e-14 4.14563e-15 0 0 6.22461e-15 2.09941e-14 4.93981e-14 3.11387e-16 0 0 1.05293e-14 1.49871e-14 4.48185e-14 3.31954e-15 0 0 -2.74994e-15 4.21248e-14 1.46068e-14 9.07424e-15 0 0 7.22254e-15 8.76916e-15 6.44228e-14 -3.20656e-14 0 0 5.24818e-15 -4.91582e-15 7.096e-14 -2.58424e-14 0 0 -7.58847e-17 1.95084e-14 1.25325e-14 2.68085e-14 0 0 1.00156e-14 6.1892e-15 5.43532e-15 4.86064e-14 0 0 1.91811e-14 -3.0112e-14 3.47016e-14 3.6856e-14 0 0 -1.70339e-14 2.41425e-14 -4.31562e-14 9.01597e-14 0 0 1.0322e-14 -3.76126e-15 -3.96334e-14 8.93369e-14 0 0 1.92645e-14 1.84993e-15 -4.6636e-14 9.13105e-14 0 0 3.66498e-15 3.14237e-14 -6.57419e-14 1.09805e-13 0 0 8.98359e-15 1.05115e-14 -4.93341e-15 6.25224e-14 0 0 4.38647e-15 -3.59231e-15 3.69251e-14 3.39946e-14 0 0 1.04985e-14 -2.04683e-14 7.63658e-14 5.75845e-15 0 0 -2.54757e-14 3.93464e-14 5.2195e-14 1.49531e-14 0 0 -5.31078e-15 4.04571e-14 4.50501e-14 2.82492e-14 0 0 2.11949e-14 6.18358e-14 -6.40026e-16 6.63416e-14 0 0 3.8426e-14 3.60607e-14 3.48172e-14 4.84436e-14 0 0 1.86197e-14 6.24415e-14 1.09873e-14 4.43695e-14 0 0 -8.12391e-15 1.13794e-13 -4.97893e-14 7.2679e-14 0 0 7.50209e-15 6.42294e-14 1.23058e-14 5.50416e-14 0 0 3.78962e-14 -1.29477e-15 6.09103e-14 4.96695e-14 0 0 1.01661e-14 3.35693e-14 1.93497e-14 9.75333e-14 0 0 -2.73635e-14 5.57946e-14 3.3008e-14 8.45188e-14 0 0 -2.3353e-14 2.55319e-14 6.98562e-14 4.0452e-14 0 0 -1.31704e-14 9.68619e-15 6.9209e-14 3.1374e-14 0 0 -2.40566e-14 3.12949e-14 4.40824e-14 2.43484e-14 0 0 -4.2799e-14 6.76892e-14 3.87146e-14 -1.61744e-14 0 0 2.39425e-15 -1.0033e-14 9.29692e-14 -2.78996e-14 0 0 2.3596e-14 -1.51874e-14 3.89396e-14 3.27697e-14 0 0 3.1867e-14 -1.16546e-14 3.15066e-14 1.53048e-14 0 0 5.82429e-14 -2.24427e-14 -7.51006e-15 4.13124e-14 0 0 -6.25012e-15 1.1303e-13 -2.26154e-13 2.04147e-13 0 0 -1.13853e-14 8.01332e-14 -1.90191e-13 1.96058e-13 0 0 6.79646e-14 -8.89925e-14 5.08536e-14 1.93286e-14 0 0 1.24669e-13 -1.72685e-13 1.70743e-13 -8.44341e-14 0 0 1.96004e-13 -2.43458e-13 2.39396e-13 -1.43825e-13 0 0 1.36187e-13 -1.14154e-13 1.09996e-13 -5.85321e-14 0 0 9.21621e-14 -2.08194e-15 -4.9989e-14 9.05886e-14 0 0 1.14709e-13 2.45211e-14 -9.72141e-14 1.44267e-13 0 0 2.17132e-13 -1.0549e-13 8.96034e-14 2.72989e-14 0 0 2.23932e-13 -5.95379e-14 1.10919e-13 4.23944e-14 0 0 1.08788e-13 1.45428e-13 3.30117e-14 1.00511e-13 0 0 1.44702e-13 8.56386e-14 1.7418e-13 9.9203e-15 0 0 9.86144e-14 1.51802e-13 1.60813e-13 1.56243e-14 0 0 1.50437e-13 1.03945e-13 1.76562e-13 6.88e-14 0 0 9.3078e-14 1.83657e-13 9.50964e-14 1.48733e-13 0 0 1.91789e-14 2.52827e-13 1.02793e-13 1.06598e-13 0 0 1.46066e-13 9.65048e-14 2.52799e-13 2.1881e-14 0 0 1.82728e-13 7.74396e-14 2.69584e-13 9.97366e-15 0 0 1.424e-13 8.47457e-14 2.66409e-13 7.11295e-15 0 0 -1.05777e-14 8.70414e-14 1.85468e-13 3.34012e-14 0 0 -2.90039e-13 -2.61728e-13 -1.53409e-13 -9.73428e-14 0 0 -1.38413e-12 -2.21298e-12 -1.94243e-12 -1.17399e-12 0 0 -6.58061e-12 -1.07566e-11 -1.05049e-11 -6.37187e-12 0 0 -2.77289e-11 -4.50665e-11 -4.49665e-11 -2.76267e-11 0 0 -1.02769e-10 -1.6694e-10 -1.66807e-10 -1.03014e-10 0 0 -3.39846e-10 -5.50503e-10 -5.50923e-10 -3.40176e-10 0 0 -1.01406e-09 -1.64144e-09 -1.64243e-09 -1.01486e-09 0 0 -2.78285e-09 -4.50444e-09 -4.50624e-09 -2.78551e-09 0 0 -7.17628e-09 -1.16163e-08 -1.16215e-08 -7.18482e-09 0 0 -1.7737e-08 -2.87146e-08 -2.87331e-08 -1.77668e-08 0 0 -4.26655e-08 -6.90968e-08 -6.91738e-08 -4.27896e-08 0 0 -9.85504e-08 -1.59737e-07 -1.60081e-07 -9.91074e-08 0 0 -2.09798e-07 -3.40458e-07 -3.41691e-07 -2.11794e-07 0 0 -4.0784e-07 -6.63006e-07 -6.66844e-07 -4.14052e-07 0 0 -7.34639e-07 -1.19695e-06 -1.20718e-06 -7.51199e-07 0 0 -1.24673e-06 -2.03685e-06 -2.06108e-06 -1.28592e-06 0 0 -2.01623e-06 -3.30467e-06 -3.35695e-06 -2.10096e-06 0 0 -3.13206e-06 -5.15176e-06 -5.25578e-06 -3.29957e-06 0 0 -4.69813e-06 -7.76172e-06 -7.95941e-06 -5.02131e-06 0 0 -6.83334e-06 -1.13291e-05 -1.16613e-05 -7.36113e-06 0 0 -9.6582e-06 -1.61121e-05 -1.67457e-05 -1.06979e-05 0 0 -1.32948e-05 -2.22384e-05 -2.29845e-05 -1.45358e-05 0 0 -1.78988e-05 -3.0066e-05 -3.19018e-05 -2.0561e-05 0 0 -2.34046e-05 -3.9746e-05 -4.10498e-05 -2.62711e-05 0 0 -3.0306e-05 -5.06888e-05 -5.42619e-05 -3.50516e-05 0 0 -3.78756e-05 -6.51682e-05 -6.86505e-05 -4.40176e-05 0 0 -4.72367e-05 -7.93546e-05 -8.35249e-05 -5.40911e-05 0 0 -5.69322e-05 -9.65844e-05 -0.000102322 -6.61284e-05 0 0 -6.87173e-05 -0.000115997 -0.000121705 -7.80519e-05 0 0 -8.03134e-05 -0.000135027 -0.000140587 -8.95626e-05 0 0 -9.36093e-05 -0.000154647 -0.000159115 -0.000100451 0 0 -0.000107409 -0.000175214 -0.000176944 -0.000110218 0 0 -0.000121389 -0.000195456 -0.000193045 -0.000118043 0 0 -0.000136455 -0.000214627 -0.000206177 -0.000123084 0 0 -0.000151211 -0.000232104 -0.000215323 -0.000125027 0 0 -0.000166309 -0.000247719 -0.000220647 -0.000122506 0 0 -0.000182852 -0.000261701 -0.000220617 -0.000115589 0 0 -0.000199164 -0.000274301 -0.000218187 -0.000106809 0 0 -0.000214522 -0.000285515 -0.000213555 -9.7527e-05 0 0 -0.000227766 -0.00029511 -0.000209622 -8.63641e-05 0 0 -0.000237222 -0.000303121 -0.000211749 -8.80346e-05 0 0 -0.000243398 -0.00031055 -0.000220378 -9.59164e-05 0 0 -0.000256877 -0.000325226 -0.00023904 -0.000111198 0 0 -0.000272311 -0.000357554 -0.000271186 -0.000139241 0 0 -0.000286144 -0.000403974 -0.000325129 -0.000169668 0 0 -0.000308883 -0.000449815 -0.000385221 -0.000198989 0 0 -0.000344899 -0.000487607 -0.000439697 -0.000237514 0 0 -0.000391724 -0.000545532 -0.000489188 -0.000284969 0 0 -0.000445229 -0.000645566 -0.000570549 -0.000344283 0 0 -0.000500825 -0.000779899 -0.000694202 -0.000406015 0 0 -0.000553974 -0.000927298 -0.000858235 -0.000415994 0 0 -0.00059632 -0.00108013 -0.00103726 -0.000401288 0 0 -0.000667688 -0.00124796 -0.00111354 -0.000323482 0 0 -0.000819369 -0.00143588 -0.00110655 -0.00010919 0 0 -0.00101472 -0.00162971 -0.00106149 0.000128118 0 0 -0.00108739 -0.00166886 -0.00101124 0.000228058 0 0 -0.00107332 -0.00162675 -0.000954899 0.000192931 0 0 -0.00102855 -0.00146224 -0.000777213 6.15692e-05 0 0 -0.000890301 -0.00120266 -0.000703591 -0.000207447 0 0 -0.000726404 -0.00104147 -0.000776523 -0.000219479 0 0 -0.000587797 -0.000942288 -0.000838997 -0.000237592 0 0 -8.03744e-05 -0.000396101 -0.000694775 -0.000477225 0 0 0.00134633 0.00166905 0.000290243 -0.000706444 0 0 0.00178717 0.00272563 0.00142205 -0.000598787 0 0 0.00175454 0.00267981 0.00160452 -0.000176581 0 0 0.00159546 0.00241738 0.00158434 0.00034186 0 0 0.00135854 0.00200077 0.00147461 0.000538681 0 0 0.0011445 0.00163492 0.00127284 0.000547331 0 0 0.00097011 0.00135432 0.00109039 0.000546524 0 0 0.000837616 0.00115846 0.000951714 0.000540309 0 0 0.000727597 0.00101457 0.000860967 0.00052472 0 0 0.000622 0.000892861 0.000801765 0.000489098 0 0 0.000527475 0.000791658 0.000752296 0.000449127 0 0 0.000460339 0.000716363 0.000694473 0.000412644 0 0 0.000418754 0.000657653 0.000635214 0.000381158 0 0 0.000380809 0.000595514 0.000574653 0.00034714 0 0 0.000334484 0.000525123 0.000508461 0.000307575 0 0 0.000282873 0.000446248 0.000433665 0.00026255 0 0 0.000226776 0.000359226 0.000350342 0.000212412 0 0 0.000168702 0.00026822 0.00026255 0.00015953 0 0 0.000113494 0.000181068 0.000177919 0.000108403 0 0 6.74996e-05 0.000108 0.000106498 6.50721e-05 0 0 3.46162e-05 5.55376e-05 5.4954e-05 3.36721e-05 0 0 1.51625e-05 2.43867e-05 2.42055e-05 1.48694e-05 0 0 5.80728e-06 9.35847e-06 9.31166e-06 5.73154e-06 0 0 2.03114e-06 3.27808e-06 3.26773e-06 2.0144e-06 0 0 6.76599e-07 1.09307e-06 1.09098e-06 6.73215e-07 0 0 2.1977e-07 3.55272e-07 3.54873e-07 2.19124e-07 0 0 7.03249e-08 1.13729e-07 1.13656e-07 7.0207e-08 0 0 2.22521e-08 3.59944e-08 3.59816e-08 2.22316e-08 0 0 6.96957e-09 1.12751e-08 1.12733e-08 6.96615e-09 0 0 2.16086e-09 3.496e-09 3.49599e-09 2.16042e-09 0 0 6.63049e-10 1.0728e-09 1.07304e-09 6.63048e-10 0 0 2.01371e-10 3.25892e-10 3.26015e-10 2.01436e-10 0 0 6.06118e-11 9.81618e-11 9.81915e-11 6.0723e-11 0 0 1.82667e-11 2.94061e-11 2.95954e-11 1.82194e-11 0 0 5.74282e-12 8.82143e-12 9.25994e-12 5.38556e-12 0 0 1.96601e-12 2.93642e-12 3.11468e-12 1.67833e-12 0 0 7.70193e-13 1.40379e-12 1.13403e-12 7.56644e-13 0 0 5.66831e-13 7.66227e-13 7.13638e-13 4.44143e-13 0 0 4.51496e-13 6.56744e-13 5.40938e-13 3.31818e-13 0 0 3.45138e-13 7.10659e-13 3.91365e-13 3.64337e-13 0 0 4.21556e-13 5.81731e-13 4.36999e-13 3.58706e-13 0 0 3.91598e-13 6.10314e-13 3.83046e-13 3.35754e-13 0 0 4.11318e-13 5.04074e-13 5.01854e-13 2.31203e-13 0 0 4.06992e-13 5.44013e-13 4.81567e-13 1.51046e-13 0 0 3.72585e-13 5.25186e-13 5.22679e-13 1.12369e-13 0 0 3.97204e-13 4.7655e-13 5.18738e-13 2.25703e-13 0 0 4.0126e-13 6.0503e-13 2.50752e-13 4.57802e-13 0 0 4.67396e-13 4.52924e-13 3.68732e-13 4.41181e-13 0 0 4.90466e-13 3.27891e-13 6.69095e-13 2.05539e-13 0 0 3.44758e-13 4.21172e-13 7.21068e-13 1.54059e-13 0 0 3.35183e-13 4.86487e-13 4.44894e-13 5.60605e-13 0 0 3.95212e-13 5.37269e-13 3.64778e-13 6.39032e-13 0 0 3.62268e-13 5.28481e-13 4.70758e-13 5.43192e-13 0 0 4.77946e-13 2.89319e-13 6.4686e-13 5.15444e-13 0 0 1.96346e-13 5.94825e-13 6.02955e-13 3.8831e-13 0 0 5.38957e-14 6.37519e-13 6.83234e-13 4.06728e-13 0 0 1.92018e-13 3.30503e-13 9.15543e-13 3.01279e-13 0 0 1.57049e-13 3.71253e-13 8.56037e-13 1.8928e-13 0 0 9.93454e-14 4.59468e-13 5.47321e-13 5.51068e-13 0 0 1.7163e-14 5.65864e-13 4.82366e-13 5.50363e-13 0 0 9.64281e-14 4.13417e-13 7.9392e-13 1.38206e-13 0 0 1.77775e-13 3.02694e-13 8.48089e-13 -9.90122e-16 0 0 3.74976e-14 6.04299e-13 4.99209e-13 2.46384e-13 0 0 3.601e-14 6.80073e-13 3.31939e-13 4.38118e-13 0 0 2.09917e-13 4.4294e-13 5.35609e-13 3.01639e-13 0 0 2.74031e-13 3.21904e-13 7.78487e-13 1.71772e-13 0 0 5.03961e-15 7.2428e-13 4.66106e-13 2.7591e-13 0 0 -1.0282e-13 9.25418e-13 2.31423e-13 2.89865e-13 0 0 1.58068e-13 4.87007e-13 5.95796e-13 8.17955e-14 0 0 5.50104e-13 -7.79801e-14 1.03874e-12 -1.5426e-13 0 0 4.79983e-13 2.04047e-13 7.22123e-13 -2.56119e-14 0 0 -7.59584e-14 1.16555e-12 -1.90452e-13 4.10749e-13 0 0 -2.25853e-13 1.43524e-12 -4.54726e-13 4.84993e-13 0
				</DataArray>
				<DataArray Name="VitesseY" type="Float32" format="ascii">