<?xml version="1.0"?>
<VTKFile type="PolyData">
	<PolyData>
		<Piece NumberOfPoints="1206" NumberOfPolys="1000">
			<Points>
				<DataArray type="Float32" NumberOfComponents="3" format="ascii">
 0 0 0 0.02 0 0 0.04 0 0 0.06 0 0 0.08 0 0 0.1 0 0 0 0.005 0 0.02 0.005 0 0.04 0.005 0 0.06 0.005 0 0.08 0.005 0 0.1 0.005 0 0 0.01 0 0.02 0.01 0 0.04 0.01 0 0.06 0.01 0 0.08 0.01 0 0.1 0.01 0 0 0.015 0 0.02 0.015 0 0.04 0.015 0 0.06 0.015 0 0.08 0.015 0 0.1 0.015 0 0 0.02 0 0.02 0.02 0 0.04 0.02 0 0.06 0.02 0 0.08 0.02 0 0.1 0.02 0 0 0.025 0 0.02 0.025 0 0.04 0.025 0 0.06 0.025 0 0.08 0.025 0 0.1 0.025 0 0 0.03 0 0.02 0.03 0 0.04 0.03 0 0.06 0.03 0 0.08 0.03 0 0.1 0.03 0 0 0.035 0 0.02 0.035 0 0.04 0.035 0 0.06 0.035 0 0.08 0.035 0 0.1 0.035 0 0 0.04 0 0.02 0.04 0 0.04 0.04 0 0.06 0.04 0 0.08 0.04 0 0.1 0.04 0 0 0.045 0 0.02 0.045 0 0.04 0.045 0 0.06 0.045 0 0.08 0.045 0 0.1 0.045 0 0 0.05 0 0.02 0.05 0 0.04 0.05 0 0.06 0.05 0 0.08 0.05 0 0.1 0.05 0 0 0.055 0 0.02 0.055 0 0.04 0.055 0 0.06 0.055 0 0.08 0.055 0 0.1 0.055 0 0 0.06 0 0.02 0.06 0 0.04 0.06 0 0.06 0.06 0 0.08 0.06 0 0.1 0.06 0 0 0.065 0 0.02 0.065 0 0.04 0.065 0 0.06 0.065 0 0.08 0.065 0 0.1 0.065 0 0 0.07 0 0.02 0.07 0 0.04 0.07 0 0.06 0.07 0 0.08 0.07 0 0.1 0.07 0 0 0.075 0 0.02 0.075 0 0.04 0.075 0 0.06 0.075 0 0.08 0.075 0 0.1 0.075 0 0 0.08 0 0.02 0.08 0 0.04 0.08 0 0.06 0.08 0 0.08 0.08 0 0.1 0.08 0 0 0.085 0 0.02 0.085 0 0.04 0.085 0 0.06 0.085 0 0.08 0.085 0 0.1 0.085 0 0 0.09 0 0.02 0.09 0 0.04 0.09 0 0.06 0.09 0 0.08 0.09 0 0.1 0.09 0 0 0.095 0 0.02 0.095 0 0.04 0.095 0 0.06 0.095 0 0.08 0.095 0 0.1 0.095 0 0 0.1 0 0.02 0.1 0 0.04 0.1 0 0.06 0.1 0 0.08 0.1 0 0.1 0.1 0 0 0.105 0 0.02 0.105 0 0.04 0.105 0 0.06 0.105 0 0.08 0.105 0 0.1 0.105 0 0 0.11 0 0.02 0.11 0 0.04 0.11 0 0.06 0.11 0 0.08 0.11 0 0.1 0.11 0 0 0.115 0 0.02 0.115 0 0.04 0.115 0 0.06 0.115 0 0.08 0.115 0 0.1 0.115 0 0 0.12 0 0.02 0.12 0 0.04 0.12 0 0.06 0.12 0 0.08 0.12 0 0.1 0.12 0 0 0.125 0 0.02 0.125 0 0.04 0.125 0 0.06 0.125 0 0.08 0.125 0 0.1 0.125 0 0 0.13 0 0.02 0.13 0 0.04 0.13 0 0.06 0.13 0 0.08 0.13 0 0.1 0.13 0 0 0.135 0 0.02 0.135 0 0.04 0.135 0 0.06 0.135 0 0.08 0.135 0 0.1 0.135 0 0 0.14 0 0.02 0.14 0 0.04 0.14 0 0.06 0.14 0 0.08 0.14 0 0.1 0.14 0 0 0.145 0 0.02 0.145 0 0.04 0.145 0 0.06 0.145 0 0.08 0.145 0 0.1 0.145 0 0 0.15 0 0.02 0.15 0 0.04 0.15 0 0.06 0.15 0 0.08 0.15 0 0.1 0.15 0 0 0.155 0 0.02 0.155 0 0.04 0.155 0 0.06 0.155 0 0.08 0.155 0 0.1 0.155 0 0 0.16 0 0.02 0.16 0 0.04 0.16 0 0.06 0.16 0 0.08 0.16 0 0.1 0.16 0 0 0.165 0 0.02 0.165 0 0.04 0.165 0 0.06 0.165 0 0.08 0.165 0 0.1 0.165 0 0 0.17 0 0.02 0.17 0 0.04 0.17 0 0.06 0.17 0 0.08 0.17 0 0.1 0.17 0 0 0.175 0 0.02 0.175 0 0.04 0.175 0 0.06 0.175 0 0.08 0.175 0 0.1 0.175 0 0 0.18 0 0.02 0.18 0 0.04 0.18 0 0.06 0.18 0 0.08 0.18 0 0.1 0.18 0 0 0.185 0 0.02 0.185 0 0.04 0.185 0 0.06 0.185 0 0.08 0.185 0 0.1 0.185 0 0 0.19 0 0.02 0.19 0 0.04 0.19 0 0.06 0.19 0 0.08 0.19 0 0.1 0.19 0 0 0.195 0 0.02 0.195 0 0.04 0.195 0 0.06 0.195 0 0.08 0.195 0 0.1 0.195 0 0 0.2 0 0.02 0.2 0 0.04 0.2 0 0.06 0.2 0 0.08 0.2 0 0.1 0.2 0 0 0.205 0 0.02 0.205 0 0.04 0.205 0 0.06 0.205 0 0.08 0.205 0 0.1 0.205 0 0 0.21 0 0.02 0.21 0 0.04 0.21 0 0.06 0.21 0 0.08 0.21 0 0.1 0.21 0 0 0.215 0 0.02 0.215 0 0.04 0.215 0 0.06 0.215 0 0.08 0.215 0 0.1 0.215 0 0 0.22 0 0.02 0.22 0 0.04 0.22 0 0.06 0.22 0 0.08 0.22 0 0.1 0.22 0 0 0.225 0 0.02 0.225 0 0.04 0.225 0 0.06 0.225 0 0.08 0.225 0 0.1 0.225 0 0 0.23 0 0.02 0.23 0 0.04 0.23 0 0.06 0.23 0 0.08 0.23 0 0.1 0.23 0 0 0.235 0 0.02 0.235 0 0.04 0.235 0 0.06 0.235 0 0.08 0.235 0 0.1 0.235 0 0 0.24 0 0.02 0.24 0 0.04 0.24 0 0.06 0.24 0 0.08 0.24 0 0.1 0.24 0 0 0.245 0 0.02 0.245 0 0.04 0.245 0 0.06 0.245 0 0.08 0.245 0 0.1 0.245 0 0 0.25 0 0.02 0.25 0 0.04 0.25 0 0.06 0.25 0 0.08 0.25 0 0.1 0.25 0 0 0.255 0 0.02 0.255 0 0.04 0.255 0 0.06 0.255 0 0.08 0.255 0 0.1 0.255 0 0 0.26 0 0.02 0.26 0 0.04 0.26 0 0.06 0.26 0 0.08 0.26 0 0.1 0.26 0 0 0.265 0 0.02 0.265 0 0.04 0.265 0 0.06 0.265 0 0.08 0.265 0 0.1 0.265 0 0 0.27 0 0.02 0.27 0 0.04 0.27 0 0.06 0.27 0 0.08 0.27 0 0.1 0.27 0 0 0.275 0 0.02 0.275 0 0.04 0.275 0 0.06 0.275 0 0.08 0.275 0 0.1 0.275 0 0 0.28 0 0.02 0.28 0 0.04 0.28 0 0.06 0.28 0 0.08 0.28 0 0.1 0.28 0 0 0.285 0 0.02 0.285 0 0.04 0.285 0 0.06 0.285 0 0.08 0.285 0 0.1 0.285 0 0 0.29 0 0.02 0.29 0 0.04 0.29 0 0.06 0.29 0 0.08 0.29 0 0.1 0.29 0 0 0.295 0 0.02 0.295 0 0.04 0.295 0 0.06 0.295 0 0.08 0.295 0 0.1 0.295 0 0 0.3 0 0.02 0.3 0 0.04 0.3 0 0.06 0.3 0 0.08 0.3 0 0.1 0.3 0 0 0.305 0 0.02 0.305 0 0.04 0.305 0 0.06 0.305 0 0.08 0.305 0 0.1 0.305 0 0 0.31 0 0.02 0.31 0 0.04 0.31 0 0.06 0.31 0 0.08 0.31 0 0.1 0.31 0 0 0.315 0 0.02 0.315 0 0.04 0.315 0 0.06 0.315 0 0.08 0.315 0 0.1 0.315 0 0 0.32 0 0.02 0.32 0 0.04 0.32 0 0.06 0.32 0 0.08 0.32 0 0.1 0.32 0 0 0.325 0 0.02 0.325 0 0.04 0.325 0 0.06 0.325 0 0.08 0.325 0 0.1 0.325 0 0 0.33 0 0.02 0.33 0 0.04 0.33 0 0.06 0.33 0 0.08 0.33 0 0.1 0.33 0 0 0.335 0 0.02 0.335 0 0.04 0.335 0 0.06 0.335 0 0.08 0.335 0 0.1 0.335 0 0 0.34 0 0.02 0.34 0 0.04 0.34 0 0.06 0.34 0 0.08 0.34 0 0.1 0.34 0 0 0.345 0 0.02 0.345 0 0.04 0.345 0 0.06 0.345 0 0.08 0.345 0 0.1 0.345 0 0 0.35 0 0.02 0.35 0 0.04 0.35 0 0.06 0.35 0 0.08 0.35 0 0.1 0.35 0 0 0.355 0 0.02 0.355 0 0.04 0.355 0 0.06 0.355 0 0.08 0.355 0 0.1 0.355 0 0 0.36 0 0.02 0.36 0 0.04 0.36 0 0.06 0.36 0 0.08 0.36 0 0.1 0.36 0 0 0.365 0 0.02 0.365 0 0.04 0.365 0 0.06 0.365 0 0.08 0.365 0 0.1 0.365 0 0 0.37 0 0.02 0.37 0 0.04 0.37 0 0.06 0.37 0 0.08 0.37 0 0.1 0.37 0 0 0.375 0 0.02 0.375 0 0.04 0.375 0 0.06 0.375 0 0.08 0.375 0 0.1 0.375 0 0 0.38 0 0.02 0.38 0 0.04 0.38 0 0.06 0.38 0 0.08 0.38 0 0.1 0.38 0 0 0.385 0 0.02 0.385 0 0.04 0.385 0 0.06 0.385 0 0.08 0.385 0 0.1 0.385 0 0 0.39 0 0.02 0.39 0 0.04 0.39 0 0.06 0.39 0 0.08 0.39 0 0.1 0.39 0 0 0.395 0 0.02 0.395 0 0.04 0.395 0 0.06 0.395 0 0.08 0.395 0 0.1 0.395 0 0 0.4 0 0.02 0.4 0 0.04 0.4 0 0.06 0.4 0 0.08 0.4 0 0.1 0.4 0 0 0.405 0 0.02 0.405 0 0.04 0.405 0 0.06 0.405 0 0.08 0.405 0 0.1 0.405 0 0 0.41 0 0.02 0.41 0 0.04 0.41 0 0.06 0.41 0 0.08 0.41 0 0.1 0.41 0 0 0.415 0 0.02 0.415 0 0.04 0.415 0 0.06 0.415 0 0.08 0.415 0 0.1 0.415 0 0 0.42 0 0.02 0.42 0 0.04 0.42 0 0.06 0.42 0 0.08 0.42 0 0.1 0.42 0 0 0.425 0 0.02 0.425 0 0.04 0.425 0 0.06 0.425 0 0.08 0.425 0 0.1 0.425 0 0 0.43 0 0.02 0.43 0 0.04 0.43 0 0.06 0.43 0 0.08 0.43 0 0.1 0.43 0 0 0.435 0 0.02 0.435 0 0.04 0.435 0 0.06 0.435 0 0.08 0.435 0 0.1 0.435 0 0 0.44 0 0.02 0.44 0 0.04 0.44 0 0.06 0.44 0 0.08 0.44 0 0.1 0.44 0 0 0.445 0 0.02 0.445 0 0.04 0.445 0 0.06 0.445 0 0.08 0.445 0 0.1 0.445 0 0 0.45 0 0.02 0.45 0 0.04 0.45 0 0.06 0.45 0 0.08 0.45 0 0.1 0.45 0 0 0.455 0 0.02 0.455 0 0.04 0.455 0 0.06 0.455 0 0.08 0.455 0 0.1 0.455 0 0 0.46 0 0.02 0.46 0 0.04 0.46 0 0.06 0.46 0 0.08 0.46 0 0.1 0.46 0 0 0.465 0 0.02 0.465 0 0.04 0.465 0 0.06 0.465 0 0.08 0.465 0 0.1 0.465 0 0 0.47 0 0.02 0.47 0 0.04 0.47 0 0.06 0.47 0 0.08 0.47 0 0.1 0.47 0 0 0.475 0 0.02 0.475 0 0.04 0.475 0 0.06 0.475 0 0.08 0.475 0 0.1 0.475 0 0 0.48 0 0.02 0.48 0 0.04 0.48 0 0.06 0.48 0 0.08 0.48 0 0.1 0.48 0 0 0.485 0 0.02 0.485 0 0.04 0.485 0 0.06 0.485 0 0.08 0.485 0 0.1 0.485 0 0 0.49 0 0.02 0.49 0 0.04 0.49 0 0.06 0.49 0 0.08 0.49 0 0.1 0.49 0 0 0.495 0 0.02 0.495 0 0.04 0.495 0 0.06 0.495 0 0.08 0.495 0 0.1 0.495 0 0 0.5 0 0.02 0.5 0 0.04 0.5 0 0.06 0.5 0 0.08 0.5 0 0.1 0.5 0 0 0.505 0 0.02 0.505 0 0.04 0.505 0 0.06 0.505 0 0.08 0.505 0 0.1 0.505 0 0 0.51 0 0.02 0.51 0 0.04 0.51 0 0.06 0.51 0 0.08 0.51 0 0.1 0.51 0 0 0.515 0 0.02 0.515 0 0.04 0.515 0 0.06 0.515 0 0.08 0.515 0 0.1 0.515 0 0 0.52 0 0.02 0.52 0 0.04 0.52 0 0.06 0.52 0 0.08 0.52 0 0.1 0.52 0 0 0.525 0 0.02 0.525 0 0.04 0.525 0 0.06 0.525 0 0.08 0.525 0 0.1 0.525 0 0 0.53 0 0.02 0.53 0 0.04 0.53 0 0.06 0.53 0 0.08 0.53 0 0.1 0.53 0 0 0.535 0 0.02 0.535 0 0.04 0.535 0 0.06 0.535 0 0.08 0.535 0 0.1 0.535 0 0 0.54 0 0.02 0.54 0 0.04 0.54 0 0.06 0.54 0 0.08 0.54 0 0.1 0.54 0 0 0.545 0 0.02 0.545 0 0.04 0.545 0 0.06 0.545 0 0.08 0.545 0 0.1 0.545 0 0 0.55 0 0.02 0.55 0 0.04 0.55 0 0.06 0.55 0 0.08 0.55 0 0.1 0.55 0 0 0.555 0 0.02 0.555 0 0.04 0.555 0 0.06 0.555 0 0.08 0.555 0 0.1 0.555 0 0 0.56 0 0.02 0.56 0 0.04 0.56 0 0.06 0.56 0 0.08 0.56 0 0.1 0.56 0 0 0.565 0 0.02 0.565 0 0.04 0.565 0 0.06 0.565 0 0.08 0.565 0 0.1 0.565 0 0 0.57 0 0.02 0.57 0 0.04 0.57 0 0.06 0.57 0 0.08 0.57 0 0.1 0.57 0 0 0.575 0 0.02 0.575 0 0.04 0.575 0 0.06 0.575 0 0.08 0.575 0 0.1 0.575 0 0 0.58 0 0.02 0.58 0 0.04 0.58 0 0.06 0.58 0 0.08 0.58 0 0.1 0.58 0 0 0.585 0 0.02 0.585 0 0.04 0.585 0 0.06 0.585 0 0.08 0.585 0 0.1 0.585 0 0 0.59 0 0.02 0.59 0 0.04 0.59 0 0.06 0.59 0 0.08 0.59 0 0.1 0.59 0 0 0.595 0 0.02 0.595 0 0.04 0.595 0 0.06 0.595 0 0.08 0.595 0 0.1 0.595 0 0 0.6 0 0.02 0.6 0 0.04 0.6 0 0.06 0.6 0 0.08 0.6 0 0.1 0.6 0 0 0.605 0 0.02 0.605 0 0.04 0.605 0 0.06 0.605 0 0.08 0.605 0 0.1 0.605 0 0 0.61 0 0.02 0.61 0 0.04 0.61 0 0.06 0.61 0 0.08 0.61 0 0.1 0.61 0 0 0.615 0 0.02 0.615 0 0.04 0.615 0 0.06 0.615 0 0.08 0.615 0 0.1 0.615 0 0 0.62 0 0.02 0.62 0 0.04 0.62 0 0.06 0.62 0 0.08 0.62 0 0.1 0.62 0 0 0.625 0 0.02 0.625 0 0.04 0.625 0 0.06 0.625 0 0.08 0.625 0 0.1 0.625 0 0 0.63 0 0.02 0.63 0 0.04 0.63 0 0.06 0.63 0 0.08 0.63 0 0.1 0.63 0 0 0.635 0 0.02 0.635 0 0.04 0.635 0 0.06 0.635 0 0.08 0.635 0 0.1 0.635 0 0 0.64 0 0.02 0.64 0 0.04 0.64 0 0.06 0.64 0 0.08 0.64 0 0.1 0.64 0 0 0.645 0 0.02 0.645 0 0.04 0.645 0 0.06 0.645 0 0.08 0.645 0 0.1 0.645 0 0 0.65 0 0.02 0.65 0 0.04 0.65 0 0.06 0.65 0 0.08 0.65 0 0.1 0.65 0 0 0.655 0 0.02 0.655 0 0.04 0.655 0 0.06 0.655 0 0.08 0.655 0 0.1 0.655 0 0 0.66 0 0.02 0.66 0 0.04 0.66 0 0.06 0.66 0 0.08 0.66 0 0.1 0.66 0 0 0.665 0 0.02 0.665 0 0.04 0.665 0 0.06 0.665 0 0.08 0.665 0 0.1 0.665 0 0 0.67 0 0.02 0.67 0 0.04 0.67 0 0.06 0.67 0 0.08 0.67 0 0.1 0.67 0 0 0.675 0 0.02 0.675 0 0.04 0.675 0 0.06 0.675 0 0.08 0.675 0 0.1 0.675 0 0 0.68 0 0.02 0.68 0 0.04 0.68 0 0.06 0.68 0 0.08 0.68 0 0.1 0.68 0 0 0.685 0 0.02 0.685 0 0.04 0.685 0 0.06 0.685 0 0.08 0.685 0 0.1 0.685 0 0 0.69 0 0.02 0.69 0 0.04 0.69 0 0.06 0.69 0 0.08 0.69 0 0.1 
[...]
			<PointData Scalars="VitesseX">
				<DataArray Name="VitesseX" type="Float32" format="ascii">
 0 -1.01386e-14 -1.28509e-14 -2.77623e-14 2.2591e-14 0 0 -1.77987e-14 -5.07627e-15 -2.35707e-14 1.46044e-14 0 0 -9.19356e-15 -2.26355e-14 5.76509e-15 -6.41182e-15 0 0 -2.60214e-14 -4.78571e-15 -7.53153e-15 7.15295e-15 0 0 -5.08894e-14 1.40745e-14 -8.81928e-15 7.0848e-15 0 0 -3.04098e-14 -2.36661e-14 2.85774e-14 -2.16537e-14 0 0 5.19924e-15 -5.47257e-14 1.32568e-14 -5.47136e-15 0 0 4.11496e-15 -4.30582e-14 -3.98096e-14 3.39411e-14 0 0 -1.64845e-14 -3.95303e-14 -3.79059e-14 2.08074e-14 0 0 -4.22429e-14 -2.85625e-14 -3.60921e-14 1.81524e-14 0 0 -8.49387e-14 3.786e-14 -9.06622e-14 5.2459e-14 0 0 -4.0616e-14 -3.93115e-14 1.60003e-14 -1.61388e-14 0 0 -7.12212e-14 -1.60703e-14 3.59142e-14 -4.49395e-14 0 0 -6.41862e-14 -1.83667e-16 1.11272e-14 -5.37718e-14 0 0 -3.17881e-14 1.43792e-15 -3.81903e-14 -1.30474e-14 0 0 -7.89526e-14 7.85205e-14 -1.18428e-13 4.76189e-14 0 0 -1.99282e-14 -4.26107e-14 -9.28074e-15 2.46857e-15 0 0 -7.94148e-14 3.81539e-14 -1.05823e-13 6.5994e-14 0 0 -1.23544e-13 1.1214e-13 -1.71369e-13 7.27757e-14 0 0 -5.50139e-14 1.22447e-14 -9.91668e-14 3.06435e-14 0 0 -2.49031e-14 -2.95493e-14 -1.3937e-13 8.83642e-14 0 0 -3.29256e-14 -4.29409e-14 -1.61611e-13 1.17149e-13 0 0 -9.41132e-14 -4.20951e-14 -5.20906e-14 3.72784e-15 0 0 -1.01464e-13 -5.21467e-14 3.8422e-14 -1.20341e-13 0 0 -3.69955e-14 -4.05035e-14 -3.97789e-14 -8.53511e-14 0 0 -1.03896e-14 -2.31629e-14 -1.02421e-13 -5.01413e-14 0 0 -4.58171e-14 -2.03815e-14 -7.68213e-14 -1.23164e-13 0 0 -1.16124e-13 -5.15752e-15 -7.50016e-14 -1.689e-13 0 0 -1.10293e-13 -3.29997e-14 -1.12975e-13 -1.19271e-13 0 0 -1.0197e-13 -1.39184e-14 -1.62315e-13 -8.57735e-14 0 0 -3.76447e-14 -1.02276e-13 -1.77294e-14 -1.93416e-13 0 0 -2.08606e-14 -1.10275e-13 2.95132e-15 -1.39396e-13 0 0 -1.04333e-13 -2.6212e-14 -4.32148e-14 -4.1093e-14 0 0 -1.16357e-13 -9.22644e-14 7.00062e-14 -7.89705e-14 0 0 -1.18652e-13 -5.31666e-14 -4.61588e-14 6.95053e-14 0 0 -3.12192e-14 -1.1952e-13 -1.95681e-14 1.19594e-13 0 0 -1.20397e-13 -3.16856e-15 -2.34721e-14 1.14574e-13 0 0 -1.77688e-13 5.87204e-14 1.02827e-14 3.96191e-14 0 0 -1.63657e-13 6.4189e-14 -2.30738e-15 3.17636e-14 0 0 -7.25632e-14 -2.19168e-14 -2.09037e-14 5.5384e-14 0 0 -2.22168e-14 -1.00402e-13 -5.7476e-14 5.24272e-14 0 0 -1.35183e-13 -4.42728e-14 -1.17005e-13 5.52156e-14 0 0 -1.02623e-13 -1.43146e-13 7.04694e-15 -8.53086e-14 0 0 -2.3491e-14 -1.73782e-13 -2.58491e-14 -8.50112e-14 0 0 -3.99814e-14 -8.27122e-14 -1.30831e-13 -4.50925e-14 0 0 -4.20146e-14 -1.29765e-13 4.43606e-14 -2.85658e-13 0 0 -2.64747e-13 3.11266e-14 6.27031e-14 -3.83661e-13 0 0 -3.02423e-13 -1.98879e-14 7.7592e-14 -3.36463e-13 0 0 -1.55466e-13 -2.05218e-13 7.15168e-14 -2.27568e-13 0 0 -1.05403e-13 -1.94063e-13 -1.12756e-13 2.99286e-15 0 0 3.50536e-14 -3.52943e-13 -6.95681e-15 -3.28775e-14 0 0 -2.52903e-13 -1.23887e-14 -1.00779e-13 -1.33202e-13 0 0 -3.21175e-13 -3.75415e-14 1.63343e-13 -4.98443e-13 0 0 -3.73749e-13 1.07615e-13 -6.18333e-14 -3.32473e-13 0 0 -2.21989e-13 1.14673e-13 -3.30228e-13 -9.75217e-15 0 0 1.07621e-13 -2.99715e-13 3.0829e-14 -2.04008e-13 0 0 -3.024e-13 7.93479e-14 -1.27116e-13 -1.6669e-13 0 0 -2.48005e-13 -2.47529e-13 3.93292e-13 -5.93475e-13 0 0 -2.34837e-13 -2.20137e-13 3.311e-13 -5.55751e-13 0 0 -3.1952e-13 1.32387e-13 -2.91877e-13 -3.05583e-14 0 0 -9.45613e-14 -1.13214e-13 -2.16444e-13 2.91556e-14 0 0 -2.07023e-13 -1.45113e-14 -1.99675e-13 -2.37416e-14 0 0 -1.0666e-13 -1.2771e-13 -1.75833e-14 -2.00881e-13 0 0 -1.10041e-13 -1.64421e-14 -1.92688e-13 -7.9999e-14 0 0 -1.35753e-13 2.74421e-14 -2.62949e-13 -1.8501e-14 0 0 -5.47501e-14 -1.41692e-13 -1.09698e-13 -9.77834e-14 0 0 -2.05507e-13 -3.69466e-16 -2.79486e-13 3.60677e-14 0 0 -5.04896e-14 -1.91304e-13 -1.86635e-13 2.25096e-14 0 0 -2.16917e-14 -1.81259e-13 -2.49039e-13 8.40407e-14 0 0 -2.52969e-13 5.2818e-14 -2.07605e-13 -7.31122e-14 0 0 -1.35189e-13 -3.06546e-13 4.70695e-13 -5.60831e-13 0 0 -3.18744e-13 -7.5206e-14 2.47426e-13 -2.19891e-13 0 0 -1.59428e-13 -6.35338e-14 -2.79202e-14 2.05233e-13 0 0 -1.07775e-13 -8.25646e-14 -1.07313e-13 3.6979e-13 0 0 -4.16189e-13 8.27668e-14 -2.16628e-15 1.87793e-13 0 0 -4.34536e-13 3.61983e-15 2.11486e-13 -9.22089e-14 0 0 -3.94103e-13 1.33342e-13 -2.21975e-13 1.66231e-13 0 0 -8.22692e-14 -2.62712e-13 -5.78736e-14 -1.59565e-15 0 0 -3.16028e-13 -1.36184e-13 -8.3656e-14 -1.44277e-13 0 0 -4.2107e-13 -2.44213e-13 4.52474e-14 -2.7724e-13 0 0 -3.44465e-13 -2.83857e-13 -9.44629e-14 -1.36224e-13 0 0 -5.54372e-13 7.86147e-14 -4.22879e-13 1.62148e-14 0 0 -2.92595e-13 -3.86924e-13 1.86364e-13 -5.79139e-13 0 0 -2.20081e-13 -1.69199e-13 -2.57235e-13 -4.9932e-13 0 0 -1.91473e-13 1.36652e-13 -7.96069e-13 -2.27931e-13 0 0 -1.45893e-13 -2.70308e-13 -1.23593e-13 -6.24962e-13 0 0 -5.2529e-13 -1.79522e-13 2.09844e-14 -6.30553e-13 0 0 -3.71143e-13 -2.37621e-13 -3.20488e-13 -1.48857e-13 0 0 2.00807e-13 -7.29311e-13 -3.66237e-13 1.55041e-13 0 0 -7.58747e-14 -2.2593e-13 -5.68802e-13 -4.20787e-14 0 0 -3.71021e-13 -7.14321e-14 -1.43493e-13 -5.77128e-13 0 0 -4.4766e-13 -2.38054e-13 6.10957e-14 -6.34316e-13 0 0 -1.3713e-13 -2.08141e-13 -5.43618e-13 -1.31211e-14 0 0 1.89704e-13 -1.56889e-12 -1.93615e-12 -5.24548e-13 0 0 4.45409e-12 -6.54923e-12 -2.80425e-11 -2.90103e-11 0 0 3.42947e-10 3.68988e-10 -4.21148e-11 -3.23644e-10 0 0 6.39672e-11 5.83111e-09 6.95633e-09 1.94997e-09 0 0 -1.80633e-07 -4.09691e-07 -4.89593e-07 -3.21233e-07 0 0 -1.66175e-06 -6.58219e-06 -1.23576e-05 -1.08696e-05 0 0 -2.8917e-07 -3.66873e-05 -0.000115109 -0.000122175 0 0 4.06598e-06 -7.52376e-05 -0.000258011 -0.000273504 0 0 3.31523e-06 -5.24321e-05 -0.000185866 -0.000196492 0 0 -5.70147e-07 3.15424e-05 6.87405e-05 4.57517e-05 0 0 -3.53021e-06 0.000100475 0.000305321 0.000272025 0 0 -3.25842e-06 9.97054e-05 0.00032992 0.000366657 0 0 -2.21257e-06 9.54272e-05 0.000330506 0.000379492 0 0 2.43541e-06 7.51545e-05 0.000276013 0.000331148 0 0 5.38505e-06 3.87435e-05 0.000106453 0.000120242 0 0 4.23971e-06 1.82829e-05 3.77474e-05 3.61952e-05 0 0 2.37471e-06 7.84856e-06 1.40532e-05 1.24232e-05 0 0 1.00476e-06 2.70014e-06 4.22494e-06 3.44652e-06 0 0 2.93541e-07 6.66174e-07 9.05921e-07 6.81267e-07 0 0 5.4796e-08 1.07648e-07 1.30545e-07 9.18513e-08 0 0 6.58945e-09 1.19664e-08 1.3551e-08 9.15403e-09 0 0 5.88851e-10 1.02122e-09 1.1045e-09 7.23703e-10 0 0 4.29633e-11 7.27735e-11 7.6766e-11 4.88781e-11 0 0 2.64296e-12 4.05105e-12 4.51261e-12 2.7615e-12 0 0 1.07797e-14 9.60205e-14 -3.99098e-13 1.20827e-13 0 0 -2.25909e-13 -1.9e-13 -2.92818e-13 -3.94785e-13 0 0 -3.36355e-13 -2.73566e-13 -3.02493e-14 -4.7594e-13 0 0 -3.49442e-13 -3.00189e-13 -8.33129e-14 -2.76795e-13 0 0 -1.23763e-13 -4.66099e-13 -1.05785e-13 -2.49285e-13 0 0 -2.93416e-13 -8.87235e-14 -5.84447e-13 -1.01888e-14 0 0 -3.04706e-13 -2.82046e-13 -2.38389e-13 -3.07721e-13 0 0 -4.64786e-13 -2.85938e-13 -6.17799e-14 -3.74846e-13 0 0 -5.89739e-13 -2.88328e-13 5.46056e-15 -2.25124e-13 0 0 -2.79176e-13 -4.17188e-13 -8.94323e-14 -8.62605e-14 0 0 -2.94106e-13 -6.51907e-14 -6.6484e-13 1.12219e-13 0 0 -3.49719e-13 -2.39706e-13 -3.34482e-13 -3.37657e-13 0 0 -5.73106e-13 -1.8803e-13 -1.67159e-13 -4.40349e-13 0 0 -6.96392e-13 -2.07294e-13 -4.52445e-14 -2.96897e-13 0 0 -2.88863e-13 -4.73795e-13 -4.51281e-14 -2.37037e-13 0 0 -2.12781e-13 -2.83031e-13 -4.93082e-13 6.58662e-14 0 0 -3.50195e-13 -3.40695e-13 -2.6292e-13 -2.15868e-13 0 0 -5.67418e-13 -1.62337e-13 -2.37287e-13 -3.82699e-13 0 0 -6.35043e-13 -1.33396e-13 -2.31063e-13 -1.42763e-13 0 0 -2.04072e-13 -4.0342e-13 -2.28029e-13 -1.02649e-13 0 0 -1.56794e-13 -1.21094e-13 -7.30814e-13 -6.55151e-14 0 0 -4.05471e-13 -2.13677e-13 -4.50126e-13 -4.00437e-13 0 0 -4.35345e-13 -5.07567e-13 -2.96012e-13 -2.77736e-13 0 0 -3.59002e-13 -6.25697e-13 -3.76699e-13 8.57298e-14 0 0 -2.35881e-13 -6.63705e-13 1.35484e-14 -4.42606e-13 0 0 -2.25402e-13 -1.32024e-13 -6.13117e-13 -4.09032e-13 0 0 -1.73566e-13 -9.33128e-14 -6.71062e-13 -5.12532e-13 0 0 -4.31557e-13 -2.81663e-13 -7.33836e-14 -8.32771e-13 0 0 -6.88774e-13 -5.28974e-14 -4.68804e-13 -1.00699e-13 0 0 -2.91666e-13 -5.28697e-13 -2.66713e-13 1.64006e-13 0 0 -2.76e-13 -4.20187e-13 -4.74769e-13 3.61582e-13 0 0 -4.24279e-13 -1.79523e-13 -6.61457e-13 4.89541e-13 0 0 -6.57431e-13 -2.25694e-13 -4.55536e-13 4.99466e-13 0 0 -7.81777e-13 -8.92599e-14 -7.96289e-13 9.06757e-13 0 0 -2.71012e-13 -7.97331e-13 -1.25641e-13 4.00683e-13 0 0 -3.71242e-13 -5.64227e-13 -1.06461e-13 4.71291e-15 0 0 -4.53917e-13 -2.55129e-13 -2.74183e-13 -2.25172e-13 0 0 -4.93718e-13 -2.92495e-13 -2.18118e-13 -3.37811e-13 0 0 -7.24128e-13 -2.96764e-13 -3.25651e-13 -9.23253e-14 0 0 -3.46845e-13 -6.97742e-13 -3.54558e-13 -1.01063e-13 0 0 -1.11808e-13 -5.80474e-13 -1.00368e-12 1.19326e-14 0 0 -3.78235e-13 -2.70545e-13 -1.08628e-12 -3.62368e-13 0 0 -9.50604e-13 1.90052e-13 -7.11045e-13 -7.53584e-13 0 0 -8.33109e-13 -1.5761e-13 -1.49135e-13 -6.44396e-13 0 0 3.54789e-14 -8.85491e-13 -1.40129e-13 -2.21985e-13 0 0 2.58988e-13 -9.40705e-13 -5.46116e-13 -1.00338e-13 0 0 -3.0702e-13 -4.66037e-13 -6.45599e-13 -8.48714e-13 0 0 -9.6915e-13 1.73918e-13 -9.16425e-13 -1.35556e-12 0 0 -9.08003e-13 2.86567e-14 -1.24466e-12 -8.0559e-13 0 0 -2.58463e-13 -4.45484e-13 -1.36047e-12 -1.96915e-13 0 0 -1.63506e-13 -4.83738e-13 -9.66878e-13 -3.46882e-13 0 0 -2.77179e-13 -7.31308e-13 -1.32715e-13 -9.92494e-13 0 0 -2.10569e-13 -8.0817e-13 -3.44587e-13 -8.79641e-13 0 0 -4.4071e-13 -5.11254e-13 -8.31489e-13 -6.9509e-13 0 0 -6.20328e-13 -3.14913e-13 -5.7252e-13 -1.42204e-12 0 0 -7.27312e-13 2.06007e-13 -1.02896e-12 -1.30376e-12 0 0 -3.43857e-13 -3.18071e-13 -8.16122e-13 -8.72132e-13 0 0 -3.0915e-14 -8.63842e-13 -6.26077e-13 -3.5328e-13 0 0 -4.1707e-13 -5.37983e-13 -7.53586e-13 -2.34152e-13 0 0 -7.07964e-13 -2.39329e-13 -5.53795e-13 -1.04523e-12 0 0 -7.1165e-13 1.33951e-13 -9.98141e-13 -1.2089e-12 0 0 -1.56682e-13 -6.38326e-13 -6.03435e-13 -9.90248e-13 0 0 1.8538e-13 -1.1661e-12 -6.1889e-13 -1.40477e-13 0 0 -2.28588e-13 -7.19976e-13 -9.15859e-13 1.03458e-13 0 0 -5.46999e-13 -4.85869e-13 -4.163e-13 -9.59867e-13 0 0 -7.11092e-13 -2.53683e-14 -8.53303e-13 -9.48277e-13 0 0 -2.53471e-13 -5.93048e-13 -7.1762e-13 -6.1592e-13 0 0 1.23134e-13 -1.19115e-12 -4.68509e-13 -1.87767e-13 0 0 -3.84247e-13 -6.96224e-13 -7.53898e-13 2.38099e-14 0 0 -7.15135e-13 -3.81985e-13 -5.69928e-13 -8.53916e-13 0 0 -7.45246e-13 5.54218e-14 -1.20365e-12 -8.91758e-13 0 0 -2.02532e-13 -5.94329e-13 -1.05306e-12 -7.39666e-13 0 0 1.93551e-13 -1.16416e-12 -7.68303e-13 -3.89118e-13 0 0 -6.07316e-13 -3.25574e-13 -6.24982e-13 -4.86912e-13 0 0 -7.43264e-13 -6.30687e-13 8.90571e-13 -2.05373e-12 0 0 -4.4745e-13 -5.31907e-13 -1.52176e-13 -1.30319e-12 0 0 -1.22453e-13 -4.54941e-13 -1.43849e-12 -7.52576e-14 0 0 -4.80938e-13 -4.20561e-13 -9.85741e-13 -6.55169e-13 0 0 -1.33436e-12 4.04511e-13 -1.06683e-12 -8.53945e-13 0 0 -6.35282e-13 -3.39101e-13 -5.53291e-13 -9.1643e-13 0 0 -1.12945e-13 -5.45332e-13 -1.17194e-12 -2.05909e-14 0 0 -5.77749e-14 -8.798e-13 -8.9189e-13 1.21409e-13 0 0 -5.68107e-13 -8.01171e-13 -2.95201e-13 -4.27873e-13 0 0 -1.26861e-12 1.44618e-13 -1.00914e-12 -1.20581e-13 0
				</DataArray>
				<DataArray Name="VitesseY" type="Float32" format="ascii">