<?xml version="1.0"?>
<VTKFile type="PolyData">
	<PolyData>
		<Piece NumberOfPoints="1206" NumberOfPolys="1000">
			<Points>
				<DataArray type="Float32" NumberOfComponents="3" format="ascii">
 0 0 0 0.02 0 0 0.04 0 0 0.06 0 0 0.08 0 0 0.1 0 0 0 0.005 0 0.02 0.005 0 0.04 0.005 0 0.06 0.005 0 0.08 0.005 0 0.1 0.005 0 0 0.01 0 0.02 0.01 0 0.04 0.01 0 0.06 0.01 0 0.08 0.01 0 0.1 0.01 0 0 0.015 0 0.02 0.015 0 0.04 0.015 0 0.06 0.015 0 0.08 0.015 0 0.1 0.015 0 0 0.02 0 0.02 0.02 0 0.04 0.02 0 0.06 0.02 0 0.08 0.02 0 0.1 0.02 0 0 0.025 0 0.02 0.025 0 0.04 0.025 0 0.06 0.025 0 0.08 0.025 0 0.1 0.025 0 0 0.03 0 0.02 0.03 0 0.04 0.03 0 0.06 0.03 0 0.08 0.03 0 0.1 0.03 0 0 0.035 0 0.02 0.035 0 0.04 0.035 0 0.06 0.035 0 0.08 0.035 0 0.1 0.035 0 0 0.04 0 0.02 0.04 0 0.04 0.04 0 0.06 0.04 0 0.08 0.04 0 0.1 0.04 0 0 0.045 0 0.02 0.045 0 0.04 0.045 0 0.06 0.045 0 0.08 0.045 0 0.1 0.045 0 0 0.05 0 0.02 0.05 0 0.04 0.05 0 0.06 0.05 0 0.08 0.05 0 0.1 0.05 0 0 0.055 0 0.02 0.055 0 0.04 0.055 0 0.06 0.055 0 0.08 0.055 0 0.1 0.055 0 0 0.06 0 0.02 0.06 0 0.04 0.06 0 0.06 0.06 0 0.08 0.06 0 0.1 0.06 0 0 0.065 0 0.02 0.065 0 0.04 0.065 0 0.06 0.065 0 0.08 0.065 0 0.1 0.065 0 0 0.07 0 0.02 0.07 0 0.04 0.07 0 0.06 0.07 0 0.08 0.07 0 0.1 0.07 0 0 0.075 0 0.02 0.075 0 0.04 0.075 0 0.06 0.075 0 0.08 0.075 0 0.1 0.075 0 0 0.08 0 0.02 0.08 0 0.04 0.08 0 0.06 0.08 0 0.08 0.08 0 0.1 0.08 0 0 0.085 0 0.02 0.085 0 0.04 0.085 0 0.06 0.085 0 0.08 0.085 0 0.1 0.085 0 0 0.09 0 0.02 0.09 0 0.04 0.09 0 0.06 0.09 0 0.08 0.09 0 0.1 0.09 0 0 0.095 0 0.02 0.095 0 0.04 0.095 0 0.06 0.095 0 0.08 0.095 0 0.1 0.095 0 0 0.1 0 0.02 0.1 0 0.04 0.1 0 0.06 0.1 0 0.08 0.1 0 0.1 0.1 0 0 0.105 0 0.02 0.105 0 0.04 0.105 0 0.06 0.105 0 0.08 0.105 0 0.1 0.105 0 0 0.11 0 0.02 0.11 0 0.04 0.11 0 0.06 0.11 0 0.08 0.11 0 0.1 0.11 0 0 0.115 0 0.02 0.115 0 0.04 0.115 0 0.06 0.115 0 0.08 0.115 0 0.1 0.115 0 0 0.12 0 0.02 0.12 0 0.04 0.12 0 0.06 0.12 0 0.08 0.12 0 0.1 0.12 0 0 0.125 0 0.02 0.125 0 0.04 0.125 0 0.06 0.125 0 0.08 0.125 0 0.1 0.125 0 0 0.13 0 0.02 0.13 0 0.04 0.13 0 0.06 0.13 0 0.08 0.13 0 0.1 0.13 0 0 0.135 0 0.02 0.135 0 0.04 0.135 0 0.06 0.135 0 0.08 0.135 0 0.1 0.135 0 0 0.14 0 0.02 0.14 0 0.04 0.14 0 0.06 0.14 0 0.08 0.14 0 0.1 0.14 0 0 0.145 0 0.02 0.145 0 0.04 0.145 0 0.06 0.145 0 0.08 0.145 0 0.1 0.145 0 0 0.15 0 0.02 0.15 0 0.04 0.15 0 0.06 0.15 0 0.08 0.15 0 0.1 0.15 0 0 0.155 0 0.02 0.155 0 0.04 0.155 0 0.06 0.155 0 0.08 0.155 0 0.1 0.155 0 0 0.16 0 0.02 0.16 0 0.04 0.16 0 0.06 0.16 0 0.08 0.16 0 0.1 0.16 0 0 0.165 0 0.02 0.165 0 0.04 0.165 0 0.06 0.165 0 0.08 0.165 0 0.1 0.165 0 0 0.17 0 0.02 0.17 0 0.04 0.17 0 0.06 0.17 0 0.08 0.17 0 0.1 0.17 0 0 0.175 0 0.02 0.175 0 0.04 0.175 0 0.06 0.175 0 0.08 0.175 0 0.1 0.175 0 0 0.18 0 0.02 0.18 0 0.04 0.18 0 0.06 0.18 0 0.08 0.18 0 0.1 0.18 0 0 0.185 0 0.02 0.185 0 0.04 0.185 0 0.06 0.185 0 0.08 0.185 0 0.1 0.185 0 0 0.19 0 0.02 0.19 0 0.04 0.19 0 0.06 0.19 0 0.08 0.19 0 0.1 0.19 0 0 0.195 0 0.02 0.195 0 0.04 0.195 0 0.06 0.195 0 0.08 0.195 0 0.1 0.195 0 0 0.2 0 0.02 0.2 0 0.04 0.2 0 0.06 0.2 0 0.08 0.2 0 0.1 0.2 0 0 0.205 0 0.02 0.205 0 0.04 0.205 0 0.06 0.205 0 0.08 0.205 0 0.1 0.205 0 0 0.21 0 0.02 0.21 0 0.04 0.21 0 0.06 0.21 0 0.08 0.21 0 0.1 0.21 0 0 0.215 0 0.02 0.215 0 0.04 0.215 0 0.06 0.215 0 0.08 0.215 0 0.1 0.215 0 0 0.22 0 0.02 0.22 0 0.04 0.22 0 0.06 0.22 0 0.08 0.22 0 0.1 0.22 0 0 0.225 0 0.02 0.225 0 0.04 0.225 0 0.06 0.225 0 0.08 0.225 0 0.1 0.225 0 0 0.23 0 0.02 0.23 0 0.04 0.23 0 0.06 0.23 0 0.08 0.23 0 0.1 0.23 0 0 0.235 0 0.02 0.235 0 0.04 0.235 0 0.06 0.235 0 0.08 0.235 0 0.1 0.235 0 0 0.24 0 0.02 0.24 0 0.04 0.24 0 0.06 0.24 0 0.08 0.24 0 0.1 0.24 0 0 0.245 0 0.02 0.245 0 0.04 0.245 0 0.06 0.245 0 0.08 0.245 0 0.1 0.245 0 0 0.25 0 0.02 0.25 0 0.04 0.25 0 0.06 0.25 0 0.08 0.25 0 0.1 0.25 0 0 0.255 0 0.02 0.255 0 0.04 0.255 0 0.06 0.255 0 0.08 0.255 0 0.1 0.255 0 0 0.26 0 0.02 0.26 0 0.04 0.26 0 0.06 0.26 0 0.08 0.26 0 0.1 0.26 0 0 0.265 0 0.02 0.265 0 0.04 0.265 0 0.06 0.265 0 0.08 0.265 0 0.1 0.265 0 0 0.27 0 0.02 0.27 0 0.04 0.27 0 0.06 0.27 0 0.08 0.27 0 0.1 0.27 0 0 0.275 0 0.02 0.275 0 0.04 0.275 0 0.06 0.275 0 0.08 0.275 0 0.1 0.275 0 0 0.28 0 0.02 0.28 0 0.04 0.28 0 0.06 0.28 0 0.08 0.28 0 0.1 0.28 0 0 0.285 0 0.02 0.285 0 0.04 0.285 0 0.06 0.285 0 0.08 0.285 0 0.1 0.285 0 0 0.29 0 0.02 0.29 0 0.04 0.29 0 0.06 0.29 0 0.08 0.29 0 0.1 0.29 0 0 0.295 0 0.02 0.295 0 0.04 0.295 0 0.06 0.295 0 0.08 0.295 0 0.1 0.295 0 0 0.3 0 0.02 0.3 0 0.04 0.3 0 0.06 0.3 0 0.08 0.3 0 0.1 0.3 0 0 0.305 0 0.02 0.305 0 0.04 0.305 0 0.06 0.305 0 0.08 0.305 0 0.1 0.305 0 0 0.31 0 0.02 0.31 0 0.04 0.31 0 0.06 0.31 0 0.08 0.31 0 0.1 0.31 0 0 0.315 0 0.02 0.315 0 0.04 0.315 0 0.06 0.315 0 0.08 0.315 0 0.1 0.315 0 0 0.32 0 0.02 0.32 0 0.04 0.32 0 0.06 0.32 0 0.08 0.32 0 0.1 0.32 0 0 0.325 0 0.02 0.325 0 0.04 0.325 0 0.06 0.325 0 0.08 0.325 0 0.1 0.325 0 0 0.33 0 0.02 0.33 0 0.04 0.33 0 0.06 0.33 0 0.08 0.33 0 0.1 0.33 0 0 0.335 0 0.02 0.335 0 0.04 0.335 0 0.06 0.335 0 0.08 0.335 0 0.1 0.335 0 0 0.34 0 0.02 0.34 0 0.04 0.34 0 0.06 0.34 0 0.08 0.34 0 0.1 0.34 0 0 0.345 0 0.02 0.345 0 0.04 0.345 0 0.06 0.345 0 0.08 0.345 0 0.1 0.345 0 0 0.35 0 0.02 0.35 0 0.04 0.35 0 0.06 0.35 0 0.08 0.35 0 0.1 0.35 0 0 0.355 0 0.02 0.355 0 0.04 0.355 0 0.06 0.355 0 0.08 0.355 0 0.1 0.355 0 0 0.36 0 0.02 0.36 0 0.04 0.36 0 0.06 0.36 0 0.08 0.36 0 0.1 0.36 0 0 0.365 0 0.02 0.365 0 0.04 0.365 0 0.06 0.365 0 0.08 0.365 0 0.1 0.365 0 0 0.37 0 0.02 0.37 0 0.04 0.37 0 0.06 0.37 0 0.08 0.37 0 0.1 0.37 0 0 0.375 0 0.02 0.375 0 0.04 0.375 0 0.06 0.375 0 0.08 0.375 0 0.1 0.375 0 0 0.38 0 0.02 0.38 0 0.04 0.38 0 0.06 0.38 0 0.08 0.38 0 0.1 0.38 0 0 0.385 0 0.02 0.385 0 0.04 0.385 0 0.06 0.385 0 0.08 0.385 0 0.1 0.385 0 0 0.39 0 0.02 0.39 0 0.04 0.39 0 0.06 0.39 0 0.08 0.39 0 0.1 0.39 0 0 0.395 0 0.02 0.395 0 0.04 0.395 0 0.06 0.395 0 0.08 0.395 0 0.1 0.395 0 0 0.4 0 0.02 0.4 0 0.04 0.4 0 0.06 0.4 0 0.08 0.4 0 0.1 0.4 0 0 0.405 0 0.02 0.405 0 0.04 0.405 0 0.06 0.405 0 0.08 0.405 0 0.1 0.405 0 0 0.41 0 0.02 0.41 0 0.04 0.41 0 0.06 0.41 0 0.08 0.41 0 0.1 0.41 0 0 0.415 0 0.02 0.415 0 0.04 0.415 0 0.06 0.415 0 0.08 0.415 0 0.1 0.415 0 0 0.42 0 0.02 0.42 0 0.04 0.42 0 0.06 0.42 0 0.08 0.42 0 0.1 0.42 0 0 0.425 0 0.02 0.425 0 0.04 0.425 0 0.06 0.425 0 0.08 0.425 0 0.1 0.425 0 0 0.43 0 0.02 0.43 0 0.04 0.43 0 0.06 0.43 0 0.08 0.43 0 0.1 0.43 0 0 0.435 0 0.02 0.435 0 0.04 0.435 0 0.06 0.435 0 0.08 0.435 0 0.1 0.435 0 0 0.44 0 0.02 0.44 0 0.04 0.44 0 0.06 0.44 0 0.08 0.44 0 0.1 0.44 0 0 0.445 0 0.02 0.445 0 0.04 0.445 0 0.06 0.445 0 0.08 0.445 0 0.1 0.445 0 0 0.45 0 0.02 0.45 0 0.04 0.45 0 0.06 0.45 0 0.08 0.45 0 0.1 0.45 0 0 0.455 0 0.02 0.455 0 0.04 0.455 0 0.06 0.455 0 0.08 0.455 0 0.1 0.455 0 0 0.46 0 0.02 0.46 0 0.04 0.46 0 0.06 0.46 0 0.08 0.46 0 0.1 0.46 0 0 0.465 0 0.02 0.465 0 0.04 0.465 0 0.06 0.465 0 0.08 0.465 0 0.1 0.465 0 0 0.47 0 0.02 0.47 0 0.04 0.47 0 0.06 0.47 0 0.08 0.47 0 0.1 0.47 0 0 0.475 0 0.02 0.475 0 0.04 0.475 0 0.06 0.475 0 0.08 0.475 0 0.1 0.475 0 0 0.48 0 0.02 0.48 0 0.04 0.48 0 0.06 0.48 0 0.08 0.48 0 0.1 0.48 0 0 0.485 0 0.02 0.485 0 0.04 0.485 0 0.06 0.485 0 0.08 0.485 0 0.1 0.485 0 0 0.49 0 0.02 0.49 0 0.04 0.49 0 0.06 0.49 0 0.08 0.49 0 0.1 0.49 0 0 0.495 0 0.02 0.495 0 0.04 0.495 0 0.06 0.495 0 0.08 0.495 0 0.1 0.495 0 0 0.5 0 0.02 0.5 0 0.04 0.5 0 0.06 0.5 0 0.08 0.5 0 0.1 0.5 0 0 0.505 0 0.02 0.505 0 0.04 0.505 0 0.06 0.505 0 0.08 0.505 0 0.1 0.505 0 0 0.51 0 0.02 0.51 0 0.04 0.51 0 0.06 0.51 0 0.08 0.51 0 0.1 0.51 0 0 0.515 0 0.02 0.515 0 0.04 0.515 0 0.06 0.515 0 0.08 0.515 0 0.1 0.515 0 0 0.52 0 0.02 0.52 0 0.04 0.52 0 0.06 0.52 0 0.08 0.52 0 0.1 0.52 0 0 0.525 0 0.02 0.525 0 0.04 0.525 0 0.06 0.525 0 0.08 0.525 0 0.1 0.525 0 0 0.53 0 0.02 0.53 0 0.04 0.53 0 0.06 0.53 0 0.08 0.53 0 0.1 0.53 0 0 0.535 0 0.02 0.535 0 0.04 0.535 0 0.06 0.535 0 0.08 0.535 0 0.1 0.535 0 0 0.54 0 0.02 0.54 0 0.04 0.54 0 0.06 0.54 0 0.08 0.54 0 0.1 0.54 0 0 0.545 0 0.02 0.545 0 0.04 0.545 0 0.06 0.545 0 0.08 0.545 0 0.1 0.545 0 0 0.55 0 0.02 0.55 0 0.04 0.55 0 0.06 0.55 0 0.08 0.55 0 0.1 0.55 0 0 0.555 0 0.02 0.555 0 0.04 0.555 0 0.06 0.555 0 0.08 0.555 0 0.1 0.555 0 0 0.56 0 0.02 0.56 0 0.04 0.56 0 0.06 0.56 0 0.08 0.56 0 0.1 0.56 0 0 0.565 0 0.02 0.565 0 0.04 0.565 0 0.06 0.565 0 0.08 0.565 0 0.1 0.565 0 0 0.57 0 0.02 0.57 0 0.04 0.57 0 0.06 0.57 0 0.08 0.57 0 0.1 0.57 0 0 0.575 0 0.02 0.575 0 0.04 0.575 0 0.06 0.575 0 0.08 0.575 0 0.1 0.575 0 0 0.58 0 0.02 0.58 0 0.04 0.58 0 0.06 0.58 0 0.08 0.58 0 0.1 0.58 0 0 0.585 0 0.02 0.585 0 0.04 0.585 0 0.06 0.585 0 0.08 0.585 0 0.1 0.585 0 0 0.59 0 0.02 0.59 0 0.04 0.59 0 0.06 0.59 0 0.08 0.59 0 0.1 0.59 0 0 0.595 0 0.02 0.595 0 0.04 0.595 0 0.06 0.595 0 0.08 0.595 0 0.1 0.595 0 0 0.6 0 0.02 0.6 0 0.04 0.6 0 0.06 0.6 0 0.08 0.6 0 0.1 0.6 0 0 0.605 0 0.02 0.605 0 0.04 0.605 0 0.06 0.605 0 0.08 0.605 0 0.1 0.605 0 0 0.61 0 0.02 0.61 0 0.04 0.61 0 0.06 0.61 0 0.08 0.61 0 0.1 0.61 0 0 0.615 0 0.02 0.615 0 0.04 0.615 0 0.06 0.615 0 0.08 0.615 0 0.1 0.615 0 0 0.62 0 0.02 0.62 0 0.04 0.62 0 0.06 0.62 0 0.08 0.62 0 0.1 0.62 0 0 0.625 0 0.02 0.625 0 0.04 0.625 0 0.06 0.625 0 0.08 0.625 0 0.1 0.625 0 0 0.63 0 0.02 0.63 0 0.04 0.63 0 0.06 0.63 0 0.08 0.63 0 0.1 0.63 0 0 0.635 0 0.02 0.635 0 0.04 0.635 0 0.06 0.635 0 0.08 0.635 0 0.1 0.635 0 0 0.64 0 0.02 0.64 0 0.04 0.64 0 0.06 0.64 0 0.08 0.64 0 0.1 0.64 0 0 0.645 0 0.02 0.645 0 0.04 0.645 0 0.06 0.645 0 0.08 0.645 0 0.1 0.645 0 0 0.65 0 0.02 0.65 0 0.04 0.65 0 0.06 0.65 0 0.08 0.65 0 0.1 0.65 0 0 0.655 0 0.02 0.655 0 0.04 0.655 0 0.06 0.655 0 0.08 0.655 0 0.1 0.655 0 0 0.66 0 0.02 0.66 0 0.04 0.66 0 0.06 0.66 0 0.08 0.66 0 0.1 0.66 0 0 0.665 0 0.02 0.665 0 0.04 0.665 0 0.06 0.665 0 0.08 0.665 0 0.1 0.665 0 0 0.67 0 0.02 0.67 0 0.04 0.67 0 0.06 0.67 0 0.08 0.67 0 0.1 0.67 0 0 0.675 0 0.02 0.675 0 0.04 0.675 0 0.06 0.675 0 0.08 0.675 0 0.1 0.675 0 0 0.68 0 0.02 0.68 0 0.04 0.68 0 0.06 0.68 0 0.08 0.68 0 0.1 0.68 0 0 0.685 0 0.02 0.685 0 0.04 0.685 0 0.06 0.685 0 0.08 0.685 0 0.1 0.685 0 0 0.69 0 0.02 0.69 0 0.04 0.69 0 0.06 0.69 0 0.08 0.69 0 0.1 
[...]
			<PointData Scalars="VitesseX">
				<DataArray Name="VitesseX" type="Float32" format="ascii">
 0 5.20543e-15 -1.49149e-14 1.62151e-14 -1.59382e-14 0 0 2.1093e-15 -6.94746e-15 9.33177e-15 -1.32125e-14 0 0 -9.90046e-16 5.42717e-15 -3.03748e-15 -7.5306e-15 0 0 6.58463e-15 -1.85565e-15 5.12018e-15 -1.4977e-14 0 0 3.43938e-15 6.32806e-15 -7.37006e-15 -7.20486e-15 0 0 -4.79708e-15 2.21607e-14 -3.24512e-14 8.19142e-15 0 0 7.52055e-15 -2.38083e-16 -8.04128e-15 -1.3863e-14 0 0 1.50071e-14 -1.67761e-14 7.1279e-15 -2.61062e-14 0 0 5.17538e-15 -4.05804e-15 -1.38185e-14 -8.55427e-15 0 0 7.46231e-15 -9.14951e-15 -7.17125e-15 -1.54489e-14 0 0 1.03752e-14 -1.35911e-14 1.16529e-16 -2.56062e-14 0 0 -4.72055e-15 1.05252e-14 -3.73362e-14 2.36097e-15 0 0 1.37338e-14 -3.41282e-14 7.67405e-15 -2.13293e-14 0 0 5.20801e-15 -3.6436e-14 2.29713e-14 -3.09937e-14 0 0 -3.55877e-14 2.10093e-14 -3.45133e-14 1.21502e-14 0 0 -5.18881e-15 -1.96554e-14 6.05818e-15 -2.31744e-14 0 0 -5.58053e-15 -3.58057e-15 -1.46759e-14 -2.71071e-14 0 0 -1.39691e-14 7.3387e-15 -2.18457e-14 -2.36924e-14 0 0 6.1989e-15 -2.21593e-14 -4.10453e-15 -1.25984e-14 0 0 -1.63124e-14 -4.83567e-15 1.00919e-15 -7.23173e-15 0 0 -2.23329e-14 -1.08726e-14 4.68739e-14 -4.93671e-14 0 0 -2.20484e-14 2.39191e-14 -6.94241e-16 -2.08073e-14 0 0 -2.05074e-14 4.02841e-14 -3.03855e-14 6.98567e-16 0 0 -2.48456e-14 4.21073e-14 -3.13388e-14 8.54508e-15 0 0 1.30347e-14 -2.0268e-14 3.55417e-14 -2.88553e-14 0 0 6.16949e-14 -1.12464e-13 1.31819e-13 -9.34529e-14 0 0 -5.12003e-14 4.67305e-14 -1.80156e-14 -5.97047e-15 0 0 -8.965e-14 9.11757e-14 -5.35094e-14 -2.78459e-16 0 0 1.94019e-14 -9.65948e-14 1.07973e-13 -9.91899e-14 0 0 7.28214e-15 -7.66452e-14 4.45866e-14 -3.43415e-14 0 0 -2.16165e-14 -2.88624e-14 -1.79269e-14 2.06432e-15 0 0 -3.27199e-14 -3.49129e-14 7.16189e-15 -3.63327e-14 0 0 -3.50981e-14 -4.15631e-14 5.91895e-15 -2.85537e-14 0 0 -2.33998e-14 -3.30429e-14 -5.29276e-14 3.81685e-14 0 0 -1.19947e-14 -1.90016e-14 -1.05281e-13 9.39182e-14 0 0 1.04598e-14 -4.52632e-14 -7.14723e-14 6.87527e-14 0 0 3.7917e-14 -1.05669e-13 4.72691e-14 -4.51798e-14 0 0 3.08056e-14 -9.66741e-14 4.50039e-14 -6.43778e-14 0 0 -2.98542e-14 2.49223e-14 -7.73583e-14 -1.91232e-14 0 0 -1.8376e-14 3.78717e-14 -7.99996e-14 -4.70014e-14 0 0 7.97511e-17 3.70324e-14 -1.07083e-13 -2.84876e-14 0 0 -1.37627e-15 2.87471e-14 -6.8052e-14 -6.82695e-14 0 0 -2.18536e-14 3.41246e-14 -3.29077e-14 -9.38045e-14 0 0 7.37137e-15 -9.00365e-15 -2.45372e-14 -6.69266e-14 0 0 -4.99965e-16 -3.85937e-15 -3.94843e-14 -3.81714e-14 0 0 -2.26829e-14 2.53287e-14 -1.13065e-14 -9.23461e-14 0 0 3.00442e-14 -7.53052e-14 1.53493e-13 -2.22339e-13 0 0 1.2901e-14 -6.42265e-14 1.66682e-13 -1.85942e-13 0 0 1.60708e-16 3.18356e-14 3.9241e-14 -4.30224e-14 0 0 -2.06349e-14 1.64902e-13 -1.19346e-13 8.40454e-14 0 0 -7.25169e-14 2.352e-13 -1.27893e-13 8.88043e-14 0 0 -5.35255e-14 1.58868e-13 -1.40673e-14 1.86468e-14 0 0 -7.36454e-14 9.97337e-14 5.37034e-14 -5.52868e-15 0 0 -1.47184e-13 1.64961e-13 9.56248e-15 7.85251e-15 0 0 -8.4814e-14 8.98336e-14 5.04084e-14 -5.19708e-14 0 0 -3.07309e-14 2.47395e-14 6.20518e-14 -7.69587e-14 0 0 9.64845e-15 3.47227e-14 -3.17844e-14 -2.89071e-14 0 0 -1.13916e-14 9.82714e-15 -5.50334e-14 -9.31688e-14 0 0 -1.30442e-13 -8.28183e-14 -3.27331e-13 -1.25954e-13 0 0 -5.56574e-13 -8.36595e-13 -1.12011e-12 -5.13196e-13 0 0 -2.36242e-12 -4.09207e-12 -3.9249e-12 -2.48129e-12 0 0 -9.33288e-12 -1.52414e-11 -1.51002e-11 -9.39013e-12 0 0 -3.20571e-11 -5.1787e-11 -5.19644e-11 -3.20658e-11 0 0 -9.84838e-11 -1.5939e-10 -1.59735e-10 -9.85876e-11 0 0 -2.7402e-10 -4.43485e-10 -4.43967e-10 -2.7427e-10 0 0 -6.96991e-10 -1.12829e-09 -1.12851e-09 -6.9767e-10 0 0 -1.64659e-09 -2.66455e-09 -2.66521e-09 -1.64732e-09 0 0 -3.67494e-09 -5.94667e-09 -5.94783e-09 -3.67615e-09 0 0 -7.8776e-09 -1.27479e-08 -1.27496e-08 -7.8808e-09 0 0 -1.64362e-08 -2.65983e-08 -2.66034e-08 -1.64446e-08 0 0 -3.37017e-08 -5.45432e-08 -5.456e-08 -3.37283e-08 0 0 -6.75538e-08 -1.09352e-07 -1.09412e-07 -6.76502e-08 0 0 -1.28127e-07 -2.07476e-07 -2.07678e-07 -1.28453e-07 0 0 -2.27138e-07 -3.67987e-07 -3.68569e-07 -2.28079e-07 0 0 -3.7984e-07 -6.15784e-07 -6.17256e-07 -3.82221e-07 0 0 -6.05637e-07 -9.82644e-07 -9.85984e-07 -6.11042e-07 0 0 -9.28465e-07 -1.50791e-06 -1.51485e-06 -9.39704e-07 0 0 -1.37735e-06 -2.23946e-06 -2.25288e-06 -1.39906e-06 0 0 -1.98644e-06 -3.2339e-06 -3.25834e-06 -2.02606e-06 0 0 -2.79487e-06 -4.5561e-06 -4.59794e-06 -2.8623e-06 0 0 -3.84553e-06 -6.27864e-06 -6.34934e-06 -3.9606e-06 0 0 -5.18435e-06 -8.47544e-06 -8.57711e-06 -5.34863e-06 0 0 -6.85887e-06 -1.12322e-05 -1.14249e-05 -7.16234e-06 0 0 -8.9052e-06 -1.46075e-05 -1.47606e-05 -9.20421e-06 0 0 -1.1399e-05 -1.86792e-05 -1.92146e-05 -1.20751e-05 0 0 -1.42617e-05 -2.35543e-05 -2.36644e-05 -1.4842e-05 0 0 -1.77773e-05 -2.89496e-05 -2.98911e-05 -1.87456e-05 0 0 -2.14525e-05 -3.57042e-05 -3.61012e-05 -2.26324e-05 0 0 -2.60378e-05 -4.231e-05 -4.31488e-05 -2.71587e-05 0 0 -3.05592e-05 -5.04011e-05 -5.14017e-05 -3.22065e-05 0 0 -3.59309e-05 -5.88243e-05 -5.95126e-05 -3.71111e-05 0 0 -4.1266e-05 -6.71438e-05 -6.77589e-05 -4.21965e-05 0 0 -4.70282e-05 -7.61157e-05 -7.62353e-05 -4.7212e-05 0 0 -5.28406e-05 -8.50078e-05 -8.44099e-05 -5.18823e-05 0 0 -5.85243e-05 -9.34399e-05 -9.17742e-05 -5.58614e-05 0 0 -6.39677e-05 -0.000101036 -9.78647e-05 -5.88563e-05 0 0 -6.90636e-05 -0.00010755 -0.000102384 -6.06685e-05 0 0 -7.36314e-05 -0.000112795 -0.000105129 -6.14936e-05 0 0 -7.74343e-05 -0.000116506 -0.000106403 -6.03832e-05 0 0 -8.02542e-05 -0.000118705 -0.000104666 -5.76303e-05 0 0 -8.1966e-05 -0.000117958 -0.000100447 -5.31374e-05 0 0 -8.24534e-05 -0.00011558 -9.33213e-05 -4.663e-05 0 0 -8.12988e-05 -0.000110242 -8.43146e-05 -3.88647e-05 0 0 -7.85702e-05 -0.000103045 -7.36653e-05 -3.12832e-05 0 0 -7.35811e-05 -9.3388e-05 -6.38526e-05 -2.50095e-05 0 0 -6.61141e-05 -8.27974e-05 -5.3563e-05 -2.05917e-05 0 0 -5.45607e-05 -7.24672e-05 -5.18605e-05 -2.25701e-05 0 0 -4.37302e-05 -6.04301e-05 -5.41838e-05 -2.81052e-05 0 0 -3.53691e-05 -5.99071e-05 -6.1171e-05 -3.92086e-05 0 0 -2.8199e-05 -6.24237e-05 -7.584e-05 -5.64367e-05 0 0 -2.76589e-05 -7.04653e-05 -9.90126e-05 -7.35365e-05 0 0 -2.88698e-05 -7.98348e-05 -0.00012311 -9.22169e-05 0 0 -3.24203e-05 -9.47666e-05 -0.000145148 -0.00011385 0 0 -4.08372e-05 -0.000119807 -0.000175312 -0.000135969 0 0 -5.25443e-05 -0.000151763 -0.000213087 -0.000157672 0 0 -6.38185e-05 -0.00018516 -0.000251708 -0.000177937 0 0 -7.51332e-05 -0.000217411 -0.00028852 -0.00019516 0 0 -9.71826e-05 -0.000243514 -0.000320266 -0.000206574 0 0 -0.000135859 -0.000272516 -0.000345264 -0.000223398 0 0 -0.000185801 -0.000336653 -0.000377288 -0.00025626 0 0 -0.000238757 -0.000431705 -0.000440388 -0.000292962 0 0 -0.000289977 -0.00054398 -0.000547964 -0.000303148 0 0 -0.00033298 -0.000672814 -0.000678459 -0.000298881 0 0 -0.000397286 -0.000818356 -0.000774367 -0.000270817 0 0 -0.000539042 -0.000993314 -0.000777149 -0.000168829 0 0 -0.00073978 -0.00120853 -0.000758952 6.20829e-05 0 0 -0.000947551 -0.00143316 -0.000743255 0.000304077 0 0 -0.0010338 -0.00155261 -0.000736913 0.000377631 0 0 -0.00101788 -0.00150678 -0.000695463 0.000315166 0 0 -0.000951731 -0.00130542 -0.000503161 5.86456e-05 0 0 -0.00082192 -0.00093065 -0.000406842 -0.000220744 0 0 -0.000724126 -0.000867502 -0.000466796 -0.000187245 0 0 -0.000638517 -0.000810184 -0.000466165 -0.000196241 0 0 -0.000179835 -0.000341995 -0.00034141 -0.000424598 0 0 0.00115913 0.00140581 0.000361456 -0.000546256 0 0 0.00165032 0.00257274 0.00133055 -0.000458063 0 0 0.00162358 0.00256225 0.00157608 -0.000121744 0 0 0.00150568 0.00238758 0.00155726 0.000320416 0 0 0.00128417 0.00196467 0.00144071 0.000521322 0 0 0.00107216 0.00155562 0.00120146 0.000528147 0 0 0.000886283 0.00121658 0.000980171 0.000518988 0 0 0.00073256 0.000969583 0.000803618 0.000477911 0 0 0.000610288 0.00080761 0.000682085 0.000426873 0 0 0.000519502 0.000706891 0.000607117 0.000381729 0 0 0.000454358 0.000640056 0.000561325 0.000343766 0 0 0.000402398 0.000587508 0.000530064 0.000313434 0 0 0.00035188 0.0005346 0.000498369 0.000288123 0 0 0.000302 0.000479797 0.000461601 0.00026488 0 0 0.000262492 0.000430656 0.00042475 0.000245873 0 0 0.000240447 0.000394667 0.000392222 0.000233031 0 0 0.000229881 0.000371629 0.000368034 0.000223649 0 0 0.000218205 0.000351612 0.000347994 0.000212429 0 0 0.000202147 0.000325743 0.000323091 0.000197803 0 0 0.000182121 0.000293454 0.000291431 0.000178837 0 0 0.000157354 0.000253538 0.000251977 0.000154831 0 0 0.000128099 0.000206409 0.000205241 0.000126212 0 0 9.62695e-05 0.000155146 0.000154338 9.49629e-05 0 0 6.51399e-05 0.000105008 0.000104515 6.43429e-05 0 0 3.87359e-05 6.24701e-05 6.22134e-05 3.83208e-05 0 0 1.98214e-05 3.19836e-05 3.18745e-05 1.96449e-05 0 0 8.70111e-06 1.40485e-05 1.40112e-05 8.64075e-06 0 0 3.37253e-06 5.44828e-06 5.43765e-06 3.35535e-06 0 0 1.20661e-06 1.95021e-06 1.94759e-06 1.20236e-06 0 0 4.14133e-07 6.69597e-07 6.68997e-07 4.13164e-07 0 0 1.39222e-07 2.25161e-07 2.2503e-07 1.39011e-07 0 0 4.62688e-08 7.48421e-08 7.48146e-08 4.62239e-08 0 0 1.5256e-08 2.46804e-08 2.46745e-08 1.52468e-08 0 0 4.99693e-09 8.08432e-09 8.08318e-09 4.9951e-09 0 0 1.62629e-09 2.63113e-09 2.6311e-09 1.62586e-09 0 0 5.25874e-10 8.5076e-10 8.50939e-10 5.25796e-10 0 0 1.68979e-10 2.73145e-10 2.73518e-10 1.69015e-10 0 0 5.39528e-11 8.70905e-11 8.73638e-11 5.41153e-11 0 0 1.70685e-11 2.76934e-11 2.76849e-11 1.73973e-11 0 0 5.36714e-12 8.74862e-12 8.88107e-12 5.62903e-12 0 0 1.72114e-12 2.69371e-12 3.10704e-12 1.82472e-12 0 0 4.993e-13 1.01239e-12 1.08218e-12 6.83127e-13 0 0 9.62087e-14 5.37688e-13 3.50314e-13 4.21784e-13 0 0 7.94154e-14 2.53802e-13 2.26188e-13 2.9747e-13 0 0 4.35046e-14 2.6139e-13 6.93327e-14 3.04033e-13 0 0 2.17619e-14 1.72848e-13 1.85304e-13 2.67792e-13 0 0 5.61032e-14 5.9536e-14 2.81035e-13 2.52915e-13 0 0 -3.97913e-14 3.28944e-13 -7.62601e-14 4.7574e-13 0 0 1.11555e-13 2.03985e-13 4.57797e-14 2.74545e-13 0 0 2.82172e-13 -3.0971e-14 2.87857e-13 -1.34698e-14 0 0 1.3696e-13 1.72794e-13 2.78042e-13 -2.59108e-13 0 0 2.8284e-15 3.18406e-13 2.50071e-13 -3.46975e-13 0 0 -3.61329e-14 3.87253e-13 1.2396e-13 -2.08663e-13 0 0 1.77135e-13 1.58356e-13 3.90321e-13 -4.55828e-13 0 0 3.78214e-13 -1.25675e-15 4.51587e-13 -5.45138e-13 0 0 1.44568e-13 3.69123e-13 -5.86226e-14 -1.30308e-13 0 0 9.01165e-14 3.55731e-13 -5.74278e-14 -4.82051e-15 0 0 1.86477e-13 1.54475e-13 1.87817e-13 -1.11387e-13 0 0 1.60216e-15 3.00995e-13 1.46556e-13 -1.52696e-13 0 0 -1.00713e-13 3.42347e-13 4.69542e-14 -9.7738e-14 0 0 -2.2105e-14 2.2952e-13 -1.29921e-13 1.60364e-13 0 0 7.74728e-14 5.91313e-14 -1.92563e-13 3.73145e-13 0 0 -4.44339e-14 1.84903e-13 -2.29881e-13 3.14594e-13 0 0 1.28994e-13 -1.5952e-13 2.24621e-13 -1.47364e-13 0 0 1.97863e-13 -3.06239e-13 3.06264e-13 -1.72572e-13 0 0 1.82705e-13 -2.00931e-13 6.88234e-15 1.58986e-13 0 0 3.99081e-13 -4.63977e-13 7.12092e-14 2.48303e-13 0
				</DataArray>
				<DataArray Name="VitesseY" type="Float32" format="ascii">