<?xml version="1.0"?>
<VTKFile type="PolyData">
	<PolyData>
		<Piece NumberOfPoints="1206" NumberOfPolys="1000">
			<Points>
				<DataArray type="Float32" NumberOfComponents="3" format="ascii">
 0 0 0 0.02 0 0 0.04 0 0 0.06 0 0 0.08 0 0 0.1 0 0 0 0.005 0 0.02 0.005 0 0.04 0.005 0 0.06 0.005 0 0.08 0.005 0 0.1 0.005 0 0 0.01 0 0.02 0.01 0 0.04 0.01 0 0.06 0.01 0 0.08 0.01 0 0.1 0.01 0 0 0.015 0 0.02 0.015 0 0.04 0.015 0 0.06 0.015 0 0.08 0.015 0 0.1 0.015 0 0 0.02 0 0.02 0.02 0 0.04 0.02 0 0.06 0.02 0 0.08 0.02 0 0.1 0.02 0 0 0.025 0 0.02 0.025 0 0.04 0.025 0 0.06 0.025 0 0.08 0.025 0 0.1 0.025 0 0 0.03 0 0.02 0.03 0 0.04 0.03 0 0.06 0.03 0 0.08 0.03 0 0.1 0.03 0 0 0.035 0 0.02 0.035 0 0.04 0.035 0 0.06 0.035 0 0.08 0.035 0 0.1 0.035 0 0 0.04 0 0.02 0.04 0 0.04 0.04 0 0.06 0.04 0 0.08 0.04 0 0.1 0.04 0 0 0.045 0 0.02 0.045 0 0.04 0.045 0 0.06 0.045 0 0.08 0.045 0 0.1 0.045 0 0 0.05 0 0.02 0.05 0 0.04 0.05 0 0.06 0.05 0 0.08 0.05 0 0.1 0.05 0 0 0.055 0 0.02 0.055 0 0.04 0.055 0 0.06 0.055 0 0.08 0.055 0 0.1 0.055 0 0 0.06 0 0.02 0.06 0 0.04 0.06 0 0.06 0.06 0 0.08 0.06 0 0.1 0.06 0 0 0.065 0 0.02 0.065 0 0.04 0.065 0 0.06 0.065 0 0.08 0.065 0 0.1 0.065 0 0 0.07 0 0.02 0.07 0 0.04 0.07 0 0.06 0.07 0 0.08 0.07 0 0.1 0.07 0 0 0.075 0 0.02 0.075 0 0.04 0.075 0 0.06 0.075 0 0.08 0.075 0 0.1 0.075 0 0 0.08 0 0.02 0.08 0 0.04 0.08 0 0.06 0.08 0 0.08 0.08 0 0.1 0.08 0 0 0.085 0 0.02 0.085 0 0.04 0.085 0 0.06 0.085 0 0.08 0.085 0 0.1 0.085 0 0 0.09 0 0.02 0.09 0 0.04 0.09 0 0.06 0.09 0 0.08 0.09 0 0.1 0.09 0 0 0.095 0 0.02 0.095 0 0.04 0.095 0 0.06 0.095 0 0.08 0.095 0 0.1 0.095 0 0 0.1 0 0.02 0.1 0 0.04 0.1 0 0.06 0.1 0 0.08 0.1 0 0.1 0.1 0 0 0.105 0 0.02 0.105 0 0.04 0.105 0 0.06 0.105 0 0.08 0.105 0 0.1 0.105 0 0 0.11 0 0.02 0.11 0 0.04 0.11 0 0.06 0.11 0 0.08 0.11 0 0.1 0.11 0 0 0.115 0 0.02 0.115 0 0.04 0.115 0 0.06 0.115 0 0.08 0.115 0 0.1 0.115 0 0 0.12 0 0.02 0.12 0 0.04 0.12 0 0.06 0.12 0 0.08 0.12 0 0.1 0.12 0 0 0.125 0 0.02 0.125 0 0.04 0.125 0 0.06 0.125 0 0.08 0.125 0 0.1 0.125 0 0 0.13 0 0.02 0.13 0 0.04 0.13 0 0.06 0.13 0 0.08 0.13 0 0.1 0.13 0 0 0.135 0 0.02 0.135 0 0.04 0.135 0 0.06 0.135 0 0.08 0.135 0 0.1 0.135 0 0 0.14 0 0.02 0.14 0 0.04 0.14 0 0.06 0.14 0 0.08 0.14 0 0.1 0.14 0 0 0.145 0 0.02 0.145 0 0.04 0.145 0 0.06 0.145 0 0.08 0.145 0 0.1 0.145 0 0 0.15 0 0.02 0.15 0 0.04 0.15 0 0.06 0.15 0 0.08 0.15 0 0.1 0.15 0 0 0.155 0 0.02 0.155 0 0.04 0.155 0 0.06 0.155 0 0.08 0.155 0 0.1 0.155 0 0 0.16 0 0.02 0.16 0 0.04 0.16 0 0.06 0.16 0 0.08 0.16 0 0.1 0.16 0 0 0.165 0 0.02 0.165 0 0.04 0.165 0 0.06 0.165 0 0.08 0.165 0 0.1 0.165 0 0 0.17 0 0.02 0.17 0 0.04 0.17 0 0.06 0.17 0 0.08 0.17 0 0.1 0.17 0 0 0.175 0 0.02 0.175 0 0.04 0.175 0 0.06 0.175 0 0.08 0.175 0 0.1 0.175 0 0 0.18 0 0.02 0.18 0 0.04 0.18 0 0.06 0.18 0 0.08 0.18 0 0.1 0.18 0 0 0.185 0 0.02 0.185 0 0.04 0.185 0 0.06 0.185 0 0.08 0.185 0 0.1 0.185 0 0 0.19 0 0.02 0.19 0 0.04 0.19 0 0.06 0.19 0 0.08 0.19 0 0.1 0.19 0 0 0.195 0 0.02 0.195 0 0.04 0.195 0 0.06 0.195 0 0.08 0.195 0 0.1 0.195 0 0 0.2 0 0.02 0.2 0 0.04 0.2 0 0.06 0.2 0 0.08 0.2 0 0.1 0.2 0 0 0.205 0 0.02 0.205 0 0.04 0.205 0 0.06 0.205 0 0.08 0.205 0 0.1 0.205 0 0 0.21 0 0.02 0.21 0 0.04 0.21 0 0.06 0.21 0 0.08 0.21 0 0.1 0.21 0 0 0.215 0 0.02 0.215 0 0.04 0.215 0 0.06 0.215 0 0.08 0.215 0 0.1 0.215 0 0 0.22 0 0.02 0.22 0 0.04 0.22 0 0.06 0.22 0 0.08 0.22 0 0.1 0.22 0 0 0.225 0 0.02 0.225 0 0.04 0.225 0 0.06 0.225 0 0.08 0.225 0 0.1 0.225 0 0 0.23 0 0.02 0.23 0 0.04 0.23 0 0.06 0.23 0 0.08 0.23 0 0.1 0.23 0 0 0.235 0 0.02 0.235 0 0.04 0.235 0 0.06 0.235 0 0.08 0.235 0 0.1 0.235 0 0 0.24 0 0.02 0.24 0 0.04 0.24 0 0.06 0.24 0 0.08 0.24 0 0.1 0.24 0 0 0.245 0 0.02 0.245 0 0.04 0.245 0 0.06 0.245 0 0.08 0.245 0 0.1 0.245 0 0 0.25 0 0.02 0.25 0 0.04 0.25 0 0.06 0.25 0 0.08 0.25 0 0.1 0.25 0 0 0.255 0 0.02 0.255 0 0.04 0.255 0 0.06 0.255 0 0.08 0.255 0 0.1 0.255 0 0 0.26 0 0.02 0.26 0 0.04 0.26 0 0.06 0.26 0 0.08 0.26 0 0.1 0.26 0 0 0.265 0 0.02 0.265 0 0.04 0.265 0 0.06 0.265 0 0.08 0.265 0 0.1 0.265 0 0 0.27 0 0.02 0.27 0 0.04 0.27 0 0.06 0.27 0 0.08 0.27 0 0.1 0.27 0 0 0.275 0 0.02 0.275 0 0.04 0.275 0 0.06 0.275 0 0.08 0.275 0 0.1 0.275 0 0 0.28 0 0.02 0.28 0 0.04 0.28 0 0.06 0.28 0 0.08 0.28 0 0.1 0.28 0 0 0.285 0 0.02 0.285 0 0.04 0.285 0 0.06 0.285 0 0.08 0.285 0 0.1 0.285 0 0 0.29 0 0.02 0.29 0 0.04 0.29 0 0.06 0.29 0 0.08 0.29 0 0.1 0.29 0 0 0.295 0 0.02 0.295 0 0.04 0.295 0 0.06 0.295 0 0.08 0.295 0 0.1 0.295 0 0 0.3 0 0.02 0.3 0 0.04 0.3 0 0.06 0.3 0 0.08 0.3 0 0.1 0.3 0 0 0.305 0 0.02 0.305 0 0.04 0.305 0 0.06 0.305 0 0.08 0.305 0 0.1 0.305 0 0 0.31 0 0.02 0.31 0 0.04 0.31 0 0.06 0.31 0 0.08 0.31 0 0.1 0.31 0 0 0.315 0 0.02 0.315 0 0.04 0.315 0 0.06 0.315 0 0.08 0.315 0 0.1 0.315 0 0 0.32 0 0.02 0.32 0 0.04 0.32 0 0.06 0.32 0 0.08 0.32 0 0.1 0.32 0 0 0.325 0 0.02 0.325 0 0.04 0.325 0 0.06 0.325 0 0.08 0.325 0 0.1 0.325 0 0 0.33 0 0.02 0.33 0 0.04 0.33 0 0.06 0.33 0 0.08 0.33 0 0.1 0.33 0 0 0.335 0 0.02 0.335 0 0.04 0.335 0 0.06 0.335 0 0.08 0.335 0 0.1 0.335 0 0 0.34 0 0.02 0.34 0 0.04 0.34 0 0.06 0.34 0 0.08 0.34 0 0.1 0.34 0 0 0.345 0 0.02 0.345 0 0.04 0.345 0 0.06 0.345 0 0.08 0.345 0 0.1 0.345 0 0 0.35 0 0.02 0.35 0 0.04 0.35 0 0.06 0.35 0 0.08 0.35 0 0.1 0.35 0 0 0.355 0 0.02 0.355 0 0.04 0.355 0 0.06 0.355 0 0.08 0.355 0 0.1 0.355 0 0 0.36 0 0.02 0.36 0 0.04 0.36 0 0.06 0.36 0 0.08 0.36 0 0.1 0.36 0 0 0.365 0 0.02 0.365 0 0.04 0.365 0 0.06 0.365 0 0.08 0.365 0 0.1 0.365 0 0 0.37 0 0.02 0.37 0 0.04 0.37 0 0.06 0.37 0 0.08 0.37 0 0.1 0.37 0 0 0.375 0 0.02 0.375 0 0.04 0.375 0 0.06 0.375 0 0.08 0.375 0 0.1 0.375 0 0 0.38 0 0.02 0.38 0 0.04 0.38 0 0.06 0.38 0 0.08 0.38 0 0.1 0.38 0 0 0.385 0 0.02 0.385 0 0.04 0.385 0 0.06 0.385 0 0.08 0.385 0 0.1 0.385 0 0 0.39 0 0.02 0.39 0 0.04 0.39 0 0.06 0.39 0 0.08 0.39 0 0.1 0.39 0 0 0.395 0 0.02 0.395 0 0.04 0.395 0 0.06 0.395 0 0.08 0.395 0 0.1 0.395 0 0 0.4 0 0.02 0.4 0 0.04 0.4 0 0.06 0.4 0 0.08 0.4 0 0.1 0.4 0 0 0.405 0 0.02 0.405 0 0.04 0.405 0 0.06 0.405 0 0.08 0.405 0 0.1 0.405 0 0 0.41 0 0.02 0.41 0 0.04 0.41 0 0.06 0.41 0 0.08 0.41 0 0.1 0.41 0 0 0.415 0 0.02 0.415 0 0.04 0.415 0 0.06 0.415 0 0.08 0.415 0 0.1 0.415 0 0 0.42 0 0.02 0.42 0 0.04 0.42 0 0.06 0.42 0 0.08 0.42 0 0.1 0.42 0 0 0.425 0 0.02 0.425 0 0.04 0.425 0 0.06 0.425 0 0.08 0.425 0 0.1 0.425 0 0 0.43 0 0.02 0.43 0 0.04 0.43 0 0.06 0.43 0 0.08 0.43 0 0.1 0.43 0 0 0.435 0 0.02 0.435 0 0.04 0.435 0 0.06 0.435 0 0.08 0.435 0 0.1 0.435 0 0 0.44 0 0.02 0.44 0 0.04 0.44 0 0.06 0.44 0 0.08 0.44 0 0.1 0.44 0 0 0.445 0 0.02 0.445 0 0.04 0.445 0 0.06 0.445 0 0.08 0.445 0 0.1 0.445 0 0 0.45 0 0.02 0.45 0 0.04 0.45 0 0.06 0.45 0 0.08 0.45 0 0.1 0.45 0 0 0.455 0 0.02 0.455 0 0.04 0.455 0 0.06 0.455 0 0.08 0.455 0 0.1 0.455 0 0 0.46 0 0.02 0.46 0 0.04 0.46 0 0.06 0.46 0 0.08 0.46 0 0.1 0.46 0 0 0.465 0 0.02 0.465 0 0.04 0.465 0 0.06 0.465 0 0.08 0.465 0 0.1 0.465 0 0 0.47 0 0.02 0.47 0 0.04 0.47 0 0.06 0.47 0 0.08 0.47 0 0.1 0.47 0 0 0.475 0 0.02 0.475 0 0.04 0.475 0 0.06 0.475 0 0.08 0.475 0 0.1 0.475 0 0 0.48 0 0.02 0.48 0 0.04 0.48 0 0.06 0.48 0 0.08 0.48 0 0.1 0.48 0 0 0.485 0 0.02 0.485 0 0.04 0.485 0 0.06 0.485 0 0.08 0.485 0 0.1 0.485 0 0 0.49 0 0.02 0.49 0 0.04 0.49 0 0.06 0.49 0 0.08 0.49 0 0.1 0.49 0 0 0.495 0 0.02 0.495 0 0.04 0.495 0 0.06 0.495 0 0.08 0.495 0 0.1 0.495 0 0 0.5 0 0.02 0.5 0 0.04 0.5 0 0.06 0.5 0 0.08 0.5 0 0.1 0.5 0 0 0.505 0 0.02 0.505 0 0.04 0.505 0 0.06 0.505 0 0.08 0.505 0 0.1 0.505 0 0 0.51 0 0.02 0.51 0 0.04 0.51 0 0.06 0.51 0 0.08 0.51 0 0.1 0.51 0 0 0.515 0 0.02 0.515 0 0.04 0.515 0 0.06 0.515 0 0.08 0.515 0 0.1 0.515 0 0 0.52 0 0.02 0.52 0 0.04 0.52 0 0.06 0.52 0 0.08 0.52 0 0.1 0.52 0 0 0.525 0 0.02 0.525 0 0.04 0.525 0 0.06 0.525 0 0.08 0.525 0 0.1 0.525 0 0 0.53 0 0.02 0.53 0 0.04 0.53 0 0.06 0.53 0 0.08 0.53 0 0.1 0.53 0 0 0.535 0 0.02 0.535 0 0.04 0.535 0 0.06 0.535 0 0.08 0.535 0 0.1 0.535 0 0 0.54 0 0.02 0.54 0 0.04 0.54 0 0.06 0.54 0 0.08 0.54 0 0.1 0.54 0 0 0.545 0 0.02 0.545 0 0.04 0.545 0 0.06 0.545 0 0.08 0.545 0 0.1 0.545 0 0 0.55 0 0.02 0.55 0 0.04 0.55 0 0.06 0.55 0 0.08 0.55 0 0.1 0.55 0 0 0.555 0 0.02 0.555 0 0.04 0.555 0 0.06 0.555 0 0.08 0.555 0 0.1 0.555 0 0 0.56 0 0.02 0.56 0 0.04 0.56 0 0.06 0.56 0 0.08 0.56 0 0.1 0.56 0 0 0.565 0 0.02 0.565 0 0.04 0.565 0 0.06 0.565 0 0.08 0.565 0 0.1 0.565 0 0 0.57 0 0.02 0.57 0 0.04 0.57 0 0.06 0.57 0 0.08 0.57 0 0.1 0.57 0 0 0.575 0 0.02 0.575 0 0.04 0.575 0 0.06 0.575 0 0.08 0.575 0 0.1 0.575 0 0 0.58 0 0.02 0.58 0 0.04 0.58 0 0.06 0.58 0 0.08 0.58 0 0.1 0.58 0 0 0.585 0 0.02 0.585 0 0.04 0.585 0 0.06 0.585 0 0.08 0.585 0 0.1 0.585 0 0 0.59 0 0.02 0.59 0 0.04 0.59 0 0.06 0.59 0 0.08 0.59 0 0.1 0.59 0 0 0.595 0 0.02 0.595 0 0.04 0.595 0 0.06 0.595 0 0.08 0.595 0 0.1 0.595 0 0 0.6 0 0.02 0.6 0 0.04 0.6 0 0.06 0.6 0 0.08 0.6 0 0.1 0.6 0 0 0.605 0 0.02 0.605 0 0.04 0.605 0 0.06 0.605 0 0.08 0.605 0 0.1 0.605 0 0 0.61 0 0.02 0.61 0 0.04 0.61 0 0.06 0.61 0 0.08 0.61 0 0.1 0.61 0 0 0.615 0 0.02 0.615 0 0.04 0.615 0 0.06 0.615 0 0.08 0.615 0 0.1 0.615 0 0 0.62 0 0.02 0.62 0 0.04 0.62 0 0.06 0.62 0 0.08 0.62 0 0.1 0.62 0 0 0.625 0 0.02 0.625 0 0.04 0.625 0 0.06 0.625 0 0.08 0.625 0 0.1 0.625 0 0 0.63 0 0.02 0.63 0 0.04 0.63 0 0.06 0.63 0 0.08 0.63 0 0.1 0.63 0 0 0.635 0 0.02 0.635 0 0.04 0.635 0 0.06 0.635 0 0.08 0.635 0 0.1 0.635 0 0 0.64 0 0.02 0.64 0 0.04 0.64 0 0.06 0.64 0 0.08 0.64 0 0.1 0.64 0 0 0.645 0 0.02 0.645 0 0.04 0.645 0 0.06 0.645 0 0.08 0.645 0 0.1 0.645 0 0 0.65 0 0.02 0.65 0 0.04 0.65 0 0.06 0.65 0 0.08 0.65 0 0.1 0.65 0 0 0.655 0 0.02 0.655 0 0.04 0.655 0 0.06 0.655 0 0.08 0.655 0 0.1 0.655 0 0 0.66 0 0.02 0.66 0 0.04 0.66 0 0.06 0.66 0 0.08 0.66 0 0.1 0.66 0 0 0.665 0 0.02 0.665 0 0.04 0.665 0 0.06 0.665 0 0.08 0.665 0 0.1 0.665 0 0 0.67 0 0.02 0.67 0 0.04 0.67 0 0.06 0.67 0 0.08 0.67 0 0.1 0.67 0 0 0.675 0 0.02 0.675 0 0.04 0.675 0 0.06 0.675 0 0.08 0.675 0 0.1 0.675 0 0 0.68 0 0.02 0.68 0 0.04 0.68 0 0.06 0.68 0 0.08 0.68 0 0.1 0.68 0 0 0.685 0 0.02 0.685 0 0.04 0.685 0 0.06 0.685 0 0.08 0.685 0 0.1 0.685 0 0 0.69 0 0.02 0.69 0 0.04 0.69 0 0.06 0.69 0 0.08 0.69 0 0.1 
[...]
			<PointData Scalars="VitesseX">
				<DataArray Name="VitesseX" type="Float32" format="ascii">
 0 -1.20636e-14 -7.44143e-15 4.10142e-15 2.19025e-14 0 0 -1.02545e-14 -1.00946e-14 1.02908e-14 1.70925e-14 0 0 -9.05097e-15 -9.38886e-15 1.39975e-14 1.42492e-14 0 0 -1.27234e-14 2.15143e-15 5.86467e-15 1.93439e-14 0 0 -1.45569e-14 1.15314e-14 3.60914e-15 1.82334e-14 0 0 -1.13585e-15 -4.82815e-15 2.60109e-14 4.73971e-15 0 0 6.32674e-15 -1.91392e-14 4.74749e-14 -7.46114e-15 0 0 4.09459e-16 -1.18668e-14 4.86036e-14 -4.72678e-15 0 0 5.18089e-15 -7.97676e-15 4.1763e-14 8.42435e-15 0 0 2.621e-14 -1.81937e-14 4.11774e-14 1.77803e-14 0 0 1.76226e-14 1.5672e-14 -5.36203e-15 5.76553e-14 0 0 1.69886e-14 2.03797e-14 -1.26202e-14 6.43005e-14 0 0 2.33984e-14 -1.55405e-15 3.49149e-14 1.88843e-14 0 0 -7.55167e-15 3.81155e-14 1.85861e-14 4.61768e-15 0 0 -1.03145e-15 4.36966e-14 -1.32978e-15 1.50049e-14 0 0 2.30392e-14 1.33068e-14 2.81553e-14 -1.1964e-14 0 0 1.44796e-15 3.04283e-14 2.54277e-14 -2.24507e-14 0 0 -8.46135e-15 3.45688e-14 1.36815e-14 -2.52478e-15 0 0 2.07258e-14 -1.30617e-14 4.85819e-14 -2.25129e-14 0 0 4.16519e-14 -4.68918e-14 6.50587e-14 -4.46695e-14 0 0 1.81953e-14 -2.25671e-14 3.12017e-14 -2.52447e-14 0 0 -2.32738e-14 2.71849e-14 -4.60886e-14 4.24645e-14 0 0 1.67468e-15 -6.34247e-15 -6.44713e-14 9.25936e-14 0 0 -8.06893e-15 1.68015e-14 -9.54858e-14 1.31415e-13 0 0 -3.05896e-14 3.05172e-14 -6.96834e-14 1.0238e-13 0 0 -3.11789e-14 5.1176e-15 -8.83038e-15 5.57944e-14 0 0 -4.24045e-14 1.22854e-14 4.58232e-15 3.49504e-14 0 0 -1.09313e-14 -4.52991e-14 5.67476e-14 1.74195e-14 0 0 3.34963e-14 -1.07227e-13 8.86444e-14 3.38137e-14 0 0 -7.23682e-15 -3.62086e-14 3.40443e-14 5.92698e-14 0 0 -5.27228e-14 4.73316e-14 -1.50248e-14 7.55371e-14 0 0 -3.2907e-14 4.65915e-14 2.53134e-15 4.84637e-14 0 0 -1.79814e-14 1.87111e-14 5.37433e-14 4.24945e-15 0 0 3.54023e-14 -4.9841e-14 1.06318e-13 -1.73812e-14 0 0 3.00444e-14 -3.1577e-14 8.70001e-14 -6.50039e-15 0 0 7.3132e-15 -1.94879e-14 7.97637e-14 1.85705e-14 0 0 -1.03928e-14 2.51423e-14 1.38404e-14 8.86009e-14 0 0 -5.51499e-15 1.57057e-14 4.728e-14 5.68614e-14 0 0 -3.57363e-14 4.5518e-14 4.14806e-14 3.09119e-14 0 0 6.82607e-17 -1.33562e-14 9.56768e-14 -2.1569e-14 0 0 2.09164e-14 -4.88668e-14 1.6957e-13 -1.02172e-13 0 0 -9.00481e-14 1.518e-13 -4.02224e-15 -1.72471e-14 0 0 1.6875e-14 3.64497e-14 9.41283e-14 -5.81435e-14 0 0 1.26151e-13 -1.00147e-13 2.2074e-13 -1.02328e-13 0 0 1.27877e-14 3.86156e-14 9.87213e-14 -2.70933e-14 0 0 -3.75752e-14 1.12566e-13 -1.381e-14 4.22871e-14 0 0 -2.04913e-14 1.5735e-13 -1.61163e-13 1.98498e-13 0 0 3.38441e-14 1.15841e-13 -1.9034e-13 2.84341e-13 0 0 1.55966e-13 -6.66289e-14 5.793e-15 1.40982e-13 0 0 2.30987e-13 -2.30668e-13 2.25672e-13 -3.19021e-14 0 0 2.1647e-13 -2.46922e-13 2.78348e-13 -8.82904e-14 0 0 1.63856e-13 -1.20897e-13 1.41284e-13 -3.91698e-14 0 0 1.58594e-13 -3.97178e-14 1.13153e-14 3.44789e-14 0 0 2.116e-13 -5.33948e-14 -3.51057e-14 1.00948e-13 0 0 2.4761e-13 -1.26768e-13 6.11932e-14 5.14495e-14 0 0 1.78509e-13 -1.06409e-13 1.50006e-13 -3.33737e-14 0 0 1.70901e-13 -5.08586e-14 1.18233e-13 2.78346e-14 0 0 1.95168e-13 -2.95454e-14 1.47796e-13 2.58061e-14 0 0 1.67592e-13 -4.23429e-14 2.52468e-13 -2.34336e-14 0 0 9.25883e-14 3.93132e-14 1.90526e-13 1.03204e-13 0 0 -3.53099e-14 1.95607e-13 7.56426e-14 2.13902e-13 0 0 2.62048e-14 1.08906e-13 1.85336e-13 1.42226e-13 0 0 1.5425e-13 -6.57513e-14 3.6816e-13 8.28899e-15 0 0 9.72832e-14 7.53077e-15 2.9475e-13 1.00787e-15 0 0 8.66596e-14 6.59e-15 2.8688e-13 -2.10986e-14 0 0 3.66588e-14 4.49231e-14 2.68505e-13 1.75899e-14 0 0 -1.37953e-13 2.52862e-13 1.32986e-13 1.39018e-13 0 0 -4.28153e-14 6.13154e-14 2.91399e-13 9.56493e-14 0 0 6.07401e-14 -1.5621e-14 2.38505e-13 1.30053e-13 0 0 8.37003e-14 3.60781e-14 1.26379e-13 1.3226e-13 0 0 2.69502e-13 -1.73369e-13 2.52685e-13 -1.78701e-15 0 0 3.32495e-13 -7.66497e-14 9.76787e-14 5.70282e-14 0 0 2.62453e-13 9.72826e-14 -1.96623e-14 1.03109e-13 0 0 1.89948e-13 1.32084e-13 -2.57986e-14 1.24751e-13 0 0 3.1842e-13 -5.55714e-14 5.84899e-14 1.84127e-13 0 0 4.17074e-13 -1.14537e-13 1.71635e-13 1.81169e-13 0 0 2.18118e-13 2.13082e-13 4.29176e-14 1.07433e-13 0 0 1.89746e-13 2.81261e-13 6.7665e-15 2.59619e-14 0 0 3.63934e-13 1.49441e-13 -3.03821e-14 3.35364e-14 0 0 5.98651e-13 -5.14301e-14 1.93098e-13 3.47787e-14 0 0 8.52609e-13 4.455e-14 7.53378e-13 1.58073e-13 0 0 1.30084e-12 1.1269e-12 1.59472e-12 8.29775e-13 0 0 2.82175e-12 4.37561e-12 4.24002e-12 2.81744e-12 0 0 7.41191e-12 1.24594e-11 1.20576e-11 7.87809e-12 0 0 1.86685e-11 3.10846e-11 3.11277e-11 1.97005e-11 0 0 4.15856e-11 6.88593e-11 7.02135e-11 4.40193e-11 0 0 7.54312e-11 1.26149e-10 1.30357e-10 8.26041e-11 0 0 5.19388e-11 9.74431e-11 1.14492e-10 7.94422e-11 0 0 -2.45195e-10 -3.64542e-10 -3.24317e-10 -1.80578e-10 0 0 -1.54588e-09 -2.42414e-09 -2.32779e-09 -1.39042e-09 0 0 -5.81864e-09 -9.25796e-09 -9.06298e-09 -5.50353e-09 0 0 -1.78347e-08 -2.86341e-08 -2.83571e-08 -1.73865e-08 0 0 -4.80111e-08 -7.76881e-08 -7.76908e-08 -4.80148e-08 0 0 -1.17128e-07 -1.91065e-07 -1.92966e-07 -1.20203e-07 0 0 -2.63232e-07 -4.33468e-07 -4.42463e-07 -2.77983e-07 0 0 -5.6358e-07 -9.1617e-07 -9.52489e-07 -6.00517e-07 0 0 -1.07532e-06 -1.88176e-06 -1.91651e-06 -1.25761e-06 0 0 -2.10207e-06 -3.45492e-06 -3.8146e-06 -2.34234e-06 0 0 -3.71879e-06 -6.28318e-06 -6.54014e-06 -4.63653e-06 0 0 -5.7855e-06 -1.10979e-05 -1.23969e-05 -7.55815e-06 0 0 -1.01753e-05 -1.65622e-05 -1.88156e-05 -1.3227e-05 0 0 -1.44831e-05 -2.76359e-05 -3.08186e-05 -2.07146e-05 0 0 -2.18592e-05 -4.07906e-05 -4.67739e-05 -3.19299e-05 0 0 -3.11528e-05 -5.61217e-05 -6.53548e-05 -4.47035e-05 0 0 -4.17292e-05 -7.7092e-05 -8.92544e-05 -6.06996e-05 0 0 -5.76839e-05 -0.000103255 -0.000114229 -7.61405e-05 0 0 -7.48168e-05 -0.000129279 -0.000137496 -8.92946e-05 0 0 -9.29743e-05 -0.000154206 -0.00015818 -9.96817e-05 0 0 -0.000111718 -0.000178714 -0.000176794 -0.000107801 0 0 -0.000129979 -0.000203374 -0.000193841 -0.000114666 0 0 -0.000147457 -0.000228131 -0.00020911 -0.000121469 0 0 -0.00016477 -0.000252084 -0.000226339 -0.000128285 0 0 -0.000182108 -0.000274181 -0.000247556 -0.000134542 0 0 -0.000197476 -0.000292273 -0.000269127 -0.00013903 0 0 -0.000212652 -0.000317153 -0.000288043 -0.000147435 0 0 -0.000245504 -0.000373775 -0.000318699 -0.000160588 0 0 -0.000307122 -0.000463367 -0.000363149 -0.000163959 0 0 -0.000381109 -0.000548694 -0.000409991 -0.000161312 0 0 -0.000460035 -0.000655656 -0.000471642 -0.000146624 0 0 -0.000539377 -0.000848395 -0.000566638 -8.91894e-05 0 0 -0.000615392 -0.00112093 -0.00069 0.000107245 0 0 -0.000637578 -0.00134438 -0.000794954 0.000321183 0 0 -0.00062679 -0.00132732 -0.000783565 0.000328834 0 0 -0.000589632 -0.0012104 -0.000700463 0.000281364 0 0 -0.000490921 -0.00089778 -0.000528697 0.00013415 0 0 -0.000371513 -0.000617889 -0.000400696 2.64164e-05 0 0 -0.00028858 -0.000394039 -0.000299181 -0.000161121 0 0 -7.37401e-05 0.000327939 4.924e-05 -0.000559725 0 0 0.000436041 0.00113966 0.000713677 -0.0005029 0 0 0.000563945 0.00115987 0.000875538 -6.70561e-05 0 0 0.0005476 0.0010456 0.000855089 0.000304635 0 0 0.00048439 0.000854001 0.000766079 0.000341883 0 0 0.000411423 0.000689594 0.000649793 0.000340869 0 0 0.000349936 0.000567473 0.000549407 0.000321949 0 0 0.000305804 0.000488791 0.000474837 0.000285842 0 0 0.000278169 0.000444017 0.000428242 0.000256166 0 0 0.000258495 0.00041414 0.000399263 0.000236511 0 0 0.000239523 0.000383685 0.000374296 0.000223241 0 0 0.000220866 0.000353251 0.000348783 0.000211891 0 0 0.000204799 0.000327646 0.000325207 0.000199645 0 0 0.000190661 0.000305887 0.000303449 0.000186306 0 0 0.000174135 0.000280059 0.000278004 0.000170759 0 0 0.000153981 0.000248148 0.00024683 0.000151842 0 0 0.000130136 0.000210118 0.000209478 0.000129102 0 0 0.000103444 0.000167297 0.000167142 0.000103193 0 0 7.57862e-05 0.00012274 0.000122852 7.59683e-05 0 0 4.99026e-05 8.09019e-05 8.10861e-05 5.02013e-05 0 0 2.88992e-05 4.68728e-05 4.70099e-05 2.91211e-05 0 0 1.43344e-05 2.32513e-05 2.33222e-05 1.44492e-05 0 0 6.02574e-06 9.77197e-06 9.79925e-06 6.06989e-06 0 0 2.19762e-06 3.56261e-06 3.57099e-06 2.21118e-06 0 0 7.25428e-07 1.17556e-06 1.17778e-06 7.29014e-07 0 0 2.26326e-07 3.66638e-07 3.67175e-07 2.27195e-07 0 0 6.83607e-08 1.10709e-07 1.10833e-07 6.85598e-08 0 0 2.02066e-08 3.27171e-08 3.27441e-08 2.02506e-08 0 0 5.86982e-09 9.50259e-09 9.50817e-09 5.87936e-09 0 0 1.67838e-09 2.71652e-09 2.71801e-09 1.68017e-09 0 0 4.72774e-10 7.64677e-10 7.65448e-10 4.72851e-10 0 0 1.31226e-10 2.12216e-10 2.1245e-10 1.31212e-10 0 0 3.58741e-11 5.83682e-11 5.82077e-11 3.59955e-11 0 0 9.84515e-12 1.60407e-11 1.59524e-11 9.80765e-12 0 0 2.97306e-12 4.3774e-12 4.86101e-12 2.47315e-12 0 0 1.05966e-12 1.32016e-12 1.91219e-12 5.37454e-13 0 0 4.00042e-13 8.49897e-13 6.76729e-13 4.33361e-13 0 0 2.84266e-13 7.42851e-13 3.12407e-13 4.62263e-13 0 0 4.32245e-13 4.69051e-13 4.82486e-13 2.93109e-13 0 0 4.35472e-13 5.182e-13 4.1591e-13 3.28905e-13 0 0 4.74498e-13 5.20236e-13 3.47293e-13 4.23513e-13 0 0 5.55257e-13 4.29137e-13 3.69776e-13 4.39063e-13 0 0 4.02172e-13 6.41542e-13 2.6662e-13 3.86443e-13 0 0 3.72725e-13 6.19624e-13 4.29944e-13 1.84082e-13 0 0 4.60046e-13 4.57609e-13 5.93123e-13 8.50092e-14 0 0 5.41474e-13 2.54596e-13 6.90672e-13 1.13776e-13 0 0 5.2452e-13 2.45453e-13 6.33647e-13 2.35082e-13 0 0 3.13201e-13 6.27089e-13 2.53188e-13 4.55631e-13 0 0 3.10065e-13 6.18513e-13 2.76581e-13 4.56445e-13 0 0 2.51245e-13 5.79473e-13 5.11769e-13 2.26363e-13 0 0 3.90489e-13 4.19819e-13 6.15809e-13 1.9204e-13 0 0 5.04576e-13 4.12636e-13 5.15701e-13 2.99028e-13 0 0 4.21477e-13 4.64601e-13 5.03155e-13 3.85466e-13 0 0 4.04387e-13 3.34564e-13 5.9595e-13 4.86175e-13 0 0 3.11874e-13 4.48635e-13 7.1015e-13 2.71203e-13 0 0 2.0563e-13 6.77643e-13 6.14188e-13 2.09908e-13 0 0 2.09824e-13 7.20722e-13 4.17528e-13 4.6085e-13 0 0 3.04763e-13 5.80121e-13 4.55197e-13 5.57676e-13 0 0 3.17165e-13 5.60518e-13 4.74618e-13 5.65556e-13 0 0 3.27625e-13 4.79353e-13 6.74933e-13 3.43007e-13 0 0 1.54054e-13 5.28887e-13 7.84822e-13 2.17531e-13 0 0 2.02411e-13 4.50691e-13 7.97986e-13 2.40778e-13 0 0 2.66653e-13 4.12283e-13 8.14155e-13 9.43726e-14 0 0 8.25631e-14 5.68513e-13 7.19447e-13 3.9741e-14 0 0 2.36056e-14 6.82911e-13 5.79964e-13 1.25696e-13 0 0 1.88263e-13 5.5349e-13 7.31203e-13 -8.37725e-14 0 0 3.5981e-13 2.20691e-13 1.18753e-12 -4.23266e-13 0 0 6.55823e-14 6.01342e-13 7.56175e-13 -9.96863e-15 0 0 9.355e-15 9.17479e-13 1.73006e-13 4.14788e-13 0 0 2.56032e-13 6.67606e-13 4.55607e-13 1.61069e-13 0 0 4.11867e-13 3.22688e-13 9.90678e-13 -2.75728e-13 0 0 2.92158e-13 4.86705e-13 8.61032e-13 -2.65933e-13 0 0 -1.85699e-13 1.27483e-12 1.00101e-13 8.83984e-14 0 0 -3.76642e-13 1.59638e-12 -1.96824e-13 1.71928e-13 0
				</DataArray>
				<DataArray Name="VitesseY" type="Float32" format="ascii">