<?xml version="1.0"?>
<VTKFile type="PolyData">
	<PolyData>
		<Piece NumberOfPoints="1206" NumberOfPolys="1000">
			<Points>
				<DataArray type="Float32" NumberOfComponents="3" format="ascii">
 0 0 0 0.02 0 0 0.04 0 0 0.06 0 0 0.08 0 0 0.1 0 0 0 0.005 0 0.02 0.005 0 0.04 0.005 0 0.06 0.005 0 0.08 0.005 0 0.1 0.005 0 0 0.01 0 0.02 0.01 0 0.04 0.01 0 0.06 0.01 0 0.08 0.01 0 0.1 0.01 0 0 0.015 0 0.02 0.015 0 0.04 0.015 0 0.06 0.015 0 0.08 0.015 0 0.1 0.015 0 0 0.02 0 0.02 0.02 0 0.04 0.02 0 0.06 0.02 0 0.08 0.02 0 0.1 0.02 0 0 0.025 0 0.02 0.025 0 0.04 0.025 0 0.06 0.025 0 0.08 0.025 0 0.1 0.025 0 0 0.03 0 0.02 0.03 0 0.04 0.03 0 0.06 0.03 0 0.08 0.03 0 0.1 0.03 0 0 0.035 0 0.02 0.035 0 0.04 0.035 0 0.06 0.035 0 0.08 0.035 0 0.1 0.035 0 0 0.04 0 0.02 0.04 0 0.04 0.04 0 0.06 0.04 0 0.08 0.04 0 0.1 0.04 0 0 0.045 0 0.02 0.045 0 0.04 0.045 0 0.06 0.045 0 0.08 0.045 0 0.1 0.045 0 0 0.05 0 0.02 0.05 0 0.04 0.05 0 0.06 0.05 0 0.08 0.05 0 0.1 0.05 0 0 0.055 0 0.02 0.055 0 0.04 0.055 0 0.06 0.055 0 0.08 0.055 0 0.1 0.055 0 0 0.06 0 0.02 0.06 0 0.04 0.06 0 0.06 0.06 0 0.08 0.06 0 0.1 0.06 0 0 0.065 0 0.02 0.065 0 0.04 0.065 0 0.06 0.065 0 0.08 0.065 0 0.1 0.065 0 0 0.07 0 0.02 0.07 0 0.04 0.07 0 0.06 0.07 0 0.08 0.07 0 0.1 0.07 0 0 0.075 0 0.02 0.075 0 0.04 0.075 0 0.06 0.075 0 0.08 0.075 0 0.1 0.075 0 0 0.08 0 0.02 0.08 0 0.04 0.08 0 0.06 0.08 0 0.08 0.08 0 0.1 0.08 0 0 0.085 0 0.02 0.085 0 0.04 0.085 0 0.06 0.085 0 0.08 0.085 0 0.1 0.085 0 0 0.09 0 0.02 0.09 0 0.04 0.09 0 0.06 0.09 0 0.08 0.09 0 0.1 0.09 0 0 0.095 0 0.02 0.095 0 0.04 0.095 0 0.06 0.095 0 0.08 0.095 0 0.1 0.095 0 0 0.1 0 0.02 0.1 0 0.04 0.1 0 0.06 0.1 0 0.08 0.1 0 0.1 0.1 0 0 0.105 0 0.02 0.105 0 0.04 0.105 0 0.06 0.105 0 0.08 0.105 0 0.1 0.105 0 0 0.11 0 0.02 0.11 0 0.04 0.11 0 0.06 0.11 0 0.08 0.11 0 0.1 0.11 0 0 0.115 0 0.02 0.115 0 0.04 0.115 0 0.06 0.115 0 0.08 0.115 0 0.1 0.115 0 0 0.12 0 0.02 0.12 0 0.04 0.12 0 0.06 0.12 0 0.08 0.12 0 0.1 0.12 0 0 0.125 0 0.02 0.125 0 0.04 0.125 0 0.06 0.125 0 0.08 0.125 0 0.1 0.125 0 0 0.13 0 0.02 0.13 0 0.04 0.13 0 0.06 0.13 0 0.08 0.13 0 0.1 0.13 0 0 0.135 0 0.02 0.135 0 0.04 0.135 0 0.06 0.135 0 0.08 0.135 0 0.1 0.135 0 0 0.14 0 0.02 0.14 0 0.04 0.14 0 0.06 0.14 0 0.08 0.14 0 0.1 0.14 0 0 0.145 0 0.02 0.145 0 0.04 0.145 0 0.06 0.145 0 0.08 0.145 0 0.1 0.145 0 0 0.15 0 0.02 0.15 0 0.04 0.15 0 0.06 0.15 0 0.08 0.15 0 0.1 0.15 0 0 0.155 0 0.02 0.155 0 0.04 0.155 0 0.06 0.155 0 0.08 0.155 0 0.1 0.155 0 0 0.16 0 0.02 0.16 0 0.04 0.16 0 0.06 0.16 0 0.08 0.16 0 0.1 0.16 0 0 0.165 0 0.02 0.165 0 0.04 0.165 0 0.06 0.165 0 0.08 0.165 0 0.1 0.165 0 0 0.17 0 0.02 0.17 0 0.04 0.17 0 0.06 0.17 0 0.08 0.17 0 0.1 0.17 0 0 0.175 0 0.02 0.175 0 0.04 0.175 0 0.06 0.175 0 0.08 0.175 0 0.1 0.175 0 0 0.18 0 0.02 0.18 0 0.04 0.18 0 0.06 0.18 0 0.08 0.18 0 0.1 0.18 0 0 0.185 0 0.02 0.185 0 0.04 0.185 0 0.06 0.185 0 0.08 0.185 0 0.1 0.185 0 0 0.19 0 0.02 0.19 0 0.04 0.19 0 0.06 0.19 0 0.08 0.19 0 0.1 0.19 0 0 0.195 0 0.02 0.195 0 0.04 0.195 0 0.06 0.195 0 0.08 0.195 0 0.1 0.195 0 0 0.2 0 0.02 0.2 0 0.04 0.2 0 0.06 0.2 0 0.08 0.2 0 0.1 0.2 0 0 0.205 0 0.02 0.205 0 0.04 0.205 0 0.06 0.205 0 0.08 0.205 0 0.1 0.205 0 0 0.21 0 0.02 0.21 0 0.04 0.21 0 0.06 0.21 0 0.08 0.21 0 0.1 0.21 0 0 0.215 0 0.02 0.215 0 0.04 0.215 0 0.06 0.215 0 0.08 0.215 0 0.1 0.215 0 0 0.22 0 0.02 0.22 0 0.04 0.22 0 0.06 0.22 0 0.08 0.22 0 0.1 0.22 0 0 0.225 0 0.02 0.225 0 0.04 0.225 0 0.06 0.225 0 0.08 0.225 0 0.1 0.225 0 0 0.23 0 0.02 0.23 0 0.04 0.23 0 0.06 0.23 0 0.08 0.23 0 0.1 0.23 0 0 0.235 0 0.02 0.235 0 0.04 0.235 0 0.06 0.235 0 0.08 0.235 0 0.1 0.235 0 0 0.24 0 0.02 0.24 0 0.04 0.24 0 0.06 0.24 0 0.08 0.24 0 0.1 0.24 0 0 0.245 0 0.02 0.245 0 0.04 0.245 0 0.06 0.245 0 0.08 0.245 0 0.1 0.245 0 0 0.25 0 0.02 0.25 0 0.04 0.25 0 0.06 0.25 0 0.08 0.25 0 0.1 0.25 0 0 0.255 0 0.02 0.255 0 0.04 0.255 0 0.06 0.255 0 0.08 0.255 0 0.1 0.255 0 0 0.26 0 0.02 0.26 0 0.04 0.26 0 0.06 0.26 0 0.08 0.26 0 0.1 0.26 0 0 0.265 0 0.02 0.265 0 0.04 0.265 0 0.06 0.265 0 0.08 0.265 0 0.1 0.265 0 0 0.27 0 0.02 0.27 0 0.04 0.27 0 0.06 0.27 0 0.08 0.27 0 0.1 0.27 0 0 0.275 0 0.02 0.275 0 0.04 0.275 0 0.06 0.275 0 0.08 0.275 0 0.1 0.275 0 0 0.28 0 0.02 0.28 0 0.04 0.28 0 0.06 0.28 0 0.08 0.28 0 0.1 0.28 0 0 0.285 0 0.02 0.285 0 0.04 0.285 0 0.06 0.285 0 0.08 0.285 0 0.1 0.285 0 0 0.29 0 0.02 0.29 0 0.04 0.29 0 0.06 0.29 0 0.08 0.29 0 0.1 0.29 0 0 0.295 0 0.02 0.295 0 0.04 0.295 0 0.06 0.295 0 0.08 0.295 0 0.1 0.295 0 0 0.3 0 0.02 0.3 0 0.04 0.3 0 0.06 0.3 0 0.08 0.3 0 0.1 0.3 0 0 0.305 0 0.02 0.305 0 0.04 0.305 0 0.06 0.305 0 0.08 0.305 0 0.1 0.305 0 0 0.31 0 0.02 0.31 0 0.04 0.31 0 0.06 0.31 0 0.08 0.31 0 0.1 0.31 0 0 0.315 0 0.02 0.315 0 0.04 0.315 0 0.06 0.315 0 0.08 0.315 0 0.1 0.315 0 0 0.32 0 0.02 0.32 0 0.04 0.32 0 0.06 0.32 0 0.08 0.32 0 0.1 0.32 0 0 0.325 0 0.02 0.325 0 0.04 0.325 0 0.06 0.325 0 0.08 0.325 0 0.1 0.325 0 0 0.33 0 0.02 0.33 0 0.04 0.33 0 0.06 0.33 0 0.08 0.33 0 0.1 0.33 0 0 0.335 0 0.02 0.335 0 0.04 0.335 0 0.06 0.335 0 0.08 0.335 0 0.1 0.335 0 0 0.34 0 0.02 0.34 0 0.04 0.34 0 0.06 0.34 0 0.08 0.34 0 0.1 0.34 0 0 0.345 0 0.02 0.345 0 0.04 0.345 0 0.06 0.345 0 0.08 0.345 0 0.1 0.345 0 0 0.35 0 0.02 0.35 0 0.04 0.35 0 0.06 0.35 0 0.08 0.35 0 0.1 0.35 0 0 0.355 0 0.02 0.355 0 0.04 0.355 0 0.06 0.355 0 0.08 0.355 0 0.1 0.355 0 0 0.36 0 0.02 0.36 0 0.04 0.36 0 0.06 0.36 0 0.08 0.36 0 0.1 0.36 0 0 0.365 0 0.02 0.365 0 0.04 0.365 0 0.06 0.365 0 0.08 0.365 0 0.1 0.365 0 0 0.37 0 0.02 0.37 0 0.04 0.37 0 0.06 0.37 0 0.08 0.37 0 0.1 0.37 0 0 0.375 0 0.02 0.375 0 0.04 0.375 0 0.06 0.375 0 0.08 0.375 0 0.1 0.375 0 0 0.38 0 0.02 0.38 0 0.04 0.38 0 0.06 0.38 0 0.08 0.38 0 0.1 0.38 0 0 0.385 0 0.02 0.385 0 0.04 0.385 0 0.06 0.385 0 0.08 0.385 0 0.1 0.385 0 0 0.39 0 0.02 0.39 0 0.04 0.39 0 0.06 0.39 0 0.08 0.39 0 0.1 0.39 0 0 0.395 0 0.02 0.395 0 0.04 0.395 0 0.06 0.395 0 0.08 0.395 0 0.1 0.395 0 0 0.4 0 0.02 0.4 0 0.04 0.4 0 0.06 0.4 0 0.08 0.4 0 0.1 0.4 0 0 0.405 0 0.02 0.405 0 0.04 0.405 0 0.06 0.405 0 0.08 0.405 0 0.1 0.405 0 0 0.41 0 0.02 0.41 0 0.04 0.41 0 0.06 0.41 0 0.08 0.41 0 0.1 0.41 0 0 0.415 0 0.02 0.415 0 0.04 0.415 0 0.06 0.415 0 0.08 0.415 0 0.1 0.415 0 0 0.42 0 0.02 0.42 0 0.04 0.42 0 0.06 0.42 0 0.08 0.42 0 0.1 0.42 0 0 0.425 0 0.02 0.425 0 0.04 0.425 0 0.06 0.425 0 0.08 0.425 0 0.1 0.425 0 0 0.43 0 0.02 0.43 0 0.04 0.43 0 0.06 0.43 0 0.08 0.43 0 0.1 0.43 0 0 0.435 0 0.02 0.435 0 0.04 0.435 0 0.06 0.435 0 0.08 0.435 0 0.1 0.435 0 0 0.44 0 0.02 0.44 0 0.04 0.44 0 0.06 0.44 0 0.08 0.44 0 0.1 0.44 0 0 0.445 0 0.02 0.445 0 0.04 0.445 0 0.06 0.445 0 0.08 0.445 0 0.1 0.445 0 0 0.45 0 0.02 0.45 0 0.04 0.45 0 0.06 0.45 0 0.08 0.45 0 0.1 0.45 0 0 0.455 0 0.02 0.455 0 0.04 0.455 0 0.06 0.455 0 0.08 0.455 0 0.1 0.455 0 0 0.46 0 0.02 0.46 0 0.04 0.46 0 0.06 0.46 0 0.08 0.46 0 0.1 0.46 0 0 0.465 0 0.02 0.465 0 0.04 0.465 0 0.06 0.465 0 0.08 0.465 0 0.1 0.465 0 0 0.47 0 0.02 0.47 0 0.04 0.47 0 0.06 0.47 0 0.08 0.47 0 0.1 0.47 0 0 0.475 0 0.02 0.475 0 0.04 0.475 0 0.06 0.475 0 0.08 0.475 0 0.1 0.475 0 0 0.48 0 0.02 0.48 0 0.04 0.48 0 0.06 0.48 0 0.08 0.48 0 0.1 0.48 0 0 0.485 0 0.02 0.485 0 0.04 0.485 0 0.06 0.485 0 0.08 0.485 0 0.1 0.485 0 0 0.49 0 0.02 0.49 0 0.04 0.49 0 0.06 0.49 0 0.08 0.49 0 0.1 0.49 0 0 0.495 0 0.02 0.495 0 0.04 0.495 0 0.06 0.495 0 0.08 0.495 0 0.1 0.495 0 0 0.5 0 0.02 0.5 0 0.04 0.5 0 0.06 0.5 0 0.08 0.5 0 0.1 0.5 0 0 0.505 0 0.02 0.505 0 0.04 0.505 0 0.06 0.505 0 0.08 0.505 0 0.1 0.505 0 0 0.51 0 0.02 0.51 0 0.04 0.51 0 0.06 0.51 0 0.08 0.51 0 0.1 0.51 0 0 0.515 0 0.02 0.515 0 0.04 0.515 0 0.06 0.515 0 0.08 0.515 0 0.1 0.515 0 0 0.52 0 0.02 0.52 0 0.04 0.52 0 0.06 0.52 0 0.08 0.52 0 0.1 0.52 0 0 0.525 0 0.02 0.525 0 0.04 0.525 0 0.06 0.525 0 0.08 0.525 0 0.1 0.525 0 0 0.53 0 0.02 0.53 0 0.04 0.53 0 0.06 0.53 0 0.08 0.53 0 0.1 0.53 0 0 0.535 0 0.02 0.535 0 0.04 0.535 0 0.06 0.535 0 0.08 0.535 0 0.1 0.535 0 0 0.54 0 0.02 0.54 0 0.04 0.54 0 0.06 0.54 0 0.08 0.54 0 0.1 0.54 0 0 0.545 0 0.02 0.545 0 0.04 0.545 0 0.06 0.545 0 0.08 0.545 0 0.1 0.545 0 0 0.55 0 0.02 0.55 0 0.04 0.55 0 0.06 0.55 0 0.08 0.55 0 0.1 0.55 0 0 0.555 0 0.02 0.555 0 0.04 0.555 0 0.06 0.555 0 0.08 0.555 0 0.1 0.555 0 0 0.56 0 0.02 0.56 0 0.04 0.56 0 0.06 0.56 0 0.08 0.56 0 0.1 0.56 0 0 0.565 0 0.02 0.565 0 0.04 0.565 0 0.06 0.565 0 0.08 0.565 0 0.1 0.565 0 0 0.57 0 0.02 0.57 0 0.04 0.57 0 0.06 0.57 0 0.08 0.57 0 0.1 0.57 0 0 0.575 0 0.02 0.575 0 0.04 0.575 0 0.06 0.575 0 0.08 0.575 0 0.1 0.575 0 0 0.58 0 0.02 0.58 0 0.04 0.58 0 0.06 0.58 0 0.08 0.58 0 0.1 0.58 0 0 0.585 0 0.02 0.585 0 0.04 0.585 0 0.06 0.585 0 0.08 0.585 0 0.1 0.585 0 0 0.59 0 0.02 0.59 0 0.04 0.59 0 0.06 0.59 0 0.08 0.59 0 0.1 0.59 0 0 0.595 0 0.02 0.595 0 0.04 0.595 0 0.06 0.595 0 0.08 0.595 0 0.1 0.595 0 0 0.6 0 0.02 0.6 0 0.04 0.6 0 0.06 0.6 0 0.08 0.6 0 0.1 0.6 0 0 0.605 0 0.02 0.605 0 0.04 0.605 0 0.06 0.605 0 0.08 0.605 0 0.1 0.605 0 0 0.61 0 0.02 0.61 0 0.04 0.61 0 0.06 0.61 0 0.08 0.61 0 0.1 0.61 0 0 0.615 0 0.02 0.615 0 0.04 0.615 0 0.06 0.615 0 0.08 0.615 0 0.1 0.615 0 0 0.62 0 0.02 0.62 0 0.04 0.62 0 0.06 0.62 0 0.08 0.62 0 0.1 0.62 0 0 0.625 0 0.02 0.625 0 0.04 0.625 0 0.06 0.625 0 0.08 0.625 0 0.1 0.625 0 0 0.63 0 0.02 0.63 0 0.04 0.63 0 0.06 0.63 0 0.08 0.63 0 0.1 0.63 0 0 0.635 0 0.02 0.635 0 0.04 0.635 0 0.06 0.635 0 0.08 0.635 0 0.1 0.635 0 0 0.64 0 0.02 0.64 0 0.04 0.64 0 0.06 0.64 0 0.08 0.64 0 0.1 0.64 0 0 0.645 0 0.02 0.645 0 0.04 0.645 0 0.06 0.645 0 0.08 0.645 0 0.1 0.645 0 0 0.65 0 0.02 0.65 0 0.04 0.65 0 0.06 0.65 0 0.08 0.65 0 0.1 0.65 0 0 0.655 0 0.02 0.655 0 0.04 0.655 0 0.06 0.655 0 0.08 0.655 0 0.1 0.655 0 0 0.66 0 0.02 0.66 0 0.04 0.66 0 0.06 0.66 0 0.08 0.66 0 0.1 0.66 0 0 0.665 0 0.02 0.665 0 0.04 0.665 0 0.06 0.665 0 0.08 0.665 0 0.1 0.665 0 0 0.67 0 0.02 0.67 0 0.04 0.67 0 0.06 0.67 0 0.08 0.67 0 0.1 0.67 0 0 0.675 0 0.02 0.675 0 0.04 0.675 0 0.06 0.675 0 0.08 0.675 0 0.1 0.675 0 0 0.68 0 0.02 0.68 0 0.04 0.68 0 0.06 0.68 0 0.08 0.68 0 0.1 0.68 0 0 0.685 0 0.02 0.685 0 0.04 0.685 0 0.06 0.685 0 0.08 0.685 0 0.1 0.685 0 0 0.69 0 0.02 0.69 0 0.04 0.69 0 0.06 0.69 0 0.08 0.69 0 0.1 
[...]
			<PointData Scalars="VitesseX">
				<DataArray Name="VitesseX" type="Float32" format="ascii">
 0 1.48096e-14 6.16561e-14 3.39131e-14 2.58531e-14 0 0 2.21474e-14 4.79383e-14 4.30586e-14 1.93254e-14 0 0 2.59158e-14 3.5854e-14 4.71051e-14 1.29969e-14 0 0 2.50264e-14 3.83029e-14 2.82929e-14 2.01054e-14 0 0 4.05656e-14 2.1402e-14 2.54447e-14 1.37311e-14 0 0 4.72574e-14 8.93181e-15 2.78635e-14 -3.34542e-16 0 0 2.10006e-14 3.80091e-14 -3.29421e-15 1.26808e-14 0 0 1.25805e-14 4.43394e-14 -1.26347e-14 2.25483e-14 0 0 2.02024e-14 3.69867e-14 -1.11028e-14 3.21873e-14 0 0 3.3727e-14 2.70322e-14 5.14124e-15 2.20396e-14 0 0 2.81082e-14 3.47701e-14 1.42993e-14 6.46138e-15 0 0 1.81269e-14 4.0172e-14 3.48292e-14 -2.58804e-14 0 0 -5.11519e-15 7.60659e-14 2.11729e-14 -2.99016e-14 0 0 -1.12407e-14 6.42341e-14 4.17362e-14 -3.14099e-14 0 0 1.16197e-14 1.96179e-14 6.89252e-14 -2.88554e-14 0 0 9.74021e-15 4.81483e-14 4.40127e-15 3.01276e-14 0 0 3.8628e-14 1.8857e-14 2.11113e-14 3.12404e-14 0 0 3.72461e-14 3.58415e-14 6.23446e-15 4.71614e-14 0 0 3.35124e-14 6.13478e-14 -3.49946e-14 1.00997e-13 0 0 3.27718e-14 5.55309e-14 -5.22095e-15 9.54697e-14 0 0 7.14536e-15 7.68168e-14 3.46875e-14 5.49753e-14 0 0 3.04372e-14 6.26385e-14 6.47684e-14 3.27896e-14 0 0 9.60489e-14 -1.48282e-14 1.35564e-13 -9.87767e-15 0 0 1.16168e-13 -2.60495e-14 1.5107e-13 -3.3165e-14 0 0 1.66028e-14 1.42184e-13 1.03626e-14 3.09914e-14 0 0 -3.79299e-14 2.24327e-13 -6.39792e-14 7.32354e-14 0 0 2.34655e-14 1.33593e-13 1.85374e-14 -2.20794e-15 0 0 8.26226e-14 5.58636e-14 8.97096e-14 -6.60748e-14 0 0 7.84944e-14 6.85561e-14 8.52738e-14 -8.0332e-14 0 0 4.53223e-14 1.19219e-13 4.38872e-14 -6.69284e-14 0 0 6.11514e-14 8.22291e-14 6.80062e-14 -6.66209e-14 0 0 8.41193e-14 4.39512e-14 7.47636e-14 -5.48871e-14 0 0 7.82608e-14 8.1204e-14 -1.26986e-14 2.73275e-14 0 0 9.43624e-14 7.29764e-14 -5.13849e-14 8.63508e-14 0 0 2.65757e-14 1.54556e-13 -1.00999e-13 1.2228e-13 0 0 4.15735e-15 1.4763e-13 -1.94305e-14 5.70553e-14 0 0 6.80566e-14 3.24926e-14 1.06431e-13 2.03916e-14 0 0 8.32856e-14 9.39095e-15 1.39207e-13 3.61932e-14 0 0 3.54462e-14 9.15665e-14 6.38069e-14 6.827e-14 0 0 4.81714e-14 9.95368e-14 2.19587e-14 8.43503e-14 0 0 9.39469e-14 8.98963e-14 1.59601e-14 5.12171e-14 0 0 1.12709e-13 1.12404e-13 4.62963e-15 -7.87837e-15 0 0 1.5773e-13 5.49883e-14 4.46369e-14 -7.23989e-14 0 0 8.0895e-14 1.41099e-13 -6.77787e-14 5.34303e-14 0 0 5.06193e-14 1.25992e-13 -1.44956e-14 8.06425e-14 0 0 6.23307e-14 4.97579e-14 1.58669e-13 -4.32055e-14 0 0 7.65538e-14 8.03845e-15 1.68412e-13 8.02014e-15 0 0 1.27537e-13 -5.35662e-14 1.21631e-13 1.02941e-13 0 0 6.91781e-14 6.58308e-15 1.26379e-13 5.51171e-14 0 0 -3.87911e-14 1.17039e-13 1.1573e-13 3.19995e-14 0 0 -1.0436e-13 1.99702e-13 8.76471e-14 5.66243e-14 0 0 -6.43356e-14 1.55602e-13 1.26923e-13 6.02336e-14 0 0 1.24519e-13 -1.13981e-13 3.04502e-13 -1.21288e-14 0 0 8.59728e-14 -6.41919e-14 2.58382e-13 -5.62264e-15 0 0 -1.05543e-13 2.49137e-13 -3.51293e-14 1.57895e-13 0 0 -9.24317e-14 2.49899e-13 -3.78592e-14 1.67192e-13 0 0 -9.95582e-14 2.22078e-13 4.10775e-14 1.35462e-13 0 0 -6.85899e-14 1.71093e-13 7.94678e-14 1.48418e-13 0 0 -4.7215e-15 8.10913e-14 1.67981e-13 1.24623e-13 0 0 1.25906e-14 8.23245e-14 1.83393e-13 9.51762e-14 0 0 3.05373e-14 1.51527e-13 5.66923e-14 1.50154e-13 0 0 3.72485e-15 2.05206e-13 3.85662e-14 9.93263e-14 0 0 7.85077e-14 1.21127e-13 1.12323e-13 7.49624e-15 0 0 1.3748e-13 1.49679e-13 -2.51066e-14 1.01138e-13 0 0 1.62608e-13 1.78229e-13 -7.02313e-14 6.86486e-14 0 0 2.08046e-13 8.31479e-14 3.7152e-14 -2.09586e-14 0 0 1.74745e-13 2.99156e-14 1.53472e-13 -3.81189e-15 0 0 1.21129e-13 8.23646e-14 1.55432e-13 8.93809e-14 0 0 -5.14183e-15 2.88039e-13 -4.48884e-14 3.03072e-13 0 0 2.25016e-14 2.41687e-13 2.99972e-14 2.97877e-13 0 0 1.97289e-13 -2.465e-15 3.51304e-13 4.62047e-14 0 0 7.55045e-14 1.93934e-13 2.33073e-13 8.52264e-14 0 0 -1.47513e-13 5.34806e-13 -1.36201e-13 3.11926e-13 0 0 -1.9606e-13 5.39887e-13 -1.44444e-13 3.82717e-13 0 0 -7.54916e-14 2.03166e-13 2.96149e-13 1.91034e-13 0 0 5.67766e-14 -4.3799e-14 5.70541e-13 1.13439e-13 0 0 -7.92925e-14 2.989e-13 1.27943e-13 4.77935e-13 0 0 -2.60829e-13 6.24902e-13 -1.56809e-13 5.7217e-13 0 0 -1.60997e-13 4.7989e-13 5.19143e-14 3.20883e-13 0 0 1.77143e-13 1.11144e-13 2.7451e-13 2.6362e-13 0 0 -6.64938e-14 4.6105e-13 -6.46264e-14 5.60393e-13 0 0 -2.68712e-13 6.02742e-13 1.13003e-13 3.49047e-13 0 0 1.81291e-13 8.29652e-14 9.17426e-13 -2.93703e-13 0 0 1.39261e-13 5.1364e-13 5.24752e-13 -1.79791e-13 0 0 3.46423e-16 1.22669e-12 -4.51798e-13 3.94918e-13 0 0 3.56733e-13 9.60765e-13 -4.65853e-13 5.2237e-13 0 0 1.04383e-12 8.77643e-14 4.25774e-13 -6.00241e-14 0 0 9.62077e-13 2.07891e-13 9.72488e-13 -5.66181e-13 0 0 9.9383e-13 1.3201e-12 1.53866e-12 2.72144e-14 0 0 3.3499e-12 6.12364e-12 5.60517e-12 3.13697e-12 0 0 1.63704e-11 2.82625e-11 2.81479e-11 1.78769e-11 0 0 7.1274e-11 1.21706e-10 1.27479e-10 8.21925e-11 0 0 2.52728e-10 4.42003e-10 4.81757e-10 3.1772e-10 0 0 6.91004e-10 1.24991e-09 1.42362e-09 9.76334e-10 0 0 8.04052e-10 2.12741e-09 3.07917e-09 2.33028e-09 0 0 -4.59796e-09 -5.22887e-09 -2.3687e-09 6.10313e-11 0 0 -3.5857e-08 -5.28746e-08 -4.61639e-08 -2.50258e-08 0 0 -1.56181e-07 -2.49739e-07 -2.44775e-07 -1.48153e-07 0 0 -5.15929e-07 -8.76166e-07 -9.21585e-07 -5.89375e-07 0 0 -1.39308e-06 -2.51737e-06 -2.82199e-06 -1.88629e-06 0 0 -3.22718e-06 -6.16636e-06 -7.39565e-06 -5.152e-06 0 0 -6.61809e-06 -1.41188e-05 -1.70017e-05 -1.23571e-05 0 0 -1.12543e-05 -2.5742e-05 -3.73138e-05 -2.81937e-05 0 0 -1.77657e-05 -4.48343e-05 -6.7057e-05 -5.02384e-05 0 0 -2.46885e-05 -7.58556e-05 -0.000113189 -9.30219e-05 0 0 -3.6225e-05 -0.00011291 -0.000178254 -0.00014238 0 0 -5.76348e-05 -0.000146623 -0.00024111 -0.000185653 0 0 -8.02573e-05 -0.000191735 -0.000297108 -0.000216955 0 0 -0.000114635 -0.0002572 -0.00034424 -0.000235568 0 0 -0.000168454 -0.000343016 -0.000383245 -0.000269824 0 0 -0.000225099 -0.000440232 -0.000444022 -0.000311177 0 0 -0.000232201 -0.000476344 -0.000513374 -0.000318472 0 0 -0.000224038 -0.000474507 -0.000567916 -0.000311631 0 0 -0.000198916 -0.000497067 -0.000592364 -0.000265216 0 0 -0.000171698 -0.000497406 -0.000586371 -0.000217564 0 0 -0.000138676 -0.000440475 -0.00053743 -0.000218328 0 0 -0.00010242 -0.000314529 -0.000419321 -0.000226074 0 0 -7.70065e-05 -0.000201935 -0.000324096 -0.000243313 0 0 -7.87516e-05 -0.000179801 -0.00027047 -0.000233725 0 0 -6.9297e-05 -0.000112417 -0.000108248 -0.00013789 0 0 7.79351e-05 0.000313924 0.00048043 0.000224763 0 0 0.000234461 0.0005274 0.000678573 0.000466048 0 0 0.000248748 0.000516915 0.000658389 0.000462479 0 0 0.000243639 0.000471192 0.0005787 0.000418305 0 0 0.000227243 0.000420698 0.000491663 0.000345525 0 0 0.000209104 0.000378247 0.000424424 0.000287738 0 0 0.000186644 0.00033585 0.000375452 0.000251686 0 0 0.000159948 0.000286663 0.000324545 0.000221106 0 0 0.000130865 0.000233899 0.000264505 0.000180369 0 0 0.000101075 0.000179984 0.000202098 0.000136848 0 0 7.22392e-05 0.000127812 0.000141987 9.51766e-05 0 0 4.67149e-05 8.18717e-05 8.9849e-05 5.96232e-05 0 0 2.66199e-05 4.61163e-05 4.99397e-05 3.28058e-05 0 0 1.29333e-05 2.21168e-05 2.3597e-05 1.53282e-05 0 0 5.2062e-06 8.78722e-06 9.23738e-06 5.9346e-06 0 0 1.74077e-06 2.90448e-06 3.01304e-06 1.91641e-06 0 0 4.98315e-07 8.2372e-07 8.45256e-07 5.33161e-07 0 0 1.29201e-07 2.12152e-07 2.15983e-07 1.354e-07 0 0 3.15303e-08 5.15319e-08 5.21684e-08 3.25599e-08 0 0 7.38345e-09 1.20279e-08 1.21292e-08 7.54656e-09 0 0 1.67294e-09 2.71916e-09 2.73444e-09 1.69784e-09 0 0 3.6827e-10 5.97365e-10 5.9962e-10 3.7171e-10 0 0 7.89648e-11 1.28084e-10 1.28069e-10 7.93319e-11 0 0 1.67073e-11 2.70871e-11 2.67677e-11 1.65744e-11 0 0 3.81414e-12 5.77564e-12 5.71773e-12 3.32092e-12 0 0 1.04502e-12 1.71774e-12 1.0959e-12 7.41722e-13 0 0 6.33436e-13 6.92631e-13 2.92972e-13 2.47313e-13 0 0 5.00584e-13 5.29005e-13 3.27311e-14 2.96103e-13 0 0 3.87618e-13 5.91537e-13 -1.18235e-13 4.11761e-13 0 0 5.5265e-13 2.67787e-13 1.7538e-13 3.49257e-13 0 0 3.75425e-13 5.03788e-13 -8.80652e-14 5.62375e-13 0 0 3.36046e-13 5.06894e-13 -2.33833e-15 4.49958e-13 0 0 3.201e-13 5.41746e-13 1.23443e-13 2.23151e-13 0 0 5.24549e-13 3.5024e-13 2.96682e-13 2.98905e-14 0 0 6.41389e-13 2.39679e-13 3.81768e-13 7.70177e-14 0 0 4.98776e-13 4.34523e-13 2.32714e-13 2.78424e-13 0 0 4.45649e-13 3.57036e-13 4.71024e-13 7.60041e-14 0 0 1.45297e-13 7.08239e-13 1.68755e-13 3.18323e-13 0 0 9.25778e-14 8.14001e-13 2.85857e-14 4.66601e-13 0 0 1.89389e-13 6.6222e-13 2.80688e-13 3.59746e-13 0 0 4.35471e-13 3.55463e-13 4.61827e-13 4.34321e-13 0 0 5.37444e-13 2.94389e-13 3.47753e-13 5.83968e-13 0 0 4.08525e-13 4.8198e-13 3.54727e-13 4.17045e-13 0 0 4.40331e-13 3.48307e-13 6.6518e-13 1.5827e-13 0 0 3.24713e-13 4.47947e-13 5.15381e-13 4.552e-13 0 0 1.25119e-14 8.02234e-13 3.18941e-13 5.46385e-13 0 0 7.65045e-15 7.19484e-13 5.23072e-13 2.42323e-13 0 0 3.58996e-13 3.82335e-13 5.86536e-13 2.06145e-13 0 0 7.2354e-13 -1.0292e-13 9.31032e-13 5.69529e-14 0 0 3.96073e-13 1.99839e-13 7.61754e-13 2.92122e-13 0 0 3.39799e-14 6.11822e-13 4.88814e-13 5.24395e-13 0 0 1.25776e-13 5.31637e-13 5.64671e-13 4.56634e-13 0 0 8.29066e-14 7.97349e-13 2.01106e-13 6.62362e-13 0 0 3.74978e-13 4.90795e-13 4.57997e-13 4.63457e-13 0 0 3.41163e-13 4.89808e-13 4.77473e-13 4.55735e-13 0 0 2.61034e-13 5.07293e-13 3.90028e-13 5.94144e-13 0 0 4.25175e-13 3.52782e-13 4.68366e-13 5.0608e-13 0 0 1.49944e-13 8.37759e-13 1.49749e-14 6.37065e-13 0 0 2.18805e-13 5.40653e-13 3.67049e-13 3.55748e-13 0 0 4.23358e-13 1.46323e-13 7.3962e-13 9.81947e-14 0 0 3.36972e-13 4.14636e-13 3.30443e-13 3.52652e-13 0 0 4.5981e-13 2.34605e-13 4.74394e-13 2.15283e-13 0 0 3.88321e-13 2.96463e-13 3.55349e-13 2.12268e-13 0 0 4.01265e-13 2.32537e-13 3.0558e-13 2.47896e-13 0 0 5.49214e-13 5.24849e-14 4.15079e-13 2.26268e-13 0 0 4.69367e-13 3.87893e-13 2.3671e-13 1.46902e-13 0 0 4.89452e-13 5.80883e-13 1.78694e-14 2.92663e-13 0 0 3.64359e-13 7.84527e-13 -2.76662e-13 6.67088e-13 0 0 5.81207e-13 1.66627e-13 4.82003e-13 2.68719e-13 0 0 5.33942e-13 2.32739e-13 4.1932e-13 2.26172e-13 0 0 3.2201e-13 5.88861e-13 1.02794e-13 3.17836e-13 0 0 5.39669e-13 8.98365e-14 6.71522e-13 2.25242e-14 0 0 2.18682e-13 6.06887e-13 -1.89589e-14 5.46166e-13 0 0 1.49305e-13 7.35299e-13 -4.28024e-13 1.08006e-12 0 0 6.05956e-13 1.23006e-13 5.35126e-14 9.25839e-13 0 0 7.33091e-13 8.12849e-14 -2.40198e-14 1.0181e-12 0 0 7.19926e-13 8.50245e-14 -7.53308e-14 1.14449e-12 0 0 4.18045e-13 4.87184e-13 -2.41837e-13 1.13485e-12 0 0 3.2805e-13 5.50988e-13 -2.38548e-13 1.11149e-12 0 0 6.28275e-13 2.91362e-14 8.49942e-14 9.94869e-13 0 0 6.87773e-13 -3.67315e-14 6.2976e-14 1.00217e-12 0
				</DataArray>
				<DataArray Name="VitesseY" type="Float32" format="ascii">