<?xml version="1.0"?>
<VTKFile type="PolyData">
	<PolyData>
		<Piece NumberOfPoints="1206" NumberOfPolys="1000">
			<Points>
				<DataArray type="Float32" NumberOfComponents="3" format="ascii">
 0 0 0 0.02 0 0 0.04 0 0 0.06 0 0 0.08 0 0 0.1 0 0 0 0.005 0 0.02 0.005 0 0.04 0.005 0 0.06 0.005 0 0.08 0.005 0 0.1 0.005 0 0 0.01 0 0.02 0.01 0 0.04 0.01 0 0.06 0.01 0 0.08 0.01 0 0.1 0.01 0 0 0.015 0 0.02 0.015 0 0.04 0.015 0 0.06 0.015 0 0.08 0.015 0 0.1 0.015 0 0 0.02 0 0.02 0.02 0 0.04 0.02 0 0.06 0.02 0 0.08 0.02 0 0.1 0.02 0 0 0.025 0 0.02 0.025 0 0.04 0.025 0 0.06 0.025 0 0.08 0.025 0 0.1 0.025 0 0 0.03 0 0.02 0.03 0 0.04 0.03 0 0.06 0.03 0 0.08 0.03 0 0.1 0.03 0 0 0.035 0 0.02 0.035 0 0.04 0.035 0 0.06 0.035 0 0.08 0.035 0 0.1 0.035 0 0 0.04 0 0.02 0.04 0 0.04 0.04 0 0.06 0.04 0 0.08 0.04 0 0.1 0.04 0 0 0.045 0 0.02 0.045 0 0.04 0.045 0 0.06 0.045 0 0.08 0.045 0 0.1 0.045 0 0 0.05 0 0.02 0.05 0 0.04 0.05 0 0.06 0.05 0 0.08 0.05 0 0.1 0.05 0 0 0.055 0 0.02 0.055 0 0.04 0.055 0 0.06 0.055 0 0.08 0.055 0 0.1 0.055 0 0 0.06 0 0.02 0.06 0 0.04 0.06 0 0.06 0.06 0 0.08 0.06 0 0.1 0.06 0 0 0.065 0 0.02 0.065 0 0.04 0.065 0 0.06 0.065 0 0.08 0.065 0 0.1 0.065 0 0 0.07 0 0.02 0.07 0 0.04 0.07 0 0.06 0.07 0 0.08 0.07 0 0.1 0.07 0 0 0.075 0 0.02 0.075 0 0.04 0.075 0 0.06 0.075 0 0.08 0.075 0 0.1 0.075 0 0 0.08 0 0.02 0.08 0 0.04 0.08 0 0.06 0.08 0 0.08 0.08 0 0.1 0.08 0 0 0.085 0 0.02 0.085 0 0.04 0.085 0 0.06 0.085 0 0.08 0.085 0 0.1 0.085 0 0 0.09 0 0.02 0.09 0 0.04 0.09 0 0.06 0.09 0 0.08 0.09 0 0.1 0.09 0 0 0.095 0 0.02 0.095 0 0.04 0.095 0 0.06 0.095 0 0.08 0.095 0 0.1 0.095 0 0 0.1 0 0.02 0.1 0 0.04 0.1 0 0.06 0.1 0 0.08 0.1 0 0.1 0.1 0 0 0.105 0 0.02 0.105 0 0.04 0.105 0 0.06 0.105 0 0.08 0.105 0 0.1 0.105 0 0 0.11 0 0.02 0.11 0 0.04 0.11 0 0.06 0.11 0 0.08 0.11 0 0.1 0.11 0 0 0.115 0 0.02 0.115 0 0.04 0.115 0 0.06 0.115 0 0.08 0.115 0 0.1 0.115 0 0 0.12 0 0.02 0.12 0 0.04 0.12 0 0.06 0.12 0 0.08 0.12 0 0.1 0.12 0 0 0.125 0 0.02 0.125 0 0.04 0.125 0 0.06 0.125 0 0.08 0.125 0 0.1 0.125 0 0 0.13 0 0.02 0.13 0 0.04 0.13 0 0.06 0.13 0 0.08 0.13 0 0.1 0.13 0 0 0.135 0 0.02 0.135 0 0.04 0.135 0 0.06 0.135 0 0.08 0.135 0 0.1 0.135 0 0 0.14 0 0.02 0.14 0 0.04 0.14 0 0.06 0.14 0 0.08 0.14 0 0.1 0.14 0 0 0.145 0 0.02 0.145 0 0.04 0.145 0 0.06 0.145 0 0.08 0.145 0 0.1 0.145 0 0 0.15 0 0.02 0.15 0 0.04 0.15 0 0.06 0.15 0 0.08 0.15 0 0.1 0.15 0 0 0.155 0 0.02 0.155 0 0.04 0.155 0 0.06 0.155 0 0.08 0.155 0 0.1 0.155 0 0 0.16 0 0.02 0.16 0 0.04 0.16 0 0.06 0.16 0 0.08 0.16 0 0.1 0.16 0 0 0.165 0 0.02 0.165 0 0.04 0.165 0 0.06 0.165 0 0.08 0.165 0 0.1 0.165 0 0 0.17 0 0.02 0.17 0 0.04 0.17 0 0.06 0.17 0 0.08 0.17 0 0.1 0.17 0 0 0.175 0 0.02 0.175 0 0.04 0.175 0 0.06 0.175 0 0.08 0.175 0 0.1 0.175 0 0 0.18 0 0.02 0.18 0 0.04 0.18 0 0.06 0.18 0 0.08 0.18 0 0.1 0.18 0 0 0.185 0 0.02 0.185 0 0.04 0.185 0 0.06 0.185 0 0.08 0.185 0 0.1 0.185 0 0 0.19 0 0.02 0.19 0 0.04 0.19 0 0.06 0.19 0 0.08 0.19 0 0.1 0.19 0 0 0.195 0 0.02 0.195 0 0.04 0.195 0 0.06 0.195 0 0.08 0.195 0 0.1 0.195 0 0 0.2 0 0.02 0.2 0 0.04 0.2 0 0.06 0.2 0 0.08 0.2 0 0.1 0.2 0 0 0.205 0 0.02 0.205 0 0.04 0.205 0 0.06 0.205 0 0.08 0.205 0 0.1 0.205 0 0 0.21 0 0.02 0.21 0 0.04 0.21 0 0.06 0.21 0 0.08 0.21 0 0.1 0.21 0 0 0.215 0 0.02 0.215 0 0.04 0.215 0 0.06 0.215 0 0.08 0.215 0 0.1 0.215 0 0 0.22 0 0.02 0.22 0 0.04 0.22 0 0.06 0.22 0 0.08 0.22 0 0.1 0.22 0 0 0.225 0 0.02 0.225 0 0.04 0.225 0 0.06 0.225 0 0.08 0.225 0 0.1 0.225 0 0 0.23 0 0.02 0.23 0 0.04 0.23 0 0.06 0.23 0 0.08 0.23 0 0.1 0.23 0 0 0.235 0 0.02 0.235 0 0.04 0.235 0 0.06 0.235 0 0.08 0.235 0 0.1 0.235 0 0 0.24 0 0.02 0.24 0 0.04 0.24 0 0.06 0.24 0 0.08 0.24 0 0.1 0.24 0 0 0.245 0 0.02 0.245 0 0.04 0.245 0 0.06 0.245 0 0.08 0.245 0 0.1 0.245 0 0 0.25 0 0.02 0.25 0 0.04 0.25 0 0.06 0.25 0 0.08 0.25 0 0.1 0.25 0 0 0.255 0 0.02 0.255 0 0.04 0.255 0 0.06 0.255 0 0.08 0.255 0 0.1 0.255 0 0 0.26 0 0.02 0.26 0 0.04 0.26 0 0.06 0.26 0 0.08 0.26 0 0.1 0.26 0 0 0.265 0 0.02 0.265 0 0.04 0.265 0 0.06 0.265 0 0.08 0.265 0 0.1 0.265 0 0 0.27 0 0.02 0.27 0 0.04 0.27 0 0.06 0.27 0 0.08 0.27 0 0.1 0.27 0 0 0.275 0 0.02 0.275 0 0.04 0.275 0 0.06 0.275 0 0.08 0.275 0 0.1 0.275 0 0 0.28 0 0.02 0.28 0 0.04 0.28 0 0.06 0.28 0 0.08 0.28 0 0.1 0.28 0 0 0.285 0 0.02 0.285 0 0.04 0.285 0 0.06 0.285 0 0.08 0.285 0 0.1 0.285 0 0 0.29 0 0.02 0.29 0 0.04 0.29 0 0.06 0.29 0 0.08 0.29 0 0.1 0.29 0 0 0.295 0 0.02 0.295 0 0.04 0.295 0 0.06 0.295 0 0.08 0.295 0 0.1 0.295 0 0 0.3 0 0.02 0.3 0 0.04 0.3 0 0.06 0.3 0 0.08 0.3 0 0.1 0.3 0 0 0.305 0 0.02 0.305 0 0.04 0.305 0 0.06 0.305 0 0.08 0.305 0 0.1 0.305 0 0 0.31 0 0.02 0.31 0 0.04 0.31 0 0.06 0.31 0 0.08 0.31 0 0.1 0.31 0 0 0.315 0 0.02 0.315 0 0.04 0.315 0 0.06 0.315 0 0.08 0.315 0 0.1 0.315 0 0 0.32 0 0.02 0.32 0 0.04 0.32 0 0.06 0.32 0 0.08 0.32 0 0.1 0.32 0 0 0.325 0 0.02 0.325 0 0.04 0.325 0 0.06 0.325 0 0.08 0.325 0 0.1 0.325 0 0 0.33 0 0.02 0.33 0 0.04 0.33 0 0.06 0.33 0 0.08 0.33 0 0.1 0.33 0 0 0.335 0 0.02 0.335 0 0.04 0.335 0 0.06 0.335 0 0.08 0.335 0 0.1 0.335 0 0 0.34 0 0.02 0.34 0 0.04 0.34 0 0.06 0.34 0 0.08 0.34 0 0.1 0.34 0 0 0.345 0 0.02 0.345 0 0.04 0.345 0 0.06 0.345 0 0.08 0.345 0 0.1 0.345 0 0 0.35 0 0.02 0.35 0 0.04 0.35 0 0.06 0.35 0 0.08 0.35 0 0.1 0.35 0 0 0.355 0 0.02 0.355 0 0.04 0.355 0 0.06 0.355 0 0.08 0.355 0 0.1 0.355 0 0 0.36 0 0.02 0.36 0 0.04 0.36 0 0.06 0.36 0 0.08 0.36 0 0.1 0.36 0 0 0.365 0 0.02 0.365 0 0.04 0.365 0 0.06 0.365 0 0.08 0.365 0 0.1 0.365 0 0 0.37 0 0.02 0.37 0 0.04 0.37 0 0.06 0.37 0 0.08 0.37 0 0.1 0.37 0 0 0.375 0 0.02 0.375 0 0.04 0.375 0 0.06 0.375 0 0.08 0.375 0 0.1 0.375 0 0 0.38 0 0.02 0.38 0 0.04 0.38 0 0.06 0.38 0 0.08 0.38 0 0.1 0.38 0 0 0.385 0 0.02 0.385 0 0.04 0.385 0 0.06 0.385 0 0.08 0.385 0 0.1 0.385 0 0 0.39 0 0.02 0.39 0 0.04 0.39 0 0.06 0.39 0 0.08 0.39 0 0.1 0.39 0 0 0.395 0 0.02 0.395 0 0.04 0.395 0 0.06 0.395 0 0.08 0.395 0 0.1 0.395 0 0 0.4 0 0.02 0.4 0 0.04 0.4 0 0.06 0.4 0 0.08 0.4 0 0.1 0.4 0 0 0.405 0 0.02 0.405 0 0.04 0.405 0 0.06 0.405 0 0.08 0.405 0 0.1 0.405 0 0 0.41 0 0.02 0.41 0 0.04 0.41 0 0.06 0.41 0 0.08 0.41 0 0.1 0.41 0 0 0.415 0 0.02 0.415 0 0.04 0.415 0 0.06 0.415 0 0.08 0.415 0 0.1 0.415 0 0 0.42 0 0.02 0.42 0 0.04 0.42 0 0.06 0.42 0 0.08 0.42 0 0.1 0.42 0 0 0.425 0 0.02 0.425 0 0.04 0.425 0 0.06 0.425 0 0.08 0.425 0 0.1 0.425 0 0 0.43 0 0.02 0.43 0 0.04 0.43 0 0.06 0.43 0 0.08 0.43 0 0.1 0.43 0 0 0.435 0 0.02 0.435 0 0.04 0.435 0 0.06 0.435 0 0.08 0.435 0 0.1 0.435 0 0 0.44 0 0.02 0.44 0 0.04 0.44 0 0.06 0.44 0 0.08 0.44 0 0.1 0.44 0 0 0.445 0 0.02 0.445 0 0.04 0.445 0 0.06 0.445 0 0.08 0.445 0 0.1 0.445 0 0 0.45 0 0.02 0.45 0 0.04 0.45 0 0.06 0.45 0 0.08 0.45 0 0.1 0.45 0 0 0.455 0 0.02 0.455 0 0.04 0.455 0 0.06 0.455 0 0.08 0.455 0 0.1 0.455 0 0 0.46 0 0.02 0.46 0 0.04 0.46 0 0.06 0.46 0 0.08 0.46 0 0.1 0.46 0 0 0.465 0 0.02 0.465 0 0.04 0.465 0 0.06 0.465 0 0.08 0.465 0 0.1 0.465 0 0 0.47 0 0.02 0.47 0 0.04 0.47 0 0.06 0.47 0 0.08 0.47 0 0.1 0.47 0 0 0.475 0 0.02 0.475 0 0.04 0.475 0 0.06 0.475 0 0.08 0.475 0 0.1 0.475 0 0 0.48 0 0.02 0.48 0 0.04 0.48 0 0.06 0.48 0 0.08 0.48 0 0.1 0.48 0 0 0.485 0 0.02 0.485 0 0.04 0.485 0 0.06 0.485 0 0.08 0.485 0 0.1 0.485 0 0 0.49 0 0.02 0.49 0 0.04 0.49 0 0.06 0.49 0 0.08 0.49 0 0.1 0.49 0 0 0.495 0 0.02 0.495 0 0.04 0.495 0 0.06 0.495 0 0.08 0.495 0 0.1 0.495 0 0 0.5 0 0.02 0.5 0 0.04 0.5 0 0.06 0.5 0 0.08 0.5 0 0.1 0.5 0 0 0.505 0 0.02 0.505 0 0.04 0.505 0 0.06 0.505 0 0.08 0.505 0 0.1 0.505 0 0 0.51 0 0.02 0.51 0 0.04 0.51 0 0.06 0.51 0 0.08 0.51 0 0.1 0.51 0 0 0.515 0 0.02 0.515 0 0.04 0.515 0 0.06 0.515 0 0.08 0.515 0 0.1 0.515 0 0 0.52 0 0.02 0.52 0 0.04 0.52 0 0.06 0.52 0 0.08 0.52 0 0.1 0.52 0 0 0.525 0 0.02 0.525 0 0.04 0.525 0 0.06 0.525 0 0.08 0.525 0 0.1 0.525 0 0 0.53 0 0.02 0.53 0 0.04 0.53 0 0.06 0.53 0 0.08 0.53 0 0.1 0.53 0 0 0.535 0 0.02 0.535 0 0.04 0.535 0 0.06 0.535 0 0.08 0.535 0 0.1 0.535 0 0 0.54 0 0.02 0.54 0 0.04 0.54 0 0.06 0.54 0 0.08 0.54 0 0.1 0.54 0 0 0.545 0 0.02 0.545 0 0.04 0.545 0 0.06 0.545 0 0.08 0.545 0 0.1 0.545 0 0 0.55 0 0.02 0.55 0 0.04 0.55 0 0.06 0.55 0 0.08 0.55 0 0.1 0.55 0 0 0.555 0 0.02 0.555 0 0.04 0.555 0 0.06 0.555 0 0.08 0.555 0 0.1 0.555 0 0 0.56 0 0.02 0.56 0 0.04 0.56 0 0.06 0.56 0 0.08 0.56 0 0.1 0.56 0 0 0.565 0 0.02 0.565 0 0.04 0.565 0 0.06 0.565 0 0.08 0.565 0 0.1 0.565 0 0 0.57 0 0.02 0.57 0 0.04 0.57 0 0.06 0.57 0 0.08 0.57 0 0.1 0.57 0 0 0.575 0 0.02 0.575 0 0.04 0.575 0 0.06 0.575 0 0.08 0.575 0 0.1 0.575 0 0 0.58 0 0.02 0.58 0 0.04 0.58 0 0.06 0.58 0 0.08 0.58 0 0.1 0.58 0 0 0.585 0 0.02 0.585 0 0.04 0.585 0 0.06 0.585 0 0.08 0.585 0 0.1 0.585 0 0 0.59 0 0.02 0.59 0 0.04 0.59 0 0.06 0.59 0 0.08 0.59 0 0.1 0.59 0 0 0.595 0 0.02 0.595 0 0.04 0.595 0 0.06 0.595 0 0.08 0.595 0 0.1 0.595 0 0 0.6 0 0.02 0.6 0 0.04 0.6 0 0.06 0.6 0 0.08 0.6 0 0.1 0.6 0 0 0.605 0 0.02 0.605 0 0.04 0.605 0 0.06 0.605 0 0.08 0.605 0 0.1 0.605 0 0 0.61 0 0.02 0.61 0 0.04 0.61 0 0.06 0.61 0 0.08 0.61 0 0.1 0.61 0 0 0.615 0 0.02 0.615 0 0.04 0.615 0 0.06 0.615 0 0.08 0.615 0 0.1 0.615 0 0 0.62 0 0.02 0.62 0 0.04 0.62 0 0.06 0.62 0 0.08 0.62 0 0.1 0.62 0 0 0.625 0 0.02 0.625 0 0.04 0.625 0 0.06 0.625 0 0.08 0.625 0 0.1 0.625 0 0 0.63 0 0.02 0.63 0 0.04 0.63 0 0.06 0.63 0 0.08 0.63 0 0.1 0.63 0 0 0.635 0 0.02 0.635 0 0.04 0.635 0 0.06 0.635 0 0.08 0.635 0 0.1 0.635 0 0 0.64 0 0.02 0.64 0 0.04 0.64 0 0.06 0.64 0 0.08 0.64 0 0.1 0.64 0 0 0.645 0 0.02 0.645 0 0.04 0.645 0 0.06 0.645 0 0.08 0.645 0 0.1 0.645 0 0 0.65 0 0.02 0.65 0 0.04 0.65 0 0.06 0.65 0 0.08 0.65 0 0.1 0.65 0 0 0.655 0 0.02 0.655 0 0.04 0.655 0 0.06 0.655 0 0.08 0.655 0 0.1 0.655 0 0 0.66 0 0.02 0.66 0 0.04 0.66 0 0.06 0.66 0 0.08 0.66 0 0.1 0.66 0 0 0.665 0 0.02 0.665 0 0.04 0.665 0 0.06 0.665 0 0.08 0.665 0 0.1 0.665 0 0 0.67 0 0.02 0.67 0 0.04 0.67 0 0.06 0.67 0 0.08 0.67 0 0.1 0.67 0 0 0.675 0 0.02 0.675 0 0.04 0.675 0 0.06 0.675 0 0.08 0.675 0 0.1 0.675 0 0 0.68 0 0.02 0.68 0 0.04 0.68 0 0.06 0.68 0 0.08 0.68 0 0.1 0.68 0 0 0.685 0 0.02 0.685 0 0.04 0.685 0 0.06 0.685 0 0.08 0.685 0 0.1 0.685 0 0 0.69 0 0.02 0.69 0 0.04 0.69 0 0.06 0.69 0 0.08 0.69 0 0.1 
[...]
			<PointData Scalars="VitesseX">
				<DataArray Name="VitesseX" type="Float32" format="ascii">
 0 7.48363e-15 5.89144e-14 4.53389e-14 5.18284e-15 0 0 1.95059e-14 4.64983e-14 4.7107e-14 7.00647e-15 0 0 2.89143e-14 4.30296e-14 2.89257e-14 2.24802e-14 0 0 4.11252e-14 2.3133e-14 3.30585e-14 2.00746e-14 0 0 3.90669e-14 7.81909e-15 4.21139e-14 1.12216e-14 0 0 1.28511e-14 3.20847e-14 9.3759e-15 3.26854e-14 0 0 -4.42645e-15 5.10506e-14 -1.45723e-14 4.81116e-14 0 0 -2.3953e-15 4.11692e-14 1.30227e-15 3.42908e-14 0 0 4.91461e-15 3.26186e-14 8.4572e-15 2.74432e-14 0 0 4.68558e-15 3.20121e-14 1.54256e-14 1.1025e-14 0 0 2.19093e-14 -8.4967e-17 6.34778e-14 -3.52617e-14 0 0 2.26622e-15 2.60938e-14 3.52748e-14 -1.43189e-14 0 0 -1.84343e-14 3.62942e-14 2.92753e-14 -1.4243e-15 0 0 -3.55909e-15 1.63453e-14 4.7685e-14 -1.33178e-14 0 0 3.27372e-15 3.29995e-14 5.88158e-15 2.62563e-14 0 0 2.60137e-14 1.05303e-14 2.11432e-14 3.85406e-14 0 0 2.8664e-14 7.54999e-15 5.43497e-14 2.79952e-14 0 0 4.17817e-14 -6.54092e-15 8.25283e-14 2.84449e-14 0 0 2.56965e-14 4.70557e-14 3.4146e-14 6.00563e-14 0 0 9.46863e-15 9.83215e-14 -2.32042e-15 7.01262e-14 0 0 1.82116e-14 8.4371e-14 4.53678e-14 2.43294e-14 0 0 3.17875e-14 3.91063e-14 1.15064e-13 -2.58572e-14 0 0 5.09944e-14 1.94977e-14 1.20646e-13 -3.61018e-14 0 0 4.99102e-14 2.88623e-14 1.24992e-13 -6.18174e-14 0 0 2.9597e-14 5.67614e-14 1.18527e-13 -8.45219e-14 0 0 -1.08874e-14 1.44113e-13 3.67077e-14 -6.84575e-14 0 0 2.7156e-14 8.99844e-14 8.08751e-14 -9.61622e-14 0 0 7.7349e-14 7.87867e-15 1.35024e-13 -1.07176e-13 0 0 5.15797e-14 3.86653e-14 1.09717e-13 -1.04472e-13 0 0 1.53908e-14 1.05217e-13 1.74978e-14 -5.205e-14 0 0 3.02432e-14 8.12396e-14 -6.95668e-15 1.56128e-14 0 0 6.65499e-14 3.18205e-14 5.77812e-14 -2.68283e-14 0 0 5.1593e-14 9.60149e-14 1.66458e-14 -2.65928e-14 0 0 8.27411e-15 1.82465e-13 -7.50679e-14 8.14194e-14 0 0 3.00394e-15 1.82352e-13 -8.24535e-14 1.51875e-13 0 0 -4.85118e-15 1.52497e-13 -8.28644e-15 9.69375e-14 0 0 2.47779e-14 9.54359e-14 6.55838e-14 4.64173e-14 0 0 5.50081e-14 7.6269e-14 8.14346e-14 8.13473e-14 0 0 7.2378e-14 6.95389e-14 8.97298e-14 9.23822e-14 0 0 6.5445e-14 8.37858e-14 5.30132e-14 1.13348e-13 0 0 3.74682e-15 1.01508e-13 7.62673e-14 7.47311e-14 0 0 -2.07165e-14 5.59637e-14 1.74884e-13 -3.37841e-14 0 0 -9.72657e-14 1.98134e-13 1.55106e-14 4.29778e-14 0 0 -1.20903e-13 2.42039e-13 -4.22745e-14 7.09437e-14 0 0 -4.5004e-14 7.20985e-14 1.55303e-13 -6.96964e-14 0 0 -3.89949e-14 1.54261e-14 2.46367e-13 -1.31276e-13 0 0 -2.8586e-15 -5.55284e-14 3.14561e-13 -1.45152e-13 0 0 -2.91828e-14 3.69109e-16 2.71025e-13 -9.26454e-14 0 0 -1.20939e-13 1.58628e-13 1.44959e-13 -1.4669e-14 0 0 -2.27303e-13 3.27892e-13 -1.31384e-14 8.00591e-14 0 0 -2.94131e-13 4.00061e-13 -5.63003e-14 9.58912e-14 0 0 -1.75859e-13 2.47725e-13 9.26295e-14 3.22952e-16 0 0 -1.32451e-13 2.61617e-13 4.62541e-14 4.82793e-14 0 0 -3.18377e-14 1.07529e-13 1.88248e-13 1.5514e-15 0 0 -5.05653e-14 1.01361e-13 2.96927e-13 -1.05167e-13 0 0 -2.74258e-13 4.06492e-13 9.11198e-14 -3.51439e-14 0 0 -1.49238e-13 2.61351e-13 1.33239e-13 6.95616e-16 0 0 -3.23627e-14 1.3516e-13 1.60401e-13 6.5102e-14 0 0 -6.60549e-14 2.00807e-13 3.276e-14 1.90152e-13 0 0 9.96691e-15 1.00107e-13 1.07721e-13 1.495e-13 0 0 5.84709e-15 9.04211e-14 1.57618e-13 5.27068e-14 0 0 -8.1552e-15 1.59995e-13 5.45347e-14 8.07999e-14 0 0 -2.22378e-14 2.31823e-13 -4.91887e-14 1.81341e-13 0 0 1.63397e-14 2.14137e-13 -7.07131e-15 1.56174e-13 0 0 4.59632e-14 2.20968e-13 -1.83017e-14 2.24038e-13 0 0 5.52107e-14 1.84763e-13 7.42239e-14 2.47944e-13 0 0 2.31737e-13 -8.93786e-14 4.17768e-13 4.75556e-14 0 0 7.14242e-14 1.6459e-13 1.69637e-13 2.46565e-13 0 0 -8.05053e-14 3.85914e-13 2.36853e-15 3.63214e-13 0 0 -1.55141e-14 2.44592e-13 2.31751e-13 1.92432e-13 0 0 -9.65964e-14 2.74168e-13 2.64907e-13 1.40797e-13 0 0 -1.07726e-13 2.31804e-13 3.43788e-13 8.4784e-14 0 0 -2.82373e-13 4.21909e-13 2.1596e-13 2.16366e-13 0 0 -3.12307e-13 3.76575e-13 3.24743e-13 1.92403e-13 0 0 -2.53291e-13 3.03245e-13 3.3232e-13 2.58429e-13 0 0 -1.47933e-13 1.69707e-13 3.75818e-13 2.26532e-13 0 0 -9.97793e-14 5.132e-14 5.57175e-13 -3.00177e-14 0 0 -3.83203e-13 6.05894e-13 -3.16916e-14 3.56505e-13 0 0 -1.19177e-13 2.98314e-13 1.28892e-13 4.17651e-13 0 0 -2.87156e-13 4.3561e-13 1.903e-13 3.54977e-13 0 0 -4.6478e-13 7.21732e-13 2.04267e-13 2.34359e-13 0 0 1.80428e-13 7.56162e-15 8.50826e-13 -2.2184e-13 0 0 3.41328e-13 1.70805e-13 4.51615e-13 2.56938e-14 0 0 3.25874e-13 3.08066e-13 3.93206e-14 4.50573e-13 0 0 5.75984e-13 1.71726e-13 2.07034e-13 3.38974e-13 0 0 4.01271e-13 5.81427e-13 2.98094e-13 1.56205e-13 0 0 6.1129e-13 1.46546e-12 8.14777e-13 4.20656e-13 0 0 2.50231e-12 4.41552e-12 3.949e-12 2.12598e-12 0 0 1.03414e-11 1.67139e-11 1.71167e-11 1.00593e-11 0 0 3.77767e-11 6.22606e-11 6.46454e-11 4.02908e-11 0 0 1.18213e-10 1.99966e-10 2.10712e-10 1.35472e-10 0 0 2.99782e-10 5.18636e-10 5.61026e-10 3.70242e-10 0 0 4.6173e-10 9.29142e-10 1.13832e-09 8.01906e-10 0 0 -9.26563e-10 -9.7839e-10 -3.14595e-10 1.52672e-10 0 0 -9.38766e-09 -1.38196e-08 -1.20984e-08 -6.60676e-09 0 0 -4.32957e-08 -6.77923e-08 -6.49174e-08 -3.86447e-08 0 0 -1.50433e-07 -2.44468e-07 -2.45388e-07 -1.51919e-07 0 0 -4.34566e-07 -7.30726e-07 -7.63256e-07 -4.87204e-07 0 0 -1.08471e-06 -1.89399e-06 -2.06001e-06 -1.35348e-06 0 0 -2.44037e-06 -4.40159e-06 -4.95076e-06 -3.35052e-06 0 0 -4.7715e-06 -9.06173e-06 -1.10506e-05 -7.60393e-06 0 0 -9.07535e-06 -1.77801e-05 -2.14906e-05 -1.52717e-05 0 0 -1.43914e-05 -3.24175e-05 -4.09822e-05 -3.16342e-05 0 0 -2.20009e-05 -5.08214e-05 -7.19294e-05 -5.21181e-05 0 0 -3.27224e-05 -7.49017e-05 -0.000108213 -8.3099e-05 0 0 -4.56251e-05 -0.000113414 -0.000157151 -0.000118526 0 0 -7.0683e-05 -0.00015681 -0.000205334 -0.000150649 0 0 -9.83045e-05 -0.00019853 -0.00025031 -0.000176888 0 0 -0.000122922 -0.000235321 -0.000293261 -0.000197302 0 0 -0.000141104 -0.000272736 -0.000333948 -0.000210617 0 0 -0.000173966 -0.000333742 -0.00036709 -0.00022798 0 0 -0.000221294 -0.00041147 -0.000412208 -0.000268459 0 0 -0.000269671 -0.000485031 -0.000470286 -0.000280815 0 0 -0.000283544 -0.000542164 -0.000530773 -0.000269529 0 0 -0.000279755 -0.000590021 -0.00059313 -0.000213116 0 0 -0.0002657 -0.000627834 -0.000610208 -0.000113569 0 0 -0.000254974 -0.000624524 -0.000601806 -8.6751e-05 0 0 -0.000234197 -0.000590827 -0.000555119 -8.98737e-05 0 0 -0.000199042 -0.000483202 -0.000446562 -0.000108752 0 0 -0.000155334 -0.000335335 -0.000366755 -0.000169821 0 0 -0.000121721 -0.000217713 -0.000308596 -0.000332295 0 0 -6.13177e-05 3.24925e-05 -9.82882e-05 -0.000340163 0 0 9.70084e-05 0.000441337 0.000524446 4.34914e-05 0 0 0.000245785 0.000588247 0.000733799 0.000441631 0 0 0.000264955 0.000575648 0.000715273 0.000467023 0 0 0.000263534 0.000531868 0.000641638 0.000443469 0 0 0.000259323 0.000482482 0.000553134 0.000378652 0 0 0.000252317 0.000443225 0.000480423 0.000317582 0 0 0.000240966 0.000414116 0.000432509 0.000275221 0 0 0.000223084 0.000381361 0.00040047 0.000253164 0 0 0.000199642 0.000340494 0.000361116 0.000232792 0 0 0.000172068 0.000293114 0.00031147 0.000201778 0 0 0.00014137 0.000240514 0.000255416 0.000165493 0 0 0.000109045 0.000185147 0.000196175 0.000126892 0 0 7.72145e-05 0.000130686 0.000137936 8.89441e-05 0 0 4.90411e-05 8.26405e-05 8.67573e-05 5.5702e-05 0 0 2.72892e-05 4.57326e-05 4.76929e-05 3.04611e-05 0 0 1.28935e-05 2.14672e-05 2.2216e-05 1.41052e-05 0 0 5.07797e-06 8.39899e-06 8.62502e-06 5.44356e-06 0 0 1.69509e-06 2.78727e-06 2.84232e-06 1.78417e-06 0 0 4.99451e-07 8.17431e-07 8.28927e-07 5.18051e-07 0 0 1.36602e-07 2.22805e-07 2.25004e-07 1.40159e-07 0 0 3.56958e-08 5.80797e-08 5.8478e-08 3.63409e-08 0 0 9.03234e-09 1.46713e-08 1.47405e-08 9.14509e-09 0 0 2.22549e-09 3.61026e-09 3.62201e-09 2.2443e-09 0 0 5.35286e-10 8.67247e-10 8.69355e-10 5.38013e-10 0 0 1.25876e-10 2.03851e-10 2.03981e-10 1.26129e-10 0 0 2.90105e-11 4.72793e-11 4.66902e-11 2.91475e-11 0 0 6.69733e-12 1.10486e-11 1.04981e-11 6.73965e-12 0 0 1.85025e-12 2.55749e-12 2.65095e-12 1.55908e-12 0 0 7.02299e-13 7.89473e-13 8.4533e-13 5.07595e-13 0 0 2.76391e-13 6.84995e-13 2.7983e-13 3.66147e-13 0 0 2.26362e-13 6.10126e-13 2.47173e-13 2.93757e-13 0 0 2.9739e-13 5.00985e-13 3.22967e-13 3.23546e-13 0 0 4.38576e-13 3.05889e-13 5.05627e-13 3.66774e-13 0 0 3.7396e-13 3.92007e-13 5.24542e-13 3.35751e-13 0 0 1.85685e-13 7.1635e-13 2.47634e-13 5.47274e-13 0 0 3.79251e-14 1.03629e-12 1.49812e-14 7.16824e-13 0 0 2.61098e-13 7.18875e-13 4.2207e-13 4.94061e-13 0 0 6.39396e-13 1.67426e-13 8.42363e-13 3.98613e-13 0 0 5.87092e-13 2.9748e-13 7.37467e-13 2.88386e-13 0 0 1.71187e-13 1.02383e-12 8.88643e-14 6.22004e-13 0 0 9.29396e-14 1.13775e-12 -1.00793e-13 9.10122e-13 0 0 5.84371e-13 3.38105e-13 6.33452e-13 3.33658e-13 0 0 5.82127e-13 4.75655e-13 4.97819e-13 3.41558e-13 0 0 4.3647e-13 7.32349e-13 3.56655e-13 4.08245e-13 0 0 4.34318e-13 7.08473e-13 5.50276e-13 1.55055e-13 0 0 1.91066e-13 9.52708e-13 5.29558e-13 7.71763e-14 0 0 3.3954e-13 5.79218e-13 8.30812e-13 -1.39862e-16 0 0 4.94581e-13 4.14811e-13 7.52568e-13 2.35946e-13 0 0 3.79808e-13 6.82753e-13 4.88748e-13 4.436e-13 0 0 4.38636e-13 6.432e-13 6.1065e-13 2.95611e-13 0 0 3.49451e-13 7.72887e-13 5.43009e-13 2.70047e-13 0 0 2.09134e-13 9.3293e-13 4.40961e-13 3.09228e-13 0 0 2.44473e-13 9.17668e-13 4.15217e-13 3.65669e-13 0 0 4.57008e-13 6.9871e-13 4.8583e-13 4.66417e-13 0 0 5.26787e-13 4.8199e-13 8.00087e-13 3.07372e-13 0 0 3.23455e-13 6.99341e-13 5.66455e-13 3.94906e-13 0 0 3.35434e-13 7.12028e-13 4.16018e-13 4.51502e-13 0 0 1.96592e-13 7.8552e-13 4.9471e-13 3.31781e-13 0 0 1.36333e-13 7.63705e-13 5.84487e-13 2.56496e-13 0 0 3.83554e-13 4.66648e-13 6.26499e-13 3.00903e-13 0 0 6.12083e-13 2.10349e-13 6.20095e-13 3.47976e-13 0 0 7.07881e-13 1.61511e-13 5.76531e-13 3.72848e-13 0 0 5.54459e-13 4.35576e-13 3.79846e-13 3.55604e-13 0 0 4.41409e-13 4.37873e-13 5.2671e-13 1.11507e-13 0 0 4.15736e-13 3.69608e-13 6.04946e-13 9.84687e-14 0 0 3.57648e-13 6.03958e-13 3.02501e-13 3.07703e-13 0 0 4.96537e-13 5.47863e-13 3.55995e-13 2.5814e-13 0 0 3.50311e-13 6.63122e-13 4.97168e-13 7.86728e-14 0 0 2.94354e-13 5.66417e-13 7.46861e-13 -1.57273e-13 0 0 6.55478e-13 -5.44854e-14 1.18331e-12 -2.7469e-13 0 0 2.44068e-13 5.4943e-13 4.75385e-13 3.76678e-13 0 0 -2.19472e-13 1.3034e-12 -2.73322e-13 8.8261e-13 0 0 2.43547e-13 5.55822e-13 4.33798e-13 5.08926e-13 0 0 7.22504e-13 -2.27125e-13 1.16633e-12 1.94121e-13 0 0 3.47579e-13 3.20216e-13 8.01555e-13 2.01184e-13 0 0 -2.99784e-13 1.27389e-12 -1.05954e-13 7.43998e-13 0 0 2.47898e-14 8.49275e-13 3.15161e-14 9.8035e-13 0 0 8.75074e-13 -4.69701e-13 1.10519e-12 5.13553e-13 0 0 1.15369e-12 -9.59989e-13 1.47434e-12 3.92809e-13 0
				</DataArray>
				<DataArray Name="VitesseY" type="Float32" format="ascii">