<?xml version="1.0"?>
<VTKFile type="PolyData">
	<PolyData>
		<Piece NumberOfPoints="1206" NumberOfPolys="1000">
			<Points>
				<DataArray type="Float32" NumberOfComponents="3" format="ascii">
 0 0 0 0.02 0 0 0.04 0 0 0.06 0 0 0.08 0 0 0.1 0 0 0 0.005 0 0.02 0.005 0 0.04 0.005 0 0.06 0.005 0 0.08 0.005 0 0.1 0.005 0 0 0.01 0 0.02 0.01 0 0.04 0.01 0 0.06 0.01 0 0.08 0.01 0 0.1 0.01 0 0 0.015 0 0.02 0.015 0 0.04 0.015 0 0.06 0.015 0 0.08 0.015 0 0.1 0.015 0 0 0.02 0 0.02 0.02 0 0.04 0.02 0 0.06 0.02 0 0.08 0.02 0 0.1 0.02 0 0 0.025 0 0.02 0.025 0 0.04 0.025 0 0.06 0.025 0 0.08 0.025 0 0.1 0.025 0 0 0.03 0 0.02 0.03 0 0.04 0.03 0 0.06 0.03 0 0.08 0.03 0 0.1 0.03 0 0 0.035 0 0.02 0.035 0 0.04 0.035 0 0.06 0.035 0 0.08 0.035 0 0.1 0.035 0 0 0.04 0 0.02 0.04 0 0.04 0.04 0 0.06 0.04 0 0.08 0.04 0 0.1 0.04 0 0 0.045 0 0.02 0.045 0 0.04 0.045 0 0.06 0.045 0 0.08 0.045 0 0.1 0.045 0 0 0.05 0 0.02 0.05 0 0.04 0.05 0 0.06 0.05 0 0.08 0.05 0 0.1 0.05 0 0 0.055 0 0.02 0.055 0 0.04 0.055 0 0.06 0.055 0 0.08 0.055 0 0.1 0.055 0 0 0.06 0 0.02 0.06 0 0.04 0.06 0 0.06 0.06 0 0.08 0.06 0 0.1 0.06 0 0 0.065 0 0.02 0.065 0 0.04 0.065 0 0.06 0.065 0 0.08 0.065 0 0.1 0.065 0 0 0.07 0 0.02 0.07 0 0.04 0.07 0 0.06 0.07 0 0.08 0.07 0 0.1 0.07 0 0 0.075 0 0.02 0.075 0 0.04 0.075 0 0.06 0.075 0 0.08 0.075 0 0.1 0.075 0 0 0.08 0 0.02 0.08 0 0.04 0.08 0 0.06 0.08 0 0.08 0.08 0 0.1 0.08 0 0 0.085 0 0.02 0.085 0 0.04 0.085 0 0.06 0.085 0 0.08 0.085 0 0.1 0.085 0 0 0.09 0 0.02 0.09 0 0.04 0.09 0 0.06 0.09 0 0.08 0.09 0 0.1 0.09 0 0 0.095 0 0.02 0.095 0 0.04 0.095 0 0.06 0.095 0 0.08 0.095 0 0.1 0.095 0 0 0.1 0 0.02 0.1 0 0.04 0.1 0 0.06 0.1 0 0.08 0.1 0 0.1 0.1 0 0 0.105 0 0.02 0.105 0 0.04 0.105 0 0.06 0.105 0 0.08 0.105 0 0.1 0.105 0 0 0.11 0 0.02 0.11 0 0.04 0.11 0 0.06 0.11 0 0.08 0.11 0 0.1 0.11 0 0 0.115 0 0.02 0.115 0 0.04 0.115 0 0.06 0.115 0 0.08 0.115 0 0.1 0.115 0 0 0.12 0 0.02 0.12 0 0.04 0.12 0 0.06 0.12 0 0.08 0.12 0 0.1 0.12 0 0 0.125 0 0.02 0.125 0 0.04 0.125 0 0.06 0.125 0 0.08 0.125 0 0.1 0.125 0 0 0.13 0 0.02 0.13 0 0.04 0.13 0 0.06 0.13 0 0.08 0.13 0 0.1 0.13 0 0 0.135 0 0.02 0.135 0 0.04 0.135 0 0.06 0.135 0 0.08 0.135 0 0.1 0.135 0 0 0.14 0 0.02 0.14 0 0.04 0.14 0 0.06 0.14 0 0.08 0.14 0 0.1 0.14 0 0 0.145 0 0.02 0.145 0 0.04 0.145 0 0.06 0.145 0 0.08 0.145 0 0.1 0.145 0 0 0.15 0 0.02 0.15 0 0.04 0.15 0 0.06 0.15 0 0.08 0.15 0 0.1 0.15 0 0 0.155 0 0.02 0.155 0 0.04 0.155 0 0.06 0.155 0 0.08 0.155 0 0.1 0.155 0 0 0.16 0 0.02 0.16 0 0.04 0.16 0 0.06 0.16 0 0.08 0.16 0 0.1 0.16 0 0 0.165 0 0.02 0.165 0 0.04 0.165 0 0.06 0.165 0 0.08 0.165 0 0.1 0.165 0 0 0.17 0 0.02 0.17 0 0.04 0.17 0 0.06 0.17 0 0.08 0.17 0 0.1 0.17 0 0 0.175 0 0.02 0.175 0 0.04 0.175 0 0.06 0.175 0 0.08 0.175 0 0.1 0.175 0 0 0.18 0 0.02 0.18 0 0.04 0.18 0 0.06 0.18 0 0.08 0.18 0 0.1 0.18 0 0 0.185 0 0.02 0.185 0 0.04 0.185 0 0.06 0.185 0 0.08 0.185 0 0.1 0.185 0 0 0.19 0 0.02 0.19 0 0.04 0.19 0 0.06 0.19 0 0.08 0.19 0 0.1 0.19 0 0 0.195 0 0.02 0.195 0 0.04 0.195 0 0.06 0.195 0 0.08 0.195 0 0.1 0.195 0 0 0.2 0 0.02 0.2 0 0.04 0.2 0 0.06 0.2 0 0.08 0.2 0 0.1 0.2 0 0 0.205 0 0.02 0.205 0 0.04 0.205 0 0.06 0.205 0 0.08 0.205 0 0.1 0.205 0 0 0.21 0 0.02 0.21 0 0.04 0.21 0 0.06 0.21 0 0.08 0.21 0 0.1 0.21 0 0 0.215 0 0.02 0.215 0 0.04 0.215 0 0.06 0.215 0 0.08 0.215 0 0.1 0.215 0 0 0.22 0 0.02 0.22 0 0.04 0.22 0 0.06 0.22 0 0.08 0.22 0 0.1 0.22 0 0 0.225 0 0.02 0.225 0 0.04 0.225 0 0.06 0.225 0 0.08 0.225 0 0.1 0.225 0 0 0.23 0 0.02 0.23 0 0.04 0.23 0 0.06 0.23 0 0.08 0.23 0 0.1 0.23 0 0 0.235 0 0.02 0.235 0 0.04 0.235 0 0.06 0.235 0 0.08 0.235 0 0.1 0.235 0 0 0.24 0 0.02 0.24 0 0.04 0.24 0 0.06 0.24 0 0.08 0.24 0 0.1 0.24 0 0 0.245 0 0.02 0.245 0 0.04 0.245 0 0.06 0.245 0 0.08 0.245 0 0.1 0.245 0 0 0.25 0 0.02 0.25 0 0.04 0.25 0 0.06 0.25 0 0.08 0.25 0 0.1 0.25 0 0 0.255 0 0.02 0.255 0 0.04 0.255 0 0.06 0.255 0 0.08 0.255 0 0.1 0.255 0 0 0.26 0 0.02 0.26 0 0.04 0.26 0 0.06 0.26 0 0.08 0.26 0 0.1 0.26 0 0 0.265 0 0.02 0.265 0 0.04 0.265 0 0.06 0.265 0 0.08 0.265 0 0.1 0.265 0 0 0.27 0 0.02 0.27 0 0.04 0.27 0 0.06 0.27 0 0.08 0.27 0 0.1 0.27 0 0 0.275 0 0.02 0.275 0 0.04 0.275 0 0.06 0.275 0 0.08 0.275 0 0.1 0.275 0 0 0.28 0 0.02 0.28 0 0.04 0.28 0 0.06 0.28 0 0.08 0.28 0 0.1 0.28 0 0 0.285 0 0.02 0.285 0 0.04 0.285 0 0.06 0.285 0 0.08 0.285 0 0.1 0.285 0 0 0.29 0 0.02 0.29 0 0.04 0.29 0 0.06 0.29 0 0.08 0.29 0 0.1 0.29 0 0 0.295 0 0.02 0.295 0 0.04 0.295 0 0.06 0.295 0 0.08 0.295 0 0.1 0.295 0 0 0.3 0 0.02 0.3 0 0.04 0.3 0 0.06 0.3 0 0.08 0.3 0 0.1 0.3 0 0 0.305 0 0.02 0.305 0 0.04 0.305 0 0.06 0.305 0 0.08 0.305 0 0.1 0.305 0 0 0.31 0 0.02 0.31 0 0.04 0.31 0 0.06 0.31 0 0.08 0.31 0 0.1 0.31 0 0 0.315 0 0.02 0.315 0 0.04 0.315 0 0.06 0.315 0 0.08 0.315 0 0.1 0.315 0 0 0.32 0 0.02 0.32 0 0.04 0.32 0 0.06 0.32 0 0.08 0.32 0 0.1 0.32 0 0 0.325 0 0.02 0.325 0 0.04 0.325 0 0.06 0.325 0 0.08 0.325 0 0.1 0.325 0 0 0.33 0 0.02 0.33 0 0.04 0.33 0 0.06 0.33 0 0.08 0.33 0 0.1 0.33 0 0 0.335 0 0.02 0.335 0 0.04 0.335 0 0.06 0.335 0 0.08 0.335 0 0.1 0.335 0 0 0.34 0 0.02 0.34 0 0.04 0.34 0 0.06 0.34 0 0.08 0.34 0 0.1 0.34 0 0 0.345 0 0.02 0.345 0 0.04 0.345 0 0.06 0.345 0 0.08 0.345 0 0.1 0.345 0 0 0.35 0 0.02 0.35 0 0.04 0.35 0 0.06 0.35 0 0.08 0.35 0 0.1 0.35 0 0 0.355 0 0.02 0.355 0 0.04 0.355 0 0.06 0.355 0 0.08 0.355 0 0.1 0.355 0 0 0.36 0 0.02 0.36 0 0.04 0.36 0 0.06 0.36 0 0.08 0.36 0 0.1 0.36 0 0 0.365 0 0.02 0.365 0 0.04 0.365 0 0.06 0.365 0 0.08 0.365 0 0.1 0.365 0 0 0.37 0 0.02 0.37 0 0.04 0.37 0 0.06 0.37 0 0.08 0.37 0 0.1 0.37 0 0 0.375 0 0.02 0.375 0 0.04 0.375 0 0.06 0.375 0 0.08 0.375 0 0.1 0.375 0 0 0.38 0 0.02 0.38 0 0.04 0.38 0 0.06 0.38 0 0.08 0.38 0 0.1 0.38 0 0 0.385 0 0.02 0.385 0 0.04 0.385 0 0.06 0.385 0 0.08 0.385 0 0.1 0.385 0 0 0.39 0 0.02 0.39 0 0.04 0.39 0 0.06 0.39 0 0.08 0.39 0 0.1 0.39 0 0 0.395 0 0.02 0.395 0 0.04 0.395 0 0.06 0.395 0 0.08 0.395 0 0.1 0.395 0 0 0.4 0 0.02 0.4 0 0.04 0.4 0 0.06 0.4 0 0.08 0.4 0 0.1 0.4 0 0 0.405 0 0.02 0.405 0 0.04 0.405 0 0.06 0.405 0 0.08 0.405 0 0.1 0.405 0 0 0.41 0 0.02 0.41 0 0.04 0.41 0 0.06 0.41 0 0.08 0.41 0 0.1 0.41 0 0 0.415 0 0.02 0.415 0 0.04 0.415 0 0.06 0.415 0 0.08 0.415 0 0.1 0.415 0 0 0.42 0 0.02 0.42 0 0.04 0.42 0 0.06 0.42 0 0.08 0.42 0 0.1 0.42 0 0 0.425 0 0.02 0.425 0 0.04 0.425 0 0.06 0.425 0 0.08 0.425 0 0.1 0.425 0 0 0.43 0 0.02 0.43 0 0.04 0.43 0 0.06 0.43 0 0.08 0.43 0 0.1 0.43 0 0 0.435 0 0.02 0.435 0 0.04 0.435 0 0.06 0.435 0 0.08 0.435 0 0.1 0.435 0 0 0.44 0 0.02 0.44 0 0.04 0.44 0 0.06 0.44 0 0.08 0.44 0 0.1 0.44 0 0 0.445 0 0.02 0.445 0 0.04 0.445 0 0.06 0.445 0 0.08 0.445 0 0.1 0.445 0 0 0.45 0 0.02 0.45 0 0.04 0.45 0 0.06 0.45 0 0.08 0.45 0 0.1 0.45 0 0 0.455 0 0.02 0.455 0 0.04 0.455 0 0.06 0.455 0 0.08 0.455 0 0.1 0.455 0 0 0.46 0 0.02 0.46 0 0.04 0.46 0 0.06 0.46 0 0.08 0.46 0 0.1 0.46 0 0 0.465 0 0.02 0.465 0 0.04 0.465 0 0.06 0.465 0 0.08 0.465 0 0.1 0.465 0 0 0.47 0 0.02 0.47 0 0.04 0.47 0 0.06 0.47 0 0.08 0.47 0 0.1 0.47 0 0 0.475 0 0.02 0.475 0 0.04 0.475 0 0.06 0.475 0 0.08 0.475 0 0.1 0.475 0 0 0.48 0 0.02 0.48 0 0.04 0.48 0 0.06 0.48 0 0.08 0.48 0 0.1 0.48 0 0 0.485 0 0.02 0.485 0 0.04 0.485 0 0.06 0.485 0 0.08 0.485 0 0.1 0.485 0 0 0.49 0 0.02 0.49 0 0.04 0.49 0 0.06 0.49 0 0.08 0.49 0 0.1 0.49 0 0 0.495 0 0.02 0.495 0 0.04 0.495 0 0.06 0.495 0 0.08 0.495 0 0.1 0.495 0 0 0.5 0 0.02 0.5 0 0.04 0.5 0 0.06 0.5 0 0.08 0.5 0 0.1 0.5 0 0 0.505 0 0.02 0.505 0 0.04 0.505 0 0.06 0.505 0 0.08 0.505 0 0.1 0.505 0 0 0.51 0 0.02 0.51 0 0.04 0.51 0 0.06 0.51 0 0.08 0.51 0 0.1 0.51 0 0 0.515 0 0.02 0.515 0 0.04 0.515 0 0.06 0.515 0 0.08 0.515 0 0.1 0.515 0 0 0.52 0 0.02 0.52 0 0.04 0.52 0 0.06 0.52 0 0.08 0.52 0 0.1 0.52 0 0 0.525 0 0.02 0.525 0 0.04 0.525 0 0.06 0.525 0 0.08 0.525 0 0.1 0.525 0 0 0.53 0 0.02 0.53 0 0.04 0.53 0 0.06 0.53 0 0.08 0.53 0 0.1 0.53 0 0 0.535 0 0.02 0.535 0 0.04 0.535 0 0.06 0.535 0 0.08 0.535 0 0.1 0.535 0 0 0.54 0 0.02 0.54 0 0.04 0.54 0 0.06 0.54 0 0.08 0.54 0 0.1 0.54 0 0 0.545 0 0.02 0.545 0 0.04 0.545 0 0.06 0.545 0 0.08 0.545 0 0.1 0.545 0 0 0.55 0 0.02 0.55 0 0.04 0.55 0 0.06 0.55 0 0.08 0.55 0 0.1 0.55 0 0 0.555 0 0.02 0.555 0 0.04 0.555 0 0.06 0.555 0 0.08 0.555 0 0.1 0.555 0 0 0.56 0 0.02 0.56 0 0.04 0.56 0 0.06 0.56 0 0.08 0.56 0 0.1 0.56 0 0 0.565 0 0.02 0.565 0 0.04 0.565 0 0.06 0.565 0 0.08 0.565 0 0.1 0.565 0 0 0.57 0 0.02 0.57 0 0.04 0.57 0 0.06 0.57 0 0.08 0.57 0 0.1 0.57 0 0 0.575 0 0.02 0.575 0 0.04 0.575 0 0.06 0.575 0 0.08 0.575 0 0.1 0.575 0 0 0.58 0 0.02 0.58 0 0.04 0.58 0 0.06 0.58 0 0.08 0.58 0 0.1 0.58 0 0 0.585 0 0.02 0.585 0 0.04 0.585 0 0.06 0.585 0 0.08 0.585 0 0.1 0.585 0 0 0.59 0 0.02 0.59 0 0.04 0.59 0 0.06 0.59 0 0.08 0.59 0 0.1 0.59 0 0 0.595 0 0.02 0.595 0 0.04 0.595 0 0.06 0.595 0 0.08 0.595 0 0.1 0.595 0 0 0.6 0 0.02 0.6 0 0.04 0.6 0 0.06 0.6 0 0.08 0.6 0 0.1 0.6 0 0 0.605 0 0.02 0.605 0 0.04 0.605 0 0.06 0.605 0 0.08 0.605 0 0.1 0.605 0 0 0.61 0 0.02 0.61 0 0.04 0.61 0 0.06 0.61 0 0.08 0.61 0 0.1 0.61 0 0 0.615 0 0.02 0.615 0 0.04 0.615 0 0.06 0.615 0 0.08 0.615 0 0.1 0.615 0 0 0.62 0 0.02 0.62 0 0.04 0.62 0 0.06 0.62 0 0.08 0.62 0 0.1 0.62 0 0 0.625 0 0.02 0.625 0 0.04 0.625 0 0.06 0.625 0 0.08 0.625 0 0.1 0.625 0 0 0.63 0 0.02 0.63 0 0.04 0.63 0 0.06 0.63 0 0.08 0.63 0 0.1 0.63 0 0 0.635 0 0.02 0.635 0 0.04 0.635 0 0.06 0.635 0 0.08 0.635 0 0.1 0.635 0 0 0.64 0 0.02 0.64 0 0.04 0.64 0 0.06 0.64 0 0.08 0.64 0 0.1 0.64 0 0 0.645 0 0.02 0.645 0 0.04 0.645 0 0.06 0.645 0 0.08 0.645 0 0.1 0.645 0 0 0.65 0 0.02 0.65 0 0.04 0.65 0 0.06 0.65 0 0.08 0.65 0 0.1 0.65 0 0 0.655 0 0.02 0.655 0 0.04 0.655 0 0.06 0.655 0 0.08 0.655 0 0.1 0.655 0 0 0.66 0 0.02 0.66 0 0.04 0.66 0 0.06 0.66 0 0.08 0.66 0 0.1 0.66 0 0 0.665 0 0.02 0.665 0 0.04 0.665 0 0.06 0.665 0 0.08 0.665 0 0.1 0.665 0 0 0.67 0 0.02 0.67 0 0.04 0.67 0 0.06 0.67 0 0.08 0.67 0 0.1 0.67 0 0 0.675 0 0.02 0.675 0 0.04 0.675 0 0.06 0.675 0 0.08 0.675 0 0.1 0.675 0 0 0.68 0 0.02 0.68 0 0.04 0.68 0 0.06 0.68 0 0.08 0.68 0 0.1 0.68 0 0 0.685 0 0.02 0.685 0 0.04 0.685 0 0.06 0.685 0 0.08 0.685 0 0.1 0.685 0 0 0.69 0 0.02 0.69 0 0.04 0.69 0 0.06 0.69 0 0.08 0.69 0 0.1 
[...]
			<PointData Scalars="VitesseX">
				<DataArray Name="VitesseX" type="Float32" format="ascii">
 0 3.54952e-14 1.52713e-14 9.4977e-15 4.28472e-14 0 0 2.58351e-14 2.6263e-14 9.68285e-15 3.33615e-14 0 0 2.23467e-14 2.42286e-14 3.17601e-14 2.84819e-15 0 0 4.80779e-15 4.85802e-14 2.20551e-14 -4.94588e-15 0 0 8.13181e-15 5.48218e-14 5.64057e-15 6.03556e-15 0 0 4.70734e-14 1.3701e-14 2.65231e-14 6.90251e-16 0 0 5.68837e-14 4.01798e-15 3.55743e-14 -1.39175e-14 0 0 4.98163e-14 1.10937e-14 2.73569e-14 -1.79209e-14 0 0 3.67681e-14 3.27879e-14 -5.82284e-15 2.22611e-15 0 0 2.60603e-14 4.29042e-14 -2.83938e-14 2.83505e-14 0 0 7.19301e-15 7.16021e-14 -6.17634e-14 5.59266e-14 0 0 2.82929e-14 3.74058e-14 -7.70274e-15 1.02963e-14 0 0 1.50035e-14 4.57086e-14 1.5798e-14 -1.51891e-14 0 0 1.71744e-14 5.09138e-14 1.4224e-14 -2.10557e-14 0 0 3.91696e-14 2.63653e-14 3.96849e-14 -3.58454e-14 0 0 1.14905e-14 6.93801e-14 1.04129e-14 -2.25184e-14 0 0 3.37108e-14 2.83374e-14 6.03957e-14 -5.49915e-14 0 0 4.35922e-14 1.76721e-14 5.2486e-14 -2.5286e-14 0 0 1.88409e-14 6.05854e-14 -1.37086e-14 5.38691e-14 0 0 1.07981e-14 6.14971e-14 -1.21607e-14 8.08834e-14 0 0 3.91111e-14 2.33815e-14 2.80998e-14 6.15701e-14 0 0 3.77677e-14 5.06957e-14 -1.54308e-14 8.96907e-14 0 0 5.93427e-14 3.00384e-14 -4.88066e-15 9.72429e-14 0 0 7.64591e-14 1.6688e-14 1.63109e-14 9.54199e-14 0 0 6.21115e-14 5.67584e-14 -1.32049e-14 1.13263e-13 0 0 7.00651e-14 4.41467e-14 9.9401e-15 1.00277e-13 0 0 8.3052e-14 3.12465e-14 3.66766e-14 6.36606e-14 0 0 7.84822e-14 5.54012e-14 2.73091e-14 4.17198e-14 0 0 7.68955e-14 4.9539e-14 5.75178e-14 6.34213e-15 0 0 7.23409e-14 3.03316e-14 9.10409e-14 -3.87688e-14 0 0 8.47717e-14 -1.03598e-14 1.24564e-13 -9.87845e-14 0 0 7.76643e-14 8.57403e-15 8.70782e-14 -9.26458e-14 0 0 3.30712e-14 1.07001e-13 -5.35021e-14 2.46625e-14 0 0 3.39784e-14 1.14665e-13 -9.95706e-14 9.2741e-14 0 0 1.07161e-13 1.58448e-14 -5.58873e-14 1.0225e-13 0 0 1.22026e-13 -4.26731e-14 4.04993e-14 -9.90639e-15 0 0 4.59029e-14 3.98721e-14 1.73106e-14 -3.31194e-14 0 0 5.20194e-14 5.57252e-14 -3.70366e-14 6.1305e-14 0 0 -2.18142e-15 1.41811e-13 -1.03789e-13 9.41151e-14 0 0 -7.77998e-15 1.59096e-13 -7.14032e-14 2.77057e-14 0 0 1.15138e-13 2.47755e-14 6.37753e-14 -5.83771e-14 0 0 1.75497e-13 -7.95581e-15 8.72144e-14 -3.35637e-14 0 0 2.46763e-13 -5.77853e-14 1.05616e-13 2.51952e-15 0 0 2.36611e-13 -3.08371e-14 8.92531e-14 -2.0185e-15 0 0 1.64961e-13 3.43466e-14 5.71953e-14 5.85092e-15 0 0 1.85083e-13 -3.45268e-14 1.33014e-13 -1.01156e-14 0 0 9.35665e-14 1.27012e-13 -6.15334e-14 1.53858e-13 0 0 8.72612e-14 1.4392e-13 -1.1294e-13 2.31756e-13 0 0 1.84745e-13 -4.03228e-14 8.23626e-14 1.38243e-13 0 0 2.59693e-13 -2.13384e-13 2.85281e-13 1.47445e-14 0 0 2.77328e-13 -2.97443e-13 3.96965e-13 -6.53026e-14 0 0 1.39706e-13 -5.58896e-14 1.29908e-13 1.16594e-13 0 0 2.05406e-13 -1.32789e-13 1.42754e-13 1.27792e-13 0 0 1.70032e-13 -3.32471e-14 -4.12204e-14 2.25383e-13 0 0 8.62614e-14 1.24712e-13 -1.74754e-13 1.85317e-13 0 0 1.59263e-13 -1.86648e-14 7.30079e-15 -2.03435e-14 0 0 6.59469e-14 1.18999e-13 -1.54609e-13 1.32593e-13 0 0 1.48042e-13 -1.1781e-14 2.31463e-15 9.18239e-14 0 0 1.85024e-13 -9.95516e-14 1.52995e-13 -7.63053e-15 0 0 9.17909e-14 3.72238e-14 5.8786e-14 2.08816e-14 0 0 9.88363e-14 7.92183e-14 -1.22718e-14 6.51945e-14 0 0 1.01473e-13 1.59351e-13 -1.74152e-13 1.29172e-13 0 0 2.09022e-13 1.63473e-14 -4.8988e-14 -3.15995e-14 0 0 2.13484e-13 -3.45128e-14 5.34484e-14 -1.22877e-13 0 0 1.26595e-13 8.08838e-14 -4.02751e-14 -4.01169e-14 0 0 1.90754e-13 1.88043e-17 1.62189e-14 -3.80432e-14 0 0 1.3975e-13 9.42306e-14 -8.65494e-14 6.16946e-14 0 0 1.4071e-13 8.13998e-14 -1.9748e-14 2.28989e-14 0 0 2.32542e-13 -5.7481e-14 1.64311e-13 -8.58637e-14 0 0 1.82161e-13 5.69195e-14 3.43305e-14 5.4764e-14 0 0 3.03019e-13 -8.63898e-14 7.68718e-14 1.52854e-13 0 0 2.20307e-13 1.15867e-13 -1.43509e-13 3.37769e-13 0 0 2.79362e-13 1.50549e-13 -1.2866e-13 2.90912e-13 0 0 4.09385e-13 7.21665e-14 -6.12036e-14 2.96899e-13 0 0 4.01892e-13 6.31556e-14 2.63805e-14 2.85955e-13 0 0 2.87874e-13 1.00479e-13 1.53016e-13 2.10619e-13 0 0 1.43476e-15 4.60597e-13 -1.22089e-13 4.50534e-13 0 0 3.5324e-13 -1.07323e-13 3.79281e-13 3.35221e-13 0 0 3.27969e-13 -4.3343e-14 2.98858e-13 4.39342e-13 0 0 2.21593e-13 -3.79254e-13 1.75714e-13 5.60751e-15 0 0 -1.5332e-12 -2.93783e-12 -2.9349e-12 -1.68576e-12 0 0 -1.58506e-11 -2.48435e-11 -2.62917e-11 -1.55558e-11 0 0 -1.06026e-10 -1.72611e-10 -1.72951e-10 -1.08011e-10 0 0 -6.00384e-10 -9.74914e-10 -9.78836e-10 -6.07705e-10 0 0 -2.98281e-09 -4.84184e-09 -4.86373e-09 -3.01581e-09 0 0 -1.34021e-08 -2.17858e-08 -2.19106e-08 -1.36034e-08 0 0 -5.5857e-08 -9.12282e-08 -9.22809e-08 -5.75665e-08 0 0 -2.06853e-07 -3.41393e-07 -3.49995e-07 -2.20677e-07 0 0 -6.08613e-07 -1.01914e-06 -1.06166e-06 -6.77415e-07 0 0 -1.4805e-06 -2.5215e-06 -2.6791e-06 -1.73464e-06 0 0 -3.17574e-06 -5.51272e-06 -5.9767e-06 -3.9286e-06 0 0 -6.16472e-06 -1.0952e-05 -1.21761e-05 -8.13339e-06 0 0 -1.09779e-05 -2.01575e-05 -2.30854e-05 -1.57904e-05 0 0 -1.82033e-05 -3.41367e-05 -4.00124e-05 -2.74222e-05 0 0 -2.81999e-05 -5.54342e-05 -6.79822e-05 -4.91887e-05 0 0 -4.13523e-05 -8.32408e-05 -0.000101876 -7.07712e-05 0 0 -5.82669e-05 -0.000118219 -0.000152146 -0.000113041 0 0 -7.77396e-05 -0.00016748 -0.000215926 -0.00015579 0 0 -0.00010144 -0.000216172 -0.000277844 -0.000202874 0 0 -0.000128093 -0.000272237 -0.000352564 -0.00025469 0 0 -0.000158289 -0.000339698 -0.000430005 -0.000303505 0 0 -0.000186937 -0.000410231 -0.000503434 -0.000342016 0 0 -0.000229998 -0.000477457 -0.000566137 -0.000364591 0 0 -0.000271492 -0.00055389 -0.000612522 -0.000363567 0 0 -0.000342312 -0.000624669 -0.000637486 -0.000355649 0 0 -0.000427 -0.000731691 -0.000658034 -0.000340794 0 0 -0.00050876 -0.00085864 -0.000726415 -0.000332057 0 0 -0.000554223 -0.00101601 -0.000851911 -0.000316798 0 0 -0.000577452 -0.0011904 -0.000949044 -0.000247255 0 0 -0.000621891 -0.00135043 -0.000988122 7.15376e-06 0 0 -0.000699548 -0.00148533 -0.000991449 0.00041027 0 0 -0.00077472 -0.00159899 -0.000987395 0.000646317 0 0 -0.000784297 -0.0015866 -0.000964215 0.000628697 0 0 -0.000759932 -0.00142522 -0.000813265 0.000526669 0 0 -0.000672171 -0.000990231 -0.000455448 0.000300642 0 0 -0.000466616 -0.000574934 -0.000197662 0.000137549 0 0 -0.00022403 -0.000291832 -6.48382e-05 5.01594e-05 0 0 0.000194795 0.000326466 0.000248584 -0.000264916 0 0 0.000589869 0.00151971 0.00120692 -0.00046955 0 0 0.000729322 0.00173579 0.00153595 -0.000235361 0 0 0.000742713 0.00166254 0.0014885 0.000219281 0 0 0.00074109 0.00143549 0.00129561 0.000494009 0 0 0.000722358 0.00121782 0.00110165 0.000532288 0 0 0.000650416 0.00105632 0.000980571 0.000529927 0 0 0.000560064 0.000918153 0.00087987 0.00050352 0 0 0.000463701 0.000759907 0.000743219 0.000436805 0 0 0.000359993 0.000589739 0.000586371 0.00035427 0 0 0.000256031 0.000420047 0.000423506 0.000261178 0 0 0.000162714 0.000267612 0.000272147 0.000170052 0 0 9.03163e-05 0.000148725 0.00015177 9.52606e-05 0 0 4.24476e-05 6.98468e-05 7.12706e-05 4.47511e-05 0 0 1.66907e-05 2.7401e-05 2.78875e-05 1.74778e-05 0 0 5.63113e-06 9.21733e-06 9.34807e-06 5.84269e-06 0 0 1.70733e-06 2.78681e-06 2.8168e-06 1.75586e-06 0 0 4.86403e-07 7.92093e-07 7.98367e-07 4.96553e-07 0 0 1.33191e-07 2.16508e-07 2.17744e-07 1.35192e-07 0 0 3.53878e-08 5.74472e-08 5.76807e-08 3.57651e-08 0 0 9.15429e-09 1.48462e-08 1.48886e-08 9.22287e-09 0 0 2.30853e-09 3.74097e-09 3.74859e-09 2.32046e-09 0 0 5.67966e-10 9.19543e-10 9.20991e-10 5.69804e-10 0 0 1.36445e-10 2.20872e-10 2.2071e-10 1.36775e-10 0 0 3.22936e-11 5.19507e-11 5.16665e-11 3.22141e-11 0 0 7.76662e-12 1.20808e-11 1.19636e-11 7.51217e-12 0 0 2.13087e-12 2.90277e-12 2.87663e-12 1.83043e-12 0 0 7.97762e-13 9.76678e-13 6.68763e-13 6.67675e-13 0 0 4.09263e-13 6.78414e-13 8.24929e-14 4.38934e-13 0 0 5.18582e-13 2.1045e-13 3.58247e-13 1.63963e-13 0 0 5.3467e-13 7.47117e-14 4.0526e-13 7.01629e-14 0 0 5.0717e-13 7.91533e-14 3.34608e-13 4.89001e-14 0 0 3.23183e-13 4.23605e-13 -4.45506e-14 2.78075e-13 0 0 1.7554e-13 7.39093e-13 -3.43575e-13 4.74136e-13 0 0 5.54938e-13 1.78179e-13 1.90086e-13 2.3475e-13 0 0 5.86962e-13 1.76623e-13 2.31447e-13 1.85046e-13 0 0 4.36441e-13 3.41105e-13 2.26169e-13 -1.28379e-14 0 0 2.86821e-13 4.94857e-13 1.29836e-13 -8.25817e-14 0 0 3.13432e-13 4.88614e-13 -1.88908e-14 4.72833e-14 0 0 6.71632e-13 -1.16577e-13 4.30585e-13 -1.5056e-13 0 0 6.29913e-13 -1.65158e-13 5.15396e-13 -6.11204e-14 0 0 3.25283e-13 1.49073e-13 4.43865e-13 4.94707e-14 0 0 -6.45662e-14 6.78803e-13 -2.59708e-14 5.37766e-13 0 0 9.96252e-14 4.1329e-13 8.32423e-14 7.67176e-13 0 0 5.52865e-13 -3.70676e-13 9.20091e-13 1.41412e-13 0 0 5.53919e-13 -3.47776e-13 9.54243e-13 -5.10165e-14 0 0 3.2754e-13 1.22756e-13 3.50021e-13 3.73092e-13 0 0 -6.2568e-14 5.97802e-13 -6.81485e-14 6.06014e-13 0 0 -2.61979e-13 6.76708e-13 9.64081e-14 3.22793e-13 0 0 7.85138e-14 1.74686e-13 4.7561e-13 1.61973e-13 0 0 2.85091e-13 -1.32002e-13 5.73501e-13 2.61339e-13 0 0 3.61477e-13 -2.94987e-13 7.56977e-13 1.53432e-13 0 0 3.24629e-13 -1.76028e-13 6.59162e-13 2.28637e-13 0 0 9.53412e-14 1.54139e-13 3.29603e-13 4.54156e-13 0 0 -1.17204e-13 4.5479e-13 1.50034e-14 6.02105e-13 0 0 -2.05379e-13 5.79008e-13 -1.44145e-13 7.00803e-13 0 0 3.14482e-13 -2.50238e-13 6.76944e-13 1.49115e-13 0 0 3.87993e-13 -3.35507e-13 6.792e-13 9.57292e-14 0 0 -2.50384e-14 2.00594e-13 2.34911e-13 3.0346e-13 0 0 -2.96161e-13 5.36697e-13 5.18259e-14 2.18437e-13 0 0 -1.81035e-13 5.34649e-13 -2.06859e-13 3.48114e-13 0 0 2.72647e-13 -1.02453e-13 3.27153e-13 -9.32491e-14 0 0 4.76774e-13 -3.88665e-13 4.52756e-13 -1.70041e-13 0 0 3.60332e-13 -1.01989e-13 -2.76005e-14 2.35742e-13 0 0 6.1342e-14 2.28566e-13 -3.3352e-14 1.03348e-13 0 0 -7.38752e-14 4.45596e-13 -1.06352e-13 9.50944e-14 0 0 8.75414e-14 2.99155e-13 -1.26095e-13 2.5153e-13 0 0 3.35378e-13 -6.09395e-15 6.63468e-14 2.54052e-13 0 0 3.69122e-13 7.63757e-14 -7.29426e-14 3.11531e-13 0 0 2.31349e-13 3.50803e-13 -3.0098e-13 3.6097e-13 0 0 2.02411e-13 4.53888e-13 -2.88845e-13 1.93142e-13 0 0 5.82474e-13 -1.52337e-13 4.89164e-13 -3.98438e-13 0 0 7.78507e-13 -4.13475e-13 8.24279e-13 -6.73245e-13 0 0 5.2567e-13 9.93613e-14 2.15541e-14 3.23723e-14 0 0 4.72347e-13 1.43452e-13 -2.35433e-13 4.4981e-13 0 0 6.16925e-13 -1.23463e-13 1.25418e-13 1.77094e-13 0 0 7.15176e-13 -4.45235e-13 5.72962e-13 5.64397e-15 0 0 3.45961e-13 8.36619e-14 1.48031e-13 3.74013e-13 0 0 -1.34012e-13 9.65481e-13 -7.45556e-13 9.48039e-13 0 0 2.92805e-13 3.98329e-13 -3.46174e-13 7.89163e-13 0 0 7.89825e-13 -3.19151e-13 2.17998e-13 4.98911e-13 0 0 7.71099e-13 -2.61278e-13 4.10855e-14 6.51367e-13 0 0 2.79718e-13 6.27057e-13 -6.97374e-13 1.00423e-12 0 0 -2.11546e-13 1.45579e-12 -1.31417e-12 1.28236e-12 0
				</DataArray>
				<DataArray Name="VitesseY" type="Float32" format="ascii">