<?xml version="1.0"?>
<VTKFile type="PolyData">
	<PolyData>
		<Piece NumberOfPoints="1206" NumberOfPolys="1000">
			<Points>
				<DataArray type="Float32" NumberOfComponents="3" format="ascii">
 0 0 0 0.02 0 0 0.04 0 0 0.06 0 0 0.08 0 0 0.1 0 0 0 0.005 0 0.02 0.005 0 0.04 0.005 0 0.06 0.005 0 0.08 0.005 0 0.1 0.005 0 0 0.01 0 0.02 0.01 0 0.04 0.01 0 0.06 0.01 0 0.08 0.01 0 0.1 0.01 0 0 0.015 0 0.02 0.015 0 0.04 0.015 0 0.06 0.015 0 0.08 0.015 0 0.1 0.015 0 0 0.02 0 0.02 0.02 0 0.04 0.02 0 0.06 0.02 0 0.08 0.02 0 0.1 0.02 0 0 0.025 0 0.02 0.025 0 0.04 0.025 0 0.06 0.025 0 0.08 0.025 0 0.1 0.025 0 0 0.03 0 0.02 0.03 0 0.04 0.03 0 0.06 0.03 0 0.08 0.03 0 0.1 0.03 0 0 0.035 0 0.02 0.035 0 0.04 0.035 0 0.06 0.035 0 0.08 0.035 0 0.1 0.035 0 0 0.04 0 0.02 0.04 0 0.04 0.04 0 0.06 0.04 0 0.08 0.04 0 0.1 0.04 0 0 0.045 0 0.02 0.045 0 0.04 0.045 0 0.06 0.045 0 0.08 0.045 0 0.1 0.045 0 0 0.05 0 0.02 0.05 0 0.04 0.05 0 0.06 0.05 0 0.08 0.05 0 0.1 0.05 0 0 0.055 0 0.02 0.055 0 0.04 0.055 0 0.06 0.055 0 0.08 0.055 0 0.1 0.055 0 0 0.06 0 0.02 0.06 0 0.04 0.06 0 0.06 0.06 0 0.08 0.06 0 0.1 0.06 0 0 0.065 0 0.02 0.065 0 0.04 0.065 0 0.06 0.065 0 0.08 0.065 0 0.1 0.065 0 0 0.07 0 0.02 0.07 0 0.04 0.07 0 0.06 0.07 0 0.08 0.07 0 0.1 0.07 0 0 0.075 0 0.02 0.075 0 0.04 0.075 0 0.06 0.075 0 0.08 0.075 0 0.1 0.075 0 0 0.08 0 0.02 0.08 0 0.04 0.08 0 0.06 0.08 0 0.08 0.08 0 0.1 0.08 0 0 0.085 0 0.02 0.085 0 0.04 0.085 0 0.06 0.085 0 0.08 0.085 0 0.1 0.085 0 0 0.09 0 0.02 0.09 0 0.04 0.09 0 0.06 0.09 0 0.08 0.09 0 0.1 0.09 0 0 0.095 0 0.02 0.095 0 0.04 0.095 0 0.06 0.095 0 0.08 0.095 0 0.1 0.095 0 0 0.1 0 0.02 0.1 0 0.04 0.1 0 0.06 0.1 0 0.08 0.1 0 0.1 0.1 0 0 0.105 0 0.02 0.105 0 0.04 0.105 0 0.06 0.105 0 0.08 0.105 0 0.1 0.105 0 0 0.11 0 0.02 0.11 0 0.04 0.11 0 0.06 0.11 0 0.08 0.11 0 0.1 0.11 0 0 0.115 0 0.02 0.115 0 0.04 0.115 0 0.06 0.115 0 0.08 0.115 0 0.1 0.115 0 0 0.12 0 0.02 0.12 0 0.04 0.12 0 0.06 0.12 0 0.08 0.12 0 0.1 0.12 0 0 0.125 0 0.02 0.125 0 0.04 0.125 0 0.06 0.125 0 0.08 0.125 0 0.1 0.125 0 0 0.13 0 0.02 0.13 0 0.04 0.13 0 0.06 0.13 0 0.08 0.13 0 0.1 0.13 0 0 0.135 0 0.02 0.135 0 0.04 0.135 0 0.06 0.135 0 0.08 0.135 0 0.1 0.135 0 0 0.14 0 0.02 0.14 0 0.04 0.14 0 0.06 0.14 0 0.08 0.14 0 0.1 0.14 0 0 0.145 0 0.02 0.145 0 0.04 0.145 0 0.06 0.145 0 0.08 0.145 0 0.1 0.145 0 0 0.15 0 0.02 0.15 0 0.04 0.15 0 0.06 0.15 0 0.08 0.15 0 0.1 0.15 0 0 0.155 0 0.02 0.155 0 0.04 0.155 0 0.06 0.155 0 0.08 0.155 0 0.1 0.155 0 0 0.16 0 0.02 0.16 0 0.04 0.16 0 0.06 0.16 0 0.08 0.16 0 0.1 0.16 0 0 0.165 0 0.02 0.165 0 0.04 0.165 0 0.06 0.165 0 0.08 0.165 0 0.1 0.165 0 0 0.17 0 0.02 0.17 0 0.04 0.17 0 0.06 0.17 0 0.08 0.17 0 0.1 0.17 0 0 0.175 0 0.02 0.175 0 0.04 0.175 0 0.06 0.175 0 0.08 0.175 0 0.1 0.175 0 0 0.18 0 0.02 0.18 0 0.04 0.18 0 0.06 0.18 0 0.08 0.18 0 0.1 0.18 0 0 0.185 0 0.02 0.185 0 0.04 0.185 0 0.06 0.185 0 0.08 0.185 0 0.1 0.185 0 0 0.19 0 0.02 0.19 0 0.04 0.19 0 0.06 0.19 0 0.08 0.19 0 0.1 0.19 0 0 0.195 0 0.02 0.195 0 0.04 0.195 0 0.06 0.195 0 0.08 0.195 0 0.1 0.195 0 0 0.2 0 0.02 0.2 0 0.04 0.2 0 0.06 0.2 0 0.08 0.2 0 0.1 0.2 0 0 0.205 0 0.02 0.205 0 0.04 0.205 0 0.06 0.205 0 0.08 0.205 0 0.1 0.205 0 0 0.21 0 0.02 0.21 0 0.04 0.21 0 0.06 0.21 0 0.08 0.21 0 0.1 0.21 0 0 0.215 0 0.02 0.215 0 0.04 0.215 0 0.06 0.215 0 0.08 0.215 0 0.1 0.215 0 0 0.22 0 0.02 0.22 0 0.04 0.22 0 0.06 0.22 0 0.08 0.22 0 0.1 0.22 0 0 0.225 0 0.02 0.225 0 0.04 0.225 0 0.06 0.225 0 0.08 0.225 0 0.1 0.225 0 0 0.23 0 0.02 0.23 0 0.04 0.23 0 0.06 0.23 0 0.08 0.23 0 0.1 0.23 0 0 0.235 0 0.02 0.235 0 0.04 0.235 0 0.06 0.235 0 0.08 0.235 0 0.1 0.235 0 0 0.24 0 0.02 0.24 0 0.04 0.24 0 0.06 0.24 0 0.08 0.24 0 0.1 0.24 0 0 0.245 0 0.02 0.245 0 0.04 0.245 0 0.06 0.245 0 0.08 0.245 0 0.1 0.245 0 0 0.25 0 0.02 0.25 0 0.04 0.25 0 0.06 0.25 0 0.08 0.25 0 0.1 0.25 0 0 0.255 0 0.02 0.255 0 0.04 0.255 0 0.06 0.255 0 0.08 0.255 0 0.1 0.255 0 0 0.26 0 0.02 0.26 0 0.04 0.26 0 0.06 0.26 0 0.08 0.26 0 0.1 0.26 0 0 0.265 0 0.02 0.265 0 0.04 0.265 0 0.06 0.265 0 0.08 0.265 0 0.1 0.265 0 0 0.27 0 0.02 0.27 0 0.04 0.27 0 0.06 0.27 0 0.08 0.27 0 0.1 0.27 0 0 0.275 0 0.02 0.275 0 0.04 0.275 0 0.06 0.275 0 0.08 0.275 0 0.1 0.275 0 0 0.28 0 0.02 0.28 0 0.04 0.28 0 0.06 0.28 0 0.08 0.28 0 0.1 0.28 0 0 0.285 0 0.02 0.285 0 0.04 0.285 0 0.06 0.285 0 0.08 0.285 0 0.1 0.285 0 0 0.29 0 0.02 0.29 0 0.04 0.29 0 0.06 0.29 0 0.08 0.29 0 0.1 0.29 0 0 0.295 0 0.02 0.295 0 0.04 0.295 0 0.06 0.295 0 0.08 0.295 0 0.1 0.295 0 0 0.3 0 0.02 0.3 0 0.04 0.3 0 0.06 0.3 0 0.08 0.3 0 0.1 0.3 0 0 0.305 0 0.02 0.305 0 0.04 0.305 0 0.06 0.305 0 0.08 0.305 0 0.1 0.305 0 0 0.31 0 0.02 0.31 0 0.04 0.31 0 0.06 0.31 0 0.08 0.31 0 0.1 0.31 0 0 0.315 0 0.02 0.315 0 0.04 0.315 0 0.06 0.315 0 0.08 0.315 0 0.1 0.315 0 0 0.32 0 0.02 0.32 0 0.04 0.32 0 0.06 0.32 0 0.08 0.32 0 0.1 0.32 0 0 0.325 0 0.02 0.325 0 0.04 0.325 0 0.06 0.325 0 0.08 0.325 0 0.1 0.325 0 0 0.33 0 0.02 0.33 0 0.04 0.33 0 0.06 0.33 0 0.08 0.33 0 0.1 0.33 0 0 0.335 0 0.02 0.335 0 0.04 0.335 0 0.06 0.335 0 0.08 0.335 0 0.1 0.335 0 0 0.34 0 0.02 0.34 0 0.04 0.34 0 0.06 0.34 0 0.08 0.34 0 0.1 0.34 0 0 0.345 0 0.02 0.345 0 0.04 0.345 0 0.06 0.345 0 0.08 0.345 0 0.1 0.345 0 0 0.35 0 0.02 0.35 0 0.04 0.35 0 0.06 0.35 0 0.08 0.35 0 0.1 0.35 0 0 0.355 0 0.02 0.355 0 0.04 0.355 0 0.06 0.355 0 0.08 0.355 0 0.1 0.355 0 0 0.36 0 0.02 0.36 0 0.04 0.36 0 0.06 0.36 0 0.08 0.36 0 0.1 0.36 0 0 0.365 0 0.02 0.365 0 0.04 0.365 0 0.06 0.365 0 0.08 0.365 0 0.1 0.365 0 0 0.37 0 0.02 0.37 0 0.04 0.37 0 0.06 0.37 0 0.08 0.37 0 0.1 0.37 0 0 0.375 0 0.02 0.375 0 0.04 0.375 0 0.06 0.375 0 0.08 0.375 0 0.1 0.375 0 0 0.38 0 0.02 0.38 0 0.04 0.38 0 0.06 0.38 0 0.08 0.38 0 0.1 0.38 0 0 0.385 0 0.02 0.385 0 0.04 0.385 0 0.06 0.385 0 0.08 0.385 0 0.1 0.385 0 0 0.39 0 0.02 0.39 0 0.04 0.39 0 0.06 0.39 0 0.08 0.39 0 0.1 0.39 0 0 0.395 0 0.02 0.395 0 0.04 0.395 0 0.06 0.395 0 0.08 0.395 0 0.1 0.395 0 0 0.4 0 0.02 0.4 0 0.04 0.4 0 0.06 0.4 0 0.08 0.4 0 0.1 0.4 0 0 0.405 0 0.02 0.405 0 0.04 0.405 0 0.06 0.405 0 0.08 0.405 0 0.1 0.405 0 0 0.41 0 0.02 0.41 0 0.04 0.41 0 0.06 0.41 0 0.08 0.41 0 0.1 0.41 0 0 0.415 0 0.02 0.415 0 0.04 0.415 0 0.06 0.415 0 0.08 0.415 0 0.1 0.415 0 0 0.42 0 0.02 0.42 0 0.04 0.42 0 0.06 0.42 0 0.08 0.42 0 0.1 0.42 0 0 0.425 0 0.02 0.425 0 0.04 0.425 0 0.06 0.425 0 0.08 0.425 0 0.1 0.425 0 0 0.43 0 0.02 0.43 0 0.04 0.43 0 0.06 0.43 0 0.08 0.43 0 0.1 0.43 0 0 0.435 0 0.02 0.435 0 0.04 0.435 0 0.06 0.435 0 0.08 0.435 0 0.1 0.435 0 0 0.44 0 0.02 0.44 0 0.04 0.44 0 0.06 0.44 0 0.08 0.44 0 0.1 0.44 0 0 0.445 0 0.02 0.445 0 0.04 0.445 0 0.06 0.445 0 0.08 0.445 0 0.1 0.445 0 0 0.45 0 0.02 0.45 0 0.04 0.45 0 0.06 0.45 0 0.08 0.45 0 0.1 0.45 0 0 0.455 0 0.02 0.455 0 0.04 0.455 0 0.06 0.455 0 0.08 0.455 0 0.1 0.455 0 0 0.46 0 0.02 0.46 0 0.04 0.46 0 0.06 0.46 0 0.08 0.46 0 0.1 0.46 0 0 0.465 0 0.02 0.465 0 0.04 0.465 0 0.06 0.465 0 0.08 0.465 0 0.1 0.465 0 0 0.47 0 0.02 0.47 0 0.04 0.47 0 0.06 0.47 0 0.08 0.47 0 0.1 0.47 0 0 0.475 0 0.02 0.475 0 0.04 0.475 0 0.06 0.475 0 0.08 0.475 0 0.1 0.475 0 0 0.48 0 0.02 0.48 0 0.04 0.48 0 0.06 0.48 0 0.08 0.48 0 0.1 0.48 0 0 0.485 0 0.02 0.485 0 0.04 0.485 0 0.06 0.485 0 0.08 0.485 0 0.1 0.485 0 0 0.49 0 0.02 0.49 0 0.04 0.49 0 0.06 0.49 0 0.08 0.49 0 0.1 0.49 0 0 0.495 0 0.02 0.495 0 0.04 0.495 0 0.06 0.495 0 0.08 0.495 0 0.1 0.495 0 0 0.5 0 0.02 0.5 0 0.04 0.5 0 0.06 0.5 0 0.08 0.5 0 0.1 0.5 0 0 0.505 0 0.02 0.505 0 0.04 0.505 0 0.06 0.505 0 0.08 0.505 0 0.1 0.505 0 0 0.51 0 0.02 0.51 0 0.04 0.51 0 0.06 0.51 0 0.08 0.51 0 0.1 0.51 0 0 0.515 0 0.02 0.515 0 0.04 0.515 0 0.06 0.515 0 0.08 0.515 0 0.1 0.515 0 0 0.52 0 0.02 0.52 0 0.04 0.52 0 0.06 0.52 0 0.08 0.52 0 0.1 0.52 0 0 0.525 0 0.02 0.525 0 0.04 0.525 0 0.06 0.525 0 0.08 0.525 0 0.1 0.525 0 0 0.53 0 0.02 0.53 0 0.04 0.53 0 0.06 0.53 0 0.08 0.53 0 0.1 0.53 0 0 0.535 0 0.02 0.535 0 0.04 0.535 0 0.06 0.535 0 0.08 0.535 0 0.1 0.535 0 0 0.54 0 0.02 0.54 0 0.04 0.54 0 0.06 0.54 0 0.08 0.54 0 0.1 0.54 0 0 0.545 0 0.02 0.545 0 0.04 0.545 0 0.06 0.545 0 0.08 0.545 0 0.1 0.545 0 0 0.55 0 0.02 0.55 0 0.04 0.55 0 0.06 0.55 0 0.08 0.55 0 0.1 0.55 0 0 0.555 0 0.02 0.555 0 0.04 0.555 0 0.06 0.555 0 0.08 0.555 0 0.1 0.555 0 0 0.56 0 0.02 0.56 0 0.04 0.56 0 0.06 0.56 0 0.08 0.56 0 0.1 0.56 0 0 0.565 0 0.02 0.565 0 0.04 0.565 0 0.06 0.565 0 0.08 0.565 0 0.1 0.565 0 0 0.57 0 0.02 0.57 0 0.04 0.57 0 0.06 0.57 0 0.08 0.57 0 0.1 0.57 0 0 0.575 0 0.02 0.575 0 0.04 0.575 0 0.06 0.575 0 0.08 0.575 0 0.1 0.575 0 0 0.58 0 0.02 0.58 0 0.04 0.58 0 0.06 0.58 0 0.08 0.58 0 0.1 0.58 0 0 0.585 0 0.02 0.585 0 0.04 0.585 0 0.06 0.585 0 0.08 0.585 0 0.1 0.585 0 0 0.59 0 0.02 0.59 0 0.04 0.59 0 0.06 0.59 0 0.08 0.59 0 0.1 0.59 0 0 0.595 0 0.02 0.595 0 0.04 0.595 0 0.06 0.595 0 0.08 0.595 0 0.1 0.595 0 0 0.6 0 0.02 0.6 0 0.04 0.6 0 0.06 0.6 0 0.08 0.6 0 0.1 0.6 0 0 0.605 0 0.02 0.605 0 0.04 0.605 0 0.06 0.605 0 0.08 0.605 0 0.1 0.605 0 0 0.61 0 0.02 0.61 0 0.04 0.61 0 0.06 0.61 0 0.08 0.61 0 0.1 0.61 0 0 0.615 0 0.02 0.615 0 0.04 0.615 0 0.06 0.615 0 0.08 0.615 0 0.1 0.615 0 0 0.62 0 0.02 0.62 0 0.04 0.62 0 0.06 0.62 0 0.08 0.62 0 0.1 0.62 0 0 0.625 0 0.02 0.625 0 0.04 0.625 0 0.06 0.625 0 0.08 0.625 0 0.1 0.625 0 0 0.63 0 0.02 0.63 0 0.04 0.63 0 0.06 0.63 0 0.08 0.63 0 0.1 0.63 0 0 0.635 0 0.02 0.635 0 0.04 0.635 0 0.06 0.635 0 0.08 0.635 0 0.1 0.635 0 0 0.64 0 0.02 0.64 0 0.04 0.64 0 0.06 0.64 0 0.08 0.64 0 0.1 0.64 0 0 0.645 0 0.02 0.645 0 0.04 0.645 0 0.06 0.645 0 0.08 0.645 0 0.1 0.645 0 0 0.65 0 0.02 0.65 0 0.04 0.65 0 0.06 0.65 0 0.08 0.65 0 0.1 0.65 0 0 0.655 0 0.02 0.655 0 0.04 0.655 0 0.06 0.655 0 0.08 0.655 0 0.1 0.655 0 0 0.66 0 0.02 0.66 0 0.04 0.66 0 0.06 0.66 0 0.08 0.66 0 0.1 0.66 0 0 0.665 0 0.02 0.665 0 0.04 0.665 0 0.06 0.665 0 0.08 0.665 0 0.1 0.665 0 0 0.67 0 0.02 0.67 0 0.04 0.67 0 0.06 0.67 0 0.08 0.67 0 0.1 0.67 0 0 0.675 0 0.02 0.675 0 0.04 0.675 0 0.06 0.675 0 0.08 0.675 0 0.1 0.675 0 0 0.68 0 0.02 0.68 0 0.04 0.68 0 0.06 0.68 0 0.08 0.68 0 0.1 0.68 0 0 0.685 0 0.02 0.685 0 0.04 0.685 0 0.06 0.685 0 0.08 0.685 0 0.1 0.685 0 0 0.69 0 0.02 0.69 0 0.04 0.69 0 0.06 0.69 0 0.08 0.69 0 0.1 
[...]
			<PointData Scalars="VitesseX">
				<DataArray Name="VitesseX" type="Float32" format="ascii">
 0 1.05506e-14 -4.10189e-15 5.92437e-15 -2.96682e-14 0 0 8.04562e-15 3.87361e-16 -7.12595e-16 -2.47213e-14 0 0 3.53246e-15 9.97645e-15 -1.56139e-14 -1.39137e-14 0 0 4.46652e-15 5.25835e-15 -1.17892e-14 -1.60416e-14 0 0 -1.9601e-15 8.96314e-15 -1.26485e-14 -1.69343e-14 0 0 -7.74403e-15 1.67154e-14 -2.40452e-14 -1.04198e-14 0 0 -4.94773e-15 3.74875e-15 -1.87209e-14 -1.22158e-14 0 0 2.54511e-15 -2.18062e-14 8.41545e-15 -3.18032e-14 0 0 8.32498e-15 -3.52239e-14 1.63638e-14 -3.28447e-14 0 0 -5.28985e-16 -2.4325e-14 -1.41276e-14 -2.21097e-15 0 0 -1.08128e-14 -1.56496e-14 -2.72922e-14 1.64258e-15 0 0 -1.1129e-14 -1.74826e-14 -2.61405e-14 -5.14941e-15 0 0 -5.60571e-16 -3.65947e-14 -1.67463e-14 -5.53013e-15 0 0 4.67548e-15 -5.50837e-14 4.99139e-15 -1.89497e-14 0 0 1.20385e-14 -6.45447e-14 8.86777e-15 -1.77681e-14 0 0 3.2098e-15 -5.66475e-14 1.46383e-14 -2.59372e-14 0 0 -3.79616e-14 5.87721e-15 -1.2131e-14 -2.7637e-14 0 0 -2.73352e-14 2.07956e-14 -2.96417e-14 -1.08087e-14 0 0 3.19503e-16 -9.0467e-15 7.03939e-16 -9.58308e-15 0 0 -5.8548e-15 4.97019e-15 -1.50986e-14 1.09563e-14 0 0 1.21589e-14 -2.28812e-14 3.00656e-14 -3.39214e-14 0 0 2.08794e-16 -3.12232e-15 4.00141e-14 -6.64856e-14 0 0 -1.9122e-14 4.80214e-14 -2.87151e-14 -3.09923e-14 0 0 -2.95557e-14 7.89557e-14 -9.07263e-14 2.89205e-15 0 0 9.27309e-15 -4.07086e-15 -2.75713e-14 -2.45568e-14 0 0 3.47854e-14 -9.42881e-14 8.24662e-14 -8.09558e-14 0 0 -7.64554e-14 4.01725e-14 -8.33705e-15 -4.0666e-14 0 0 -1.13528e-13 8.62138e-14 -7.039e-14 1.77251e-15 0 0 -1.92134e-14 -6.80238e-14 4.64011e-14 -3.54996e-14 0 0 -1.66813e-14 -7.70179e-14 2.79271e-14 -1.7555e-15 0 0 -4.56057e-14 -4.84851e-14 -1.44964e-14 9.29551e-15 0 0 -5.63848e-14 -6.09878e-14 -6.21765e-15 -1.85181e-14 0 0 -5.41814e-14 -5.80708e-14 -3.41471e-14 5.6617e-15 0 0 -2.65338e-14 -7.61538e-14 -2.02648e-14 9.37407e-15 0 0 -2.45785e-14 -4.62818e-14 -3.0857e-14 1.08591e-14 0 0 -1.17732e-14 -4.5765e-14 -1.93389e-14 4.65462e-15 0 0 5.8376e-15 -6.31696e-14 -1.38225e-14 -1.57545e-14 0 0 3.38725e-14 -7.64346e-14 -5.32517e-15 -4.20586e-14 0 0 3.55776e-14 -5.28597e-14 -6.52113e-14 1.22658e-14 0 0 5.4835e-14 -6.24151e-14 -9.77328e-14 3.77671e-14 0 0 2.31869e-14 -1.99489e-14 -7.45352e-14 -9.80595e-15 0 0 -4.58127e-14 5.52519e-14 -7.42429e-14 -3.60324e-14 0 0 -3.38669e-14 3.21266e-14 -3.5691e-14 -6.75473e-14 0 0 -4.5391e-14 3.24103e-14 2.0784e-14 -1.06116e-13 0 0 -7.60173e-14 7.65038e-14 2.90129e-14 -1.19983e-13 0 0 -8.22701e-14 9.51933e-14 1.97893e-14 -9.03218e-14 0 0 -1.9945e-15 2.44023e-14 6.45563e-14 -7.46654e-14 0 0 1.10053e-13 -6.63858e-14 1.68343e-13 -1.56995e-13 0 0 4.04408e-14 2.14552e-14 1.49133e-13 -1.59716e-13 0 0 -6.56974e-14 1.20865e-13 7.21998e-14 -8.86654e-14 0 0 -1.56111e-14 8.33841e-15 1.57416e-13 -1.23317e-13 0 0 -4.19232e-14 1.59973e-14 1.04474e-13 -6.5626e-14 0 0 -1.15786e-13 1.42814e-13 -5.71137e-14 1.77155e-14 0 0 -1.40198e-13 1.60701e-13 -1.12103e-13 4.1549e-14 0 0 3.47463e-14 -1.68018e-13 1.45939e-13 -1.19215e-13 0 0 2.22801e-14 -2.94284e-13 1.17915e-13 -2.31401e-13 0 0 -3.74183e-13 -4.02758e-13 -4.09506e-13 -3.66489e-13 0 0 -1.16087e-12 -1.8874e-12 -1.76229e-12 -1.20083e-12 0 0 -4.42246e-12 -6.92156e-12 -7.08033e-12 -4.24139e-12 0 0 -1.50988e-11 -2.41829e-11 -2.42827e-11 -1.49295e-11 0 0 -4.69236e-11 -7.59597e-11 -7.58975e-11 -4.69804e-11 0 0 -1.32915e-10 -2.15151e-10 -2.15254e-10 -1.33034e-10 0 0 -3.43099e-10 -5.55326e-10 -5.5548e-10 -3.43293e-10 0 0 -8.16373e-10 -1.32096e-09 -1.32128e-09 -8.16637e-10 0 0 -1.81805e-09 -2.94183e-09 -2.94216e-09 -1.81859e-09 0 0 -3.8529e-09 -6.2345e-09 -6.23497e-09 -3.8539e-09 0 0 -7.88667e-09 -1.27617e-08 -1.27629e-08 -7.88867e-09 0 0 -1.57669e-08 -2.55136e-08 -2.55169e-08 -1.5772e-08 0 0 -3.10449e-08 -5.02392e-08 -5.02494e-08 -3.10611e-08 0 0 -5.99228e-08 -9.69965e-08 -9.70295e-08 -5.99853e-08 0 0 -1.10098e-07 -1.78229e-07 -1.78342e-07 -1.10278e-07 0 0 -1.90288e-07 -3.08133e-07 -3.08454e-07 -1.90795e-07 0 0 -3.11634e-07 -5.04882e-07 -5.05679e-07 -3.12925e-07 0 0 -4.88022e-07 -7.91088e-07 -7.92875e-07 -4.90918e-07 0 0 -7.36456e-07 -1.19459e-06 -1.19827e-06 -7.42411e-07 0 0 -1.07733e-06 -1.74886e-06 -1.75591e-06 -1.08873e-06 0 0 -1.53446e-06 -2.49308e-06 -2.50579e-06 -1.55504e-06 0 0 -2.1351e-06 -3.47219e-06 -3.49385e-06 -2.17007e-06 0 0 -2.90933e-06 -4.73617e-06 -4.772e-06 -2.9675e-06 0 0 -3.88946e-06 -6.33779e-06 -6.39102e-06 -3.97545e-06 0 0 -5.1088e-06 -8.33379e-06 -8.42634e-06 -5.25616e-06 0 0 -6.59656e-06 -1.07725e-05 -1.08601e-05 -6.75521e-06 0 0 -8.39599e-06 -1.37078e-05 -1.39649e-05 -8.74338e-06 0 0 -1.04841e-05 -1.71917e-05 -1.72328e-05 -1.07385e-05 0 0 -1.30069e-05 -2.11481e-05 -2.16763e-05 -1.35313e-05 0 0 -1.56906e-05 -2.59312e-05 -2.59881e-05 -1.62476e-05 0 0 -1.90218e-05 -3.0745e-05 -3.13672e-05 -1.96208e-05 0 0 -2.23025e-05 -3.67166e-05 -3.7194e-05 -2.31486e-05 0 0 -2.62387e-05 -4.26622e-05 -4.2903e-05 -2.67423e-05 0 0 -3.01423e-05 -4.8992e-05 -4.93651e-05 -3.06937e-05 0 0 -3.44017e-05 -5.57577e-05 -5.58647e-05 -3.45866e-05 0 0 -3.86513e-05 -6.23853e-05 -6.21023e-05 -3.823e-05 0 0 -4.28508e-05 -6.86758e-05 -6.78231e-05 -4.14782e-05 0 0 -4.6913e-05 -7.45286e-05 -7.28819e-05 -4.42269e-05 0 0 -5.0691e-05 -7.97813e-05 -7.70961e-05 -4.63197e-05 0 0 -5.40049e-05 -8.41242e-05 -8.01332e-05 -4.7669e-05 0 0 -5.66719e-05 -8.71851e-05 -8.20042e-05 -4.76483e-05 0 0 -5.85321e-05 -8.89349e-05 -8.11768e-05 -4.66421e-05 0 0 -5.95763e-05 -8.83407e-05 -7.89791e-05 -4.40381e-05 0 0 -5.9298e-05 -8.64102e-05 -7.44478e-05 -4.00507e-05 0 0 -5.80379e-05 -8.22028e-05 -6.80431e-05 -3.46962e-05 0 0 -5.51446e-05 -7.58547e-05 -5.90158e-05 -2.81391e-05 0 0 -5.04872e-05 -6.66606e-05 -4.81849e-05 -2.0558e-05 0 0 -4.41946e-05 -5.57673e-05 -3.66108e-05 -1.33439e-05 0 0 -3.5382e-05 -4.30045e-05 -2.58585e-05 -7.66972e-06 0 0 -2.53207e-05 -2.9417e-05 -1.74298e-05 -4.00992e-06 0 0 -1.26734e-05 -1.6834e-05 -1.0859e-05 -5.57926e-06 0 0 -7.61249e-07 -6.16258e-06 -1.1801e-05 -1.01156e-05 0 0 8.63654e-06 1.79569e-06 -1.63472e-05 -1.7912e-05 0 0 1.50998e-05 7.58276e-07 -2.60479e-05 -2.98167e-05 0 0 1.99528e-05 -2.93488e-06 -3.90793e-05 -4.36055e-05 0 0 1.92657e-05 -1.18354e-05 -5.8082e-05 -5.73174e-05 0 0 1.63818e-05 -2.15951e-05 -7.79351e-05 -7.13743e-05 0 0 1.1405e-05 -3.32094e-05 -9.59455e-05 -8.6308e-05 0 0 1.75218e-06 -5.1741e-05 -0.000114884 -0.0001012 0 0 -1.19134e-05 -7.7181e-05 -0.000139716 -0.000115648 0 0 -2.62375e-05 -0.000105639 -0.000166322 -0.000128969 0 0 -3.88259e-05 -0.000134335 -0.000192505 -0.000140159 0 0 -5.27179e-05 -0.000161293 -0.000216643 -0.000147795 0 0 -8.06019e-05 -0.000182102 -0.000236825 -0.000152174 0 0 -0.000125826 -0.000214728 -0.000252705 -0.000162477 0 0 -0.000184172 -0.000282368 -0.000282549 -0.000190102 0 0 -0.000246943 -0.000382959 -0.000352709 -0.000222266 0 0 -0.00030651 -0.000509977 -0.00046808 -0.0002345 0 0 -0.00035667 -0.00064834 -0.000596452 -0.000231658 0 0 -0.000451386 -0.000813268 -0.000695019 -0.000206849 0 0 -0.000625336 -0.00100556 -0.000698753 -0.000102116 0 0 -0.000841118 -0.00121922 -0.000679958 0.00014055 0 0 -0.00106411 -0.00144954 -0.000644152 0.000376142 0 0 -0.00115274 -0.00160303 -0.000654319 0.00044753 0 0 -0.00113 -0.00154251 -0.000614343 0.000389475 0 0 -0.0010365 -0.00124426 -0.000406477 8.82887e-05 0 0 -0.000902006 -0.00088561 -0.000390465 -0.000215372 0 0 -0.000808718 -0.000904545 -0.000515081 -0.000167391 0 0 -0.00072452 -0.000904345 -0.000601913 -0.000166353 0 0 -0.000252855 -0.000441183 -0.000408403 -0.000394863 0 0 0.00108397 0.00139599 0.000441841 -0.000494363 0 0 0.00162674 0.00256608 0.00136793 -0.000391997 0 0 0.00160697 0.0025601 0.00157579 -6.46527e-05 0 0 0.00147385 0.00238753 0.00155863 0.000322793 0 0 0.00121814 0.00193865 0.00143266 0.000516052 0 0 0.000981313 0.00149706 0.00118259 0.000519995 0 0 0.0007869 0.00113265 0.000953122 0.000515076 0 0 0.000640467 0.000873326 0.000769616 0.000484021 0 0 0.000532716 0.000711993 0.000640825 0.000423247 0 0 0.000449861 0.00061743 0.00055836 0.000365948 0 0 0.000385317 0.000555293 0.000504276 0.00031702 0 0 0.000336704 0.000503537 0.000462008 0.000277428 0 0 0.000297976 0.000455522 0.000424946 0.000247048 0 0 0.000262326 0.000410186 0.000391005 0.000224304 0 0 0.000228002 0.000366158 0.000356757 0.000205523 0 0 0.000199829 0.000326799 0.000323354 0.000189746 0 0 0.000182713 0.000298071 0.000295808 0.000178192 0 0 0.000174857 0.000281668 0.000278671 0.00017076 0 0 0.000168948 0.000271811 0.000269095 0.000165127 0 0 0.000160493 0.00025898 0.00025729 0.000157792 0 0 0.000149336 0.000241116 0.000239952 0.000147447 0 0 0.000134457 0.000217105 0.000216248 0.000133069 0 0 0.000115247 0.000186074 0.000185425 0.000114198 0 0 9.22761e-05 0.000148976 0.000148496 9.15021e-05 0 0 6.75911e-05 0.000109122 0.000108796 6.70639e-05 0 0 4.41095e-05 7.12184e-05 7.10239e-05 4.37952e-05 0 0 2.50506e-05 4.04547e-05 4.0357e-05 2.48928e-05 0 0 1.21912e-05 1.96938e-05 1.96541e-05 1.2127e-05 0 0 5.12982e-06 8.28965e-06 8.27658e-06 5.10867e-06 0 0 1.93971e-06 3.13558e-06 3.13196e-06 1.93384e-06 0 0 6.8856e-07 1.11339e-06 1.1125e-06 6.87117e-07 0 0 2.36781e-07 3.82953e-07 3.82747e-07 2.36448e-07 0 0 8.01004e-08 1.29568e-07 1.29523e-07 8.00265e-08 0 0 2.68342e-08 4.34106e-08 4.34009e-08 2.6818e-08 0 0 8.92568e-09 1.44404e-08 1.44385e-08 8.92229e-09 0 0 2.95049e-09 4.77382e-09 4.77338e-09 2.9501e-09 0 0 9.69489e-10 1.56886e-09 1.56862e-09 9.69788e-10 0 0 3.16627e-10 5.12492e-10 5.12452e-10 3.16906e-10 0 0 1.02762e-10 1.66342e-10 1.66465e-10 1.0296e-10 0 0 3.31055e-11 5.36307e-11 5.37706e-11 3.33077e-11 0 0 1.05252e-11 1.71874e-11 1.73417e-11 1.06545e-11 0 0 3.25201e-12 5.54606e-12 5.5399e-12 3.45598e-12 0 0 9.40404e-13 1.79572e-12 1.84134e-12 1.07131e-12 0 0 3.81895e-13 3.5861e-13 9.18677e-13 1.88094e-13 0 0 2.07205e-13 4.30452e-14 4.20225e-13 5.66295e-14 0 0 4.59065e-14 2.61929e-13 -1.04816e-13 1.28821e-13 0 0 5.91897e-14 2.36757e-13 -1.46836e-13 5.92621e-14 0 0 1.32184e-13 7.56282e-14 3.03861e-14 -7.67093e-14 0 0 1.31373e-13 3.66342e-14 1.30783e-13 -2.28003e-13 0 0 6.54128e-14 9.2503e-14 2.22551e-13 -3.73776e-13 0 0 1.46523e-13 -2.61028e-14 2.30048e-13 -2.80335e-13 0 0 2.11465e-13 -2.32716e-13 2.8017e-13 -1.89647e-13 0 0 1.45225e-14 5.36746e-14 -8.19387e-14 -1.14438e-14 0 0 1.7497e-14 9.1456e-14 -1.63468e-13 -1.04645e-13 0 0 5.89865e-14 5.40399e-14 -1.18892e-13 -2.36062e-13 0 0 -1.10771e-13 2.24455e-13 -8.95334e-14 -3.15814e-13 0 0 -1.51531e-13 1.58078e-13 1.33964e-13 -3.94623e-13 0 0 -8.87343e-14 1.04757e-13 -6.51264e-15 -1.94157e-13 0 0 -5.24643e-15 -6.2979e-14 -1.22763e-13 5.33266e-14 0 0 3.38332e-15 -8.64133e-14 -2.96688e-13 2.53262e-13 0 0 -2.24427e-13 1.95648e-13 -3.91248e-13 9.40667e-14 0 0 -1.04886e-13 -1.81131e-13 1.64948e-13 -3.0831e-13 0 0 5.29962e-14 -4.60428e-13 3.92317e-13 -3.09808e-13 0 0 -6.88551e-14 -1.92585e-13 4.72555e-14 -2.35655e-14 0 0 -9.36652e-15 -2.53148e-13 3.67457e-14 2.22446e-14 0
				</DataArray>
				<DataArray Name="VitesseY" type="Float32" format="ascii">