<?xml version="1.0"?>
<VTKFile type="PolyData">
	<PolyData>
		<Piece NumberOfPoints="1206" NumberOfPolys="1000">
			<Points>
				<DataArray type="Float32" NumberOfComponents="3" format="ascii">
 0 0 0 0.02 0 0 0.04 0 0 0.06 0 0 0.08 0 0 0.1 0 0 0 0.005 0 0.02 0.005 0 0.04 0.005 0 0.06 0.005 0 0.08 0.005 0 0.1 0.005 0 0 0.01 0 0.02 0.01 0 0.04 0.01 0 0.06 0.01 0 0.08 0.01 0 0.1 0.01 0 0 0.015 0 0.02 0.015 0 0.04 0.015 0 0.06 0.015 0 0.08 0.015 0 0.1 0.015 0 0 0.02 0 0.02 0.02 0 0.04 0.02 0 0.06 0.02 0 0.08 0.02 0 0.1 0.02 0 0 0.025 0 0.02 0.025 0 0.04 0.025 0 0.06 0.025 0 0.08 0.025 0 0.1 0.025 0 0 0.03 0 0.02 0.03 0 0.04 0.03 0 0.06 0.03 0 0.08 0.03 0 0.1 0.03 0 0 0.035 0 0.02 0.035 0 0.04 0.035 0 0.06 0.035 0 0.08 0.035 0 0.1 0.035 0 0 0.04 0 0.02 0.04 0 0.04 0.04 0 0.06 0.04 0 0.08 0.04 0 0.1 0.04 0 0 0.045 0 0.02 0.045 0 0.04 0.045 0 0.06 0.045 0 0.08 0.045 0 0.1 0.045 0 0 0.05 0 0.02 0.05 0 0.04 0.05 0 0.06 0.05 0 0.08 0.05 0 0.1 0.05 0 0 0.055 0 0.02 0.055 0 0.04 0.055 0 0.06 0.055 0 0.08 0.055 0 0.1 0.055 0 0 0.06 0 0.02 0.06 0 0.04 0.06 0 0.06 0.06 0 0.08 0.06 0 0.1 0.06 0 0 0.065 0 0.02 0.065 0 0.04 0.065 0 0.06 0.065 0 0.08 0.065 0 0.1 0.065 0 0 0.07 0 0.02 0.07 0 0.04 0.07 0 0.06 0.07 0 0.08 0.07 0 0.1 0.07 0 0 0.075 0 0.02 0.075 0 0.04 0.075 0 0.06 0.075 0 0.08 0.075 0 0.1 0.075 0 0 0.08 0 0.02 0.08 0 0.04 0.08 0 0.06 0.08 0 0.08 0.08 0 0.1 0.08 0 0 0.085 0 0.02 0.085 0 0.04 0.085 0 0.06 0.085 0 0.08 0.085 0 0.1 0.085 0 0 0.09 0 0.02 0.09 0 0.04 0.09 0 0.06 0.09 0 0.08 0.09 0 0.1 0.09 0 0 0.095 0 0.02 0.095 0 0.04 0.095 0 0.06 0.095 0 0.08 0.095 0 0.1 0.095 0 0 0.1 0 0.02 0.1 0 0.04 0.1 0 0.06 0.1 0 0.08 0.1 0 0.1 0.1 0 0 0.105 0 0.02 0.105 0 0.04 0.105 0 0.06 0.105 0 0.08 0.105 0 0.1 0.105 0 0 0.11 0 0.02 0.11 0 0.04 0.11 0 0.06 0.11 0 0.08 0.11 0 0.1 0.11 0 0 0.115 0 0.02 0.115 0 0.04 0.115 0 0.06 0.115 0 0.08 0.115 0 0.1 0.115 0 0 0.12 0 0.02 0.12 0 0.04 0.12 0 0.06 0.12 0 0.08 0.12 0 0.1 0.12 0 0 0.125 0 0.02 0.125 0 0.04 0.125 0 0.06 0.125 0 0.08 0.125 0 0.1 0.125 0 0 0.13 0 0.02 0.13 0 0.04 0.13 0 0.06 0.13 0 0.08 0.13 0 0.1 0.13 0 0 0.135 0 0.02 0.135 0 0.04 0.135 0 0.06 0.135 0 0.08 0.135 0 0.1 0.135 0 0 0.14 0 0.02 0.14 0 0.04 0.14 0 0.06 0.14 0 0.08 0.14 0 0.1 0.14 0 0 0.145 0 0.02 0.145 0 0.04 0.145 0 0.06 0.145 0 0.08 0.145 0 0.1 0.145 0 0 0.15 0 0.02 0.15 0 0.04 0.15 0 0.06 0.15 0 0.08 0.15 0 0.1 0.15 0 0 0.155 0 0.02 0.155 0 0.04 0.155 0 0.06 0.155 0 0.08 0.155 0 0.1 0.155 0 0 0.16 0 0.02 0.16 0 0.04 0.16 0 0.06 0.16 0 0.08 0.16 0 0.1 0.16 0 0 0.165 0 0.02 0.165 0 0.04 0.165 0 0.06 0.165 0 0.08 0.165 0 0.1 0.165 0 0 0.17 0 0.02 0.17 0 0.04 0.17 0 0.06 0.17 0 0.08 0.17 0 0.1 0.17 0 0 0.175 0 0.02 0.175 0 0.04 0.175 0 0.06 0.175 0 0.08 0.175 0 0.1 0.175 0 0 0.18 0 0.02 0.18 0 0.04 0.18 0 0.06 0.18 0 0.08 0.18 0 0.1 0.18 0 0 0.185 0 0.02 0.185 0 0.04 0.185 0 0.06 0.185 0 0.08 0.185 0 0.1 0.185 0 0 0.19 0 0.02 0.19 0 0.04 0.19 0 0.06 0.19 0 0.08 0.19 0 0.1 0.19 0 0 0.195 0 0.02 0.195 0 0.04 0.195 0 0.06 0.195 0 0.08 0.195 0 0.1 0.195 0 0 0.2 0 0.02 0.2 0 0.04 0.2 0 0.06 0.2 0 0.08 0.2 0 0.1 0.2 0 0 0.205 0 0.02 0.205 0 0.04 0.205 0 0.06 0.205 0 0.08 0.205 0 0.1 0.205 0 0 0.21 0 0.02 0.21 0 0.04 0.21 0 0.06 0.21 0 0.08 0.21 0 0.1 0.21 0 0 0.215 0 0.02 0.215 0 0.04 0.215 0 0.06 0.215 0 0.08 0.215 0 0.1 0.215 0 0 0.22 0 0.02 0.22 0 0.04 0.22 0 0.06 0.22 0 0.08 0.22 0 0.1 0.22 0 0 0.225 0 0.02 0.225 0 0.04 0.225 0 0.06 0.225 0 0.08 0.225 0 0.1 0.225 0 0 0.23 0 0.02 0.23 0 0.04 0.23 0 0.06 0.23 0 0.08 0.23 0 0.1 0.23 0 0 0.235 0 0.02 0.235 0 0.04 0.235 0 0.06 0.235 0 0.08 0.235 0 0.1 0.235 0 0 0.24 0 0.02 0.24 0 0.04 0.24 0 0.06 0.24 0 0.08 0.24 0 0.1 0.24 0 0 0.245 0 0.02 0.245 0 0.04 0.245 0 0.06 0.245 0 0.08 0.245 0 0.1 0.245 0 0 0.25 0 0.02 0.25 0 0.04 0.25 0 0.06 0.25 0 0.08 0.25 0 0.1 0.25 0 0 0.255 0 0.02 0.255 0 0.04 0.255 0 0.06 0.255 0 0.08 0.255 0 0.1 0.255 0 0 0.26 0 0.02 0.26 0 0.04 0.26 0 0.06 0.26 0 0.08 0.26 0 0.1 0.26 0 0 0.265 0 0.02 0.265 0 0.04 0.265 0 0.06 0.265 0 0.08 0.265 0 0.1 0.265 0 0 0.27 0 0.02 0.27 0 0.04 0.27 0 0.06 0.27 0 0.08 0.27 0 0.1 0.27 0 0 0.275 0 0.02 0.275 0 0.04 0.275 0 0.06 0.275 0 0.08 0.275 0 0.1 0.275 0 0 0.28 0 0.02 0.28 0 0.04 0.28 0 0.06 0.28 0 0.08 0.28 0 0.1 0.28 0 0 0.285 0 0.02 0.285 0 0.04 0.285 0 0.06 0.285 0 0.08 0.285 0 0.1 0.285 0 0 0.29 0 0.02 0.29 0 0.04 0.29 0 0.06 0.29 0 0.08 0.29 0 0.1 0.29 0 0 0.295 0 0.02 0.295 0 0.04 0.295 0 0.06 0.295 0 0.08 0.295 0 0.1 0.295 0 0 0.3 0 0.02 0.3 0 0.04 0.3 0 0.06 0.3 0 0.08 0.3 0 0.1 0.3 0 0 0.305 0 0.02 0.305 0 0.04 0.305 0 0.06 0.305 0 0.08 0.305 0 0.1 0.305 0 0 0.31 0 0.02 0.31 0 0.04 0.31 0 0.06 0.31 0 0.08 0.31 0 0.1 0.31 0 0 0.315 0 0.02 0.315 0 0.04 0.315 0 0.06 0.315 0 0.08 0.315 0 0.1 0.315 0 0 0.32 0 0.02 0.32 0 0.04 0.32 0 0.06 0.32 0 0.08 0.32 0 0.1 0.32 0 0 0.325 0 0.02 0.325 0 0.04 0.325 0 0.06 0.325 0 0.08 0.325 0 0.1 0.325 0 0 0.33 0 0.02 0.33 0 0.04 0.33 0 0.06 0.33 0 0.08 0.33 0 0.1 0.33 0 0 0.335 0 0.02 0.335 0 0.04 0.335 0 0.06 0.335 0 0.08 0.335 0 0.1 0.335 0 0 0.34 0 0.02 0.34 0 0.04 0.34 0 0.06 0.34 0 0.08 0.34 0 0.1 0.34 0 0 0.345 0 0.02 0.345 0 0.04 0.345 0 0.06 0.345 0 0.08 0.345 0 0.1 0.345 0 0 0.35 0 0.02 0.35 0 0.04 0.35 0 0.06 0.35 0 0.08 0.35 0 0.1 0.35 0 0 0.355 0 0.02 0.355 0 0.04 0.355 0 0.06 0.355 0 0.08 0.355 0 0.1 0.355 0 0 0.36 0 0.02 0.36 0 0.04 0.36 0 0.06 0.36 0 0.08 0.36 0 0.1 0.36 0 0 0.365 0 0.02 0.365 0 0.04 0.365 0 0.06 0.365 0 0.08 0.365 0 0.1 0.365 0 0 0.37 0 0.02 0.37 0 0.04 0.37 0 0.06 0.37 0 0.08 0.37 0 0.1 0.37 0 0 0.375 0 0.02 0.375 0 0.04 0.375 0 0.06 0.375 0 0.08 0.375 0 0.1 0.375 0 0 0.38 0 0.02 0.38 0 0.04 0.38 0 0.06 0.38 0 0.08 0.38 0 0.1 0.38 0 0 0.385 0 0.02 0.385 0 0.04 0.385 0 0.06 0.385 0 0.08 0.385 0 0.1 0.385 0 0 0.39 0 0.02 0.39 0 0.04 0.39 0 0.06 0.39 0 0.08 0.39 0 0.1 0.39 0 0 0.395 0 0.02 0.395 0 0.04 0.395 0 0.06 0.395 0 0.08 0.395 0 0.1 0.395 0 0 0.4 0 0.02 0.4 0 0.04 0.4 0 0.06 0.4 0 0.08 0.4 0 0.1 0.4 0 0 0.405 0 0.02 0.405 0 0.04 0.405 0 0.06 0.405 0 0.08 0.405 0 0.1 0.405 0 0 0.41 0 0.02 0.41 0 0.04 0.41 0 0.06 0.41 0 0.08 0.41 0 0.1 0.41 0 0 0.415 0 0.02 0.415 0 0.04 0.415 0 0.06 0.415 0 0.08 0.415 0 0.1 0.415 0 0 0.42 0 0.02 0.42 0 0.04 0.42 0 0.06 0.42 0 0.08 0.42 0 0.1 0.42 0 0 0.425 0 0.02 0.425 0 0.04 0.425 0 0.06 0.425 0 0.08 0.425 0 0.1 0.425 0 0 0.43 0 0.02 0.43 0 0.04 0.43 0 0.06 0.43 0 0.08 0.43 0 0.1 0.43 0 0 0.435 0 0.02 0.435 0 0.04 0.435 0 0.06 0.435 0 0.08 0.435 0 0.1 0.435 0 0 0.44 0 0.02 0.44 0 0.04 0.44 0 0.06 0.44 0 0.08 0.44 0 0.1 0.44 0 0 0.445 0 0.02 0.445 0 0.04 0.445 0 0.06 0.445 0 0.08 0.445 0 0.1 0.445 0 0 0.45 0 0.02 0.45 0 0.04 0.45 0 0.06 0.45 0 0.08 0.45 0 0.1 0.45 0 0 0.455 0 0.02 0.455 0 0.04 0.455 0 0.06 0.455 0 0.08 0.455 0 0.1 0.455 0 0 0.46 0 0.02 0.46 0 0.04 0.46 0 0.06 0.46 0 0.08 0.46 0 0.1 0.46 0 0 0.465 0 0.02 0.465 0 0.04 0.465 0 0.06 0.465 0 0.08 0.465 0 0.1 0.465 0 0 0.47 0 0.02 0.47 0 0.04 0.47 0 0.06 0.47 0 0.08 0.47 0 0.1 0.47 0 0 0.475 0 0.02 0.475 0 0.04 0.475 0 0.06 0.475 0 0.08 0.475 0 0.1 0.475 0 0 0.48 0 0.02 0.48 0 0.04 0.48 0 0.06 0.48 0 0.08 0.48 0 0.1 0.48 0 0 0.485 0 0.02 0.485 0 0.04 0.485 0 0.06 0.485 0 0.08 0.485 0 0.1 0.485 0 0 0.49 0 0.02 0.49 0 0.04 0.49 0 0.06 0.49 0 0.08 0.49 0 0.1 0.49 0 0 0.495 0 0.02 0.495 0 0.04 0.495 0 0.06 0.495 0 0.08 0.495 0 0.1 0.495 0 0 0.5 0 0.02 0.5 0 0.04 0.5 0 0.06 0.5 0 0.08 0.5 0 0.1 0.5 0 0 0.505 0 0.02 0.505 0 0.04 0.505 0 0.06 0.505 0 0.08 0.505 0 0.1 0.505 0 0 0.51 0 0.02 0.51 0 0.04 0.51 0 0.06 0.51 0 0.08 0.51 0 0.1 0.51 0 0 0.515 0 0.02 0.515 0 0.04 0.515 0 0.06 0.515 0 0.08 0.515 0 0.1 0.515 0 0 0.52 0 0.02 0.52 0 0.04 0.52 0 0.06 0.52 0 0.08 0.52 0 0.1 0.52 0 0 0.525 0 0.02 0.525 0 0.04 0.525 0 0.06 0.525 0 0.08 0.525 0 0.1 0.525 0 0 0.53 0 0.02 0.53 0 0.04 0.53 0 0.06 0.53 0 0.08 0.53 0 0.1 0.53 0 0 0.535 0 0.02 0.535 0 0.04 0.535 0 0.06 0.535 0 0.08 0.535 0 0.1 0.535 0 0 0.54 0 0.02 0.54 0 0.04 0.54 0 0.06 0.54 0 0.08 0.54 0 0.1 0.54 0 0 0.545 0 0.02 0.545 0 0.04 0.545 0 0.06 0.545 0 0.08 0.545 0 0.1 0.545 0 0 0.55 0 0.02 0.55 0 0.04 0.55 0 0.06 0.55 0 0.08 0.55 0 0.1 0.55 0 0 0.555 0 0.02 0.555 0 0.04 0.555 0 0.06 0.555 0 0.08 0.555 0 0.1 0.555 0 0 0.56 0 0.02 0.56 0 0.04 0.56 0 0.06 0.56 0 0.08 0.56 0 0.1 0.56 0 0 0.565 0 0.02 0.565 0 0.04 0.565 0 0.06 0.565 0 0.08 0.565 0 0.1 0.565 0 0 0.57 0 0.02 0.57 0 0.04 0.57 0 0.06 0.57 0 0.08 0.57 0 0.1 0.57 0 0 0.575 0 0.02 0.575 0 0.04 0.575 0 0.06 0.575 0 0.08 0.575 0 0.1 0.575 0 0 0.58 0 0.02 0.58 0 0.04 0.58 0 0.06 0.58 0 0.08 0.58 0 0.1 0.58 0 0 0.585 0 0.02 0.585 0 0.04 0.585 0 0.06 0.585 0 0.08 0.585 0 0.1 0.585 0 0 0.59 0 0.02 0.59 0 0.04 0.59 0 0.06 0.59 0 0.08 0.59 0 0.1 0.59 0 0 0.595 0 0.02 0.595 0 0.04 0.595 0 0.06 0.595 0 0.08 0.595 0 0.1 0.595 0 0 0.6 0 0.02 0.6 0 0.04 0.6 0 0.06 0.6 0 0.08 0.6 0 0.1 0.6 0 0 0.605 0 0.02 0.605 0 0.04 0.605 0 0.06 0.605 0 0.08 0.605 0 0.1 0.605 0 0 0.61 0 0.02 0.61 0 0.04 0.61 0 0.06 0.61 0 0.08 0.61 0 0.1 0.61 0 0 0.615 0 0.02 0.615 0 0.04 0.615 0 0.06 0.615 0 0.08 0.615 0 0.1 0.615 0 0 0.62 0 0.02 0.62 0 0.04 0.62 0 0.06 0.62 0 0.08 0.62 0 0.1 0.62 0 0 0.625 0 0.02 0.625 0 0.04 0.625 0 0.06 0.625 0 0.08 0.625 0 0.1 0.625 0 0 0.63 0 0.02 0.63 0 0.04 0.63 0 0.06 0.63 0 0.08 0.63 0 0.1 0.63 0 0 0.635 0 0.02 0.635 0 0.04 0.635 0 0.06 0.635 0 0.08 0.635 0 0.1 0.635 0 0 0.64 0 0.02 0.64 0 0.04 0.64 0 0.06 0.64 0 0.08 0.64 0 0.1 0.64 0 0 0.645 0 0.02 0.645 0 0.04 0.645 0 0.06 0.645 0 0.08 0.645 0 0.1 0.645 0 0 0.65 0 0.02 0.65 0 0.04 0.65 0 0.06 0.65 0 0.08 0.65 0 0.1 0.65 0 0 0.655 0 0.02 0.655 0 0.04 0.655 0 0.06 0.655 0 0.08 0.655 0 0.1 0.655 0 0 0.66 0 0.02 0.66 0 0.04 0.66 0 0.06 0.66 0 0.08 0.66 0 0.1 0.66 0 0 0.665 0 0.02 0.665 0 0.04 0.665 0 0.06 0.665 0 0.08 0.665 0 0.1 0.665 0 0 0.67 0 0.02 0.67 0 0.04 0.67 0 0.06 0.67 0 0.08 0.67 0 0.1 0.67 0 0 0.675 0 0.02 0.675 0 0.04 0.675 0 0.06 0.675 0 0.08 0.675 0 0.1 0.675 0 0 0.68 0 0.02 0.68 0 0.04 0.68 0 0.06 0.68 0 0.08 0.68 0 0.1 0.68 0 0 0.685 0 0.02 0.685 0 0.04 0.685 0 0.06 0.685 0 0.08 0.685 0 0.1 0.685 0 0 0.69 0 0.02 0.69 0 0.04 0.69 0 0.06 0.69 0 0.08 0.69 0 0.1 
[...]
			<PointData Scalars="VitesseX">
				<DataArray Name="VitesseX" type="Float32" format="ascii">
 0 -2.86187e-14 3.01918e-15 1.07588e-14 -2.32705e-14 0 0 -1.95188e-14 -1.06611e-14 2.30046e-14 -3.16413e-14 0 0 -1.92759e-14 -3.23543e-15 7.16128e-15 -2.27821e-14 0 0 -8.34059e-15 -7.7894e-15 -7.88036e-15 -6.29025e-15 0 0 1.72073e-14 -4.37116e-14 1.24344e-14 -3.50924e-15 0 0 5.32054e-15 -2.86576e-14 4.88282e-15 1.40039e-14 0 0 -3.75991e-14 2.93052e-14 -2.22082e-14 3.54959e-14 0 0 -5.90438e-14 5.22505e-14 -1.15629e-14 2.94878e-14 0 0 -3.52711e-14 2.60209e-14 1.82452e-14 2.09521e-14 0 0 1.01904e-14 -2.61029e-14 6.72593e-14 -4.32907e-15 0 0 3.80427e-14 -5.76054e-14 9.88681e-14 -2.69173e-14 0 0 7.02953e-15 9.21215e-15 2.01385e-14 2.06341e-14 0 0 3.24687e-15 2.46542e-14 4.79521e-15 2.54844e-14 0 0 1.10225e-14 2.96057e-16 2.69151e-14 1.1801e-14 0 0 2.48852e-14 -3.33718e-14 3.26652e-14 9.85051e-15 0 0 3.65128e-14 -4.7516e-14 2.70586e-14 1.01698e-15 0 0 8.72792e-15 -1.86592e-15 -2.39371e-14 1.46343e-14 0 0 5.8327e-14 -7.96576e-14 3.11932e-14 -2.16083e-14 0 0 8.1209e-14 -1.12744e-13 6.32206e-14 -3.82996e-14 0 0 8.15839e-15 -2.08303e-14 2.59882e-14 -4.01073e-14 0 0 -5.40147e-14 5.45194e-14 -2.91079e-15 -6.41845e-14 0 0 -4.14563e-14 3.48536e-14 -8.57846e-15 -5.64108e-14 0 0 5.05556e-15 -5.22807e-14 4.27035e-14 -6.0166e-14 0 0 -8.70523e-15 -3.84643e-14 9.36072e-15 -3.31806e-14 0 0 -8.3493e-14 3.69711e-14 -3.56756e-14 -1.98034e-14 0 0 -1.1363e-13 4.37135e-14 -2.44016e-14 -2.74096e-14 0 0 -7.91217e-14 1.30396e-14 -5.01168e-14 2.73518e-14 0 0 -3.84839e-14 -4.53354e-14 -1.53881e-14 3.13422e-14 0 0 -6.5212e-14 -3.74673e-15 -4.57115e-14 3.60121e-14 0 0 -1.03894e-13 6.75147e-14 -9.08829e-14 4.0865e-14 0 0 -1.21934e-13 1.02147e-13 -1.10563e-13 4.44268e-14 0 0 -6.45335e-14 2.75997e-14 -4.40889e-14 3.36803e-14 0 0 6.41162e-15 -6.80966e-14 6.37974e-14 -5.74835e-15 0 0 -2.62077e-15 -5.673e-14 9.55162e-14 -6.1593e-14 0 0 -9.74119e-14 8.49217e-14 -2.6379e-14 -1.29305e-14 0 0 -1.63072e-13 1.89699e-13 -1.16808e-13 -6.19484e-15 0 0 -3.16259e-14 1.58781e-14 1.50314e-14 -1.007e-13 0 0 4.74745e-14 -1.21316e-13 9.38248e-14 -7.74688e-14 0 0 1.93528e-14 -1.397e-13 1.5322e-13 -1.19639e-13 0 0 -5.5236e-14 -4.72725e-14 1.05732e-13 -1.39676e-13 0 0 -1.32173e-13 9.93314e-14 -6.2655e-14 -6.11433e-14 0 0 -1.07771e-13 8.02018e-14 -4.84551e-14 -8.59766e-14 0 0 -1.15064e-13 6.41913e-14 -1.34535e-14 -8.45074e-14 0 0 -2.64293e-13 2.47209e-13 -1.90511e-13 6.83537e-14 0 0 -2.4003e-13 1.67883e-13 -1.50453e-13 7.84719e-14 0 0 -1.41406e-13 2.32112e-14 -5.98814e-14 1.89207e-14 0 0 1.86941e-14 -1.80568e-13 9.43003e-14 -6.52335e-14 0 0 6.58123e-14 -1.85922e-13 9.33094e-14 -1.06727e-13 0 0 -1.15294e-13 9.38052e-14 -4.26852e-14 -1.8878e-13 0 0 -2.86523e-13 3.2571e-13 -1.12388e-13 -2.72475e-13 0 0 -3.80436e-13 5.26983e-13 -3.15661e-13 -1.22141e-13 0 0 -1.06145e-13 2.26891e-13 -1.8647e-13 -1.0241e-13 0 0 1.02659e-13 -2.33213e-14 -8.39538e-15 -2.42474e-13 0 0 1.18742e-13 -7.8496e-14 1.44748e-13 -4.32555e-13 0 0 -7.52561e-14 7.23323e-14 1.02543e-13 -4.38321e-13 0 0 -2.4666e-13 2.20338e-13 -3.70596e-14 -3.37814e-13 0 0 -7.7286e-14 7.10151e-14 -5.21106e-14 -2.73223e-13 0 0 -6.01928e-14 1.7506e-13 -2.91732e-13 -8.29718e-14 0 0 -1.40647e-14 1.15871e-13 -2.94456e-13 -4.36221e-14 0 0 -3.63271e-14 6.82318e-14 -1.92158e-13 -1.50639e-13 0 0 -1.17002e-13 7.30108e-14 -7.39189e-14 -3.10182e-13 0 0 -9.71607e-15 -1.12777e-13 3.8949e-14 -3.78287e-13 0 0 -6.79241e-14 3.04474e-14 -2.00759e-13 -2.16082e-13 0 0 -8.19045e-14 8.29886e-14 -2.81292e-13 -1.29457e-13 0 0 -7.11127e-14 5.63613e-14 -2.54589e-13 -7.82103e-14 0 0 -6.93263e-14 1.76526e-14 -1.92218e-13 -2.95204e-14 0 0 6.20593e-14 -2.26253e-13 1.44459e-13 -1.74011e-13 0 0 -1.13091e-13 3.9261e-14 5.65568e-14 -1.55502e-13 0 0 -2.49661e-13 3.40352e-13 -2.66815e-13 6.00313e-14 0 0 -7.66336e-14 1.33176e-13 -1.26897e-13 2.6469e-14 0 0 -2.04875e-14 2.95785e-14 2.24791e-14 -4.24767e-14 0 0 -3.01358e-14 4.31022e-14 9.21678e-14 -2.12289e-13 0 0 -1.65225e-13 3.13418e-13 -1.07913e-13 -3.01382e-13 0 0 -9.75525e-14 2.95615e-13 -1.44564e-13 -3.39977e-13 0 0 1.69348e-14 1.37538e-13 1.58596e-14 -3.91173e-13 0 0 1.06259e-13 -9.59588e-15 1.62781e-13 -3.54927e-13 0 0 1.02755e-13 -4.889e-15 1.36874e-13 -3.25055e-13 0 0 -1.38563e-13 4.37952e-13 -2.9912e-13 -6.80152e-14 0 0 -6.01857e-15 3.59893e-13 -2.39036e-13 -1.6054e-14 0 0 -5.86304e-15 3.45155e-13 -1.37962e-13 -6.08316e-14 0 0 5.30566e-14 2.30239e-13 -6.54233e-14 -3.61786e-14 0 0 2.685e-13 -2.06761e-13 3.05919e-13 -1.64725e-13 0 0 1.823e-14 -1.43051e-13 4.1284e-13 -2.2652e-13 0 0 -8.15563e-14 -5.77552e-14 2.20101e-13 7.46947e-14 0 0 -8.18163e-14 4.8687e-14 -1.24595e-13 5.10768e-13 0 0 -9.72581e-14 -2.43046e-14 -5.40072e-14 4.56838e-13 0 0 3.39487e-13 -5.51925e-13 2.43379e-13 2.30387e-13 0 0 1.39621e-13 -2.11678e-13 1.39363e-13 3.1135e-13 0 0 5.54783e-13 1.99795e-12 8.10973e-13 5.8333e-13 0 0 1.86406e-12 -4.02669e-13 -5.40731e-12 -5.40233e-12 0 0 -1.59027e-10 -2.78518e-10 -3.03834e-10 -2.00813e-10 0 0 -3.32154e-09 -5.4759e-09 -5.60509e-09 -3.53209e-09 0 0 -4.29745e-08 -7.24474e-08 -7.63684e-08 -4.92609e-08 0 0 -3.38616e-07 -6.12913e-07 -6.9384e-07 -4.69598e-07 0 0 -1.45571e-06 -2.85625e-06 -3.48347e-06 -2.47067e-06 0 0 -4.34266e-06 -9.46034e-06 -1.25441e-05 -9.33417e-06 0 0 -1.02e-05 -2.47502e-05 -3.5827e-05 -2.79915e-05 0 0 -1.95206e-05 -5.36909e-05 -8.40759e-05 -6.84916e-05 0 0 -3.16016e-05 -0.000106273 -0.000179795 -0.000154448 0 0 -4.7617e-05 -0.000173618 -0.00029687 -0.000235986 0 0 -6.17864e-05 -0.000253817 -0.000449648 -0.000388567 0 0 -5.89735e-05 -0.00040413 -0.000720724 -0.000562754 0 0 -3.90854e-05 -0.000538463 -0.00103587 -0.000577369 0 0 -9.74403e-06 -0.000600508 -0.00109784 -0.000502843 0 0 -2.65432e-05 -0.000630794 -0.00105323 -0.000215906 0 0 -1.01577e-05 -0.000547971 -0.000851432 3.3132e-05 0 0 6.35622e-05 -0.000243419 -0.000550245 -4.75074e-05 0 0 0.000135564 8.44366e-05 -0.000245593 -0.000215874 0 0 0.000141044 0.000361624 3.57291e-05 -0.000344187 0 0 0.000125085 0.000580971 0.000229614 -0.000367301 0 0 9.16062e-05 0.000829686 0.000638848 -0.000328307 0 0 0.000127079 0.000918257 0.0013901 0.000177999 0 0 0.000252564 0.000845327 0.00143012 0.000864135 0 0 0.000257265 0.000713759 0.00114091 0.000838812 0 0 0.000228005 0.000578658 0.0008327 0.000638416 0 0 0.000181275 0.000433032 0.000589152 0.000440072 0 0 0.00013035 0.000288546 0.000379694 0.000277096 0 0 8.03969e-05 0.000165088 0.000208185 0.00014953 0 0 4.07749e-05 7.87119e-05 9.44325e-05 6.62542e-05 0 0 1.63715e-05 3.00717e-05 3.45254e-05 2.35789e-05 0 0 5.13173e-06 9.076e-06 1.003e-05 6.67546e-06 0 0 1.29024e-06 2.21642e-06 2.37552e-06 1.54766e-06 0 0 2.8055e-07 4.72618e-07 4.95697e-07 3.17896e-07 0 0 5.59454e-08 9.301e-08 9.60855e-08 6.09217e-08 0 0 1.05272e-08 1.7347e-08 1.77351e-08 1.11549e-08 0 0 1.89055e-09 3.09648e-09 3.1435e-09 1.96613e-09 0 0 3.25301e-10 5.30773e-10 5.36143e-10 3.34015e-10 0 0 5.34685e-11 8.77423e-11 8.76644e-11 5.47937e-11 0 0 8.38459e-12 1.39524e-11 1.36177e-11 8.71073e-12 0 0 1.37998e-12 1.98394e-12 1.85105e-12 1.47101e-12 0 0 3.11905e-13 9.03693e-14 1.20844e-13 2.9186e-13 0 0 -6.57657e-14 3.13558e-14 -1.71936e-13 -1.87927e-14 0 0 -2.95383e-13 2.92342e-13 -4.43728e-13 3.02933e-14 0 0 -9.48882e-14 1.88842e-14 -3.1681e-13 -4.72851e-14 0 0 4.95916e-14 -2.00048e-13 -2.82884e-13 -2.87134e-14 0 0 -2.61685e-14 -2.81589e-13 -2.11388e-13 -9.94853e-15 0 0 -2.45822e-13 -1.09101e-13 -2.72048e-13 -2.18946e-14 0 0 -3.8631e-13 1.13282e-13 -4.77816e-13 1.34515e-14 0 0 -2.35426e-13 -1.2534e-13 -3.22558e-13 -3.87822e-14 0 0 -2.32788e-13 -1.62233e-13 -2.50443e-13 -5.22897e-14 0 0 -2.8445e-13 -2.63545e-13 1.09196e-13 -2.84308e-13 0 0 -2.06028e-13 -4.84522e-13 4.74907e-13 -4.28612e-13 0 0 -5.51623e-13 1.48061e-13 -2.09875e-13 2.75975e-14 0 0 -7.30193e-13 4.00154e-13 -4.05333e-13 2.38655e-13 0 0 -1.65845e-13 -4.42293e-13 4.71318e-13 -1.64775e-13 0 0 1.22517e-14 -4.12861e-13 3.30496e-13 -9.19008e-14 0 0 -2.81662e-13 1.32657e-13 7.32063e-15 -1.40097e-13 0 0 -5.03871e-13 5.1015e-13 -1.86956e-13 -1.74284e-13 0 0 -4.12356e-13 4.49108e-13 -2.10326e-13 7.62905e-14 0 0 1.44087e-13 -6.63499e-13 1.05338e-12 -5.03388e-13 0 0 3.22834e-14 -6.17794e-13 1.04271e-12 -5.40426e-13 0 0 -4.55529e-13 2.26285e-13 4.7728e-15 8.36886e-14 0 0 -4.60505e-13 2.66347e-13 -3.44604e-13 3.99368e-13 0 0 -3.36436e-13 8.24085e-15 -3.16304e-13 4.67956e-13 0 0 -2.55506e-14 -4.15982e-13 -1.59575e-13 4.05573e-13 0 0 6.92968e-14 -5.19306e-13 -1.18172e-13 2.49348e-13 0 0 -3.99133e-13 6.86686e-14 -3.73191e-13 1.20757e-13 0 0 -7.85525e-13 5.02179e-13 -4.93765e-13 -1.23613e-13 0 0 -4.33402e-13 -1.19373e-13 8.12647e-14 -5.84048e-13 0 0 2.40308e-13 -1.10078e-12 5.94684e-13 -7.8493e-13 0 0 1.87148e-13 -1.05885e-12 2.98753e-13 -7.20634e-13 0 0 -8.07402e-13 4.17372e-13 -1.08439e-12 -1.39359e-13 0 0 -1.15067e-12 8.53049e-13 -1.31166e-12 -2.12478e-14 0 0 -3.87784e-13 -2.84416e-13 -2.95901e-13 -3.45583e-13 0 0 3.54925e-13 -1.3166e-12 6.17607e-13 -5.46553e-13 0 0 1.7086e-13 -1.18287e-12 7.07233e-13 -5.816e-13 0 0 -5.46434e-13 -1.66599e-13 -3.66759e-13 7.36028e-14 0 0 -7.28401e-13 2.59716e-13 -1.22533e-12 7.0914e-13 0 0 -3.62459e-13 -1.40685e-13 -1.19109e-12 7.06753e-13 0 0 -3.19592e-13 -1.81833e-13 -1.12413e-12 6.33622e-13 0 0 -4.03402e-13 -2.66795e-13 -7.56438e-13 3.45434e-13 0 0 3.83261e-15 -1.04121e-12 1.37714e-13 -2.89436e-13 0 0 3.62148e-14 -9.7926e-13 -7.17335e-14 -3.44112e-13 0 0 -4.1023e-13 -3.17909e-13 -7.3049e-13 -1.61248e-13 0 0 -7.84746e-13 1.56313e-13 -9.37873e-13 -7.80108e-14 0 0 -5.04621e-13 -2.36889e-13 -4.34873e-13 -3.17333e-13 0 0 1.12428e-13 -1.0749e-12 2.685e-13 -7.43827e-13 0 0 -1.09116e-14 -8.0063e-13 -1.38637e-13 -4.08677e-13 0 0 -5.85801e-13 -4.27597e-14 -6.29819e-13 -7.93909e-14 0 0 -9.463e-13 4.75253e-13 -7.05465e-13 -1.90509e-13 0 0 -5.91145e-13 1.45631e-14 -3.76136e-13 -3.30833e-13 0 0 7.79718e-14 -9.36772e-13 1.55967e-13 -5.42464e-13 0 0 2.41965e-14 -7.986e-13 -2.0456e-13 -3.93419e-13 0 0 -4.25184e-13 -3.7812e-13 -2.53932e-13 -5.85778e-13 0 0 -8.01827e-13 1.35571e-13 -4.08194e-13 -6.43944e-13 0 0 -5.36496e-13 -1.08391e-13 -2.91142e-13 -6.32905e-13 0 0 6.50443e-14 -9.41396e-13 3.91029e-13 -9.72597e-13 0 0 -1.46962e-13 -7.6863e-13 2.24444e-13 -6.8964e-13 0 0 -1.02414e-12 8.80782e-14 -2.32415e-13 -4.48449e-13 0 0 -1.52185e-12 8.4996e-13 -9.00275e-13 -2.02863e-13 0 0 -6.19695e-13 -1.58237e-13 -2.57131e-13 -5.19832e-13 0 0 3.64371e-14 -1.06032e-12 6.69246e-13 -1.20988e-12 0 0 -9.46608e-13 3.92934e-13 -4.50352e-13 -7.15191e-13 0 0 -1.53498e-12 1.14346e-12 -8.30805e-13 -5.12019e-13 0 0 -5.75116e-13 -3.12459e-13 5.49216e-13 -1.23196e-12 0 0 4.50249e-13 -1.59262e-12 1.35583e-12 -1.55107e-12 0 0 4.80603e-14 -7.71324e-13 6.21151e-13 -1.33689e-12 0 0 -1.18657e-12 1.09282e-12 -9.08136e-13 -6.52616e-13 0 0 -1.23166e-12 1.0487e-12 -8.14314e-13 -8.2441e-13 0 0 -1.21424e-14 -7.55808e-13 6.53907e-13 -1.65957e-12 0 0 6.45917e-13 -1.66226e-12 1.25067e-12 -1.83756e-12 0
				</DataArray>
				<DataArray Name="VitesseY" type="Float32" format="ascii">