<?xml version="1.0"?>
<VTKFile type="PolyData">
	<PolyData>
		<Piece NumberOfPoints="1206" NumberOfPolys="1000">
			<Points>
				<DataArray type="Float32" NumberOfComponents="3" format="ascii">
 0 0 0 0.02 0 0 0.04 0 0 0.06 0 0 0.08 0 0 0.1 0 0 0 0.005 0 0.02 0.005 0 0.04 0.005 0 0.06 0.005 0 0.08 0.005 0 0.1 0.005 0 0 0.01 0 0.02 0.01 0 0.04 0.01 0 0.06 0.01 0 0.08 0.01 0 0.1 0.01 0 0 0.015 0 0.02 0.015 0 0.04 0.015 0 0.06 0.015 0 0.08 0.015 0 0.1 0.015 0 0 0.02 0 0.02 0.02 0 0.04 0.02 0 0.06 0.02 0 0.08 0.02 0 0.1 0.02 0 0 0.025 0 0.02 0.025 0 0.04 0.025 0 0.06 0.025 0 0.08 0.025 0 0.1 0.025 0 0 0.03 0 0.02 0.03 0 0.04 0.03 0 0.06 0.03 0 0.08 0.03 0 0.1 0.03 0 0 0.035 0 0.02 0.035 0 0.04 0.035 0 0.06 0.035 0 0.08 0.035 0 0.1 0.035 0 0 0.04 0 0.02 0.04 0 0.04 0.04 0 0.06 0.04 0 0.08 0.04 0 0.1 0.04 0 0 0.045 0 0.02 0.045 0 0.04 0.045 0 0.06 0.045 0 0.08 0.045 0 0.1 0.045 0 0 0.05 0 0.02 0.05 0 0.04 0.05 0 0.06 0.05 0 0.08 0.05 0 0.1 0.05 0 0 0.055 0 0.02 0.055 0 0.04 0.055 0 0.06 0.055 0 0.08 0.055 0 0.1 0.055 0 0 0.06 0 0.02 0.06 0 0.04 0.06 0 0.06 0.06 0 0.08 0.06 0 0.1 0.06 0 0 0.065 0 0.02 0.065 0 0.04 0.065 0 0.06 0.065 0 0.08 0.065 0 0.1 0.065 0 0 0.07 0 0.02 0.07 0 0.04 0.07 0 0.06 0.07 0 0.08 0.07 0 0.1 0.07 0 0 0.075 0 0.02 0.075 0 0.04 0.075 0 0.06 0.075 0 0.08 0.075 0 0.1 0.075 0 0 0.08 0 0.02 0.08 0 0.04 0.08 0 0.06 0.08 0 0.08 0.08 0 0.1 0.08 0 0 0.085 0 0.02 0.085 0 0.04 0.085 0 0.06 0.085 0 0.08 0.085 0 0.1 0.085 0 0 0.09 0 0.02 0.09 0 0.04 0.09 0 0.06 0.09 0 0.08 0.09 0 0.1 0.09 0 0 0.095 0 0.02 0.095 0 0.04 0.095 0 0.06 0.095 0 0.08 0.095 0 0.1 0.095 0 0 0.1 0 0.02 0.1 0 0.04 0.1 0 0.06 0.1 0 0.08 0.1 0 0.1 0.1 0 0 0.105 0 0.02 0.105 0 0.04 0.105 0 0.06 0.105 0 0.08 0.105 0 0.1 0.105 0 0 0.11 0 0.02 0.11 0 0.04 0.11 0 0.06 0.11 0 0.08 0.11 0 0.1 0.11 0 0 0.115 0 0.02 0.115 0 0.04 0.115 0 0.06 0.115 0 0.08 0.115 0 0.1 0.115 0 0 0.12 0 0.02 0.12 0 0.04 0.12 0 0.06 0.12 0 0.08 0.12 0 0.1 0.12 0 0 0.125 0 0.02 0.125 0 0.04 0.125 0 0.06 0.125 0 0.08 0.125 0 0.1 0.125 0 0 0.13 0 0.02 0.13 0 0.04 0.13 0 0.06 0.13 0 0.08 0.13 0 0.1 0.13 0 0 0.135 0 0.02 0.135 0 0.04 0.135 0 0.06 0.135 0 0.08 0.135 0 0.1 0.135 0 0 0.14 0 0.02 0.14 0 0.04 0.14 0 0.06 0.14 0 0.08 0.14 0 0.1 0.14 0 0 0.145 0 0.02 0.145 0 0.04 0.145 0 0.06 0.145 0 0.08 0.145 0 0.1 0.145 0 0 0.15 0 0.02 0.15 0 0.04 0.15 0 0.06 0.15 0 0.08 0.15 0 0.1 0.15 0 0 0.155 0 0.02 0.155 0 0.04 0.155 0 0.06 0.155 0 0.08 0.155 0 0.1 0.155 0 0 0.16 0 0.02 0.16 0 0.04 0.16 0 0.06 0.16 0 0.08 0.16 0 0.1 0.16 0 0 0.165 0 0.02 0.165 0 0.04 0.165 0 0.06 0.165 0 0.08 0.165 0 0.1 0.165 0 0 0.17 0 0.02 0.17 0 0.04 0.17 0 0.06 0.17 0 0.08 0.17 0 0.1 0.17 0 0 0.175 0 0.02 0.175 0 0.04 0.175 0 0.06 0.175 0 0.08 0.175 0 0.1 0.175 0 0 0.18 0 0.02 0.18 0 0.04 0.18 0 0.06 0.18 0 0.08 0.18 0 0.1 0.18 0 0 0.185 0 0.02 0.185 0 0.04 0.185 0 0.06 0.185 0 0.08 0.185 0 0.1 0.185 0 0 0.19 0 0.02 0.19 0 0.04 0.19 0 0.06 0.19 0 0.08 0.19 0 0.1 0.19 0 0 0.195 0 0.02 0.195 0 0.04 0.195 0 0.06 0.195 0 0.08 0.195 0 0.1 0.195 0 0 0.2 0 0.02 0.2 0 0.04 0.2 0 0.06 0.2 0 0.08 0.2 0 0.1 0.2 0 0 0.205 0 0.02 0.205 0 0.04 0.205 0 0.06 0.205 0 0.08 0.205 0 0.1 0.205 0 0 0.21 0 0.02 0.21 0 0.04 0.21 0 0.06 0.21 0 0.08 0.21 0 0.1 0.21 0 0 0.215 0 0.02 0.215 0 0.04 0.215 0 0.06 0.215 0 0.08 0.215 0 0.1 0.215 0 0 0.22 0 0.02 0.22 0 0.04 0.22 0 0.06 0.22 0 0.08 0.22 0 0.1 0.22 0 0 0.225 0 0.02 0.225 0 0.04 0.225 0 0.06 0.225 0 0.08 0.225 0 0.1 0.225 0 0 0.23 0 0.02 0.23 0 0.04 0.23 0 0.06 0.23 0 0.08 0.23 0 0.1 0.23 0 0 0.235 0 0.02 0.235 0 0.04 0.235 0 0.06 0.235 0 0.08 0.235 0 0.1 0.235 0 0 0.24 0 0.02 0.24 0 0.04 0.24 0 0.06 0.24 0 0.08 0.24 0 0.1 0.24 0 0 0.245 0 0.02 0.245 0 0.04 0.245 0 0.06 0.245 0 0.08 0.245 0 0.1 0.245 0 0 0.25 0 0.02 0.25 0 0.04 0.25 0 0.06 0.25 0 0.08 0.25 0 0.1 0.25 0 0 0.255 0 0.02 0.255 0 0.04 0.255 0 0.06 0.255 0 0.08 0.255 0 0.1 0.255 0 0 0.26 0 0.02 0.26 0 0.04 0.26 0 0.06 0.26 0 0.08 0.26 0 0.1 0.26 0 0 0.265 0 0.02 0.265 0 0.04 0.265 0 0.06 0.265 0 0.08 0.265 0 0.1 0.265 0 0 0.27 0 0.02 0.27 0 0.04 0.27 0 0.06 0.27 0 0.08 0.27 0 0.1 0.27 0 0 0.275 0 0.02 0.275 0 0.04 0.275 0 0.06 0.275 0 0.08 0.275 0 0.1 0.275 0 0 0.28 0 0.02 0.28 0 0.04 0.28 0 0.06 0.28 0 0.08 0.28 0 0.1 0.28 0 0 0.285 0 0.02 0.285 0 0.04 0.285 0 0.06 0.285 0 0.08 0.285 0 0.1 0.285 0 0 0.29 0 0.02 0.29 0 0.04 0.29 0 0.06 0.29 0 0.08 0.29 0 0.1 0.29 0 0 0.295 0 0.02 0.295 0 0.04 0.295 0 0.06 0.295 0 0.08 0.295 0 0.1 0.295 0 0 0.3 0 0.02 0.3 0 0.04 0.3 0 0.06 0.3 0 0.08 0.3 0 0.1 0.3 0 0 0.305 0 0.02 0.305 0 0.04 0.305 0 0.06 0.305 0 0.08 0.305 0 0.1 0.305 0 0 0.31 0 0.02 0.31 0 0.04 0.31 0 0.06 0.31 0 0.08 0.31 0 0.1 0.31 0 0 0.315 0 0.02 0.315 0 0.04 0.315 0 0.06 0.315 0 0.08 0.315 0 0.1 0.315 0 0 0.32 0 0.02 0.32 0 0.04 0.32 0 0.06 0.32 0 0.08 0.32 0 0.1 0.32 0 0 0.325 0 0.02 0.325 0 0.04 0.325 0 0.06 0.325 0 0.08 0.325 0 0.1 0.325 0 0 0.33 0 0.02 0.33 0 0.04 0.33 0 0.06 0.33 0 0.08 0.33 0 0.1 0.33 0 0 0.335 0 0.02 0.335 0 0.04 0.335 0 0.06 0.335 0 0.08 0.335 0 0.1 0.335 0 0 0.34 0 0.02 0.34 0 0.04 0.34 0 0.06 0.34 0 0.08 0.34 0 0.1 0.34 0 0 0.345 0 0.02 0.345 0 0.04 0.345 0 0.06 0.345 0 0.08 0.345 0 0.1 0.345 0 0 0.35 0 0.02 0.35 0 0.04 0.35 0 0.06 0.35 0 0.08 0.35 0 0.1 0.35 0 0 0.355 0 0.02 0.355 0 0.04 0.355 0 0.06 0.355 0 0.08 0.355 0 0.1 0.355 0 0 0.36 0 0.02 0.36 0 0.04 0.36 0 0.06 0.36 0 0.08 0.36 0 0.1 0.36 0 0 0.365 0 0.02 0.365 0 0.04 0.365 0 0.06 0.365 0 0.08 0.365 0 0.1 0.365 0 0 0.37 0 0.02 0.37 0 0.04 0.37 0 0.06 0.37 0 0.08 0.37 0 0.1 0.37 0 0 0.375 0 0.02 0.375 0 0.04 0.375 0 0.06 0.375 0 0.08 0.375 0 0.1 0.375 0 0 0.38 0 0.02 0.38 0 0.04 0.38 0 0.06 0.38 0 0.08 0.38 0 0.1 0.38 0 0 0.385 0 0.02 0.385 0 0.04 0.385 0 0.06 0.385 0 0.08 0.385 0 0.1 0.385 0 0 0.39 0 0.02 0.39 0 0.04 0.39 0 0.06 0.39 0 0.08 0.39 0 0.1 0.39 0 0 0.395 0 0.02 0.395 0 0.04 0.395 0 0.06 0.395 0 0.08 0.395 0 0.1 0.395 0 0 0.4 0 0.02 0.4 0 0.04 0.4 0 0.06 0.4 0 0.08 0.4 0 0.1 0.4 0 0 0.405 0 0.02 0.405 0 0.04 0.405 0 0.06 0.405 0 0.08 0.405 0 0.1 0.405 0 0 0.41 0 0.02 0.41 0 0.04 0.41 0 0.06 0.41 0 0.08 0.41 0 0.1 0.41 0 0 0.415 0 0.02 0.415 0 0.04 0.415 0 0.06 0.415 0 0.08 0.415 0 0.1 0.415 0 0 0.42 0 0.02 0.42 0 0.04 0.42 0 0.06 0.42 0 0.08 0.42 0 0.1 0.42 0 0 0.425 0 0.02 0.425 0 0.04 0.425 0 0.06 0.425 0 0.08 0.425 0 0.1 0.425 0 0 0.43 0 0.02 0.43 0 0.04 0.43 0 0.06 0.43 0 0.08 0.43 0 0.1 0.43 0 0 0.435 0 0.02 0.435 0 0.04 0.435 0 0.06 0.435 0 0.08 0.435 0 0.1 0.435 0 0 0.44 0 0.02 0.44 0 0.04 0.44 0 0.06 0.44 0 0.08 0.44 0 0.1 0.44 0 0 0.445 0 0.02 0.445 0 0.04 0.445 0 0.06 0.445 0 0.08 0.445 0 0.1 0.445 0 0 0.45 0 0.02 0.45 0 0.04 0.45 0 0.06 0.45 0 0.08 0.45 0 0.1 0.45 0 0 0.455 0 0.02 0.455 0 0.04 0.455 0 0.06 0.455 0 0.08 0.455 0 0.1 0.455 0 0 0.46 0 0.02 0.46 0 0.04 0.46 0 0.06 0.46 0 0.08 0.46 0 0.1 0.46 0 0 0.465 0 0.02 0.465 0 0.04 0.465 0 0.06 0.465 0 0.08 0.465 0 0.1 0.465 0 0 0.47 0 0.02 0.47 0 0.04 0.47 0 0.06 0.47 0 0.08 0.47 0 0.1 0.47 0 0 0.475 0 0.02 0.475 0 0.04 0.475 0 0.06 0.475 0 0.08 0.475 0 0.1 0.475 0 0 0.48 0 0.02 0.48 0 0.04 0.48 0 0.06 0.48 0 0.08 0.48 0 0.1 0.48 0 0 0.485 0 0.02 0.485 0 0.04 0.485 0 0.06 0.485 0 0.08 0.485 0 0.1 0.485 0 0 0.49 0 0.02 0.49 0 0.04 0.49 0 0.06 0.49 0 0.08 0.49 0 0.1 0.49 0 0 0.495 0 0.02 0.495 0 0.04 0.495 0 0.06 0.495 0 0.08 0.495 0 0.1 0.495 0 0 0.5 0 0.02 0.5 0 0.04 0.5 0 0.06 0.5 0 0.08 0.5 0 0.1 0.5 0 0 0.505 0 0.02 0.505 0 0.04 0.505 0 0.06 0.505 0 0.08 0.505 0 0.1 0.505 0 0 0.51 0 0.02 0.51 0 0.04 0.51 0 0.06 0.51 0 0.08 0.51 0 0.1 0.51 0 0 0.515 0 0.02 0.515 0 0.04 0.515 0 0.06 0.515 0 0.08 0.515 0 0.1 0.515 0 0 0.52 0 0.02 0.52 0 0.04 0.52 0 0.06 0.52 0 0.08 0.52 0 0.1 0.52 0 0 0.525 0 0.02 0.525 0 0.04 0.525 0 0.06 0.525 0 0.08 0.525 0 0.1 0.525 0 0 0.53 0 0.02 0.53 0 0.04 0.53 0 0.06 0.53 0 0.08 0.53 0 0.1 0.53 0 0 0.535 0 0.02 0.535 0 0.04 0.535 0 0.06 0.535 0 0.08 0.535 0 0.1 0.535 0 0 0.54 0 0.02 0.54 0 0.04 0.54 0 0.06 0.54 0 0.08 0.54 0 0.1 0.54 0 0 0.545 0 0.02 0.545 0 0.04 0.545 0 0.06 0.545 0 0.08 0.545 0 0.1 0.545 0 0 0.55 0 0.02 0.55 0 0.04 0.55 0 0.06 0.55 0 0.08 0.55 0 0.1 0.55 0 0 0.555 0 0.02 0.555 0 0.04 0.555 0 0.06 0.555 0 0.08 0.555 0 0.1 0.555 0 0 0.56 0 0.02 0.56 0 0.04 0.56 0 0.06 0.56 0 0.08 0.56 0 0.1 0.56 0 0 0.565 0 0.02 0.565 0 0.04 0.565 0 0.06 0.565 0 0.08 0.565 0 0.1 0.565 0 0 0.57 0 0.02 0.57 0 0.04 0.57 0 0.06 0.57 0 0.08 0.57 0 0.1 0.57 0 0 0.575 0 0.02 0.575 0 0.04 0.575 0 0.06 0.575 0 0.08 0.575 0 0.1 0.575 0 0 0.58 0 0.02 0.58 0 0.04 0.58 0 0.06 0.58 0 0.08 0.58 0 0.1 0.58 0 0 0.585 0 0.02 0.585 0 0.04 0.585 0 0.06 0.585 0 0.08 0.585 0 0.1 0.585 0 0 0.59 0 0.02 0.59 0 0.04 0.59 0 0.06 0.59 0 0.08 0.59 0 0.1 0.59 0 0 0.595 0 0.02 0.595 0 0.04 0.595 0 0.06 0.595 0 0.08 0.595 0 0.1 0.595 0 0 0.6 0 0.02 0.6 0 0.04 0.6 0 0.06 0.6 0 0.08 0.6 0 0.1 0.6 0 0 0.605 0 0.02 0.605 0 0.04 0.605 0 0.06 0.605 0 0.08 0.605 0 0.1 0.605 0 0 0.61 0 0.02 0.61 0 0.04 0.61 0 0.06 0.61 0 0.08 0.61 0 0.1 0.61 0 0 0.615 0 0.02 0.615 0 0.04 0.615 0 0.06 0.615 0 0.08 0.615 0 0.1 0.615 0 0 0.62 0 0.02 0.62 0 0.04 0.62 0 0.06 0.62 0 0.08 0.62 0 0.1 0.62 0 0 0.625 0 0.02 0.625 0 0.04 0.625 0 0.06 0.625 0 0.08 0.625 0 0.1 0.625 0 0 0.63 0 0.02 0.63 0 0.04 0.63 0 0.06 0.63 0 0.08 0.63 0 0.1 0.63 0 0 0.635 0 0.02 0.635 0 0.04 0.635 0 0.06 0.635 0 0.08 0.635 0 0.1 0.635 0 0 0.64 0 0.02 0.64 0 0.04 0.64 0 0.06 0.64 0 0.08 0.64 0 0.1 0.64 0 0 0.645 0 0.02 0.645 0 0.04 0.645 0 0.06 0.645 0 0.08 0.645 0 0.1 0.645 0 0 0.65 0 0.02 0.65 0 0.04 0.65 0 0.06 0.65 0 0.08 0.65 0 0.1 0.65 0 0 0.655 0 0.02 0.655 0 0.04 0.655 0 0.06 0.655 0 0.08 0.655 0 0.1 0.655 0 0 0.66 0 0.02 0.66 0 0.04 0.66 0 0.06 0.66 0 0.08 0.66 0 0.1 0.66 0 0 0.665 0 0.02 0.665 0 0.04 0.665 0 0.06 0.665 0 0.08 0.665 0 0.1 0.665 0 0 0.67 0 0.02 0.67 0 0.04 0.67 0 0.06 0.67 0 0.08 0.67 0 0.1 0.67 0 0 0.675 0 0.02 0.675 0 0.04 0.675 0 0.06 0.675 0 0.08 0.675 0 0.1 0.675 0 0 0.68 0 0.02 0.68 0 0.04 0.68 0 0.06 0.68 0 0.08 0.68 0 0.1 0.68 0 0 0.685 0 0.02 0.685 0 0.04 0.685 0 0.06 0.685 0 0.08 0.685 0 0.1 0.685 0 0 0.69 0 0.02 0.69 0 0.04 0.69 0 0.06 0.69 0 0.08 0.69 0 0.1 
[...]
			<PointData Scalars="VitesseX">
				<DataArray Name="VitesseX" type="Float32" format="ascii">
 0 3.35925e-14 1.37481e-14 1.29842e-14 4.95091e-14 0 0 2.37221e-14 2.62233e-14 1.06135e-14 4.20287e-14 0 0 2.29711e-14 2.24781e-14 3.26612e-14 1.22441e-14 0 0 7.64077e-15 4.51934e-14 2.32362e-14 4.89187e-15 0 0 5.55949e-15 5.84713e-14 3.36996e-15 1.44877e-14 0 0 4.54645e-14 1.53698e-14 2.72582e-14 6.42394e-17 0 0 6.06924e-14 4.92502e-15 3.32556e-14 -1.5148e-14 0 0 5.26982e-14 1.68017e-14 2.45018e-14 -1.67257e-14 0 0 4.48179e-14 2.87729e-14 1.45408e-15 2.82089e-15 0 0 3.15711e-14 4.06638e-14 -2.36697e-14 3.53969e-14 0 0 6.77842e-15 7.79958e-14 -6.03686e-14 6.40297e-14 0 0 2.92523e-14 4.73733e-14 -5.55871e-15 1.55974e-14 0 0 2.64024e-14 4.41661e-14 3.00806e-14 -1.62591e-14 0 0 2.69485e-14 5.67448e-14 1.34431e-14 3.52651e-15 0 0 3.68686e-14 4.56633e-14 1.71057e-14 1.38736e-14 0 0 7.00037e-15 7.31912e-14 -2.23506e-15 2.31852e-14 0 0 2.46209e-14 4.79873e-14 2.10907e-15 3.07458e-14 0 0 1.75918e-14 7.13661e-14 -4.5069e-14 7.43781e-14 0 0 1.17796e-14 7.36014e-14 -4.86023e-14 9.63747e-14 0 0 2.74169e-14 4.09359e-14 -3.16562e-15 9.18222e-14 0 0 4.23922e-14 2.33332e-14 2.40274e-14 8.21883e-14 0 0 5.15925e-14 3.4067e-14 2.53027e-14 6.82454e-14 0 0 8.87697e-14 5.35207e-15 7.07474e-14 3.77798e-14 0 0 9.36068e-14 1.25211e-14 7.18073e-14 3.98156e-14 0 0 3.81467e-14 1.07717e-13 -2.95323e-15 7.17061e-14 0 0 5.45062e-14 9.36271e-14 1.9263e-14 5.96029e-14 0 0 6.37457e-14 1.05277e-13 -9.58972e-15 8.08698e-14 0 0 4.03179e-14 1.53834e-13 -4.83248e-14 8.10388e-14 0 0 5.36539e-14 1.14827e-13 2.61518e-14 1.32061e-14 0 0 7.10028e-14 7.35369e-14 8.49247e-14 -3.36775e-14 0 0 1.03619e-13 9.67102e-15 1.37926e-13 -7.82151e-14 0 0 6.08098e-14 6.37553e-14 7.45924e-14 -3.88008e-14 0 0 5.31462e-14 8.72717e-14 -1.79787e-16 3.73086e-14 0 0 7.15403e-14 6.31194e-14 -2.71573e-14 8.72688e-14 0 0 6.14817e-14 9.86331e-14 -8.23616e-14 1.2536e-13 0 0 1.46264e-13 -1.27657e-14 3.24947e-14 3.79736e-15 0 0 1.26024e-13 9.226e-15 3.33416e-14 -1.60261e-14 0 0 8.36075e-14 5.50722e-14 -2.15526e-14 6.43036e-14 0 0 4.89714e-14 1.06472e-13 -7.46615e-14 8.61827e-14 0 0 4.68105e-14 1.26777e-13 -7.02721e-14 4.51719e-14 0 0 1.37163e-13 5.76863e-14 -5.05795e-14 4.87088e-14 0 0 1.9376e-13 5.05935e-14 -1.13192e-13 1.30272e-13 0 0 2.97412e-13 -7.51373e-14 9.41554e-15 8.53988e-14 0 0 3.19644e-13 -8.83237e-14 5.53189e-14 3.09916e-14 0 0 2.16788e-13 3.48033e-14 -4.55278e-15 2.37972e-14 0 0 1.80931e-13 6.48331e-14 -6.59937e-14 9.65082e-14 0 0 1.28e-13 1.54249e-13 -1.83936e-13 2.01951e-13 0 0 1.45483e-13 8.98484e-14 -6.74587e-14 1.50597e-13 0 0 2.11853e-13 -5.61604e-14 8.10574e-14 1.17087e-13 0 0 2.8617e-13 -2.25504e-13 2.61002e-13 4.50932e-14 0 0 3.22918e-13 -3.38875e-13 3.81564e-13 -2.33823e-15 0 0 1.92371e-13 -1.01545e-13 1.23652e-13 1.62479e-13 0 0 2.1794e-13 -1.09023e-13 9.66252e-14 1.7743e-13 0 0 1.29853e-13 1.64515e-14 -4.19454e-14 2.40105e-13 0 0 1.937e-14 1.75327e-13 -1.97114e-13 3.30327e-13 0 0 2.18474e-13 -1.41598e-13 4.81696e-14 2.48575e-13 0 0 1.53769e-13 -1.39886e-14 -9.44924e-14 3.28059e-13 0 0 1.28056e-13 5.28306e-14 -4.37871e-14 1.97973e-13 0 0 1.74373e-13 -3.30417e-14 1.58747e-13 2.78311e-14 0 0 5.80794e-14 9.17456e-14 1.01812e-13 7.30364e-14 0 0 6.43617e-14 1.05348e-13 7.43475e-14 1.016e-13 0 0 1.56587e-13 7.92173e-14 1.16623e-14 1.51933e-13 0 0 2.74128e-13 -5.09479e-14 1.37829e-13 1.30619e-15 0 0 1.88984e-13 3.60302e-14 9.28936e-14 -3.77639e-14 0 0 1.27817e-13 7.50549e-14 8.49927e-14 -5.86105e-14 0 0 1.77613e-13 3.24333e-14 1.28598e-13 -1.24793e-13 0 0 6.02283e-14 2.5483e-13 -1.47296e-13 2.24794e-14 0 0 1.46096e-13 7.66598e-14 8.8988e-15 -7.50141e-14 0 0 2.11671e-13 -2.17549e-14 1.26898e-13 -1.26104e-13 0 0 1.65452e-13 1.05793e-13 -2.71341e-15 2.75978e-14 0 0 2.83416e-13 -5.55506e-14 1.14972e-13 9.78495e-14 0 0 2.22224e-13 8.07294e-14 -2.63023e-14 2.4641e-13 0 0 2.21474e-13 1.26383e-13 9.16451e-15 2.42079e-13 0 0 2.06233e-13 2.26507e-13 -6.64084e-14 3.11532e-13 0 0 3.42989e-13 5.51077e-14 8.04856e-14 2.13319e-13 0 0 3.27204e-13 3.88888e-14 1.71276e-13 1.58332e-13 0 0 2.93891e-14 4.45722e-13 -1.42952e-13 4.20082e-13 0 0 2.90189e-13 -2.17913e-15 3.03937e-13 2.56716e-13 0 0 1.9715e-13 1.57235e-13 2.06039e-13 3.46266e-13 0 0 3.39767e-13 -9.36364e-15 4.03385e-13 1.44934e-13 0 0 3.77366e-13 1.549e-13 1.50632e-13 2.09892e-13 0 0 -9.80494e-14 9.18999e-13 -4.53763e-13 5.21594e-13 0 0 1.6174e-13 2.20281e-13 5.66322e-13 -1.86207e-13 0 0 5.95311e-14 4.1545e-13 4.4647e-13 -5.20638e-14 0 0 -1.08003e-13 1.07505e-12 -1.83682e-13 4.06042e-13 0 0 5.00864e-13 4.10942e-13 3.83633e-13 8.6104e-14 0 0 8.99896e-13 -2.94903e-14 6.8238e-13 -1.5137e-14 0 0 5.14726e-13 6.15925e-13 2.58651e-13 1.19314e-13 0 0 3.84046e-13 6.57109e-13 4.17945e-13 -1.70604e-13 0 0 2.47479e-13 7.13589e-13 8.03878e-13 -4.25912e-13 0 0 5.087e-13 1.56376e-12 1.53605e-12 1.69401e-13 0 0 4.04455e-12 7.47237e-12 7.67411e-12 4.37921e-12 0 0 2.69692e-11 4.60318e-11 4.89071e-11 3.13757e-11 0 0 1.44113e-10 2.51932e-10 2.75554e-10 1.82088e-10 0 0 5.94422e-10 1.0967e-09 1.26354e-09 8.64945e-10 0 0 1.82153e-09 3.5056e-09 4.33492e-09 3.16287e-09 0 0 7.42837e-10 5.49381e-09 1.0477e-08 8.65528e-09 0 0 -2.30996e-08 -2.68141e-08 -1.27015e-08 1.45374e-10 0 0 -1.52223e-07 -2.31006e-07 -2.06595e-07 -1.12903e-07 0 0 -6.07969e-07 -1.04157e-06 -1.09051e-06 -6.87235e-07 0 0 -1.80077e-06 -3.44356e-06 -4.01483e-06 -2.72521e-06 0 0 -4.25492e-06 -9.17207e-06 -1.17397e-05 -8.4732e-06 0 0 -8.65616e-06 -1.98355e-05 -2.92301e-05 -2.20227e-05 0 0 -1.36602e-05 -4.2371e-05 -6.05371e-05 -4.89975e-05 0 0 -1.35519e-05 -6.68588e-05 -0.000123661 -0.00010544 0 0 -1.88309e-05 -9.18488e-05 -0.000204778 -0.000169918 0 0 -3.77851e-05 -0.000141863 -0.00027616 -0.000222091 0 0 -8.3962e-05 -0.000229623 -0.000328729 -0.000262886 0 0 -0.000160662 -0.000328121 -0.000391523 -0.000319142 0 0 -0.000195451 -0.000405335 -0.000469654 -0.000348917 0 0 -0.000188452 -0.00040518 -0.000536423 -0.000344747 0 0 -0.000158602 -0.000395494 -0.000541742 -0.000329194 0 0 -0.00012661 -0.000382153 -0.000534915 -0.000299705 0 0 -0.000101759 -0.000349 -0.000497021 -0.000245198 0 0 -8.29581e-05 -0.000288699 -0.000395899 -0.000190241 0 0 -7.11299e-05 -0.000236456 -0.000298867 -0.000153523 0 0 -6.46903e-05 -0.000195381 -0.000228648 -0.000135454 0 0 -2.80389e-05 -2.58679e-05 -6.07182e-06 -6.14479e-05 0 0 0.000154479 0.000401533 0.000531256 0.000298233 0 0 0.000230905 0.000469195 0.000623453 0.000464647 0 0 0.000222127 0.000432259 0.000578898 0.000446458 0 0 0.000189704 0.000359876 0.00047165 0.00037021 0 0 0.000155865 0.000298831 0.00037991 0.000289279 0 0 0.000126733 0.000247596 0.000310035 0.000228867 0 0 0.000101589 0.000199321 0.000249221 0.000182297 0 0 7.79499e-05 0.000151385 0.000188107 0.000137222 0 0 5.55729e-05 0.000106421 0.00012963 9.31071e-05 0 0 3.61025e-05 6.79769e-05 8.05619e-05 5.64752e-05 0 0 2.08423e-05 3.8363e-05 4.42395e-05 3.03499e-05 0 0 1.02954e-05 1.84568e-05 2.07036e-05 1.39303e-05 0 0 4.18756e-06 7.31636e-06 7.98892e-06 5.27592e-06 0 0 1.38644e-06 2.36997e-06 2.52644e-06 1.63964e-06 0 0 3.79588e-07 6.37341e-07 6.65942e-07 4.25866e-07 0 0 9.11386e-08 1.51173e-07 1.55756e-07 9.85526e-08 0 0 2.01739e-08 3.3186e-08 3.38586e-08 2.12618e-08 0 0 4.22992e-09 6.91962e-09 7.01274e-09 4.38077e-09 0 0 8.5058e-10 1.38615e-09 1.39857e-09 8.70484e-10 0 0 1.65075e-10 2.68103e-10 2.69775e-10 1.67473e-10 0 0 3.11948e-11 5.02409e-11 5.06193e-11 3.1346e-11 0 0 5.93372e-12 9.26179e-12 9.47222e-12 5.81729e-12 0 0 1.24932e-12 2.03832e-12 1.72326e-12 1.35692e-12 0 0 5.02352e-13 7.43969e-13 3.60451e-13 5.2879e-13 0 0 5.45033e-13 2.84128e-13 4.04406e-13 1.94485e-13 0 0 5.23756e-13 2.65476e-13 4.5248e-13 -8.65393e-15 0 0 3.90883e-13 5.16137e-13 2.14213e-13 1.38478e-14 0 0 2.50062e-13 8.19659e-13 -2.61987e-13 4.04524e-13 0 0 5.44127e-13 3.42542e-13 9.44995e-14 2.7536e-13 0 0 6.65628e-13 6.03312e-14 3.73213e-13 9.46944e-14 0 0 4.99257e-13 2.44068e-13 1.70531e-13 2.10889e-13 0 0 3.41776e-13 4.67324e-13 -8.72313e-14 3.72966e-13 0 0 2.79065e-13 6.41595e-13 -2.73718e-13 4.6477e-13 0 0 6.50316e-13 7.76989e-14 2.86651e-13 1.56758e-13 0 0 6.7692e-13 4.23781e-14 2.88804e-13 1.85272e-13 0 0 5.56763e-13 1.41618e-13 3.42148e-13 -2.30449e-14 0 0 3.44597e-13 4.32526e-13 2.29649e-13 -2.11251e-13 0 0 2.99272e-13 5.56107e-13 -1.68756e-14 1.47377e-14 0 0 6.0794e-13 -1.60776e-14 4.81917e-13 -1.42191e-13 0 0 5.70282e-13 -8.00085e-14 6.71662e-13 -2.38562e-13 0 0 1.61203e-13 4.61375e-13 1.50728e-13 2.86745e-13 0 0 -3.24178e-13 1.10108e-12 -4.3532e-13 6.83572e-13 0 0 -8.61772e-14 5.94885e-13 7.06503e-14 4.94156e-13 0 0 6.39697e-13 -5.60792e-13 1.21268e-12 -6.54755e-14 0 0 7.45332e-13 -7.36089e-13 1.41863e-12 -1.73156e-13 0 0 2.68038e-13 3.34999e-14 5.98642e-13 3.97073e-13 0 0 -1.86906e-13 7.04555e-13 5.90363e-14 6.44216e-13 0 0 -2.86754e-13 7.1575e-13 6.2239e-14 6.77529e-13 0 0 4.70389e-14 1.81246e-13 5.25293e-13 4.08842e-13 0 0 4.47311e-13 -4.02619e-13 1.01067e-12 8.14298e-14 0 0 4.18018e-13 -3.24622e-13 8.1902e-13 2.77557e-13 0 0 1.66126e-13 1.14147e-13 5.97196e-13 2.58614e-13 0 0 1.1267e-13 2.06267e-13 6.09005e-13 2.22102e-13 0 0 1.45777e-14 3.93689e-13 2.38705e-13 6.15905e-13 0 0 4.52463e-15 4.15136e-13 1.05641e-13 7.34313e-13 0 0 3.07354e-13 -8.98034e-14 5.66419e-13 4.90103e-13 0 0 4.56061e-13 -1.7545e-13 6.99485e-13 2.0629e-13 0 0 2.45796e-13 2.18039e-13 3.99588e-13 1.82476e-13 0 0 -5.34753e-14 5.72473e-13 1.71457e-14 4.0895e-13 0 0 -6.03558e-14 5.76201e-13 -1.30261e-13 5.51996e-13 0 0 2.59018e-13 1.94671e-13 1.98195e-13 3.02446e-13 0 0 5.99673e-13 -2.82563e-13 6.11523e-13 -5.22866e-14 0 0 3.92738e-13 7.72552e-14 1.38459e-13 2.13067e-13 0 0 1.44786e-13 4.14584e-13 -1.25724e-13 2.59514e-13 0 0 1.15564e-13 3.06066e-13 1.17677e-13 8.5686e-14 0 0 1.82781e-13 2.6983e-13 5.68914e-14 2.93616e-13 0 0 3.39631e-13 1.17838e-13 1.31803e-13 2.78314e-13 0 0 2.39205e-13 3.80184e-13 -4.90857e-14 2.41715e-13 0 0 1.89296e-13 6.07557e-13 -3.66726e-13 4.8011e-13 0 0 2.61482e-13 3.98961e-13 -1.44014e-13 5.05105e-13 0 0 5.20848e-13 -1.19816e-13 6.54441e-13 -1.54917e-13 0 0 6.33357e-13 -1.89151e-13 6.45471e-13 -1.30378e-13 0 0 4.11013e-13 3.13907e-13 -1.81811e-13 6.41079e-13 0 0 4.2793e-13 3.98224e-13 -5.12051e-13 1.02306e-12 0 0 5.83836e-13 7.83724e-14 -1.32227e-13 7.7413e-13 0 0 7.15219e-13 -3.0367e-13 3.67581e-13 3.46564e-13 0 0 5.88392e-13 -9.44134e-14 1.54134e-13 4.31655e-13 0 0 1.09599e-13 8.07155e-13 -8.06289e-13 1.03875e-12 0 0 4.40888e-13 4.1579e-13 -6.45394e-13 1.16781e-12 0 0 1.09464e-12 -5.48644e-13 5.88918e-14 9.80881e-13 0 0 9.4865e-13 -3.3859e-13 -5.22448e-14 9.23308e-13 0 0 1.87915e-13 8.11424e-13 -7.13881e-13 1.10215e-12 0 0 -3.10655e-13 1.5896e-12 -1.27532e-12 1.46225e-12 0
				</DataArray>
				<DataArray Name="VitesseY" type="Float32" format="ascii">