<?xml version="1.0"?>
<VTKFile type="PolyData">
	<PolyData>
		<Piece NumberOfPoints="1206" NumberOfPolys="1000">
			<Points>
				<DataArray type="Float32" NumberOfComponents="3" format="ascii">
 0 0 0 0.02 0 0 0.04 0 0 0.06 0 0 0.08 0 0 0.1 0 0 0 0.005 0 0.02 0.005 0 0.04 0.005 0 0.06 0.005 0 0.08 0.005 0 0.1 0.005 0 0 0.01 0 0.02 0.01 0 0.04 0.01 0 0.06 0.01 0 0.08 0.01 0 0.1 0.01 0 0 0.015 0 0.02 0.015 0 0.04 0.015 0 0.06 0.015 0 0.08 0.015 0 0.1 0.015 0 0 0.02 0 0.02 0.02 0 0.04 0.02 0 0.06 0.02 0 0.08 0.02 0 0.1 0.02 0 0 0.025 0 0.02 0.025 0 0.04 0.025 0 0.06 0.025 0 0.08 0.025 0 0.1 0.025 0 0 0.03 0 0.02 0.03 0 0.04 0.03 0 0.06 0.03 0 0.08 0.03 0 0.1 0.03 0 0 0.035 0 0.02 0.035 0 0.04 0.035 0 0.06 0.035 0 0.08 0.035 0 0.1 0.035 0 0 0.04 0 0.02 0.04 0 0.04 0.04 0 0.06 0.04 0 0.08 0.04 0 0.1 0.04 0 0 0.045 0 0.02 0.045 0 0.04 0.045 0 0.06 0.045 0 0.08 0.045 0 0.1 0.045 0 0 0.05 0 0.02 0.05 0 0.04 0.05 0 0.06 0.05 0 0.08 0.05 0 0.1 0.05 0 0 0.055 0 0.02 0.055 0 0.04 0.055 0 0.06 0.055 0 0.08 0.055 0 0.1 0.055 0 0 0.06 0 0.02 0.06 0 0.04 0.06 0 0.06 0.06 0 0.08 0.06 0 0.1 0.06 0 0 0.065 0 0.02 0.065 0 0.04 0.065 0 0.06 0.065 0 0.08 0.065 0 0.1 0.065 0 0 0.07 0 0.02 0.07 0 0.04 0.07 0 0.06 0.07 0 0.08 0.07 0 0.1 0.07 0 0 0.075 0 0.02 0.075 0 0.04 0.075 0 0.06 0.075 0 0.08 0.075 0 0.1 0.075 0 0 0.08 0 0.02 0.08 0 0.04 0.08 0 0.06 0.08 0 0.08 0.08 0 0.1 0.08 0 0 0.085 0 0.02 0.085 0 0.04 0.085 0 0.06 0.085 0 0.08 0.085 0 0.1 0.085 0 0 0.09 0 0.02 0.09 0 0.04 0.09 0 0.06 0.09 0 0.08 0.09 0 0.1 0.09 0 0 0.095 0 0.02 0.095 0 0.04 0.095 0 0.06 0.095 0 0.08 0.095 0 0.1 0.095 0 0 0.1 0 0.02 0.1 0 0.04 0.1 0 0.06 0.1 0 0.08 0.1 0 0.1 0.1 0 0 0.105 0 0.02 0.105 0 0.04 0.105 0 0.06 0.105 0 0.08 0.105 0 0.1 0.105 0 0 0.11 0 0.02 0.11 0 0.04 0.11 0 0.06 0.11 0 0.08 0.11 0 0.1 0.11 0 0 0.115 0 0.02 0.115 0 0.04 0.115 0 0.06 0.115 0 0.08 0.115 0 0.1 0.115 0 0 0.12 0 0.02 0.12 0 0.04 0.12 0 0.06 0.12 0 0.08 0.12 0 0.1 0.12 0 0 0.125 0 0.02 0.125 0 0.04 0.125 0 0.06 0.125 0 0.08 0.125 0 0.1 0.125 0 0 0.13 0 0.02 0.13 0 0.04 0.13 0 0.06 0.13 0 0.08 0.13 0 0.1 0.13 0 0 0.135 0 0.02 0.135 0 0.04 0.135 0 0.06 0.135 0 0.08 0.135 0 0.1 0.135 0 0 0.14 0 0.02 0.14 0 0.04 0.14 0 0.06 0.14 0 0.08 0.14 0 0.1 0.14 0 0 0.145 0 0.02 0.145 0 0.04 0.145 0 0.06 0.145 0 0.08 0.145 0 0.1 0.145 0 0 0.15 0 0.02 0.15 0 0.04 0.15 0 0.06 0.15 0 0.08 0.15 0 0.1 0.15 0 0 0.155 0 0.02 0.155 0 0.04 0.155 0 0.06 0.155 0 0.08 0.155 0 0.1 0.155 0 0 0.16 0 0.02 0.16 0 0.04 0.16 0 0.06 0.16 0 0.08 0.16 0 0.1 0.16 0 0 0.165 0 0.02 0.165 0 0.04 0.165 0 0.06 0.165 0 0.08 0.165 0 0.1 0.165 0 0 0.17 0 0.02 0.17 0 0.04 0.17 0 0.06 0.17 0 0.08 0.17 0 0.1 0.17 0 0 0.175 0 0.02 0.175 0 0.04 0.175 0 0.06 0.175 0 0.08 0.175 0 0.1 0.175 0 0 0.18 0 0.02 0.18 0 0.04 0.18 0 0.06 0.18 0 0.08 0.18 0 0.1 0.18 0 0 0.185 0 0.02 0.185 0 0.04 0.185 0 0.06 0.185 0 0.08 0.185 0 0.1 0.185 0 0 0.19 0 0.02 0.19 0 0.04 0.19 0 0.06 0.19 0 0.08 0.19 0 0.1 0.19 0 0 0.195 0 0.02 0.195 0 0.04 0.195 0 0.06 0.195 0 0.08 0.195 0 0.1 0.195 0 0 0.2 0 0.02 0.2 0 0.04 0.2 0 0.06 0.2 0 0.08 0.2 0 0.1 0.2 0 0 0.205 0 0.02 0.205 0 0.04 0.205 0 0.06 0.205 0 0.08 0.205 0 0.1 0.205 0 0 0.21 0 0.02 0.21 0 0.04 0.21 0 0.06 0.21 0 0.08 0.21 0 0.1 0.21 0 0 0.215 0 0.02 0.215 0 0.04 0.215 0 0.06 0.215 0 0.08 0.215 0 0.1 0.215 0 0 0.22 0 0.02 0.22 0 0.04 0.22 0 0.06 0.22 0 0.08 0.22 0 0.1 0.22 0 0 0.225 0 0.02 0.225 0 0.04 0.225 0 0.06 0.225 0 0.08 0.225 0 0.1 0.225 0 0 0.23 0 0.02 0.23 0 0.04 0.23 0 0.06 0.23 0 0.08 0.23 0 0.1 0.23 0 0 0.235 0 0.02 0.235 0 0.04 0.235 0 0.06 0.235 0 0.08 0.235 0 0.1 0.235 0 0 0.24 0 0.02 0.24 0 0.04 0.24 0 0.06 0.24 0 0.08 0.24 0 0.1 0.24 0 0 0.245 0 0.02 0.245 0 0.04 0.245 0 0.06 0.245 0 0.08 0.245 0 0.1 0.245 0 0 0.25 0 0.02 0.25 0 0.04 0.25 0 0.06 0.25 0 0.08 0.25 0 0.1 0.25 0 0 0.255 0 0.02 0.255 0 0.04 0.255 0 0.06 0.255 0 0.08 0.255 0 0.1 0.255 0 0 0.26 0 0.02 0.26 0 0.04 0.26 0 0.06 0.26 0 0.08 0.26 0 0.1 0.26 0 0 0.265 0 0.02 0.265 0 0.04 0.265 0 0.06 0.265 0 0.08 0.265 0 0.1 0.265 0 0 0.27 0 0.02 0.27 0 0.04 0.27 0 0.06 0.27 0 0.08 0.27 0 0.1 0.27 0 0 0.275 0 0.02 0.275 0 0.04 0.275 0 0.06 0.275 0 0.08 0.275 0 0.1 0.275 0 0 0.28 0 0.02 0.28 0 0.04 0.28 0 0.06 0.28 0 0.08 0.28 0 0.1 0.28 0 0 0.285 0 0.02 0.285 0 0.04 0.285 0 0.06 0.285 0 0.08 0.285 0 0.1 0.285 0 0 0.29 0 0.02 0.29 0 0.04 0.29 0 0.06 0.29 0 0.08 0.29 0 0.1 0.29 0 0 0.295 0 0.02 0.295 0 0.04 0.295 0 0.06 0.295 0 0.08 0.295 0 0.1 0.295 0 0 0.3 0 0.02 0.3 0 0.04 0.3 0 0.06 0.3 0 0.08 0.3 0 0.1 0.3 0 0 0.305 0 0.02 0.305 0 0.04 0.305 0 0.06 0.305 0 0.08 0.305 0 0.1 0.305 0 0 0.31 0 0.02 0.31 0 0.04 0.31 0 0.06 0.31 0 0.08 0.31 0 0.1 0.31 0 0 0.315 0 0.02 0.315 0 0.04 0.315 0 0.06 0.315 0 0.08 0.315 0 0.1 0.315 0 0 0.32 0 0.02 0.32 0 0.04 0.32 0 0.06 0.32 0 0.08 0.32 0 0.1 0.32 0 0 0.325 0 0.02 0.325 0 0.04 0.325 0 0.06 0.325 0 0.08 0.325 0 0.1 0.325 0 0 0.33 0 0.02 0.33 0 0.04 0.33 0 0.06 0.33 0 0.08 0.33 0 0.1 0.33 0 0 0.335 0 0.02 0.335 0 0.04 0.335 0 0.06 0.335 0 0.08 0.335 0 0.1 0.335 0 0 0.34 0 0.02 0.34 0 0.04 0.34 0 0.06 0.34 0 0.08 0.34 0 0.1 0.34 0 0 0.345 0 0.02 0.345 0 0.04 0.345 0 0.06 0.345 0 0.08 0.345 0 0.1 0.345 0 0 0.35 0 0.02 0.35 0 0.04 0.35 0 0.06 0.35 0 0.08 0.35 0 0.1 0.35 0 0 0.355 0 0.02 0.355 0 0.04 0.355 0 0.06 0.355 0 0.08 0.355 0 0.1 0.355 0 0 0.36 0 0.02 0.36 0 0.04 0.36 0 0.06 0.36 0 0.08 0.36 0 0.1 0.36 0 0 0.365 0 0.02 0.365 0 0.04 0.365 0 0.06 0.365 0 0.08 0.365 0 0.1 0.365 0 0 0.37 0 0.02 0.37 0 0.04 0.37 0 0.06 0.37 0 0.08 0.37 0 0.1 0.37 0 0 0.375 0 0.02 0.375 0 0.04 0.375 0 0.06 0.375 0 0.08 0.375 0 0.1 0.375 0 0 0.38 0 0.02 0.38 0 0.04 0.38 0 0.06 0.38 0 0.08 0.38 0 0.1 0.38 0 0 0.385 0 0.02 0.385 0 0.04 0.385 0 0.06 0.385 0 0.08 0.385 0 0.1 0.385 0 0 0.39 0 0.02 0.39 0 0.04 0.39 0 0.06 0.39 0 0.08 0.39 0 0.1 0.39 0 0 0.395 0 0.02 0.395 0 0.04 0.395 0 0.06 0.395 0 0.08 0.395 0 0.1 0.395 0 0 0.4 0 0.02 0.4 0 0.04 0.4 0 0.06 0.4 0 0.08 0.4 0 0.1 0.4 0 0 0.405 0 0.02 0.405 0 0.04 0.405 0 0.06 0.405 0 0.08 0.405 0 0.1 0.405 0 0 0.41 0 0.02 0.41 0 0.04 0.41 0 0.06 0.41 0 0.08 0.41 0 0.1 0.41 0 0 0.415 0 0.02 0.415 0 0.04 0.415 0 0.06 0.415 0 0.08 0.415 0 0.1 0.415 0 0 0.42 0 0.02 0.42 0 0.04 0.42 0 0.06 0.42 0 0.08 0.42 0 0.1 0.42 0 0 0.425 0 0.02 0.425 0 0.04 0.425 0 0.06 0.425 0 0.08 0.425 0 0.1 0.425 0 0 0.43 0 0.02 0.43 0 0.04 0.43 0 0.06 0.43 0 0.08 0.43 0 0.1 0.43 0 0 0.435 0 0.02 0.435 0 0.04 0.435 0 0.06 0.435 0 0.08 0.435 0 0.1 0.435 0 0 0.44 0 0.02 0.44 0 0.04 0.44 0 0.06 0.44 0 0.08 0.44 0 0.1 0.44 0 0 0.445 0 0.02 0.445 0 0.04 0.445 0 0.06 0.445 0 0.08 0.445 0 0.1 0.445 0 0 0.45 0 0.02 0.45 0 0.04 0.45 0 0.06 0.45 0 0.08 0.45 0 0.1 0.45 0 0 0.455 0 0.02 0.455 0 0.04 0.455 0 0.06 0.455 0 0.08 0.455 0 0.1 0.455 0 0 0.46 0 0.02 0.46 0 0.04 0.46 0 0.06 0.46 0 0.08 0.46 0 0.1 0.46 0 0 0.465 0 0.02 0.465 0 0.04 0.465 0 0.06 0.465 0 0.08 0.465 0 0.1 0.465 0 0 0.47 0 0.02 0.47 0 0.04 0.47 0 0.06 0.47 0 0.08 0.47 0 0.1 0.47 0 0 0.475 0 0.02 0.475 0 0.04 0.475 0 0.06 0.475 0 0.08 0.475 0 0.1 0.475 0 0 0.48 0 0.02 0.48 0 0.04 0.48 0 0.06 0.48 0 0.08 0.48 0 0.1 0.48 0 0 0.485 0 0.02 0.485 0 0.04 0.485 0 0.06 0.485 0 0.08 0.485 0 0.1 0.485 0 0 0.49 0 0.02 0.49 0 0.04 0.49 0 0.06 0.49 0 0.08 0.49 0 0.1 0.49 0 0 0.495 0 0.02 0.495 0 0.04 0.495 0 0.06 0.495 0 0.08 0.495 0 0.1 0.495 0 0 0.5 0 0.02 0.5 0 0.04 0.5 0 0.06 0.5 0 0.08 0.5 0 0.1 0.5 0 0 0.505 0 0.02 0.505 0 0.04 0.505 0 0.06 0.505 0 0.08 0.505 0 0.1 0.505 0 0 0.51 0 0.02 0.51 0 0.04 0.51 0 0.06 0.51 0 0.08 0.51 0 0.1 0.51 0 0 0.515 0 0.02 0.515 0 0.04 0.515 0 0.06 0.515 0 0.08 0.515 0 0.1 0.515 0 0 0.52 0 0.02 0.52 0 0.04 0.52 0 0.06 0.52 0 0.08 0.52 0 0.1 0.52 0 0 0.525 0 0.02 0.525 0 0.04 0.525 0 0.06 0.525 0 0.08 0.525 0 0.1 0.525 0 0 0.53 0 0.02 0.53 0 0.04 0.53 0 0.06 0.53 0 0.08 0.53 0 0.1 0.53 0 0 0.535 0 0.02 0.535 0 0.04 0.535 0 0.06 0.535 0 0.08 0.535 0 0.1 0.535 0 0 0.54 0 0.02 0.54 0 0.04 0.54 0 0.06 0.54 0 0.08 0.54 0 0.1 0.54 0 0 0.545 0 0.02 0.545 0 0.04 0.545 0 0.06 0.545 0 0.08 0.545 0 0.1 0.545 0 0 0.55 0 0.02 0.55 0 0.04 0.55 0 0.06 0.55 0 0.08 0.55 0 0.1 0.55 0 0 0.555 0 0.02 0.555 0 0.04 0.555 0 0.06 0.555 0 0.08 0.555 0 0.1 0.555 0 0 0.56 0 0.02 0.56 0 0.04 0.56 0 0.06 0.56 0 0.08 0.56 0 0.1 0.56 0 0 0.565 0 0.02 0.565 0 0.04 0.565 0 0.06 0.565 0 0.08 0.565 0 0.1 0.565 0 0 0.57 0 0.02 0.57 0 0.04 0.57 0 0.06 0.57 0 0.08 0.57 0 0.1 0.57 0 0 0.575 0 0.02 0.575 0 0.04 0.575 0 0.06 0.575 0 0.08 0.575 0 0.1 0.575 0 0 0.58 0 0.02 0.58 0 0.04 0.58 0 0.06 0.58 0 0.08 0.58 0 0.1 0.58 0 0 0.585 0 0.02 0.585 0 0.04 0.585 0 0.06 0.585 0 0.08 0.585 0 0.1 0.585 0 0 0.59 0 0.02 0.59 0 0.04 0.59 0 0.06 0.59 0 0.08 0.59 0 0.1 0.59 0 0 0.595 0 0.02 0.595 0 0.04 0.595 0 0.06 0.595 0 0.08 0.595 0 0.1 0.595 0 0 0.6 0 0.02 0.6 0 0.04 0.6 0 0.06 0.6 0 0.08 0.6 0 0.1 0.6 0 0 0.605 0 0.02 0.605 0 0.04 0.605 0 0.06 0.605 0 0.08 0.605 0 0.1 0.605 0 0 0.61 0 0.02 0.61 0 0.04 0.61 0 0.06 0.61 0 0.08 0.61 0 0.1 0.61 0 0 0.615 0 0.02 0.615 0 0.04 0.615 0 0.06 0.615 0 0.08 0.615 0 0.1 0.615 0 0 0.62 0 0.02 0.62 0 0.04 0.62 0 0.06 0.62 0 0.08 0.62 0 0.1 0.62 0 0 0.625 0 0.02 0.625 0 0.04 0.625 0 0.06 0.625 0 0.08 0.625 0 0.1 0.625 0 0 0.63 0 0.02 0.63 0 0.04 0.63 0 0.06 0.63 0 0.08 0.63 0 0.1 0.63 0 0 0.635 0 0.02 0.635 0 0.04 0.635 0 0.06 0.635 0 0.08 0.635 0 0.1 0.635 0 0 0.64 0 0.02 0.64 0 0.04 0.64 0 0.06 0.64 0 0.08 0.64 0 0.1 0.64 0 0 0.645 0 0.02 0.645 0 0.04 0.645 0 0.06 0.645 0 0.08 0.645 0 0.1 0.645 0 0 0.65 0 0.02 0.65 0 0.04 0.65 0 0.06 0.65 0 0.08 0.65 0 0.1 0.65 0 0 0.655 0 0.02 0.655 0 0.04 0.655 0 0.06 0.655 0 0.08 0.655 0 0.1 0.655 0 0 0.66 0 0.02 0.66 0 0.04 0.66 0 0.06 0.66 0 0.08 0.66 0 0.1 0.66 0 0 0.665 0 0.02 0.665 0 0.04 0.665 0 0.06 0.665 0 0.08 0.665 0 0.1 0.665 0 0 0.67 0 0.02 0.67 0 0.04 0.67 0 0.06 0.67 0 0.08 0.67 0 0.1 0.67 0 0 0.675 0 0.02 0.675 0 0.04 0.675 0 0.06 0.675 0 0.08 0.675 0 0.1 0.675 0 0 0.68 0 0.02 0.68 0 0.04 0.68 0 0.06 0.68 0 0.08 0.68 0 0.1 0.68 0 0 0.685 0 0.02 0.685 0 0.04 0.685 0 0.06 0.685 0 0.08 0.685 0 0.1 0.685 0 0 0.69 0 0.02 0.69 0 0.04 0.69 0 0.06 0.69 0 0.08 0.69 0 0.1 
[...]
			<PointData Scalars="VitesseX">
				<DataArray Name="VitesseX" type="Float32" format="ascii">
 0 2.45344e-14 -1.48239e-14 1.63418e-14 -8.97795e-16 0 0 1.94389e-14 -8.08921e-16 -2.30213e-16 1.53029e-14 0 0 1.73718e-14 9.26955e-15 -2.11824e-15 2.21703e-14 0 0 1.81645e-14 1.23775e-14 1.55063e-14 1.0383e-14 0 0 -3.33796e-15 5.03287e-14 1.7919e-15 1.55261e-14 0 0 -8.20659e-15 6.02178e-14 1.35776e-14 4.84458e-15 0 0 4.21813e-14 -5.19261e-15 7.70126e-14 -3.14619e-14 0 0 6.66186e-14 -2.21942e-14 8.38132e-14 -3.95989e-14 0 0 6.15399e-14 -1.89873e-15 5.29402e-14 -2.16758e-14 0 0 2.31225e-14 5.5667e-14 -7.43742e-15 1.40574e-14 0 0 4.00523e-15 8.28717e-14 -4.39719e-14 3.38267e-14 0 0 3.5312e-14 3.55838e-14 -2.11549e-14 2.78911e-14 0 0 7.25421e-14 -1.84268e-14 2.93471e-14 3.92723e-15 0 0 6.2504e-14 6.17268e-15 2.01262e-14 5.96868e-15 0 0 4.37774e-14 4.70972e-14 -5.81988e-15 1.93306e-14 0 0 7.39348e-14 1.11756e-14 4.85589e-14 -2.27361e-14 0 0 3.85537e-14 6.52552e-14 3.83477e-15 -2.10642e-17 0 0 1.03612e-15 7.69374e-14 5.95914e-15 2.58004e-14 0 0 -6.64618e-15 7.42264e-14 -3.54369e-15 5.00568e-14 0 0 2.46071e-14 5.11666e-14 -2.62185e-14 6.90724e-14 0 0 9.88986e-14 -6.43256e-14 7.80074e-14 3.77715e-16 0 0 9.23377e-14 -4.8303e-14 6.10575e-14 5.49741e-15 0 0 1.78979e-14 8.13016e-14 -6.40981e-14 7.79648e-14 0 0 1.03429e-14 1.21434e-13 -1.24783e-13 1.37017e-13 0 0 1.06435e-13 -3.83042e-14 3.97053e-14 6.36767e-14 0 0 1.65205e-13 -1.50919e-13 1.99735e-13 -3.18445e-14 0 0 7.98392e-14 1.94445e-14 4.39837e-14 8.67203e-14 0 0 -1.21467e-15 1.65184e-13 -7.5734e-14 1.68762e-13 0 0 3.36077e-14 9.24029e-14 1.05502e-14 1.15217e-13 0 0 8.98259e-14 -1.26353e-14 1.10898e-13 4.49678e-14 0 0 8.92867e-14 -1.40337e-14 1.21296e-13 -1.6408e-14 0 0 7.10126e-14 1.76341e-14 7.6278e-14 -4.12466e-14 0 0 9.7671e-15 1.03576e-13 -7.72376e-15 -2.79861e-17 0 0 -1.18446e-14 1.85957e-13 -1.41575e-13 1.21065e-13 0 0 1.25645e-13 -1.77462e-14 -7.02081e-15 7.73375e-14 0 0 1.95802e-13 -1.70201e-13 1.34873e-13 -1.03482e-14 0 0 1.05727e-13 -4.16433e-15 -3.49385e-14 3.38123e-14 0 0 3.65269e-14 1.48395e-13 -1.86251e-13 7.90257e-14 0 0 7.66733e-14 9.63811e-14 -1.46888e-13 7.95858e-14 0 0 1.54922e-13 -3.68977e-14 -1.91692e-14 5.90654e-14 0 0 1.41697e-13 -2.72911e-14 1.12973e-14 5.42088e-14 0 0 9.62289e-14 5.11765e-14 -6.2589e-14 9.77483e-14 0 0 1.02144e-13 6.11924e-14 -1.02898e-13 1.4624e-13 0 0 2.20103e-13 -8.31332e-14 3.06942e-14 6.7105e-14 0 0 3.08732e-13 -1.28441e-13 8.41951e-14 1.16387e-14 0 0 2.11479e-13 9.44502e-14 -1.41285e-13 1.4356e-13 0 0 1.08302e-13 2.4881e-13 -2.91543e-13 2.43499e-13 0 0 1.16705e-13 2.17705e-13 -2.33594e-13 1.83334e-13 0 0 2.3206e-13 5.2866e-14 -1.33924e-13 1.59928e-13 0 0 4.23303e-13 -2.63891e-13 1.05262e-13 9.23164e-14 0 0 5.53443e-13 -5.69329e-13 4.27714e-13 -7.48455e-14 0 0 2.99008e-13 -2.71398e-13 1.9417e-13 5.33616e-14 0 0 -2.55927e-14 2.51835e-13 -3.16604e-13 3.37384e-13 0 0 9.05743e-14 1.434e-13 -2.78934e-13 3.46815e-13 0 0 3.23923e-13 -1.75705e-13 -5.69894e-14 2.63134e-13 0 0 3.39038e-13 -1.7092e-13 -6.28863e-14 2.20033e-13 0 0 3.10102e-13 -7.90449e-14 -1.28767e-13 2.13746e-13 0 0 2.6888e-13 -2.75826e-14 -1.71751e-13 1.9444e-13 0 0 2.11814e-13 1.06525e-14 -1.44434e-13 7.73438e-14 0 0 2.59678e-13 -4.87332e-14 -1.35567e-14 -7.03412e-14 0 0 2.18122e-13 2.20369e-14 -5.60122e-14 -4.56157e-14 0 0 1.91657e-13 -5.52615e-15 -1.37139e-14 -7.30131e-15 0 0 1.54724e-13 -5.47699e-14 1.69296e-13 -1.20234e-13 0 0 1.23705e-13 -6.57474e-14 2.85515e-13 -2.17493e-13 0 0 1.37963e-13 -8.33398e-14 2.6297e-13 -1.78024e-13 0 0 3.7867e-15 1.60884e-13 -8.13346e-15 -5.04277e-14 0 0 -3.45913e-14 3.20965e-13 -2.6101e-13 1.00181e-13 0 0 1.769e-13 5.41711e-14 -9.4815e-14 3.2843e-15 0 0 3.80065e-13 -2.811e-13 2.44102e-13 -2.78393e-13 0 0 2.92872e-13 -1.22588e-13 8.29584e-14 -2.01755e-13 0 0 1.42065e-13 1.76985e-13 -2.49856e-13 5.03566e-14 0 0 2.52961e-13 5.22077e-14 -1.59179e-13 1.05773e-13 0 0 5.0455e-13 -2.98948e-13 1.97192e-13 2.26712e-15 0 0 5.38829e-13 -2.78389e-13 2.37837e-13 4.96935e-15 0 0 4.19267e-13 5.51391e-14 -3.89803e-14 2.03478e-13 0 0 3.14035e-13 3.01169e-13 -2.6555e-13 3.40216e-13 0 0 4.15589e-13 8.30492e-14 5.23374e-14 4.20904e-14 0 0 6.468e-13 -3.01065e-13 5.05277e-13 -2.45423e-13 0 0 6.22679e-13 -1.82864e-13 3.022e-13 1.52503e-14 0 0 3.70858e-13 1.64457e-13 1.3132e-13 1.34069e-13 0 0 2.98243e-13 1.22748e-13 4.94738e-13 -1.64877e-13 0 0 3.18883e-13 3.05856e-13 1.64356e-13 8.50559e-14 0 0 2.82797e-13 6.29577e-13 -4.71937e-13 6.45345e-13 0 0 4.04854e-13 1.91363e-13 1.30453e-13 3.50108e-13 0 0 4.08287e-13 -4.0103e-13 1.12127e-12 -2.80615e-13 0 0 -1.28724e-13 2.33838e-13 7.655e-13 -9.54907e-14 0 0 -3.0919e-13 1.02323e-12 -1.60084e-13 5.55621e-13 0 0 2.0339e-13 4.75523e-13 3.86514e-14 5.85458e-13 0 0 5.10583e-13 -1.56248e-13 8.73998e-13 -7.01946e-14 0 0 5.18709e-13 -1.14888e-13 8.93492e-13 -1.02484e-13 0 0 2.97314e-13 1.20548e-13 5.18489e-13 1.2685e-14 0 0 -4.93707e-13 9.20318e-13 3.13263e-13 -2.02077e-13 0 0 -1.51874e-13 1.74917e-12 7.02639e-13 3.16948e-13 0 0 4.1521e-12 8.43034e-12 7.9652e-12 5.43e-12 0 0 4.14169e-11 7.28504e-11 8.00824e-11 5.3552e-11 0 0 2.97435e-10 5.49616e-10 6.37306e-10 4.37763e-10 0 0 1.52416e-09 3.10573e-09 3.90759e-09 2.82089e-09 0 0 5.28975e-09 1.18962e-08 1.69006e-08 1.33198e-08 0 0 -5.21569e-09 1.64144e-08 4.85148e-08 4.42209e-08 0 0 -1.27464e-07 -1.55887e-07 -7.58334e-08 7.19119e-09 0 0 -6.94556e-07 -1.19352e-06 -1.17475e-06 -6.65286e-07 0 0 -2.29051e-06 -4.88903e-06 -5.97274e-06 -4.04786e-06 0 0 -5.60347e-06 -1.40947e-05 -2.02399e-05 -1.51342e-05 0 0 -9.88712e-06 -3.43387e-05 -5.2827e-05 -4.3085e-05 0 0 -5.928e-07 -5.2205e-05 -0.000122312 -0.000105593 0 0 -8.41996e-06 -9.37995e-05 -0.000219541 -0.000191069 0 0 -4.94922e-05 -0.000171698 -0.000312817 -0.000300529 0 0 -0.000117229 -0.000242567 -0.000416405 -0.000382773 0 0 -0.000129721 -0.000288075 -0.000456134 -0.00037993 0 0 -0.000120476 -0.000284175 -0.000454181 -0.000355169 0 0 -0.000106069 -0.000273997 -0.000435212 -0.000309237 0 0 -9.07291e-05 -0.000240982 -0.000357915 -0.000242857 0 0 -7.58818e-05 -0.000185649 -0.000233523 -0.000171467 0 0 -6.24577e-05 -0.000126162 -0.000132521 -0.000119035 0 0 -3.21003e-05 2.00945e-05 -4.31049e-05 -9.28699e-05 0 0 9.04377e-05 0.000336518 0.000261332 1.04958e-05 0 0 0.000200484 0.00041175 0.000556763 0.000394314 0 0 0.000183344 0.00033909 0.000524203 0.000457018 0 0 0.000127737 0.000241054 0.000398325 0.000382948 0 0 8.30046e-05 0.000176036 0.000283788 0.000257777 0 0 5.74759e-05 0.000134524 0.000202606 0.000167956 0 0 4.22923e-05 9.93695e-05 0.000143532 0.000113474 0 0 3.00551e-05 6.75748e-05 9.49031e-05 7.40359e-05 0 0 1.95269e-05 4.18229e-05 5.6118e-05 4.26479e-05 0 0 1.12898e-05 2.30119e-05 2.91971e-05 2.13175e-05 0 0 5.57796e-06 1.0771e-05 1.29577e-05 9.11772e-06 0 0 2.23987e-06 4.11146e-06 4.72313e-06 3.23025e-06 0 0 7.12826e-07 1.25753e-06 1.38597e-06 9.20678e-07 0 0 1.79514e-07 3.06873e-07 3.27121e-07 2.12276e-07 0 0 3.79593e-08 6.36339e-08 6.63685e-08 4.23843e-08 0 0 7.18369e-09 1.1891e-08 1.22213e-08 7.71855e-09 0 0 1.26384e-09 2.07484e-09 2.11209e-09 1.32396e-09 0 0 2.10767e-10 3.43358e-10 3.47865e-10 2.16723e-10 0 0 3.36162e-11 5.44809e-11 5.47599e-11 3.41443e-11 0 0 5.21006e-12 8.45819e-12 8.2391e-12 5.21888e-12 0 0 9.11325e-13 1.37796e-12 1.1599e-12 8.69341e-13 0 0 3.35882e-13 2.63543e-13 2.25678e-13 2.27669e-13 0 0 4.08509e-13 -2.02726e-13 4.86543e-13 -3.42437e-14 0 0 1.56229e-13 1.28426e-13 2.03182e-13 1.56706e-13 0 0 6.10188e-14 2.58138e-13 1.85844e-13 1.37346e-13 0 0 1.26917e-13 2.48643e-13 1.72719e-13 1.74817e-13 0 0 4.74413e-14 4.71856e-13 -1.40449e-13 4.67714e-13 0 0 4.84218e-13 -1.72462e-13 4.7347e-13 1.2898e-13 0 0 6.23824e-13 -2.66559e-13 5.43516e-13 9.44481e-14 0 0 1.24694e-13 5.70591e-13 -2.09045e-13 5.22988e-13 0 0 9.88436e-14 4.98111e-13 -2.90192e-15 4.04533e-13 0 0 1.96654e-13 2.37694e-13 3.16264e-13 1.87998e-13 0 0 4.27074e-13 -1.93574e-13 7.96838e-13 -1.77457e-13 0 0 5.39909e-13 -2.53528e-13 7.91786e-13 -1.6452e-13 0 0 9.08251e-14 6.68668e-13 -2.1441e-13 3.9516e-13 0 0 1.94464e-13 5.82091e-13 -9.12022e-14 1.42361e-13 0 0 5.21205e-13 1.40942e-13 2.13675e-13 -1.10452e-13 0 0 6.60727e-13 -1.9689e-13 4.80981e-13 -2.06318e-13 0 0 3.30138e-13 7.47028e-14 3.36662e-13 -1.27458e-13 0 0 5.61518e-14 3.26398e-13 8.61362e-14 3.80945e-14 0 0 5.00327e-14 3.07629e-13 1.24934e-13 -1.01244e-13 0 0 2.6885e-13 9.48884e-14 2.24684e-13 -2.306e-13 0 0 7.49238e-13 -6.90688e-13 8.21934e-13 -4.91768e-13 0 0 3.2389e-13 -1.16985e-13 2.39125e-13 2.82168e-14 0 0 -2.0517e-13 6.35763e-13 -3.61725e-13 4.694e-13 0 0 -2.60463e-13 5.364e-13 -3.30114e-14 1.92965e-13 0 0 2.73611e-13 -5.21684e-13 1.05574e-12 -3.59268e-13 0 0 5.82063e-13 -1.08791e-12 1.46848e-12 -3.59427e-13 0 0 -6.62851e-14 -6.11151e-14 2.43108e-13 5.68066e-13 0 0 -4.14375e-13 5.39439e-13 -5.35404e-13 1.07718e-12 0 0 -7.42984e-14 1.66896e-13 -2.34125e-13 8.56624e-13 0 0 2.48626e-13 -3.88228e-13 5.42842e-13 3.37422e-13 0 0 1.55314e-13 -5.42369e-13 1.08828e-12 -9.22852e-14 0 0 -3.63719e-13 1.99708e-13 4.17341e-13 2.87681e-13 0 0 -1.54112e-13 4.81067e-14 2.95929e-13 4.50884e-13 0 0 2.61791e-13 -4.18343e-13 4.85393e-13 4.04828e-13 0 0 -2.09114e-14 7.20752e-14 -1.27786e-13 7.55507e-13 0 0 4.67254e-14 -1.13276e-13 3.00076e-14 6.35601e-13 0 0 1.24429e-14 -1.1536e-13 1.36216e-13 4.76936e-13 0 0 2.31914e-13 -4.84594e-13 5.22546e-13 5.67752e-14 0 0 1.49372e-13 -3.32553e-13 4.50875e-13 -1.42307e-13 0 0 -3.49154e-13 4.55681e-13 -9.57501e-14 3.06468e-15 0 0 -2.30023e-14 -2.31118e-14 3.04875e-13 -2.29171e-13 0 0 1.82317e-13 -1.90294e-13 1.00138e-13 -7.38646e-15 0 0 2.92632e-13 -2.33256e-13 1.9304e-14 2.36695e-14 0 0 2.25411e-13 -1.57548e-13 1.66465e-13 -1.55552e-13 0 0 -1.88822e-13 4.56445e-13 -3.47406e-13 1.3283e-13 0 0 -3.34648e-14 2.52704e-13 -1.35366e-13 -7.30245e-14 0 0 7.70358e-14 2.5366e-13 -1.87909e-13 5.3307e-14 0 0 5.25305e-14 3.38168e-13 -2.53291e-13 1.9853e-13 0 0 6.81766e-14 -6.40621e-14 2.50577e-13 -5.43463e-14 0 0 -2.81876e-13 3.38748e-13 -3.524e-14 6.62826e-15 0 0 4.06498e-14 5.613e-14 2.49529e-13 -3.51729e-13 0 0 4.39303e-13 -2.60985e-13 2.3531e-13 -1.24863e-13 0 0 5.96849e-13 -4.10656e-13 2.33214e-13 7.14232e-14 0 0 4.14579e-13 -2.53043e-13 1.3454e-13 2.99646e-13 0 0 -2.07409e-13 7.7023e-13 -8.98727e-13 9.84075e-13 0 0 5.71281e-13 -3.14333e-13 1.07534e-13 2.23697e-13 0 0 1.26496e-12 -1.28358e-12 9.90863e-13 -3.12169e-13 0 0 4.6294e-13 -7.48498e-14 -1.15082e-13 2.52946e-13 0 0 -2.14323e-13 7.74945e-13 -7.55696e-13 4.91462e-13 0 0 -5.30603e-14 4.94459e-13 -5.78009e-13 4.78698e-13 0 0 1.06482e-12 -1.24729e-12 1.02732e-12 -3.35195e-13 0 0 1.13087e-12 -1.09838e-12 8.83092e-13 -2.16424e-13 0 0 -1.18051e-13 1.09676e-12 -1.16852e-12 7.84029e-13 0 0 -6.13527e-13 1.77363e-12 -1.62091e-12 8.36819e-13 0
				</DataArray>
				<DataArray Name="VitesseY" type="Float32" format="ascii">