<?xml version="1.0"?>
<VTKFile type="PolyData">
	<PolyData>
		<Piece NumberOfPoints="1206" NumberOfPolys="1000">
			<Points>
				<DataArray type="Float32" NumberOfComponents="3" format="ascii">
 0 0 0 0.02 0 0 0.04 0 0 0.06 0 0 0.08 0 0 0.1 0 0 0 0.005 0 0.02 0.005 0 0.04 0.005 0 0.06 0.005 0 0.08 0.005 0 0.1 0.005 0 0 0.01 0 0.02 0.01 0 0.04 0.01 0 0.06 0.01 0 0.08 0.01 0 0.1 0.01 0 0 0.015 0 0.02 0.015 0 0.04 0.015 0 0.06 0.015 0 0.08 0.015 0 0.1 0.015 0 0 0.02 0 0.02 0.02 0 0.04 0.02 0 0.06 0.02 0 0.08 0.02 0 0.1 0.02 0 0 0.025 0 0.02 0.025 0 0.04 0.025 0 0.06 0.025 0 0.08 0.025 0 0.1 0.025 0 0 0.03 0 0.02 0.03 0 0.04 0.03 0 0.06 0.03 0 0.08 0.03 0 0.1 0.03 0 0 0.035 0 0.02 0.035 0 0.04 0.035 0 0.06 0.035 0 0.08 0.035 0 0.1 0.035 0 0 0.04 0 0.02 0.04 0 0.04 0.04 0 0.06 0.04 0 0.08 0.04 0 0.1 0.04 0 0 0.045 0 0.02 0.045 0 0.04 0.045 0 0.06 0.045 0 0.08 0.045 0 0.1 0.045 0 0 0.05 0 0.02 0.05 0 0.04 0.05 0 0.06 0.05 0 0.08 0.05 0 0.1 0.05 0 0 0.055 0 0.02 0.055 0 0.04 0.055 0 0.06 0.055 0 0.08 0.055 0 0.1 0.055 0 0 0.06 0 0.02 0.06 0 0.04 0.06 0 0.06 0.06 0 0.08 0.06 0 0.1 0.06 0 0 0.065 0 0.02 0.065 0 0.04 0.065 0 0.06 0.065 0 0.08 0.065 0 0.1 0.065 0 0 0.07 0 0.02 0.07 0 0.04 0.07 0 0.06 0.07 0 0.08 0.07 0 0.1 0.07 0 0 0.075 0 0.02 0.075 0 0.04 0.075 0 0.06 0.075 0 0.08 0.075 0 0.1 0.075 0 0 0.08 0 0.02 0.08 0 0.04 0.08 0 0.06 0.08 0 0.08 0.08 0 0.1 0.08 0 0 0.085 0 0.02 0.085 0 0.04 0.085 0 0.06 0.085 0 0.08 0.085 0 0.1 0.085 0 0 0.09 0 0.02 0.09 0 0.04 0.09 0 0.06 0.09 0 0.08 0.09 0 0.1 0.09 0 0 0.095 0 0.02 0.095 0 0.04 0.095 0 0.06 0.095 0 0.08 0.095 0 0.1 0.095 0 0 0.1 0 0.02 0.1 0 0.04 0.1 0 0.06 0.1 0 0.08 0.1 0 0.1 0.1 0 0 0.105 0 0.02 0.105 0 0.04 0.105 0 0.06 0.105 0 0.08 0.105 0 0.1 0.105 0 0 0.11 0 0.02 0.11 0 0.04 0.11 0 0.06 0.11 0 0.08 0.11 0 0.1 0.11 0 0 0.115 0 0.02 0.115 0 0.04 0.115 0 0.06 0.115 0 0.08 0.115 0 0.1 0.115 0 0 0.12 0 0.02 0.12 0 0.04 0.12 0 0.06 0.12 0 0.08 0.12 0 0.1 0.12 0 0 0.125 0 0.02 0.125 0 0.04 0.125 0 0.06 0.125 0 0.08 0.125 0 0.1 0.125 0 0 0.13 0 0.02 0.13 0 0.04 0.13 0 0.06 0.13 0 0.08 0.13 0 0.1 0.13 0 0 0.135 0 0.02 0.135 0 0.04 0.135 0 0.06 0.135 0 0.08 0.135 0 0.1 0.135 0 0 0.14 0 0.02 0.14 0 0.04 0.14 0 0.06 0.14 0 0.08 0.14 0 0.1 0.14 0 0 0.145 0 0.02 0.145 0 0.04 0.145 0 0.06 0.145 0 0.08 0.145 0 0.1 0.145 0 0 0.15 0 0.02 0.15 0 0.04 0.15 0 0.06 0.15 0 0.08 0.15 0 0.1 0.15 0 0 0.155 0 0.02 0.155 0 0.04 0.155 0 0.06 0.155 0 0.08 0.155 0 0.1 0.155 0 0 0.16 0 0.02 0.16 0 0.04 0.16 0 0.06 0.16 0 0.08 0.16 0 0.1 0.16 0 0 0.165 0 0.02 0.165 0 0.04 0.165 0 0.06 0.165 0 0.08 0.165 0 0.1 0.165 0 0 0.17 0 0.02 0.17 0 0.04 0.17 0 0.06 0.17 0 0.08 0.17 0 0.1 0.17 0 0 0.175 0 0.02 0.175 0 0.04 0.175 0 0.06 0.175 0 0.08 0.175 0 0.1 0.175 0 0 0.18 0 0.02 0.18 0 0.04 0.18 0 0.06 0.18 0 0.08 0.18 0 0.1 0.18 0 0 0.185 0 0.02 0.185 0 0.04 0.185 0 0.06 0.185 0 0.08 0.185 0 0.1 0.185 0 0 0.19 0 0.02 0.19 0 0.04 0.19 0 0.06 0.19 0 0.08 0.19 0 0.1 0.19 0 0 0.195 0 0.02 0.195 0 0.04 0.195 0 0.06 0.195 0 0.08 0.195 0 0.1 0.195 0 0 0.2 0 0.02 0.2 0 0.04 0.2 0 0.06 0.2 0 0.08 0.2 0 0.1 0.2 0 0 0.205 0 0.02 0.205 0 0.04 0.205 0 0.06 0.205 0 0.08 0.205 0 0.1 0.205 0 0 0.21 0 0.02 0.21 0 0.04 0.21 0 0.06 0.21 0 0.08 0.21 0 0.1 0.21 0 0 0.215 0 0.02 0.215 0 0.04 0.215 0 0.06 0.215 0 0.08 0.215 0 0.1 0.215 0 0 0.22 0 0.02 0.22 0 0.04 0.22 0 0.06 0.22 0 0.08 0.22 0 0.1 0.22 0 0 0.225 0 0.02 0.225 0 0.04 0.225 0 0.06 0.225 0 0.08 0.225 0 0.1 0.225 0 0 0.23 0 0.02 0.23 0 0.04 0.23 0 0.06 0.23 0 0.08 0.23 0 0.1 0.23 0 0 0.235 0 0.02 0.235 0 0.04 0.235 0 0.06 0.235 0 0.08 0.235 0 0.1 0.235 0 0 0.24 0 0.02 0.24 0 0.04 0.24 0 0.06 0.24 0 0.08 0.24 0 0.1 0.24 0 0 0.245 0 0.02 0.245 0 0.04 0.245 0 0.06 0.245 0 0.08 0.245 0 0.1 0.245 0 0 0.25 0 0.02 0.25 0 0.04 0.25 0 0.06 0.25 0 0.08 0.25 0 0.1 0.25 0 0 0.255 0 0.02 0.255 0 0.04 0.255 0 0.06 0.255 0 0.08 0.255 0 0.1 0.255 0 0 0.26 0 0.02 0.26 0 0.04 0.26 0 0.06 0.26 0 0.08 0.26 0 0.1 0.26 0 0 0.265 0 0.02 0.265 0 0.04 0.265 0 0.06 0.265 0 0.08 0.265 0 0.1 0.265 0 0 0.27 0 0.02 0.27 0 0.04 0.27 0 0.06 0.27 0 0.08 0.27 0 0.1 0.27 0 0 0.275 0 0.02 0.275 0 0.04 0.275 0 0.06 0.275 0 0.08 0.275 0 0.1 0.275 0 0 0.28 0 0.02 0.28 0 0.04 0.28 0 0.06 0.28 0 0.08 0.28 0 0.1 0.28 0 0 0.285 0 0.02 0.285 0 0.04 0.285 0 0.06 0.285 0 0.08 0.285 0 0.1 0.285 0 0 0.29 0 0.02 0.29 0 0.04 0.29 0 0.06 0.29 0 0.08 0.29 0 0.1 0.29 0 0 0.295 0 0.02 0.295 0 0.04 0.295 0 0.06 0.295 0 0.08 0.295 0 0.1 0.295 0 0 0.3 0 0.02 0.3 0 0.04 0.3 0 0.06 0.3 0 0.08 0.3 0 0.1 0.3 0 0 0.305 0 0.02 0.305 0 0.04 0.305 0 0.06 0.305 0 0.08 0.305 0 0.1 0.305 0 0 0.31 0 0.02 0.31 0 0.04 0.31 0 0.06 0.31 0 0.08 0.31 0 0.1 0.31 0 0 0.315 0 0.02 0.315 0 0.04 0.315 0 0.06 0.315 0 0.08 0.315 0 0.1 0.315 0 0 0.32 0 0.02 0.32 0 0.04 0.32 0 0.06 0.32 0 0.08 0.32 0 0.1 0.32 0 0 0.325 0 0.02 0.325 0 0.04 0.325 0 0.06 0.325 0 0.08 0.325 0 0.1 0.325 0 0 0.33 0 0.02 0.33 0 0.04 0.33 0 0.06 0.33 0 0.08 0.33 0 0.1 0.33 0 0 0.335 0 0.02 0.335 0 0.04 0.335 0 0.06 0.335 0 0.08 0.335 0 0.1 0.335 0 0 0.34 0 0.02 0.34 0 0.04 0.34 0 0.06 0.34 0 0.08 0.34 0 0.1 0.34 0 0 0.345 0 0.02 0.345 0 0.04 0.345 0 0.06 0.345 0 0.08 0.345 0 0.1 0.345 0 0 0.35 0 0.02 0.35 0 0.04 0.35 0 0.06 0.35 0 0.08 0.35 0 0.1 0.35 0 0 0.355 0 0.02 0.355 0 0.04 0.355 0 0.06 0.355 0 0.08 0.355 0 0.1 0.355 0 0 0.36 0 0.02 0.36 0 0.04 0.36 0 0.06 0.36 0 0.08 0.36 0 0.1 0.36 0 0 0.365 0 0.02 0.365 0 0.04 0.365 0 0.06 0.365 0 0.08 0.365 0 0.1 0.365 0 0 0.37 0 0.02 0.37 0 0.04 0.37 0 0.06 0.37 0 0.08 0.37 0 0.1 0.37 0 0 0.375 0 0.02 0.375 0 0.04 0.375 0 0.06 0.375 0 0.08 0.375 0 0.1 0.375 0 0 0.38 0 0.02 0.38 0 0.04 0.38 0 0.06 0.38 0 0.08 0.38 0 0.1 0.38 0 0 0.385 0 0.02 0.385 0 0.04 0.385 0 0.06 0.385 0 0.08 0.385 0 0.1 0.385 0 0 0.39 0 0.02 0.39 0 0.04 0.39 0 0.06 0.39 0 0.08 0.39 0 0.1 0.39 0 0 0.395 0 0.02 0.395 0 0.04 0.395 0 0.06 0.395 0 0.08 0.395 0 0.1 0.395 0 0 0.4 0 0.02 0.4 0 0.04 0.4 0 0.06 0.4 0 0.08 0.4 0 0.1 0.4 0 0 0.405 0 0.02 0.405 0 0.04 0.405 0 0.06 0.405 0 0.08 0.405 0 0.1 0.405 0 0 0.41 0 0.02 0.41 0 0.04 0.41 0 0.06 0.41 0 0.08 0.41 0 0.1 0.41 0 0 0.415 0 0.02 0.415 0 0.04 0.415 0 0.06 0.415 0 0.08 0.415 0 0.1 0.415 0 0 0.42 0 0.02 0.42 0 0.04 0.42 0 0.06 0.42 0 0.08 0.42 0 0.1 0.42 0 0 0.425 0 0.02 0.425 0 0.04 0.425 0 0.06 0.425 0 0.08 0.425 0 0.1 0.425 0 0 0.43 0 0.02 0.43 0 0.04 0.43 0 0.06 0.43 0 0.08 0.43 0 0.1 0.43 0 0 0.435 0 0.02 0.435 0 0.04 0.435 0 0.06 0.435 0 0.08 0.435 0 0.1 0.435 0 0 0.44 0 0.02 0.44 0 0.04 0.44 0 0.06 0.44 0 0.08 0.44 0 0.1 0.44 0 0 0.445 0 0.02 0.445 0 0.04 0.445 0 0.06 0.445 0 0.08 0.445 0 0.1 0.445 0 0 0.45 0 0.02 0.45 0 0.04 0.45 0 0.06 0.45 0 0.08 0.45 0 0.1 0.45 0 0 0.455 0 0.02 0.455 0 0.04 0.455 0 0.06 0.455 0 0.08 0.455 0 0.1 0.455 0 0 0.46 0 0.02 0.46 0 0.04 0.46 0 0.06 0.46 0 0.08 0.46 0 0.1 0.46 0 0 0.465 0 0.02 0.465 0 0.04 0.465 0 0.06 0.465 0 0.08 0.465 0 0.1 0.465 0 0 0.47 0 0.02 0.47 0 0.04 0.47 0 0.06 0.47 0 0.08 0.47 0 0.1 0.47 0 0 0.475 0 0.02 0.475 0 0.04 0.475 0 0.06 0.475 0 0.08 0.475 0 0.1 0.475 0 0 0.48 0 0.02 0.48 0 0.04 0.48 0 0.06 0.48 0 0.08 0.48 0 0.1 0.48 0 0 0.485 0 0.02 0.485 0 0.04 0.485 0 0.06 0.485 0 0.08 0.485 0 0.1 0.485 0 0 0.49 0 0.02 0.49 0 0.04 0.49 0 0.06 0.49 0 0.08 0.49 0 0.1 0.49 0 0 0.495 0 0.02 0.495 0 0.04 0.495 0 0.06 0.495 0 0.08 0.495 0 0.1 0.495 0 0 0.5 0 0.02 0.5 0 0.04 0.5 0 0.06 0.5 0 0.08 0.5 0 0.1 0.5 0 0 0.505 0 0.02 0.505 0 0.04 0.505 0 0.06 0.505 0 0.08 0.505 0 0.1 0.505 0 0 0.51 0 0.02 0.51 0 0.04 0.51 0 0.06 0.51 0 0.08 0.51 0 0.1 0.51 0 0 0.515 0 0.02 0.515 0 0.04 0.515 0 0.06 0.515 0 0.08 0.515 0 0.1 0.515 0 0 0.52 0 0.02 0.52 0 0.04 0.52 0 0.06 0.52 0 0.08 0.52 0 0.1 0.52 0 0 0.525 0 0.02 0.525 0 0.04 0.525 0 0.06 0.525 0 0.08 0.525 0 0.1 0.525 0 0 0.53 0 0.02 0.53 0 0.04 0.53 0 0.06 0.53 0 0.08 0.53 0 0.1 0.53 0 0 0.535 0 0.02 0.535 0 0.04 0.535 0 0.06 0.535 0 0.08 0.535 0 0.1 0.535 0 0 0.54 0 0.02 0.54 0 0.04 0.54 0 0.06 0.54 0 0.08 0.54 0 0.1 0.54 0 0 0.545 0 0.02 0.545 0 0.04 0.545 0 0.06 0.545 0 0.08 0.545 0 0.1 0.545 0 0 0.55 0 0.02 0.55 0 0.04 0.55 0 0.06 0.55 0 0.08 0.55 0 0.1 0.55 0 0 0.555 0 0.02 0.555 0 0.04 0.555 0 0.06 0.555 0 0.08 0.555 0 0.1 0.555 0 0 0.56 0 0.02 0.56 0 0.04 0.56 0 0.06 0.56 0 0.08 0.56 0 0.1 0.56 0 0 0.565 0 0.02 0.565 0 0.04 0.565 0 0.06 0.565 0 0.08 0.565 0 0.1 0.565 0 0 0.57 0 0.02 0.57 0 0.04 0.57 0 0.06 0.57 0 0.08 0.57 0 0.1 0.57 0 0 0.575 0 0.02 0.575 0 0.04 0.575 0 0.06 0.575 0 0.08 0.575 0 0.1 0.575 0 0 0.58 0 0.02 0.58 0 0.04 0.58 0 0.06 0.58 0 0.08 0.58 0 0.1 0.58 0 0 0.585 0 0.02 0.585 0 0.04 0.585 0 0.06 0.585 0 0.08 0.585 0 0.1 0.585 0 0 0.59 0 0.02 0.59 0 0.04 0.59 0 0.06 0.59 0 0.08 0.59 0 0.1 0.59 0 0 0.595 0 0.02 0.595 0 0.04 0.595 0 0.06 0.595 0 0.08 0.595 0 0.1 0.595 0 0 0.6 0 0.02 0.6 0 0.04 0.6 0 0.06 0.6 0 0.08 0.6 0 0.1 0.6 0 0 0.605 0 0.02 0.605 0 0.04 0.605 0 0.06 0.605 0 0.08 0.605 0 0.1 0.605 0 0 0.61 0 0.02 0.61 0 0.04 0.61 0 0.06 0.61 0 0.08 0.61 0 0.1 0.61 0 0 0.615 0 0.02 0.615 0 0.04 0.615 0 0.06 0.615 0 0.08 0.615 0 0.1 0.615 0 0 0.62 0 0.02 0.62 0 0.04 0.62 0 0.06 0.62 0 0.08 0.62 0 0.1 0.62 0 0 0.625 0 0.02 0.625 0 0.04 0.625 0 0.06 0.625 0 0.08 0.625 0 0.1 0.625 0 0 0.63 0 0.02 0.63 0 0.04 0.63 0 0.06 0.63 0 0.08 0.63 0 0.1 0.63 0 0 0.635 0 0.02 0.635 0 0.04 0.635 0 0.06 0.635 0 0.08 0.635 0 0.1 0.635 0 0 0.64 0 0.02 0.64 0 0.04 0.64 0 0.06 0.64 0 0.08 0.64 0 0.1 0.64 0 0 0.645 0 0.02 0.645 0 0.04 0.645 0 0.06 0.645 0 0.08 0.645 0 0.1 0.645 0 0 0.65 0 0.02 0.65 0 0.04 0.65 0 0.06 0.65 0 0.08 0.65 0 0.1 0.65 0 0 0.655 0 0.02 0.655 0 0.04 0.655 0 0.06 0.655 0 0.08 0.655 0 0.1 0.655 0 0 0.66 0 0.02 0.66 0 0.04 0.66 0 0.06 0.66 0 0.08 0.66 0 0.1 0.66 0 0 0.665 0 0.02 0.665 0 0.04 0.665 0 0.06 0.665 0 0.08 0.665 0 0.1 0.665 0 0 0.67 0 0.02 0.67 0 0.04 0.67 0 0.06 0.67 0 0.08 0.67 0 0.1 0.67 0 0 0.675 0 0.02 0.675 0 0.04 0.675 0 0.06 0.675 0 0.08 0.675 0 0.1 0.675 0 0 0.68 0 0.02 0.68 0 0.04 0.68 0 0.06 0.68 0 0.08 0.68 0 0.1 0.68 0 0 0.685 0 0.02 0.685 0 0.04 0.685 0 0.06 0.685 0 0.08 0.685 0 0.1 0.685 0 0 0.69 0 0.02 0.69 0 0.04 0.69 0 0.06 0.69 0 0.08 0.69 0 0.1 
[...]
			<PointData Scalars="VitesseX">
				<DataArray Name="VitesseX" type="Float32" format="ascii">
 0 6.47062e-15 5.63665e-14 4.59555e-14 8.55308e-16 0 0 1.86818e-14 4.42473e-14 4.5211e-14 5.00619e-15 0 0 2.85713e-14 3.87802e-14 2.62051e-14 2.23642e-14 0 0 3.88396e-14 1.52467e-14 3.46121e-14 1.7622e-14 0 0 3.49435e-14 4.18086e-15 3.74474e-14 1.38323e-14 0 0 1.23359e-14 2.5725e-14 9.22752e-15 3.08113e-14 0 0 -4.4445e-15 4.27028e-14 -9.82151e-15 4.02886e-14 0 0 -7.02057e-15 4.01008e-14 -2.51092e-15 3.38547e-14 0 0 -7.22493e-16 2.8973e-14 1.03146e-14 2.7576e-14 0 0 9.59159e-15 1.38888e-14 2.46936e-14 1.51686e-14 0 0 1.79474e-14 2.3085e-15 4.83159e-14 -1.15306e-14 0 0 -6.38372e-15 3.909e-14 2.34033e-14 -2.85567e-15 0 0 1.05317e-14 3.7815e-16 6.49468e-14 -2.09328e-14 0 0 6.8089e-15 6.6338e-15 6.27123e-14 -1.79814e-14 0 0 -1.33116e-14 5.29474e-14 3.71299e-15 3.59478e-14 0 0 1.24687e-14 1.99302e-14 2.32667e-14 5.47005e-14 0 0 1.84692e-14 1.42334e-14 3.38281e-14 5.77178e-14 0 0 2.95116e-14 1.33595e-14 4.00447e-14 6.20457e-14 0 0 1.95428e-14 5.99659e-14 -1.95654e-15 9.62081e-14 0 0 1.5616e-14 8.79825e-14 -1.51156e-14 9.93004e-14 0 0 1.12402e-14 7.81939e-14 5.40011e-14 2.94981e-14 0 0 1.9925e-14 4.36284e-14 1.14832e-13 -1.40234e-14 0 0 1.8282e-14 5.13885e-14 1.11085e-13 -3.9325e-14 0 0 2.46051e-14 3.97777e-14 1.41919e-13 -8.58272e-14 0 0 1.87065e-14 4.43454e-14 1.34119e-13 -6.80681e-14 0 0 -3.24886e-14 1.37147e-13 1.60313e-14 1.3003e-14 0 0 4.0732e-16 8.48167e-14 4.49784e-14 -4.14873e-15 0 0 4.07665e-14 -3.21436e-15 1.38049e-13 -6.09761e-14 0 0 2.17423e-14 3.19454e-14 9.37824e-14 -2.24425e-14 0 0 3.83957e-14 5.34345e-15 1.2172e-13 -3.72705e-14 0 0 1.63046e-14 3.0042e-14 1.19903e-13 -4.17157e-14 0 0 -3.93519e-15 9.95519e-14 5.71851e-14 -2.38205e-14 0 0 5.47766e-14 3.46928e-14 9.30165e-14 -1.42938e-14 0 0 6.19538e-14 5.32491e-15 1.32281e-13 -1.27252e-14 0 0 -4.73899e-14 1.7361e-13 -1.49685e-14 7.1362e-14 0 0 -2.51461e-14 1.69637e-13 -3.81791e-14 1.32184e-13 0 0 9.61433e-14 8.57697e-15 1.04108e-13 9.57424e-14 0 0 7.46966e-14 5.14459e-14 5.94503e-14 1.55756e-13 0 0 9.49557e-14 2.2054e-14 1.03693e-13 1.2971e-13 0 0 1.11414e-13 2.98449e-14 6.52158e-14 1.48325e-13 0 0 6.77899e-14 3.7224e-14 6.63582e-14 1.47223e-13 0 0 3.02581e-14 9.00328e-15 1.61891e-13 4.19585e-14 0 0 3.36737e-14 7.8088e-15 1.57806e-13 8.14304e-15 0 0 -2.065e-14 9.53868e-14 4.42176e-14 7.18479e-14 0 0 -5.4509e-14 1.4866e-13 2.60294e-14 5.83101e-14 0 0 -2.38754e-14 6.08369e-14 1.67835e-13 -3.81148e-14 0 0 1.93011e-14 -4.66707e-14 3.05586e-13 -1.10902e-13 0 0 -4.77889e-15 -5.08993e-16 3.06579e-13 -1.30249e-13 0 0 -1.21025e-13 2.01037e-13 1.36188e-13 -7.17063e-14 0 0 -2.3294e-13 3.98057e-13 -8.36521e-14 5.21228e-14 0 0 -2.36744e-13 3.9922e-13 -1.21831e-13 9.83733e-14 0 0 -9.17239e-14 1.96174e-13 6.7505e-14 -1.45664e-14 0 0 -4.85016e-14 1.91171e-13 5.43906e-14 2.53999e-14 0 0 -6.68378e-14 1.8682e-13 1.13484e-13 1.27488e-14 0 0 -1.4646e-13 2.8917e-13 3.18952e-14 6.08544e-14 0 0 -1.25727e-13 2.43059e-13 6.5402e-14 3.05451e-14 0 0 -4.67378e-14 5.65283e-14 2.59103e-13 -5.15355e-14 0 0 -1.07194e-13 1.66899e-13 7.21333e-14 1.50685e-13 0 0 -1.07201e-13 1.81778e-13 4.41676e-14 1.53022e-13 0 0 -2.09244e-14 4.68044e-14 1.58306e-13 6.31712e-14 0 0 -2.44206e-14 4.95038e-14 1.58653e-13 8.36301e-14 0 0 -2.55229e-14 5.58982e-14 2.00675e-13 6.307e-14 0 0 -3.20708e-14 1.18748e-13 1.1142e-13 1.73106e-13 0 0 -1.4813e-14 1.71836e-13 5.35181e-14 2.34282e-13 0 0 4.10109e-14 1.59926e-13 9.15275e-14 1.98459e-13 0 0 -3.07931e-14 2.98067e-13 1.81639e-14 2.26227e-13 0 0 1.08594e-13 7.67637e-14 2.68007e-13 6.13238e-14 0 0 6.37938e-14 1.32738e-13 2.26649e-13 1.13343e-13 0 0 -8.57862e-14 4.3375e-13 -2.35775e-14 2.66618e-13 0 0 1.84844e-14 2.53056e-13 2.6008e-13 7.47843e-14 0 0 -7.98108e-14 2.44324e-13 4.08668e-13 -2.22568e-14 0 0 -1.1439e-13 1.60243e-13 5.9238e-13 -1.09619e-13 0 0 -3.22033e-13 3.64609e-13 4.7653e-13 2.59228e-14 0 0 -4.98101e-13 3.34748e-13 4.45014e-13 2.78171e-14 0 0 -7.70708e-13 -4.56973e-13 -8.61385e-14 -3.21151e-13 0 0 -3.13075e-12 -4.7556e-12 -4.37085e-12 -2.79823e-12 0 0 -1.7613e-11 -2.85147e-11 -2.78692e-11 -1.77346e-11 0 0 -8.82429e-11 -1.41536e-10 -1.4226e-10 -8.79227e-11 0 0 -3.80458e-10 -6.1531e-10 -6.16389e-10 -3.81233e-10 0 0 -1.46326e-09 -2.36912e-09 -2.37267e-09 -1.46798e-09 0 0 -5.11905e-09 -8.29233e-09 -8.30608e-09 -5.14037e-09 0 0 -1.66978e-08 -2.70688e-08 -2.7131e-08 -1.68004e-08 0 0 -5.19599e-08 -8.43694e-08 -8.47351e-08 -5.25527e-08 0 0 -1.50661e-07 -2.45547e-07 -2.47739e-07 -1.54207e-07 0 0 -3.77494e-07 -6.18534e-07 -6.28149e-07 -3.93032e-07 0 0 -8.28956e-07 -1.36637e-06 -1.39752e-06 -8.79361e-07 0 0 -1.64473e-06 -2.73307e-06 -2.82196e-06 -1.78869e-06 0 0 -3.01478e-06 -5.05745e-06 -5.28011e-06 -3.37394e-06 0 0 -5.1832e-06 -8.79997e-06 -9.30837e-06 -6.01248e-06 0 0 -8.44504e-06 -1.44902e-05 -1.55189e-05 -1.00774e-05 0 0 -1.30948e-05 -2.28896e-05 -2.50066e-05 -1.662e-05 0 0 -1.94675e-05 -3.42807e-05 -3.75317e-05 -2.45651e-05 0 0 -2.78455e-05 -4.99595e-05 -5.68511e-05 -3.88341e-05 0 0 -3.82339e-05 -7.00089e-05 -7.81524e-05 -5.20513e-05 0 0 -5.14556e-05 -9.28028e-05 -0.000107386 -7.43162e-05 0 0 -6.64523e-05 -0.000124604 -0.000144174 -9.81579e-05 0 0 -8.45812e-05 -0.000156574 -0.00017977 -0.000122893 0 0 -0.000104303 -0.000191874 -0.000221774 -0.000151867 0 0 -0.000128304 -0.000233914 -0.000266523 -0.000180387 0 0 -0.0001517 -0.000277663 -0.00030963 -0.000206052 0 0 -0.000181148 -0.000320009 -0.000348234 -0.000226072 0 0 -0.000210626 -0.00036356 -0.000380293 -0.00023822 0 0 -0.000246422 -0.000407761 -0.000405144 -0.000244631 0 0 -0.000292524 -0.000456598 -0.000422937 -0.000239934 0 0 -0.000338731 -0.000508082 -0.000435716 -0.000227877 0 0 -0.000395671 -0.000559397 -0.000444231 -0.000209331 0 0 -0.000451648 -0.000608643 -0.000449543 -0.000190185 0 0 -0.000505197 -0.000653241 -0.000460799 -0.000193668 0 0 -0.000581539 -0.000704605 -0.000486122 -0.000209634 0 0 -0.000669522 -0.000810697 -0.000538269 -0.00025463 0 0 -0.000756279 -0.000981066 -0.00065837 -0.000306413 0 0 -0.000843251 -0.00117265 -0.000826939 -0.000306077 0 0 -0.000922684 -0.00136483 -0.00101473 -0.000258405 0 0 -0.00102701 -0.0015586 -0.00104969 -3.74813e-05 0 0 -0.00119087 -0.00177225 -0.00101058 0.000257524 0 0 -0.00133065 -0.00192125 -0.000937519 0.000295578 0 0 -0.00133034 -0.00189908 -0.000876721 0.000267325 0 0 -0.00129352 -0.00174149 -0.000656058 0.000142183 0 0 -0.00117031 -0.00135986 -0.000438211 -0.000189152 0 0 -0.000926998 -0.0010632 -0.00051801 -0.00032278 0 0 -0.000748782 -0.000876937 -0.000601649 -0.000382197 0 0 -0.000378904 -0.000249699 -0.0003699 -0.000653146 0 0 0.000661719 0.00179023 0.00104577 -0.000750499 0 0 0.00114222 0.00241185 0.00178554 -0.000493199 0 0 0.00113256 0.00232755 0.00177107 1.25529e-05 0 0 0.00108268 0.00201678 0.00164367 0.000421038 0 0 0.000992971 0.00165657 0.00136345 0.000564644 0 0 0.000896815 0.00133682 0.00110073 0.000595024 0 0 0.000792641 0.00110272 0.000930544 0.00058669 0 0 0.000690586 0.000972156 0.000867354 0.000532693 0 0 0.000601101 0.000895162 0.000815241 0.000470411 0 0 0.000520795 0.000795501 0.000732753 0.000419865 0 0 0.00043666 0.000674444 0.000630954 0.000366655 0 0 0.000347194 0.00054147 0.000513994 0.000302831 0 0 0.000256438 0.000403553 0.000388263 0.000231706 0 0 0.000171474 0.000272028 0.000264971 0.000160047 0 0 0.000101502 0.000162045 0.000159271 9.7017e-05 0 0 5.17255e-05 8.30122e-05 8.21596e-05 5.03465e-05 0 0 2.23239e-05 3.59664e-05 3.5775e-05 2.20143e-05 0 0 8.30482e-06 1.34124e-05 1.33813e-05 8.25451e-06 0 0 2.77573e-06 4.48932e-06 4.48695e-06 2.77191e-06 0 0 8.72522e-07 1.41216e-06 1.41264e-06 8.73304e-07 0 0 2.64934e-07 4.28907e-07 4.29196e-07 2.65403e-07 0 0 7.8622e-08 1.27288e-07 1.27381e-07 7.87722e-08 0 0 2.29003e-08 3.70729e-08 3.70974e-08 2.29394e-08 0 0 6.55481e-09 1.06103e-08 1.06162e-08 6.56386e-09 0 0 1.84404e-09 2.98483e-09 2.98587e-09 1.84611e-09 0 0 5.09828e-10 8.25503e-10 8.25185e-10 5.10516e-10 0 0 1.38602e-10 2.24606e-10 2.24111e-10 1.3895e-10 0 0 3.73421e-11 5.99838e-11 6.0231e-11 3.72145e-11 0 0 1.00383e-11 1.59113e-11 1.62062e-11 9.91609e-12 0 0 2.67968e-12 4.55672e-12 4.39835e-12 2.77798e-12 0 0 8.66724e-13 1.54993e-12 1.35812e-12 9.23977e-13 0 0 4.60027e-13 7.66867e-13 5.58361e-13 5.06796e-13 0 0 4.7097e-13 4.36002e-13 5.85187e-13 2.99197e-13 0 0 4.09442e-13 4.32837e-13 6.90429e-13 1.58157e-13 0 0 2.35006e-13 7.15004e-13 4.69206e-13 2.60366e-13 0 0 1.98786e-13 8.71622e-13 2.76707e-13 3.27902e-13 0 0 3.97052e-13 6.43312e-13 4.08509e-13 3.5004e-13 0 0 6.93671e-13 2.99964e-13 5.24367e-13 4.45189e-13 0 0 6.3497e-13 3.89105e-13 4.36914e-13 4.56857e-13 0 0 2.62264e-13 7.92982e-13 3.85997e-13 3.1179e-13 0 0 1.27918e-13 9.35007e-13 3.5848e-13 3.46236e-13 0 0 3.4239e-13 5.70382e-13 6.96642e-13 2.29026e-13 0 0 3.73664e-13 5.34027e-13 7.96485e-13 9.42053e-14 0 0 3.52946e-13 6.67179e-13 5.76476e-13 2.74573e-13 0 0 3.80915e-13 5.84127e-13 7.11008e-13 1.48735e-13 0 0 2.95539e-13 6.01166e-13 7.76247e-13 1.14977e-13 0 0 3.60671e-13 4.80358e-13 7.61473e-13 2.59631e-13 0 0 3.49663e-13 5.53177e-13 6.12539e-13 3.53717e-13 0 0 3.4131e-13 6.07834e-13 5.26093e-13 4.06206e-13 0 0 4.68099e-13 4.73116e-13 5.29951e-13 5.11874e-13 0 0 4.11856e-13 5.69879e-13 5.0026e-13 4.4655e-13 0 0 2.96748e-13 6.46341e-13 5.49596e-13 3.31461e-13 0 0 2.95827e-13 6.66472e-13 5.42836e-13 2.44657e-13 0 0 4.78285e-13 5.71695e-13 3.81322e-13 2.80502e-13 0 0 5.39283e-13 4.89026e-13 2.84593e-13 3.44468e-13 0 0 3.56426e-13 6.13714e-13 3.75399e-13 1.8579e-13 0 0 3.18348e-13 5.75042e-13 5.89716e-13 -1.58059e-16 0 0 2.30362e-13 6.24278e-13 6.17858e-13 -6.64482e-14 0 0 2.21869e-13 6.25254e-13 5.50588e-13 6.89755e-14 0 0 4.48942e-13 3.26687e-13 4.86923e-13 3.30852e-13 0 0 5.40502e-13 1.48615e-13 5.12678e-13 3.34285e-13 0 0 4.95706e-13 2.26823e-13 4.66539e-13 3.91682e-13 0 0 4.97808e-13 3.20328e-13 3.0802e-13 5.68306e-13 0 0 3.61533e-13 4.94893e-13 2.56834e-13 5.00637e-13 0 0 4.48185e-13 3.13154e-13 5.06875e-13 2.87262e-13 0 0 4.03941e-13 3.61778e-13 4.53601e-13 3.39926e-13 0 0 1.06161e-13 8.49444e-13 -1.33901e-14 6.73691e-13 0 0 1.33771e-13 8.0928e-13 5.50087e-14 7.30067e-13 0 0 4.51965e-13 1.79274e-13 7.55786e-13 4.04091e-13 0 0 7.35529e-13 -2.92379e-13 1.21192e-12 1.1554e-13 0 0 3.37575e-13 4.93956e-13 2.76058e-13 6.26447e-13 0 0 -1.23775e-13 1.26077e-12 -4.87782e-13 9.45685e-13 0 0 3.45431e-13 4.753e-13 3.22455e-13 4.61221e-13 0 0 7.98893e-13 -3.38615e-13 1.06078e-12 2.40811e-13 0 0 3.15655e-13 2.06803e-13 8.09888e-13 3.33559e-13 0 0 -2.66945e-13 1.04248e-12 1.61013e-13 7.06133e-13 0 0 -9.01036e-14 7.76684e-13 3.16463e-13 7.52654e-13 0 0 5.39349e-13 -2.50608e-13 1.32715e-12 2.01488e-13 0 0 8.23705e-13 -7.26361e-13 1.76182e-12 3.93956e-15 0
				</DataArray>
				<DataArray Name="VitesseY" type="Float32" format="ascii">