<?xml version="1.0"?>
<VTKFile type="PolyData">
	<PolyData>
		<Piece NumberOfPoints="1206" NumberOfPolys="1000">
			<Points>
				<DataArray type="Float32" NumberOfComponents="3" format="ascii">
 0 0 0 0.02 0 0 0.04 0 0 0.06 0 0 0.08 0 0 0.1 0 0 0 0.005 0 0.02 0.005 0 0.04 0.005 0 0.06 0.005 0 0.08 0.005 0 0.1 0.005 0 0 0.01 0 0.02 0.01 0 0.04 0.01 0 0.06 0.01 0 0.08 0.01 0 0.1 0.01 0 0 0.015 0 0.02 0.015 0 0.04 0.015 0 0.06 0.015 0 0.08 0.015 0 0.1 0.015 0 0 0.02 0 0.02 0.02 0 0.04 0.02 0 0.06 0.02 0 0.08 0.02 0 0.1 0.02 0 0 0.025 0 0.02 0.025 0 0.04 0.025 0 0.06 0.025 0 0.08 0.025 0 0.1 0.025 0 0 0.03 0 0.02 0.03 0 0.04 0.03 0 0.06 0.03 0 0.08 0.03 0 0.1 0.03 0 0 0.035 0 0.02 0.035 0 0.04 0.035 0 0.06 0.035 0 0.08 0.035 0 0.1 0.035 0 0 0.04 0 0.02 0.04 0 0.04 0.04 0 0.06 0.04 0 0.08 0.04 0 0.1 0.04 0 0 0.045 0 0.02 0.045 0 0.04 0.045 0 0.06 0.045 0 0.08 0.045 0 0.1 0.045 0 0 0.05 0 0.02 0.05 0 0.04 0.05 0 0.06 0.05 0 0.08 0.05 0 0.1 0.05 0 0 0.055 0 0.02 0.055 0 0.04 0.055 0 0.06 0.055 0 0.08 0.055 0 0.1 0.055 0 0 0.06 0 0.02 0.06 0 0.04 0.06 0 0.06 0.06 0 0.08 0.06 0 0.1 0.06 0 0 0.065 0 0.02 0.065 0 0.04 0.065 0 0.06 0.065 0 0.08 0.065 0 0.1 0.065 0 0 0.07 0 0.02 0.07 0 0.04 0.07 0 0.06 0.07 0 0.08 0.07 0 0.1 0.07 0 0 0.075 0 0.02 0.075 0 0.04 0.075 0 0.06 0.075 0 0.08 0.075 0 0.1 0.075 0 0 0.08 0 0.02 0.08 0 0.04 0.08 0 0.06 0.08 0 0.08 0.08 0 0.1 0.08 0 0 0.085 0 0.02 0.085 0 0.04 0.085 0 0.06 0.085 0 0.08 0.085 0 0.1 0.085 0 0 0.09 0 0.02 0.09 0 0.04 0.09 0 0.06 0.09 0 0.08 0.09 0 0.1 0.09 0 0 0.095 0 0.02 0.095 0 0.04 0.095 0 0.06 0.095 0 0.08 0.095 0 0.1 0.095 0 0 0.1 0 0.02 0.1 0 0.04 0.1 0 0.06 0.1 0 0.08 0.1 0 0.1 0.1 0 0 0.105 0 0.02 0.105 0 0.04 0.105 0 0.06 0.105 0 0.08 0.105 0 0.1 0.105 0 0 0.11 0 0.02 0.11 0 0.04 0.11 0 0.06 0.11 0 0.08 0.11 0 0.1 0.11 0 0 0.115 0 0.02 0.115 0 0.04 0.115 0 0.06 0.115 0 0.08 0.115 0 0.1 0.115 0 0 0.12 0 0.02 0.12 0 0.04 0.12 0 0.06 0.12 0 0.08 0.12 0 0.1 0.12 0 0 0.125 0 0.02 0.125 0 0.04 0.125 0 0.06 0.125 0 0.08 0.125 0 0.1 0.125 0 0 0.13 0 0.02 0.13 0 0.04 0.13 0 0.06 0.13 0 0.08 0.13 0 0.1 0.13 0 0 0.135 0 0.02 0.135 0 0.04 0.135 0 0.06 0.135 0 0.08 0.135 0 0.1 0.135 0 0 0.14 0 0.02 0.14 0 0.04 0.14 0 0.06 0.14 0 0.08 0.14 0 0.1 0.14 0 0 0.145 0 0.02 0.145 0 0.04 0.145 0 0.06 0.145 0 0.08 0.145 0 0.1 0.145 0 0 0.15 0 0.02 0.15 0 0.04 0.15 0 0.06 0.15 0 0.08 0.15 0 0.1 0.15 0 0 0.155 0 0.02 0.155 0 0.04 0.155 0 0.06 0.155 0 0.08 0.155 0 0.1 0.155 0 0 0.16 0 0.02 0.16 0 0.04 0.16 0 0.06 0.16 0 0.08 0.16 0 0.1 0.16 0 0 0.165 0 0.02 0.165 0 0.04 0.165 0 0.06 0.165 0 0.08 0.165 0 0.1 0.165 0 0 0.17 0 0.02 0.17 0 0.04 0.17 0 0.06 0.17 0 0.08 0.17 0 0.1 0.17 0 0 0.175 0 0.02 0.175 0 0.04 0.175 0 0.06 0.175 0 0.08 0.175 0 0.1 0.175 0 0 0.18 0 0.02 0.18 0 0.04 0.18 0 0.06 0.18 0 0.08 0.18 0 0.1 0.18 0 0 0.185 0 0.02 0.185 0 0.04 0.185 0 0.06 0.185 0 0.08 0.185 0 0.1 0.185 0 0 0.19 0 0.02 0.19 0 0.04 0.19 0 0.06 0.19 0 0.08 0.19 0 0.1 0.19 0 0 0.195 0 0.02 0.195 0 0.04 0.195 0 0.06 0.195 0 0.08 0.195 0 0.1 0.195 0 0 0.2 0 0.02 0.2 0 0.04 0.2 0 0.06 0.2 0 0.08 0.2 0 0.1 0.2 0 0 0.205 0 0.02 0.205 0 0.04 0.205 0 0.06 0.205 0 0.08 0.205 0 0.1 0.205 0 0 0.21 0 0.02 0.21 0 0.04 0.21 0 0.06 0.21 0 0.08 0.21 0 0.1 0.21 0 0 0.215 0 0.02 0.215 0 0.04 0.215 0 0.06 0.215 0 0.08 0.215 0 0.1 0.215 0 0 0.22 0 0.02 0.22 0 0.04 0.22 0 0.06 0.22 0 0.08 0.22 0 0.1 0.22 0 0 0.225 0 0.02 0.225 0 0.04 0.225 0 0.06 0.225 0 0.08 0.225 0 0.1 0.225 0 0 0.23 0 0.02 0.23 0 0.04 0.23 0 0.06 0.23 0 0.08 0.23 0 0.1 0.23 0 0 0.235 0 0.02 0.235 0 0.04 0.235 0 0.06 0.235 0 0.08 0.235 0 0.1 0.235 0 0 0.24 0 0.02 0.24 0 0.04 0.24 0 0.06 0.24 0 0.08 0.24 0 0.1 0.24 0 0 0.245 0 0.02 0.245 0 0.04 0.245 0 0.06 0.245 0 0.08 0.245 0 0.1 0.245 0 0 0.25 0 0.02 0.25 0 0.04 0.25 0 0.06 0.25 0 0.08 0.25 0 0.1 0.25 0 0 0.255 0 0.02 0.255 0 0.04 0.255 0 0.06 0.255 0 0.08 0.255 0 0.1 0.255 0 0 0.26 0 0.02 0.26 0 0.04 0.26 0 0.06 0.26 0 0.08 0.26 0 0.1 0.26 0 0 0.265 0 0.02 0.265 0 0.04 0.265 0 0.06 0.265 0 0.08 0.265 0 0.1 0.265 0 0 0.27 0 0.02 0.27 0 0.04 0.27 0 0.06 0.27 0 0.08 0.27 0 0.1 0.27 0 0 0.275 0 0.02 0.275 0 0.04 0.275 0 0.06 0.275 0 0.08 0.275 0 0.1 0.275 0 0 0.28 0 0.02 0.28 0 0.04 0.28 0 0.06 0.28 0 0.08 0.28 0 0.1 0.28 0 0 0.285 0 0.02 0.285 0 0.04 0.285 0 0.06 0.285 0 0.08 0.285 0 0.1 0.285 0 0 0.29 0 0.02 0.29 0 0.04 0.29 0 0.06 0.29 0 0.08 0.29 0 0.1 0.29 0 0 0.295 0 0.02 0.295 0 0.04 0.295 0 0.06 0.295 0 0.08 0.295 0 0.1 0.295 0 0 0.3 0 0.02 0.3 0 0.04 0.3 0 0.06 0.3 0 0.08 0.3 0 0.1 0.3 0 0 0.305 0 0.02 0.305 0 0.04 0.305 0 0.06 0.305 0 0.08 0.305 0 0.1 0.305 0 0 0.31 0 0.02 0.31 0 0.04 0.31 0 0.06 0.31 0 0.08 0.31 0 0.1 0.31 0 0 0.315 0 0.02 0.315 0 0.04 0.315 0 0.06 0.315 0 0.08 0.315 0 0.1 0.315 0 0 0.32 0 0.02 0.32 0 0.04 0.32 0 0.06 0.32 0 0.08 0.32 0 0.1 0.32 0 0 0.325 0 0.02 0.325 0 0.04 0.325 0 0.06 0.325 0 0.08 0.325 0 0.1 0.325 0 0 0.33 0 0.02 0.33 0 0.04 0.33 0 0.06 0.33 0 0.08 0.33 0 0.1 0.33 0 0 0.335 0 0.02 0.335 0 0.04 0.335 0 0.06 0.335 0 0.08 0.335 0 0.1 0.335 0 0 0.34 0 0.02 0.34 0 0.04 0.34 0 0.06 0.34 0 0.08 0.34 0 0.1 0.34 0 0 0.345 0 0.02 0.345 0 0.04 0.345 0 0.06 0.345 0 0.08 0.345 0 0.1 0.345 0 0 0.35 0 0.02 0.35 0 0.04 0.35 0 0.06 0.35 0 0.08 0.35 0 0.1 0.35 0 0 0.355 0 0.02 0.355 0 0.04 0.355 0 0.06 0.355 0 0.08 0.355 0 0.1 0.355 0 0 0.36 0 0.02 0.36 0 0.04 0.36 0 0.06 0.36 0 0.08 0.36 0 0.1 0.36 0 0 0.365 0 0.02 0.365 0 0.04 0.365 0 0.06 0.365 0 0.08 0.365 0 0.1 0.365 0 0 0.37 0 0.02 0.37 0 0.04 0.37 0 0.06 0.37 0 0.08 0.37 0 0.1 0.37 0 0 0.375 0 0.02 0.375 0 0.04 0.375 0 0.06 0.375 0 0.08 0.375 0 0.1 0.375 0 0 0.38 0 0.02 0.38 0 0.04 0.38 0 0.06 0.38 0 0.08 0.38 0 0.1 0.38 0 0 0.385 0 0.02 0.385 0 0.04 0.385 0 0.06 0.385 0 0.08 0.385 0 0.1 0.385 0 0 0.39 0 0.02 0.39 0 0.04 0.39 0 0.06 0.39 0 0.08 0.39 0 0.1 0.39 0 0 0.395 0 0.02 0.395 0 0.04 0.395 0 0.06 0.395 0 0.08 0.395 0 0.1 0.395 0 0 0.4 0 0.02 0.4 0 0.04 0.4 0 0.06 0.4 0 0.08 0.4 0 0.1 0.4 0 0 0.405 0 0.02 0.405 0 0.04 0.405 0 0.06 0.405 0 0.08 0.405 0 0.1 0.405 0 0 0.41 0 0.02 0.41 0 0.04 0.41 0 0.06 0.41 0 0.08 0.41 0 0.1 0.41 0 0 0.415 0 0.02 0.415 0 0.04 0.415 0 0.06 0.415 0 0.08 0.415 0 0.1 0.415 0 0 0.42 0 0.02 0.42 0 0.04 0.42 0 0.06 0.42 0 0.08 0.42 0 0.1 0.42 0 0 0.425 0 0.02 0.425 0 0.04 0.425 0 0.06 0.425 0 0.08 0.425 0 0.1 0.425 0 0 0.43 0 0.02 0.43 0 0.04 0.43 0 0.06 0.43 0 0.08 0.43 0 0.1 0.43 0 0 0.435 0 0.02 0.435 0 0.04 0.435 0 0.06 0.435 0 0.08 0.435 0 0.1 0.435 0 0 0.44 0 0.02 0.44 0 0.04 0.44 0 0.06 0.44 0 0.08 0.44 0 0.1 0.44 0 0 0.445 0 0.02 0.445 0 0.04 0.445 0 0.06 0.445 0 0.08 0.445 0 0.1 0.445 0 0 0.45 0 0.02 0.45 0 0.04 0.45 0 0.06 0.45 0 0.08 0.45 0 0.1 0.45 0 0 0.455 0 0.02 0.455 0 0.04 0.455 0 0.06 0.455 0 0.08 0.455 0 0.1 0.455 0 0 0.46 0 0.02 0.46 0 0.04 0.46 0 0.06 0.46 0 0.08 0.46 0 0.1 0.46 0 0 0.465 0 0.02 0.465 0 0.04 0.465 0 0.06 0.465 0 0.08 0.465 0 0.1 0.465 0 0 0.47 0 0.02 0.47 0 0.04 0.47 0 0.06 0.47 0 0.08 0.47 0 0.1 0.47 0 0 0.475 0 0.02 0.475 0 0.04 0.475 0 0.06 0.475 0 0.08 0.475 0 0.1 0.475 0 0 0.48 0 0.02 0.48 0 0.04 0.48 0 0.06 0.48 0 0.08 0.48 0 0.1 0.48 0 0 0.485 0 0.02 0.485 0 0.04 0.485 0 0.06 0.485 0 0.08 0.485 0 0.1 0.485 0 0 0.49 0 0.02 0.49 0 0.04 0.49 0 0.06 0.49 0 0.08 0.49 0 0.1 0.49 0 0 0.495 0 0.02 0.495 0 0.04 0.495 0 0.06 0.495 0 0.08 0.495 0 0.1 0.495 0 0 0.5 0 0.02 0.5 0 0.04 0.5 0 0.06 0.5 0 0.08 0.5 0 0.1 0.5 0 0 0.505 0 0.02 0.505 0 0.04 0.505 0 0.06 0.505 0 0.08 0.505 0 0.1 0.505 0 0 0.51 0 0.02 0.51 0 0.04 0.51 0 0.06 0.51 0 0.08 0.51 0 0.1 0.51 0 0 0.515 0 0.02 0.515 0 0.04 0.515 0 0.06 0.515 0 0.08 0.515 0 0.1 0.515 0 0 0.52 0 0.02 0.52 0 0.04 0.52 0 0.06 0.52 0 0.08 0.52 0 0.1 0.52 0 0 0.525 0 0.02 0.525 0 0.04 0.525 0 0.06 0.525 0 0.08 0.525 0 0.1 0.525 0 0 0.53 0 0.02 0.53 0 0.04 0.53 0 0.06 0.53 0 0.08 0.53 0 0.1 0.53 0 0 0.535 0 0.02 0.535 0 0.04 0.535 0 0.06 0.535 0 0.08 0.535 0 0.1 0.535 0 0 0.54 0 0.02 0.54 0 0.04 0.54 0 0.06 0.54 0 0.08 0.54 0 0.1 0.54 0 0 0.545 0 0.02 0.545 0 0.04 0.545 0 0.06 0.545 0 0.08 0.545 0 0.1 0.545 0 0 0.55 0 0.02 0.55 0 0.04 0.55 0 0.06 0.55 0 0.08 0.55 0 0.1 0.55 0 0 0.555 0 0.02 0.555 0 0.04 0.555 0 0.06 0.555 0 0.08 0.555 0 0.1 0.555 0 0 0.56 0 0.02 0.56 0 0.04 0.56 0 0.06 0.56 0 0.08 0.56 0 0.1 0.56 0 0 0.565 0 0.02 0.565 0 0.04 0.565 0 0.06 0.565 0 0.08 0.565 0 0.1 0.565 0 0 0.57 0 0.02 0.57 0 0.04 0.57 0 0.06 0.57 0 0.08 0.57 0 0.1 0.57 0 0 0.575 0 0.02 0.575 0 0.04 0.575 0 0.06 0.575 0 0.08 0.575 0 0.1 0.575 0 0 0.58 0 0.02 0.58 0 0.04 0.58 0 0.06 0.58 0 0.08 0.58 0 0.1 0.58 0 0 0.585 0 0.02 0.585 0 0.04 0.585 0 0.06 0.585 0 0.08 0.585 0 0.1 0.585 0 0 0.59 0 0.02 0.59 0 0.04 0.59 0 0.06 0.59 0 0.08 0.59 0 0.1 0.59 0 0 0.595 0 0.02 0.595 0 0.04 0.595 0 0.06 0.595 0 0.08 0.595 0 0.1 0.595 0 0 0.6 0 0.02 0.6 0 0.04 0.6 0 0.06 0.6 0 0.08 0.6 0 0.1 0.6 0 0 0.605 0 0.02 0.605 0 0.04 0.605 0 0.06 0.605 0 0.08 0.605 0 0.1 0.605 0 0 0.61 0 0.02 0.61 0 0.04 0.61 0 0.06 0.61 0 0.08 0.61 0 0.1 0.61 0 0 0.615 0 0.02 0.615 0 0.04 0.615 0 0.06 0.615 0 0.08 0.615 0 0.1 0.615 0 0 0.62 0 0.02 0.62 0 0.04 0.62 0 0.06 0.62 0 0.08 0.62 0 0.1 0.62 0 0 0.625 0 0.02 0.625 0 0.04 0.625 0 0.06 0.625 0 0.08 0.625 0 0.1 0.625 0 0 0.63 0 0.02 0.63 0 0.04 0.63 0 0.06 0.63 0 0.08 0.63 0 0.1 0.63 0 0 0.635 0 0.02 0.635 0 0.04 0.635 0 0.06 0.635 0 0.08 0.635 0 0.1 0.635 0 0 0.64 0 0.02 0.64 0 0.04 0.64 0 0.06 0.64 0 0.08 0.64 0 0.1 0.64 0 0 0.645 0 0.02 0.645 0 0.04 0.645 0 0.06 0.645 0 0.08 0.645 0 0.1 0.645 0 0 0.65 0 0.02 0.65 0 0.04 0.65 0 0.06 0.65 0 0.08 0.65 0 0.1 0.65 0 0 0.655 0 0.02 0.655 0 0.04 0.655 0 0.06 0.655 0 0.08 0.655 0 0.1 0.655 0 0 0.66 0 0.02 0.66 0 0.04 0.66 0 0.06 0.66 0 0.08 0.66 0 0.1 0.66 0 0 0.665 0 0.02 0.665 0 0.04 0.665 0 0.06 0.665 0 0.08 0.665 0 0.1 0.665 0 0 0.67 0 0.02 0.67 0 0.04 0.67 0 0.06 0.67 0 0.08 0.67 0 0.1 0.67 0 0 0.675 0 0.02 0.675 0 0.04 0.675 0 0.06 0.675 0 0.08 0.675 0 0.1 0.675 0 0 0.68 0 0.02 0.68 0 0.04 0.68 0 0.06 0.68 0 0.08 0.68 0 0.1 0.68 0 0 0.685 0 0.02 0.685 0 0.04 0.685 0 0.06 0.685 0 0.08 0.685 0 0.1 0.685 0 0 0.69 0 0.02 0.69 0 0.04 0.69 0 0.06 0.69 0 0.08 0.69 0 0.1 
[...]
			<PointData Scalars="VitesseX">
				<DataArray Name="VitesseX" type="Float32" format="ascii">
 0 2.5525e-14 8.18574e-15 3.50735e-14 1.12292e-14 0 0 1.54148e-14 1.88393e-14 2.75099e-14 1.5802e-14 0 0 3.55369e-15 2.91055e-14 2.0924e-14 2.06173e-14 0 0 8.0427e-15 1.48176e-14 3.6421e-14 1.44536e-14 0 0 9.21571e-15 1.20428e-14 3.81071e-14 1.75543e-14 0 0 -9.85784e-15 4.36343e-14 5.57376e-15 3.84438e-14 0 0 -5.89371e-15 2.76658e-14 2.6082e-14 2.59434e-14 0 0 5.36922e-15 5.61888e-15 4.4526e-14 1.84408e-14 0 0 -2.2814e-15 1.75399e-14 2.95484e-14 2.90373e-14 0 0 -1.30436e-14 2.76084e-14 3.13926e-14 2.38076e-14 0 0 -4.02233e-15 1.47965e-15 6.95805e-14 -3.78692e-15 0 0 -3.4904e-15 -3.91056e-15 6.85182e-14 5.38386e-15 0 0 2.74755e-14 -4.3122e-14 8.72192e-14 3.68639e-15 0 0 3.12758e-14 -3.29359e-14 6.57855e-14 2.12068e-14 0 0 -6.00994e-15 4.02113e-14 2.0241e-15 6.02169e-14 0 0 2.60058e-14 4.4706e-16 4.35063e-14 3.90121e-14 0 0 2.88576e-14 3.52617e-15 4.90205e-14 3.4903e-14 0 0 2.16489e-14 2.77558e-14 3.56611e-14 4.03402e-14 0 0 2.3553e-14 4.49514e-14 2.29898e-14 5.42869e-14 0 0 -1.54889e-14 1.03471e-13 7.61468e-15 5.0112e-14 0 0 -2.41443e-14 1.03914e-13 3.60512e-14 2.30784e-14 0 0 2.28484e-14 2.20921e-14 1.30713e-13 -5.33325e-14 0 0 -5.0251e-15 5.59049e-14 9.9886e-14 -5.0512e-14 0 0 -4.0777e-14 1.22234e-13 3.37202e-15 8.80036e-15 0 0 1.34054e-14 3.24339e-14 8.78793e-14 -4.12404e-14 0 0 2.72628e-14 -3.64769e-15 1.1418e-13 -3.74299e-14 0 0 -4.70796e-15 4.69937e-14 4.17739e-14 3.40004e-14 0 0 6.13243e-15 1.83211e-14 7.66112e-14 3.17766e-14 0 0 1.32801e-14 7.01284e-15 8.74923e-14 3.50776e-14 0 0 8.40462e-15 3.61337e-14 3.96494e-14 6.77056e-14 0 0 2.03616e-14 2.56413e-14 6.94319e-14 3.32602e-14 0 0 -1.83446e-15 5.08577e-14 8.51611e-14 -3.4599e-15 0 0 1.22316e-14 4.08491e-14 1.20407e-13 -3.38118e-14 0 0 3.09005e-14 5.77223e-14 1.16741e-13 -9.72989e-15 0 0 2.94095e-14 7.00164e-14 1.3589e-13 2.661e-15 0 0 -3.43254e-15 1.26023e-13 8.98422e-14 5.67762e-14 0 0 -1.54091e-15 1.39731e-13 5.2542e-14 1.2286e-13 0 0 5.95729e-14 6.37439e-14 7.74325e-14 1.64286e-13 0 0 8.89565e-14 1.07382e-14 8.38356e-14 1.88221e-13 0 0 2.91486e-14 3.72207e-14 1.00609e-13 1.51046e-13 0 0 1.40283e-14 3.02916e-14 1.30592e-13 9.17918e-14 0 0 -1.53556e-14 5.14367e-14 9.27354e-14 1.08345e-13 0 0 -1.0619e-13 1.77717e-13 -4.01893e-14 1.59671e-13 0 0 -7.21723e-14 1.27686e-13 1.76418e-14 6.03397e-14 0 0 -2.05199e-14 2.23494e-14 1.41296e-13 -4.33591e-14 0 0 -7.4532e-14 9.17253e-14 9.51382e-14 -5.17644e-14 0 0 -6.57974e-14 6.71264e-14 1.40071e-13 -9.01811e-14 0 0 -9.87771e-15 -1.15527e-14 2.43126e-13 -1.60108e-13 0 0 -4.3543e-14 7.27823e-14 1.64744e-13 -1.16619e-13 0 0 -7.25527e-14 1.61212e-13 4.17854e-14 -1.91727e-14 0 0 -1.62662e-14 1.03469e-13 1.11875e-13 -6.2662e-14 0 0 4.05349e-14 2.74224e-15 2.0071e-13 -4.62622e-14 0 0 -1.58437e-13 2.63317e-13 -4.05216e-14 1.54746e-13 0 0 -1.54149e-13 2.56591e-13 2.80048e-14 6.33313e-14 0 0 -1.16311e-14 4.31617e-14 2.5587e-13 -9.46656e-14 0 0 -1.47098e-15 5.9334e-14 1.891e-13 -1.89803e-15 0 0 5.27928e-14 1.57436e-14 1.69723e-13 6.66832e-14 0 0 -5.33087e-15 8.53211e-14 8.11882e-14 1.32787e-13 0 0 -1.90165e-14 1.2546e-13 3.3443e-14 1.49908e-13 0 0 -3.2262e-14 1.61526e-13 5.7043e-14 1.4477e-13 0 0 4.31059e-16 7.97471e-14 2.32365e-13 6.89603e-14 0 0 3.09563e-14 3.67102e-14 3.17011e-13 7.32998e-14 0 0 -4.5904e-14 1.86583e-13 1.80264e-13 2.12229e-13 0 0 -9.67715e-14 2.31544e-13 1.8082e-13 2.46146e-13 0 0 -1.18763e-13 2.20498e-13 2.49228e-13 2.18029e-13 0 0 -2.87801e-14 1.24439e-13 3.44101e-13 1.60515e-13 0 0 -3.11662e-15 1.96337e-13 2.57757e-13 1.83696e-13 0 0 6.39624e-15 2.72145e-13 2.36358e-13 1.2228e-13 0 0 -6.37544e-15 1.8119e-13 4.1133e-13 -1.42664e-14 0 0 -1.38795e-13 2.57492e-13 3.59451e-13 7.31188e-14 0 0 -2.9452e-13 3.86098e-13 1.45993e-13 2.81712e-13 0 0 -4.157e-13 -1.36564e-13 1.87801e-13 -2.61094e-14 0 0 -1.46087e-12 -2.14725e-12 -1.34073e-12 -1.36344e-12 0 0 -7.53009e-12 -1.19812e-11 -1.1505e-11 -7.39758e-12 0 0 -3.63686e-11 -5.8391e-11 -5.85005e-11 -3.61541e-11 0 0 -1.53606e-10 -2.47774e-10 -2.48173e-10 -1.53625e-10 0 0 -5.73245e-10 -9.27662e-10 -9.2804e-10 -5.74387e-10 0 0 -1.92846e-09 -3.12231e-09 -3.1245e-09 -1.93274e-09 0 0 -5.97356e-09 -9.67274e-09 -9.68287e-09 -5.98957e-09 0 0 -1.74424e-08 -2.82556e-08 -2.82984e-08 -1.75107e-08 0 0 -4.90073e-08 -7.94704e-08 -7.96869e-08 -4.93578e-08 0 0 -1.29972e-07 -2.11237e-07 -2.12397e-07 -1.31849e-07 0 0 -3.0582e-07 -4.986e-07 -5.03279e-07 -3.1339e-07 0 0 -6.42749e-07 -1.05214e-06 -1.06717e-06 -6.67065e-07 0 0 -1.23131e-06 -2.02614e-06 -2.06799e-06 -1.29905e-06 0 0 -2.196e-06 -3.63605e-06 -3.73868e-06 -2.36175e-06 0 0 -3.69786e-06 -6.16932e-06 -6.39852e-06 -4.0707e-06 0 0 -5.93435e-06 -9.97448e-06 -1.04371e-05 -6.6732e-06 0 0 -9.12066e-06 -1.55039e-05 -1.64287e-05 -1.0651e-05 0 0 -1.3503e-05 -2.30823e-05 -2.45513e-05 -1.58057e-05 0 0 -1.9298e-05 -3.34698e-05 -3.65511e-05 -2.43083e-05 0 0 -2.664e-05 -4.66301e-05 -5.00548e-05 -3.25413e-05 0 0 -3.5995e-05 -6.27551e-05 -7.02179e-05 -4.69695e-05 0 0 -4.67622e-05 -8.42875e-05 -9.2705e-05 -6.12211e-05 0 0 -6.01226e-05 -0.000105555 -0.000117057 -7.8744e-05 0 0 -7.47398e-05 -0.000133212 -0.000148949 -9.99501e-05 0 0 -9.23796e-05 -0.000164251 -0.000181584 -0.000120831 0 0 -0.000109946 -0.00019471 -0.000213571 -0.000140945 0 0 -0.000131644 -0.000226802 -0.000245171 -0.000159828 0 0 -0.0001533 -0.000261807 -0.000275469 -0.000176278 0 0 -0.000178206 -0.000296978 -0.000302543 -0.00018852 0 0 -0.000206174 -0.000331598 -0.000324292 -0.000197339 0 0 -0.000232781 -0.000365017 -0.000339217 -0.000194459 0 0 -0.000268891 -0.000397041 -0.00034766 -0.000186519 0 0 -0.00030749 -0.000431504 -0.000349767 -0.000173206 0 0 -0.000348556 -0.00046708 -0.000351289 -0.000161508 0 0 -0.000387211 -0.000500285 -0.000356641 -0.000151968 0 0 -0.000422425 -0.000540157 -0.000370877 -0.000156612 0 0 -0.000460868 -0.000587105 -0.000402924 -0.000170794 0 0 -0.000522343 -0.000628095 -0.000440937 -0.000193578 0 0 -0.000599747 -0.000700431 -0.000487723 -0.000241402 0 0 -0.000681552 -0.000836493 -0.000576263 -0.000311102 0 0 -0.000763484 -0.00101008 -0.000733226 -0.000349867 0 0 -0.000836781 -0.00119 -0.000930721 -0.000345711 0 0 -0.000917747 -0.00136645 -0.00109495 -0.000298213 0 0 -0.00102871 -0.00155816 -0.00110089 -9.46242e-05 0 0 -0.00118682 -0.00175753 -0.00104567 0.00013991 0 0 -0.00134089 -0.00186075 -0.00094836 0.000193175 0 0 -0.00134115 -0.00183971 -0.000887301 0.000176835 0 0 -0.00126682 -0.00167478 -0.000686091 5.75204e-05 0 0 -0.00104832 -0.00131837 -0.000589544 -0.000267059 0 0 -0.000800528 -0.0010645 -0.000695667 -0.000349783 0 0 -0.000645546 -0.000915528 -0.000779192 -0.000401573 0 0 -0.000322726 -0.000334163 -0.000563996 -0.000691844 0 0 0.000810589 0.00176795 0.000704545 -0.000817963 0 0 0.00136911 0.0026024 0.00171515 -0.000600024 0 0 0.00135122 0.00253667 0.0017581 -6.53901e-05 0 0 0.00126284 0.00223136 0.0017033 0.000410497 0 0 0.00112406 0.00185309 0.0014925 0.000550429 0 0 0.000995732 0.00152751 0.00124698 0.000584176 0 0 0.00087918 0.00125488 0.00103783 0.000598134 0 0 0.000766775 0.00104564 0.000902109 0.000589812 0 0 0.000660743 0.000916315 0.000833501 0.000536582 0 0 0.000573276 0.000843097 0.000781709 0.000469576 0 0 0.000502998 0.000764487 0.000709892 0.000415684 0 0 0.000434224 0.000666146 0.000624758 0.000367629 0 0 0.00035877 0.000556088 0.000527047 0.000311955 0 0 0.00027972 0.000437367 0.000418678 0.000249524 0 0 0.000201005 0.000316872 0.000306346 0.000184012 0 0 0.00012984 0.000206016 0.000200937 0.000121622 0 0 7.36364e-05 0.000117473 0.000115397 7.02776e-05 0 0 3.57283e-05 5.7266e-05 5.65928e-05 3.46391e-05 0 0 1.47697e-05 2.37586e-05 2.35866e-05 1.44913e-05 0 0 5.36112e-06 8.64538e-06 8.60942e-06 5.30294e-06 0 0 1.78705e-06 2.88648e-06 2.88027e-06 1.777e-06 0 0 5.6902e-07 9.19959e-07 9.19052e-07 5.67552e-07 0 0 1.76533e-07 2.85554e-07 2.85452e-07 1.76368e-07 0 0 5.3798e-08 8.70438e-08 8.70394e-08 5.37913e-08 0 0 1.61486e-08 2.61311e-08 2.61332e-08 1.61526e-08 0 0 4.77775e-09 7.73154e-09 7.7325e-09 4.77958e-09 0 0 1.3933e-09 2.25439e-09 2.25516e-09 1.39364e-09 0 0 4.00372e-10 6.47908e-10 6.48187e-10 4.00538e-10 0 0 1.1337e-10 1.83678e-10 1.83735e-10 1.13606e-10 0 0 3.17472e-11 5.147e-11 5.16315e-11 3.19368e-11 0 0 8.92082e-12 1.44067e-11 1.4624e-11 9.05598e-12 0 0 2.61351e-12 4.21862e-12 4.41952e-12 2.77193e-12 0 0 7.753e-13 1.72681e-12 1.38423e-12 1.23246e-12 0 0 4.97584e-13 8.96787e-13 6.47489e-13 8.15641e-13 0 0 5.04661e-13 6.78803e-13 5.28041e-13 5.999e-13 0 0 4.90481e-13 6.28087e-13 6.40113e-13 4.27463e-13 0 0 3.99685e-13 6.90475e-13 6.73559e-13 3.81798e-13 0 0 2.93096e-13 8.3509e-13 4.76669e-13 5.121e-13 0 0 3.50916e-13 8.10533e-13 4.45921e-13 5.05706e-13 0 0 4.65099e-13 6.50792e-13 6.93106e-13 2.63504e-13 0 0 5.11982e-13 5.07462e-13 8.36788e-13 1.80319e-13 0 0 3.93206e-13 6.85945e-13 6.18377e-13 2.77325e-13 0 0 4.66724e-13 6.30765e-13 6.72604e-13 1.85112e-13 0 0 4.84667e-13 6.0203e-13 6.69613e-13 2.13481e-13 0 0 2.63484e-13 9.32547e-13 3.65909e-13 4.20314e-13 0 0 3.54902e-13 8.38226e-13 3.80899e-13 4.51599e-13 0 0 6.05799e-13 4.9112e-13 6.78868e-13 2.17755e-13 0 0 5.71097e-13 5.07742e-13 7.5708e-13 4.20904e-14 0 0 4.9744e-13 5.86094e-13 5.82199e-13 2.34121e-13 0 0 2.96234e-13 8.63762e-13 2.37333e-13 5.24498e-13 0 0 4.03841e-13 7.76166e-13 2.05409e-13 5.66153e-13 0 0 5.5132e-13 5.66969e-13 4.21827e-13 4.21749e-13 0 0 4.9344e-13 5.57012e-13 6.40395e-13 1.90865e-13 0 0 6.09747e-13 3.94246e-13 7.22023e-13 1.49774e-13 0 0 3.35707e-13 7.57635e-13 2.68991e-13 4.94259e-13 0 0 2.58052e-13 7.18509e-13 5.27366e-13 2.26591e-13 0 0 4.22112e-13 3.93877e-13 8.46722e-13 1.59884e-14 0 0 2.76881e-13 6.98287e-13 3.01723e-13 4.64089e-13 0 0 6.37006e-13 2.256e-13 7.39229e-13 2.24413e-13 0 0 6.84551e-13 1.58717e-13 8.11789e-13 2.56751e-13 0 0 3.50284e-13 5.63351e-13 3.25979e-13 6.94279e-13 0 0 2.80244e-13 4.34568e-13 5.39639e-13 6.2188e-13 0 0 1.90735e-13 4.03099e-13 7.70913e-13 4.47272e-13 0 0 2.91885e-13 2.93843e-13 7.63457e-13 5.09159e-13 0 0 5.97394e-14 7.5287e-13 1.12143e-13 9.53801e-13 0 0 2.57432e-16 8.50751e-13 6.28955e-14 9.21969e-13 0 0 3.62919e-13 2.24136e-13 7.96847e-13 3.67486e-13 0 0 3.21447e-13 2.58617e-13 7.46545e-13 4.39097e-13 0 0 2.0587e-13 4.67015e-13 5.27905e-13 5.99366e-13 0 0 -9.20981e-16 7.35562e-13 4.19135e-13 4.92925e-13 0 0 1.22345e-13 4.54864e-13 8.12244e-13 2.40837e-13 0 0 3.58276e-13 1.21575e-13 1.21186e-12 1.54695e-14 0 0 1.06805e-13 5.1583e-13 9.45839e-13 1.43236e-13 0 0 -1.31625e-13 8.79899e-13 7.11464e-13 2.05593e-13 0 0 -1.06447e-14 7.05871e-13 7.72101e-13 2.26011e-13 0 0 4.09516e-13 -2.47416e-14 1.47385e-12 -1.12264e-13 0 0 5.81032e-13 -3.33638e-13 1.92274e-12 -4.42797e-13 0
				</DataArray>
				<DataArray Name="VitesseY" type="Float32" format="ascii">