<?xml version="1.0"?>
<VTKFile type="PolyData">
	<PolyData>
		<Piece NumberOfPoints="1206" NumberOfPolys="1000">
			<Points>
				<DataArray type="Float32" NumberOfComponents="3" format="ascii">
 0 0 0 0.02 0 0 0.04 0 0 0.06 0 0 0.08 0 0 0.1 0 0 0 0.005 0 0.02 0.005 0 0.04 0.005 0 0.06 0.005 0 0.08 0.005 0 0.1 0.005 0 0 0.01 0 0.02 0.01 0 0.04 0.01 0 0.06 0.01 0 0.08 0.01 0 0.1 0.01 0 0 0.015 0 0.02 0.015 0 0.04 0.015 0 0.06 0.015 0 0.08 0.015 0 0.1 0.015 0 0 0.02 0 0.02 0.02 0 0.04 0.02 0 0.06 0.02 0 0.08 0.02 0 0.1 0.02 0 0 0.025 0 0.02 0.025 0 0.04 0.025 0 0.06 0.025 0 0.08 0.025 0 0.1 0.025 0 0 0.03 0 0.02 0.03 0 0.04 0.03 0 0.06 0.03 0 0.08 0.03 0 0.1 0.03 0 0 0.035 0 0.02 0.035 0 0.04 0.035 0 0.06 0.035 0 0.08 0.035 0 0.1 0.035 0 0 0.04 0 0.02 0.04 0 0.04 0.04 0 0.06 0.04 0 0.08 0.04 0 0.1 0.04 0 0 0.045 0 0.02 0.045 0 0.04 0.045 0 0.06 0.045 0 0.08 0.045 0 0.1 0.045 0 0 0.05 0 0.02 0.05 0 0.04 0.05 0 0.06 0.05 0 0.08 0.05 0 0.1 0.05 0 0 0.055 0 0.02 0.055 0 0.04 0.055 0 0.06 0.055 0 0.08 0.055 0 0.1 0.055 0 0 0.06 0 0.02 0.06 0 0.04 0.06 0 0.06 0.06 0 0.08 0.06 0 0.1 0.06 0 0 0.065 0 0.02 0.065 0 0.04 0.065 0 0.06 0.065 0 0.08 0.065 0 0.1 0.065 0 0 0.07 0 0.02 0.07 0 0.04 0.07 0 0.06 0.07 0 0.08 0.07 0 0.1 0.07 0 0 0.075 0 0.02 0.075 0 0.04 0.075 0 0.06 0.075 0 0.08 0.075 0 0.1 0.075 0 0 0.08 0 0.02 0.08 0 0.04 0.08 0 0.06 0.08 0 0.08 0.08 0 0.1 0.08 0 0 0.085 0 0.02 0.085 0 0.04 0.085 0 0.06 0.085 0 0.08 0.085 0 0.1 0.085 0 0 0.09 0 0.02 0.09 0 0.04 0.09 0 0.06 0.09 0 0.08 0.09 0 0.1 0.09 0 0 0.095 0 0.02 0.095 0 0.04 0.095 0 0.06 0.095 0 0.08 0.095 0 0.1 0.095 0 0 0.1 0 0.02 0.1 0 0.04 0.1 0 0.06 0.1 0 0.08 0.1 0 0.1 0.1 0 0 0.105 0 0.02 0.105 0 0.04 0.105 0 0.06 0.105 0 0.08 0.105 0 0.1 0.105 0 0 0.11 0 0.02 0.11 0 0.04 0.11 0 0.06 0.11 0 0.08 0.11 0 0.1 0.11 0 0 0.115 0 0.02 0.115 0 0.04 0.115 0 0.06 0.115 0 0.08 0.115 0 0.1 0.115 0 0 0.12 0 0.02 0.12 0 0.04 0.12 0 0.06 0.12 0 0.08 0.12 0 0.1 0.12 0 0 0.125 0 0.02 0.125 0 0.04 0.125 0 0.06 0.125 0 0.08 0.125 0 0.1 0.125 0 0 0.13 0 0.02 0.13 0 0.04 0.13 0 0.06 0.13 0 0.08 0.13 0 0.1 0.13 0 0 0.135 0 0.02 0.135 0 0.04 0.135 0 0.06 0.135 0 0.08 0.135 0 0.1 0.135 0 0 0.14 0 0.02 0.14 0 0.04 0.14 0 0.06 0.14 0 0.08 0.14 0 0.1 0.14 0 0 0.145 0 0.02 0.145 0 0.04 0.145 0 0.06 0.145 0 0.08 0.145 0 0.1 0.145 0 0 0.15 0 0.02 0.15 0 0.04 0.15 0 0.06 0.15 0 0.08 0.15 0 0.1 0.15 0 0 0.155 0 0.02 0.155 0 0.04 0.155 0 0.06 0.155 0 0.08 0.155 0 0.1 0.155 0 0 0.16 0 0.02 0.16 0 0.04 0.16 0 0.06 0.16 0 0.08 0.16 0 0.1 0.16 0 0 0.165 0 0.02 0.165 0 0.04 0.165 0 0.06 0.165 0 0.08 0.165 0 0.1 0.165 0 0 0.17 0 0.02 0.17 0 0.04 0.17 0 0.06 0.17 0 0.08 0.17 0 0.1 0.17 0 0 0.175 0 0.02 0.175 0 0.04 0.175 0 0.06 0.175 0 0.08 0.175 0 0.1 0.175 0 0 0.18 0 0.02 0.18 0 0.04 0.18 0 0.06 0.18 0 0.08 0.18 0 0.1 0.18 0 0 0.185 0 0.02 0.185 0 0.04 0.185 0 0.06 0.185 0 0.08 0.185 0 0.1 0.185 0 0 0.19 0 0.02 0.19 0 0.04 0.19 0 0.06 0.19 0 0.08 0.19 0 0.1 0.19 0 0 0.195 0 0.02 0.195 0 0.04 0.195 0 0.06 0.195 0 0.08 0.195 0 0.1 0.195 0 0 0.2 0 0.02 0.2 0 0.04 0.2 0 0.06 0.2 0 0.08 0.2 0 0.1 0.2 0 0 0.205 0 0.02 0.205 0 0.04 0.205 0 0.06 0.205 0 0.08 0.205 0 0.1 0.205 0 0 0.21 0 0.02 0.21 0 0.04 0.21 0 0.06 0.21 0 0.08 0.21 0 0.1 0.21 0 0 0.215 0 0.02 0.215 0 0.04 0.215 0 0.06 0.215 0 0.08 0.215 0 0.1 0.215 0 0 0.22 0 0.02 0.22 0 0.04 0.22 0 0.06 0.22 0 0.08 0.22 0 0.1 0.22 0 0 0.225 0 0.02 0.225 0 0.04 0.225 0 0.06 0.225 0 0.08 0.225 0 0.1 0.225 0 0 0.23 0 0.02 0.23 0 0.04 0.23 0 0.06 0.23 0 0.08 0.23 0 0.1 0.23 0 0 0.235 0 0.02 0.235 0 0.04 0.235 0 0.06 0.235 0 0.08 0.235 0 0.1 0.235 0 0 0.24 0 0.02 0.24 0 0.04 0.24 0 0.06 0.24 0 0.08 0.24 0 0.1 0.24 0 0 0.245 0 0.02 0.245 0 0.04 0.245 0 0.06 0.245 0 0.08 0.245 0 0.1 0.245 0 0 0.25 0 0.02 0.25 0 0.04 0.25 0 0.06 0.25 0 0.08 0.25 0 0.1 0.25 0 0 0.255 0 0.02 0.255 0 0.04 0.255 0 0.06 0.255 0 0.08 0.255 0 0.1 0.255 0 0 0.26 0 0.02 0.26 0 0.04 0.26 0 0.06 0.26 0 0.08 0.26 0 0.1 0.26 0 0 0.265 0 0.02 0.265 0 0.04 0.265 0 0.06 0.265 0 0.08 0.265 0 0.1 0.265 0 0 0.27 0 0.02 0.27 0 0.04 0.27 0 0.06 0.27 0 0.08 0.27 0 0.1 0.27 0 0 0.275 0 0.02 0.275 0 0.04 0.275 0 0.06 0.275 0 0.08 0.275 0 0.1 0.275 0 0 0.28 0 0.02 0.28 0 0.04 0.28 0 0.06 0.28 0 0.08 0.28 0 0.1 0.28 0 0 0.285 0 0.02 0.285 0 0.04 0.285 0 0.06 0.285 0 0.08 0.285 0 0.1 0.285 0 0 0.29 0 0.02 0.29 0 0.04 0.29 0 0.06 0.29 0 0.08 0.29 0 0.1 0.29 0 0 0.295 0 0.02 0.295 0 0.04 0.295 0 0.06 0.295 0 0.08 0.295 0 0.1 0.295 0 0 0.3 0 0.02 0.3 0 0.04 0.3 0 0.06 0.3 0 0.08 0.3 0 0.1 0.3 0 0 0.305 0 0.02 0.305 0 0.04 0.305 0 0.06 0.305 0 0.08 0.305 0 0.1 0.305 0 0 0.31 0 0.02 0.31 0 0.04 0.31 0 0.06 0.31 0 0.08 0.31 0 0.1 0.31 0 0 0.315 0 0.02 0.315 0 0.04 0.315 0 0.06 0.315 0 0.08 0.315 0 0.1 0.315 0 0 0.32 0 0.02 0.32 0 0.04 0.32 0 0.06 0.32 0 0.08 0.32 0 0.1 0.32 0 0 0.325 0 0.02 0.325 0 0.04 0.325 0 0.06 0.325 0 0.08 0.325 0 0.1 0.325 0 0 0.33 0 0.02 0.33 0 0.04 0.33 0 0.06 0.33 0 0.08 0.33 0 0.1 0.33 0 0 0.335 0 0.02 0.335 0 0.04 0.335 0 0.06 0.335 0 0.08 0.335 0 0.1 0.335 0 0 0.34 0 0.02 0.34 0 0.04 0.34 0 0.06 0.34 0 0.08 0.34 0 0.1 0.34 0 0 0.345 0 0.02 0.345 0 0.04 0.345 0 0.06 0.345 0 0.08 0.345 0 0.1 0.345 0 0 0.35 0 0.02 0.35 0 0.04 0.35 0 0.06 0.35 0 0.08 0.35 0 0.1 0.35 0 0 0.355 0 0.02 0.355 0 0.04 0.355 0 0.06 0.355 0 0.08 0.355 0 0.1 0.355 0 0 0.36 0 0.02 0.36 0 0.04 0.36 0 0.06 0.36 0 0.08 0.36 0 0.1 0.36 0 0 0.365 0 0.02 0.365 0 0.04 0.365 0 0.06 0.365 0 0.08 0.365 0 0.1 0.365 0 0 0.37 0 0.02 0.37 0 0.04 0.37 0 0.06 0.37 0 0.08 0.37 0 0.1 0.37 0 0 0.375 0 0.02 0.375 0 0.04 0.375 0 0.06 0.375 0 0.08 0.375 0 0.1 0.375 0 0 0.38 0 0.02 0.38 0 0.04 0.38 0 0.06 0.38 0 0.08 0.38 0 0.1 0.38 0 0 0.385 0 0.02 0.385 0 0.04 0.385 0 0.06 0.385 0 0.08 0.385 0 0.1 0.385 0 0 0.39 0 0.02 0.39 0 0.04 0.39 0 0.06 0.39 0 0.08 0.39 0 0.1 0.39 0 0 0.395 0 0.02 0.395 0 0.04 0.395 0 0.06 0.395 0 0.08 0.395 0 0.1 0.395 0 0 0.4 0 0.02 0.4 0 0.04 0.4 0 0.06 0.4 0 0.08 0.4 0 0.1 0.4 0 0 0.405 0 0.02 0.405 0 0.04 0.405 0 0.06 0.405 0 0.08 0.405 0 0.1 0.405 0 0 0.41 0 0.02 0.41 0 0.04 0.41 0 0.06 0.41 0 0.08 0.41 0 0.1 0.41 0 0 0.415 0 0.02 0.415 0 0.04 0.415 0 0.06 0.415 0 0.08 0.415 0 0.1 0.415 0 0 0.42 0 0.02 0.42 0 0.04 0.42 0 0.06 0.42 0 0.08 0.42 0 0.1 0.42 0 0 0.425 0 0.02 0.425 0 0.04 0.425 0 0.06 0.425 0 0.08 0.425 0 0.1 0.425 0 0 0.43 0 0.02 0.43 0 0.04 0.43 0 0.06 0.43 0 0.08 0.43 0 0.1 0.43 0 0 0.435 0 0.02 0.435 0 0.04 0.435 0 0.06 0.435 0 0.08 0.435 0 0.1 0.435 0 0 0.44 0 0.02 0.44 0 0.04 0.44 0 0.06 0.44 0 0.08 0.44 0 0.1 0.44 0 0 0.445 0 0.02 0.445 0 0.04 0.445 0 0.06 0.445 0 0.08 0.445 0 0.1 0.445 0 0 0.45 0 0.02 0.45 0 0.04 0.45 0 0.06 0.45 0 0.08 0.45 0 0.1 0.45 0 0 0.455 0 0.02 0.455 0 0.04 0.455 0 0.06 0.455 0 0.08 0.455 0 0.1 0.455 0 0 0.46 0 0.02 0.46 0 0.04 0.46 0 0.06 0.46 0 0.08 0.46 0 0.1 0.46 0 0 0.465 0 0.02 0.465 0 0.04 0.465 0 0.06 0.465 0 0.08 0.465 0 0.1 0.465 0 0 0.47 0 0.02 0.47 0 0.04 0.47 0 0.06 0.47 0 0.08 0.47 0 0.1 0.47 0 0 0.475 0 0.02 0.475 0 0.04 0.475 0 0.06 0.475 0 0.08 0.475 0 0.1 0.475 0 0 0.48 0 0.02 0.48 0 0.04 0.48 0 0.06 0.48 0 0.08 0.48 0 0.1 0.48 0 0 0.485 0 0.02 0.485 0 0.04 0.485 0 0.06 0.485 0 0.08 0.485 0 0.1 0.485 0 0 0.49 0 0.02 0.49 0 0.04 0.49 0 0.06 0.49 0 0.08 0.49 0 0.1 0.49 0 0 0.495 0 0.02 0.495 0 0.04 0.495 0 0.06 0.495 0 0.08 0.495 0 0.1 0.495 0 0 0.5 0 0.02 0.5 0 0.04 0.5 0 0.06 0.5 0 0.08 0.5 0 0.1 0.5 0 0 0.505 0 0.02 0.505 0 0.04 0.505 0 0.06 0.505 0 0.08 0.505 0 0.1 0.505 0 0 0.51 0 0.02 0.51 0 0.04 0.51 0 0.06 0.51 0 0.08 0.51 0 0.1 0.51 0 0 0.515 0 0.02 0.515 0 0.04 0.515 0 0.06 0.515 0 0.08 0.515 0 0.1 0.515 0 0 0.52 0 0.02 0.52 0 0.04 0.52 0 0.06 0.52 0 0.08 0.52 0 0.1 0.52 0 0 0.525 0 0.02 0.525 0 0.04 0.525 0 0.06 0.525 0 0.08 0.525 0 0.1 0.525 0 0 0.53 0 0.02 0.53 0 0.04 0.53 0 0.06 0.53 0 0.08 0.53 0 0.1 0.53 0 0 0.535 0 0.02 0.535 0 0.04 0.535 0 0.06 0.535 0 0.08 0.535 0 0.1 0.535 0 0 0.54 0 0.02 0.54 0 0.04 0.54 0 0.06 0.54 0 0.08 0.54 0 0.1 0.54 0 0 0.545 0 0.02 0.545 0 0.04 0.545 0 0.06 0.545 0 0.08 0.545 0 0.1 0.545 0 0 0.55 0 0.02 0.55 0 0.04 0.55 0 0.06 0.55 0 0.08 0.55 0 0.1 0.55 0 0 0.555 0 0.02 0.555 0 0.04 0.555 0 0.06 0.555 0 0.08 0.555 0 0.1 0.555 0 0 0.56 0 0.02 0.56 0 0.04 0.56 0 0.06 0.56 0 0.08 0.56 0 0.1 0.56 0 0 0.565 0 0.02 0.565 0 0.04 0.565 0 0.06 0.565 0 0.08 0.565 0 0.1 0.565 0 0 0.57 0 0.02 0.57 0 0.04 0.57 0 0.06 0.57 0 0.08 0.57 0 0.1 0.57 0 0 0.575 0 0.02 0.575 0 0.04 0.575 0 0.06 0.575 0 0.08 0.575 0 0.1 0.575 0 0 0.58 0 0.02 0.58 0 0.04 0.58 0 0.06 0.58 0 0.08 0.58 0 0.1 0.58 0 0 0.585 0 0.02 0.585 0 0.04 0.585 0 0.06 0.585 0 0.08 0.585 0 0.1 0.585 0 0 0.59 0 0.02 0.59 0 0.04 0.59 0 0.06 0.59 0 0.08 0.59 0 0.1 0.59 0 0 0.595 0 0.02 0.595 0 0.04 0.595 0 0.06 0.595 0 0.08 0.595 0 0.1 0.595 0 0 0.6 0 0.02 0.6 0 0.04 0.6 0 0.06 0.6 0 0.08 0.6 0 0.1 0.6 0 0 0.605 0 0.02 0.605 0 0.04 0.605 0 0.06 0.605 0 0.08 0.605 0 0.1 0.605 0 0 0.61 0 0.02 0.61 0 0.04 0.61 0 0.06 0.61 0 0.08 0.61 0 0.1 0.61 0 0 0.615 0 0.02 0.615 0 0.04 0.615 0 0.06 0.615 0 0.08 0.615 0 0.1 0.615 0 0 0.62 0 0.02 0.62 0 0.04 0.62 0 0.06 0.62 0 0.08 0.62 0 0.1 0.62 0 0 0.625 0 0.02 0.625 0 0.04 0.625 0 0.06 0.625 0 0.08 0.625 0 0.1 0.625 0 0 0.63 0 0.02 0.63 0 0.04 0.63 0 0.06 0.63 0 0.08 0.63 0 0.1 0.63 0 0 0.635 0 0.02 0.635 0 0.04 0.635 0 0.06 0.635 0 0.08 0.635 0 0.1 0.635 0 0 0.64 0 0.02 0.64 0 0.04 0.64 0 0.06 0.64 0 0.08 0.64 0 0.1 0.64 0 0 0.645 0 0.02 0.645 0 0.04 0.645 0 0.06 0.645 0 0.08 0.645 0 0.1 0.645 0 0 0.65 0 0.02 0.65 0 0.04 0.65 0 0.06 0.65 0 0.08 0.65 0 0.1 0.65 0 0 0.655 0 0.02 0.655 0 0.04 0.655 0 0.06 0.655 0 0.08 0.655 0 0.1 0.655 0 0 0.66 0 0.02 0.66 0 0.04 0.66 0 0.06 0.66 0 0.08 0.66 0 0.1 0.66 0 0 0.665 0 0.02 0.665 0 0.04 0.665 0 0.06 0.665 0 0.08 0.665 0 0.1 0.665 0 0 0.67 0 0.02 0.67 0 0.04 0.67 0 0.06 0.67 0 0.08 0.67 0 0.1 0.67 0 0 0.675 0 0.02 0.675 0 0.04 0.675 0 0.06 0.675 0 0.08 0.675 0 0.1 0.675 0 0 0.68 0 0.02 0.68 0 0.04 0.68 0 0.06 0.68 0 0.08 0.68 0 0.1 0.68 0 0 0.685 0 0.02 0.685 0 0.04 0.685 0 0.06 0.685 0 0.08 0.685 0 0.1 0.685 0 0 0.69 0 0.02 0.69 0 0.04 0.69 0 0.06 0.69 0 0.08 0.69 0 0.1 
[...]
			<PointData Scalars="VitesseX">
				<DataArray Name="VitesseX" type="Float32" format="ascii">
 0 -1.21215e-14 -1.8784e-14 -1.13105e-14 -1.82731e-14 0 0 -1.55866e-14 -1.41892e-14 -1.58151e-14 -1.55171e-14 0 0 -1.71751e-14 -1.49927e-14 -1.44632e-14 -1.29266e-14 0 0 -1.4365e-14 -2.38009e-14 -7.79691e-15 -1.00256e-14 0 0 -1.26695e-14 -2.96268e-14 -1.07915e-15 -1.70034e-14 0 0 -1.82664e-14 -1.96589e-14 -8.25223e-15 -1.95704e-14 0 0 -2.23526e-14 -9.31975e-15 -1.51948e-14 -1.34385e-14 0 0 -1.77489e-14 -2.21936e-14 7.30638e-15 -1.97506e-14 0 0 -1.67772e-14 -2.61652e-14 1.34499e-14 -1.58496e-14 0 0 -2.32991e-14 -5.42666e-15 -1.48612e-14 1.4021e-15 0 0 -2.06081e-14 4.00997e-15 -2.73759e-14 -2.15682e-15 0 0 -3.91175e-15 -1.27276e-14 -8.87981e-16 -3.34393e-14 0 0 1.00062e-14 -3.00509e-14 2.73618e-14 -5.93174e-14 0 0 -1.48935e-14 1.76789e-14 -1.00698e-14 -4.30417e-14 0 0 -2.11986e-14 2.86932e-14 -1.22459e-14 -4.10015e-14 0 0 3.2967e-15 -6.24654e-17 8.48649e-15 -4.65607e-14 0 0 1.45299e-14 5.53169e-15 -1.90677e-14 -2.02391e-14 0 0 1.99702e-14 -5.87661e-15 -1.29346e-14 -1.90873e-14 0 0 1.68106e-14 -1.47745e-14 -1.10975e-14 -2.70814e-14 0 0 1.36164e-14 -1.2939e-14 -3.67594e-14 -1.30174e-14 0 0 1.80455e-14 -3.57201e-14 -7.04014e-15 -3.92138e-14 0 0 9.82569e-15 -3.09882e-14 -1.37146e-14 -3.90056e-14 0 0 4.17996e-14 -7.55813e-14 -2.35468e-16 -2.1525e-14 0 0 4.55617e-14 -7.38796e-14 8.19351e-15 -3.8746e-14 0 0 4.94152e-15 -5.68489e-15 -3.03431e-14 -5.00267e-14 0 0 1.45777e-14 -3.25992e-14 1.58857e-14 -7.92083e-14 0 0 4.7278e-14 -8.29111e-14 4.48063e-14 -6.44497e-14 0 0 4.62378e-14 -6.94325e-14 2.58482e-15 -1.37513e-14 0 0 2.24382e-14 -2.0133e-14 -4.21159e-14 2.60065e-14 0 0 1.79784e-14 -5.30789e-15 -3.9163e-14 2.12312e-14 0 0 5.19985e-15 1.04396e-14 -2.20244e-14 -2.87019e-14 0 0 -1.58959e-14 1.47243e-14 2.57527e-14 -9.37909e-14 0 0 -1.37416e-14 6.01064e-15 4.38854e-14 -9.39472e-14 0 0 3.47369e-14 -3.94192e-14 4.48564e-14 -5.99337e-14 0 0 6.64491e-14 -6.6816e-14 4.00107e-14 -5.36212e-14 0 0 3.29137e-14 -2.89611e-14 -2.34144e-15 -1.24819e-14 0 0 -5.4457e-14 6.81016e-14 -1.13464e-13 7.61791e-14 0 0 -6.02748e-14 5.71229e-14 -1.16324e-13 8.55303e-14 0 0 -2.55136e-14 -1.18262e-14 -3.57743e-14 3.3761e-14 0 0 -1.34603e-14 -5.05363e-14 -2.67037e-14 4.37303e-14 0 0 1.84162e-14 -1.08651e-13 2.94466e-15 3.61123e-14 0 0 2.00305e-14 -9.26843e-14 -3.54364e-14 4.59588e-14 0 0 -7.67769e-15 -5.03756e-14 -8.81791e-14 1.12426e-13 0 0 1.9515e-14 -9.82106e-14 -3.23636e-14 1.24366e-13 0 0 3.825e-15 -9.72222e-14 -2.64071e-14 1.36414e-13 0 0 -4.20361e-14 -8.28816e-14 -4.86279e-14 1.49919e-13 0 0 -5.72872e-14 -8.46328e-14 -5.88419e-14 1.17203e-13 0 0 -2.6548e-14 -9.32165e-14 -1.28234e-13 1.28599e-13 0 0 7.65284e-14 -1.87425e-13 -1.5502e-13 1.05788e-13 0 0 1.66426e-14 -1.03276e-13 -1.67464e-13 6.10462e-15 0 0 -2.16747e-14 -6.86248e-14 -1.75086e-13 -6.04284e-15 0 0 -6.10916e-15 -1.09802e-13 -1.84302e-13 7.0772e-14 0 0 -4.87904e-15 -1.70291e-13 -1.08928e-13 5.91708e-14 0 0 1.92574e-14 -2.32952e-13 -1.51695e-13 8.97436e-14 0 0 -6.08585e-14 -1.22338e-13 -3.27716e-13 1.62039e-13 0 0 -1.63719e-13 -2.50336e-14 -3.42527e-13 7.74251e-14 0 0 -7.25952e-14 -6.82642e-14 -2.96225e-13 -4.63425e-15 0 0 3.17069e-14 -1.55196e-13 -1.91104e-13 -4.43304e-14 0 0 -5.93308e-15 -1.34989e-13 -1.89047e-13 1.2994e-14 0 0 -1.67373e-14 -1.54397e-13 -2.03732e-13 1.01872e-13 0 0 -9.74425e-14 -1.96649e-13 -6.32545e-14 8.65736e-15 0 0 -2.19096e-13 -1.83317e-13 -1.30925e-14 -1.15724e-14 0 0 -3.15007e-13 -9.69561e-14 -1.0926e-13 1.11058e-13 0 0 -3.31244e-13 -1.0574e-13 -9.3085e-14 1.42231e-13 0 0 -3.11226e-13 -1.28266e-13 -7.24234e-14 8.7026e-14 0 0 -2.4842e-13 -1.39203e-13 -6.06018e-14 1.47374e-14 0 0 -1.05175e-13 -1.99937e-13 3.22482e-14 -3.92966e-14 0 0 6.66044e-14 -1.42486e-13 1.71719e-13 3.81904e-14 0 0 1.85348e-13 8.99673e-14 3.5437e-13 2.62874e-13 0 0 4.04235e-13 7.06699e-13 7.813e-13 7.44402e-13 0 0 8.92464e-13 1.70183e-12 1.68404e-12 1.36844e-12 0 0 1.89793e-12 3.32721e-12 3.37718e-12 2.38091e-12 0 0 3.56079e-12 5.82287e-12 6.00827e-12 3.95232e-12 0 0 5.63767e-12 9.0584e-12 9.26661e-12 5.98587e-12 0 0 7.04457e-12 1.14515e-11 1.15341e-11 7.49556e-12 0 0 3.69814e-12 6.22383e-12 6.22067e-12 4.26715e-12 0 0 -1.20485e-11 -1.90471e-11 -1.90458e-11 -1.13134e-11 0 0 -6.10017e-11 -9.80513e-11 -9.78503e-11 -5.99758e-11 0 0 -1.86726e-10 -3.01159e-10 -3.00493e-10 -1.85067e-10 0 0 -4.77069e-10 -7.70417e-10 -7.68884e-10 -4.74206e-10 0 0 -1.10057e-09 -1.77846e-09 -1.77558e-09 -1.09577e-09 0 0 -2.37056e-09 -3.82921e-09 -3.83028e-09 -2.35993e-09 0 0 -4.84839e-09 -7.86584e-09 -7.80636e-09 -4.86949e-09 0 0 -9.52632e-09 -1.53253e-08 -1.55616e-08 -9.38485e-09 0 0 -1.79044e-08 -2.90538e-08 -2.8388e-08 -1.82883e-08 0 0 -3.2277e-08 -5.29381e-08 -5.42037e-08 -3.18049e-08 0 0 -5.86615e-08 -9.12567e-08 -9.04877e-08 -5.94085e-08 0 0 -9.47755e-08 -1.64344e-07 -1.64911e-07 -9.58521e-08 0 0 -1.69758e-07 -2.55834e-07 -2.57492e-07 -1.71028e-07 0 0 -2.562e-07 -4.47209e-07 -4.4768e-07 -2.595e-07 0 0 -4.2942e-07 -6.59814e-07 -6.74307e-07 -4.43452e-07 0 0 -6.5181e-07 -1.07678e-06 -1.04817e-06 -6.38993e-07 0 0 -9.43391e-07 -1.60867e-06 -1.68786e-06 -1.04602e-06 0 0 -1.5102e-06 -2.33033e-06 -2.30193e-06 -1.45145e-06 0 0 -2.04566e-06 -3.42213e-06 -3.53162e-06 -2.1746e-06 0 0 -3.00871e-06 -5.03974e-06 -5.03059e-06 -3.19249e-06 0 0 -4.17385e-06 -6.61216e-06 -6.73793e-06 -4.19369e-06 0 0 -5.55972e-06 -9.22773e-06 -9.53579e-06 -5.97056e-06 0 0 -7.66693e-06 -1.27156e-05 -1.27683e-05 -7.98837e-06 0 0 -9.91288e-06 -1.60957e-05 -1.63974e-05 -1.02484e-05 0 0 -1.2577e-05 -2.05806e-05 -2.10411e-05 -1.32275e-05 0 0 -1.60466e-05 -2.62372e-05 -2.64126e-05 -1.64738e-05 0 0 -1.96247e-05 -3.19734e-05 -3.20686e-05 -1.98511e-05 0 0 -2.33328e-05 -3.76206e-05 -3.74881e-05 -2.30544e-05 0 0 -2.68486e-05 -4.28287e-05 -4.21942e-05 -2.57419e-05 0 0 -2.97678e-05 -4.69533e-05 -4.55751e-05 -2.74975e-05 0 0 -3.17517e-05 -4.9541e-05 -4.73546e-05 -2.84878e-05 0 0 -3.28854e-05 -5.08728e-05 -4.81342e-05 -2.82174e-05 0 0 -3.34989e-05 -5.13351e-05 -4.77575e-05 -2.77291e-05 0 0 -3.33534e-05 -5.09667e-05 -4.71152e-05 -2.71695e-05 0 0 -3.3057e-05 -5.04904e-05 -4.68772e-05 -2.71612e-05 0 0 -3.27644e-05 -5.04025e-05 -4.7082e-05 -2.74426e-05 0 0 -3.282e-05 -5.0809e-05 -4.80608e-05 -2.83501e-05 0 0 -3.34105e-05 -5.27265e-05 -5.12236e-05 -3.06553e-05 0 0 -3.48074e-05 -5.60906e-05 -5.55766e-05 -3.36901e-05 0 0 -3.67462e-05 -6.02745e-05 -6.12966e-05 -3.92722e-05 0 0 -4.09876e-05 -6.93164e-05 -7.26891e-05 -4.6855e-05 0 0 -4.79102e-05 -8.17845e-05 -8.63991e-05 -5.49965e-05 0 0 -5.46228e-05 -9.35032e-05 -9.94898e-05 -6.39451e-05 0 0 -6.1619e-05 -0.000106957 -0.000116915 -7.72629e-05 0 0 -7.26082e-05 -0.000127436 -0.000140407 -9.3142e-05 0 0 -8.71131e-05 -0.000151783 -0.00016509 -0.000108731 0 0 -0.000102264 -0.000176265 -0.000188658 -0.000123449 0 0 -0.000115948 -0.000199059 -0.00020983 -0.000137497 0 0 -0.000130173 -0.000218704 -0.000232298 -0.000150666 0 0 -0.000150224 -0.00024634 -0.000258683 -0.000161336 0 0 -0.000171367 -0.000285498 -0.000287571 -0.000168991 0 0 -0.000193282 -0.000330267 -0.000316409 -0.00017775 0 0 -0.000222194 -0.000371924 -0.000340703 -0.000180374 0 0 -0.000278646 -0.000413002 -0.000363757 -0.00018008 0 0 -0.000361176 -0.00049966 -0.000406018 -0.000177826 0 0 -0.000467058 -0.000670527 -0.000477833 -0.000164381 0 0 -0.000599875 -0.000892438 -0.000554007 -9.99336e-05 0 0 -0.000742277 -0.00112999 -0.000623057 7.49207e-05 0 0 -0.000791738 -0.00133884 -0.000689087 0.000200194 0 0 -0.00079207 -0.00136984 -0.000717041 0.000199927 0 0 -0.000772021 -0.00129488 -0.000670613 0.000150378 0 0 -0.000705748 -0.00101482 -0.000492553 -1.06035e-05 0 0 -0.000634767 -0.000744894 -0.000409845 -0.00016705 0 0 -0.000616645 -0.000759944 -0.000437712 -0.000161829 0 0 -0.000556641 -0.000697252 -0.000435854 -0.000222372 0 0 0.000100754 0.000246418 -0.000180938 -0.000555659 0 0 0.00110527 0.00165862 0.000564803 -0.000526647 0 0 0.0012953 0.0019041 0.00108817 -0.000172652 0 0 0.0012591 0.00184089 0.00111018 0.000295935 0 0 0.00109793 0.00158597 0.0010917 0.000415567 0 0 0.000887275 0.00127473 0.000990615 0.000414962 0 0 0.000701257 0.00100527 0.00084162 0.000410716 0 0 0.00055687 0.000800747 0.000713192 0.000398795 0 0 0.00045552 0.000662472 0.000617491 0.000368746 0 0 0.000384179 0.000576338 0.000553197 0.000337242 0 0 0.00033047 0.000522167 0.000510513 0.000310622 0 0 0.000290573 0.000480901 0.000477301 0.000289221 0 0 0.000261996 0.000436234 0.000438286 0.000269681 0 0 0.000237796 0.000389242 0.000393237 0.000244974 0 0 0.000212218 0.000342996 0.000345524 0.000215666 0 0 0.000185855 0.000297331 0.000296519 0.000184021 0 0 0.000159369 0.000252259 0.000248159 0.000152434 0 0 0.000134093 0.000210933 0.000205227 0.000124715 0 0 0.000111462 0.000175756 0.000170682 0.0001033 0 0 9.0958e-05 0.000144597 0.000141029 8.54359e-05 0 0 7.24897e-05 0.000115935 0.00011344 6.87209e-05 0 0 5.76187e-05 9.19998e-05 8.98812e-05 5.42904e-05 0 0 4.77297e-05 7.57481e-05 7.37175e-05 4.44164e-05 0 0 4.21434e-05 6.67744e-05 6.49946e-05 3.92429e-05 0 0 3.85649e-05 6.13613e-05 6.00385e-05 3.64305e-05 0 0 3.54659e-05 5.67066e-05 5.58014e-05 3.4009e-05 0 0 3.23157e-05 5.18118e-05 5.11782e-05 3.12921e-05 0 0 2.87617e-05 4.62174e-05 4.57924e-05 2.80744e-05 0 0 2.44994e-05 3.9437e-05 3.9167e-05 2.40629e-05 0 0 1.95083e-05 3.14444e-05 3.12862e-05 1.92524e-05 0 0 1.418e-05 2.28804e-05 2.27985e-05 1.40475e-05 0 0 9.1438e-06 1.4767e-05 1.47314e-05 9.08627e-06 0 0 5.10909e-06 8.25596e-06 8.24256e-06 5.08741e-06 0 0 2.45236e-06 3.96463e-06 3.96045e-06 2.4456e-06 0 0 1.02942e-06 1.66475e-06 1.66364e-06 1.02764e-06 0 0 3.94002e-07 6.37299e-07 6.37039e-07 3.93582e-07 0 0 1.43063e-07 2.31435e-07 2.31378e-07 1.42971e-07 0 0 5.0497e-08 8.16964e-08 8.16844e-08 5.04778e-08 0 0 1.75286e-08 2.83595e-08 2.83573e-08 1.75244e-08 0 0 6.0131e-09 9.72882e-09 9.72844e-09 6.01208e-09 0 0 2.04254e-09 3.30478e-09 3.30461e-09 2.04222e-09 0 0 6.87522e-10 1.11229e-09 1.11231e-09 6.87253e-10 0 0 2.29295e-10 3.70983e-10 3.70856e-10 2.2917e-10 0 0 7.57029e-11 1.22526e-10 1.22359e-10 7.55738e-11 0 0 2.46919e-11 3.9882e-11 3.99578e-11 2.44096e-11 0 0 7.8415e-12 1.27015e-11 1.27458e-11 7.63736e-12 0 0 2.39049e-12 3.72152e-12 3.90345e-12 2.20432e-12 0 0 5.54727e-13 8.60581e-13 1.02173e-12 4.5366e-13 0 0 -1.14174e-13 7.62019e-14 -6.42273e-14 7.90937e-14 0 0 -3.17582e-13 -1.9775e-13 -3.68468e-13 6.63921e-14 0 0 -3.41042e-13 -4.17549e-13 -1.71576e-13 -2.08254e-13 0 0 -2.36139e-13 -6.61963e-13 4.83867e-14 -3.8821e-13 0 0 -3.85459e-13 -5.471e-13 -7.17839e-15 -3.81569e-13 0 0 -4.62523e-13 -4.64859e-13 -2.23743e-14 -4.23052e-13 0 0 -3.13771e-13 -6.41696e-13 1.32424e-13 -4.74968e-13 0 0 -4.45992e-13 -4.30405e-13 -3.02694e-14 -3.47962e-13 0 0 -4.43215e-13 -3.9692e-13 -7.35848e-14 -3.2763e-13 0 0 -5.99e-13 -1.08116e-13 -4.10306e-13 -1.93514e-13 0 0 -6.66439e-13 5.56238e-14 -7.19336e-13 -7.22011e-14 0 0 -4.57804e-13 -2.43378e-13 -5.65609e-13 -1.43961e-13 0
				</DataArray>
				<DataArray Name="VitesseY" type="Float32" format="ascii">