<?xml version="1.0"?>
<VTKFile type="PolyData">
	<PolyData>
		<Piece NumberOfPoints="1206" NumberOfPolys="1000">
			<Points>
				<DataArray type="Float32" NumberOfComponents="3" format="ascii">
 0 0 0 0.02 0 0 0.04 0 0 0.06 0 0 0.08 0 0 0.1 0 0 0 0.005 0 0.02 0.005 0 0.04 0.005 0 0.06 0.005 0 0.08 0.005 0 0.1 0.005 0 0 0.01 0 0.02 0.01 0 0.04 0.01 0 0.06 0.01 0 0.08 0.01 0 0.1 0.01 0 0 0.015 0 0.02 0.015 0 0.04 0.015 0 0.06 0.015 0 0.08 0.015 0 0.1 0.015 0 0 0.02 0 0.02 0.02 0 0.04 0.02 0 0.06 0.02 0 0.08 0.02 0 0.1 0.02 0 0 0.025 0 0.02 0.025 0 0.04 0.025 0 0.06 0.025 0 0.08 0.025 0 0.1 0.025 0 0 0.03 0 0.02 0.03 0 0.04 0.03 0 0.06 0.03 0 0.08 0.03 0 0.1 0.03 0 0 0.035 0 0.02 0.035 0 0.04 0.035 0 0.06 0.035 0 0.08 0.035 0 0.1 0.035 0 0 0.04 0 0.02 0.04 0 0.04 0.04 0 0.06 0.04 0 0.08 0.04 0 0.1 0.04 0 0 0.045 0 0.02 0.045 0 0.04 0.045 0 0.06 0.045 0 0.08 0.045 0 0.1 0.045 0 0 0.05 0 0.02 0.05 0 0.04 0.05 0 0.06 0.05 0 0.08 0.05 0 0.1 0.05 0 0 0.055 0 0.02 0.055 0 0.04 0.055 0 0.06 0.055 0 0.08 0.055 0 0.1 0.055 0 0 0.06 0 0.02 0.06 0 0.04 0.06 0 0.06 0.06 0 0.08 0.06 0 0.1 0.06 0 0 0.065 0 0.02 0.065 0 0.04 0.065 0 0.06 0.065 0 0.08 0.065 0 0.1 0.065 0 0 0.07 0 0.02 0.07 0 0.04 0.07 0 0.06 0.07 0 0.08 0.07 0 0.1 0.07 0 0 0.075 0 0.02 0.075 0 0.04 0.075 0 0.06 0.075 0 0.08 0.075 0 0.1 0.075 0 0 0.08 0 0.02 0.08 0 0.04 0.08 0 0.06 0.08 0 0.08 0.08 0 0.1 0.08 0 0 0.085 0 0.02 0.085 0 0.04 0.085 0 0.06 0.085 0 0.08 0.085 0 0.1 0.085 0 0 0.09 0 0.02 0.09 0 0.04 0.09 0 0.06 0.09 0 0.08 0.09 0 0.1 0.09 0 0 0.095 0 0.02 0.095 0 0.04 0.095 0 0.06 0.095 0 0.08 0.095 0 0.1 0.095 0 0 0.1 0 0.02 0.1 0 0.04 0.1 0 0.06 0.1 0 0.08 0.1 0 0.1 0.1 0 0 0.105 0 0.02 0.105 0 0.04 0.105 0 0.06 0.105 0 0.08 0.105 0 0.1 0.105 0 0 0.11 0 0.02 0.11 0 0.04 0.11 0 0.06 0.11 0 0.08 0.11 0 0.1 0.11 0 0 0.115 0 0.02 0.115 0 0.04 0.115 0 0.06 0.115 0 0.08 0.115 0 0.1 0.115 0 0 0.12 0 0.02 0.12 0 0.04 0.12 0 0.06 0.12 0 0.08 0.12 0 0.1 0.12 0 0 0.125 0 0.02 0.125 0 0.04 0.125 0 0.06 0.125 0 0.08 0.125 0 0.1 0.125 0 0 0.13 0 0.02 0.13 0 0.04 0.13 0 0.06 0.13 0 0.08 0.13 0 0.1 0.13 0 0 0.135 0 0.02 0.135 0 0.04 0.135 0 0.06 0.135 0 0.08 0.135 0 0.1 0.135 0 0 0.14 0 0.02 0.14 0 0.04 0.14 0 0.06 0.14 0 0.08 0.14 0 0.1 0.14 0 0 0.145 0 0.02 0.145 0 0.04 0.145 0 0.06 0.145 0 0.08 0.145 0 0.1 0.145 0 0 0.15 0 0.02 0.15 0 0.04 0.15 0 0.06 0.15 0 0.08 0.15 0 0.1 0.15 0 0 0.155 0 0.02 0.155 0 0.04 0.155 0 0.06 0.155 0 0.08 0.155 0 0.1 0.155 0 0 0.16 0 0.02 0.16 0 0.04 0.16 0 0.06 0.16 0 0.08 0.16 0 0.1 0.16 0 0 0.165 0 0.02 0.165 0 0.04 0.165 0 0.06 0.165 0 0.08 0.165 0 0.1 0.165 0 0 0.17 0 0.02 0.17 0 0.04 0.17 0 0.06 0.17 0 0.08 0.17 0 0.1 0.17 0 0 0.175 0 0.02 0.175 0 0.04 0.175 0 0.06 0.175 0 0.08 0.175 0 0.1 0.175 0 0 0.18 0 0.02 0.18 0 0.04 0.18 0 0.06 0.18 0 0.08 0.18 0 0.1 0.18 0 0 0.185 0 0.02 0.185 0 0.04 0.185 0 0.06 0.185 0 0.08 0.185 0 0.1 0.185 0 0 0.19 0 0.02 0.19 0 0.04 0.19 0 0.06 0.19 0 0.08 0.19 0 0.1 0.19 0 0 0.195 0 0.02 0.195 0 0.04 0.195 0 0.06 0.195 0 0.08 0.195 0 0.1 0.195 0 0 0.2 0 0.02 0.2 0 0.04 0.2 0 0.06 0.2 0 0.08 0.2 0 0.1 0.2 0 0 0.205 0 0.02 0.205 0 0.04 0.205 0 0.06 0.205 0 0.08 0.205 0 0.1 0.205 0 0 0.21 0 0.02 0.21 0 0.04 0.21 0 0.06 0.21 0 0.08 0.21 0 0.1 0.21 0 0 0.215 0 0.02 0.215 0 0.04 0.215 0 0.06 0.215 0 0.08 0.215 0 0.1 0.215 0 0 0.22 0 0.02 0.22 0 0.04 0.22 0 0.06 0.22 0 0.08 0.22 0 0.1 0.22 0 0 0.225 0 0.02 0.225 0 0.04 0.225 0 0.06 0.225 0 0.08 0.225 0 0.1 0.225 0 0 0.23 0 0.02 0.23 0 0.04 0.23 0 0.06 0.23 0 0.08 0.23 0 0.1 0.23 0 0 0.235 0 0.02 0.235 0 0.04 0.235 0 0.06 0.235 0 0.08 0.235 0 0.1 0.235 0 0 0.24 0 0.02 0.24 0 0.04 0.24 0 0.06 0.24 0 0.08 0.24 0 0.1 0.24 0 0 0.245 0 0.02 0.245 0 0.04 0.245 0 0.06 0.245 0 0.08 0.245 0 0.1 0.245 0 0 0.25 0 0.02 0.25 0 0.04 0.25 0 0.06 0.25 0 0.08 0.25 0 0.1 0.25 0 0 0.255 0 0.02 0.255 0 0.04 0.255 0 0.06 0.255 0 0.08 0.255 0 0.1 0.255 0 0 0.26 0 0.02 0.26 0 0.04 0.26 0 0.06 0.26 0 0.08 0.26 0 0.1 0.26 0 0 0.265 0 0.02 0.265 0 0.04 0.265 0 0.06 0.265 0 0.08 0.265 0 0.1 0.265 0 0 0.27 0 0.02 0.27 0 0.04 0.27 0 0.06 0.27 0 0.08 0.27 0 0.1 0.27 0 0 0.275 0 0.02 0.275 0 0.04 0.275 0 0.06 0.275 0 0.08 0.275 0 0.1 0.275 0 0 0.28 0 0.02 0.28 0 0.04 0.28 0 0.06 0.28 0 0.08 0.28 0 0.1 0.28 0 0 0.285 0 0.02 0.285 0 0.04 0.285 0 0.06 0.285 0 0.08 0.285 0 0.1 0.285 0 0 0.29 0 0.02 0.29 0 0.04 0.29 0 0.06 0.29 0 0.08 0.29 0 0.1 0.29 0 0 0.295 0 0.02 0.295 0 0.04 0.295 0 0.06 0.295 0 0.08 0.295 0 0.1 0.295 0 0 0.3 0 0.02 0.3 0 0.04 0.3 0 0.06 0.3 0 0.08 0.3 0 0.1 0.3 0 0 0.305 0 0.02 0.305 0 0.04 0.305 0 0.06 0.305 0 0.08 0.305 0 0.1 0.305 0 0 0.31 0 0.02 0.31 0 0.04 0.31 0 0.06 0.31 0 0.08 0.31 0 0.1 0.31 0 0 0.315 0 0.02 0.315 0 0.04 0.315 0 0.06 0.315 0 0.08 0.315 0 0.1 0.315 0 0 0.32 0 0.02 0.32 0 0.04 0.32 0 0.06 0.32 0 0.08 0.32 0 0.1 0.32 0 0 0.325 0 0.02 0.325 0 0.04 0.325 0 0.06 0.325 0 0.08 0.325 0 0.1 0.325 0 0 0.33 0 0.02 0.33 0 0.04 0.33 0 0.06 0.33 0 0.08 0.33 0 0.1 0.33 0 0 0.335 0 0.02 0.335 0 0.04 0.335 0 0.06 0.335 0 0.08 0.335 0 0.1 0.335 0 0 0.34 0 0.02 0.34 0 0.04 0.34 0 0.06 0.34 0 0.08 0.34 0 0.1 0.34 0 0 0.345 0 0.02 0.345 0 0.04 0.345 0 0.06 0.345 0 0.08 0.345 0 0.1 0.345 0 0 0.35 0 0.02 0.35 0 0.04 0.35 0 0.06 0.35 0 0.08 0.35 0 0.1 0.35 0 0 0.355 0 0.02 0.355 0 0.04 0.355 0 0.06 0.355 0 0.08 0.355 0 0.1 0.355 0 0 0.36 0 0.02 0.36 0 0.04 0.36 0 0.06 0.36 0 0.08 0.36 0 0.1 0.36 0 0 0.365 0 0.02 0.365 0 0.04 0.365 0 0.06 0.365 0 0.08 0.365 0 0.1 0.365 0 0 0.37 0 0.02 0.37 0 0.04 0.37 0 0.06 0.37 0 0.08 0.37 0 0.1 0.37 0 0 0.375 0 0.02 0.375 0 0.04 0.375 0 0.06 0.375 0 0.08 0.375 0 0.1 0.375 0 0 0.38 0 0.02 0.38 0 0.04 0.38 0 0.06 0.38 0 0.08 0.38 0 0.1 0.38 0 0 0.385 0 0.02 0.385 0 0.04 0.385 0 0.06 0.385 0 0.08 0.385 0 0.1 0.385 0 0 0.39 0 0.02 0.39 0 0.04 0.39 0 0.06 0.39 0 0.08 0.39 0 0.1 0.39 0 0 0.395 0 0.02 0.395 0 0.04 0.395 0 0.06 0.395 0 0.08 0.395 0 0.1 0.395 0 0 0.4 0 0.02 0.4 0 0.04 0.4 0 0.06 0.4 0 0.08 0.4 0 0.1 0.4 0 0 0.405 0 0.02 0.405 0 0.04 0.405 0 0.06 0.405 0 0.08 0.405 0 0.1 0.405 0 0 0.41 0 0.02 0.41 0 0.04 0.41 0 0.06 0.41 0 0.08 0.41 0 0.1 0.41 0 0 0.415 0 0.02 0.415 0 0.04 0.415 0 0.06 0.415 0 0.08 0.415 0 0.1 0.415 0 0 0.42 0 0.02 0.42 0 0.04 0.42 0 0.06 0.42 0 0.08 0.42 0 0.1 0.42 0 0 0.425 0 0.02 0.425 0 0.04 0.425 0 0.06 0.425 0 0.08 0.425 0 0.1 0.425 0 0 0.43 0 0.02 0.43 0 0.04 0.43 0 0.06 0.43 0 0.08 0.43 0 0.1 0.43 0 0 0.435 0 0.02 0.435 0 0.04 0.435 0 0.06 0.435 0 0.08 0.435 0 0.1 0.435 0 0 0.44 0 0.02 0.44 0 0.04 0.44 0 0.06 0.44 0 0.08 0.44 0 0.1 0.44 0 0 0.445 0 0.02 0.445 0 0.04 0.445 0 0.06 0.445 0 0.08 0.445 0 0.1 0.445 0 0 0.45 0 0.02 0.45 0 0.04 0.45 0 0.06 0.45 0 0.08 0.45 0 0.1 0.45 0 0 0.455 0 0.02 0.455 0 0.04 0.455 0 0.06 0.455 0 0.08 0.455 0 0.1 0.455 0 0 0.46 0 0.02 0.46 0 0.04 0.46 0 0.06 0.46 0 0.08 0.46 0 0.1 0.46 0 0 0.465 0 0.02 0.465 0 0.04 0.465 0 0.06 0.465 0 0.08 0.465 0 0.1 0.465 0 0 0.47 0 0.02 0.47 0 0.04 0.47 0 0.06 0.47 0 0.08 0.47 0 0.1 0.47 0 0 0.475 0 0.02 0.475 0 0.04 0.475 0 0.06 0.475 0 0.08 0.475 0 0.1 0.475 0 0 0.48 0 0.02 0.48 0 0.04 0.48 0 0.06 0.48 0 0.08 0.48 0 0.1 0.48 0 0 0.485 0 0.02 0.485 0 0.04 0.485 0 0.06 0.485 0 0.08 0.485 0 0.1 0.485 0 0 0.49 0 0.02 0.49 0 0.04 0.49 0 0.06 0.49 0 0.08 0.49 0 0.1 0.49 0 0 0.495 0 0.02 0.495 0 0.04 0.495 0 0.06 0.495 0 0.08 0.495 0 0.1 0.495 0 0 0.5 0 0.02 0.5 0 0.04 0.5 0 0.06 0.5 0 0.08 0.5 0 0.1 0.5 0 0 0.505 0 0.02 0.505 0 0.04 0.505 0 0.06 0.505 0 0.08 0.505 0 0.1 0.505 0 0 0.51 0 0.02 0.51 0 0.04 0.51 0 0.06 0.51 0 0.08 0.51 0 0.1 0.51 0 0 0.515 0 0.02 0.515 0 0.04 0.515 0 0.06 0.515 0 0.08 0.515 0 0.1 0.515 0 0 0.52 0 0.02 0.52 0 0.04 0.52 0 0.06 0.52 0 0.08 0.52 0 0.1 0.52 0 0 0.525 0 0.02 0.525 0 0.04 0.525 0 0.06 0.525 0 0.08 0.525 0 0.1 0.525 0 0 0.53 0 0.02 0.53 0 0.04 0.53 0 0.06 0.53 0 0.08 0.53 0 0.1 0.53 0 0 0.535 0 0.02 0.535 0 0.04 0.535 0 0.06 0.535 0 0.08 0.535 0 0.1 0.535 0 0 0.54 0 0.02 0.54 0 0.04 0.54 0 0.06 0.54 0 0.08 0.54 0 0.1 0.54 0 0 0.545 0 0.02 0.545 0 0.04 0.545 0 0.06 0.545 0 0.08 0.545 0 0.1 0.545 0 0 0.55 0 0.02 0.55 0 0.04 0.55 0 0.06 0.55 0 0.08 0.55 0 0.1 0.55 0 0 0.555 0 0.02 0.555 0 0.04 0.555 0 0.06 0.555 0 0.08 0.555 0 0.1 0.555 0 0 0.56 0 0.02 0.56 0 0.04 0.56 0 0.06 0.56 0 0.08 0.56 0 0.1 0.56 0 0 0.565 0 0.02 0.565 0 0.04 0.565 0 0.06 0.565 0 0.08 0.565 0 0.1 0.565 0 0 0.57 0 0.02 0.57 0 0.04 0.57 0 0.06 0.57 0 0.08 0.57 0 0.1 0.57 0 0 0.575 0 0.02 0.575 0 0.04 0.575 0 0.06 0.575 0 0.08 0.575 0 0.1 0.575 0 0 0.58 0 0.02 0.58 0 0.04 0.58 0 0.06 0.58 0 0.08 0.58 0 0.1 0.58 0 0 0.585 0 0.02 0.585 0 0.04 0.585 0 0.06 0.585 0 0.08 0.585 0 0.1 0.585 0 0 0.59 0 0.02 0.59 0 0.04 0.59 0 0.06 0.59 0 0.08 0.59 0 0.1 0.59 0 0 0.595 0 0.02 0.595 0 0.04 0.595 0 0.06 0.595 0 0.08 0.595 0 0.1 0.595 0 0 0.6 0 0.02 0.6 0 0.04 0.6 0 0.06 0.6 0 0.08 0.6 0 0.1 0.6 0 0 0.605 0 0.02 0.605 0 0.04 0.605 0 0.06 0.605 0 0.08 0.605 0 0.1 0.605 0 0 0.61 0 0.02 0.61 0 0.04 0.61 0 0.06 0.61 0 0.08 0.61 0 0.1 0.61 0 0 0.615 0 0.02 0.615 0 0.04 0.615 0 0.06 0.615 0 0.08 0.615 0 0.1 0.615 0 0 0.62 0 0.02 0.62 0 0.04 0.62 0 0.06 0.62 0 0.08 0.62 0 0.1 0.62 0 0 0.625 0 0.02 0.625 0 0.04 0.625 0 0.06 0.625 0 0.08 0.625 0 0.1 0.625 0 0 0.63 0 0.02 0.63 0 0.04 0.63 0 0.06 0.63 0 0.08 0.63 0 0.1 0.63 0 0 0.635 0 0.02 0.635 0 0.04 0.635 0 0.06 0.635 0 0.08 0.635 0 0.1 0.635 0 0 0.64 0 0.02 0.64 0 0.04 0.64 0 0.06 0.64 0 0.08 0.64 0 0.1 0.64 0 0 0.645 0 0.02 0.645 0 0.04 0.645 0 0.06 0.645 0 0.08 0.645 0 0.1 0.645 0 0 0.65 0 0.02 0.65 0 0.04 0.65 0 0.06 0.65 0 0.08 0.65 0 0.1 0.65 0 0 0.655 0 0.02 0.655 0 0.04 0.655 0 0.06 0.655 0 0.08 0.655 0 0.1 0.655 0 0 0.66 0 0.02 0.66 0 0.04 0.66 0 0.06 0.66 0 0.08 0.66 0 0.1 0.66 0 0 0.665 0 0.02 0.665 0 0.04 0.665 0 0.06 0.665 0 0.08 0.665 0 0.1 0.665 0 0 0.67 0 0.02 0.67 0 0.04 0.67 0 0.06 0.67 0 0.08 0.67 0 0.1 0.67 0 0 0.675 0 0.02 0.675 0 0.04 0.675 0 0.06 0.675 0 0.08 0.675 0 0.1 0.675 0 0 0.68 0 0.02 0.68 0 0.04 0.68 0 0.06 0.68 0 0.08 0.68 0 0.1 0.68 0 0 0.685 0 0.02 0.685 0 0.04 0.685 0 0.06 0.685 0 0.08 0.685 0 0.1 0.685 0 0 0.69 0 0.02 0.69 0 0.04 0.69 0 0.06 0.69 0 0.08 0.69 0 0.1 
[...]
			<PointData Scalars="VitesseX">
				<DataArray Name="VitesseX" type="Float32" format="ascii">
 0 2.91782e-15 -1.15159e-14 1.49238e-14 -2.84567e-14 0 0 6.24556e-15 -1.46473e-14 1.61221e-14 -2.45895e-14 0 0 1.22698e-15 1.24226e-15 -7.15401e-15 4.32879e-15 0 0 2.09694e-14 -2.17037e-14 1.48962e-14 6.08787e-15 0 0 1.82808e-14 -1.08307e-14 1.85441e-14 9.27064e-15 0 0 -1.36822e-14 3.98801e-14 -6.43309e-15 2.53112e-14 0 0 -7.17864e-15 2.00261e-14 4.31711e-14 -6.15472e-15 0 0 1.44312e-14 -1.12804e-14 8.84502e-14 -3.54966e-14 0 0 8.74637e-15 9.86388e-15 7.70742e-14 -3.11898e-14 0 0 8.95371e-15 4.14351e-14 2.88119e-14 3.78391e-15 0 0 5.64723e-14 2.72725e-15 3.91571e-14 9.74354e-16 0 0 3.79966e-14 4.13478e-14 -1.68897e-14 3.6241e-14 0 0 7.09469e-14 -2.88553e-14 3.80076e-14 2.07899e-15 0 0 7.21324e-14 -3.10867e-14 2.20493e-14 8.66104e-15 0 0 3.91067e-14 2.22462e-14 -3.81953e-14 3.90083e-14 0 0 8.55638e-14 -8.55284e-14 9.81744e-14 -4.66925e-14 0 0 1.36947e-14 2.88388e-14 -6.95645e-16 2.96775e-14 0 0 2.11603e-14 4.09573e-14 1.92732e-15 2.04087e-14 0 0 5.07128e-14 5.07812e-15 6.69171e-14 -3.49566e-14 0 0 2.79418e-14 5.03149e-14 1.51647e-14 -2.15777e-15 0 0 7.80857e-14 -5.46381e-14 8.96547e-14 -4.3281e-14 0 0 7.14483e-14 -8.1022e-14 8.71387e-14 -3.07005e-14 0 0 -1.35812e-14 4.01263e-14 -5.31046e-14 5.53009e-14 0 0 -7.28538e-14 1.33253e-13 -1.53366e-13 1.14678e-13 0 0 4.7874e-14 -3.59458e-14 -2.44412e-15 5.02588e-14 0 0 1.60243e-13 -2.13617e-13 1.94284e-13 -4.30013e-14 0 0 4.29862e-14 -6.81259e-14 1.09918e-13 1.97566e-14 0 0 -2.12642e-14 8.77383e-16 5.74631e-14 8.59425e-14 0 0 -2.84529e-15 -9.48568e-15 4.73743e-14 1.20293e-13 0 0 1.07009e-14 8.15017e-15 2.90287e-14 1.15064e-13 0 0 9.54774e-16 6.0131e-14 -1.07698e-14 1.0577e-13 0 0 3.63902e-14 2.28091e-14 3.60741e-14 3.09439e-14 0 0 4.63823e-14 1.51784e-14 3.17678e-14 -1.80615e-14 0 0 -3.58299e-14 1.07858e-13 -6.89492e-14 1.25187e-14 0 0 3.83035e-14 -1.95628e-14 2.30709e-14 -3.35936e-14 0 0 8.6313e-14 -5.70911e-14 1.70252e-14 7.91922e-15 0 0 6.32077e-14 -2.7541e-14 -1.10876e-15 3.24585e-14 0 0 -2.08106e-15 1.08781e-13 -1.58224e-13 1.26218e-13 0 0 8.80605e-14 -1.50494e-14 -4.46851e-14 5.19617e-14 0 0 1.63205e-13 -1.31743e-13 7.88227e-14 -8.32831e-15 0 0 2.87357e-14 3.07146e-14 -5.28187e-14 7.27205e-14 0 0 -1.96247e-14 -1.14353e-14 9.49813e-14 -7.35779e-14 0 0 -9.95357e-14 1.08086e-13 7.4658e-14 -1.4001e-13 0 0 -5.61307e-14 1.35647e-13 6.27826e-15 -7.96573e-14 0 0 1.14773e-13 -6.53097e-14 1.22476e-13 -5.244e-14 0 0 6.51027e-14 7.52194e-14 -7.6831e-14 1.17136e-13 0 0 1.0307e-13 7.76594e-14 -1.25891e-13 1.16526e-13 0 0 8.24791e-14 1.09415e-13 -1.50759e-13 1.09616e-13 0 0 2.86281e-14 1.61946e-13 -1.49982e-13 7.10862e-14 0 0 9.91825e-14 5.01574e-14 -2.2047e-15 -9.20518e-14 0 0 2.09911e-13 -7.26558e-14 7.79655e-14 -1.43688e-13 0 0 2.94933e-13 -1.71061e-13 1.29416e-13 -1.52143e-13 0 0 -9.7023e-14 4.41177e-13 -5.47202e-13 3.19288e-13 0 0 3.65182e-14 1.67195e-13 -3.06671e-13 2.45043e-13 0 0 3.86625e-13 -3.58432e-13 2.20625e-13 -1.08359e-13 0 0 1.62817e-13 5.96251e-14 -1.76099e-13 4.62937e-14 0 0 2.31279e-13 -1.19085e-13 4.02522e-14 -1.11005e-13 0 0 1.73056e-13 4.73626e-15 -1.43366e-13 1.58893e-14 0 0 1.0301e-13 1.95993e-13 -3.84811e-13 1.08266e-13 0 0 2.5945e-13 -8.72391e-14 -1.29375e-13 -1.0539e-13 0 0 1.92991e-13 -7.18376e-14 -1.09669e-13 -1.42399e-13 0 0 -5.98738e-15 6.29698e-14 -3.10158e-14 -2.41728e-13 0 0 -8.26394e-14 8.58336e-14 -1.53109e-15 -1.91825e-13 0 0 8.92575e-14 -1.77096e-13 1.94381e-13 -2.04663e-13 0 0 2.44838e-14 -6.07222e-14 1.14357e-13 -1.57499e-13 0 0 -1.11947e-13 1.96107e-13 -1.11607e-13 -3.84757e-14 0 0 1.62772e-14 1.9445e-14 4.58336e-14 -8.39918e-14 0 0 3.24995e-14 6.76394e-14 -6.26631e-14 5.11264e-14 0 0 2.05248e-13 -1.37077e-13 8.19308e-14 -3.34844e-14 0 0 2.59224e-13 -1.66788e-13 1.04917e-13 -1.2462e-13 0 0 -3.21908e-15 2.98844e-13 -3.13121e-13 2.44326e-14 0 0 1.86256e-13 4.98331e-14 -5.60087e-14 -1.77487e-13 0 0 3.76055e-13 -1.6587e-13 1.20068e-13 -2.39605e-13 0 0 4.50472e-13 -2.70227e-13 1.9911e-13 -1.92794e-13 0 0 1.96092e-13 7.0855e-14 -8.8569e-14 2.19692e-14 0 0 9.31433e-14 3.03598e-13 -2.2962e-13 9.65185e-14 0 0 5.91736e-13 -2.53281e-13 3.02821e-13 -1.91095e-13 0 0 5.17976e-13 -2.22299e-15 1.05388e-13 -1.18242e-13 0 0 4.11499e-13 5.87455e-14 2.90878e-13 -3.91515e-13 0 0 2.07e-13 3.71157e-13 -3.8222e-14 -9.26466e-14 0 0 4.09085e-13 7.91395e-14 8.12622e-14 9.27473e-14 0 0 6.3042e-13 -4.70026e-13 6.90923e-13 -8.56475e-14 0 0 -8.25053e-14 5.90092e-13 -2.84664e-13 6.25897e-13 0 0 2.40084e-13 7.76206e-14 1.96068e-13 3.05226e-13 0 0 8.04702e-13 -9.1517e-13 1.16914e-12 -3.45103e-13 0 0 -9.04229e-14 2.42066e-13 4.78061e-14 4.00251e-13 0 0 -8.85001e-13 7.90533e-13 -2.13444e-13 6.03957e-13 0 0 -2.82499e-13 -5.50943e-14 5.85977e-13 1.96455e-13 0 0 4.41327e-13 -3.08263e-13 1.09415e-13 7.83319e-13 0 0 5.51365e-13 -4.63457e-13 3.69501e-13 4.02667e-13 0 0 -5.5466e-15 1.26478e-13 3.72105e-13 -1.20947e-13 0 0 -7.81604e-13 1.0178e-12 -2.0969e-13 1.43725e-13 0 0 -5.41778e-13 5.87587e-13 9.92959e-14 -1.22735e-14 0 0 -2.93504e-16 9.67281e-15 3.71628e-13 3.35773e-14 0 0 4.31173e-13 -1.46215e-13 6.36566e-13 3.85052e-13 0 0 3.19852e-12 4.51325e-12 6.01882e-12 3.98868e-12 0 0 4.5899e-11 8.60422e-11 1.02308e-10 7.08023e-11 0 0 5.38238e-10 1.11458e-09 1.42202e-09 1.03565e-09 0 0 3.95568e-09 9.81384e-09 1.42235e-08 1.11062e-08 0 0 1.51704e-08 5.21282e-08 9.06606e-08 7.95386e-08 0 0 -6.881e-08 5.16431e-08 3.38412e-07 3.55173e-07 0 0 -7.10906e-07 -1.1784e-06 -7.20252e-07 8.0471e-08 0 0 -2.69676e-06 -7.32982e-06 -9.35871e-06 -5.70477e-06 0 0 -6.43626e-06 -2.33229e-05 -3.9362e-05 -2.98269e-05 0 0 -1.46549e-06 -6.14886e-05 -0.000113696 -9.83077e-05 0 0 -8.4486e-06 -8.37333e-05 -0.000287417 -0.000309388 0 0 -3.74761e-05 -0.000116196 -0.000351375 -0.000408816 0 0 -7.66419e-05 -0.000149665 -0.000333787 -0.000358171 0 0 -7.70639e-05 -0.000131681 -0.000260569 -0.0002593 0 0 -6.22847e-05 -4.87452e-05 -0.000122231 -0.000182237 0 0 -1.58351e-05 9.05808e-05 1.60884e-05 -0.000126894 0 0 5.28379e-05 0.000237447 0.000137652 -8.42437e-05 0 0 0.000134897 0.000321658 0.000328835 6.55179e-05 0 0 0.000151621 0.000288466 0.00047474 0.000451664 0 0 9.07366e-05 0.000148486 0.000402237 0.000478204 0 0 3.15675e-05 8.49332e-05 0.000244134 0.000296562 0 0 1.71172e-05 6.05677e-05 0.000132497 0.000134175 0 0 1.20346e-05 4.21509e-05 7.42558e-05 6.83809e-05 0 0 8.81617e-06 2.61678e-05 4.23627e-05 3.57504e-05 0 0 5.82457e-06 1.46679e-05 2.2064e-05 1.74758e-05 0 0 3.26315e-06 7.34546e-06 1.00758e-05 7.64316e-06 0 0 1.50652e-06 3.09265e-06 3.92303e-06 2.86515e-06 0 0 5.45677e-07 1.03774e-06 1.23282e-06 8.59797e-07 0 0 1.4994e-07 2.6833e-07 2.99948e-07 2.011e-07 0 0 3.04701e-08 5.22874e-08 5.59634e-08 3.6418e-08 0 0 4.92045e-09 8.25152e-09 8.6096e-09 5.49987e-09 0 0 6.85306e-10 1.13376e-09 1.16441e-09 7.35147e-10 0 0 8.65295e-11 1.41281e-10 1.44079e-10 8.99798e-11 0 0 1.02133e-11 1.65188e-11 1.63693e-11 1.0547e-11 0 0 1.28481e-12 1.89172e-12 1.48787e-12 1.41175e-12 0 0 2.75429e-13 2.83399e-13 -7.38182e-14 3.18045e-13 0 0 6.64948e-14 2.47921e-13 -3.22293e-13 1.52397e-13 0 0 2.3793e-13 -9.95704e-14 -1.37514e-14 -6.36556e-14 0 0 9.07189e-14 9.41503e-14 -2.79664e-13 1.90547e-13 0 0 1.56228e-13 -8.49293e-14 -1.4961e-13 1.49709e-13 0 0 1.19339e-13 -1.28075e-13 -4.87335e-14 9.82566e-14 0 0 1.51114e-15 -2.19325e-15 -1.29291e-13 1.87188e-13 0 0 2.30831e-13 -3.99555e-13 3.06374e-13 -1.26612e-13 0 0 -4.78534e-14 5.58392e-14 -2.61614e-14 -4.66986e-14 0 0 -1.54355e-13 2.1646e-13 -9.59961e-14 3.13219e-14 0 0 1.1192e-14 -1.05614e-13 2.80871e-13 -7.00515e-14 0 0 -2.10852e-13 2.66901e-13 -4.33181e-14 1.43766e-13 0 0 6.10087e-14 -1.06671e-13 2.76165e-13 3.97399e-14 0 0 1.81733e-13 -3.24455e-13 3.88126e-13 1.95557e-13 0 0 -1.51707e-13 1.42754e-13 -7.96039e-14 6.41237e-13 0 0 1.09985e-13 -2.93297e-13 5.36705e-13 1.61778e-13 0 0 -1.65125e-13 2.37118e-13 2.23846e-13 2.18071e-13 0 0 -6.60519e-14 2.82747e-13 3.10269e-13 6.08726e-14 0 0 2.07298e-13 -2.64556e-14 7.04113e-13 -2.83981e-13 0 0 -2.9024e-14 3.95803e-13 2.42671e-13 -9.48847e-15 0 0 3.08979e-13 -1.76211e-13 6.7201e-13 -2.71297e-13 0 0 -5.09109e-14 1.80046e-13 3.09273e-13 -1.761e-13 0 0 -8.39462e-14 1.82147e-13 2.30209e-13 -3.03732e-13 0 0 6.25681e-14 1.49673e-13 9.93964e-16 1.31359e-14 0 0 7.5689e-14 7.5863e-14 -2.19175e-14 2.31749e-13 0 0 -2.27783e-15 -1.45338e-13 2.86623e-13 -9.99912e-15 0 0 -2.90447e-13 1.25066e-13 1.05091e-13 -3.59301e-14 0 0 1.28576e-13 -3.47904e-13 4.20565e-13 -4.17921e-13 0 0 2.62083e-13 -3.85392e-13 1.4859e-13 -3.04979e-13 0 0 2.38173e-13 -5.10945e-13 2.4028e-13 -2.73943e-13 0 0 -6.67118e-14 -2.15737e-13 1.55019e-13 -3.0027e-13 0 0 -4.14257e-13 1.73619e-13 -2.20434e-14 -3.18484e-13 0 0 -3.12534e-13 -9.05301e-14 2.30601e-13 -3.22818e-13 0 0 -2.90147e-13 -8.62828e-14 -4.98836e-14 2.31334e-13 0 0 -1.16425e-13 -3.29726e-13 -8.39675e-14 7.12133e-13 0 0 1.32453e-13 -6.80232e-13 8.59201e-14 8.50037e-13 0 0 8.00248e-14 -5.72407e-13 8.74196e-14 6.6688e-13 0 0 -2.19959e-13 -1.80682e-13 7.78711e-14 3.56995e-13 0 0 -6.90888e-13 5.24998e-13 -4.93244e-13 5.55655e-13 0 0 -4.4286e-13 1.42601e-13 -3.65934e-13 5.50952e-13 0 0 4.33856e-15 -5.75027e-13 4.46461e-14 4.71209e-13 0 0 -4.66694e-14 -3.90325e-13 -1.72925e-13 5.19976e-13 0 0 1.04185e-13 -5.16553e-13 1.98507e-14 1.79573e-13 0 0 -1.62868e-13 -1.58629e-13 -2.16057e-13 1.31531e-13 0 0 -3.54586e-13 -5.09218e-14 -3.02983e-14 -1.81399e-13 0 0 -2.59474e-13 -2.33344e-13 1.62722e-13 -3.81772e-13 0 0 -1.36995e-13 -2.1939e-13 -1.30808e-13 -1.65846e-13 0 0 2.23264e-13 -6.46874e-13 2.64781e-13 -3.91256e-13 0 0 -1.71154e-13 -1.16068e-13 6.0833e-15 -3.31913e-13 0 0 -5.29676e-13 2.52925e-13 -2.55442e-13 -9.37393e-14 0 0 -2.53468e-13 -1.84868e-13 1.07269e-13 -2.20894e-13 0 0 -2.07998e-13 2.39339e-14 -2.46877e-13 -1.12941e-13 0 0 6.84363e-14 -2.15366e-13 -1.15628e-13 -2.23117e-13 0 0 -1.98944e-13 6.67536e-14 -2.5467e-13 -1.71868e-13 0 0 -4.14662e-13 2.18517e-13 -2.95665e-13 -1.68171e-13 0 0 -8.18673e-14 -3.43415e-13 3.29051e-13 -5.75679e-13 0 0 -1.63929e-13 -2.26596e-13 2.39684e-13 -5.34019e-13 0 0 1.91711e-14 -5.32487e-13 5.38982e-13 -7.29371e-13 0 0 -3.55525e-13 8.46216e-14 -2.01671e-13 -2.16094e-13 0 0 -3.06115e-13 1.03305e-13 -3.7331e-13 4.01462e-14 0 0 1.47641e-13 -4.53304e-13 3.19405e-13 -5.18095e-13 0 0 -5.31178e-13 7.65385e-13 -8.58222e-13 1.74501e-13 0 0 6.51189e-15 7.98794e-15 -3.28139e-13 5.78466e-14 0 0 4.10097e-13 -6.9204e-13 4.18018e-13 -3.89989e-13 0 0 -1.3837e-13 1.28286e-14 -4.11049e-14 -1.16325e-13 0 0 1.82588e-13 -5.25179e-13 6.31771e-13 -5.21759e-13 0 0 -1.76697e-13 5.92559e-14 2.22831e-13 -5.14124e-13 0 0 1.25505e-13 -3.73234e-13 7.80609e-13 -1.22005e-12 0 0 1.76752e-13 -3.17518e-13 7.3631e-13 -1.42202e-12 0 0 -1.88188e-13 4.4337e-13 -3.30361e-13 -6.39593e-13 0 0 2.72193e-13 -1.73111e-13 1.52637e-15 -6.62966e-13 0
				</DataArray>
				<DataArray Name="VitesseY" type="Float32" format="ascii">