<?xml version="1.0"?>
<VTKFile type="PolyData">
	<PolyData>
		<Piece NumberOfPoints="1206" NumberOfPolys="1000">
			<Points>
				<DataArray type="Float32" NumberOfComponents="3" format="ascii">
 0 0 0 0.02 0 0 0.04 0 0 0.06 0 0 0.08 0 0 0.1 0 0 0 0.005 0 0.02 0.005 0 0.04 0.005 0 0.06 0.005 0 0.08 0.005 0 0.1 0.005 0 0 0.01 0 0.02 0.01 0 0.04 0.01 0 0.06 0.01 0 0.08 0.01 0 0.1 0.01 0 0 0.015 0 0.02 0.015 0 0.04 0.015 0 0.06 0.015 0 0.08 0.015 0 0.1 0.015 0 0 0.02 0 0.02 0.02 0 0.04 0.02 0 0.06 0.02 0 0.08 0.02 0 0.1 0.02 0 0 0.025 0 0.02 0.025 0 0.04 0.025 0 0.06 0.025 0 0.08 0.025 0 0.1 0.025 0 0 0.03 0 0.02 0.03 0 0.04 0.03 0 0.06 0.03 0 0.08 0.03 0 0.1 0.03 0 0 0.035 0 0.02 0.035 0 0.04 0.035 0 0.06 0.035 0 0.08 0.035 0 0.1 0.035 0 0 0.04 0 0.02 0.04 0 0.04 0.04 0 0.06 0.04 0 0.08 0.04 0 0.1 0.04 0 0 0.045 0 0.02 0.045 0 0.04 0.045 0 0.06 0.045 0 0.08 0.045 0 0.1 0.045 0 0 0.05 0 0.02 0.05 0 0.04 0.05 0 0.06 0.05 0 0.08 0.05 0 0.1 0.05 0 0 0.055 0 0.02 0.055 0 0.04 0.055 0 0.06 0.055 0 0.08 0.055 0 0.1 0.055 0 0 0.06 0 0.02 0.06 0 0.04 0.06 0 0.06 0.06 0 0.08 0.06 0 0.1 0.06 0 0 0.065 0 0.02 0.065 0 0.04 0.065 0 0.06 0.065 0 0.08 0.065 0 0.1 0.065 0 0 0.07 0 0.02 0.07 0 0.04 0.07 0 0.06 0.07 0 0.08 0.07 0 0.1 0.07 0 0 0.075 0 0.02 0.075 0 0.04 0.075 0 0.06 0.075 0 0.08 0.075 0 0.1 0.075 0 0 0.08 0 0.02 0.08 0 0.04 0.08 0 0.06 0.08 0 0.08 0.08 0 0.1 0.08 0 0 0.085 0 0.02 0.085 0 0.04 0.085 0 0.06 0.085 0 0.08 0.085 0 0.1 0.085 0 0 0.09 0 0.02 0.09 0 0.04 0.09 0 0.06 0.09 0 0.08 0.09 0 0.1 0.09 0 0 0.095 0 0.02 0.095 0 0.04 0.095 0 0.06 0.095 0 0.08 0.095 0 0.1 0.095 0 0 0.1 0 0.02 0.1 0 0.04 0.1 0 0.06 0.1 0 0.08 0.1 0 0.1 0.1 0 0 0.105 0 0.02 0.105 0 0.04 0.105 0 0.06 0.105 0 0.08 0.105 0 0.1 0.105 0 0 0.11 0 0.02 0.11 0 0.04 0.11 0 0.06 0.11 0 0.08 0.11 0 0.1 0.11 0 0 0.115 0 0.02 0.115 0 0.04 0.115 0 0.06 0.115 0 0.08 0.115 0 0.1 0.115 0 0 0.12 0 0.02 0.12 0 0.04 0.12 0 0.06 0.12 0 0.08 0.12 0 0.1 0.12 0 0 0.125 0 0.02 0.125 0 0.04 0.125 0 0.06 0.125 0 0.08 0.125 0 0.1 0.125 0 0 0.13 0 0.02 0.13 0 0.04 0.13 0 0.06 0.13 0 0.08 0.13 0 0.1 0.13 0 0 0.135 0 0.02 0.135 0 0.04 0.135 0 0.06 0.135 0 0.08 0.135 0 0.1 0.135 0 0 0.14 0 0.02 0.14 0 0.04 0.14 0 0.06 0.14 0 0.08 0.14 0 0.1 0.14 0 0 0.145 0 0.02 0.145 0 0.04 0.145 0 0.06 0.145 0 0.08 0.145 0 0.1 0.145 0 0 0.15 0 0.02 0.15 0 0.04 0.15 0 0.06 0.15 0 0.08 0.15 0 0.1 0.15 0 0 0.155 0 0.02 0.155 0 0.04 0.155 0 0.06 0.155 0 0.08 0.155 0 0.1 0.155 0 0 0.16 0 0.02 0.16 0 0.04 0.16 0 0.06 0.16 0 0.08 0.16 0 0.1 0.16 0 0 0.165 0 0.02 0.165 0 0.04 0.165 0 0.06 0.165 0 0.08 0.165 0 0.1 0.165 0 0 0.17 0 0.02 0.17 0 0.04 0.17 0 0.06 0.17 0 0.08 0.17 0 0.1 0.17 0 0 0.175 0 0.02 0.175 0 0.04 0.175 0 0.06 0.175 0 0.08 0.175 0 0.1 0.175 0 0 0.18 0 0.02 0.18 0 0.04 0.18 0 0.06 0.18 0 0.08 0.18 0 0.1 0.18 0 0 0.185 0 0.02 0.185 0 0.04 0.185 0 0.06 0.185 0 0.08 0.185 0 0.1 0.185 0 0 0.19 0 0.02 0.19 0 0.04 0.19 0 0.06 0.19 0 0.08 0.19 0 0.1 0.19 0 0 0.195 0 0.02 0.195 0 0.04 0.195 0 0.06 0.195 0 0.08 0.195 0 0.1 0.195 0 0 0.2 0 0.02 0.2 0 0.04 0.2 0 0.06 0.2 0 0.08 0.2 0 0.1 0.2 0 0 0.205 0 0.02 0.205 0 0.04 0.205 0 0.06 0.205 0 0.08 0.205 0 0.1 0.205 0 0 0.21 0 0.02 0.21 0 0.04 0.21 0 0.06 0.21 0 0.08 0.21 0 0.1 0.21 0 0 0.215 0 0.02 0.215 0 0.04 0.215 0 0.06 0.215 0 0.08 0.215 0 0.1 0.215 0 0 0.22 0 0.02 0.22 0 0.04 0.22 0 0.06 0.22 0 0.08 0.22 0 0.1 0.22 0 0 0.225 0 0.02 0.225 0 0.04 0.225 0 0.06 0.225 0 0.08 0.225 0 0.1 0.225 0 0 0.23 0 0.02 0.23 0 0.04 0.23 0 0.06 0.23 0 0.08 0.23 0 0.1 0.23 0 0 0.235 0 0.02 0.235 0 0.04 0.235 0 0.06 0.235 0 0.08 0.235 0 0.1 0.235 0 0 0.24 0 0.02 0.24 0 0.04 0.24 0 0.06 0.24 0 0.08 0.24 0 0.1 0.24 0 0 0.245 0 0.02 0.245 0 0.04 0.245 0 0.06 0.245 0 0.08 0.245 0 0.1 0.245 0 0 0.25 0 0.02 0.25 0 0.04 0.25 0 0.06 0.25 0 0.08 0.25 0 0.1 0.25 0 0 0.255 0 0.02 0.255 0 0.04 0.255 0 0.06 0.255 0 0.08 0.255 0 0.1 0.255 0 0 0.26 0 0.02 0.26 0 0.04 0.26 0 0.06 0.26 0 0.08 0.26 0 0.1 0.26 0 0 0.265 0 0.02 0.265 0 0.04 0.265 0 0.06 0.265 0 0.08 0.265 0 0.1 0.265 0 0 0.27 0 0.02 0.27 0 0.04 0.27 0 0.06 0.27 0 0.08 0.27 0 0.1 0.27 0 0 0.275 0 0.02 0.275 0 0.04 0.275 0 0.06 0.275 0 0.08 0.275 0 0.1 0.275 0 0 0.28 0 0.02 0.28 0 0.04 0.28 0 0.06 0.28 0 0.08 0.28 0 0.1 0.28 0 0 0.285 0 0.02 0.285 0 0.04 0.285 0 0.06 0.285 0 0.08 0.285 0 0.1 0.285 0 0 0.29 0 0.02 0.29 0 0.04 0.29 0 0.06 0.29 0 0.08 0.29 0 0.1 0.29 0 0 0.295 0 0.02 0.295 0 0.04 0.295 0 0.06 0.295 0 0.08 0.295 0 0.1 0.295 0 0 0.3 0 0.02 0.3 0 0.04 0.3 0 0.06 0.3 0 0.08 0.3 0 0.1 0.3 0 0 0.305 0 0.02 0.305 0 0.04 0.305 0 0.06 0.305 0 0.08 0.305 0 0.1 0.305 0 0 0.31 0 0.02 0.31 0 0.04 0.31 0 0.06 0.31 0 0.08 0.31 0 0.1 0.31 0 0 0.315 0 0.02 0.315 0 0.04 0.315 0 0.06 0.315 0 0.08 0.315 0 0.1 0.315 0 0 0.32 0 0.02 0.32 0 0.04 0.32 0 0.06 0.32 0 0.08 0.32 0 0.1 0.32 0 0 0.325 0 0.02 0.325 0 0.04 0.325 0 0.06 0.325 0 0.08 0.325 0 0.1 0.325 0 0 0.33 0 0.02 0.33 0 0.04 0.33 0 0.06 0.33 0 0.08 0.33 0 0.1 0.33 0 0 0.335 0 0.02 0.335 0 0.04 0.335 0 0.06 0.335 0 0.08 0.335 0 0.1 0.335 0 0 0.34 0 0.02 0.34 0 0.04 0.34 0 0.06 0.34 0 0.08 0.34 0 0.1 0.34 0 0 0.345 0 0.02 0.345 0 0.04 0.345 0 0.06 0.345 0 0.08 0.345 0 0.1 0.345 0 0 0.35 0 0.02 0.35 0 0.04 0.35 0 0.06 0.35 0 0.08 0.35 0 0.1 0.35 0 0 0.355 0 0.02 0.355 0 0.04 0.355 0 0.06 0.355 0 0.08 0.355 0 0.1 0.355 0 0 0.36 0 0.02 0.36 0 0.04 0.36 0 0.06 0.36 0 0.08 0.36 0 0.1 0.36 0 0 0.365 0 0.02 0.365 0 0.04 0.365 0 0.06 0.365 0 0.08 0.365 0 0.1 0.365 0 0 0.37 0 0.02 0.37 0 0.04 0.37 0 0.06 0.37 0 0.08 0.37 0 0.1 0.37 0 0 0.375 0 0.02 0.375 0 0.04 0.375 0 0.06 0.375 0 0.08 0.375 0 0.1 0.375 0 0 0.38 0 0.02 0.38 0 0.04 0.38 0 0.06 0.38 0 0.08 0.38 0 0.1 0.38 0 0 0.385 0 0.02 0.385 0 0.04 0.385 0 0.06 0.385 0 0.08 0.385 0 0.1 0.385 0 0 0.39 0 0.02 0.39 0 0.04 0.39 0 0.06 0.39 0 0.08 0.39 0 0.1 0.39 0 0 0.395 0 0.02 0.395 0 0.04 0.395 0 0.06 0.395 0 0.08 0.395 0 0.1 0.395 0 0 0.4 0 0.02 0.4 0 0.04 0.4 0 0.06 0.4 0 0.08 0.4 0 0.1 0.4 0 0 0.405 0 0.02 0.405 0 0.04 0.405 0 0.06 0.405 0 0.08 0.405 0 0.1 0.405 0 0 0.41 0 0.02 0.41 0 0.04 0.41 0 0.06 0.41 0 0.08 0.41 0 0.1 0.41 0 0 0.415 0 0.02 0.415 0 0.04 0.415 0 0.06 0.415 0 0.08 0.415 0 0.1 0.415 0 0 0.42 0 0.02 0.42 0 0.04 0.42 0 0.06 0.42 0 0.08 0.42 0 0.1 0.42 0 0 0.425 0 0.02 0.425 0 0.04 0.425 0 0.06 0.425 0 0.08 0.425 0 0.1 0.425 0 0 0.43 0 0.02 0.43 0 0.04 0.43 0 0.06 0.43 0 0.08 0.43 0 0.1 0.43 0 0 0.435 0 0.02 0.435 0 0.04 0.435 0 0.06 0.435 0 0.08 0.435 0 0.1 0.435 0 0 0.44 0 0.02 0.44 0 0.04 0.44 0 0.06 0.44 0 0.08 0.44 0 0.1 0.44 0 0 0.445 0 0.02 0.445 0 0.04 0.445 0 0.06 0.445 0 0.08 0.445 0 0.1 0.445 0 0 0.45 0 0.02 0.45 0 0.04 0.45 0 0.06 0.45 0 0.08 0.45 0 0.1 0.45 0 0 0.455 0 0.02 0.455 0 0.04 0.455 0 0.06 0.455 0 0.08 0.455 0 0.1 0.455 0 0 0.46 0 0.02 0.46 0 0.04 0.46 0 0.06 0.46 0 0.08 0.46 0 0.1 0.46 0 0 0.465 0 0.02 0.465 0 0.04 0.465 0 0.06 0.465 0 0.08 0.465 0 0.1 0.465 0 0 0.47 0 0.02 0.47 0 0.04 0.47 0 0.06 0.47 0 0.08 0.47 0 0.1 0.47 0 0 0.475 0 0.02 0.475 0 0.04 0.475 0 0.06 0.475 0 0.08 0.475 0 0.1 0.475 0 0 0.48 0 0.02 0.48 0 0.04 0.48 0 0.06 0.48 0 0.08 0.48 0 0.1 0.48 0 0 0.485 0 0.02 0.485 0 0.04 0.485 0 0.06 0.485 0 0.08 0.485 0 0.1 0.485 0 0 0.49 0 0.02 0.49 0 0.04 0.49 0 0.06 0.49 0 0.08 0.49 0 0.1 0.49 0 0 0.495 0 0.02 0.495 0 0.04 0.495 0 0.06 0.495 0 0.08 0.495 0 0.1 0.495 0 0 0.5 0 0.02 0.5 0 0.04 0.5 0 0.06 0.5 0 0.08 0.5 0 0.1 0.5 0 0 0.505 0 0.02 0.505 0 0.04 0.505 0 0.06 0.505 0 0.08 0.505 0 0.1 0.505 0 0 0.51 0 0.02 0.51 0 0.04 0.51 0 0.06 0.51 0 0.08 0.51 0 0.1 0.51 0 0 0.515 0 0.02 0.515 0 0.04 0.515 0 0.06 0.515 0 0.08 0.515 0 0.1 0.515 0 0 0.52 0 0.02 0.52 0 0.04 0.52 0 0.06 0.52 0 0.08 0.52 0 0.1 0.52 0 0 0.525 0 0.02 0.525 0 0.04 0.525 0 0.06 0.525 0 0.08 0.525 0 0.1 0.525 0 0 0.53 0 0.02 0.53 0 0.04 0.53 0 0.06 0.53 0 0.08 0.53 0 0.1 0.53 0 0 0.535 0 0.02 0.535 0 0.04 0.535 0 0.06 0.535 0 0.08 0.535 0 0.1 0.535 0 0 0.54 0 0.02 0.54 0 0.04 0.54 0 0.06 0.54 0 0.08 0.54 0 0.1 0.54 0 0 0.545 0 0.02 0.545 0 0.04 0.545 0 0.06 0.545 0 0.08 0.545 0 0.1 0.545 0 0 0.55 0 0.02 0.55 0 0.04 0.55 0 0.06 0.55 0 0.08 0.55 0 0.1 0.55 0 0 0.555 0 0.02 0.555 0 0.04 0.555 0 0.06 0.555 0 0.08 0.555 0 0.1 0.555 0 0 0.56 0 0.02 0.56 0 0.04 0.56 0 0.06 0.56 0 0.08 0.56 0 0.1 0.56 0 0 0.565 0 0.02 0.565 0 0.04 0.565 0 0.06 0.565 0 0.08 0.565 0 0.1 0.565 0 0 0.57 0 0.02 0.57 0 0.04 0.57 0 0.06 0.57 0 0.08 0.57 0 0.1 0.57 0 0 0.575 0 0.02 0.575 0 0.04 0.575 0 0.06 0.575 0 0.08 0.575 0 0.1 0.575 0 0 0.58 0 0.02 0.58 0 0.04 0.58 0 0.06 0.58 0 0.08 0.58 0 0.1 0.58 0 0 0.585 0 0.02 0.585 0 0.04 0.585 0 0.06 0.585 0 0.08 0.585 0 0.1 0.585 0 0 0.59 0 0.02 0.59 0 0.04 0.59 0 0.06 0.59 0 0.08 0.59 0 0.1 0.59 0 0 0.595 0 0.02 0.595 0 0.04 0.595 0 0.06 0.595 0 0.08 0.595 0 0.1 0.595 0 0 0.6 0 0.02 0.6 0 0.04 0.6 0 0.06 0.6 0 0.08 0.6 0 0.1 0.6 0 0 0.605 0 0.02 0.605 0 0.04 0.605 0 0.06 0.605 0 0.08 0.605 0 0.1 0.605 0 0 0.61 0 0.02 0.61 0 0.04 0.61 0 0.06 0.61 0 0.08 0.61 0 0.1 0.61 0 0 0.615 0 0.02 0.615 0 0.04 0.615 0 0.06 0.615 0 0.08 0.615 0 0.1 0.615 0 0 0.62 0 0.02 0.62 0 0.04 0.62 0 0.06 0.62 0 0.08 0.62 0 0.1 0.62 0 0 0.625 0 0.02 0.625 0 0.04 0.625 0 0.06 0.625 0 0.08 0.625 0 0.1 0.625 0 0 0.63 0 0.02 0.63 0 0.04 0.63 0 0.06 0.63 0 0.08 0.63 0 0.1 0.63 0 0 0.635 0 0.02 0.635 0 0.04 0.635 0 0.06 0.635 0 0.08 0.635 0 0.1 0.635 0 0 0.64 0 0.02 0.64 0 0.04 0.64 0 0.06 0.64 0 0.08 0.64 0 0.1 0.64 0 0 0.645 0 0.02 0.645 0 0.04 0.645 0 0.06 0.645 0 0.08 0.645 0 0.1 0.645 0 0 0.65 0 0.02 0.65 0 0.04 0.65 0 0.06 0.65 0 0.08 0.65 0 0.1 0.65 0 0 0.655 0 0.02 0.655 0 0.04 0.655 0 0.06 0.655 0 0.08 0.655 0 0.1 0.655 0 0 0.66 0 0.02 0.66 0 0.04 0.66 0 0.06 0.66 0 0.08 0.66 0 0.1 0.66 0 0 0.665 0 0.02 0.665 0 0.04 0.665 0 0.06 0.665 0 0.08 0.665 0 0.1 0.665 0 0 0.67 0 0.02 0.67 0 0.04 0.67 0 0.06 0.67 0 0.08 0.67 0 0.1 0.67 0 0 0.675 0 0.02 0.675 0 0.04 0.675 0 0.06 0.675 0 0.08 0.675 0 0.1 0.675 0 0 0.68 0 0.02 0.68 0 0.04 0.68 0 0.06 0.68 0 0.08 0.68 0 0.1 0.68 0 0 0.685 0 0.02 0.685 0 0.04 0.685 0 0.06 0.685 0 0.08 0.685 0 0.1 0.685 0 0 0.69 0 0.02 0.69 0 0.04 0.69 0 0.06 0.69 0 0.08 0.69 0 0.1 
[...]
			<PointData Scalars="VitesseX">
				<DataArray Name="VitesseX" type="Float32" format="ascii">
 0 3.04275e-14 1.29603e-14 3.74395e-14 6.52627e-15 0 0 2.20681e-14 2.17838e-14 2.97093e-14 1.20581e-14 0 0 1.07854e-14 3.09678e-14 2.04287e-14 2.21053e-14 0 0 1.56384e-14 1.33795e-14 4.23867e-14 9.70371e-15 0 0 1.47547e-14 1.36014e-14 4.43106e-14 1.0862e-14 0 0 -6.51295e-15 4.64607e-14 1.11488e-14 3.65199e-14 0 0 -2.82205e-15 3.35441e-14 2.59295e-14 2.83785e-14 0 0 5.81693e-15 1.43452e-14 4.21164e-14 1.38015e-14 0 0 -2.55142e-15 1.7179e-14 3.38612e-14 1.66015e-14 0 0 -1.7008e-14 2.74854e-14 2.35671e-14 2.3896e-14 0 0 -1.48262e-14 8.32002e-15 5.01454e-14 1.9884e-15 0 0 -1.04534e-14 5.45855e-15 3.97678e-14 9.94892e-15 0 0 3.72882e-14 -4.63948e-14 6.67748e-14 3.13854e-15 0 0 3.8913e-14 -3.07718e-14 3.85116e-14 3.19424e-14 0 0 4.24309e-15 3.56677e-14 -8.98586e-15 5.62585e-14 0 0 1.96076e-14 1.27009e-14 3.40747e-14 2.89817e-14 0 0 1.45653e-14 1.63851e-14 4.70563e-14 3.01863e-14 0 0 9.05344e-15 3.13231e-14 6.16988e-14 1.70947e-14 0 0 4.40502e-15 4.5492e-14 6.69349e-14 1.65165e-14 0 0 1.7649e-15 6.87371e-14 4.33747e-14 2.86389e-14 0 0 2.43141e-15 8.94397e-14 2.08473e-14 2.47101e-14 0 0 3.75955e-14 2.57599e-14 1.03295e-13 -3.7838e-14 0 0 -1.20922e-14 7.98e-14 6.84904e-14 -3.13738e-14 0 0 -4.99727e-14 1.46186e-13 -1.86424e-14 -2.32119e-15 0 0 2.28487e-14 4.12484e-14 6.60665e-14 -5.80838e-14 0 0 5.21822e-14 -1.91927e-14 1.17735e-13 -8.53174e-14 0 0 3.75092e-14 -1.38819e-14 9.17038e-14 -4.9333e-14 0 0 8.70854e-15 -7.71075e-15 1.0859e-13 -3.77207e-14 0 0 -7.56037e-15 2.38189e-14 8.55643e-14 -1.69114e-14 0 0 -2.89116e-16 4.74842e-14 4.26059e-14 5.63264e-15 0 0 9.38004e-15 7.78039e-14 -1.00113e-14 3.2917e-14 0 0 2.64854e-14 6.32261e-14 1.60185e-14 1.48184e-14 0 0 1.3753e-14 7.2777e-14 1.59409e-14 2.94005e-14 0 0 -2.65081e-14 1.60319e-13 -6.41172e-14 9.61477e-14 0 0 1.80384e-14 1.04489e-13 1.49828e-14 6.34988e-14 0 0 5.59046e-14 6.36837e-14 2.83888e-14 1.10525e-13 0 0 2.50301e-14 1.06587e-13 1.38274e-14 1.13385e-13 0 0 -2.47022e-15 1.38183e-13 7.14115e-15 1.02938e-13 0 0 5.76979e-14 1.29048e-14 1.33532e-13 3.93476e-14 0 0 -1.60826e-14 7.82066e-14 1.06687e-13 6.5707e-14 0 0 -8.2474e-14 1.41746e-13 5.05673e-14 1.32421e-13 0 0 -5.50711e-14 5.11862e-14 1.33045e-13 9.5298e-14 0 0 -1.71772e-13 1.87888e-13 1.6253e-14 1.39025e-13 0 0 -1.69727e-13 1.67388e-13 5.7867e-14 6.38689e-14 0 0 -7.17826e-14 1.58316e-14 2.0292e-13 -2.90735e-14 0 0 -5.7146e-14 1.75774e-14 1.81063e-13 -3.19445e-14 0 0 -7.4325e-14 3.18091e-14 2.06942e-13 -8.60331e-14 0 0 -9.92304e-14 4.19319e-14 2.62374e-13 -1.47486e-13 0 0 -1.51703e-13 1.54321e-13 1.4576e-13 -8.39987e-14 0 0 -1.8425e-13 2.64806e-13 -8.37888e-15 3.02003e-14 0 0 -7.04815e-14 1.50514e-13 8.73948e-14 -1.44554e-14 0 0 -3.81467e-14 9.77376e-14 2.00737e-13 -5.91446e-14 0 0 -1.94668e-13 3.2254e-13 5.22314e-14 5.70542e-14 0 0 -2.03936e-13 3.4541e-13 1.05265e-13 -4.46906e-15 0 0 -1.91978e-14 7.59027e-14 3.44854e-13 -1.4938e-13 0 0 4.14985e-14 -6.77418e-15 3.29956e-13 -8.8144e-14 0 0 -5.42003e-14 1.34526e-13 1.67802e-13 3.19366e-14 0 0 -7.45839e-14 1.93787e-13 7.79375e-14 7.86552e-14 0 0 -4.98608e-14 2.05754e-13 -1.27182e-15 1.36916e-13 0 0 7.86135e-15 1.18701e-13 7.57625e-14 8.42685e-14 0 0 6.95998e-14 -1.31741e-14 2.60608e-13 -3.23138e-14 0 0 4.79217e-14 4.36471e-14 2.06226e-13 6.41097e-14 0 0 -3.13083e-14 1.99543e-13 5.20866e-14 2.38104e-13 0 0 -3.16893e-14 1.36727e-13 1.81565e-13 2.39837e-13 0 0 -9.40536e-14 1.75373e-13 2.48523e-13 2.11186e-13 0 0 -5.64168e-14 2.02065e-13 2.0724e-13 2.67152e-13 0 0 5.79527e-14 9.97394e-14 2.64325e-13 2.68071e-13 0 0 -9.49891e-15 2.30684e-13 2.13214e-13 2.27639e-13 0 0 2.07313e-14 1.54544e-13 3.54099e-13 4.88966e-14 0 0 -1.79771e-14 1.31219e-13 3.97938e-13 2.85353e-14 0 0 -2.22895e-13 3.91548e-13 1.53441e-13 2.89785e-13 0 0 -1.90195e-13 2.25106e-13 3.52256e-13 2.50602e-13 0 0 -5.48836e-14 -2.51007e-14 6.49793e-13 5.21221e-14 0 0 1.60931e-14 -5.99325e-14 5.98396e-13 1.94476e-14 0 0 -1.15615e-13 2.22157e-13 2.41618e-13 1.41159e-13 0 0 -2.46116e-13 4.39097e-13 1.04613e-13 1.56488e-13 0 0 -1.02096e-15 2.74455e-14 4.93916e-13 2.50323e-14 0 0 6.17224e-14 -1.31588e-13 6.09717e-13 4.56287e-14 0 0 -1.50987e-13 1.51886e-13 5.36766e-13 4.98209e-15 0 0 -2.94999e-13 5.43803e-13 2.6424e-13 9.92058e-14 0 0 2.34154e-14 2.74492e-13 3.73434e-13 -1.62872e-14 0 0 3.9335e-13 -1.80877e-13 6.9323e-13 -2.6519e-13 0 0 3.02532e-13 1.00923e-13 3.49719e-13 7.35033e-14 0 0 3.69619e-13 4.19945e-13 -1.72722e-14 7.25148e-13 0 0 8.78283e-13 5.84153e-13 7.32737e-13 8.16374e-13 0 0 2.19957e-12 2.33649e-12 3.25889e-12 1.72962e-12 0 0 6.48617e-12 9.89563e-12 1.10346e-11 6.19062e-12 0 0 2.05567e-11 3.43318e-11 3.52951e-11 2.16444e-11 0 0 5.93388e-11 1.00094e-10 1.02732e-10 6.50946e-11 0 0 1.43333e-10 2.42929e-10 2.54197e-10 1.6377e-10 0 0 2.47485e-10 4.4465e-10 4.96929e-10 3.31962e-10 0 0 -1.36918e-10 -8.45673e-11 9.01975e-11 1.4636e-10 0 0 -2.68493e-09 -3.97374e-09 -3.51283e-09 -1.93974e-09 0 0 -1.31701e-08 -2.0538e-08 -1.95785e-08 -1.16169e-08 0 0 -4.70758e-08 -7.52793e-08 -7.41481e-08 -4.52444e-08 0 0 -1.40389e-07 -2.29147e-07 -2.31493e-07 -1.44184e-07 0 0 -3.66214e-07 -6.10451e-07 -6.32131e-07 -4.01296e-07 0 0 -8.5707e-07 -1.45905e-06 -1.55167e-06 -1.00452e-06 0 0 -1.80558e-06 -3.18364e-06 -3.49697e-06 -2.3006e-06 0 0 -3.75033e-06 -6.52445e-06 -7.20527e-06 -4.85487e-06 0 0 -6.40925e-06 -1.2493e-05 -1.43859e-05 -1.02273e-05 0 0 -1.10319e-05 -2.10796e-05 -2.64924e-05 -1.75087e-05 0 0 -1.78746e-05 -3.4699e-05 -4.24771e-05 -3.18701e-05 0 0 -2.53658e-05 -5.6667e-05 -7.09686e-05 -5.10726e-05 0 0 -3.84778e-05 -7.93971e-05 -0.000103703 -7.64665e-05 0 0 -5.27763e-05 -0.000108887 -0.000141863 -0.000101993 0 0 -7.43151e-05 -0.000147022 -0.000178689 -0.000124616 0 0 -0.00010129 -0.000187176 -0.000212749 -0.000143216 0 0 -0.000127615 -0.000226206 -0.000245019 -0.000159307 0 0 -0.000150648 -0.000260294 -0.000277505 -0.000173728 0 0 -0.000167187 -0.000284326 -0.000310117 -0.000184938 0 0 -0.00018323 -0.000321095 -0.000338554 -0.000195122 0 0 -0.000219429 -0.000383895 -0.000370929 -0.00022093 0 0 -0.000268714 -0.00045658 -0.000416913 -0.000233165 0 0 -0.000315636 -0.000529672 -0.000471175 -0.000229087 0 0 -0.000342573 -0.000592699 -0.000524448 -0.000209124 0 0 -0.000357055 -0.000687251 -0.000572443 -0.000120632 0 0 -0.000376092 -0.000823292 -0.000614558 7.88868e-05 0 0 -0.00037506 -0.000831678 -0.000609162 0.000114373 0 0 -0.000354406 -0.000758485 -0.000547147 7.41942e-05 0 0 -0.000292265 -0.000541156 -0.000419939 -6.3022e-05 0 0 -0.000214724 -0.000337599 -0.000338154 -0.000201673 0 0 -0.000160123 -0.000210842 -0.000295723 -0.000402089 0 0 -8.1828e-05 4.66997e-05 -0.000120612 -0.000428137 0 0 0.000138913 0.000590346 0.000528284 -0.000123103 0 0 0.000306805 0.00070485 0.000784641 0.000337879 0 0 0.000309746 0.000678201 0.000767862 0.000441152 0 0 0.000299539 0.000601596 0.00068957 0.000434438 0 0 0.000284931 0.000531485 0.000595018 0.000393477 0 0 0.000272986 0.000480758 0.000518309 0.000338893 0 0 0.000263405 0.000445421 0.000461997 0.00029324 0 0 0.000251935 0.000418213 0.000423439 0.000261921 0 0 0.000236887 0.000391259 0.000396072 0.000243919 0 0 0.000218071 0.00035979 0.000366677 0.000228804 0 0 0.000195074 0.000322001 0.000329095 0.000206508 0 0 0.000167815 0.000277226 0.000283935 0.00017867 0 0 0.000137031 0.000226514 0.000232321 0.000146431 0 0 0.000104445 0.000172669 0.00017718 0.000111744 0 0 7.25811e-05 0.000119921 0.000122988 7.75434e-05 0 0 4.49626e-05 7.41729e-05 7.59301e-05 4.7806e-05 0 0 2.42353e-05 3.98845e-05 4.07137e-05 2.5577e-05 0 0 1.10463e-05 1.81241e-05 1.84339e-05 1.15476e-05 0 0 4.23668e-06 6.92972e-06 7.02191e-06 4.38585e-06 0 0 1.40697e-06 2.29484e-06 2.31747e-06 1.44358e-06 0 0 4.23735e-07 6.89595e-07 6.94512e-07 4.3169e-07 0 0 1.20657e-07 1.96033e-07 1.9703e-07 1.22269e-07 0 0 3.31804e-08 5.38437e-08 5.40373e-08 3.34935e-08 0 0 8.89368e-09 1.44201e-08 1.44564e-08 8.95263e-09 0 0 2.33201e-09 3.77871e-09 3.7855e-09 2.34269e-09 0 0 5.99017e-10 9.70253e-10 9.71564e-10 6.00753e-10 0 0 1.50944e-10 2.44274e-10 2.44809e-10 1.50963e-10 0 0 3.73505e-11 6.05368e-11 6.07151e-11 3.73848e-11 0 0 9.13307e-12 1.49508e-11 1.50601e-11 9.3049e-12 0 0 2.25439e-12 3.89859e-12 3.94083e-12 2.58961e-12 0 0 6.73027e-13 1.22068e-12 1.32431e-12 1.06127e-12 0 0 3.64572e-13 5.95757e-13 7.37256e-13 6.6769e-13 0 0 1.56461e-13 7.61282e-13 3.78026e-13 6.67461e-13 0 0 1.85876e-13 7.46447e-13 4.33456e-13 5.1708e-13 0 0 4.61534e-13 4.05207e-13 7.82114e-13 2.61288e-13 0 0 6.58355e-13 1.96083e-13 9.67065e-13 1.41226e-13 0 0 4.76909e-13 5.53925e-13 6.03647e-13 3.58866e-13 0 0 2.04892e-13 1.0067e-12 2.01956e-13 5.73567e-13 0 0 2.49614e-13 1.01914e-12 1.78971e-13 5.40371e-13 0 0 5.15202e-13 6.70481e-13 5.29607e-13 3.13923e-13 0 0 6.17238e-13 4.91442e-13 7.56515e-13 8.52605e-14 0 0 6.36911e-13 5.96618e-13 4.83165e-13 2.53916e-13 0 0 5.46567e-13 7.08392e-13 4.68759e-13 1.8987e-13 0 0 3.23886e-13 9.24461e-13 4.70022e-13 8.81055e-14 0 0 2.21763e-13 1.11927e-12 2.36846e-13 3.20756e-13 0 0 4.81634e-13 7.91654e-13 4.85922e-13 2.59589e-13 0 0 6.756e-13 6.33246e-13 5.46546e-13 2.20051e-13 0 0 5.88547e-13 7.1443e-13 5.60317e-13 1.38995e-13 0 0 5.20071e-13 6.95845e-13 7.43925e-13 3.89352e-14 0 0 3.41359e-13 1.03417e-12 4.5353e-13 2.93341e-13 0 0 3.44418e-13 1.00138e-12 4.48302e-13 4.42475e-13 0 0 2.97273e-13 9.38885e-13 4.84661e-13 4.11043e-13 0 0 3.64373e-13 7.96843e-13 6.01825e-13 2.5087e-13 0 0 5.98828e-13 4.43168e-13 8.77501e-13 1.44159e-13 0 0 4.09926e-13 7.03813e-13 5.37363e-13 4.38625e-13 0 0 2.52959e-13 9.03413e-13 2.94192e-13 5.70903e-13 0 0 3.67001e-13 6.5116e-13 7.05661e-13 1.2862e-13 0 0 4.35201e-13 4.76644e-13 9.19032e-13 8.86677e-14 0 0 5.9771e-13 3.11206e-13 8.53189e-13 3.91269e-13 0 0 4.79194e-13 4.48306e-13 7.40368e-13 4.38815e-13 0 0 3.49782e-13 4.71783e-13 8.24047e-13 2.65131e-13 0 0 4.00126e-13 3.75601e-13 8.69162e-13 1.63267e-13 0 0 3.34822e-13 4.65101e-13 7.63525e-13 1.83508e-13 0 0 3.14539e-13 5.04031e-13 6.64816e-13 2.40155e-13 0 0 -2.75819e-14 9.81946e-13 2.68817e-13 3.86267e-13 0 0 7.65971e-14 7.04314e-13 7.04752e-13 2.73019e-14 0 0 2.97412e-13 3.74739e-13 1.04531e-12 -1.62032e-13 0 0 2.58158e-13 4.5128e-13 8.78168e-13 4.64792e-14 0 0 2.68346e-13 4.44349e-13 9.90804e-13 -9.47387e-14 0 0 -1.02498e-13 1.06201e-12 5.24135e-13 2.46936e-14 0 0 -6.57736e-14 9.45895e-13 6.01164e-13 1.69363e-14 0 0 1.98134e-13 4.40479e-13 1.18823e-12 -4.01701e-13 0 0 1.08077e-13 4.44046e-13 1.40571e-12 -6.5081e-13 0 0 -1.81623e-13 9.04055e-13 8.71213e-13 -1.38075e-13 0 0 -5.96412e-14 8.16721e-13 6.04163e-13 4.22452e-13 0 0 5.18732e-13 -8.30475e-14 1.52571e-12 -8.836e-14 0 0 7.41368e-13 -4.0805e-13 2.01615e-12 -5.12332e-13 0
				</DataArray>
				<DataArray Name="VitesseY" type="Float32" format="ascii">