<?xml version="1.0"?>
<VTKFile type="PolyData">
	<PolyData>
		<Piece NumberOfPoints="1206" NumberOfPolys="1000">
			<Points>
				<DataArray type="Float32" NumberOfComponents="3" format="ascii">
 0 0 0 0.02 0 0 0.04 0 0 0.06 0 0 0.08 0 0 0.1 0 0 0 0.005 0 0.02 0.005 0 0.04 0.005 0 0.06 0.005 0 0.08 0.005 0 0.1 0.005 0 0 0.01 0 0.02 0.01 0 0.04 0.01 0 0.06 0.01 0 0.08 0.01 0 0.1 0.01 0 0 0.015 0 0.02 0.015 0 0.04 0.015 0 0.06 0.015 0 0.08 0.015 0 0.1 0.015 0 0 0.02 0 0.02 0.02 0 0.04 0.02 0 0.06 0.02 0 0.08 0.02 0 0.1 0.02 0 0 0.025 0 0.02 0.025 0 0.04 0.025 0 0.06 0.025 0 0.08 0.025 0 0.1 0.025 0 0 0.03 0 0.02 0.03 0 0.04 0.03 0 0.06 0.03 0 0.08 0.03 0 0.1 0.03 0 0 0.035 0 0.02 0.035 0 0.04 0.035 0 0.06 0.035 0 0.08 0.035 0 0.1 0.035 0 0 0.04 0 0.02 0.04 0 0.04 0.04 0 0.06 0.04 0 0.08 0.04 0 0.1 0.04 0 0 0.045 0 0.02 0.045 0 0.04 0.045 0 0.06 0.045 0 0.08 0.045 0 0.1 0.045 0 0 0.05 0 0.02 0.05 0 0.04 0.05 0 0.06 0.05 0 0.08 0.05 0 0.1 0.05 0 0 0.055 0 0.02 0.055 0 0.04 0.055 0 0.06 0.055 0 0.08 0.055 0 0.1 0.055 0 0 0.06 0 0.02 0.06 0 0.04 0.06 0 0.06 0.06 0 0.08 0.06 0 0.1 0.06 0 0 0.065 0 0.02 0.065 0 0.04 0.065 0 0.06 0.065 0 0.08 0.065 0 0.1 0.065 0 0 0.07 0 0.02 0.07 0 0.04 0.07 0 0.06 0.07 0 0.08 0.07 0 0.1 0.07 0 0 0.075 0 0.02 0.075 0 0.04 0.075 0 0.06 0.075 0 0.08 0.075 0 0.1 0.075 0 0 0.08 0 0.02 0.08 0 0.04 0.08 0 0.06 0.08 0 0.08 0.08 0 0.1 0.08 0 0 0.085 0 0.02 0.085 0 0.04 0.085 0 0.06 0.085 0 0.08 0.085 0 0.1 0.085 0 0 0.09 0 0.02 0.09 0 0.04 0.09 0 0.06 0.09 0 0.08 0.09 0 0.1 0.09 0 0 0.095 0 0.02 0.095 0 0.04 0.095 0 0.06 0.095 0 0.08 0.095 0 0.1 0.095 0 0 0.1 0 0.02 0.1 0 0.04 0.1 0 0.06 0.1 0 0.08 0.1 0 0.1 0.1 0 0 0.105 0 0.02 0.105 0 0.04 0.105 0 0.06 0.105 0 0.08 0.105 0 0.1 0.105 0 0 0.11 0 0.02 0.11 0 0.04 0.11 0 0.06 0.11 0 0.08 0.11 0 0.1 0.11 0 0 0.115 0 0.02 0.115 0 0.04 0.115 0 0.06 0.115 0 0.08 0.115 0 0.1 0.115 0 0 0.12 0 0.02 0.12 0 0.04 0.12 0 0.06 0.12 0 0.08 0.12 0 0.1 0.12 0 0 0.125 0 0.02 0.125 0 0.04 0.125 0 0.06 0.125 0 0.08 0.125 0 0.1 0.125 0 0 0.13 0 0.02 0.13 0 0.04 0.13 0 0.06 0.13 0 0.08 0.13 0 0.1 0.13 0 0 0.135 0 0.02 0.135 0 0.04 0.135 0 0.06 0.135 0 0.08 0.135 0 0.1 0.135 0 0 0.14 0 0.02 0.14 0 0.04 0.14 0 0.06 0.14 0 0.08 0.14 0 0.1 0.14 0 0 0.145 0 0.02 0.145 0 0.04 0.145 0 0.06 0.145 0 0.08 0.145 0 0.1 0.145 0 0 0.15 0 0.02 0.15 0 0.04 0.15 0 0.06 0.15 0 0.08 0.15 0 0.1 0.15 0 0 0.155 0 0.02 0.155 0 0.04 0.155 0 0.06 0.155 0 0.08 0.155 0 0.1 0.155 0 0 0.16 0 0.02 0.16 0 0.04 0.16 0 0.06 0.16 0 0.08 0.16 0 0.1 0.16 0 0 0.165 0 0.02 0.165 0 0.04 0.165 0 0.06 0.165 0 0.08 0.165 0 0.1 0.165 0 0 0.17 0 0.02 0.17 0 0.04 0.17 0 0.06 0.17 0 0.08 0.17 0 0.1 0.17 0 0 0.175 0 0.02 0.175 0 0.04 0.175 0 0.06 0.175 0 0.08 0.175 0 0.1 0.175 0 0 0.18 0 0.02 0.18 0 0.04 0.18 0 0.06 0.18 0 0.08 0.18 0 0.1 0.18 0 0 0.185 0 0.02 0.185 0 0.04 0.185 0 0.06 0.185 0 0.08 0.185 0 0.1 0.185 0 0 0.19 0 0.02 0.19 0 0.04 0.19 0 0.06 0.19 0 0.08 0.19 0 0.1 0.19 0 0 0.195 0 0.02 0.195 0 0.04 0.195 0 0.06 0.195 0 0.08 0.195 0 0.1 0.195 0 0 0.2 0 0.02 0.2 0 0.04 0.2 0 0.06 0.2 0 0.08 0.2 0 0.1 0.2 0 0 0.205 0 0.02 0.205 0 0.04 0.205 0 0.06 0.205 0 0.08 0.205 0 0.1 0.205 0 0 0.21 0 0.02 0.21 0 0.04 0.21 0 0.06 0.21 0 0.08 0.21 0 0.1 0.21 0 0 0.215 0 0.02 0.215 0 0.04 0.215 0 0.06 0.215 0 0.08 0.215 0 0.1 0.215 0 0 0.22 0 0.02 0.22 0 0.04 0.22 0 0.06 0.22 0 0.08 0.22 0 0.1 0.22 0 0 0.225 0 0.02 0.225 0 0.04 0.225 0 0.06 0.225 0 0.08 0.225 0 0.1 0.225 0 0 0.23 0 0.02 0.23 0 0.04 0.23 0 0.06 0.23 0 0.08 0.23 0 0.1 0.23 0 0 0.235 0 0.02 0.235 0 0.04 0.235 0 0.06 0.235 0 0.08 0.235 0 0.1 0.235 0 0 0.24 0 0.02 0.24 0 0.04 0.24 0 0.06 0.24 0 0.08 0.24 0 0.1 0.24 0 0 0.245 0 0.02 0.245 0 0.04 0.245 0 0.06 0.245 0 0.08 0.245 0 0.1 0.245 0 0 0.25 0 0.02 0.25 0 0.04 0.25 0 0.06 0.25 0 0.08 0.25 0 0.1 0.25 0 0 0.255 0 0.02 0.255 0 0.04 0.255 0 0.06 0.255 0 0.08 0.255 0 0.1 0.255 0 0 0.26 0 0.02 0.26 0 0.04 0.26 0 0.06 0.26 0 0.08 0.26 0 0.1 0.26 0 0 0.265 0 0.02 0.265 0 0.04 0.265 0 0.06 0.265 0 0.08 0.265 0 0.1 0.265 0 0 0.27 0 0.02 0.27 0 0.04 0.27 0 0.06 0.27 0 0.08 0.27 0 0.1 0.27 0 0 0.275 0 0.02 0.275 0 0.04 0.275 0 0.06 0.275 0 0.08 0.275 0 0.1 0.275 0 0 0.28 0 0.02 0.28 0 0.04 0.28 0 0.06 0.28 0 0.08 0.28 0 0.1 0.28 0 0 0.285 0 0.02 0.285 0 0.04 0.285 0 0.06 0.285 0 0.08 0.285 0 0.1 0.285 0 0 0.29 0 0.02 0.29 0 0.04 0.29 0 0.06 0.29 0 0.08 0.29 0 0.1 0.29 0 0 0.295 0 0.02 0.295 0 0.04 0.295 0 0.06 0.295 0 0.08 0.295 0 0.1 0.295 0 0 0.3 0 0.02 0.3 0 0.04 0.3 0 0.06 0.3 0 0.08 0.3 0 0.1 0.3 0 0 0.305 0 0.02 0.305 0 0.04 0.305 0 0.06 0.305 0 0.08 0.305 0 0.1 0.305 0 0 0.31 0 0.02 0.31 0 0.04 0.31 0 0.06 0.31 0 0.08 0.31 0 0.1 0.31 0 0 0.315 0 0.02 0.315 0 0.04 0.315 0 0.06 0.315 0 0.08 0.315 0 0.1 0.315 0 0 0.32 0 0.02 0.32 0 0.04 0.32 0 0.06 0.32 0 0.08 0.32 0 0.1 0.32 0 0 0.325 0 0.02 0.325 0 0.04 0.325 0 0.06 0.325 0 0.08 0.325 0 0.1 0.325 0 0 0.33 0 0.02 0.33 0 0.04 0.33 0 0.06 0.33 0 0.08 0.33 0 0.1 0.33 0 0 0.335 0 0.02 0.335 0 0.04 0.335 0 0.06 0.335 0 0.08 0.335 0 0.1 0.335 0 0 0.34 0 0.02 0.34 0 0.04 0.34 0 0.06 0.34 0 0.08 0.34 0 0.1 0.34 0 0 0.345 0 0.02 0.345 0 0.04 0.345 0 0.06 0.345 0 0.08 0.345 0 0.1 0.345 0 0 0.35 0 0.02 0.35 0 0.04 0.35 0 0.06 0.35 0 0.08 0.35 0 0.1 0.35 0 0 0.355 0 0.02 0.355 0 0.04 0.355 0 0.06 0.355 0 0.08 0.355 0 0.1 0.355 0 0 0.36 0 0.02 0.36 0 0.04 0.36 0 0.06 0.36 0 0.08 0.36 0 0.1 0.36 0 0 0.365 0 0.02 0.365 0 0.04 0.365 0 0.06 0.365 0 0.08 0.365 0 0.1 0.365 0 0 0.37 0 0.02 0.37 0 0.04 0.37 0 0.06 0.37 0 0.08 0.37 0 0.1 0.37 0 0 0.375 0 0.02 0.375 0 0.04 0.375 0 0.06 0.375 0 0.08 0.375 0 0.1 0.375 0 0 0.38 0 0.02 0.38 0 0.04 0.38 0 0.06 0.38 0 0.08 0.38 0 0.1 0.38 0 0 0.385 0 0.02 0.385 0 0.04 0.385 0 0.06 0.385 0 0.08 0.385 0 0.1 0.385 0 0 0.39 0 0.02 0.39 0 0.04 0.39 0 0.06 0.39 0 0.08 0.39 0 0.1 0.39 0 0 0.395 0 0.02 0.395 0 0.04 0.395 0 0.06 0.395 0 0.08 0.395 0 0.1 0.395 0 0 0.4 0 0.02 0.4 0 0.04 0.4 0 0.06 0.4 0 0.08 0.4 0 0.1 0.4 0 0 0.405 0 0.02 0.405 0 0.04 0.405 0 0.06 0.405 0 0.08 0.405 0 0.1 0.405 0 0 0.41 0 0.02 0.41 0 0.04 0.41 0 0.06 0.41 0 0.08 0.41 0 0.1 0.41 0 0 0.415 0 0.02 0.415 0 0.04 0.415 0 0.06 0.415 0 0.08 0.415 0 0.1 0.415 0 0 0.42 0 0.02 0.42 0 0.04 0.42 0 0.06 0.42 0 0.08 0.42 0 0.1 0.42 0 0 0.425 0 0.02 0.425 0 0.04 0.425 0 0.06 0.425 0 0.08 0.425 0 0.1 0.425 0 0 0.43 0 0.02 0.43 0 0.04 0.43 0 0.06 0.43 0 0.08 0.43 0 0.1 0.43 0 0 0.435 0 0.02 0.435 0 0.04 0.435 0 0.06 0.435 0 0.08 0.435 0 0.1 0.435 0 0 0.44 0 0.02 0.44 0 0.04 0.44 0 0.06 0.44 0 0.08 0.44 0 0.1 0.44 0 0 0.445 0 0.02 0.445 0 0.04 0.445 0 0.06 0.445 0 0.08 0.445 0 0.1 0.445 0 0 0.45 0 0.02 0.45 0 0.04 0.45 0 0.06 0.45 0 0.08 0.45 0 0.1 0.45 0 0 0.455 0 0.02 0.455 0 0.04 0.455 0 0.06 0.455 0 0.08 0.455 0 0.1 0.455 0 0 0.46 0 0.02 0.46 0 0.04 0.46 0 0.06 0.46 0 0.08 0.46 0 0.1 0.46 0 0 0.465 0 0.02 0.465 0 0.04 0.465 0 0.06 0.465 0 0.08 0.465 0 0.1 0.465 0 0 0.47 0 0.02 0.47 0 0.04 0.47 0 0.06 0.47 0 0.08 0.47 0 0.1 0.47 0 0 0.475 0 0.02 0.475 0 0.04 0.475 0 0.06 0.475 0 0.08 0.475 0 0.1 0.475 0 0 0.48 0 0.02 0.48 0 0.04 0.48 0 0.06 0.48 0 0.08 0.48 0 0.1 0.48 0 0 0.485 0 0.02 0.485 0 0.04 0.485 0 0.06 0.485 0 0.08 0.485 0 0.1 0.485 0 0 0.49 0 0.02 0.49 0 0.04 0.49 0 0.06 0.49 0 0.08 0.49 0 0.1 0.49 0 0 0.495 0 0.02 0.495 0 0.04 0.495 0 0.06 0.495 0 0.08 0.495 0 0.1 0.495 0 0 0.5 0 0.02 0.5 0 0.04 0.5 0 0.06 0.5 0 0.08 0.5 0 0.1 0.5 0 0 0.505 0 0.02 0.505 0 0.04 0.505 0 0.06 0.505 0 0.08 0.505 0 0.1 0.505 0 0 0.51 0 0.02 0.51 0 0.04 0.51 0 0.06 0.51 0 0.08 0.51 0 0.1 0.51 0 0 0.515 0 0.02 0.515 0 0.04 0.515 0 0.06 0.515 0 0.08 0.515 0 0.1 0.515 0 0 0.52 0 0.02 0.52 0 0.04 0.52 0 0.06 0.52 0 0.08 0.52 0 0.1 0.52 0 0 0.525 0 0.02 0.525 0 0.04 0.525 0 0.06 0.525 0 0.08 0.525 0 0.1 0.525 0 0 0.53 0 0.02 0.53 0 0.04 0.53 0 0.06 0.53 0 0.08 0.53 0 0.1 0.53 0 0 0.535 0 0.02 0.535 0 0.04 0.535 0 0.06 0.535 0 0.08 0.535 0 0.1 0.535 0 0 0.54 0 0.02 0.54 0 0.04 0.54 0 0.06 0.54 0 0.08 0.54 0 0.1 0.54 0 0 0.545 0 0.02 0.545 0 0.04 0.545 0 0.06 0.545 0 0.08 0.545 0 0.1 0.545 0 0 0.55 0 0.02 0.55 0 0.04 0.55 0 0.06 0.55 0 0.08 0.55 0 0.1 0.55 0 0 0.555 0 0.02 0.555 0 0.04 0.555 0 0.06 0.555 0 0.08 0.555 0 0.1 0.555 0 0 0.56 0 0.02 0.56 0 0.04 0.56 0 0.06 0.56 0 0.08 0.56 0 0.1 0.56 0 0 0.565 0 0.02 0.565 0 0.04 0.565 0 0.06 0.565 0 0.08 0.565 0 0.1 0.565 0 0 0.57 0 0.02 0.57 0 0.04 0.57 0 0.06 0.57 0 0.08 0.57 0 0.1 0.57 0 0 0.575 0 0.02 0.575 0 0.04 0.575 0 0.06 0.575 0 0.08 0.575 0 0.1 0.575 0 0 0.58 0 0.02 0.58 0 0.04 0.58 0 0.06 0.58 0 0.08 0.58 0 0.1 0.58 0 0 0.585 0 0.02 0.585 0 0.04 0.585 0 0.06 0.585 0 0.08 0.585 0 0.1 0.585 0 0 0.59 0 0.02 0.59 0 0.04 0.59 0 0.06 0.59 0 0.08 0.59 0 0.1 0.59 0 0 0.595 0 0.02 0.595 0 0.04 0.595 0 0.06 0.595 0 0.08 0.595 0 0.1 0.595 0 0 0.6 0 0.02 0.6 0 0.04 0.6 0 0.06 0.6 0 0.08 0.6 0 0.1 0.6 0 0 0.605 0 0.02 0.605 0 0.04 0.605 0 0.06 0.605 0 0.08 0.605 0 0.1 0.605 0 0 0.61 0 0.02 0.61 0 0.04 0.61 0 0.06 0.61 0 0.08 0.61 0 0.1 0.61 0 0 0.615 0 0.02 0.615 0 0.04 0.615 0 0.06 0.615 0 0.08 0.615 0 0.1 0.615 0 0 0.62 0 0.02 0.62 0 0.04 0.62 0 0.06 0.62 0 0.08 0.62 0 0.1 0.62 0 0 0.625 0 0.02 0.625 0 0.04 0.625 0 0.06 0.625 0 0.08 0.625 0 0.1 0.625 0 0 0.63 0 0.02 0.63 0 0.04 0.63 0 0.06 0.63 0 0.08 0.63 0 0.1 0.63 0 0 0.635 0 0.02 0.635 0 0.04 0.635 0 0.06 0.635 0 0.08 0.635 0 0.1 0.635 0 0 0.64 0 0.02 0.64 0 0.04 0.64 0 0.06 0.64 0 0.08 0.64 0 0.1 0.64 0 0 0.645 0 0.02 0.645 0 0.04 0.645 0 0.06 0.645 0 0.08 0.645 0 0.1 0.645 0 0 0.65 0 0.02 0.65 0 0.04 0.65 0 0.06 0.65 0 0.08 0.65 0 0.1 0.65 0 0 0.655 0 0.02 0.655 0 0.04 0.655 0 0.06 0.655 0 0.08 0.655 0 0.1 0.655 0 0 0.66 0 0.02 0.66 0 0.04 0.66 0 0.06 0.66 0 0.08 0.66 0 0.1 0.66 0 0 0.665 0 0.02 0.665 0 0.04 0.665 0 0.06 0.665 0 0.08 0.665 0 0.1 0.665 0 0 0.67 0 0.02 0.67 0 0.04 0.67 0 0.06 0.67 0 0.08 0.67 0 0.1 0.67 0 0 0.675 0 0.02 0.675 0 0.04 0.675 0 0.06 0.675 0 0.08 0.675 0 0.1 0.675 0 0 0.68 0 0.02 0.68 0 0.04 0.68 0 0.06 0.68 0 0.08 0.68 0 0.1 0.68 0 0 0.685 0 0.02 0.685 0 0.04 0.685 0 0.06 0.685 0 0.08 0.685 0 0.1 0.685 0 0 0.69 0 0.02 0.69 0 0.04 0.69 0 0.06 0.69 0 0.08 0.69 0 0.1 
[...]
			<PointData Scalars="VitesseX">
				<DataArray Name="VitesseX" type="Float32" format="ascii">
 0 -5.54287e-15 -9.38786e-15 1.50921e-14 -6.40289e-16 0 0 -6.72925e-15 -9.39611e-15 1.4924e-14 1.01681e-15 0 0 -7.42242e-15 -7.22207e-15 8.7187e-15 8.38329e-15 0 0 2.00379e-15 -1.87195e-14 1.67205e-14 3.59975e-15 0 0 4.86278e-15 -1.63052e-14 1.23781e-14 2.82402e-15 0 0 -6.22645e-15 1.24538e-14 -1.86975e-14 1.65731e-14 0 0 -1.95065e-15 1.37252e-14 -2.11797e-14 1.57541e-14 0 0 1.30717e-14 -1.03321e-14 9.96997e-15 -2.75166e-15 0 0 -4.21979e-16 1.7185e-14 -1.03594e-14 7.01417e-15 0 0 8.40735e-15 1.5465e-14 -1.66889e-14 9.36534e-15 0 0 2.9089e-14 -1.7226e-14 1.35064e-14 -1.16027e-14 0 0 6.91685e-15 1.22103e-14 -1.38241e-14 2.34295e-15 0 0 5.3918e-15 6.24194e-15 2.32091e-15 -1.65117e-14 0 0 -4.95803e-15 1.99683e-14 8.77659e-15 -3.08279e-14 0 0 -3.22859e-14 6.01639e-14 -2.77443e-14 -4.19578e-15 0 0 -9.77854e-15 4.3964e-15 2.04111e-14 -2.45507e-14 0 0 9.91678e-15 -2.16403e-14 1.91423e-14 -9.32666e-15 0 0 8.21553e-15 -2.92894e-14 1.56638e-14 -4.68407e-15 0 0 -1.26957e-14 -9.29532e-15 -3.40614e-15 6.52083e-15 0 0 -1.37737e-14 1.14446e-14 -2.39698e-14 1.61331e-14 0 0 -2.28855e-14 1.9839e-14 -6.72795e-15 -9.2235e-15 0 0 -1.85829e-14 1.6935e-14 -1.397e-14 1.1427e-14 0 0 -6.30787e-15 -1.20177e-14 4.57059e-14 -2.92449e-14 0 0 -6.44037e-15 -1.81509e-14 8.09303e-14 -5.59567e-14 0 0 -1.21482e-14 3.84307e-15 4.99399e-14 -2.47482e-14 0 0 1.28351e-14 -2.6973e-14 7.79374e-14 -4.10715e-14 0 0 2.05955e-14 -1.28931e-14 4.56952e-14 -2.63898e-14 0 0 -6.05589e-16 3.15029e-14 -1.1501e-15 -1.4384e-14 0 0 3.75556e-14 -5.55487e-14 7.82976e-14 -5.65397e-14 0 0 3.81905e-14 -5.95804e-14 4.2946e-14 -1.88903e-15 0 0 1.56928e-14 -2.0093e-14 -1.48345e-14 3.13701e-14 0 0 2.09486e-14 -4.18491e-14 2.01097e-14 -2.08519e-14 0 0 1.62479e-14 -3.76327e-14 1.68353e-14 -1.9231e-14 0 0 1.37276e-15 -9.41655e-15 -5.57038e-14 6.34794e-14 0 0 -8.47327e-15 2.379e-14 -1.35614e-13 1.44947e-13 0 0 2.03862e-15 -8.22031e-15 -4.47022e-14 3.23348e-14 0 0 3.63462e-14 -8.36107e-14 7.72173e-14 -8.14963e-14 0 0 3.36117e-15 -1.15155e-14 -1.04865e-14 -1.79536e-14 0 0 -2.11427e-14 2.45795e-14 -5.1152e-14 2.72598e-15 0 0 -5.90661e-14 7.5398e-14 -8.2173e-14 -1.11149e-14 0 0 -2.04593e-14 6.46522e-14 -1.21568e-13 9.69478e-15 0 0 8.37543e-14 -5.74409e-14 -4.19868e-14 -3.07459e-14 0 0 4.64482e-14 -1.40969e-15 -8.65408e-14 -1.51854e-14 0 0 4.58394e-14 -3.96596e-15 -9.28644e-14 1.10849e-15 0 0 8.20763e-14 -5.36456e-14 -6.08638e-14 -1.1567e-14 0 0 8.36967e-14 -8.58907e-14 -1.04506e-14 -2.62816e-14 0 0 5.01852e-14 -8.20855e-14 6.42127e-14 -7.44397e-14 0 0 -2.96115e-14 5.34372e-14 -7.09082e-14 1.22728e-14 0 0 -1.91419e-14 4.97512e-14 -9.94353e-14 5.80643e-14 0 0 -2.00853e-14 4.47873e-14 -8.08992e-14 7.40421e-14 0 0 -5.52748e-14 1.64665e-13 -2.07501e-13 1.78875e-13 0 0 -1.89216e-14 1.38666e-13 -1.06749e-13 1.03776e-13 0 0 6.62347e-14 2.0769e-14 8.47739e-14 -3.1971e-14 0 0 9.79311e-14 -2.99752e-14 1.53823e-13 -7.04837e-14 0 0 -9.49724e-14 2.4514e-13 -8.66457e-14 6.47183e-14 0 0 -8.32879e-14 2.75448e-13 -1.42887e-13 9.98813e-14 0 0 7.39236e-14 6.6998e-14 4.28345e-14 -1.53086e-14 0 0 9.55481e-14 1.12039e-13 -6.40791e-14 5.43987e-14 0 0 1.33932e-13 4.44558e-14 3.63074e-14 -3.9587e-14 0 0 1.04973e-13 6.77226e-14 1.70894e-14 -4.07977e-14 0 0 9.37467e-14 8.06931e-15 -9.03922e-14 -6.02483e-14 0 0 -1.21694e-13 -3.78882e-13 -4.12382e-13 -3.12447e-13 0 0 -1.2069e-12 -1.97515e-12 -2.12054e-12 -1.24514e-12 0 0 -5.36769e-12 -8.75204e-12 -8.83744e-12 -5.41546e-12 0 0 -2.04418e-11 -3.32141e-11 -3.34118e-11 -2.04953e-11 0 0 -6.90706e-11 -1.12041e-10 -1.12345e-10 -6.92326e-11 0 0 -2.09209e-10 -3.39081e-10 -3.39315e-10 -2.09679e-10 0 0 -5.74547e-10 -9.30142e-10 -9.30608e-10 -5.75148e-10 0 0 -1.45157e-09 -2.34923e-09 -2.35006e-09 -1.4524e-09 0 0 -3.43731e-09 -5.5626e-09 -5.56391e-09 -3.43904e-09 0 0 -7.76952e-09 -1.25734e-08 -1.25761e-08 -7.77387e-09 0 0 -1.70216e-08 -2.7548e-08 -2.75557e-08 -1.70345e-08 0 0 -3.65502e-08 -5.91623e-08 -5.919e-08 -3.65955e-08 0 0 -7.63258e-08 -1.23582e-07 -1.23687e-07 -7.64946e-08 0 0 -1.49918e-07 -2.42865e-07 -2.43228e-07 -1.50504e-07 0 0 -2.73263e-07 -4.43017e-07 -4.4409e-07 -2.74999e-07 0 0 -4.67492e-07 -7.58649e-07 -7.61406e-07 -4.71953e-07 0 0 -7.5994e-07 -1.23474e-06 -1.24108e-06 -7.70199e-07 0 0 -1.18477e-06 -1.92779e-06 -1.94112e-06 -1.20635e-06 0 0 -1.78366e-06 -2.90706e-06 -2.93308e-06 -1.8257e-06 0 0 -2.60572e-06 -4.25492e-06 -4.30284e-06 -2.6835e-06 0 0 -3.70745e-06 -6.06542e-06 -6.14749e-06 -3.8393e-06 0 0 -5.15011e-06 -8.44606e-06 -8.58894e-06 -5.38343e-06 0 0 -6.9988e-06 -1.14969e-05 -1.16919e-05 -7.31471e-06 0 0 -9.32162e-06 -1.53528e-05 -1.57617e-05 -9.95388e-06 0 0 -1.21548e-05 -2.00753e-05 -2.03529e-05 -1.27539e-05 0 0 -1.56394e-05 -2.57508e-05 -2.67985e-05 -1.69098e-05 0 0 -1.95778e-05 -3.26789e-05 -3.30462e-05 -2.0893e-05 0 0 -2.44769e-05 -4.00193e-05 -4.16181e-05 -2.63357e-05 0 0 -2.9547e-05 -4.94923e-05 -5.08684e-05 -3.20068e-05 0 0 -3.58355e-05 -5.88395e-05 -6.0102e-05 -3.80067e-05 0 0 -4.2052e-05 -6.94192e-05 -7.12337e-05 -4.49455e-05 0 0 -4.93735e-05 -8.11775e-05 -8.26674e-05 -5.18327e-05 0 0 -5.66784e-05 -9.27301e-05 -9.37515e-05 -5.84033e-05 0 0 -6.43596e-05 -0.000104235 -0.000104307 -6.44979e-05 0 0 -7.22852e-05 -0.000115644 -0.000114219 -6.99194e-05 0 0 -8.00562e-05 -0.000126586 -0.000123049 -7.43014e-05 0 0 -8.74895e-05 -0.000136496 -0.0001301 -7.71723e-05 0 0 -9.44845e-05 -0.000144835 -0.000134705 -7.85536e-05 0 0 -0.000100913 -0.000151254 -0.000137037 -7.71482e-05 0 0 -0.000106586 -0.000155618 -0.000135441 -7.37424e-05 0 0 -0.000111294 -0.000158042 -0.000131839 -6.8364e-05 0 0 -0.000114789 -0.000158225 -0.000125502 -6.09583e-05 0 0 -0.000116946 -0.000156278 -0.000116271 -5.22919e-05 0 0 -0.000116551 -0.000151747 -0.000107416 -4.46856e-05 0 0 -0.000113879 -0.000145857 -9.81268e-05 -3.87992e-05 0 0 -0.000107688 -0.000137234 -9.82609e-05 -4.10848e-05 0 0 -9.90251e-05 -0.000132077 -0.000102277 -4.7949e-05 0 0 -9.16612e-05 -0.000134646 -0.000113481 -6.35227e-05 0 0 -9.141e-05 -0.000142361 -0.00013872 -8.2492e-05 0 0 -9.24491e-05 -0.000152419 -0.00016385 -0.000103752 0 0 -9.70389e-05 -0.000172419 -0.000190353 -0.000131015 0 0 -0.00010577 -0.000204835 -0.000232106 -0.000159256 0 0 -0.000115073 -0.000242408 -0.000282017 -0.000186903 0 0 -0.000126477 -0.00027995 -0.000331753 -0.000213166 0 0 -0.000144323 -0.000312027 -0.000377598 -0.000236001 0 0 -0.000177134 -0.000346235 -0.000414349 -0.00025962 0 0 -0.000224101 -0.000407118 -0.000457818 -0.000298981 0 0 -0.000274899 -0.00050745 -0.000528916 -0.000348207 0 0 -0.000323181 -0.000630244 -0.000636773 -0.000368141 0 0 -0.000360827 -0.000753522 -0.000780373 -0.000363687 0 0 -0.000402673 -0.000890639 -0.000899583 -0.000335972 0 0 -0.000500836 -0.00104328 -0.000901997 -0.000232645 0 0 -0.000672403 -0.00121078 -0.000866666 -1.15622e-05 0 0 -0.000868253 -0.0013936 -0.000795808 0.000223347 0 0 -0.000971615 -0.00153372 -0.000792164 0.000330082 0 0 -0.000949639 -0.00148046 -0.000746725 0.000283441 0 0 -0.000867123 -0.00122376 -0.000511368 5.31914e-05 0 0 -0.000706667 -0.000794693 -0.000406977 -0.000295384 0 0 -0.000573519 -0.000779537 -0.000466842 -0.000297001 0 0 -0.000487269 -0.000778548 -0.000683041 -0.000294178 0 0 -0.000126083 -0.000461054 -0.000613969 -0.00044753 0 0 0.0011557 0.00129055 0.000244727 -0.000598556 0 0 0.0017326 0.00260654 0.00136087 -0.000505723 0 0 0.00171604 0.00261393 0.00159801 -0.000143545 0 0 0.0016262 0.00244399 0.00157886 0.000333696 0 0 0.00139838 0.00201864 0.00144722 0.00051657 0 0 0.00116457 0.00160876 0.00120935 0.000517535 0 0 0.000956115 0.00127485 0.000997936 0.000506912 0 0 0.000789214 0.00103948 0.000839309 0.000479606 0 0 0.000668303 0.000890419 0.000736557 0.000447513 0 0 0.000582958 0.000796477 0.000675592 0.000415841 0 0 0.000514019 0.000728127 0.00063987 0.000385925 0 0 0.000444314 0.000662749 0.000609873 0.000356127 0 0 0.000377173 0.000595313 0.00057008 0.000327254 0 0 0.000327132 0.00053563 0.000527438 0.000304339 0 0 0.000300316 0.000491328 0.000487066 0.000288653 0 0 0.000284903 0.00045849 0.000452175 0.000273799 0 0 0.000264266 0.000423776 0.000417895 0.00025447 0 0 0.000238256 0.000382043 0.000377355 0.000230585 0 0 0.000207305 0.00033258 0.000328918 0.000201369 0 0 0.000171337 0.00027505 0.000272294 0.000166889 0 0 0.000131897 0.000211881 0.000209956 0.000128792 0 0 9.23819e-05 0.000148521 0.00014733 9.04572e-05 0 0 5.74048e-05 9.23688e-05 9.17315e-05 5.63738e-05 0 0 3.09323e-05 4.9821e-05 4.95382e-05 3.04749e-05 0 0 1.42591e-05 2.29902e-05 2.28895e-05 1.40961e-05 0 0 5.71413e-06 9.22179e-06 9.1923e-06 5.66642e-06 0 0 2.07586e-06 3.35285e-06 3.34549e-06 2.06395e-06 0 0 7.1379e-07 1.15359e-06 1.15193e-06 7.11098e-07 0 0 2.38861e-07 3.86197e-07 3.85842e-07 2.38285e-07 0 0 7.87903e-08 1.27426e-07 1.27352e-07 7.86714e-08 0 0 2.57487e-08 4.16505e-08 4.16355e-08 2.57249e-08 0 0 8.351e-09 1.35098e-08 1.3507e-08 8.34628e-09 0 0 2.68894e-09 4.35035e-09 4.34986e-09 2.68802e-09 0 0 8.59399e-10 1.39075e-09 1.39047e-09 8.59301e-10 0 0 2.72619e-10 4.41282e-10 4.41141e-10 2.72647e-10 0 0 8.59123e-11 1.38885e-10 1.39056e-10 8.5866e-11 0 0 2.6986e-11 4.33547e-11 4.36869e-11 2.6941e-11 0 0 8.47949e-12 1.35091e-11 1.3737e-11 8.57969e-12 0 0 2.63008e-12 4.42026e-12 4.31434e-12 2.90952e-12 0 0 8.94277e-13 1.52568e-12 1.56149e-12 1.10714e-12 0 0 3.94241e-13 6.06985e-13 8.16386e-13 4.56332e-13 0 0 2.62469e-13 3.46747e-13 5.79431e-13 1.75303e-13 0 0 2.14934e-13 2.41443e-13 5.37774e-13 3.78729e-14 0 0 9.85816e-14 3.67086e-13 2.97287e-13 2.79945e-13 0 0 1.25363e-13 3.97159e-13 9.04425e-14 5.6859e-13 0 0 2.32065e-13 2.96744e-13 9.32233e-14 5.96604e-13 0 0 2.38695e-13 2.19888e-13 2.50863e-13 4.68217e-13 0 0 9.42934e-14 3.85005e-13 6.9716e-14 5.72264e-13 0 0 6.21109e-14 3.82092e-13 9.86247e-14 4.45267e-13 0 0 6.61578e-14 3.22279e-13 2.81469e-13 2.06105e-13 0 0 1.97821e-13 1.59352e-13 3.57345e-13 2.3131e-13 0 0 1.15937e-13 2.22835e-13 3.88029e-13 2.17777e-13 0 0 7.31424e-14 3.47829e-13 2.7897e-13 2.10555e-13 0 0 2.17237e-13 3.21466e-13 2.3018e-13 1.04599e-13 0 0 1.09634e-13 5.06821e-13 1.71052e-13 -3.57317e-15 0 0 8.2022e-14 5.83104e-13 2.03349e-13 -1.54283e-13 0 0 2.91491e-13 3.38661e-13 4.55404e-13 -3.74852e-13 0 0 2.79608e-13 3.67497e-13 4.12635e-13 -2.33766e-13 0 0 2.2425e-13 4.47279e-13 2.42888e-13 1.43727e-14 0 0 2.97171e-13 1.67265e-13 4.76054e-13 -5.79921e-14 0 0 1.11263e-13 3.50991e-13 2.18181e-13 1.2407e-13 0 0 3.36523e-14 4.49794e-13 -2.82027e-15 2.72912e-13 0 0 9.73095e-15 5.47208e-13 -2.73124e-13 4.9825e-13 0 0 1.0446e-14 6.79282e-13 -4.18271e-13 4.49155e-13 0 0 1.92111e-13 3.08346e-13 9.81018e-14 -1.33694e-14 0 0 2.03377e-13 1.4781e-13 2.47116e-13 -5.64514e-14 0 0 1.91424e-13 1.81289e-13 -1.15208e-14 2.13871e-13 0 0 2.72199e-13 1.35714e-13 -2.45002e-13 4.78738e-13 0 0 2.38917e-13 1.9636e-13 -3.27483e-13 5.13282e-13 0
				</DataArray>
				<DataArray Name="VitesseY" type="Float32" format="ascii">