<?xml version="1.0"?>
<VTKFile type="PolyData">
	<PolyData>
		<Piece NumberOfPoints="1206" NumberOfPolys="1000">
			<Points>
				<DataArray type="Float32" NumberOfComponents="3" format="ascii">
 0 0 0 0.02 0 0 0.04 0 0 0.06 0 0 0.08 0 0 0.1 0 0 0 0.005 0 0.02 0.005 0 0.04 0.005 0 0.06 0.005 0 0.08 0.005 0 0.1 0.005 0 0 0.01 0 0.02 0.01 0 0.04 0.01 0 0.06 0.01 0 0.08 0.01 0 0.1 0.01 0 0 0.015 0 0.02 0.015 0 0.04 0.015 0 0.06 0.015 0 0.08 0.015 0 0.1 0.015 0 0 0.02 0 0.02 0.02 0 0.04 0.02 0 0.06 0.02 0 0.08 0.02 0 0.1 0.02 0 0 0.025 0 0.02 0.025 0 0.04 0.025 0 0.06 0.025 0 0.08 0.025 0 0.1 0.025 0 0 0.03 0 0.02 0.03 0 0.04 0.03 0 0.06 0.03 0 0.08 0.03 0 0.1 0.03 0 0 0.035 0 0.02 0.035 0 0.04 0.035 0 0.06 0.035 0 0.08 0.035 0 0.1 0.035 0 0 0.04 0 0.02 0.04 0 0.04 0.04 0 0.06 0.04 0 0.08 0.04 0 0.1 0.04 0 0 0.045 0 0.02 0.045 0 0.04 0.045 0 0.06 0.045 0 0.08 0.045 0 0.1 0.045 0 0 0.05 0 0.02 0.05 0 0.04 0.05 0 0.06 0.05 0 0.08 0.05 0 0.1 0.05 0 0 0.055 0 0.02 0.055 0 0.04 0.055 0 0.06 0.055 0 0.08 0.055 0 0.1 0.055 0 0 0.06 0 0.02 0.06 0 0.04 0.06 0 0.06 0.06 0 0.08 0.06 0 0.1 0.06 0 0 0.065 0 0.02 0.065 0 0.04 0.065 0 0.06 0.065 0 0.08 0.065 0 0.1 0.065 0 0 0.07 0 0.02 0.07 0 0.04 0.07 0 0.06 0.07 0 0.08 0.07 0 0.1 0.07 0 0 0.075 0 0.02 0.075 0 0.04 0.075 0 0.06 0.075 0 0.08 0.075 0 0.1 0.075 0 0 0.08 0 0.02 0.08 0 0.04 0.08 0 0.06 0.08 0 0.08 0.08 0 0.1 0.08 0 0 0.085 0 0.02 0.085 0 0.04 0.085 0 0.06 0.085 0 0.08 0.085 0 0.1 0.085 0 0 0.09 0 0.02 0.09 0 0.04 0.09 0 0.06 0.09 0 0.08 0.09 0 0.1 0.09 0 0 0.095 0 0.02 0.095 0 0.04 0.095 0 0.06 0.095 0 0.08 0.095 0 0.1 0.095 0 0 0.1 0 0.02 0.1 0 0.04 0.1 0 0.06 0.1 0 0.08 0.1 0 0.1 0.1 0 0 0.105 0 0.02 0.105 0 0.04 0.105 0 0.06 0.105 0 0.08 0.105 0 0.1 0.105 0 0 0.11 0 0.02 0.11 0 0.04 0.11 0 0.06 0.11 0 0.08 0.11 0 0.1 0.11 0 0 0.115 0 0.02 0.115 0 0.04 0.115 0 0.06 0.115 0 0.08 0.115 0 0.1 0.115 0 0 0.12 0 0.02 0.12 0 0.04 0.12 0 0.06 0.12 0 0.08 0.12 0 0.1 0.12 0 0 0.125 0 0.02 0.125 0 0.04 0.125 0 0.06 0.125 0 0.08 0.125 0 0.1 0.125 0 0 0.13 0 0.02 0.13 0 0.04 0.13 0 0.06 0.13 0 0.08 0.13 0 0.1 0.13 0 0 0.135 0 0.02 0.135 0 0.04 0.135 0 0.06 0.135 0 0.08 0.135 0 0.1 0.135 0 0 0.14 0 0.02 0.14 0 0.04 0.14 0 0.06 0.14 0 0.08 0.14 0 0.1 0.14 0 0 0.145 0 0.02 0.145 0 0.04 0.145 0 0.06 0.145 0 0.08 0.145 0 0.1 0.145 0 0 0.15 0 0.02 0.15 0 0.04 0.15 0 0.06 0.15 0 0.08 0.15 0 0.1 0.15 0 0 0.155 0 0.02 0.155 0 0.04 0.155 0 0.06 0.155 0 0.08 0.155 0 0.1 0.155 0 0 0.16 0 0.02 0.16 0 0.04 0.16 0 0.06 0.16 0 0.08 0.16 0 0.1 0.16 0 0 0.165 0 0.02 0.165 0 0.04 0.165 0 0.06 0.165 0 0.08 0.165 0 0.1 0.165 0 0 0.17 0 0.02 0.17 0 0.04 0.17 0 0.06 0.17 0 0.08 0.17 0 0.1 0.17 0 0 0.175 0 0.02 0.175 0 0.04 0.175 0 0.06 0.175 0 0.08 0.175 0 0.1 0.175 0 0 0.18 0 0.02 0.18 0 0.04 0.18 0 0.06 0.18 0 0.08 0.18 0 0.1 0.18 0 0 0.185 0 0.02 0.185 0 0.04 0.185 0 0.06 0.185 0 0.08 0.185 0 0.1 0.185 0 0 0.19 0 0.02 0.19 0 0.04 0.19 0 0.06 0.19 0 0.08 0.19 0 0.1 0.19 0 0 0.195 0 0.02 0.195 0 0.04 0.195 0 0.06 0.195 0 0.08 0.195 0 0.1 0.195 0 0 0.2 0 0.02 0.2 0 0.04 0.2 0 0.06 0.2 0 0.08 0.2 0 0.1 0.2 0 0 0.205 0 0.02 0.205 0 0.04 0.205 0 0.06 0.205 0 0.08 0.205 0 0.1 0.205 0 0 0.21 0 0.02 0.21 0 0.04 0.21 0 0.06 0.21 0 0.08 0.21 0 0.1 0.21 0 0 0.215 0 0.02 0.215 0 0.04 0.215 0 0.06 0.215 0 0.08 0.215 0 0.1 0.215 0 0 0.22 0 0.02 0.22 0 0.04 0.22 0 0.06 0.22 0 0.08 0.22 0 0.1 0.22 0 0 0.225 0 0.02 0.225 0 0.04 0.225 0 0.06 0.225 0 0.08 0.225 0 0.1 0.225 0 0 0.23 0 0.02 0.23 0 0.04 0.23 0 0.06 0.23 0 0.08 0.23 0 0.1 0.23 0 0 0.235 0 0.02 0.235 0 0.04 0.235 0 0.06 0.235 0 0.08 0.235 0 0.1 0.235 0 0 0.24 0 0.02 0.24 0 0.04 0.24 0 0.06 0.24 0 0.08 0.24 0 0.1 0.24 0 0 0.245 0 0.02 0.245 0 0.04 0.245 0 0.06 0.245 0 0.08 0.245 0 0.1 0.245 0 0 0.25 0 0.02 0.25 0 0.04 0.25 0 0.06 0.25 0 0.08 0.25 0 0.1 0.25 0 0 0.255 0 0.02 0.255 0 0.04 0.255 0 0.06 0.255 0 0.08 0.255 0 0.1 0.255 0 0 0.26 0 0.02 0.26 0 0.04 0.26 0 0.06 0.26 0 0.08 0.26 0 0.1 0.26 0 0 0.265 0 0.02 0.265 0 0.04 0.265 0 0.06 0.265 0 0.08 0.265 0 0.1 0.265 0 0 0.27 0 0.02 0.27 0 0.04 0.27 0 0.06 0.27 0 0.08 0.27 0 0.1 0.27 0 0 0.275 0 0.02 0.275 0 0.04 0.275 0 0.06 0.275 0 0.08 0.275 0 0.1 0.275 0 0 0.28 0 0.02 0.28 0 0.04 0.28 0 0.06 0.28 0 0.08 0.28 0 0.1 0.28 0 0 0.285 0 0.02 0.285 0 0.04 0.285 0 0.06 0.285 0 0.08 0.285 0 0.1 0.285 0 0 0.29 0 0.02 0.29 0 0.04 0.29 0 0.06 0.29 0 0.08 0.29 0 0.1 0.29 0 0 0.295 0 0.02 0.295 0 0.04 0.295 0 0.06 0.295 0 0.08 0.295 0 0.1 0.295 0 0 0.3 0 0.02 0.3 0 0.04 0.3 0 0.06 0.3 0 0.08 0.3 0 0.1 0.3 0 0 0.305 0 0.02 0.305 0 0.04 0.305 0 0.06 0.305 0 0.08 0.305 0 0.1 0.305 0 0 0.31 0 0.02 0.31 0 0.04 0.31 0 0.06 0.31 0 0.08 0.31 0 0.1 0.31 0 0 0.315 0 0.02 0.315 0 0.04 0.315 0 0.06 0.315 0 0.08 0.315 0 0.1 0.315 0 0 0.32 0 0.02 0.32 0 0.04 0.32 0 0.06 0.32 0 0.08 0.32 0 0.1 0.32 0 0 0.325 0 0.02 0.325 0 0.04 0.325 0 0.06 0.325 0 0.08 0.325 0 0.1 0.325 0 0 0.33 0 0.02 0.33 0 0.04 0.33 0 0.06 0.33 0 0.08 0.33 0 0.1 0.33 0 0 0.335 0 0.02 0.335 0 0.04 0.335 0 0.06 0.335 0 0.08 0.335 0 0.1 0.335 0 0 0.34 0 0.02 0.34 0 0.04 0.34 0 0.06 0.34 0 0.08 0.34 0 0.1 0.34 0 0 0.345 0 0.02 0.345 0 0.04 0.345 0 0.06 0.345 0 0.08 0.345 0 0.1 0.345 0 0 0.35 0 0.02 0.35 0 0.04 0.35 0 0.06 0.35 0 0.08 0.35 0 0.1 0.35 0 0 0.355 0 0.02 0.355 0 0.04 0.355 0 0.06 0.355 0 0.08 0.355 0 0.1 0.355 0 0 0.36 0 0.02 0.36 0 0.04 0.36 0 0.06 0.36 0 0.08 0.36 0 0.1 0.36 0 0 0.365 0 0.02 0.365 0 0.04 0.365 0 0.06 0.365 0 0.08 0.365 0 0.1 0.365 0 0 0.37 0 0.02 0.37 0 0.04 0.37 0 0.06 0.37 0 0.08 0.37 0 0.1 0.37 0 0 0.375 0 0.02 0.375 0 0.04 0.375 0 0.06 0.375 0 0.08 0.375 0 0.1 0.375 0 0 0.38 0 0.02 0.38 0 0.04 0.38 0 0.06 0.38 0 0.08 0.38 0 0.1 0.38 0 0 0.385 0 0.02 0.385 0 0.04 0.385 0 0.06 0.385 0 0.08 0.385 0 0.1 0.385 0 0 0.39 0 0.02 0.39 0 0.04 0.39 0 0.06 0.39 0 0.08 0.39 0 0.1 0.39 0 0 0.395 0 0.02 0.395 0 0.04 0.395 0 0.06 0.395 0 0.08 0.395 0 0.1 0.395 0 0 0.4 0 0.02 0.4 0 0.04 0.4 0 0.06 0.4 0 0.08 0.4 0 0.1 0.4 0 0 0.405 0 0.02 0.405 0 0.04 0.405 0 0.06 0.405 0 0.08 0.405 0 0.1 0.405 0 0 0.41 0 0.02 0.41 0 0.04 0.41 0 0.06 0.41 0 0.08 0.41 0 0.1 0.41 0 0 0.415 0 0.02 0.415 0 0.04 0.415 0 0.06 0.415 0 0.08 0.415 0 0.1 0.415 0 0 0.42 0 0.02 0.42 0 0.04 0.42 0 0.06 0.42 0 0.08 0.42 0 0.1 0.42 0 0 0.425 0 0.02 0.425 0 0.04 0.425 0 0.06 0.425 0 0.08 0.425 0 0.1 0.425 0 0 0.43 0 0.02 0.43 0 0.04 0.43 0 0.06 0.43 0 0.08 0.43 0 0.1 0.43 0 0 0.435 0 0.02 0.435 0 0.04 0.435 0 0.06 0.435 0 0.08 0.435 0 0.1 0.435 0 0 0.44 0 0.02 0.44 0 0.04 0.44 0 0.06 0.44 0 0.08 0.44 0 0.1 0.44 0 0 0.445 0 0.02 0.445 0 0.04 0.445 0 0.06 0.445 0 0.08 0.445 0 0.1 0.445 0 0 0.45 0 0.02 0.45 0 0.04 0.45 0 0.06 0.45 0 0.08 0.45 0 0.1 0.45 0 0 0.455 0 0.02 0.455 0 0.04 0.455 0 0.06 0.455 0 0.08 0.455 0 0.1 0.455 0 0 0.46 0 0.02 0.46 0 0.04 0.46 0 0.06 0.46 0 0.08 0.46 0 0.1 0.46 0 0 0.465 0 0.02 0.465 0 0.04 0.465 0 0.06 0.465 0 0.08 0.465 0 0.1 0.465 0 0 0.47 0 0.02 0.47 0 0.04 0.47 0 0.06 0.47 0 0.08 0.47 0 0.1 0.47 0 0 0.475 0 0.02 0.475 0 0.04 0.475 0 0.06 0.475 0 0.08 0.475 0 0.1 0.475 0 0 0.48 0 0.02 0.48 0 0.04 0.48 0 0.06 0.48 0 0.08 0.48 0 0.1 0.48 0 0 0.485 0 0.02 0.485 0 0.04 0.485 0 0.06 0.485 0 0.08 0.485 0 0.1 0.485 0 0 0.49 0 0.02 0.49 0 0.04 0.49 0 0.06 0.49 0 0.08 0.49 0 0.1 0.49 0 0 0.495 0 0.02 0.495 0 0.04 0.495 0 0.06 0.495 0 0.08 0.495 0 0.1 0.495 0 0 0.5 0 0.02 0.5 0 0.04 0.5 0 0.06 0.5 0 0.08 0.5 0 0.1 0.5 0 0 0.505 0 0.02 0.505 0 0.04 0.505 0 0.06 0.505 0 0.08 0.505 0 0.1 0.505 0 0 0.51 0 0.02 0.51 0 0.04 0.51 0 0.06 0.51 0 0.08 0.51 0 0.1 0.51 0 0 0.515 0 0.02 0.515 0 0.04 0.515 0 0.06 0.515 0 0.08 0.515 0 0.1 0.515 0 0 0.52 0 0.02 0.52 0 0.04 0.52 0 0.06 0.52 0 0.08 0.52 0 0.1 0.52 0 0 0.525 0 0.02 0.525 0 0.04 0.525 0 0.06 0.525 0 0.08 0.525 0 0.1 0.525 0 0 0.53 0 0.02 0.53 0 0.04 0.53 0 0.06 0.53 0 0.08 0.53 0 0.1 0.53 0 0 0.535 0 0.02 0.535 0 0.04 0.535 0 0.06 0.535 0 0.08 0.535 0 0.1 0.535 0 0 0.54 0 0.02 0.54 0 0.04 0.54 0 0.06 0.54 0 0.08 0.54 0 0.1 0.54 0 0 0.545 0 0.02 0.545 0 0.04 0.545 0 0.06 0.545 0 0.08 0.545 0 0.1 0.545 0 0 0.55 0 0.02 0.55 0 0.04 0.55 0 0.06 0.55 0 0.08 0.55 0 0.1 0.55 0 0 0.555 0 0.02 0.555 0 0.04 0.555 0 0.06 0.555 0 0.08 0.555 0 0.1 0.555 0 0 0.56 0 0.02 0.56 0 0.04 0.56 0 0.06 0.56 0 0.08 0.56 0 0.1 0.56 0 0 0.565 0 0.02 0.565 0 0.04 0.565 0 0.06 0.565 0 0.08 0.565 0 0.1 0.565 0 0 0.57 0 0.02 0.57 0 0.04 0.57 0 0.06 0.57 0 0.08 0.57 0 0.1 0.57 0 0 0.575 0 0.02 0.575 0 0.04 0.575 0 0.06 0.575 0 0.08 0.575 0 0.1 0.575 0 0 0.58 0 0.02 0.58 0 0.04 0.58 0 0.06 0.58 0 0.08 0.58 0 0.1 0.58 0 0 0.585 0 0.02 0.585 0 0.04 0.585 0 0.06 0.585 0 0.08 0.585 0 0.1 0.585 0 0 0.59 0 0.02 0.59 0 0.04 0.59 0 0.06 0.59 0 0.08 0.59 0 0.1 0.59 0 0 0.595 0 0.02 0.595 0 0.04 0.595 0 0.06 0.595 0 0.08 0.595 0 0.1 0.595 0 0 0.6 0 0.02 0.6 0 0.04 0.6 0 0.06 0.6 0 0.08 0.6 0 0.1 0.6 0 0 0.605 0 0.02 0.605 0 0.04 0.605 0 0.06 0.605 0 0.08 0.605 0 0.1 0.605 0 0 0.61 0 0.02 0.61 0 0.04 0.61 0 0.06 0.61 0 0.08 0.61 0 0.1 0.61 0 0 0.615 0 0.02 0.615 0 0.04 0.615 0 0.06 0.615 0 0.08 0.615 0 0.1 0.615 0 0 0.62 0 0.02 0.62 0 0.04 0.62 0 0.06 0.62 0 0.08 0.62 0 0.1 0.62 0 0 0.625 0 0.02 0.625 0 0.04 0.625 0 0.06 0.625 0 0.08 0.625 0 0.1 0.625 0 0 0.63 0 0.02 0.63 0 0.04 0.63 0 0.06 0.63 0 0.08 0.63 0 0.1 0.63 0 0 0.635 0 0.02 0.635 0 0.04 0.635 0 0.06 0.635 0 0.08 0.635 0 0.1 0.635 0 0 0.64 0 0.02 0.64 0 0.04 0.64 0 0.06 0.64 0 0.08 0.64 0 0.1 0.64 0 0 0.645 0 0.02 0.645 0 0.04 0.645 0 0.06 0.645 0 0.08 0.645 0 0.1 0.645 0 0 0.65 0 0.02 0.65 0 0.04 0.65 0 0.06 0.65 0 0.08 0.65 0 0.1 0.65 0 0 0.655 0 0.02 0.655 0 0.04 0.655 0 0.06 0.655 0 0.08 0.655 0 0.1 0.655 0 0 0.66 0 0.02 0.66 0 0.04 0.66 0 0.06 0.66 0 0.08 0.66 0 0.1 0.66 0 0 0.665 0 0.02 0.665 0 0.04 0.665 0 0.06 0.665 0 0.08 0.665 0 0.1 0.665 0 0 0.67 0 0.02 0.67 0 0.04 0.67 0 0.06 0.67 0 0.08 0.67 0 0.1 0.67 0 0 0.675 0 0.02 0.675 0 0.04 0.675 0 0.06 0.675 0 0.08 0.675 0 0.1 0.675 0 0 0.68 0 0.02 0.68 0 0.04 0.68 0 0.06 0.68 0 0.08 0.68 0 0.1 0.68 0 0 0.685 0 0.02 0.685 0 0.04 0.685 0 0.06 0.685 0 0.08 0.685 0 0.1 0.685 0 0 0.69 0 0.02 0.69 0 0.04 0.69 0 0.06 0.69 0 0.08 0.69 0 0.1 
[...]
			<PointData Scalars="VitesseX">
				<DataArray Name="VitesseX" type="Float32" format="ascii">
 0 -2.60576e-14 5.19994e-15 1.20359e-14 -2.26678e-14 0 0 -1.77913e-14 -7.39665e-15 2.32933e-14 -3.03167e-14 0 0 -1.83777e-14 -1.3667e-16 9.29623e-15 -2.2829e-14 0 0 -8.58554e-15 -4.50819e-15 -4.43329e-15 -6.94018e-15 0 0 1.54605e-14 -3.87835e-14 1.3376e-14 -1.38944e-15 0 0 7.16015e-15 -3.06963e-14 1.21414e-14 1.23996e-14 0 0 -3.33238e-14 2.51384e-14 -1.30629e-14 3.11092e-14 0 0 -5.52759e-14 5.32514e-14 -1.06904e-14 3.00076e-14 0 0 -3.96216e-14 3.67195e-14 1.33038e-14 2.48589e-14 0 0 4.24688e-15 -1.83733e-14 6.91692e-14 2.68134e-15 0 0 4.17823e-14 -6.49599e-14 1.13627e-13 -1.80378e-14 0 0 1.40409e-14 -3.21057e-15 4.47755e-14 1.82468e-14 0 0 5.71773e-15 2.36555e-14 1.87862e-14 2.2473e-14 0 0 1.02815e-14 4.88074e-15 3.87151e-14 -1.68869e-15 0 0 2.59438e-14 -2.65666e-14 3.5669e-14 1.04219e-14 0 0 3.50288e-14 -3.63149e-14 1.94725e-14 1.279e-14 0 0 3.10713e-15 1.57364e-14 -3.16383e-14 3.78112e-15 0 0 6.84528e-14 -7.22006e-14 2.4003e-14 -1.91293e-14 0 0 9.86391e-14 -1.19094e-13 7.68925e-14 -3.92344e-14 0 0 1.30219e-14 -1.45928e-14 3.15193e-14 -2.789e-14 0 0 -7.12682e-14 9.10502e-14 -2.93369e-14 -1.53718e-14 0 0 -5.60574e-14 7.91049e-14 -4.67667e-14 1.77216e-15 0 0 2.19655e-14 -4.99159e-14 3.42054e-14 -1.11978e-14 0 0 -5.50143e-15 -3.39386e-14 6.84778e-15 1.83441e-14 0 0 -7.79e-14 2.90419e-14 -3.35172e-14 3.85567e-14 0 0 -1.05693e-13 2.81475e-14 -1.61932e-14 2.62103e-14 0 0 -4.84811e-14 -3.36595e-14 -1.39408e-14 6.35105e-14 0 0 3.3557e-14 -1.44842e-13 7.65333e-14 2.03899e-14 0 0 -2.92708e-14 -5.03949e-14 1.51471e-14 2.69046e-14 0 0 -9.99928e-14 7.68234e-14 -1.05604e-13 9.19618e-14 0 0 -9.84851e-14 1.0117e-13 -1.14355e-13 8.94509e-14 0 0 -3.86716e-14 2.18514e-14 -2.0511e-14 4.42373e-14 0 0 3.29448e-14 -9.12469e-14 9.97056e-14 -6.13315e-15 0 0 2.31755e-14 -7.42235e-14 1.24264e-13 -4.31629e-14 0 0 -7.93442e-14 9.1446e-14 -1.23802e-14 1.17647e-14 0 0 -1.5239e-13 2.0513e-13 -1.09417e-13 2.19834e-14 0 0 -3.36052e-14 3.42897e-14 1.42054e-14 -3.82525e-14 0 0 3.56184e-14 -1.04513e-13 1.34871e-13 -4.48325e-14 0 0 4.08884e-14 -1.6924e-13 2.17097e-13 -7.48883e-14 0 0 -3.84717e-14 -5.8227e-14 1.24789e-13 -5.59616e-14 0 0 -9.99196e-14 8.46849e-14 -2.9332e-14 -1.93239e-14 0 0 -5.48593e-14 3.12898e-14 2.77804e-14 -7.68884e-14 0 0 -8.37654e-14 1.96951e-14 7.06075e-14 -6.80918e-14 0 0 -2.41929e-13 1.9686e-13 -6.98231e-14 2.18862e-14 0 0 -2.71782e-13 1.96453e-13 -4.11517e-14 -3.0073e-14 0 0 -1.49798e-13 2.41417e-14 9.38412e-14 -1.19366e-13 0 0 -8.37693e-15 -1.43309e-13 1.92293e-13 -1.42627e-13 0 0 3.54142e-14 -1.63381e-13 2.09074e-13 -1.72792e-13 0 0 -9.92662e-14 6.07597e-14 9.22517e-14 -2.29796e-13 0 0 -2.77477e-13 3.52214e-13 -1.02723e-13 -2.04745e-13 0 0 -3.70035e-13 5.62475e-13 -3.04017e-13 -9.00304e-14 0 0 -1.03743e-13 2.91448e-13 -2.12062e-13 -5.83753e-14 0 0 1.17797e-13 3.2242e-14 -4.50225e-14 -1.88709e-13 0 0 1.2587e-13 -2.47314e-14 1.15984e-13 -4.13901e-13 0 0 -7.43206e-14 1.20825e-13 6.47328e-14 -3.91931e-13 0 0 -2.62254e-13 2.73906e-13 -8.9884e-14 -2.53102e-13 0 0 -1.09893e-13 1.1433e-13 9.46632e-15 -3.33957e-13 0 0 -7.03496e-14 1.89291e-13 -1.79867e-13 -2.2332e-13 0 0 -1.31988e-14 1.49856e-13 -2.87155e-13 -7.09647e-14 0 0 -3.49135e-14 7.6216e-14 -1.4338e-13 -1.51949e-13 0 0 -1.36325e-13 4.36199e-14 4.06476e-14 -3.26071e-13 0 0 -6.26204e-14 -7.4207e-14 3.74966e-14 -2.95906e-13 0 0 -6.13036e-14 1.05077e-14 -1.66334e-13 -1.7305e-13 0 0 -8.8889e-14 9.2916e-14 -2.41217e-13 -1.39636e-13 0 0 -1.33399e-13 1.92685e-13 -3.78478e-13 3.89924e-14 0 0 -1.6583e-14 -3.73851e-14 -1.04304e-13 -2.99367e-14 0 0 1.30827e-13 -3.39681e-13 3.22267e-13 -2.44799e-13 0 0 -1.23772e-13 3.34462e-14 9.81995e-14 -1.17223e-13 0 0 -2.36399e-13 2.8859e-13 -1.08374e-13 1.66552e-14 0 0 -6.57917e-14 9.05268e-14 5.81163e-14 -4.06772e-14 0 0 -3.18327e-14 5.36119e-14 8.46374e-14 -3.59251e-14 0 0 -1.14033e-14 7.74096e-14 9.54782e-14 -1.91933e-13 0 0 -1.41269e-13 3.06939e-13 -4.56036e-14 -3.63413e-13 0 0 -1.23399e-13 3.44142e-13 -1.3223e-13 -3.50081e-13 0 0 4.58886e-15 2.18314e-13 -1.15329e-13 -2.39932e-13 0 0 1.45077e-13 7.0638e-16 5.29464e-14 -2.2107e-13 0 0 1.0752e-13 1.47379e-14 1.06511e-13 -2.3531e-13 0 0 -1.84838e-13 4.60365e-13 -2.37692e-13 -1.24178e-14 0 0 -1.12815e-14 2.86177e-13 -7.58582e-14 7.1305e-15 0 0 1.14941e-13 1.49967e-13 2.06685e-14 1.53957e-14 0 0 1.11102e-13 1.82098e-13 -1.21826e-13 1.66577e-13 0 0 2.65808e-13 -1.91932e-13 2.62172e-13 -5.15451e-14 0 0 4.40913e-14 -2.24626e-13 5.08757e-13 -2.41864e-13 0 0 -1.18386e-13 -9.7941e-14 3.18701e-13 2.38889e-14 0 0 -1.23821e-13 8.16662e-14 -1.43897e-13 5.25726e-13 0 0 -8.74171e-14 1.95553e-14 -1.52579e-13 5.21142e-13 0 0 3.45684e-13 -5.49236e-13 2.37691e-13 1.9093e-13 0 0 4.21048e-14 -3.2455e-13 2.01755e-14 2.79828e-13 0 0 -8.20957e-13 3.80424e-13 -2.73481e-13 2.95559e-13 0 0 -4.20878e-13 1.29816e-14 -9.61773e-14 4.48242e-13 0 0 1.79825e-13 -5.58753e-13 1.42184e-13 6.1392e-13 0 0 1.99722e-13 -5.48728e-13 2.47741e-13 4.17733e-13 0 0 -1.47115e-13 -2.87613e-13 3.08257e-13 5.49553e-14 0 0 -9.10305e-13 5.51098e-13 4.56372e-14 -1.96894e-13 0 0 -6.674e-13 4.6396e-13 6.7971e-14 -1.45956e-13 0 0 4.18923e-14 -3.23235e-14 3.51729e-13 -1.9552e-13 0 0 -1.32846e-14 -1.42222e-13 2.33577e-13 -1.09503e-13 0 0 1.94383e-13 2.20944e-13 4.74747e-13 3.53497e-13 0 0 1.03137e-11 2.24506e-11 3.05424e-11 2.3266e-11 0 0 3.54699e-10 9.49875e-10 1.45913e-09 1.17859e-09 0 0 6.08645e-09 2.35905e-08 4.44338e-08 3.97063e-08 0 0 1.29912e-08 2.90825e-07 7.06318e-07 7.50413e-07 0 0 -5.22637e-07 -3.04083e-07 4.97579e-06 8.37626e-06 0 0 -9.78131e-07 -1.06742e-05 -2.42631e-05 -2.09507e-05 0 0 5.3131e-07 -3.82625e-05 -0.000139945 -0.000154279 0 0 -1.90401e-06 -2.86306e-05 -0.0001483 -0.00020697 0 0 -4.59344e-06 5.19961e-06 -7.17854e-05 -0.000137236 0 0 -1.68412e-06 3.29369e-05 6.01084e-05 3.67503e-05 0 0 8.221e-06 3.16148e-05 0.000178139 0.000204363 0 0 1.62731e-05 2.6253e-05 0.000213006 0.000315781 0 0 1.46842e-05 2.67172e-05 0.000208585 0.000309704 0 0 5.63678e-06 2.62708e-05 0.000145535 0.000205309 0 0 1.06637e-06 1.64845e-05 4.22218e-05 4.57401e-05 0 0 1.2144e-06 6.77809e-06 1.23493e-05 1.11764e-05 0 0 8.39563e-07 2.53428e-06 4.28259e-06 3.59947e-06 0 0 3.79363e-07 9.36355e-07 1.39965e-06 1.10582e-06 0 0 1.37412e-07 3.08807e-07 4.15737e-07 3.10418e-07 0 0 4.28854e-08 8.61045e-08 1.06318e-07 7.55912e-08 0 0 9.37435e-09 1.68008e-08 1.87372e-08 1.25095e-08 0 0 1.2894e-09 2.0926e-09 2.09943e-09 1.30051e-09 0 0 9.70197e-11 1.44174e-10 1.29251e-10 7.25053e-11 0 0 2.51107e-12 3.08016e-12 1.15272e-12 -3.0434e-15 0 0 -4.95018e-13 -1.127e-13 -1.06284e-12 -3.32719e-13 0 0 -7.2814e-14 -2.42541e-14 -2.99197e-13 -1.12558e-13 0 0 1.14626e-13 -1.44462e-13 -6.12956e-14 -9.45459e-14 0 0 1.53332e-13 -2.44452e-13 1.05354e-13 -1.80214e-13 0 0 -8.2253e-14 2.36027e-14 -7.98246e-14 -1.01122e-13 0 0 -3.11514e-13 3.66453e-13 -4.6169e-13 1.36195e-13 0 0 -7.13287e-14 1.90728e-14 -2.08043e-13 -2.48897e-14 0 0 1.2355e-13 -2.26488e-13 -8.44758e-14 -3.89952e-14 0 0 1.57393e-13 -2.7745e-13 -5.2289e-14 -1.60102e-14 0 0 -5.24023e-14 -3.1595e-14 -1.7552e-13 -4.02436e-14 0 0 -3.33797e-13 3.64253e-13 -5.10414e-13 8.14673e-14 0 0 -1.11019e-13 3.39402e-14 -2.98924e-13 4.64989e-15 0 0 1.25313e-13 -3.01771e-13 -1.31602e-13 -3.62835e-14 0 0 3.74965e-15 -2.61433e-13 -1.43087e-13 4.8528e-15 0 0 -2.24313e-13 -8.01335e-14 -1.77984e-13 -2.61726e-14 0 0 -3.14473e-13 9.10533e-14 -3.31679e-13 -3.57825e-14 0 0 -1.95472e-13 -1.32063e-13 -7.74616e-14 -2.12702e-13 0 0 -1.40894e-13 -2.35825e-13 -1.58886e-14 -1.78321e-13 0 0 -1.37672e-13 -2.96914e-13 1.34751e-13 -2.7859e-13 0 0 -1.44629e-13 -4.53604e-13 4.9419e-13 -4.47263e-13 0 0 -5.85802e-13 1.79605e-13 -1.41387e-13 1.83324e-13 0 0 -7.23971e-13 3.18248e-13 -2.15365e-13 3.50285e-13 0 0 -1.99844e-13 -4.92051e-13 6.44297e-13 -1.2085e-13 0 0 9.64516e-14 -6.606e-13 6.67507e-13 -7.89252e-14 0 0 -1.35622e-13 -4.70046e-14 1.14941e-13 1.94965e-13 0 0 -5.34659e-13 6.55712e-13 -3.15581e-13 2.65711e-13 0 0 -4.41393e-13 4.91912e-13 -8.12357e-14 1.65613e-13 0 0 8.39827e-14 -5.41764e-13 9.77625e-13 -2.87137e-13 0 0 4.81429e-15 -5.95043e-13 1.09527e-12 -4.71972e-13 0 0 -4.144e-13 1.04084e-13 3.10684e-13 -6.6257e-14 0 0 -4.93797e-13 3.921e-13 -3.34653e-13 4.99139e-13 0 0 -3.7652e-13 2.17185e-13 -4.99857e-13 6.50304e-13 0 0 -8.58802e-14 -2.14342e-13 -2.80226e-13 4.42438e-13 0 0 8.60908e-14 -4.49379e-13 4.08166e-15 4.82643e-14 0 0 -2.6949e-13 -9.12573e-14 -8.26095e-14 -5.35741e-14 0 0 -7.18378e-13 3.5795e-13 -3.48912e-13 2.19449e-14 0 0 -3.49252e-13 -3.04893e-13 2.34113e-13 -4.51739e-13 0 0 3.77087e-13 -1.26102e-12 7.80461e-13 -8.81385e-13 0 0 3.24168e-13 -1.15586e-12 4.4688e-13 -8.4401e-13 0 0 -7.41767e-13 4.48088e-13 -1.04354e-12 -5.79888e-14 0 0 -1.15801e-12 1.03354e-12 -1.4637e-12 3.52457e-13 0 0 -2.98635e-13 -2.54096e-13 -3.27007e-13 1.53582e-13 0 0 4.45266e-13 -1.27926e-12 4.81149e-13 3.36756e-14 0 0 1.4634e-13 -1.10065e-12 6.36097e-13 -1.41961e-13 0 0 -5.58723e-13 -1.37276e-13 -3.00016e-13 3.16601e-13 0 0 -6.8386e-13 3.44044e-13 -1.4357e-12 1.11291e-12 0 0 -3.4725e-13 -4.59822e-14 -1.29704e-12 1.03088e-12 0 0 -4.51358e-13 1.7318e-14 -1.09426e-12 8.87349e-13 0 0 -5.43936e-13 -2.57512e-14 -6.2933e-13 3.95838e-13 0 0 -1.0718e-13 -7.71975e-13 2.35067e-13 -3.70741e-13 0 0 -6.11827e-14 -6.79891e-13 -1.72287e-13 -1.16192e-13 0 0 -3.93176e-13 -1.88519e-13 -5.90465e-13 -7.61426e-14 0 0 -7.25203e-13 3.18752e-13 -8.16782e-13 -1.73755e-13 0 0 -3.85107e-13 -6.29693e-14 -5.4989e-13 -2.66171e-13 0 0 2.37864e-13 -1.00721e-12 1.87224e-13 -6.4862e-13 0 0 1.07556e-13 -8.57784e-13 -4.08209e-16 -4.16019e-13 0 0 -5.30603e-13 -7.08677e-14 -4.38976e-13 -1.05603e-13 0 0 -8.84512e-13 5.05112e-13 -7.0049e-13 -7.57852e-14 0 0 -4.90891e-13 8.72161e-15 -3.27788e-13 -2.5554e-13 0 0 -3.45679e-14 -6.88333e-13 9.78455e-14 -4.01499e-13 0 0 -1.07949e-13 -5.56235e-13 -2.60662e-13 -1.97187e-13 0 0 -3.47878e-13 -3.11527e-13 -3.72444e-13 -3.48801e-13 0 0 -6.8391e-13 1.14251e-13 -4.23356e-13 -5.55727e-13 0 0 -5.34047e-13 -1.17915e-13 -7.01732e-14 -7.92669e-13 0 0 1.7754e-13 -1.01653e-12 5.89384e-13 -1.08404e-12 0 0 -3.73181e-14 -7.44067e-13 2.06162e-13 -6.56762e-13 0 0 -9.33673e-13 2.64245e-13 -5.0032e-13 -2.30513e-13 0 0 -1.23182e-12 7.59561e-13 -9.05246e-13 -1.45859e-13 0 0 -5.39653e-13 -2.12316e-13 3.07041e-14 -7.30813e-13 0 0 -1.06089e-13 -8.88086e-13 7.67984e-13 -1.13836e-12 0 0 -9.68019e-13 4.29491e-13 -4.2353e-13 -4.38202e-13 0 0 -1.48111e-12 1.10418e-12 -7.42709e-13 -3.16018e-13 0 0 -5.62957e-13 -2.15479e-13 5.08249e-13 -9.62057e-13 0 0 4.72091e-13 -1.52853e-12 1.4172e-12 -1.47726e-12 0 0 1.30688e-13 -7.84599e-13 6.94214e-13 -1.27825e-12 0 0 -1.12978e-12 1.10423e-12 -7.01926e-13 -7.46493e-13 0 0 -1.23308e-12 1.14496e-12 -5.37218e-13 -1.09837e-12 0 0 -8.96058e-15 -6.19642e-13 7.63811e-13 -1.71977e-12 0 0 6.77978e-13 -1.56023e-12 1.36221e-12 -1.84766e-12 0
				</DataArray>
				<DataArray Name="VitesseY" type="Float32" format="ascii">