<?xml version="1.0"?>
<VTKFile type="PolyData">
	<PolyData>
		<Piece NumberOfPoints="1206" NumberOfPolys="1000">
			<Points>
				<DataArray type="Float32" NumberOfComponents="3" format="ascii">
 0 0 0 0.02 0 0 0.04 0 0 0.06 0 0 0.08 0 0 0.1 0 0 0 0.005 0 0.02 0.005 0 0.04 0.005 0 0.06 0.005 0 0.08 0.005 0 0.1 0.005 0 0 0.01 0 0.02 0.01 0 0.04 0.01 0 0.06 0.01 0 0.08 0.01 0 0.1 0.01 0 0 0.015 0 0.02 0.015 0 0.04 0.015 0 0.06 0.015 0 0.08 0.015 0 0.1 0.015 0 0 0.02 0 0.02 0.02 0 0.04 0.02 0 0.06 0.02 0 0.08 0.02 0 0.1 0.02 0 0 0.025 0 0.02 0.025 0 0.04 0.025 0 0.06 0.025 0 0.08 0.025 0 0.1 0.025 0 0 0.03 0 0.02 0.03 0 0.04 0.03 0 0.06 0.03 0 0.08 0.03 0 0.1 0.03 0 0 0.035 0 0.02 0.035 0 0.04 0.035 0 0.06 0.035 0 0.08 0.035 0 0.1 0.035 0 0 0.04 0 0.02 0.04 0 0.04 0.04 0 0.06 0.04 0 0.08 0.04 0 0.1 0.04 0 0 0.045 0 0.02 0.045 0 0.04 0.045 0 0.06 0.045 0 0.08 0.045 0 0.1 0.045 0 0 0.05 0 0.02 0.05 0 0.04 0.05 0 0.06 0.05 0 0.08 0.05 0 0.1 0.05 0 0 0.055 0 0.02 0.055 0 0.04 0.055 0 0.06 0.055 0 0.08 0.055 0 0.1 0.055 0 0 0.06 0 0.02 0.06 0 0.04 0.06 0 0.06 0.06 0 0.08 0.06 0 0.1 0.06 0 0 0.065 0 0.02 0.065 0 0.04 0.065 0 0.06 0.065 0 0.08 0.065 0 0.1 0.065 0 0 0.07 0 0.02 0.07 0 0.04 0.07 0 0.06 0.07 0 0.08 0.07 0 0.1 0.07 0 0 0.075 0 0.02 0.075 0 0.04 0.075 0 0.06 0.075 0 0.08 0.075 0 0.1 0.075 0 0 0.08 0 0.02 0.08 0 0.04 0.08 0 0.06 0.08 0 0.08 0.08 0 0.1 0.08 0 0 0.085 0 0.02 0.085 0 0.04 0.085 0 0.06 0.085 0 0.08 0.085 0 0.1 0.085 0 0 0.09 0 0.02 0.09 0 0.04 0.09 0 0.06 0.09 0 0.08 0.09 0 0.1 0.09 0 0 0.095 0 0.02 0.095 0 0.04 0.095 0 0.06 0.095 0 0.08 0.095 0 0.1 0.095 0 0 0.1 0 0.02 0.1 0 0.04 0.1 0 0.06 0.1 0 0.08 0.1 0 0.1 0.1 0 0 0.105 0 0.02 0.105 0 0.04 0.105 0 0.06 0.105 0 0.08 0.105 0 0.1 0.105 0 0 0.11 0 0.02 0.11 0 0.04 0.11 0 0.06 0.11 0 0.08 0.11 0 0.1 0.11 0 0 0.115 0 0.02 0.115 0 0.04 0.115 0 0.06 0.115 0 0.08 0.115 0 0.1 0.115 0 0 0.12 0 0.02 0.12 0 0.04 0.12 0 0.06 0.12 0 0.08 0.12 0 0.1 0.12 0 0 0.125 0 0.02 0.125 0 0.04 0.125 0 0.06 0.125 0 0.08 0.125 0 0.1 0.125 0 0 0.13 0 0.02 0.13 0 0.04 0.13 0 0.06 0.13 0 0.08 0.13 0 0.1 0.13 0 0 0.135 0 0.02 0.135 0 0.04 0.135 0 0.06 0.135 0 0.08 0.135 0 0.1 0.135 0 0 0.14 0 0.02 0.14 0 0.04 0.14 0 0.06 0.14 0 0.08 0.14 0 0.1 0.14 0 0 0.145 0 0.02 0.145 0 0.04 0.145 0 0.06 0.145 0 0.08 0.145 0 0.1 0.145 0 0 0.15 0 0.02 0.15 0 0.04 0.15 0 0.06 0.15 0 0.08 0.15 0 0.1 0.15 0 0 0.155 0 0.02 0.155 0 0.04 0.155 0 0.06 0.155 0 0.08 0.155 0 0.1 0.155 0 0 0.16 0 0.02 0.16 0 0.04 0.16 0 0.06 0.16 0 0.08 0.16 0 0.1 0.16 0 0 0.165 0 0.02 0.165 0 0.04 0.165 0 0.06 0.165 0 0.08 0.165 0 0.1 0.165 0 0 0.17 0 0.02 0.17 0 0.04 0.17 0 0.06 0.17 0 0.08 0.17 0 0.1 0.17 0 0 0.175 0 0.02 0.175 0 0.04 0.175 0 0.06 0.175 0 0.08 0.175 0 0.1 0.175 0 0 0.18 0 0.02 0.18 0 0.04 0.18 0 0.06 0.18 0 0.08 0.18 0 0.1 0.18 0 0 0.185 0 0.02 0.185 0 0.04 0.185 0 0.06 0.185 0 0.08 0.185 0 0.1 0.185 0 0 0.19 0 0.02 0.19 0 0.04 0.19 0 0.06 0.19 0 0.08 0.19 0 0.1 0.19 0 0 0.195 0 0.02 0.195 0 0.04 0.195 0 0.06 0.195 0 0.08 0.195 0 0.1 0.195 0 0 0.2 0 0.02 0.2 0 0.04 0.2 0 0.06 0.2 0 0.08 0.2 0 0.1 0.2 0 0 0.205 0 0.02 0.205 0 0.04 0.205 0 0.06 0.205 0 0.08 0.205 0 0.1 0.205 0 0 0.21 0 0.02 0.21 0 0.04 0.21 0 0.06 0.21 0 0.08 0.21 0 0.1 0.21 0 0 0.215 0 0.02 0.215 0 0.04 0.215 0 0.06 0.215 0 0.08 0.215 0 0.1 0.215 0 0 0.22 0 0.02 0.22 0 0.04 0.22 0 0.06 0.22 0 0.08 0.22 0 0.1 0.22 0 0 0.225 0 0.02 0.225 0 0.04 0.225 0 0.06 0.225 0 0.08 0.225 0 0.1 0.225 0 0 0.23 0 0.02 0.23 0 0.04 0.23 0 0.06 0.23 0 0.08 0.23 0 0.1 0.23 0 0 0.235 0 0.02 0.235 0 0.04 0.235 0 0.06 0.235 0 0.08 0.235 0 0.1 0.235 0 0 0.24 0 0.02 0.24 0 0.04 0.24 0 0.06 0.24 0 0.08 0.24 0 0.1 0.24 0 0 0.245 0 0.02 0.245 0 0.04 0.245 0 0.06 0.245 0 0.08 0.245 0 0.1 0.245 0 0 0.25 0 0.02 0.25 0 0.04 0.25 0 0.06 0.25 0 0.08 0.25 0 0.1 0.25 0 0 0.255 0 0.02 0.255 0 0.04 0.255 0 0.06 0.255 0 0.08 0.255 0 0.1 0.255 0 0 0.26 0 0.02 0.26 0 0.04 0.26 0 0.06 0.26 0 0.08 0.26 0 0.1 0.26 0 0 0.265 0 0.02 0.265 0 0.04 0.265 0 0.06 0.265 0 0.08 0.265 0 0.1 0.265 0 0 0.27 0 0.02 0.27 0 0.04 0.27 0 0.06 0.27 0 0.08 0.27 0 0.1 0.27 0 0 0.275 0 0.02 0.275 0 0.04 0.275 0 0.06 0.275 0 0.08 0.275 0 0.1 0.275 0 0 0.28 0 0.02 0.28 0 0.04 0.28 0 0.06 0.28 0 0.08 0.28 0 0.1 0.28 0 0 0.285 0 0.02 0.285 0 0.04 0.285 0 0.06 0.285 0 0.08 0.285 0 0.1 0.285 0 0 0.29 0 0.02 0.29 0 0.04 0.29 0 0.06 0.29 0 0.08 0.29 0 0.1 0.29 0 0 0.295 0 0.02 0.295 0 0.04 0.295 0 0.06 0.295 0 0.08 0.295 0 0.1 0.295 0 0 0.3 0 0.02 0.3 0 0.04 0.3 0 0.06 0.3 0 0.08 0.3 0 0.1 0.3 0 0 0.305 0 0.02 0.305 0 0.04 0.305 0 0.06 0.305 0 0.08 0.305 0 0.1 0.305 0 0 0.31 0 0.02 0.31 0 0.04 0.31 0 0.06 0.31 0 0.08 0.31 0 0.1 0.31 0 0 0.315 0 0.02 0.315 0 0.04 0.315 0 0.06 0.315 0 0.08 0.315 0 0.1 0.315 0 0 0.32 0 0.02 0.32 0 0.04 0.32 0 0.06 0.32 0 0.08 0.32 0 0.1 0.32 0 0 0.325 0 0.02 0.325 0 0.04 0.325 0 0.06 0.325 0 0.08 0.325 0 0.1 0.325 0 0 0.33 0 0.02 0.33 0 0.04 0.33 0 0.06 0.33 0 0.08 0.33 0 0.1 0.33 0 0 0.335 0 0.02 0.335 0 0.04 0.335 0 0.06 0.335 0 0.08 0.335 0 0.1 0.335 0 0 0.34 0 0.02 0.34 0 0.04 0.34 0 0.06 0.34 0 0.08 0.34 0 0.1 0.34 0 0 0.345 0 0.02 0.345 0 0.04 0.345 0 0.06 0.345 0 0.08 0.345 0 0.1 0.345 0 0 0.35 0 0.02 0.35 0 0.04 0.35 0 0.06 0.35 0 0.08 0.35 0 0.1 0.35 0 0 0.355 0 0.02 0.355 0 0.04 0.355 0 0.06 0.355 0 0.08 0.355 0 0.1 0.355 0 0 0.36 0 0.02 0.36 0 0.04 0.36 0 0.06 0.36 0 0.08 0.36 0 0.1 0.36 0 0 0.365 0 0.02 0.365 0 0.04 0.365 0 0.06 0.365 0 0.08 0.365 0 0.1 0.365 0 0 0.37 0 0.02 0.37 0 0.04 0.37 0 0.06 0.37 0 0.08 0.37 0 0.1 0.37 0 0 0.375 0 0.02 0.375 0 0.04 0.375 0 0.06 0.375 0 0.08 0.375 0 0.1 0.375 0 0 0.38 0 0.02 0.38 0 0.04 0.38 0 0.06 0.38 0 0.08 0.38 0 0.1 0.38 0 0 0.385 0 0.02 0.385 0 0.04 0.385 0 0.06 0.385 0 0.08 0.385 0 0.1 0.385 0 0 0.39 0 0.02 0.39 0 0.04 0.39 0 0.06 0.39 0 0.08 0.39 0 0.1 0.39 0 0 0.395 0 0.02 0.395 0 0.04 0.395 0 0.06 0.395 0 0.08 0.395 0 0.1 0.395 0 0 0.4 0 0.02 0.4 0 0.04 0.4 0 0.06 0.4 0 0.08 0.4 0 0.1 0.4 0 0 0.405 0 0.02 0.405 0 0.04 0.405 0 0.06 0.405 0 0.08 0.405 0 0.1 0.405 0 0 0.41 0 0.02 0.41 0 0.04 0.41 0 0.06 0.41 0 0.08 0.41 0 0.1 0.41 0 0 0.415 0 0.02 0.415 0 0.04 0.415 0 0.06 0.415 0 0.08 0.415 0 0.1 0.415 0 0 0.42 0 0.02 0.42 0 0.04 0.42 0 0.06 0.42 0 0.08 0.42 0 0.1 0.42 0 0 0.425 0 0.02 0.425 0 0.04 0.425 0 0.06 0.425 0 0.08 0.425 0 0.1 0.425 0 0 0.43 0 0.02 0.43 0 0.04 0.43 0 0.06 0.43 0 0.08 0.43 0 0.1 0.43 0 0 0.435 0 0.02 0.435 0 0.04 0.435 0 0.06 0.435 0 0.08 0.435 0 0.1 0.435 0 0 0.44 0 0.02 0.44 0 0.04 0.44 0 0.06 0.44 0 0.08 0.44 0 0.1 0.44 0 0 0.445 0 0.02 0.445 0 0.04 0.445 0 0.06 0.445 0 0.08 0.445 0 0.1 0.445 0 0 0.45 0 0.02 0.45 0 0.04 0.45 0 0.06 0.45 0 0.08 0.45 0 0.1 0.45 0 0 0.455 0 0.02 0.455 0 0.04 0.455 0 0.06 0.455 0 0.08 0.455 0 0.1 0.455 0 0 0.46 0 0.02 0.46 0 0.04 0.46 0 0.06 0.46 0 0.08 0.46 0 0.1 0.46 0 0 0.465 0 0.02 0.465 0 0.04 0.465 0 0.06 0.465 0 0.08 0.465 0 0.1 0.465 0 0 0.47 0 0.02 0.47 0 0.04 0.47 0 0.06 0.47 0 0.08 0.47 0 0.1 0.47 0 0 0.475 0 0.02 0.475 0 0.04 0.475 0 0.06 0.475 0 0.08 0.475 0 0.1 0.475 0 0 0.48 0 0.02 0.48 0 0.04 0.48 0 0.06 0.48 0 0.08 0.48 0 0.1 0.48 0 0 0.485 0 0.02 0.485 0 0.04 0.485 0 0.06 0.485 0 0.08 0.485 0 0.1 0.485 0 0 0.49 0 0.02 0.49 0 0.04 0.49 0 0.06 0.49 0 0.08 0.49 0 0.1 0.49 0 0 0.495 0 0.02 0.495 0 0.04 0.495 0 0.06 0.495 0 0.08 0.495 0 0.1 0.495 0 0 0.5 0 0.02 0.5 0 0.04 0.5 0 0.06 0.5 0 0.08 0.5 0 0.1 0.5 0 0 0.505 0 0.02 0.505 0 0.04 0.505 0 0.06 0.505 0 0.08 0.505 0 0.1 0.505 0 0 0.51 0 0.02 0.51 0 0.04 0.51 0 0.06 0.51 0 0.08 0.51 0 0.1 0.51 0 0 0.515 0 0.02 0.515 0 0.04 0.515 0 0.06 0.515 0 0.08 0.515 0 0.1 0.515 0 0 0.52 0 0.02 0.52 0 0.04 0.52 0 0.06 0.52 0 0.08 0.52 0 0.1 0.52 0 0 0.525 0 0.02 0.525 0 0.04 0.525 0 0.06 0.525 0 0.08 0.525 0 0.1 0.525 0 0 0.53 0 0.02 0.53 0 0.04 0.53 0 0.06 0.53 0 0.08 0.53 0 0.1 0.53 0 0 0.535 0 0.02 0.535 0 0.04 0.535 0 0.06 0.535 0 0.08 0.535 0 0.1 0.535 0 0 0.54 0 0.02 0.54 0 0.04 0.54 0 0.06 0.54 0 0.08 0.54 0 0.1 0.54 0 0 0.545 0 0.02 0.545 0 0.04 0.545 0 0.06 0.545 0 0.08 0.545 0 0.1 0.545 0 0 0.55 0 0.02 0.55 0 0.04 0.55 0 0.06 0.55 0 0.08 0.55 0 0.1 0.55 0 0 0.555 0 0.02 0.555 0 0.04 0.555 0 0.06 0.555 0 0.08 0.555 0 0.1 0.555 0 0 0.56 0 0.02 0.56 0 0.04 0.56 0 0.06 0.56 0 0.08 0.56 0 0.1 0.56 0 0 0.565 0 0.02 0.565 0 0.04 0.565 0 0.06 0.565 0 0.08 0.565 0 0.1 0.565 0 0 0.57 0 0.02 0.57 0 0.04 0.57 0 0.06 0.57 0 0.08 0.57 0 0.1 0.57 0 0 0.575 0 0.02 0.575 0 0.04 0.575 0 0.06 0.575 0 0.08 0.575 0 0.1 0.575 0 0 0.58 0 0.02 0.58 0 0.04 0.58 0 0.06 0.58 0 0.08 0.58 0 0.1 0.58 0 0 0.585 0 0.02 0.585 0 0.04 0.585 0 0.06 0.585 0 0.08 0.585 0 0.1 0.585 0 0 0.59 0 0.02 0.59 0 0.04 0.59 0 0.06 0.59 0 0.08 0.59 0 0.1 0.59 0 0 0.595 0 0.02 0.595 0 0.04 0.595 0 0.06 0.595 0 0.08 0.595 0 0.1 0.595 0 0 0.6 0 0.02 0.6 0 0.04 0.6 0 0.06 0.6 0 0.08 0.6 0 0.1 0.6 0 0 0.605 0 0.02 0.605 0 0.04 0.605 0 0.06 0.605 0 0.08 0.605 0 0.1 0.605 0 0 0.61 0 0.02 0.61 0 0.04 0.61 0 0.06 0.61 0 0.08 0.61 0 0.1 0.61 0 0 0.615 0 0.02 0.615 0 0.04 0.615 0 0.06 0.615 0 0.08 0.615 0 0.1 0.615 0 0 0.62 0 0.02 0.62 0 0.04 0.62 0 0.06 0.62 0 0.08 0.62 0 0.1 0.62 0 0 0.625 0 0.02 0.625 0 0.04 0.625 0 0.06 0.625 0 0.08 0.625 0 0.1 0.625 0 0 0.63 0 0.02 0.63 0 0.04 0.63 0 0.06 0.63 0 0.08 0.63 0 0.1 0.63 0 0 0.635 0 0.02 0.635 0 0.04 0.635 0 0.06 0.635 0 0.08 0.635 0 0.1 0.635 0 0 0.64 0 0.02 0.64 0 0.04 0.64 0 0.06 0.64 0 0.08 0.64 0 0.1 0.64 0 0 0.645 0 0.02 0.645 0 0.04 0.645 0 0.06 0.645 0 0.08 0.645 0 0.1 0.645 0 0 0.65 0 0.02 0.65 0 0.04 0.65 0 0.06 0.65 0 0.08 0.65 0 0.1 0.65 0 0 0.655 0 0.02 0.655 0 0.04 0.655 0 0.06 0.655 0 0.08 0.655 0 0.1 0.655 0 0 0.66 0 0.02 0.66 0 0.04 0.66 0 0.06 0.66 0 0.08 0.66 0 0.1 0.66 0 0 0.665 0 0.02 0.665 0 0.04 0.665 0 0.06 0.665 0 0.08 0.665 0 0.1 0.665 0 0 0.67 0 0.02 0.67 0 0.04 0.67 0 0.06 0.67 0 0.08 0.67 0 0.1 0.67 0 0 0.675 0 0.02 0.675 0 0.04 0.675 0 0.06 0.675 0 0.08 0.675 0 0.1 0.675 0 0 0.68 0 0.02 0.68 0 0.04 0.68 0 0.06 0.68 0 0.08 0.68 0 0.1 0.68 0 0 0.685 0 0.02 0.685 0 0.04 0.685 0 0.06 0.685 0 0.08 0.685 0 0.1 0.685 0 0 0.69 0 0.02 0.69 0 0.04 0.69 0 0.06 0.69 0 0.08 0.69 0 0.1 
[...]
			<PointData Scalars="VitesseX">
				<DataArray Name="VitesseX" type="Float32" format="ascii">
 0 5.09688e-15 -1.50676e-14 -9.68825e-15 -2.42644e-14 0 0 4.5045e-15 -1.28109e-14 -1.18394e-14 -2.22115e-14 0 0 -2.04569e-15 -1.00955e-15 -2.21691e-14 -1.4575e-14 0 0 -1.13655e-15 -4.81088e-15 -1.73098e-14 -1.62807e-14 0 0 -4.01834e-15 -6.51119e-15 -1.51323e-14 -1.44027e-14 0 0 -1.84189e-14 9.73807e-15 -2.95515e-14 -4.59207e-15 0 0 -1.37539e-14 -1.35699e-14 -2.46483e-15 -2.22844e-14 0 0 -4.04511e-15 -4.0208e-14 2.06329e-14 -4.16924e-14 0 0 -1.49515e-14 -2.57175e-14 -2.9577e-15 -2.71897e-14 0 0 -1.38362e-14 -3.57486e-14 -8.22663e-15 -1.42376e-14 0 0 -1.32744e-14 -4.25757e-14 -1.80117e-14 -3.68626e-15 0 0 -2.02007e-14 -3.88111e-14 -2.62356e-14 4.92271e-15 0 0 -7.85163e-15 -7.17775e-14 1.1533e-14 -1.34883e-14 0 0 -2.28037e-14 -4.51632e-14 -9.1584e-15 -1.52651e-15 0 0 -3.80865e-14 -1.46161e-14 -4.08401e-14 2.37848e-14 0 0 -1.9003e-14 -5.85702e-14 1.68152e-14 -2.01845e-14 0 0 -2.43555e-14 -4.04026e-14 -2.98662e-16 -1.30473e-14 0 0 -1.7509e-14 -3.26666e-14 -1.06957e-14 7.6345e-15 0 0 -3.5289e-14 -7.06456e-16 -1.92176e-14 1.48363e-14 0 0 -3.63654e-14 4.22895e-15 -7.60519e-15 7.44178e-15 0 0 -8.50144e-15 -4.57429e-14 4.60945e-14 -3.42296e-14 0 0 -2.03127e-14 -1.42423e-14 -1.59858e-14 4.2025e-15 0 0 3.63238e-15 -2.64484e-14 -3.16899e-14 2.10004e-14 0 0 -6.12969e-15 -5.54586e-15 -3.46037e-14 8.6809e-15 0 0 -1.41074e-14 -1.50268e-14 -3.65511e-15 -2.46039e-14 0 0 3.22962e-15 -8.14535e-14 6.55669e-14 -6.45179e-14 0 0 -8.23707e-14 2.34366e-14 -2.95487e-14 -1.65955e-14 0 0 -9.56091e-14 4.6184e-14 -4.29939e-14 -2.23785e-14 0 0 -3.96819e-14 -4.08793e-14 3.96456e-14 -9.95349e-14 0 0 -5.35695e-14 -2.6727e-14 8.8757e-15 -9.41322e-14 0 0 -2.49703e-14 -7.30668e-14 4.57578e-14 -1.25785e-13 0 0 -1.27748e-14 -7.58689e-14 1.82802e-14 -1.07065e-13 0 0 -3.2395e-14 -2.16318e-14 -5.68396e-14 -3.59215e-14 0 0 -3.56359e-14 -2.47709e-14 -1.71373e-14 -4.94575e-14 0 0 6.22488e-15 -8.77914e-14 4.2056e-14 -5.29683e-14 0 0 -2.41772e-14 -2.98749e-14 -3.90185e-14 1.50252e-15 0 0 -5.71126e-14 2.25426e-14 -9.4249e-14 1.82306e-14 0 0 7.14276e-15 -7.59747e-14 -1.4834e-14 9.07038e-15 0 0 -3.9271e-14 -2.54924e-14 -4.9252e-14 2.78822e-14 0 0 -3.26991e-14 -2.7402e-14 -2.59184e-14 -5.3519e-14 0 0 2.69321e-14 -8.68257e-14 7.10526e-14 -1.62712e-13 0 0 -3.27636e-14 5.33411e-16 -1.38268e-14 -8.86773e-14 0 0 -4.9582e-14 4.16166e-14 -1.25391e-13 2.59283e-14 0 0 -2.40508e-14 1.46791e-14 -9.61384e-14 -1.61811e-14 0 0 -6.75694e-14 3.59145e-14 -5.13203e-14 -8.60341e-14 0 0 -1.04854e-13 4.44429e-14 -2.5054e-14 -1.17162e-13 0 0 -8.3228e-14 1.31413e-14 1.05881e-15 -1.48521e-13 0 0 -3.26649e-14 -5.60809e-15 -2.282e-14 -1.40124e-13 0 0 -8.30596e-14 3.37833e-14 -2.27595e-14 -1.36501e-13 0 0 -1.19553e-13 4.54173e-14 -9.9411e-15 -1.04714e-13 0 0 -5.49982e-14 -1.0657e-13 9.8122e-14 -9.86662e-14 0 0 -6.73266e-14 -1.24709e-13 1.13255e-13 -8.62401e-14 0 0 -1.5491e-13 7.18862e-14 -6.59435e-14 2.93157e-14 0 0 -2.36748e-13 1.56457e-13 -1.52932e-13 1.01452e-13 0 0 -1.07401e-13 -8.34598e-14 1.15622e-13 -1.14991e-13 0 0 -3.09086e-14 -1.86443e-13 2.79244e-13 -3.04985e-13 0 0 -1.24507e-13 -4.15046e-15 1.73416e-14 -1.667e-13 0 0 -1.51831e-13 1.38132e-14 -6.8697e-14 -9.17895e-14 0 0 -1.64505e-13 -2.53657e-14 -8.74914e-14 1.01365e-15 0 0 -7.78191e-14 -1.97986e-13 1.32099e-14 -1.36959e-14 0 0 -1.44194e-13 -1.04468e-13 -8.64695e-14 -7.84757e-14 0 0 -1.45664e-13 1.31055e-14 -2.91587e-13 -6.63399e-14 0 0 9.87575e-14 -2.3568e-13 -1.81798e-13 -1.28346e-13 0 0 9.8995e-14 -1.2137e-13 -3.2311e-13 -4.98038e-14 0 0 6.11219e-14 5.63345e-15 -3.44884e-13 -7.91348e-14 0 0 3.55076e-14 -6.68402e-14 -1.30325e-13 -2.43842e-13 0 0 -1.09904e-13 6.05706e-14 -1.99185e-13 -1.94006e-13 0 0 -8.49947e-14 -8.92267e-14 -2.7947e-14 -2.5008e-13 0 0 -3.63885e-14 -2.70143e-13 2.48556e-13 -3.93597e-13 0 0 -7.22099e-14 -1.29153e-13 1.08896e-13 -4.10883e-13 0 0 1.48165e-14 -1.0955e-13 -5.62616e-14 -3.8565e-13 0 0 7.31506e-15 1.07006e-14 -3.27173e-13 -2.78278e-13 0 0 -6.58674e-14 -4.40654e-16 -2.58473e-13 -3.42286e-13 0 0 -6.06721e-14 -2.26107e-13 7.4777e-14 -5.74353e-13 0 0 -1.00388e-13 -3.01924e-13 1.33385e-13 -5.67063e-13 0 0 -2.19071e-13 -2.51294e-13 7.994e-14 -4.8058e-13 0 0 -3.26285e-13 -1.67668e-13 -1.53775e-14 -2.6276e-13 0 0 -3.76949e-13 -1.47877e-13 2.80165e-15 -7.52363e-14 0 0 -4.08104e-13 -1.86228e-13 7.99656e-14 -4.83598e-14 0 0 -4.198e-13 -2.27971e-13 2.02931e-13 -8.64608e-14 0 0 -4.31496e-13 -2.2782e-13 2.71083e-13 -2.11751e-13 0 0 -5.23613e-13 -1.67533e-13 2.54916e-13 -3.12425e-13 0 0 -5.19806e-13 -1.1975e-13 1.90448e-13 -3.4021e-13 0 0 -4.79116e-13 -1.24852e-13 1.09979e-13 -3.03428e-13 0 0 -3.77043e-13 -1.61164e-13 5.70855e-14 -2.86864e-13 0 0 -2.83182e-13 -2.08505e-13 6.33837e-16 -2.65784e-13 0 0 -2.1088e-13 -2.54925e-13 -1.06058e-13 -2.253e-13 0 0 -1.59043e-13 -2.49768e-13 -1.95607e-13 -1.86965e-13 0 0 -1.21177e-13 -2.35486e-13 -2.4843e-13 -1.91091e-13 0 0 -7.57815e-14 -2.43501e-13 -2.33274e-13 -2.00357e-13 0 0 -2.22716e-14 -2.88678e-13 -1.97874e-13 -2.29237e-13 0 0 4.63446e-15 -3.54836e-13 -1.28505e-13 -3.13455e-13 0 0 8.94599e-16 -3.71297e-13 -5.58432e-14 -4.28851e-13 0 0 -3.65368e-14 -3.52689e-13 -4.66784e-14 -5.22255e-13 0 0 -1.17616e-13 -2.79755e-13 -7.5315e-14 -5.92348e-13 0 0 -2.0454e-13 -1.79441e-13 -1.83758e-13 -5.88298e-13 0 0 -2.59862e-13 -8.066e-14 -3.05149e-13 -5.79139e-13 0 0 -2.56276e-13 -3.14299e-14 -4.04611e-13 -5.53811e-13 0 0 -2.12846e-13 -4.0928e-14 -4.88142e-13 -4.72795e-13 0 0 -1.17839e-13 -8.76858e-14 -5.73446e-13 -3.12968e-13 0 0 -3.22613e-14 -1.58213e-13 -6.495e-13 -1.66681e-13 0 0 3.50236e-14 -2.30494e-13 -6.47408e-13 -6.31609e-14 0 0 8.69503e-14 -3.00339e-13 -6.39732e-13 3.12489e-15 0 0 8.49078e-14 -3.56954e-13 -6.15916e-13 7.8962e-15 0 0 5.37616e-14 -3.93298e-13 -5.66787e-13 -1.78314e-16 0 0 -6.70816e-16 -4.24227e-13 -4.60945e-13 -4.34787e-14 0 0 -4.38762e-14 -4.7343e-13 -3.48966e-13 -8.83241e-14 0 0 -7.07588e-14 -4.63088e-13 -2.42624e-13 -1.7284e-13 0 0 -8.48517e-14 -4.82226e-13 -1.60007e-13 -2.60868e-13 0 0 -1.0871e-13 -4.24548e-13 -2.38969e-13 -1.99284e-13 0 0 -1.18883e-13 -2.32109e-13 -4.83957e-13 3.5739e-15 0 0 -9.70814e-14 -1.4933e-13 -6.50812e-13 1.88832e-13 0 0 -4.41627e-14 -1.68881e-13 -6.18876e-13 1.9412e-13 0 0 -2.36241e-14 -2.31745e-13 -4.34305e-13 7.24303e-14 0 0 -5.5167e-14 -2.00405e-13 -3.09558e-13 4.64446e-14 0 0 -1.33769e-13 -1.18344e-13 -2.38369e-13 3.02621e-14 0 0 -2.04588e-13 -1.09165e-13 -1.51803e-13 -6.12917e-14 0 0 -2.13394e-13 -1.45305e-13 -6.26275e-14 -1.74635e-13 0 0 -2.14012e-13 -1.71089e-13 -7.49139e-14 -1.39736e-13 0 0 -1.94773e-13 -2.02405e-13 -9.89754e-14 -8.32375e-14 0 0 -1.59507e-13 -2.21011e-13 -8.28776e-14 -8.25651e-14 0 0 -1.4429e-13 -2.13852e-13 -6.69398e-14 -4.7573e-14 0 0 -1.17063e-13 -2.10552e-13 -8.17e-14 4.76316e-14 0 0 -6.36969e-14 -2.00699e-13 -9.14754e-14 7.57253e-14 0 0 -5.3084e-14 -1.8757e-13 -6.40661e-14 5.9466e-14 0 0 -5.1765e-14 -1.73802e-13 -4.15307e-15 1.8684e-15 0 0 -7.87511e-14 -6.20946e-14 8.64173e-15 -8.81338e-15 0 0 -1.46356e-13 1.35425e-13 -1.03546e-13 7.19105e-14 0 0 -1.52815e-13 1.67998e-13 -1.39111e-13 3.9145e-14 0 0 -1.39204e-13 1.23156e-13 -1.02066e-13 -1.18425e-14 0 0 -4.65006e-14 -1.39e-13 5.62341e-14 -6.02832e-14 0 0 -7.97325e-15 -2.92142e-13 5.47405e-14 -3.44959e-14 0 0 -3.05511e-15 -2.94808e-13 1.48735e-14 -2.11617e-14 0 0 -1.84528e-14 -2.75624e-13 -3.92065e-14 1.96622e-14 0 0 -8.47803e-14 -1.76781e-13 -2.19415e-13 1.87006e-13 0 0 -9.2289e-14 -1.53721e-13 -2.43642e-13 1.40992e-13 0 0 -9.33279e-14 -1.67445e-13 -2.15577e-13 3.09065e-14 0 0 -1.11576e-13 -1.70865e-13 -1.58162e-13 -3.44644e-14 0 0 -1.06419e-13 -1.78627e-13 -1.51932e-13 -1.20435e-13 0 0 -6.97445e-14 -2.14755e-13 -1.56145e-13 -1.4397e-13 0 0 -5.87723e-14 -2.18824e-13 -1.69147e-13 -1.47992e-13 0 0 -6.814e-14 -2.01465e-13 -1.8656e-13 -1.61248e-13 0 0 -8.80639e-14 -1.89282e-13 -1.87512e-13 -1.61325e-13 0 0 -1.11037e-13 -2.07876e-13 -1.53018e-13 -1.53735e-13 0 0 -1.0382e-13 -2.56031e-13 -1.56593e-13 -9.78969e-14 0 0 -1.19853e-13 -2.19961e-13 -2.65207e-13 -8.21802e-14 0 0 -1.46107e-13 -2.09597e-13 -2.93326e-13 -1.83709e-13 0 0 -1.38705e-13 -2.64833e-13 -2.37751e-13 -3.19695e-13 0 0 -1.50528e-13 -2.66212e-13 -3.0373e-13 -2.94232e-13 0 0 -1.51367e-13 -2.82169e-13 -3.94557e-13 -2.94995e-13 0 0 -1.29062e-13 -3.46751e-13 -4.03211e-13 -3.54143e-13 0 0 -1.00135e-13 -3.89778e-13 -3.66705e-13 -4.87137e-13 0 0 -1.24451e-13 -3.61857e-13 -3.30615e-13 -5.08601e-13 0 0 -1.43959e-13 -3.32356e-13 -2.95514e-13 -3.02065e-13 0 0 -1.31806e-13 -3.52039e-13 -1.78019e-13 9.67444e-14 0 0 -1.15613e-13 -4.19743e-13 3.77404e-14 1.86351e-13 0 0 -1.0576e-13 -3.88308e-13 -1.76961e-14 5.59425e-14 0 0 -1.30905e-13 -2.47757e-13 -2.33916e-13 -1.67603e-14 0 0 -1.56021e-13 -1.48226e-13 -2.98397e-13 -3.95547e-14 0 0 -1.5287e-13 -1.70154e-13 -1.78549e-13 -1.26867e-13 0 0 -8.33821e-14 -2.7922e-13 1.96626e-14 -2.60473e-13 0 0 -9.51254e-14 -2.42345e-13 -7.78963e-14 -1.54794e-13 0 0 -2.18271e-13 -7.44308e-14 -2.51203e-13 1.61162e-14 0 0 -2.20581e-13 -7.52537e-14 -2.27997e-13 -1.48017e-14 0 0 -1.21457e-13 -2.45784e-13 -5.85522e-14 -1.26743e-13 0 0 -1.26011e-13 -2.17274e-13 -4.08119e-14 -2.04591e-13 0 0 -1.35166e-13 -1.49636e-13 -1.61144e-13 -1.14856e-13 0 0 -1.61886e-13 -1.10849e-13 -1.98677e-13 -1.45352e-14 0 0 -1.71946e-13 -1.06741e-13 -1.46915e-13 -8.51942e-15 0 0 -1.5828e-13 -8.19927e-14 -1.18537e-13 -6.47145e-14 0 0 -1.33691e-13 -7.56738e-14 -6.94282e-14 -1.57514e-13 0 0 -1.33722e-13 -9.03166e-14 -1.34839e-14 -1.76376e-13 0 0 -1.51766e-13 -1.04325e-13 6.23731e-14 -2.10344e-13 0 0 -2.08767e-13 -3.50931e-14 3.28949e-14 -2.03892e-13 0 0 -1.07815e-13 -1.32767e-13 7.31591e-14 -1.44063e-13 0 0 -8.94423e-14 -7.50884e-14 -4.35997e-14 -4.98155e-14 0 0 -1.54615e-13 4.89332e-14 -1.43471e-13 3.10563e-14 0 0 -4.90915e-14 -1.25601e-13 3.03133e-14 2.32797e-14 0 0 -6.47175e-14 -8.23279e-14 1.48048e-14 2.44716e-14 0 0 -1.03933e-14 -8.36552e-14 1.19693e-14 -5.01358e-14 0 0 1.10461e-13 -9.05073e-14 -8.61749e-14 8.53723e-15 0 0 7.09935e-14 8.97337e-14 -2.20635e-13 7.12083e-14 0 0 8.19971e-14 7.46975e-14 -6.94282e-14 -9.35939e-14 0 0 9.56292e-14 6.92953e-14 2.09333e-14 -1.71368e-13 0 0 5.69023e-14 1.42171e-13 -3.45157e-14 -1.36735e-13 0 0 6.77589e-14 1.34278e-13 -1.30944e-13 4.41084e-14 0 0 2.78813e-13 -1.13317e-13 -1.06875e-13 6.4136e-14 0 0 2.38871e-13 -1.85098e-14 -3.25037e-13 1.83571e-13 0 0 -9.11864e-14 4.65642e-13 -7.77846e-13 5.2296e-13 0 0 9.65276e-15 2.31658e-13 -4.71492e-13 2.84627e-13 0 0 3.26221e-13 -3.42316e-13 1.45979e-13 -1.56049e-13 0 0 3.91257e-13 -3.72644e-13 2.22647e-13 -3.95731e-13 0 0 8.23209e-14 2.7163e-13 -4.27765e-13 -1.79314e-13 0 0 1.9303e-13 1.24533e-13 -3.06673e-13 -2.77766e-13 0 0 3.23325e-13 -2.48134e-13 8.08034e-14 -3.00143e-13 0 0 2.08876e-13 -2.50831e-13 1.97144e-13 -2.29766e-13 0 0 2.53424e-13 -4.06139e-13 4.11822e-13 -4.39972e-13 0 0 3.94383e-13 -5.65201e-13 4.07614e-13 -4.17823e-13 0 0 3.44329e-13 -4.7172e-13 2.80088e-13 -3.26984e-13 0 0 2.20443e-13 -3.67204e-13 1.06168e-13 -9.63347e-14 0 0 3.3204e-13 -5.75319e-13 1.92954e-13 -2.17533e-14 0
				</DataArray>
				<DataArray Name="VitesseY" type="Float32" format="ascii">