<?xml version="1.0"?>
<VTKFile type="PolyData">
	<PolyData>
		<Piece NumberOfPoints="1206" NumberOfPolys="1000">
			<Points>
				<DataArray type="Float32" NumberOfComponents="3" format="ascii">
 0 0 0 0.02 0 0 0.04 0 0 0.06 0 0 0.08 0 0 0.1 0 0 0 0.005 0 0.02 0.005 0 0.04 0.005 0 0.06 0.005 0 0.08 0.005 0 0.1 0.005 0 0 0.01 0 0.02 0.01 0 0.04 0.01 0 0.06 0.01 0 0.08 0.01 0 0.1 0.01 0 0 0.015 0 0.02 0.015 0 0.04 0.015 0 0.06 0.015 0 0.08 0.015 0 0.1 0.015 0 0 0.02 0 0.02 0.02 0 0.04 0.02 0 0.06 0.02 0 0.08 0.02 0 0.1 0.02 0 0 0.025 0 0.02 0.025 0 0.04 0.025 0 0.06 0.025 0 0.08 0.025 0 0.1 0.025 0 0 0.03 0 0.02 0.03 0 0.04 0.03 0 0.06 0.03 0 0.08 0.03 0 0.1 0.03 0 0 0.035 0 0.02 0.035 0 0.04 0.035 0 0.06 0.035 0 0.08 0.035 0 0.1 0.035 0 0 0.04 0 0.02 0.04 0 0.04 0.04 0 0.06 0.04 0 0.08 0.04 0 0.1 0.04 0 0 0.045 0 0.02 0.045 0 0.04 0.045 0 0.06 0.045 0 0.08 0.045 0 0.1 0.045 0 0 0.05 0 0.02 0.05 0 0.04 0.05 0 0.06 0.05 0 0.08 0.05 0 0.1 0.05 0 0 0.055 0 0.02 0.055 0 0.04 0.055 0 0.06 0.055 0 0.08 0.055 0 0.1 0.055 0 0 0.06 0 0.02 0.06 0 0.04 0.06 0 0.06 0.06 0 0.08 0.06 0 0.1 0.06 0 0 0.065 0 0.02 0.065 0 0.04 0.065 0 0.06 0.065 0 0.08 0.065 0 0.1 0.065 0 0 0.07 0 0.02 0.07 0 0.04 0.07 0 0.06 0.07 0 0.08 0.07 0 0.1 0.07 0 0 0.075 0 0.02 0.075 0 0.04 0.075 0 0.06 0.075 0 0.08 0.075 0 0.1 0.075 0 0 0.08 0 0.02 0.08 0 0.04 0.08 0 0.06 0.08 0 0.08 0.08 0 0.1 0.08 0 0 0.085 0 0.02 0.085 0 0.04 0.085 0 0.06 0.085 0 0.08 0.085 0 0.1 0.085 0 0 0.09 0 0.02 0.09 0 0.04 0.09 0 0.06 0.09 0 0.08 0.09 0 0.1 0.09 0 0 0.095 0 0.02 0.095 0 0.04 0.095 0 0.06 0.095 0 0.08 0.095 0 0.1 0.095 0 0 0.1 0 0.02 0.1 0 0.04 0.1 0 0.06 0.1 0 0.08 0.1 0 0.1 0.1 0 0 0.105 0 0.02 0.105 0 0.04 0.105 0 0.06 0.105 0 0.08 0.105 0 0.1 0.105 0 0 0.11 0 0.02 0.11 0 0.04 0.11 0 0.06 0.11 0 0.08 0.11 0 0.1 0.11 0 0 0.115 0 0.02 0.115 0 0.04 0.115 0 0.06 0.115 0 0.08 0.115 0 0.1 0.115 0 0 0.12 0 0.02 0.12 0 0.04 0.12 0 0.06 0.12 0 0.08 0.12 0 0.1 0.12 0 0 0.125 0 0.02 0.125 0 0.04 0.125 0 0.06 0.125 0 0.08 0.125 0 0.1 0.125 0 0 0.13 0 0.02 0.13 0 0.04 0.13 0 0.06 0.13 0 0.08 0.13 0 0.1 0.13 0 0 0.135 0 0.02 0.135 0 0.04 0.135 0 0.06 0.135 0 0.08 0.135 0 0.1 0.135 0 0 0.14 0 0.02 0.14 0 0.04 0.14 0 0.06 0.14 0 0.08 0.14 0 0.1 0.14 0 0 0.145 0 0.02 0.145 0 0.04 0.145 0 0.06 0.145 0 0.08 0.145 0 0.1 0.145 0 0 0.15 0 0.02 0.15 0 0.04 0.15 0 0.06 0.15 0 0.08 0.15 0 0.1 0.15 0 0 0.155 0 0.02 0.155 0 0.04 0.155 0 0.06 0.155 0 0.08 0.155 0 0.1 0.155 0 0 0.16 0 0.02 0.16 0 0.04 0.16 0 0.06 0.16 0 0.08 0.16 0 0.1 0.16 0 0 0.165 0 0.02 0.165 0 0.04 0.165 0 0.06 0.165 0 0.08 0.165 0 0.1 0.165 0 0 0.17 0 0.02 0.17 0 0.04 0.17 0 0.06 0.17 0 0.08 0.17 0 0.1 0.17 0 0 0.175 0 0.02 0.175 0 0.04 0.175 0 0.06 0.175 0 0.08 0.175 0 0.1 0.175 0 0 0.18 0 0.02 0.18 0 0.04 0.18 0 0.06 0.18 0 0.08 0.18 0 0.1 0.18 0 0 0.185 0 0.02 0.185 0 0.04 0.185 0 0.06 0.185 0 0.08 0.185 0 0.1 0.185 0 0 0.19 0 0.02 0.19 0 0.04 0.19 0 0.06 0.19 0 0.08 0.19 0 0.1 0.19 0 0 0.195 0 0.02 0.195 0 0.04 0.195 0 0.06 0.195 0 0.08 0.195 0 0.1 0.195 0 0 0.2 0 0.02 0.2 0 0.04 0.2 0 0.06 0.2 0 0.08 0.2 0 0.1 0.2 0 0 0.205 0 0.02 0.205 0 0.04 0.205 0 0.06 0.205 0 0.08 0.205 0 0.1 0.205 0 0 0.21 0 0.02 0.21 0 0.04 0.21 0 0.06 0.21 0 0.08 0.21 0 0.1 0.21 0 0 0.215 0 0.02 0.215 0 0.04 0.215 0 0.06 0.215 0 0.08 0.215 0 0.1 0.215 0 0 0.22 0 0.02 0.22 0 0.04 0.22 0 0.06 0.22 0 0.08 0.22 0 0.1 0.22 0 0 0.225 0 0.02 0.225 0 0.04 0.225 0 0.06 0.225 0 0.08 0.225 0 0.1 0.225 0 0 0.23 0 0.02 0.23 0 0.04 0.23 0 0.06 0.23 0 0.08 0.23 0 0.1 0.23 0 0 0.235 0 0.02 0.235 0 0.04 0.235 0 0.06 0.235 0 0.08 0.235 0 0.1 0.235 0 0 0.24 0 0.02 0.24 0 0.04 0.24 0 0.06 0.24 0 0.08 0.24 0 0.1 0.24 0 0 0.245 0 0.02 0.245 0 0.04 0.245 0 0.06 0.245 0 0.08 0.245 0 0.1 0.245 0 0 0.25 0 0.02 0.25 0 0.04 0.25 0 0.06 0.25 0 0.08 0.25 0 0.1 0.25 0 0 0.255 0 0.02 0.255 0 0.04 0.255 0 0.06 0.255 0 0.08 0.255 0 0.1 0.255 0 0 0.26 0 0.02 0.26 0 0.04 0.26 0 0.06 0.26 0 0.08 0.26 0 0.1 0.26 0 0 0.265 0 0.02 0.265 0 0.04 0.265 0 0.06 0.265 0 0.08 0.265 0 0.1 0.265 0 0 0.27 0 0.02 0.27 0 0.04 0.27 0 0.06 0.27 0 0.08 0.27 0 0.1 0.27 0 0 0.275 0 0.02 0.275 0 0.04 0.275 0 0.06 0.275 0 0.08 0.275 0 0.1 0.275 0 0 0.28 0 0.02 0.28 0 0.04 0.28 0 0.06 0.28 0 0.08 0.28 0 0.1 0.28 0 0 0.285 0 0.02 0.285 0 0.04 0.285 0 0.06 0.285 0 0.08 0.285 0 0.1 0.285 0 0 0.29 0 0.02 0.29 0 0.04 0.29 0 0.06 0.29 0 0.08 0.29 0 0.1 0.29 0 0 0.295 0 0.02 0.295 0 0.04 0.295 0 0.06 0.295 0 0.08 0.295 0 0.1 0.295 0 0 0.3 0 0.02 0.3 0 0.04 0.3 0 0.06 0.3 0 0.08 0.3 0 0.1 0.3 0 0 0.305 0 0.02 0.305 0 0.04 0.305 0 0.06 0.305 0 0.08 0.305 0 0.1 0.305 0 0 0.31 0 0.02 0.31 0 0.04 0.31 0 0.06 0.31 0 0.08 0.31 0 0.1 0.31 0 0 0.315 0 0.02 0.315 0 0.04 0.315 0 0.06 0.315 0 0.08 0.315 0 0.1 0.315 0 0 0.32 0 0.02 0.32 0 0.04 0.32 0 0.06 0.32 0 0.08 0.32 0 0.1 0.32 0 0 0.325 0 0.02 0.325 0 0.04 0.325 0 0.06 0.325 0 0.08 0.325 0 0.1 0.325 0 0 0.33 0 0.02 0.33 0 0.04 0.33 0 0.06 0.33 0 0.08 0.33 0 0.1 0.33 0 0 0.335 0 0.02 0.335 0 0.04 0.335 0 0.06 0.335 0 0.08 0.335 0 0.1 0.335 0 0 0.34 0 0.02 0.34 0 0.04 0.34 0 0.06 0.34 0 0.08 0.34 0 0.1 0.34 0 0 0.345 0 0.02 0.345 0 0.04 0.345 0 0.06 0.345 0 0.08 0.345 0 0.1 0.345 0 0 0.35 0 0.02 0.35 0 0.04 0.35 0 0.06 0.35 0 0.08 0.35 0 0.1 0.35 0 0 0.355 0 0.02 0.355 0 0.04 0.355 0 0.06 0.355 0 0.08 0.355 0 0.1 0.355 0 0 0.36 0 0.02 0.36 0 0.04 0.36 0 0.06 0.36 0 0.08 0.36 0 0.1 0.36 0 0 0.365 0 0.02 0.365 0 0.04 0.365 0 0.06 0.365 0 0.08 0.365 0 0.1 0.365 0 0 0.37 0 0.02 0.37 0 0.04 0.37 0 0.06 0.37 0 0.08 0.37 0 0.1 0.37 0 0 0.375 0 0.02 0.375 0 0.04 0.375 0 0.06 0.375 0 0.08 0.375 0 0.1 0.375 0 0 0.38 0 0.02 0.38 0 0.04 0.38 0 0.06 0.38 0 0.08 0.38 0 0.1 0.38 0 0 0.385 0 0.02 0.385 0 0.04 0.385 0 0.06 0.385 0 0.08 0.385 0 0.1 0.385 0 0 0.39 0 0.02 0.39 0 0.04 0.39 0 0.06 0.39 0 0.08 0.39 0 0.1 0.39 0 0 0.395 0 0.02 0.395 0 0.04 0.395 0 0.06 0.395 0 0.08 0.395 0 0.1 0.395 0 0 0.4 0 0.02 0.4 0 0.04 0.4 0 0.06 0.4 0 0.08 0.4 0 0.1 0.4 0 0 0.405 0 0.02 0.405 0 0.04 0.405 0 0.06 0.405 0 0.08 0.405 0 0.1 0.405 0 0 0.41 0 0.02 0.41 0 0.04 0.41 0 0.06 0.41 0 0.08 0.41 0 0.1 0.41 0 0 0.415 0 0.02 0.415 0 0.04 0.415 0 0.06 0.415 0 0.08 0.415 0 0.1 0.415 0 0 0.42 0 0.02 0.42 0 0.04 0.42 0 0.06 0.42 0 0.08 0.42 0 0.1 0.42 0 0 0.425 0 0.02 0.425 0 0.04 0.425 0 0.06 0.425 0 0.08 0.425 0 0.1 0.425 0 0 0.43 0 0.02 0.43 0 0.04 0.43 0 0.06 0.43 0 0.08 0.43 0 0.1 0.43 0 0 0.435 0 0.02 0.435 0 0.04 0.435 0 0.06 0.435 0 0.08 0.435 0 0.1 0.435 0 0 0.44 0 0.02 0.44 0 0.04 0.44 0 0.06 0.44 0 0.08 0.44 0 0.1 0.44 0 0 0.445 0 0.02 0.445 0 0.04 0.445 0 0.06 0.445 0 0.08 0.445 0 0.1 0.445 0 0 0.45 0 0.02 0.45 0 0.04 0.45 0 0.06 0.45 0 0.08 0.45 0 0.1 0.45 0 0 0.455 0 0.02 0.455 0 0.04 0.455 0 0.06 0.455 0 0.08 0.455 0 0.1 0.455 0 0 0.46 0 0.02 0.46 0 0.04 0.46 0 0.06 0.46 0 0.08 0.46 0 0.1 0.46 0 0 0.465 0 0.02 0.465 0 0.04 0.465 0 0.06 0.465 0 0.08 0.465 0 0.1 0.465 0 0 0.47 0 0.02 0.47 0 0.04 0.47 0 0.06 0.47 0 0.08 0.47 0 0.1 0.47 0 0 0.475 0 0.02 0.475 0 0.04 0.475 0 0.06 0.475 0 0.08 0.475 0 0.1 0.475 0 0 0.48 0 0.02 0.48 0 0.04 0.48 0 0.06 0.48 0 0.08 0.48 0 0.1 0.48 0 0 0.485 0 0.02 0.485 0 0.04 0.485 0 0.06 0.485 0 0.08 0.485 0 0.1 0.485 0 0 0.49 0 0.02 0.49 0 0.04 0.49 0 0.06 0.49 0 0.08 0.49 0 0.1 0.49 0 0 0.495 0 0.02 0.495 0 0.04 0.495 0 0.06 0.495 0 0.08 0.495 0 0.1 0.495 0 0 0.5 0 0.02 0.5 0 0.04 0.5 0 0.06 0.5 0 0.08 0.5 0 0.1 0.5 0 0 0.505 0 0.02 0.505 0 0.04 0.505 0 0.06 0.505 0 0.08 0.505 0 0.1 0.505 0 0 0.51 0 0.02 0.51 0 0.04 0.51 0 0.06 0.51 0 0.08 0.51 0 0.1 0.51 0 0 0.515 0 0.02 0.515 0 0.04 0.515 0 0.06 0.515 0 0.08 0.515 0 0.1 0.515 0 0 0.52 0 0.02 0.52 0 0.04 0.52 0 0.06 0.52 0 0.08 0.52 0 0.1 0.52 0 0 0.525 0 0.02 0.525 0 0.04 0.525 0 0.06 0.525 0 0.08 0.525 0 0.1 0.525 0 0 0.53 0 0.02 0.53 0 0.04 0.53 0 0.06 0.53 0 0.08 0.53 0 0.1 0.53 0 0 0.535 0 0.02 0.535 0 0.04 0.535 0 0.06 0.535 0 0.08 0.535 0 0.1 0.535 0 0 0.54 0 0.02 0.54 0 0.04 0.54 0 0.06 0.54 0 0.08 0.54 0 0.1 0.54 0 0 0.545 0 0.02 0.545 0 0.04 0.545 0 0.06 0.545 0 0.08 0.545 0 0.1 0.545 0 0 0.55 0 0.02 0.55 0 0.04 0.55 0 0.06 0.55 0 0.08 0.55 0 0.1 0.55 0 0 0.555 0 0.02 0.555 0 0.04 0.555 0 0.06 0.555 0 0.08 0.555 0 0.1 0.555 0 0 0.56 0 0.02 0.56 0 0.04 0.56 0 0.06 0.56 0 0.08 0.56 0 0.1 0.56 0 0 0.565 0 0.02 0.565 0 0.04 0.565 0 0.06 0.565 0 0.08 0.565 0 0.1 0.565 0 0 0.57 0 0.02 0.57 0 0.04 0.57 0 0.06 0.57 0 0.08 0.57 0 0.1 0.57 0 0 0.575 0 0.02 0.575 0 0.04 0.575 0 0.06 0.575 0 0.08 0.575 0 0.1 0.575 0 0 0.58 0 0.02 0.58 0 0.04 0.58 0 0.06 0.58 0 0.08 0.58 0 0.1 0.58 0 0 0.585 0 0.02 0.585 0 0.04 0.585 0 0.06 0.585 0 0.08 0.585 0 0.1 0.585 0 0 0.59 0 0.02 0.59 0 0.04 0.59 0 0.06 0.59 0 0.08 0.59 0 0.1 0.59 0 0 0.595 0 0.02 0.595 0 0.04 0.595 0 0.06 0.595 0 0.08 0.595 0 0.1 0.595 0 0 0.6 0 0.02 0.6 0 0.04 0.6 0 0.06 0.6 0 0.08 0.6 0 0.1 0.6 0 0 0.605 0 0.02 0.605 0 0.04 0.605 0 0.06 0.605 0 0.08 0.605 0 0.1 0.605 0 0 0.61 0 0.02 0.61 0 0.04 0.61 0 0.06 0.61 0 0.08 0.61 0 0.1 0.61 0 0 0.615 0 0.02 0.615 0 0.04 0.615 0 0.06 0.615 0 0.08 0.615 0 0.1 0.615 0 0 0.62 0 0.02 0.62 0 0.04 0.62 0 0.06 0.62 0 0.08 0.62 0 0.1 0.62 0 0 0.625 0 0.02 0.625 0 0.04 0.625 0 0.06 0.625 0 0.08 0.625 0 0.1 0.625 0 0 0.63 0 0.02 0.63 0 0.04 0.63 0 0.06 0.63 0 0.08 0.63 0 0.1 0.63 0 0 0.635 0 0.02 0.635 0 0.04 0.635 0 0.06 0.635 0 0.08 0.635 0 0.1 0.635 0 0 0.64 0 0.02 0.64 0 0.04 0.64 0 0.06 0.64 0 0.08 0.64 0 0.1 0.64 0 0 0.645 0 0.02 0.645 0 0.04 0.645 0 0.06 0.645 0 0.08 0.645 0 0.1 0.645 0 0 0.65 0 0.02 0.65 0 0.04 0.65 0 0.06 0.65 0 0.08 0.65 0 0.1 0.65 0 0 0.655 0 0.02 0.655 0 0.04 0.655 0 0.06 0.655 0 0.08 0.655 0 0.1 0.655 0 0 0.66 0 0.02 0.66 0 0.04 0.66 0 0.06 0.66 0 0.08 0.66 0 0.1 0.66 0 0 0.665 0 0.02 0.665 0 0.04 0.665 0 0.06 0.665 0 0.08 0.665 0 0.1 0.665 0 0 0.67 0 0.02 0.67 0 0.04 0.67 0 0.06 0.67 0 0.08 0.67 0 0.1 0.67 0 0 0.675 0 0.02 0.675 0 0.04 0.675 0 0.06 0.675 0 0.08 0.675 0 0.1 0.675 0 0 0.68 0 0.02 0.68 0 0.04 0.68 0 0.06 0.68 0 0.08 0.68 0 0.1 0.68 0 0 0.685 0 0.02 0.685 0 0.04 0.685 0 0.06 0.685 0 0.08 0.685 0 0.1 0.685 0 0 0.69 0 0.02 0.69 0 0.04 0.69 0 0.06 0.69 0 0.08 0.69 0 0.1 
[...]
			<PointData Scalars="VitesseX">
				<DataArray Name="VitesseX" type="Float32" format="ascii">
 0 -9.52534e-15 -1.22752e-14 -9.15786e-15 -5.58654e-15 0 0 -1.18669e-14 -7.46348e-15 -1.37266e-14 -4.12539e-15 0 0 -8.62213e-15 -1.24953e-14 -8.26298e-15 -9.32595e-15 0 0 -1.39377e-15 -2.56986e-14 7.51887e-15 -2.29029e-14 0 0 -8.55453e-15 -1.52077e-14 -1.93247e-15 -2.2692e-14 0 0 -1.24643e-14 -9.1829e-15 -1.46073e-14 -1.63118e-14 0 0 -8.09284e-15 -1.81519e-14 -1.18265e-14 -1.46663e-14 0 0 -8.6075e-15 -1.90915e-14 -1.10347e-14 -1.36416e-14 0 0 -1.70722e-14 -6.03499e-15 -2.41471e-14 -9.3381e-16 0 0 -1.73481e-14 -7.21329e-15 -1.90454e-14 -2.33215e-15 0 0 -2.0926e-14 -4.46922e-15 -1.19562e-14 -1.67297e-14 0 0 -1.91503e-14 -7.28608e-15 -1.39366e-15 -3.21798e-14 0 0 -2.50409e-15 -2.7487e-14 1.85469e-14 -4.78555e-14 0 0 -9.57842e-15 -7.03955e-15 -7.37776e-15 -3.07344e-14 0 0 -1.87261e-14 -7.17456e-16 -3.84317e-15 -2.99417e-14 0 0 -2.19011e-14 -1.40666e-14 1.50266e-14 -3.54992e-14 0 0 -2.43465e-14 -3.65833e-15 -1.85431e-14 -6.39225e-16 0 0 -2.19786e-14 1.31942e-14 -6.65058e-14 4.60906e-14 0 0 2.69967e-15 -2.38623e-14 -5.05805e-14 3.70308e-14 0 0 2.99381e-15 -6.24384e-14 -6.50951e-15 6.48399e-16 0 0 -2.81366e-14 -4.51774e-14 -2.32626e-14 1.17732e-14 0 0 -3.39595e-14 -5.00149e-14 -1.57372e-14 1.14365e-15 0 0 -2.04851e-14 -8.93768e-14 5.16917e-14 -4.42843e-14 0 0 -4.2596e-14 -5.47349e-14 2.83529e-14 -2.27219e-14 0 0 -7.87579e-14 1.11477e-14 -4.53013e-14 1.7997e-14 0 0 -4.13154e-14 -2.93308e-14 -1.24513e-14 -1.43165e-14 0 0 2.812e-14 -1.162e-13 5.78688e-14 -5.90969e-14 0 0 5.60006e-15 -6.74963e-14 -1.83342e-15 -1.97477e-14 0 0 -7.49957e-14 4.98105e-14 -1.31628e-13 6.22543e-14 0 0 -4.25248e-14 -1.92322e-14 -5.62168e-14 9.71631e-15 0 0 -2.35805e-14 -4.08183e-14 -1.80961e-14 -1.66553e-14 0 0 -2.80319e-14 -4.25806e-14 -1.57141e-14 -2.2036e-15 0 0 -7.92651e-15 -7.52063e-14 1.95714e-14 -8.07106e-15 0 0 -4.79554e-14 -2.1883e-15 -4.4912e-14 5.27554e-14 0 0 -4.36745e-14 -3.32216e-14 2.26631e-14 3.43413e-14 0 0 -4.27418e-14 -9.85571e-15 3.41108e-14 4.01476e-14 0 0 -5.05609e-14 3.94157e-14 1.6451e-14 6.36024e-14 0 0 -5.54516e-15 -2.80657e-14 9.43092e-14 3.44e-14 0 0 6.82158e-15 -3.27206e-14 8.50563e-14 3.04577e-14 0 0 4.86298e-14 -6.48136e-14 7.44878e-14 3.84282e-14 0 0 4.31094e-14 -6.07162e-14 7.48789e-14 5.27675e-14 0 0 -5.47681e-15 -3.39472e-14 1.26587e-13 6.94971e-15 0 0 -4.88747e-14 3.88431e-14 7.66899e-14 3.44041e-14 0 0 -1.98566e-14 5.38731e-14 1.27228e-14 1.03036e-13 0 0 5.26305e-14 -5.38915e-14 8.65451e-14 7.78602e-14 0 0 2.80882e-14 -6.04425e-14 6.33832e-14 8.25621e-14 0 0 6.41306e-14 -1.45634e-13 9.28315e-14 4.58405e-14 0 0 -4.01693e-16 -5.79376e-14 -3.26924e-14 8.64896e-14 0 0 -5.98664e-14 8.29189e-14 -2.21046e-13 1.23727e-13 0 0 -3.34478e-15 2.49535e-15 -1.83565e-13 1.35422e-14 0 0 -4.28339e-14 3.1175e-15 -1.98266e-13 1.85235e-14 0 0 -7.15309e-14 -4.55534e-16 -1.31866e-13 -5.99274e-14 0 0 -3.52786e-14 -1.39148e-13 4.79976e-14 -1.90835e-13 0 0 4.59545e-14 -2.83848e-13 4.52974e-14 -1.19596e-13 0 0 -8.7219e-14 -1.22186e-13 -2.59986e-13 1.35699e-13 0 0 -2.16451e-13 -5.2514e-14 -2.9493e-13 1.21401e-13 0 0 -4.56519e-14 -2.64426e-13 -8.08785e-14 -7.91505e-14 0 0 1.21912e-14 -2.63325e-13 -1.09878e-13 -3.8487e-14 0 0 -1.00981e-13 -1.27377e-13 -1.75454e-13 6.85378e-15 0 0 -1.17652e-13 -1.64483e-13 -7.01109e-14 -6.6482e-14 0 0 -1.07671e-13 -2.43227e-13 2.91018e-14 -1.34671e-13 0 0 -1.87538e-13 -1.8819e-13 -6.4358e-14 -3.69256e-14 0 0 -2.3705e-13 -1.87997e-13 -9.49512e-14 5.81489e-14 0 0 -2.59515e-13 -2.28879e-13 -8.99305e-14 7.47592e-14 0 0 -3.17918e-13 -1.58336e-13 -1.66128e-13 6.89781e-14 0 0 -2.89065e-13 -1.86383e-13 -1.76857e-13 -3.9383e-15 0 0 -2.12705e-13 -2.68795e-13 -1.46325e-13 -7.64011e-14 0 0 -1.05792e-13 -3.84791e-13 -1.48051e-13 -6.41335e-14 0 0 -1.27015e-13 -3.79295e-13 -1.98438e-13 2.63123e-14 0 0 -1.96344e-13 -3.12421e-13 -3.17136e-13 1.71669e-13 0 0 -2.48074e-13 -3.04032e-13 -2.99682e-13 1.67158e-13 0 0 -2.30716e-13 -3.62142e-13 -2.02053e-13 8.23916e-14 0 0 -1.59876e-13 -5.10882e-13 -1.27769e-13 6.00464e-14 0 0 -1.21543e-13 -5.28157e-13 -1.48731e-13 6.81867e-14 0 0 -1.35722e-13 -4.81906e-13 -2.46365e-13 1.31154e-13 0 0 -1.80628e-13 -3.73662e-13 -4.04751e-13 1.34078e-13 0 0 -2.08536e-13 -2.89011e-13 -4.4158e-13 1.02007e-13 0 0 -2.03387e-13 -2.53856e-13 -4.28813e-13 6.63864e-15 0 0 -1.72497e-13 -2.50913e-13 -3.63443e-13 -8.03925e-14 0 0 -1.16545e-13 -2.55088e-13 -2.98536e-13 -6.27349e-14 0 0 -5.60877e-14 -2.68146e-13 -2.48963e-13 1.36609e-14 0 0 2.06341e-14 -2.97733e-13 -2.37067e-13 1.22007e-13 0 0 7.92531e-14 -2.93868e-13 -2.65814e-13 2.45869e-13 0 0 1.11471e-13 -2.73507e-13 -3.26767e-13 2.78268e-13 0 0 1.27319e-13 -2.67779e-13 -3.45346e-13 2.59965e-13 0 0 1.35623e-13 -2.75832e-13 -3.34436e-13 1.88252e-13 0 0 1.48334e-13 -2.71293e-13 -2.79863e-13 6.93144e-14 0 0 1.40802e-13 -2.6245e-13 -2.11674e-13 -5.25088e-14 0 0 1.17291e-13 -2.28553e-13 -1.64378e-13 -1.37529e-13 0 0 6.06522e-14 -1.90251e-13 -1.63369e-13 -1.8612e-13 0 0 -5.91988e-15 -1.51354e-13 -1.73606e-13 -2.1488e-13 0 0 -7.21777e-14 -1.14517e-13 -1.63475e-13 -2.15966e-13 0 0 -8.37769e-14 -1.15207e-13 -1.63492e-13 -1.9464e-13 0 0 -8.01396e-14 -1.14872e-13 -1.80005e-13 -1.38045e-13 0 0 -6.62963e-14 -1.18944e-13 -1.95647e-13 -8.56524e-14 0 0 -5.15354e-14 -1.29478e-13 -2.11848e-13 -4.08416e-14 0 0 -2.7613e-14 -1.38376e-13 -2.43489e-13 -7.09486e-15 0 0 6.71984e-15 -1.48442e-13 -2.72949e-13 -5.95802e-15 0 0 4.4277e-14 -1.80346e-13 -2.80313e-13 -2.39518e-14 0 0 7.83187e-14 -2.17874e-13 -2.84358e-13 -5.45027e-14 0 0 1.13456e-13 -2.43475e-13 -2.94433e-13 -7.53246e-14 0 0 1.54556e-13 -2.76758e-13 -3.08295e-13 -9.15339e-14 0 0 1.88881e-13 -3.0418e-13 -3.3926e-13 -1.13255e-13 0 0 2.064e-13 -3.01228e-13 -3.4227e-13 -1.41289e-13 0 0 2.18091e-13 -2.89559e-13 -3.34916e-13 -1.92294e-13 0 0 2.11519e-13 -2.72306e-13 -3.25375e-13 -2.4331e-13 0 0 1.7933e-13 -2.41353e-13 -2.89306e-13 -3.26831e-13 0 0 1.09755e-13 -1.93222e-13 -2.94833e-13 -3.26216e-13 0 0 4.54028e-14 -1.33408e-13 -3.27628e-13 -3.22992e-13 0 0 -1.35445e-14 -1.22881e-13 -3.0612e-13 -4.15236e-13 0 0 -5.67087e-14 -1.28715e-13 -2.88539e-13 -4.51221e-13 0 0 -7.98358e-14 -1.37158e-13 -2.9149e-13 -4.52124e-13 0 0 -1.00094e-13 -1.84564e-13 -2.07847e-13 -5.45969e-13 0 0 -1.1291e-13 -1.8072e-13 -1.93094e-13 -5.59965e-13 0 0 -1.03861e-13 -1.57994e-13 -2.60935e-13 -5.15651e-13 0 0 -8.10427e-14 -1.76806e-13 -3.43698e-13 -3.93204e-13 0 0 -6.06823e-14 -1.81221e-13 -4.21111e-13 -2.68135e-13 0 0 -3.30287e-14 -1.97794e-13 -4.55218e-13 -2.07514e-13 0 0 -3.71632e-14 -2.17651e-13 -4.52741e-13 -1.41591e-13 0 0 -6.31059e-14 -2.02962e-13 -4.33961e-13 -1.40857e-13 0 0 -8.9308e-14 -1.98657e-13 -3.48618e-13 -2.07834e-13 0 0 -1.45085e-13 -2.01235e-13 -3.07983e-13 -2.10758e-13 0 0 -2.0735e-13 -2.36105e-13 -2.86621e-13 -2.06087e-13 0 0 -2.61302e-13 -2.73729e-13 -2.58401e-13 -2.63198e-13 0 0 -2.97444e-13 -2.6376e-13 -3.077e-13 -2.85392e-13 0 0 -2.83689e-13 -2.78686e-13 -3.53409e-13 -2.47803e-13 0 0 -2.5274e-13 -3.14046e-13 -3.62915e-13 -2.18204e-13 0 0 -1.95399e-13 -3.41163e-13 -3.74759e-13 -1.92121e-13 0 0 -1.32591e-13 -3.22999e-13 -3.51759e-13 -2.0927e-13 0 0 -1.18097e-13 -3.23356e-13 -2.64795e-13 -2.2938e-13 0 0 -1.05977e-13 -2.98385e-13 -2.34794e-13 -2.18926e-13 0 0 -1.13306e-13 -2.33681e-13 -2.05263e-13 -2.41938e-13 0 0 -1.58889e-13 -1.24208e-13 -2.1493e-13 -2.50526e-13 0 0 -2.01082e-13 -1.76509e-14 -2.42812e-13 -2.10183e-13 0 0 -2.06494e-13 2.18463e-14 -2.81464e-13 -9.8238e-14 0 0 -1.95181e-13 -9.89965e-15 -2.81513e-13 -7.37242e-14 0 0 -9.77449e-14 -2.84315e-13 -7.67884e-14 -2.00277e-13 0 0 -7.41835e-14 -4.81807e-13 1.71947e-13 -4.24081e-13 0 0 -1.48443e-13 -4.32975e-13 1.63176e-13 -4.17788e-13 0 0 -2.5598e-13 -2.61999e-13 -5.23578e-14 -2.99422e-13 0 0 -2.56496e-13 -1.64139e-13 -3.36879e-13 3.25769e-14 0 0 -2.09986e-13 -2.05968e-13 -3.12102e-13 6.51187e-14 0 0 -1.75995e-13 -2.45049e-13 -1.90328e-13 -5.94507e-14 0 0 -1.70891e-13 -2.45781e-13 -1.20157e-13 -2.08121e-13 0 0 -1.67602e-13 -2.31537e-13 -1.23073e-13 -2.47851e-13 0 0 -1.66284e-13 -2.30371e-13 -1.49744e-13 -2.44241e-13 0 0 -1.69132e-13 -2.27357e-13 -1.93442e-13 -1.92917e-13 0 0 -1.75919e-13 -2.23705e-13 -2.25587e-13 -1.38897e-13 0 0 -1.96971e-13 -2.20907e-13 -2.36863e-13 -1.14763e-13 0 0 -2.27903e-13 -2.229e-13 -2.48331e-13 -8.22396e-14 0 0 -2.45801e-13 -2.33995e-13 -2.67032e-13 -1.01952e-13 0 0 -2.49702e-13 -2.66104e-13 -3.04617e-13 -1.34384e-13 0 0 -2.42014e-13 -3.62888e-13 -3.27176e-13 -1.32555e-13 0 0 -2.13108e-13 -4.48177e-13 -3.32351e-13 -1.76527e-13 0 0 -1.98704e-13 -4.53031e-13 -3.79979e-13 -2.20635e-13 0 0 -1.94602e-13 -4.57096e-13 -3.8775e-13 -3.7632e-13 0 0 -2.11201e-13 -4.25545e-13 -4.37431e-13 -4.65355e-13 0 0 -2.04854e-13 -3.97539e-13 -4.54125e-13 -4.36179e-13 0 0 -1.71508e-13 -4.34773e-13 -3.83386e-13 -4.01639e-13 0 0 -1.91588e-13 -4.35876e-13 -2.77224e-13 -9.10789e-14 0 0 -2.18787e-13 -4.42101e-13 -2.76665e-13 3.33333e-13 0 0 -2.18411e-13 -4.00695e-13 -3.06151e-13 3.66053e-13 0 0 -1.84691e-13 -3.38851e-13 -3.225e-13 2.95969e-13 0 0 -1.65285e-13 -2.43466e-13 -4.60514e-13 2.54956e-13 0 0 -2.23745e-13 -1.51654e-13 -4.73276e-13 8.28673e-14 0 0 -2.72221e-13 -1.63974e-13 -3.10741e-13 -1.42171e-13 0 0 -2.47039e-13 -1.13597e-13 -3.37257e-13 -1.26092e-13 0 0 -8.60577e-14 -2.11417e-13 -3.93887e-13 -8.40328e-14 0 0 6.50528e-15 -3.12432e-13 -3.63496e-13 -1.89693e-13 0 0 -1.28184e-13 -1.71191e-13 -4.96093e-13 -3.1769e-14 0 0 -1.09274e-13 -2.59907e-13 -4.35968e-13 1.28787e-14 0 0 -2.79901e-14 -4.42019e-13 -2.56809e-13 -1.45685e-13 0 0 -1.69043e-13 -2.00959e-13 -5.19297e-13 5.64356e-14 0 0 -1.95076e-13 -1.70236e-13 -4.44771e-13 -2.13732e-14 0 0 -1.64439e-13 -2.47636e-13 -2.22564e-13 -2.18477e-13 0 0 -1.77122e-13 -1.7523e-13 -2.76321e-13 -1.77456e-13 0 0 -1.78803e-13 -9.3138e-14 -3.12851e-13 -1.93908e-13 0 0 -9.6668e-14 -1.79911e-13 -2.21061e-13 -1.89879e-13 0 0 -1.22015e-13 -1.36116e-13 -2.63925e-13 -9.9894e-14 0 0 -1.40387e-13 -5.12745e-14 -2.64575e-13 -2.17216e-13 0 0 -5.20769e-14 -9.49497e-14 -1.83588e-13 -3.53873e-13 0 0 -6.70498e-14 3.00452e-14 -3.47786e-13 -2.13609e-13 0 0 -4.06886e-15 -5.09068e-14 -2.21964e-13 -2.53035e-13 0 0 2.62002e-14 -1.09909e-13 -1.21886e-13 -3.10457e-13 0 0 5.09571e-14 -7.60231e-14 -2.11351e-13 -2.65773e-13 0 0 1.13335e-13 -1.49499e-13 -1.39821e-13 -3.07217e-13 0 0 2.61844e-14 -4.14438e-14 -2.21373e-13 -2.04924e-13 0 0 -1.36618e-14 -9.8626e-15 -2.04335e-13 -2.01188e-13 0 0 -1.27675e-15 -1.01021e-14 -1.20792e-13 -2.79031e-13 0 0 8.14319e-14 -1.59193e-13 1.17096e-13 -4.73292e-13 0 0 -1.3615e-14 -8.77203e-14 5.78877e-14 -4.38091e-13 0 0 -1.81946e-13 2.23743e-13 -3.56536e-13 -1.24492e-13 0 0 -8.53754e-14 1.10259e-13 -3.6231e-13 -4.4534e-14 0 0 6.93547e-14 -2.30736e-13 -9.19775e-14 -1.01534e-13 0 0 -3.21754e-14 -2.49546e-13 5.12092e-16 -2.08662e-13 0 0 -2.172e-13 -1.01895e-13 -9.37799e-14 -2.46258e-13 0 0 -1.47053e-13 -2.52053e-13 -5.58253e-14 -1.98581e-13 0 0 4.85073e-14 -6.44943e-13 2.60254e-13 -3.18836e-13 0 0 -2.35712e-13 -3.51669e-13 6.06165e-14 -2.54383e-13 0 0 -5.34842e-13 1.17913e-13 -4.63958e-13 9.26184e-14 0 0 -4.28896e-13 2.8413e-14 -5.2889e-13 2.14238e-13 0
				</DataArray>
				<DataArray Name="VitesseY" type="Float32" format="ascii">