<?xml version="1.0"?>
<VTKFile type="PolyData">
	<PolyData>
		<Piece NumberOfPoints="1206" NumberOfPolys="1000">
			<Points>
				<DataArray type="Float32" NumberOfComponents="3" format="ascii">
 0 0 0 0.02 0 0 0.04 0 0 0.06 0 0 0.08 0 0 0.1 0 0 0 0.005 0 0.02 0.005 0 0.04 0.005 0 0.06 0.005 0 0.08 0.005 0 0.1 0.005 0 0 0.01 0 0.02 0.01 0 0.04 0.01 0 0.06 0.01 0 0.08 0.01 0 0.1 0.01 0 0 0.015 0 0.02 0.015 0 0.04 0.015 0 0.06 0.015 0 0.08 0.015 0 0.1 0.015 0 0 0.02 0 0.02 0.02 0 0.04 0.02 0 0.06 0.02 0 0.08 0.02 0 0.1 0.02 0 0 0.025 0 0.02 0.025 0 0.04 0.025 0 0.06 0.025 0 0.08 0.025 0 0.1 0.025 0 0 0.03 0 0.02 0.03 0 0.04 0.03 0 0.06 0.03 0 0.08 0.03 0 0.1 0.03 0 0 0.035 0 0.02 0.035 0 0.04 0.035 0 0.06 0.035 0 0.08 0.035 0 0.1 0.035 0 0 0.04 0 0.02 0.04 0 0.04 0.04 0 0.06 0.04 0 0.08 0.04 0 0.1 0.04 0 0 0.045 0 0.02 0.045 0 0.04 0.045 0 0.06 0.045 0 0.08 0.045 0 0.1 0.045 0 0 0.05 0 0.02 0.05 0 0.04 0.05 0 0.06 0.05 0 0.08 0.05 0 0.1 0.05 0 0 0.055 0 0.02 0.055 0 0.04 0.055 0 0.06 0.055 0 0.08 0.055 0 0.1 0.055 0 0 0.06 0 0.02 0.06 0 0.04 0.06 0 0.06 0.06 0 0.08 0.06 0 0.1 0.06 0 0 0.065 0 0.02 0.065 0 0.04 0.065 0 0.06 0.065 0 0.08 0.065 0 0.1 0.065 0 0 0.07 0 0.02 0.07 0 0.04 0.07 0 0.06 0.07 0 0.08 0.07 0 0.1 0.07 0 0 0.075 0 0.02 0.075 0 0.04 0.075 0 0.06 0.075 0 0.08 0.075 0 0.1 0.075 0 0 0.08 0 0.02 0.08 0 0.04 0.08 0 0.06 0.08 0 0.08 0.08 0 0.1 0.08 0 0 0.085 0 0.02 0.085 0 0.04 0.085 0 0.06 0.085 0 0.08 0.085 0 0.1 0.085 0 0 0.09 0 0.02 0.09 0 0.04 0.09 0 0.06 0.09 0 0.08 0.09 0 0.1 0.09 0 0 0.095 0 0.02 0.095 0 0.04 0.095 0 0.06 0.095 0 0.08 0.095 0 0.1 0.095 0 0 0.1 0 0.02 0.1 0 0.04 0.1 0 0.06 0.1 0 0.08 0.1 0 0.1 0.1 0 0 0.105 0 0.02 0.105 0 0.04 0.105 0 0.06 0.105 0 0.08 0.105 0 0.1 0.105 0 0 0.11 0 0.02 0.11 0 0.04 0.11 0 0.06 0.11 0 0.08 0.11 0 0.1 0.11 0 0 0.115 0 0.02 0.115 0 0.04 0.115 0 0.06 0.115 0 0.08 0.115 0 0.1 0.115 0 0 0.12 0 0.02 0.12 0 0.04 0.12 0 0.06 0.12 0 0.08 0.12 0 0.1 0.12 0 0 0.125 0 0.02 0.125 0 0.04 0.125 0 0.06 0.125 0 0.08 0.125 0 0.1 0.125 0 0 0.13 0 0.02 0.13 0 0.04 0.13 0 0.06 0.13 0 0.08 0.13 0 0.1 0.13 0 0 0.135 0 0.02 0.135 0 0.04 0.135 0 0.06 0.135 0 0.08 0.135 0 0.1 0.135 0 0 0.14 0 0.02 0.14 0 0.04 0.14 0 0.06 0.14 0 0.08 0.14 0 0.1 0.14 0 0 0.145 0 0.02 0.145 0 0.04 0.145 0 0.06 0.145 0 0.08 0.145 0 0.1 0.145 0 0 0.15 0 0.02 0.15 0 0.04 0.15 0 0.06 0.15 0 0.08 0.15 0 0.1 0.15 0 0 0.155 0 0.02 0.155 0 0.04 0.155 0 0.06 0.155 0 0.08 0.155 0 0.1 0.155 0 0 0.16 0 0.02 0.16 0 0.04 0.16 0 0.06 0.16 0 0.08 0.16 0 0.1 0.16 0 0 0.165 0 0.02 0.165 0 0.04 0.165 0 0.06 0.165 0 0.08 0.165 0 0.1 0.165 0 0 0.17 0 0.02 0.17 0 0.04 0.17 0 0.06 0.17 0 0.08 0.17 0 0.1 0.17 0 0 0.175 0 0.02 0.175 0 0.04 0.175 0 0.06 0.175 0 0.08 0.175 0 0.1 0.175 0 0 0.18 0 0.02 0.18 0 0.04 0.18 0 0.06 0.18 0 0.08 0.18 0 0.1 0.18 0 0 0.185 0 0.02 0.185 0 0.04 0.185 0 0.06 0.185 0 0.08 0.185 0 0.1 0.185 0 0 0.19 0 0.02 0.19 0 0.04 0.19 0 0.06 0.19 0 0.08 0.19 0 0.1 0.19 0 0 0.195 0 0.02 0.195 0 0.04 0.195 0 0.06 0.195 0 0.08 0.195 0 0.1 0.195 0 0 0.2 0 0.02 0.2 0 0.04 0.2 0 0.06 0.2 0 0.08 0.2 0 0.1 0.2 0 0 0.205 0 0.02 0.205 0 0.04 0.205 0 0.06 0.205 0 0.08 0.205 0 0.1 0.205 0 0 0.21 0 0.02 0.21 0 0.04 0.21 0 0.06 0.21 0 0.08 0.21 0 0.1 0.21 0 0 0.215 0 0.02 0.215 0 0.04 0.215 0 0.06 0.215 0 0.08 0.215 0 0.1 0.215 0 0 0.22 0 0.02 0.22 0 0.04 0.22 0 0.06 0.22 0 0.08 0.22 0 0.1 0.22 0 0 0.225 0 0.02 0.225 0 0.04 0.225 0 0.06 0.225 0 0.08 0.225 0 0.1 0.225 0 0 0.23 0 0.02 0.23 0 0.04 0.23 0 0.06 0.23 0 0.08 0.23 0 0.1 0.23 0 0 0.235 0 0.02 0.235 0 0.04 0.235 0 0.06 0.235 0 0.08 0.235 0 0.1 0.235 0 0 0.24 0 0.02 0.24 0 0.04 0.24 0 0.06 0.24 0 0.08 0.24 0 0.1 0.24 0 0 0.245 0 0.02 0.245 0 0.04 0.245 0 0.06 0.245 0 0.08 0.245 0 0.1 0.245 0 0 0.25 0 0.02 0.25 0 0.04 0.25 0 0.06 0.25 0 0.08 0.25 0 0.1 0.25 0 0 0.255 0 0.02 0.255 0 0.04 0.255 0 0.06 0.255 0 0.08 0.255 0 0.1 0.255 0 0 0.26 0 0.02 0.26 0 0.04 0.26 0 0.06 0.26 0 0.08 0.26 0 0.1 0.26 0 0 0.265 0 0.02 0.265 0 0.04 0.265 0 0.06 0.265 0 0.08 0.265 0 0.1 0.265 0 0 0.27 0 0.02 0.27 0 0.04 0.27 0 0.06 0.27 0 0.08 0.27 0 0.1 0.27 0 0 0.275 0 0.02 0.275 0 0.04 0.275 0 0.06 0.275 0 0.08 0.275 0 0.1 0.275 0 0 0.28 0 0.02 0.28 0 0.04 0.28 0 0.06 0.28 0 0.08 0.28 0 0.1 0.28 0 0 0.285 0 0.02 0.285 0 0.04 0.285 0 0.06 0.285 0 0.08 0.285 0 0.1 0.285 0 0 0.29 0 0.02 0.29 0 0.04 0.29 0 0.06 0.29 0 0.08 0.29 0 0.1 0.29 0 0 0.295 0 0.02 0.295 0 0.04 0.295 0 0.06 0.295 0 0.08 0.295 0 0.1 0.295 0 0 0.3 0 0.02 0.3 0 0.04 0.3 0 0.06 0.3 0 0.08 0.3 0 0.1 0.3 0 0 0.305 0 0.02 0.305 0 0.04 0.305 0 0.06 0.305 0 0.08 0.305 0 0.1 0.305 0 0 0.31 0 0.02 0.31 0 0.04 0.31 0 0.06 0.31 0 0.08 0.31 0 0.1 0.31 0 0 0.315 0 0.02 0.315 0 0.04 0.315 0 0.06 0.315 0 0.08 0.315 0 0.1 0.315 0 0 0.32 0 0.02 0.32 0 0.04 0.32 0 0.06 0.32 0 0.08 0.32 0 0.1 0.32 0 0 0.325 0 0.02 0.325 0 0.04 0.325 0 0.06 0.325 0 0.08 0.325 0 0.1 0.325 0 0 0.33 0 0.02 0.33 0 0.04 0.33 0 0.06 0.33 0 0.08 0.33 0 0.1 0.33 0 0 0.335 0 0.02 0.335 0 0.04 0.335 0 0.06 0.335 0 0.08 0.335 0 0.1 0.335 0 0 0.34 0 0.02 0.34 0 0.04 0.34 0 0.06 0.34 0 0.08 0.34 0 0.1 0.34 0 0 0.345 0 0.02 0.345 0 0.04 0.345 0 0.06 0.345 0 0.08 0.345 0 0.1 0.345 0 0 0.35 0 0.02 0.35 0 0.04 0.35 0 0.06 0.35 0 0.08 0.35 0 0.1 0.35 0 0 0.355 0 0.02 0.355 0 0.04 0.355 0 0.06 0.355 0 0.08 0.355 0 0.1 0.355 0 0 0.36 0 0.02 0.36 0 0.04 0.36 0 0.06 0.36 0 0.08 0.36 0 0.1 0.36 0 0 0.365 0 0.02 0.365 0 0.04 0.365 0 0.06 0.365 0 0.08 0.365 0 0.1 0.365 0 0 0.37 0 0.02 0.37 0 0.04 0.37 0 0.06 0.37 0 0.08 0.37 0 0.1 0.37 0 0 0.375 0 0.02 0.375 0 0.04 0.375 0 0.06 0.375 0 0.08 0.375 0 0.1 0.375 0 0 0.38 0 0.02 0.38 0 0.04 0.38 0 0.06 0.38 0 0.08 0.38 0 0.1 0.38 0 0 0.385 0 0.02 0.385 0 0.04 0.385 0 0.06 0.385 0 0.08 0.385 0 0.1 0.385 0 0 0.39 0 0.02 0.39 0 0.04 0.39 0 0.06 0.39 0 0.08 0.39 0 0.1 0.39 0 0 0.395 0 0.02 0.395 0 0.04 0.395 0 0.06 0.395 0 0.08 0.395 0 0.1 0.395 0 0 0.4 0 0.02 0.4 0 0.04 0.4 0 0.06 0.4 0 0.08 0.4 0 0.1 0.4 0 0 0.405 0 0.02 0.405 0 0.04 0.405 0 0.06 0.405 0 0.08 0.405 0 0.1 0.405 0 0 0.41 0 0.02 0.41 0 0.04 0.41 0 0.06 0.41 0 0.08 0.41 0 0.1 0.41 0 0 0.415 0 0.02 0.415 0 0.04 0.415 0 0.06 0.415 0 0.08 0.415 0 0.1 0.415 0 0 0.42 0 0.02 0.42 0 0.04 0.42 0 0.06 0.42 0 0.08 0.42 0 0.1 0.42 0 0 0.425 0 0.02 0.425 0 0.04 0.425 0 0.06 0.425 0 0.08 0.425 0 0.1 0.425 0 0 0.43 0 0.02 0.43 0 0.04 0.43 0 0.06 0.43 0 0.08 0.43 0 0.1 0.43 0 0 0.435 0 0.02 0.435 0 0.04 0.435 0 0.06 0.435 0 0.08 0.435 0 0.1 0.435 0 0 0.44 0 0.02 0.44 0 0.04 0.44 0 0.06 0.44 0 0.08 0.44 0 0.1 0.44 0 0 0.445 0 0.02 0.445 0 0.04 0.445 0 0.06 0.445 0 0.08 0.445 0 0.1 0.445 0 0 0.45 0 0.02 0.45 0 0.04 0.45 0 0.06 0.45 0 0.08 0.45 0 0.1 0.45 0 0 0.455 0 0.02 0.455 0 0.04 0.455 0 0.06 0.455 0 0.08 0.455 0 0.1 0.455 0 0 0.46 0 0.02 0.46 0 0.04 0.46 0 0.06 0.46 0 0.08 0.46 0 0.1 0.46 0 0 0.465 0 0.02 0.465 0 0.04 0.465 0 0.06 0.465 0 0.08 0.465 0 0.1 0.465 0 0 0.47 0 0.02 0.47 0 0.04 0.47 0 0.06 0.47 0 0.08 0.47 0 0.1 0.47 0 0 0.475 0 0.02 0.475 0 0.04 0.475 0 0.06 0.475 0 0.08 0.475 0 0.1 0.475 0 0 0.48 0 0.02 0.48 0 0.04 0.48 0 0.06 0.48 0 0.08 0.48 0 0.1 0.48 0 0 0.485 0 0.02 0.485 0 0.04 0.485 0 0.06 0.485 0 0.08 0.485 0 0.1 0.485 0 0 0.49 0 0.02 0.49 0 0.04 0.49 0 0.06 0.49 0 0.08 0.49 0 0.1 0.49 0 0 0.495 0 0.02 0.495 0 0.04 0.495 0 0.06 0.495 0 0.08 0.495 0 0.1 0.495 0 0 0.5 0 0.02 0.5 0 0.04 0.5 0 0.06 0.5 0 0.08 0.5 0 0.1 0.5 0 0 0.505 0 0.02 0.505 0 0.04 0.505 0 0.06 0.505 0 0.08 0.505 0 0.1 0.505 0 0 0.51 0 0.02 0.51 0 0.04 0.51 0 0.06 0.51 0 0.08 0.51 0 0.1 0.51 0 0 0.515 0 0.02 0.515 0 0.04 0.515 0 0.06 0.515 0 0.08 0.515 0 0.1 0.515 0 0 0.52 0 0.02 0.52 0 0.04 0.52 0 0.06 0.52 0 0.08 0.52 0 0.1 0.52 0 0 0.525 0 0.02 0.525 0 0.04 0.525 0 0.06 0.525 0 0.08 0.525 0 0.1 0.525 0 0 0.53 0 0.02 0.53 0 0.04 0.53 0 0.06 0.53 0 0.08 0.53 0 0.1 0.53 0 0 0.535 0 0.02 0.535 0 0.04 0.535 0 0.06 0.535 0 0.08 0.535 0 0.1 0.535 0 0 0.54 0 0.02 0.54 0 0.04 0.54 0 0.06 0.54 0 0.08 0.54 0 0.1 0.54 0 0 0.545 0 0.02 0.545 0 0.04 0.545 0 0.06 0.545 0 0.08 0.545 0 0.1 0.545 0 0 0.55 0 0.02 0.55 0 0.04 0.55 0 0.06 0.55 0 0.08 0.55 0 0.1 0.55 0 0 0.555 0 0.02 0.555 0 0.04 0.555 0 0.06 0.555 0 0.08 0.555 0 0.1 0.555 0 0 0.56 0 0.02 0.56 0 0.04 0.56 0 0.06 0.56 0 0.08 0.56 0 0.1 0.56 0 0 0.565 0 0.02 0.565 0 0.04 0.565 0 0.06 0.565 0 0.08 0.565 0 0.1 0.565 0 0 0.57 0 0.02 0.57 0 0.04 0.57 0 0.06 0.57 0 0.08 0.57 0 0.1 0.57 0 0 0.575 0 0.02 0.575 0 0.04 0.575 0 0.06 0.575 0 0.08 0.575 0 0.1 0.575 0 0 0.58 0 0.02 0.58 0 0.04 0.58 0 0.06 0.58 0 0.08 0.58 0 0.1 0.58 0 0 0.585 0 0.02 0.585 0 0.04 0.585 0 0.06 0.585 0 0.08 0.585 0 0.1 0.585 0 0 0.59 0 0.02 0.59 0 0.04 0.59 0 0.06 0.59 0 0.08 0.59 0 0.1 0.59 0 0 0.595 0 0.02 0.595 0 0.04 0.595 0 0.06 0.595 0 0.08 0.595 0 0.1 0.595 0 0 0.6 0 0.02 0.6 0 0.04 0.6 0 0.06 0.6 0 0.08 0.6 0 0.1 0.6 0 0 0.605 0 0.02 0.605 0 0.04 0.605 0 0.06 0.605 0 0.08 0.605 0 0.1 0.605 0 0 0.61 0 0.02 0.61 0 0.04 0.61 0 0.06 0.61 0 0.08 0.61 0 0.1 0.61 0 0 0.615 0 0.02 0.615 0 0.04 0.615 0 0.06 0.615 0 0.08 0.615 0 0.1 0.615 0 0 0.62 0 0.02 0.62 0 0.04 0.62 0 0.06 0.62 0 0.08 0.62 0 0.1 0.62 0 0 0.625 0 0.02 0.625 0 0.04 0.625 0 0.06 0.625 0 0.08 0.625 0 0.1 0.625 0 0 0.63 0 0.02 0.63 0 0.04 0.63 0 0.06 0.63 0 0.08 0.63 0 0.1 0.63 0 0 0.635 0 0.02 0.635 0 0.04 0.635 0 0.06 0.635 0 0.08 0.635 0 0.1 0.635 0 0 0.64 0 0.02 0.64 0 0.04 0.64 0 0.06 0.64 0 0.08 0.64 0 0.1 0.64 0 0 0.645 0 0.02 0.645 0 0.04 0.645 0 0.06 0.645 0 0.08 0.645 0 0.1 0.645 0 0 0.65 0 0.02 0.65 0 0.04 0.65 0 0.06 0.65 0 0.08 0.65 0 0.1 0.65 0 0 0.655 0 0.02 0.655 0 0.04 0.655 0 0.06 0.655 0 0.08 0.655 0 0.1 0.655 0 0 0.66 0 0.02 0.66 0 0.04 0.66 0 0.06 0.66 0 0.08 0.66 0 0.1 0.66 0 0 0.665 0 0.02 0.665 0 0.04 0.665 0 0.06 0.665 0 0.08 0.665 0 0.1 0.665 0 0 0.67 0 0.02 0.67 0 0.04 0.67 0 0.06 0.67 0 0.08 0.67 0 0.1 0.67 0 0 0.675 0 0.02 0.675 0 0.04 0.675 0 0.06 0.675 0 0.08 0.675 0 0.1 0.675 0 0 0.68 0 0.02 0.68 0 0.04 0.68 0 0.06 0.68 0 0.08 0.68 0 0.1 0.68 0 0 0.685 0 0.02 0.685 0 0.04 0.685 0 0.06 0.685 0 0.08 0.685 0 0.1 0.685 0 0 0.69 0 0.02 0.69 0 0.04 0.69 0 0.06 0.69 0 0.08 0.69 0 0.1 
[...]
			<PointData Scalars="VitesseX">
				<DataArray Name="VitesseX" type="Float32" format="ascii">
 0 -1.50779e-14 -1.48999e-14 1.36754e-14 -1.44788e-15 0 0 -1.5591e-14 -1.42345e-14 1.4304e-14 -3.07928e-15 0 0 -1.50324e-14 -1.27088e-14 8.89362e-15 1.59517e-15 0 0 -4.66648e-15 -2.57537e-14 1.45558e-14 -7.67634e-17 0 0 1.30708e-15 -2.57679e-14 6.78668e-15 3.32014e-15 0 0 -5.34655e-15 2.19945e-15 -2.95693e-14 1.92007e-14 0 0 -8.11512e-15 1.39065e-14 -4.18781e-14 2.30524e-14 0 0 2.9449e-15 -2.25363e-15 -1.54694e-14 7.79812e-15 0 0 5.34346e-15 -2.18442e-16 -1.05102e-14 4.23465e-15 0 0 -7.1691e-15 2.28584e-14 -3.06076e-14 2.11516e-14 0 0 -4.07258e-15 1.01439e-14 -5.74931e-15 5.89071e-15 0 0 -2.50197e-14 3.22856e-14 -2.01776e-14 5.8491e-15 0 0 -3.56559e-14 3.80288e-14 -2.12891e-14 -6.92437e-15 0 0 -3.44552e-15 -2.14502e-14 3.3614e-14 -3.83279e-14 0 0 -1.63089e-14 -1.99471e-14 3.34936e-14 -3.22553e-14 0 0 -3.81638e-14 -9.61445e-15 1.38453e-14 -1.15942e-14 0 0 -2.36756e-14 -5.18659e-14 4.62934e-14 -3.52505e-14 0 0 -1.57711e-14 -7.1625e-14 5.4591e-14 -4.57571e-14 0 0 -2.19606e-14 -6.12157e-14 1.53621e-14 5.06632e-15 0 0 -3.13596e-14 -4.34958e-14 -1.41225e-14 2.89947e-14 0 0 -4.50458e-14 -1.20453e-14 -4.61552e-14 2.95578e-14 0 0 -5.01811e-14 -9.37668e-16 -3.37087e-14 5.89294e-15 0 0 -3.83052e-14 -3.41847e-14 2.71217e-14 -2.73272e-14 0 0 -2.80322e-14 -5.08562e-14 4.64114e-14 -3.91461e-14 0 0 -3.32161e-14 -2.48099e-14 6.88748e-15 -2.19434e-14 0 0 -1.52727e-14 -4.94894e-14 6.48253e-15 -1.04981e-14 0 0 1.95183e-14 -9.20849e-14 2.89489e-14 -1.7052e-14 0 0 1.33956e-14 -4.88864e-14 5.0139e-15 -3.08466e-14 0 0 1.60162e-14 -1.78182e-14 -4.59065e-14 1.54566e-14 0 0 2.9254e-14 -5.0591e-14 -9.06826e-15 2.45328e-14 0 0 -3.65348e-15 -4.74733e-14 2.85805e-14 4.68812e-15 0 0 -4.04173e-14 -3.57724e-14 3.80585e-14 2.15654e-15 0 0 -6.63808e-14 7.40773e-15 -1.14225e-15 2.31581e-14 0 0 -2.81538e-14 -3.41655e-14 -1.52334e-14 6.64336e-14 0 0 -1.83115e-14 -5.85156e-14 6.00838e-15 5.5235e-14 0 0 -3.09594e-14 -2.10237e-14 -3.2314e-14 4.98781e-14 0 0 -2.63962e-14 -5.09621e-15 -6.77064e-14 7.99122e-14 0 0 -2.86232e-14 -6.89637e-15 -6.7024e-14 1.17381e-13 0 0 1.88667e-15 -4.83629e-14 -6.03891e-14 1.33181e-13 0 0 9.90131e-15 -2.62161e-14 -1.15228e-13 1.55307e-13 0 0 -1.93419e-14 4.2412e-14 -1.6935e-13 1.54814e-13 0 0 5.14448e-15 7.66602e-15 -1.09472e-13 9.68767e-14 0 0 2.10935e-14 -4.9314e-15 -7.24165e-14 4.08746e-14 0 0 2.5897e-14 2.84375e-14 -8.79977e-14 -6.12158e-15 0 0 8.29567e-14 -4.15806e-14 -2.96781e-14 -3.85146e-14 0 0 1.06259e-13 -9.11532e-14 -9.71191e-15 3.4023e-15 0 0 6.34893e-14 -2.52335e-14 -5.05806e-14 3.86508e-14 0 0 3.60856e-14 3.43904e-14 -5.24236e-14 2.85061e-14 0 0 4.2485e-14 3.14554e-14 -3.04635e-14 3.52088e-14 0 0 2.00964e-14 7.22045e-14 -9.77067e-14 1.1381e-13 0 0 -5.10504e-14 1.71812e-13 -2.17923e-13 1.8137e-13 0 0 -4.46338e-14 1.70072e-13 -1.65103e-13 7.31503e-14 0 0 9.79591e-14 9.79969e-15 4.81539e-15 -4.75552e-14 0 0 1.46119e-13 -9.47762e-14 8.67134e-14 -3.02307e-14 0 0 2.4733e-15 6.58592e-14 -1.10599e-13 1.3448e-13 0 0 -6.50745e-14 1.93637e-13 -2.94595e-13 2.66103e-13 0 0 3.56218e-14 2.03258e-14 -1.13969e-13 1.61098e-13 0 0 -4.92279e-15 1.98986e-14 -3.18254e-14 6.06691e-14 0 0 2.93534e-14 4.30995e-14 -4.38423e-14 4.84108e-14 0 0 -2.55614e-15 1.3858e-13 -1.14081e-13 6.5751e-14 0 0 1.76979e-14 8.39174e-14 -1.58095e-14 -5.42852e-14 0 0 1.62074e-13 -8.54009e-14 5.24566e-14 -4.99577e-14 0 0 -3.60283e-14 9.79266e-14 -6.48558e-14 6.42786e-14 0 0 -9.95737e-14 5.42118e-14 8.48647e-14 -5.02298e-14 0 0 -1.00959e-14 9.41426e-15 1.64598e-14 -2.43603e-14 0 0 6.57305e-14 5.36189e-14 -1.69708e-13 3.99453e-14 0 0 2.56197e-13 -1.00198e-13 -9.34412e-14 -1.02669e-13 0 0 1.52064e-13 1.33385e-13 -3.47486e-13 2.8251e-14 0 0 1.18395e-13 2.10968e-13 -4.14471e-13 1.52549e-13 0 0 1.5459e-13 4.48901e-14 -1.53878e-13 1.83207e-14 0 0 -3.90838e-14 1.32878e-13 -8.91496e-14 -2.72653e-14 0 0 -4.22704e-14 1.19989e-13 -6.52199e-14 -8.99623e-15 0 0 2.12273e-14 1.78906e-13 -2.46755e-13 8.48036e-14 0 0 1.00296e-13 1.54612e-13 -3.4622e-13 -1.40784e-14 0 0 8.11883e-14 1.78731e-13 -2.89616e-13 -1.51694e-13 0 0 3.52455e-14 2.15978e-13 -3.05056e-13 -1.10515e-13 0 0 1.6516e-13 1.36412e-14 -1.66899e-13 -4.39516e-14 0 0 2.41609e-13 -1.32543e-13 -1.53205e-13 7.33736e-14 0 0 1.16938e-13 -5.04841e-15 -4.19036e-13 4.10504e-13 0 0 -2.39212e-14 1.18439e-13 -5.63428e-13 4.68127e-13 0 0 -7.96476e-14 3.7244e-14 -4.75553e-13 3.74332e-13 0 0 -1.12734e-13 -7.22224e-14 -2.02838e-13 1.22895e-13 0 0 -1.59516e-13 -4.6688e-14 -7.83445e-14 -8.17524e-14 0 0 -3.14664e-13 -5.83489e-14 1.30732e-14 -2.12245e-13 0 0 -3.03566e-13 -1.04642e-13 8.96957e-14 -2.90971e-13 0 0 -2.5489e-13 -2.10798e-13 8.4939e-14 -2.65076e-13 0 0 -1.83937e-13 -2.5096e-13 3.38978e-14 -1.41909e-13 0 0 -1.5401e-13 -2.42209e-13 -7.28718e-14 3.22842e-14 0 0 -1.70668e-13 -1.86668e-13 -2.22887e-13 1.49868e-13 0 0 -2.33715e-13 -9.16907e-14 -3.74786e-13 2.08471e-13 0 0 -2.95747e-13 -5.28541e-14 -3.78595e-13 1.77765e-13 0 0 -3.06921e-13 -6.24181e-14 -3.43533e-13 8.62655e-14 0 0 -2.718e-13 -1.64304e-13 -2.36062e-13 -4.59918e-14 0 0 -2.30733e-13 -3.16664e-13 -1.35341e-13 -1.47044e-13 0 0 -2.27159e-13 -3.60305e-13 -6.03107e-14 -2.13269e-13 0 0 -2.58603e-13 -3.54626e-13 -5.64557e-15 -2.55683e-13 0 0 -3.72171e-13 -2.95917e-13 -2.66516e-15 -2.33988e-13 0 0 -5.17073e-13 -1.84338e-13 -2.55389e-14 -1.84691e-13 0 0 -6.48971e-13 -7.212e-14 -6.11534e-14 -1.62549e-13 0 0 -6.6205e-13 -6.92677e-14 -5.26068e-14 -1.77141e-13 0 0 -6.44627e-13 -9.47593e-14 -2.2233e-14 -2.03764e-13 0 0 -5.77899e-13 -1.53029e-13 2.66518e-15 -2.15534e-13 0 0 -4.53169e-13 -2.09051e-13 5.97131e-15 -2.1782e-13 0 0 -3.26602e-13 -2.48341e-13 6.44445e-16 -1.5901e-13 0 0 -2.02184e-13 -3.01261e-13 5.94053e-14 -1.78102e-13 0 0 -8.41454e-14 -3.79913e-13 1.33882e-13 -1.6732e-13 0 0 1.2808e-14 -3.68623e-13 6.14785e-14 -3.46155e-14 0 0 7.61528e-14 -2.50172e-13 -2.23196e-13 2.53371e-13 0 0 1.29967e-13 -1.38394e-13 -2.82633e-13 3.68067e-13 0 0 1.78346e-13 -1.3751e-13 -1.85026e-13 3.56114e-13 0 0 1.72381e-13 -9.99693e-14 -1.34448e-13 4.35862e-13 0 0 1.74555e-13 -6.47095e-14 -8.4036e-14 4.24047e-13 0 0 1.49257e-13 -5.19151e-14 2.78359e-14 3.4355e-13 0 0 5.91368e-14 4.17436e-15 1.97597e-14 2.73292e-13 0 0 3.58308e-14 3.26876e-14 7.02182e-15 2.1127e-13 0 0 3.55269e-14 9.32226e-15 4.80745e-14 1.48086e-13 0 0 4.47337e-14 -1.19168e-14 6.68049e-14 1.48611e-13 0 0 7.46986e-14 -2.34239e-14 4.45021e-14 1.67616e-13 0 0 1.30952e-13 -3.57075e-14 7.96888e-14 1.0901e-13 0 0 1.83331e-13 -8.4612e-14 2.01831e-13 3.60854e-15 0 0 1.96837e-13 -8.39079e-14 2.29957e-13 1.5014e-15 0 0 2.07414e-13 -3.86781e-14 2.07387e-13 2.44865e-14 0 0 1.92439e-13 8.82797e-14 1.23549e-13 6.32483e-14 0 0 8.96222e-14 3.3388e-13 -6.38724e-14 1.55042e-13 0 0 3.87635e-14 4.4129e-13 -2.27221e-13 2.29665e-13 0 0 5.73541e-14 4.1716e-13 -2.18209e-13 2.1033e-13 0 0 1.25418e-13 2.52643e-13 -8.54761e-14 1.6523e-13 0 0 1.77765e-13 -6.76096e-14 1.61618e-13 1.36079e-14 0 0 1.70246e-13 -2.46413e-13 3.65157e-13 -1.18737e-13 0 0 1.14459e-13 -2.04914e-13 3.01459e-13 -7.78873e-14 0 0 2.79872e-14 -7.82685e-14 7.49242e-14 5.65471e-14 0 0 2.71602e-14 2.30301e-14 -5.14996e-14 5.5041e-14 0 0 2.96539e-14 6.51851e-14 -1.06105e-13 1.21819e-14 0 0 2.75154e-14 8.69149e-14 -1.53023e-13 -1.9327e-14 0 0 3.10616e-14 9.56304e-14 -2.01857e-13 -3.83556e-14 0 0 2.72463e-14 9.86619e-14 -2.02373e-13 -8.04578e-14 0 0 -3.66989e-15 1.06116e-13 -1.94849e-13 -1.52166e-13 0 0 -6.68775e-15 9.85821e-14 -1.92518e-13 -2.03147e-13 0 0 -6.64271e-15 2.74595e-14 -1.7671e-13 -1.73659e-13 0 0 2.49572e-15 -1.04216e-13 -6.99283e-14 -1.1873e-13 0 0 1.10212e-15 -1.41126e-13 -2.02542e-14 -8.70325e-14 0 0 -5.10907e-14 -1.15934e-13 -2.01843e-14 -8.01256e-14 0 0 -1.15881e-13 -1.09155e-13 1.42994e-14 -1.37776e-13 0 0 -1.07968e-13 -1.34686e-13 3.53809e-14 -1.86131e-13 0 0 -1.03875e-13 -1.54416e-13 -1.98365e-14 -1.03223e-13 0 0 -8.36362e-14 -1.63771e-13 -1.39862e-13 -3.59604e-14 0 0 -3.59107e-14 -1.92458e-13 -1.49996e-13 -8.2516e-14 0 0 -6.97112e-14 -1.21835e-13 -2.47339e-13 -8.45479e-14 0 0 -9.54857e-14 3.5622e-14 -4.25467e-13 -1.21953e-13 0 0 -7.88252e-14 4.92863e-14 -4.023e-13 -1.26541e-13 0 0 -3.26048e-14 5.08364e-14 -3.12547e-13 8.58731e-14 0 0 4.69065e-14 2.4136e-14 -1.55616e-13 2.8528e-13 0 0 3.46114e-14 1.08566e-13 -1.20985e-13 3.49826e-13 0 0 2.64497e-14 1.23442e-13 -4.82707e-14 3.06534e-13 0 0 7.1451e-14 1.48486e-15 1.78659e-13 1.08042e-13 0 0 5.9507e-14 2.06414e-14 1.91849e-13 6.6661e-14 0 0 4.56112e-14 4.96742e-14 1.59428e-13 1.06798e-13 0 0 4.97117e-14 4.9834e-14 2.10153e-13 3.76567e-14 0 0 -7.57714e-15 1.26852e-13 1.2129e-13 1.33992e-13 0 0 2.09904e-14 6.71533e-14 1.82393e-13 8.2541e-14 0 0 8.60923e-14 -5.68331e-14 3.38455e-13 -3.03786e-14 0 0 -1.41715e-14 8.13503e-14 1.93431e-13 2.05447e-13 0 0 1.45987e-15 3.60478e-14 2.9547e-13 1.36125e-13 0 0 1.7045e-14 4.2008e-15 3.70629e-13 2.45501e-14 0 0 3.50652e-15 9.37264e-14 2.66618e-13 9.46581e-14 0 0 -9.56932e-15 1.36389e-13 2.70546e-13 5.2405e-14 0 0 5.14208e-14 5.60895e-14 4.0751e-13 -7.51374e-14 0 0 1.32834e-13 -1.17508e-14 5.05039e-13 -1.24291e-13 0 0 4.8463e-14 1.78159e-13 3.20244e-13 1.79674e-14 0 0 1.11693e-13 1.20668e-13 4.08021e-13 -5.44985e-14 0 0 1.72347e-13 5.05128e-14 4.93934e-13 1.15047e-15 0 0 9.24298e-14 2.47318e-13 2.31175e-13 3.16858e-13 0 0 7.2329e-14 3.48025e-13 1.38822e-13 4.35114e-13 0 0 1.39997e-13 2.93996e-13 2.75172e-13 3.57905e-13 0 0 1.84206e-13 2.8801e-13 3.6053e-13 2.42368e-13 0 0 2.37599e-13 2.315e-13 5.05733e-13 8.81177e-14 0 0 2.8065e-13 1.71739e-13 5.16949e-13 1.50119e-13 0 0 2.20657e-13 3.08093e-13 2.54034e-13 4.39523e-13 0 0 2.81789e-13 2.61866e-13 3.75302e-13 2.47037e-13 0 0 1.57784e-13 4.49805e-13 2.72174e-13 2.50073e-13 0 0 7.41257e-14 5.11075e-13 1.56563e-13 4.51444e-13 0 0 2.6135e-13 1.26183e-13 5.2202e-13 2.20635e-13 0 0 2.03172e-13 1.82754e-13 4.84436e-13 2.2306e-13 0 0 4.68147e-15 5.014e-13 1.71182e-13 4.38274e-13 0 0 1.65174e-13 3.75804e-13 2.22926e-13 4.17718e-13 0 0 3.50835e-13 2.18525e-13 3.90656e-13 2.00601e-13 0 0 1.01326e-13 6.09374e-13 9.5567e-14 2.45728e-13 0 0 1.91129e-13 4.50202e-13 2.11423e-13 1.91157e-13 0 0 4.16273e-13 2.46189e-14 6.98706e-13 -1.53387e-13 0 0 1.69284e-13 3.7631e-13 4.07405e-13 -7.40841e-14 0 0 9.97686e-15 5.81776e-13 2.88642e-13 -8.73677e-14 0 0 4.79259e-14 4.80361e-13 2.85218e-13 2.05999e-13 0 0 1.89407e-13 3.65823e-13 7.87199e-14 7.35022e-13 0 0 7.6936e-14 6.2056e-13 -1.97771e-13 8.99409e-13 0 0 3.33828e-13 1.31415e-13 4.14049e-13 2.63653e-13 0 0 4.85851e-13 -1.69844e-13 8.27872e-13 -2.13674e-13 0 0 3.32976e-13 1.11893e-13 5.02249e-13 -1.29293e-13 0 0 3.56311e-13 1.93251e-13 2.90781e-13 -1.08712e-13 0 0 1.9856e-13 5.69457e-13 -2.2989e-13 2.34183e-13 0 0 2.09277e-13 6.29351e-13 -4.80504e-13 4.6994e-13 0 0 1.8795e-13 7.06077e-13 -6.18378e-13 5.63821e-13 0
				</DataArray>
				<DataArray Name="VitesseY" type="Float32" format="ascii">