<?xml version="1.0"?>
<VTKFile type="PolyData">
	<PolyData>
		<Piece NumberOfPoints="1206" NumberOfPolys="1000">
			<Points>
				<DataArray type="Float32" NumberOfComponents="3" format="ascii">
 0 0 0 0.02 0 0 0.04 0 0 0.06 0 0 0.08 0 0 0.1 0 0 0 0.005 0 0.02 0.005 0 0.04 0.005 0 0.06 0.005 0 0.08 0.005 0 0.1 0.005 0 0 0.01 0 0.02 0.01 0 0.04 0.01 0 0.06 0.01 0 0.08 0.01 0 0.1 0.01 0 0 0.015 0 0.02 0.015 0 0.04 0.015 0 0.06 0.015 0 0.08 0.015 0 0.1 0.015 0 0 0.02 0 0.02 0.02 0 0.04 0.02 0 0.06 0.02 0 0.08 0.02 0 0.1 0.02 0 0 0.025 0 0.02 0.025 0 0.04 0.025 0 0.06 0.025 0 0.08 0.025 0 0.1 0.025 0 0 0.03 0 0.02 0.03 0 0.04 0.03 0 0.06 0.03 0 0.08 0.03 0 0.1 0.03 0 0 0.035 0 0.02 0.035 0 0.04 0.035 0 0.06 0.035 0 0.08 0.035 0 0.1 0.035 0 0 0.04 0 0.02 0.04 0 0.04 0.04 0 0.06 0.04 0 0.08 0.04 0 0.1 0.04 0 0 0.045 0 0.02 0.045 0 0.04 0.045 0 0.06 0.045 0 0.08 0.045 0 0.1 0.045 0 0 0.05 0 0.02 0.05 0 0.04 0.05 0 0.06 0.05 0 0.08 0.05 0 0.1 0.05 0 0 0.055 0 0.02 0.055 0 0.04 0.055 0 0.06 0.055 0 0.08 0.055 0 0.1 0.055 0 0 0.06 0 0.02 0.06 0 0.04 0.06 0 0.06 0.06 0 0.08 0.06 0 0.1 0.06 0 0 0.065 0 0.02 0.065 0 0.04 0.065 0 0.06 0.065 0 0.08 0.065 0 0.1 0.065 0 0 0.07 0 0.02 0.07 0 0.04 0.07 0 0.06 0.07 0 0.08 0.07 0 0.1 0.07 0 0 0.075 0 0.02 0.075 0 0.04 0.075 0 0.06 0.075 0 0.08 0.075 0 0.1 0.075 0 0 0.08 0 0.02 0.08 0 0.04 0.08 0 0.06 0.08 0 0.08 0.08 0 0.1 0.08 0 0 0.085 0 0.02 0.085 0 0.04 0.085 0 0.06 0.085 0 0.08 0.085 0 0.1 0.085 0 0 0.09 0 0.02 0.09 0 0.04 0.09 0 0.06 0.09 0 0.08 0.09 0 0.1 0.09 0 0 0.095 0 0.02 0.095 0 0.04 0.095 0 0.06 0.095 0 0.08 0.095 0 0.1 0.095 0 0 0.1 0 0.02 0.1 0 0.04 0.1 0 0.06 0.1 0 0.08 0.1 0 0.1 0.1 0 0 0.105 0 0.02 0.105 0 0.04 0.105 0 0.06 0.105 0 0.08 0.105 0 0.1 0.105 0 0 0.11 0 0.02 0.11 0 0.04 0.11 0 0.06 0.11 0 0.08 0.11 0 0.1 0.11 0 0 0.115 0 0.02 0.115 0 0.04 0.115 0 0.06 0.115 0 0.08 0.115 0 0.1 0.115 0 0 0.12 0 0.02 0.12 0 0.04 0.12 0 0.06 0.12 0 0.08 0.12 0 0.1 0.12 0 0 0.125 0 0.02 0.125 0 0.04 0.125 0 0.06 0.125 0 0.08 0.125 0 0.1 0.125 0 0 0.13 0 0.02 0.13 0 0.04 0.13 0 0.06 0.13 0 0.08 0.13 0 0.1 0.13 0 0 0.135 0 0.02 0.135 0 0.04 0.135 0 0.06 0.135 0 0.08 0.135 0 0.1 0.135 0 0 0.14 0 0.02 0.14 0 0.04 0.14 0 0.06 0.14 0 0.08 0.14 0 0.1 0.14 0 0 0.145 0 0.02 0.145 0 0.04 0.145 0 0.06 0.145 0 0.08 0.145 0 0.1 0.145 0 0 0.15 0 0.02 0.15 0 0.04 0.15 0 0.06 0.15 0 0.08 0.15 0 0.1 0.15 0 0 0.155 0 0.02 0.155 0 0.04 0.155 0 0.06 0.155 0 0.08 0.155 0 0.1 0.155 0 0 0.16 0 0.02 0.16 0 0.04 0.16 0 0.06 0.16 0 0.08 0.16 0 0.1 0.16 0 0 0.165 0 0.02 0.165 0 0.04 0.165 0 0.06 0.165 0 0.08 0.165 0 0.1 0.165 0 0 0.17 0 0.02 0.17 0 0.04 0.17 0 0.06 0.17 0 0.08 0.17 0 0.1 0.17 0 0 0.175 0 0.02 0.175 0 0.04 0.175 0 0.06 0.175 0 0.08 0.175 0 0.1 0.175 0 0 0.18 0 0.02 0.18 0 0.04 0.18 0 0.06 0.18 0 0.08 0.18 0 0.1 0.18 0 0 0.185 0 0.02 0.185 0 0.04 0.185 0 0.06 0.185 0 0.08 0.185 0 0.1 0.185 0 0 0.19 0 0.02 0.19 0 0.04 0.19 0 0.06 0.19 0 0.08 0.19 0 0.1 0.19 0 0 0.195 0 0.02 0.195 0 0.04 0.195 0 0.06 0.195 0 0.08 0.195 0 0.1 0.195 0 0 0.2 0 0.02 0.2 0 0.04 0.2 0 0.06 0.2 0 0.08 0.2 0 0.1 0.2 0 0 0.205 0 0.02 0.205 0 0.04 0.205 0 0.06 0.205 0 0.08 0.205 0 0.1 0.205 0 0 0.21 0 0.02 0.21 0 0.04 0.21 0 0.06 0.21 0 0.08 0.21 0 0.1 0.21 0 0 0.215 0 0.02 0.215 0 0.04 0.215 0 0.06 0.215 0 0.08 0.215 0 0.1 0.215 0 0 0.22 0 0.02 0.22 0 0.04 0.22 0 0.06 0.22 0 0.08 0.22 0 0.1 0.22 0 0 0.225 0 0.02 0.225 0 0.04 0.225 0 0.06 0.225 0 0.08 0.225 0 0.1 0.225 0 0 0.23 0 0.02 0.23 0 0.04 0.23 0 0.06 0.23 0 0.08 0.23 0 0.1 0.23 0 0 0.235 0 0.02 0.235 0 0.04 0.235 0 0.06 0.235 0 0.08 0.235 0 0.1 0.235 0 0 0.24 0 0.02 0.24 0 0.04 0.24 0 0.06 0.24 0 0.08 0.24 0 0.1 0.24 0 0 0.245 0 0.02 0.245 0 0.04 0.245 0 0.06 0.245 0 0.08 0.245 0 0.1 0.245 0 0 0.25 0 0.02 0.25 0 0.04 0.25 0 0.06 0.25 0 0.08 0.25 0 0.1 0.25 0 0 0.255 0 0.02 0.255 0 0.04 0.255 0 0.06 0.255 0 0.08 0.255 0 0.1 0.255 0 0 0.26 0 0.02 0.26 0 0.04 0.26 0 0.06 0.26 0 0.08 0.26 0 0.1 0.26 0 0 0.265 0 0.02 0.265 0 0.04 0.265 0 0.06 0.265 0 0.08 0.265 0 0.1 0.265 0 0 0.27 0 0.02 0.27 0 0.04 0.27 0 0.06 0.27 0 0.08 0.27 0 0.1 0.27 0 0 0.275 0 0.02 0.275 0 0.04 0.275 0 0.06 0.275 0 0.08 0.275 0 0.1 0.275 0 0 0.28 0 0.02 0.28 0 0.04 0.28 0 0.06 0.28 0 0.08 0.28 0 0.1 0.28 0 0 0.285 0 0.02 0.285 0 0.04 0.285 0 0.06 0.285 0 0.08 0.285 0 0.1 0.285 0 0 0.29 0 0.02 0.29 0 0.04 0.29 0 0.06 0.29 0 0.08 0.29 0 0.1 0.29 0 0 0.295 0 0.02 0.295 0 0.04 0.295 0 0.06 0.295 0 0.08 0.295 0 0.1 0.295 0 0 0.3 0 0.02 0.3 0 0.04 0.3 0 0.06 0.3 0 0.08 0.3 0 0.1 0.3 0 0 0.305 0 0.02 0.305 0 0.04 0.305 0 0.06 0.305 0 0.08 0.305 0 0.1 0.305 0 0 0.31 0 0.02 0.31 0 0.04 0.31 0 0.06 0.31 0 0.08 0.31 0 0.1 0.31 0 0 0.315 0 0.02 0.315 0 0.04 0.315 0 0.06 0.315 0 0.08 0.315 0 0.1 0.315 0 0 0.32 0 0.02 0.32 0 0.04 0.32 0 0.06 0.32 0 0.08 0.32 0 0.1 0.32 0 0 0.325 0 0.02 0.325 0 0.04 0.325 0 0.06 0.325 0 0.08 0.325 0 0.1 0.325 0 0 0.33 0 0.02 0.33 0 0.04 0.33 0 0.06 0.33 0 0.08 0.33 0 0.1 0.33 0 0 0.335 0 0.02 0.335 0 0.04 0.335 0 0.06 0.335 0 0.08 0.335 0 0.1 0.335 0 0 0.34 0 0.02 0.34 0 0.04 0.34 0 0.06 0.34 0 0.08 0.34 0 0.1 0.34 0 0 0.345 0 0.02 0.345 0 0.04 0.345 0 0.06 0.345 0 0.08 0.345 0 0.1 0.345 0 0 0.35 0 0.02 0.35 0 0.04 0.35 0 0.06 0.35 0 0.08 0.35 0 0.1 0.35 0 0 0.355 0 0.02 0.355 0 0.04 0.355 0 0.06 0.355 0 0.08 0.355 0 0.1 0.355 0 0 0.36 0 0.02 0.36 0 0.04 0.36 0 0.06 0.36 0 0.08 0.36 0 0.1 0.36 0 0 0.365 0 0.02 0.365 0 0.04 0.365 0 0.06 0.365 0 0.08 0.365 0 0.1 0.365 0 0 0.37 0 0.02 0.37 0 0.04 0.37 0 0.06 0.37 0 0.08 0.37 0 0.1 0.37 0 0 0.375 0 0.02 0.375 0 0.04 0.375 0 0.06 0.375 0 0.08 0.375 0 0.1 0.375 0 0 0.38 0 0.02 0.38 0 0.04 0.38 0 0.06 0.38 0 0.08 0.38 0 0.1 0.38 0 0 0.385 0 0.02 0.385 0 0.04 0.385 0 0.06 0.385 0 0.08 0.385 0 0.1 0.385 0 0 0.39 0 0.02 0.39 0 0.04 0.39 0 0.06 0.39 0 0.08 0.39 0 0.1 0.39 0 0 0.395 0 0.02 0.395 0 0.04 0.395 0 0.06 0.395 0 0.08 0.395 0 0.1 0.395 0 0 0.4 0 0.02 0.4 0 0.04 0.4 0 0.06 0.4 0 0.08 0.4 0 0.1 0.4 0 0 0.405 0 0.02 0.405 0 0.04 0.405 0 0.06 0.405 0 0.08 0.405 0 0.1 0.405 0 0 0.41 0 0.02 0.41 0 0.04 0.41 0 0.06 0.41 0 0.08 0.41 0 0.1 0.41 0 0 0.415 0 0.02 0.415 0 0.04 0.415 0 0.06 0.415 0 0.08 0.415 0 0.1 0.415 0 0 0.42 0 0.02 0.42 0 0.04 0.42 0 0.06 0.42 0 0.08 0.42 0 0.1 0.42 0 0 0.425 0 0.02 0.425 0 0.04 0.425 0 0.06 0.425 0 0.08 0.425 0 0.1 0.425 0 0 0.43 0 0.02 0.43 0 0.04 0.43 0 0.06 0.43 0 0.08 0.43 0 0.1 0.43 0 0 0.435 0 0.02 0.435 0 0.04 0.435 0 0.06 0.435 0 0.08 0.435 0 0.1 0.435 0 0 0.44 0 0.02 0.44 0 0.04 0.44 0 0.06 0.44 0 0.08 0.44 0 0.1 0.44 0 0 0.445 0 0.02 0.445 0 0.04 0.445 0 0.06 0.445 0 0.08 0.445 0 0.1 0.445 0 0 0.45 0 0.02 0.45 0 0.04 0.45 0 0.06 0.45 0 0.08 0.45 0 0.1 0.45 0 0 0.455 0 0.02 0.455 0 0.04 0.455 0 0.06 0.455 0 0.08 0.455 0 0.1 0.455 0 0 0.46 0 0.02 0.46 0 0.04 0.46 0 0.06 0.46 0 0.08 0.46 0 0.1 0.46 0 0 0.465 0 0.02 0.465 0 0.04 0.465 0 0.06 0.465 0 0.08 0.465 0 0.1 0.465 0 0 0.47 0 0.02 0.47 0 0.04 0.47 0 0.06 0.47 0 0.08 0.47 0 0.1 0.47 0 0 0.475 0 0.02 0.475 0 0.04 0.475 0 0.06 0.475 0 0.08 0.475 0 0.1 0.475 0 0 0.48 0 0.02 0.48 0 0.04 0.48 0 0.06 0.48 0 0.08 0.48 0 0.1 0.48 0 0 0.485 0 0.02 0.485 0 0.04 0.485 0 0.06 0.485 0 0.08 0.485 0 0.1 0.485 0 0 0.49 0 0.02 0.49 0 0.04 0.49 0 0.06 0.49 0 0.08 0.49 0 0.1 0.49 0 0 0.495 0 0.02 0.495 0 0.04 0.495 0 0.06 0.495 0 0.08 0.495 0 0.1 0.495 0 0 0.5 0 0.02 0.5 0 0.04 0.5 0 0.06 0.5 0 0.08 0.5 0 0.1 0.5 0 0 0.505 0 0.02 0.505 0 0.04 0.505 0 0.06 0.505 0 0.08 0.505 0 0.1 0.505 0 0 0.51 0 0.02 0.51 0 0.04 0.51 0 0.06 0.51 0 0.08 0.51 0 0.1 0.51 0 0 0.515 0 0.02 0.515 0 0.04 0.515 0 0.06 0.515 0 0.08 0.515 0 0.1 0.515 0 0 0.52 0 0.02 0.52 0 0.04 0.52 0 0.06 0.52 0 0.08 0.52 0 0.1 0.52 0 0 0.525 0 0.02 0.525 0 0.04 0.525 0 0.06 0.525 0 0.08 0.525 0 0.1 0.525 0 0 0.53 0 0.02 0.53 0 0.04 0.53 0 0.06 0.53 0 0.08 0.53 0 0.1 0.53 0 0 0.535 0 0.02 0.535 0 0.04 0.535 0 0.06 0.535 0 0.08 0.535 0 0.1 0.535 0 0 0.54 0 0.02 0.54 0 0.04 0.54 0 0.06 0.54 0 0.08 0.54 0 0.1 0.54 0 0 0.545 0 0.02 0.545 0 0.04 0.545 0 0.06 0.545 0 0.08 0.545 0 0.1 0.545 0 0 0.55 0 0.02 0.55 0 0.04 0.55 0 0.06 0.55 0 0.08 0.55 0 0.1 0.55 0 0 0.555 0 0.02 0.555 0 0.04 0.555 0 0.06 0.555 0 0.08 0.555 0 0.1 0.555 0 0 0.56 0 0.02 0.56 0 0.04 0.56 0 0.06 0.56 0 0.08 0.56 0 0.1 0.56 0 0 0.565 0 0.02 0.565 0 0.04 0.565 0 0.06 0.565 0 0.08 0.565 0 0.1 0.565 0 0 0.57 0 0.02 0.57 0 0.04 0.57 0 0.06 0.57 0 0.08 0.57 0 0.1 0.57 0 0 0.575 0 0.02 0.575 0 0.04 0.575 0 0.06 0.575 0 0.08 0.575 0 0.1 0.575 0 0 0.58 0 0.02 0.58 0 0.04 0.58 0 0.06 0.58 0 0.08 0.58 0 0.1 0.58 0 0 0.585 0 0.02 0.585 0 0.04 0.585 0 0.06 0.585 0 0.08 0.585 0 0.1 0.585 0 0 0.59 0 0.02 0.59 0 0.04 0.59 0 0.06 0.59 0 0.08 0.59 0 0.1 0.59 0 0 0.595 0 0.02 0.595 0 0.04 0.595 0 0.06 0.595 0 0.08 0.595 0 0.1 0.595 0 0 0.6 0 0.02 0.6 0 0.04 0.6 0 0.06 0.6 0 0.08 0.6 0 0.1 0.6 0 0 0.605 0 0.02 0.605 0 0.04 0.605 0 0.06 0.605 0 0.08 0.605 0 0.1 0.605 0 0 0.61 0 0.02 0.61 0 0.04 0.61 0 0.06 0.61 0 0.08 0.61 0 0.1 0.61 0 0 0.615 0 0.02 0.615 0 0.04 0.615 0 0.06 0.615 0 0.08 0.615 0 0.1 0.615 0 0 0.62 0 0.02 0.62 0 0.04 0.62 0 0.06 0.62 0 0.08 0.62 0 0.1 0.62 0 0 0.625 0 0.02 0.625 0 0.04 0.625 0 0.06 0.625 0 0.08 0.625 0 0.1 0.625 0 0 0.63 0 0.02 0.63 0 0.04 0.63 0 0.06 0.63 0 0.08 0.63 0 0.1 0.63 0 0 0.635 0 0.02 0.635 0 0.04 0.635 0 0.06 0.635 0 0.08 0.635 0 0.1 0.635 0 0 0.64 0 0.02 0.64 0 0.04 0.64 0 0.06 0.64 0 0.08 0.64 0 0.1 0.64 0 0 0.645 0 0.02 0.645 0 0.04 0.645 0 0.06 0.645 0 0.08 0.645 0 0.1 0.645 0 0 0.65 0 0.02 0.65 0 0.04 0.65 0 0.06 0.65 0 0.08 0.65 0 0.1 0.65 0 0 0.655 0 0.02 0.655 0 0.04 0.655 0 0.06 0.655 0 0.08 0.655 0 0.1 0.655 0 0 0.66 0 0.02 0.66 0 0.04 0.66 0 0.06 0.66 0 0.08 0.66 0 0.1 0.66 0 0 0.665 0 0.02 0.665 0 0.04 0.665 0 0.06 0.665 0 0.08 0.665 0 0.1 0.665 0 0 0.67 0 0.02 0.67 0 0.04 0.67 0 0.06 0.67 0 0.08 0.67 0 0.1 0.67 0 0 0.675 0 0.02 0.675 0 0.04 0.675 0 0.06 0.675 0 0.08 0.675 0 0.1 0.675 0 0 0.68 0 0.02 0.68 0 0.04 0.68 0 0.06 0.68 0 0.08 0.68 0 0.1 0.68 0 0 0.685 0 0.02 0.685 0 0.04 0.685 0 0.06 0.685 0 0.08 0.685 0 0.1 0.685 0 0 0.69 0 0.02 0.69 0 0.04 0.69 0 0.06 0.69 0 0.08 0.69 0 0.1 
[...]
			<PointData Scalars="VitesseX">
				<DataArray Name="VitesseX" type="Float32" format="ascii">
 0 -1.5352e-14 -1.83931e-14 1.38848e-14 -6.54073e-15 0 0 -1.42571e-14 -1.6422e-14 8.55221e-15 -2.8586e-15 0 0 -1.33746e-14 -1.08406e-14 -5.19373e-15 7.60631e-15 0 0 -4.39189e-15 -2.23158e-14 3.73549e-15 2.10675e-15 0 0 -1.23661e-16 -2.09266e-14 4.30571e-16 2.62649e-15 0 0 -2.66419e-15 -5.83886e-15 -1.65955e-14 1.22841e-14 0 0 2.05089e-15 -6.59465e-15 -1.48718e-14 1.18527e-14 0 0 9.89299e-15 -1.57668e-14 7.83383e-15 -3.4146e-15 0 0 -7.88846e-15 1.66336e-14 -8.01843e-15 1.27082e-15 0 0 -1.34393e-14 3.03275e-14 -2.17599e-14 5.18723e-15 0 0 8.50088e-15 -1.64187e-15 7.96601e-15 -1.47258e-14 0 0 3.22542e-15 9.96995e-15 -1.05124e-14 -5.72509e-16 0 0 5.59836e-15 6.93847e-15 -9.35433e-15 -1.14592e-15 0 0 7.23575e-15 8.7353e-15 -1.2781e-15 -1.24115e-14 0 0 -9.29186e-15 3.69502e-14 -3.26804e-14 6.76192e-15 0 0 2.36583e-14 -2.96598e-14 2.14016e-14 -2.76299e-14 0 0 -5.37325e-15 5.10205e-15 -2.59805e-14 -1.88495e-15 0 0 -1.68581e-14 3.46002e-14 -7.65213e-14 3.35314e-14 0 0 8.04612e-15 -1.24116e-14 -3.11526e-14 2.08923e-14 0 0 -6.1075e-15 -1.51598e-14 -1.83452e-14 2.65863e-14 0 0 -1.38039e-14 -1.46129e-15 -3.9889e-14 3.77478e-14 0 0 -4.85896e-14 5.17475e-14 -5.85678e-14 1.30501e-14 0 0 -3.82327e-15 -8.73644e-15 3.04036e-14 -6.10942e-14 0 0 4.73451e-14 -5.3101e-14 5.26111e-14 -5.50842e-14 0 0 3.03631e-15 2.96723e-14 -2.67077e-14 -9.35659e-15 0 0 -6.934e-15 3.35936e-14 -1.2417e-14 -2.20795e-14 0 0 5.95123e-14 -4.56919e-14 4.84277e-14 -5.80767e-14 0 0 6.35388e-14 -2.64876e-14 -1.58833e-14 -4.86998e-15 0 0 2.65483e-14 4.73282e-15 -3.96197e-14 2.32287e-14 0 0 1.17036e-14 -2.31878e-15 -1.80145e-14 1.2399e-14 0 0 -3.11727e-15 -3.62659e-16 -3.14133e-14 1.88022e-14 0 0 2.02276e-14 -5.95692e-14 3.30477e-14 -1.98959e-14 0 0 4.07058e-15 -5.23394e-14 1.69401e-14 1.15648e-14 0 0 -5.79805e-14 3.86085e-14 -7.08945e-14 5.56568e-14 0 0 -4.54168e-14 1.73045e-14 -2.81835e-14 7.28012e-15 0 0 2.84165e-14 -9.029e-14 6.77407e-14 -3.35494e-14 0 0 -6.01189e-15 4.78818e-15 -3.55195e-14 3.41022e-14 0 0 -8.11759e-15 5.1146e-14 -7.42523e-14 4.07561e-14 0 0 8.92846e-14 -6.95398e-14 2.20367e-14 -3.11619e-14 0 0 6.24311e-14 1.21086e-14 -9.16193e-14 4.8669e-14 0 0 4.28713e-14 4.7909e-14 -1.35139e-13 1.01004e-13 0 0 3.78656e-14 2.23375e-14 -5.1883e-14 2.22755e-14 0 0 1.54138e-15 5.78633e-14 -4.73118e-14 5.82506e-15 0 0 3.33586e-14 1.2651e-14 -1.72292e-14 -1.38089e-15 0 0 5.15837e-14 -4.09386e-14 3.80248e-14 -3.89795e-14 0 0 9.70993e-14 -1.11262e-13 9.50031e-14 -5.53605e-14 0 0 1.64013e-13 -1.54111e-13 1.22404e-13 -8.10259e-14 0 0 6.45993e-14 4.14278e-14 -7.29945e-14 2.69789e-14 0 0 -3.23159e-14 2.06318e-13 -2.16622e-13 8.77146e-14 0 0 1.95307e-14 1.3735e-13 -1.16314e-13 -2.37495e-14 0 0 1.98325e-14 1.58954e-13 -1.6877e-13 3.85731e-14 0 0 -4.99943e-15 1.90885e-13 -1.58324e-13 4.60837e-14 0 0 3.44473e-14 7.62216e-14 3.94902e-14 -7.50814e-14 0 0 1.56198e-13 -7.21307e-14 1.90384e-13 -1.15918e-13 0 0 1.40913e-14 1.91785e-13 -1.0316e-13 1.67372e-13 0 0 -4.64282e-14 2.31428e-13 -1.69109e-13 2.80961e-13 0 0 1.80996e-13 -8.90454e-14 1.28639e-13 1.11771e-13 0 0 1.04811e-13 3.55673e-14 6.11575e-14 1.28826e-13 0 0 -2.6014e-15 1.50868e-13 6.04822e-14 2.01677e-14 0 0 1.00981e-13 3.16406e-14 1.51996e-13 -9.27049e-14 0 0 1.53541e-13 6.22182e-14 4.86577e-14 -6.15259e-14 0 0 1.56325e-13 1.14815e-13 -1.06134e-14 -7.75629e-14 0 0 9.55742e-14 1.08954e-13 1.225e-14 -6.0046e-14 0 0 -1.22515e-14 1.93918e-13 -8.29956e-14 2.51897e-14 0 0 4.80243e-14 1.53065e-13 -1.3965e-13 3.22114e-14 0 0 1.6584e-13 2.37837e-14 -1.24833e-13 -2.85126e-14 0 0 2.89479e-13 -1.36079e-13 -3.43449e-14 -1.31401e-13 0 0 2.3295e-13 2.05271e-14 -2.1617e-13 -2.12612e-14 0 0 1.69079e-13 2.15958e-13 -4.22898e-13 1.09961e-13 0 0 2.09091e-13 6.01751e-14 -2.43659e-13 2.79206e-14 0 0 1.07373e-13 -5.80791e-14 1.11844e-14 -1.02113e-13 0 0 7.87337e-14 -7.77843e-14 7.42765e-14 -1.18751e-13 0 0 8.36956e-14 8.92482e-14 -2.03932e-13 7.87909e-14 0 0 1.38876e-13 1.66437e-13 -3.7831e-13 2.68016e-14 0 0 1.30388e-13 1.53843e-13 -2.36226e-13 -2.0687e-13 0 0 2.78074e-14 2.07432e-13 -1.95381e-13 -2.34901e-13 0 0 8.78144e-14 7.41112e-14 -1.27065e-13 -1.1353e-13 0 0 1.88951e-13 -6.91549e-14 -1.39979e-13 9.26606e-14 0 0 1.20966e-13 2.55199e-14 -3.84154e-13 3.83691e-13 0 0 -2.19345e-14 1.5487e-13 -5.2835e-13 4.13086e-13 0 0 -1.24046e-13 1.2502e-13 -4.78159e-13 3.26309e-13 0 0 -1.78237e-13 6.59767e-14 -3.01086e-13 1.36378e-13 0 0 -2.2426e-13 5.69595e-14 -1.54379e-13 -2.61434e-14 0 0 -3.88023e-13 -1.12337e-14 -2.98858e-14 -1.4988e-13 0 0 -3.94764e-13 -9.74334e-14 1.03362e-13 -2.43294e-13 0 0 -3.64972e-13 -1.78739e-13 8.95622e-14 -2.0958e-13 0 0 -2.80509e-13 -2.23134e-13 1.5731e-14 -7.07523e-14 0 0 -2.3023e-13 -2.09346e-13 -1.30166e-13 1.09005e-13 0 0 -2.38354e-13 -1.5269e-13 -3.00379e-13 2.5093e-13 0 0 -2.84266e-13 -7.6712e-14 -4.1824e-13 2.4702e-13 0 0 -3.42196e-13 -5.3773e-14 -4.03056e-13 2.00889e-13 0 0 -3.67354e-13 -7.30219e-14 -3.46695e-13 7.8767e-14 0 0 -3.56936e-13 -1.80043e-13 -2.28181e-13 -4.07929e-14 0 0 -3.46115e-13 -3.20204e-13 -1.07618e-13 -1.39797e-13 0 0 -3.50872e-13 -3.58946e-13 -1.72004e-14 -1.38009e-13 0 0 -3.8507e-13 -3.5275e-13 -2.14476e-14 -1.23594e-13 0 0 -4.82073e-13 -2.97959e-13 -3.91905e-14 -8.80101e-14 0 0 -5.93973e-13 -1.91015e-13 -7.22156e-14 -4.25912e-14 0 0 -7.05718e-13 -8.7087e-14 -1.10635e-13 -1.33187e-14 0 0 -7.16982e-13 -8.33999e-14 -1.15392e-13 -1.34757e-14 0 0 -6.96543e-13 -1.15058e-13 -9.68112e-14 -4.45383e-14 0 0 -6.28943e-13 -1.94827e-13 -5.25331e-14 -9.24159e-14 0 0 -5.00829e-13 -2.73583e-13 -9.56865e-15 -1.24898e-13 0 0 -3.63867e-13 -3.26692e-13 3.39505e-17 -1.10628e-13 0 0 -2.21152e-13 -3.88363e-13 6.37386e-14 -1.61621e-13 0 0 -9.06431e-14 -4.63645e-13 1.32063e-13 -1.58699e-13 0 0 -8.57561e-15 -4.08363e-13 4.40728e-15 8.95031e-15 0 0 5.07769e-14 -2.52751e-13 -2.14805e-13 2.3049e-13 0 0 7.76423e-14 -1.22378e-13 -2.68937e-13 3.05176e-13 0 0 7.9605e-14 -4.11009e-14 -2.30281e-13 3.28667e-13 0 0 9.93581e-14 9.21361e-15 -1.97088e-13 3.96683e-13 0 0 1.11546e-13 1.30532e-14 -1.34833e-13 4.05481e-13 0 0 9.35414e-14 -6.10968e-15 6.63193e-14 3.3519e-13 0 0 3.8471e-14 -3.39623e-14 2.43945e-13 1.04702e-13 0 0 2.9626e-15 -4.07058e-14 2.17935e-13 9.80623e-14 0 0 1.00101e-14 -6.73265e-14 2.17767e-13 1.04979e-13 0 0 2.8819e-14 -6.09996e-14 1.82585e-13 1.31804e-13 0 0 7.98249e-14 -6.00712e-14 8.61626e-14 2.25686e-13 0 0 1.22122e-13 -5.76932e-14 8.52984e-14 2.14603e-13 0 0 1.6233e-13 -4.12527e-14 1.07357e-13 1.79256e-13 0 0 2.00699e-13 -4.65513e-14 1.75773e-13 1.00714e-13 0 0 2.23691e-13 -6.03915e-14 2.29765e-13 7.68174e-14 0 0 1.94902e-13 3.68421e-14 1.6537e-13 9.98349e-14 0 0 7.26373e-14 3.4947e-13 -6.0511e-14 1.5518e-13 0 0 5.62713e-14 3.89987e-13 -1.18836e-13 2.01727e-13 0 0 1.05617e-13 3.45623e-13 -1.02535e-13 1.98357e-13 0 0 1.98043e-13 1.58479e-13 8.41676e-15 1.42182e-13 0 0 1.99541e-13 -7.47087e-14 1.99156e-13 3.18245e-14 0 0 1.99975e-13 -1.82304e-13 3.25583e-13 -7.00676e-14 0 0 1.85846e-13 -1.69274e-13 2.80178e-13 -4.32343e-14 0 0 6.47616e-14 3.44941e-14 3.19178e-15 8.95904e-14 0 0 1.76915e-14 7.76059e-14 -3.83609e-14 7.09471e-14 0 0 3.97035e-14 2.81852e-14 2.06698e-14 7.4252e-15 0 0 6.53851e-14 3.2456e-14 -5.71433e-15 -5.4676e-14 0 0 6.19434e-14 7.25027e-14 -6.80756e-14 -1.29773e-13 0 0 5.15038e-14 9.08173e-14 -7.19296e-14 -2.13157e-13 0 0 5.06233e-14 7.82127e-14 -4.6414e-14 -2.50735e-13 0 0 4.46588e-14 2.34794e-14 -4.21401e-14 -2.12987e-13 0 0 2.99656e-14 4.34145e-14 -1.02293e-13 -1.74334e-13 0 0 -8.15392e-15 6.14885e-14 -1.58097e-13 -7.03826e-14 0 0 -3.19599e-14 3.51572e-14 -1.26055e-13 2.4721e-14 0 0 -4.73335e-14 -1.5145e-14 -7.9964e-14 -2.5806e-14 0 0 -5.64007e-14 -5.1849e-14 -8.68615e-14 1.69028e-14 0 0 -3.66852e-14 -1.04051e-13 -8.56181e-14 6.4385e-14 0 0 -8.44633e-15 -1.89992e-13 5.48895e-15 -6.52994e-14 0 0 -1.54366e-14 -1.71573e-13 -5.20272e-14 -5.54145e-14 0 0 -2.09851e-14 -1.67796e-13 -4.3594e-14 -6.5073e-14 0 0 -1.69396e-14 -1.52734e-13 -4.13148e-14 -6.88869e-14 0 0 -1.39101e-14 -2.54928e-14 -2.01347e-13 -5.06431e-14 0 0 1.43767e-14 -2.69863e-14 -1.39825e-13 -2.08806e-13 0 0 4.4346e-14 -5.59398e-14 8.57133e-14 -7.81566e-14 0 0 5.82108e-14 7.47485e-15 1.31218e-13 2.85764e-13 0 0 8.36267e-14 6.83033e-14 1.15692e-13 4.30278e-13 0 0 1.10254e-13 9.40267e-14 1.49692e-13 3.34464e-13 0 0 1.12315e-13 1.27129e-13 2.32007e-13 1.60943e-13 0 0 7.93843e-14 2.16283e-13 2.1829e-13 1.38692e-13 0 0 2.03303e-14 2.94875e-13 1.59877e-13 2.09099e-13 0 0 5.21671e-14 2.34134e-13 2.66196e-13 1.58074e-13 0 0 1.19424e-13 1.18814e-13 3.85832e-13 1.25324e-13 0 0 9.9551e-14 1.44705e-13 2.97652e-13 3.09096e-13 0 0 1.0401e-13 9.65966e-14 3.66391e-13 3.61331e-13 0 0 6.71607e-14 5.98428e-14 4.99816e-13 2.28759e-13 0 0 1.70325e-14 1.44886e-13 4.57913e-13 2.08192e-13 0 0 5.93035e-14 1.25192e-13 4.8495e-13 2.40646e-13 0 0 5.38734e-14 1.4133e-13 4.63813e-13 2.64326e-13 0 0 5.23783e-14 1.80432e-13 4.62649e-13 1.40076e-13 0 0 1.26928e-13 1.39327e-13 5.06069e-13 1.28758e-13 0 0 1.08944e-13 1.78652e-13 4.73961e-13 2.30667e-13 0 0 1.40036e-13 1.32299e-13 5.30663e-13 2.08379e-13 0 0 8.20617e-14 2.86049e-13 3.6039e-13 2.84333e-13 0 0 5.3367e-14 4.16242e-13 1.6643e-13 4.36165e-13 0 0 1.47141e-13 3.37926e-13 2.59069e-13 3.25629e-13 0 0 8.78661e-14 4.44818e-13 1.61365e-13 3.17828e-13 0 0 1.11212e-13 3.4183e-13 2.52399e-13 2.94059e-13 0 0 2.25419e-13 1.93049e-13 4.39162e-13 1.92891e-13 0 0 2.37722e-13 2.5461e-13 3.59478e-13 2.11752e-13 0 0 2.88345e-13 1.8505e-13 3.83811e-13 1.86205e-13 0 0 3.23678e-13 1.0135e-13 4.73612e-13 1.75901e-13 0 0 1.59505e-13 3.17986e-13 3.59178e-13 2.31403e-13 0 0 6.92659e-14 4.68376e-13 1.65668e-13 3.80979e-13 0 0 3.28428e-14 4.70532e-13 3.2381e-13 1.21997e-13 0 0 5.04129e-15 5.26656e-13 3.37961e-13 1.13543e-13 0 0 6.89428e-14 4.24179e-13 3.47527e-13 2.25288e-13 0 0 6.97085e-14 2.62913e-13 4.2357e-13 3.33721e-13 0 0 5.38116e-14 3.08e-13 2.69505e-13 5.77898e-13 0 0 1.08737e-13 2.72898e-13 2.7375e-13 5.74208e-13 0 0 2.39716e-13 -8.47909e-14 6.39543e-13 3.46028e-13 0 0 7.32501e-14 1.13493e-13 5.58035e-13 2.94758e-13 0 0 -5.30942e-14 3.91906e-13 2.83611e-13 4.49886e-13 0 0 6.47675e-14 2.04164e-13 3.77562e-13 4.82758e-13 0 0 4.35586e-14 1.78171e-13 2.28822e-13 6.2629e-13 0 0 1.1597e-13 7.15529e-14 3.11703e-13 5.10343e-13 0 0 5.89288e-14 3.04154e-13 1.0101e-13 4.50547e-13 0 0 1.13257e-13 3.48954e-13 4.03967e-14 2.81641e-13 0 0 -3.94234e-14 6.12645e-13 -1.94586e-13 3.68629e-13 0 0 -1.94388e-13 8.42829e-13 -3.49182e-13 3.89385e-13 0 0 2.91558e-13 1.28248e-13 3.67682e-13 -8.73499e-14 0 0 4.14518e-13 7.87277e-14 3.6342e-13 -8.34294e-14 0 0 2.9597e-13 3.63309e-13 -8.04245e-14 2.53515e-13 0 0 1.8433e-13 5.69867e-13 -4.25314e-13 5.49604e-13 0 0 -6.73039e-16 8.51816e-13 -6.35785e-13 6.25568e-13 0
				</DataArray>
				<DataArray Name="VitesseY" type="Float32" format="ascii">