<?xml version="1.0"?>
<VTKFile type="PolyData">
	<PolyData>
		<Piece NumberOfPoints="1206" NumberOfPolys="1000">
			<Points>
				<DataArray type="Float32" NumberOfComponents="3" format="ascii">
 0 0 0 0.02 0 0 0.04 0 0 0.06 0 0 0.08 0 0 0.1 0 0 0 0.005 0 0.02 0.005 0 0.04 0.005 0 0.06 0.005 0 0.08 0.005 0 0.1 0.005 0 0 0.01 0 0.02 0.01 0 0.04 0.01 0 0.06 0.01 0 0.08 0.01 0 0.1 0.01 0 0 0.015 0 0.02 0.015 0 0.04 0.015 0 0.06 0.015 0 0.08 0.015 0 0.1 0.015 0 0 0.02 0 0.02 0.02 0 0.04 0.02 0 0.06 0.02 0 0.08 0.02 0 0.1 0.02 0 0 0.025 0 0.02 0.025 0 0.04 0.025 0 0.06 0.025 0 0.08 0.025 0 0.1 0.025 0 0 0.03 0 0.02 0.03 0 0.04 0.03 0 0.06 0.03 0 0.08 0.03 0 0.1 0.03 0 0 0.035 0 0.02 0.035 0 0.04 0.035 0 0.06 0.035 0 0.08 0.035 0 0.1 0.035 0 0 0.04 0 0.02 0.04 0 0.04 0.04 0 0.06 0.04 0 0.08 0.04 0 0.1 0.04 0 0 0.045 0 0.02 0.045 0 0.04 0.045 0 0.06 0.045 0 0.08 0.045 0 0.1 0.045 0 0 0.05 0 0.02 0.05 0 0.04 0.05 0 0.06 0.05 0 0.08 0.05 0 0.1 0.05 0 0 0.055 0 0.02 0.055 0 0.04 0.055 0 0.06 0.055 0 0.08 0.055 0 0.1 0.055 0 0 0.06 0 0.02 0.06 0 0.04 0.06 0 0.06 0.06 0 0.08 0.06 0 0.1 0.06 0 0 0.065 0 0.02 0.065 0 0.04 0.065 0 0.06 0.065 0 0.08 0.065 0 0.1 0.065 0 0 0.07 0 0.02 0.07 0 0.04 0.07 0 0.06 0.07 0 0.08 0.07 0 0.1 0.07 0 0 0.075 0 0.02 0.075 0 0.04 0.075 0 0.06 0.075 0 0.08 0.075 0 0.1 0.075 0 0 0.08 0 0.02 0.08 0 0.04 0.08 0 0.06 0.08 0 0.08 0.08 0 0.1 0.08 0 0 0.085 0 0.02 0.085 0 0.04 0.085 0 0.06 0.085 0 0.08 0.085 0 0.1 0.085 0 0 0.09 0 0.02 0.09 0 0.04 0.09 0 0.06 0.09 0 0.08 0.09 0 0.1 0.09 0 0 0.095 0 0.02 0.095 0 0.04 0.095 0 0.06 0.095 0 0.08 0.095 0 0.1 0.095 0 0 0.1 0 0.02 0.1 0 0.04 0.1 0 0.06 0.1 0 0.08 0.1 0 0.1 0.1 0 0 0.105 0 0.02 0.105 0 0.04 0.105 0 0.06 0.105 0 0.08 0.105 0 0.1 0.105 0 0 0.11 0 0.02 0.11 0 0.04 0.11 0 0.06 0.11 0 0.08 0.11 0 0.1 0.11 0 0 0.115 0 0.02 0.115 0 0.04 0.115 0 0.06 0.115 0 0.08 0.115 0 0.1 0.115 0 0 0.12 0 0.02 0.12 0 0.04 0.12 0 0.06 0.12 0 0.08 0.12 0 0.1 0.12 0 0 0.125 0 0.02 0.125 0 0.04 0.125 0 0.06 0.125 0 0.08 0.125 0 0.1 0.125 0 0 0.13 0 0.02 0.13 0 0.04 0.13 0 0.06 0.13 0 0.08 0.13 0 0.1 0.13 0 0 0.135 0 0.02 0.135 0 0.04 0.135 0 0.06 0.135 0 0.08 0.135 0 0.1 0.135 0 0 0.14 0 0.02 0.14 0 0.04 0.14 0 0.06 0.14 0 0.08 0.14 0 0.1 0.14 0 0 0.145 0 0.02 0.145 0 0.04 0.145 0 0.06 0.145 0 0.08 0.145 0 0.1 0.145 0 0 0.15 0 0.02 0.15 0 0.04 0.15 0 0.06 0.15 0 0.08 0.15 0 0.1 0.15 0 0 0.155 0 0.02 0.155 0 0.04 0.155 0 0.06 0.155 0 0.08 0.155 0 0.1 0.155 0 0 0.16 0 0.02 0.16 0 0.04 0.16 0 0.06 0.16 0 0.08 0.16 0 0.1 0.16 0 0 0.165 0 0.02 0.165 0 0.04 0.165 0 0.06 0.165 0 0.08 0.165 0 0.1 0.165 0 0 0.17 0 0.02 0.17 0 0.04 0.17 0 0.06 0.17 0 0.08 0.17 0 0.1 0.17 0 0 0.175 0 0.02 0.175 0 0.04 0.175 0 0.06 0.175 0 0.08 0.175 0 0.1 0.175 0 0 0.18 0 0.02 0.18 0 0.04 0.18 0 0.06 0.18 0 0.08 0.18 0 0.1 0.18 0 0 0.185 0 0.02 0.185 0 0.04 0.185 0 0.06 0.185 0 0.08 0.185 0 0.1 0.185 0 0 0.19 0 0.02 0.19 0 0.04 0.19 0 0.06 0.19 0 0.08 0.19 0 0.1 0.19 0 0 0.195 0 0.02 0.195 0 0.04 0.195 0 0.06 0.195 0 0.08 0.195 0 0.1 0.195 0 0 0.2 0 0.02 0.2 0 0.04 0.2 0 0.06 0.2 0 0.08 0.2 0 0.1 0.2 0 0 0.205 0 0.02 0.205 0 0.04 0.205 0 0.06 0.205 0 0.08 0.205 0 0.1 0.205 0 0 0.21 0 0.02 0.21 0 0.04 0.21 0 0.06 0.21 0 0.08 0.21 0 0.1 0.21 0 0 0.215 0 0.02 0.215 0 0.04 0.215 0 0.06 0.215 0 0.08 0.215 0 0.1 0.215 0 0 0.22 0 0.02 0.22 0 0.04 0.22 0 0.06 0.22 0 0.08 0.22 0 0.1 0.22 0 0 0.225 0 0.02 0.225 0 0.04 0.225 0 0.06 0.225 0 0.08 0.225 0 0.1 0.225 0 0 0.23 0 0.02 0.23 0 0.04 0.23 0 0.06 0.23 0 0.08 0.23 0 0.1 0.23 0 0 0.235 0 0.02 0.235 0 0.04 0.235 0 0.06 0.235 0 0.08 0.235 0 0.1 0.235 0 0 0.24 0 0.02 0.24 0 0.04 0.24 0 0.06 0.24 0 0.08 0.24 0 0.1 0.24 0 0 0.245 0 0.02 0.245 0 0.04 0.245 0 0.06 0.245 0 0.08 0.245 0 0.1 0.245 0 0 0.25 0 0.02 0.25 0 0.04 0.25 0 0.06 0.25 0 0.08 0.25 0 0.1 0.25 0 0 0.255 0 0.02 0.255 0 0.04 0.255 0 0.06 0.255 0 0.08 0.255 0 0.1 0.255 0 0 0.26 0 0.02 0.26 0 0.04 0.26 0 0.06 0.26 0 0.08 0.26 0 0.1 0.26 0 0 0.265 0 0.02 0.265 0 0.04 0.265 0 0.06 0.265 0 0.08 0.265 0 0.1 0.265 0 0 0.27 0 0.02 0.27 0 0.04 0.27 0 0.06 0.27 0 0.08 0.27 0 0.1 0.27 0 0 0.275 0 0.02 0.275 0 0.04 0.275 0 0.06 0.275 0 0.08 0.275 0 0.1 0.275 0 0 0.28 0 0.02 0.28 0 0.04 0.28 0 0.06 0.28 0 0.08 0.28 0 0.1 0.28 0 0 0.285 0 0.02 0.285 0 0.04 0.285 0 0.06 0.285 0 0.08 0.285 0 0.1 0.285 0 0 0.29 0 0.02 0.29 0 0.04 0.29 0 0.06 0.29 0 0.08 0.29 0 0.1 0.29 0 0 0.295 0 0.02 0.295 0 0.04 0.295 0 0.06 0.295 0 0.08 0.295 0 0.1 0.295 0 0 0.3 0 0.02 0.3 0 0.04 0.3 0 0.06 0.3 0 0.08 0.3 0 0.1 0.3 0 0 0.305 0 0.02 0.305 0 0.04 0.305 0 0.06 0.305 0 0.08 0.305 0 0.1 0.305 0 0 0.31 0 0.02 0.31 0 0.04 0.31 0 0.06 0.31 0 0.08 0.31 0 0.1 0.31 0 0 0.315 0 0.02 0.315 0 0.04 0.315 0 0.06 0.315 0 0.08 0.315 0 0.1 0.315 0 0 0.32 0 0.02 0.32 0 0.04 0.32 0 0.06 0.32 0 0.08 0.32 0 0.1 0.32 0 0 0.325 0 0.02 0.325 0 0.04 0.325 0 0.06 0.325 0 0.08 0.325 0 0.1 0.325 0 0 0.33 0 0.02 0.33 0 0.04 0.33 0 0.06 0.33 0 0.08 0.33 0 0.1 0.33 0 0 0.335 0 0.02 0.335 0 0.04 0.335 0 0.06 0.335 0 0.08 0.335 0 0.1 0.335 0 0 0.34 0 0.02 0.34 0 0.04 0.34 0 0.06 0.34 0 0.08 0.34 0 0.1 0.34 0 0 0.345 0 0.02 0.345 0 0.04 0.345 0 0.06 0.345 0 0.08 0.345 0 0.1 0.345 0 0 0.35 0 0.02 0.35 0 0.04 0.35 0 0.06 0.35 0 0.08 0.35 0 0.1 0.35 0 0 0.355 0 0.02 0.355 0 0.04 0.355 0 0.06 0.355 0 0.08 0.355 0 0.1 0.355 0 0 0.36 0 0.02 0.36 0 0.04 0.36 0 0.06 0.36 0 0.08 0.36 0 0.1 0.36 0 0 0.365 0 0.02 0.365 0 0.04 0.365 0 0.06 0.365 0 0.08 0.365 0 0.1 0.365 0 0 0.37 0 0.02 0.37 0 0.04 0.37 0 0.06 0.37 0 0.08 0.37 0 0.1 0.37 0 0 0.375 0 0.02 0.375 0 0.04 0.375 0 0.06 0.375 0 0.08 0.375 0 0.1 0.375 0 0 0.38 0 0.02 0.38 0 0.04 0.38 0 0.06 0.38 0 0.08 0.38 0 0.1 0.38 0 0 0.385 0 0.02 0.385 0 0.04 0.385 0 0.06 0.385 0 0.08 0.385 0 0.1 0.385 0 0 0.39 0 0.02 0.39 0 0.04 0.39 0 0.06 0.39 0 0.08 0.39 0 0.1 0.39 0 0 0.395 0 0.02 0.395 0 0.04 0.395 0 0.06 0.395 0 0.08 0.395 0 0.1 0.395 0 0 0.4 0 0.02 0.4 0 0.04 0.4 0 0.06 0.4 0 0.08 0.4 0 0.1 0.4 0 0 0.405 0 0.02 0.405 0 0.04 0.405 0 0.06 0.405 0 0.08 0.405 0 0.1 0.405 0 0 0.41 0 0.02 0.41 0 0.04 0.41 0 0.06 0.41 0 0.08 0.41 0 0.1 0.41 0 0 0.415 0 0.02 0.415 0 0.04 0.415 0 0.06 0.415 0 0.08 0.415 0 0.1 0.415 0 0 0.42 0 0.02 0.42 0 0.04 0.42 0 0.06 0.42 0 0.08 0.42 0 0.1 0.42 0 0 0.425 0 0.02 0.425 0 0.04 0.425 0 0.06 0.425 0 0.08 0.425 0 0.1 0.425 0 0 0.43 0 0.02 0.43 0 0.04 0.43 0 0.06 0.43 0 0.08 0.43 0 0.1 0.43 0 0 0.435 0 0.02 0.435 0 0.04 0.435 0 0.06 0.435 0 0.08 0.435 0 0.1 0.435 0 0 0.44 0 0.02 0.44 0 0.04 0.44 0 0.06 0.44 0 0.08 0.44 0 0.1 0.44 0 0 0.445 0 0.02 0.445 0 0.04 0.445 0 0.06 0.445 0 0.08 0.445 0 0.1 0.445 0 0 0.45 0 0.02 0.45 0 0.04 0.45 0 0.06 0.45 0 0.08 0.45 0 0.1 0.45 0 0 0.455 0 0.02 0.455 0 0.04 0.455 0 0.06 0.455 0 0.08 0.455 0 0.1 0.455 0 0 0.46 0 0.02 0.46 0 0.04 0.46 0 0.06 0.46 0 0.08 0.46 0 0.1 0.46 0 0 0.465 0 0.02 0.465 0 0.04 0.465 0 0.06 0.465 0 0.08 0.465 0 0.1 0.465 0 0 0.47 0 0.02 0.47 0 0.04 0.47 0 0.06 0.47 0 0.08 0.47 0 0.1 0.47 0 0 0.475 0 0.02 0.475 0 0.04 0.475 0 0.06 0.475 0 0.08 0.475 0 0.1 0.475 0 0 0.48 0 0.02 0.48 0 0.04 0.48 0 0.06 0.48 0 0.08 0.48 0 0.1 0.48 0 0 0.485 0 0.02 0.485 0 0.04 0.485 0 0.06 0.485 0 0.08 0.485 0 0.1 0.485 0 0 0.49 0 0.02 0.49 0 0.04 0.49 0 0.06 0.49 0 0.08 0.49 0 0.1 0.49 0 0 0.495 0 0.02 0.495 0 0.04 0.495 0 0.06 0.495 0 0.08 0.495 0 0.1 0.495 0 0 0.5 0 0.02 0.5 0 0.04 0.5 0 0.06 0.5 0 0.08 0.5 0 0.1 0.5 0 0 0.505 0 0.02 0.505 0 0.04 0.505 0 0.06 0.505 0 0.08 0.505 0 0.1 0.505 0 0 0.51 0 0.02 0.51 0 0.04 0.51 0 0.06 0.51 0 0.08 0.51 0 0.1 0.51 0 0 0.515 0 0.02 0.515 0 0.04 0.515 0 0.06 0.515 0 0.08 0.515 0 0.1 0.515 0 0 0.52 0 0.02 0.52 0 0.04 0.52 0 0.06 0.52 0 0.08 0.52 0 0.1 0.52 0 0 0.525 0 0.02 0.525 0 0.04 0.525 0 0.06 0.525 0 0.08 0.525 0 0.1 0.525 0 0 0.53 0 0.02 0.53 0 0.04 0.53 0 0.06 0.53 0 0.08 0.53 0 0.1 0.53 0 0 0.535 0 0.02 0.535 0 0.04 0.535 0 0.06 0.535 0 0.08 0.535 0 0.1 0.535 0 0 0.54 0 0.02 0.54 0 0.04 0.54 0 0.06 0.54 0 0.08 0.54 0 0.1 0.54 0 0 0.545 0 0.02 0.545 0 0.04 0.545 0 0.06 0.545 0 0.08 0.545 0 0.1 0.545 0 0 0.55 0 0.02 0.55 0 0.04 0.55 0 0.06 0.55 0 0.08 0.55 0 0.1 0.55 0 0 0.555 0 0.02 0.555 0 0.04 0.555 0 0.06 0.555 0 0.08 0.555 0 0.1 0.555 0 0 0.56 0 0.02 0.56 0 0.04 0.56 0 0.06 0.56 0 0.08 0.56 0 0.1 0.56 0 0 0.565 0 0.02 0.565 0 0.04 0.565 0 0.06 0.565 0 0.08 0.565 0 0.1 0.565 0 0 0.57 0 0.02 0.57 0 0.04 0.57 0 0.06 0.57 0 0.08 0.57 0 0.1 0.57 0 0 0.575 0 0.02 0.575 0 0.04 0.575 0 0.06 0.575 0 0.08 0.575 0 0.1 0.575 0 0 0.58 0 0.02 0.58 0 0.04 0.58 0 0.06 0.58 0 0.08 0.58 0 0.1 0.58 0 0 0.585 0 0.02 0.585 0 0.04 0.585 0 0.06 0.585 0 0.08 0.585 0 0.1 0.585 0 0 0.59 0 0.02 0.59 0 0.04 0.59 0 0.06 0.59 0 0.08 0.59 0 0.1 0.59 0 0 0.595 0 0.02 0.595 0 0.04 0.595 0 0.06 0.595 0 0.08 0.595 0 0.1 0.595 0 0 0.6 0 0.02 0.6 0 0.04 0.6 0 0.06 0.6 0 0.08 0.6 0 0.1 0.6 0 0 0.605 0 0.02 0.605 0 0.04 0.605 0 0.06 0.605 0 0.08 0.605 0 0.1 0.605 0 0 0.61 0 0.02 0.61 0 0.04 0.61 0 0.06 0.61 0 0.08 0.61 0 0.1 0.61 0 0 0.615 0 0.02 0.615 0 0.04 0.615 0 0.06 0.615 0 0.08 0.615 0 0.1 0.615 0 0 0.62 0 0.02 0.62 0 0.04 0.62 0 0.06 0.62 0 0.08 0.62 0 0.1 0.62 0 0 0.625 0 0.02 0.625 0 0.04 0.625 0 0.06 0.625 0 0.08 0.625 0 0.1 0.625 0 0 0.63 0 0.02 0.63 0 0.04 0.63 0 0.06 0.63 0 0.08 0.63 0 0.1 0.63 0 0 0.635 0 0.02 0.635 0 0.04 0.635 0 0.06 0.635 0 0.08 0.635 0 0.1 0.635 0 0 0.64 0 0.02 0.64 0 0.04 0.64 0 0.06 0.64 0 0.08 0.64 0 0.1 0.64 0 0 0.645 0 0.02 0.645 0 0.04 0.645 0 0.06 0.645 0 0.08 0.645 0 0.1 0.645 0 0 0.65 0 0.02 0.65 0 0.04 0.65 0 0.06 0.65 0 0.08 0.65 0 0.1 0.65 0 0 0.655 0 0.02 0.655 0 0.04 0.655 0 0.06 0.655 0 0.08 0.655 0 0.1 0.655 0 0 0.66 0 0.02 0.66 0 0.04 0.66 0 0.06 0.66 0 0.08 0.66 0 0.1 0.66 0 0 0.665 0 0.02 0.665 0 0.04 0.665 0 0.06 0.665 0 0.08 0.665 0 0.1 0.665 0 0 0.67 0 0.02 0.67 0 0.04 0.67 0 0.06 0.67 0 0.08 0.67 0 0.1 0.67 0 0 0.675 0 0.02 0.675 0 0.04 0.675 0 0.06 0.675 0 0.08 0.675 0 0.1 0.675 0 0 0.68 0 0.02 0.68 0 0.04 0.68 0 0.06 0.68 0 0.08 0.68 0 0.1 0.68 0 0 0.685 0 0.02 0.685 0 0.04 0.685 0 0.06 0.685 0 0.08 0.685 0 0.1 0.685 0 0 0.69 0 0.02 0.69 0 0.04 0.69 0 0.06 0.69 0 0.08 0.69 0 0.1 
[...]
			<PointData Scalars="VitesseX">
				<DataArray Name="VitesseX" type="Float32" format="ascii">
 0 7.94302e-15 -1.02345e-14 -1.28656e-14 -1.56324e-14 0 0 7.09297e-15 -1.06394e-14 -1.04478e-14 -1.74526e-14 0 0 3.05964e-15 -5.08955e-15 -1.5179e-14 -1.43212e-14 0 0 6.86103e-16 -2.06005e-15 -1.44708e-14 -1.73263e-14 0 0 -6.26001e-15 6.22514e-15 -1.58901e-14 -1.86406e-14 0 0 -1.83053e-14 2.09298e-14 -2.87799e-14 -1.25662e-14 0 0 -1.53472e-14 7.41744e-15 -2.10633e-14 -1.34442e-14 0 0 -5.69813e-16 -2.31726e-14 7.02648e-15 -2.95298e-14 0 0 1.29151e-14 -4.02637e-14 1.49811e-14 -3.42185e-14 0 0 1.30039e-14 -3.39374e-14 -1.16047e-14 -9.46427e-15 0 0 3.32236e-15 -2.05866e-14 -2.78351e-14 -7.0867e-15 0 0 -6.32481e-15 -1.41678e-14 -3.55511e-14 -8.65726e-15 0 0 -3.08231e-15 -3.16014e-14 -1.72716e-14 -2.09354e-14 0 0 -5.83439e-15 -3.25924e-14 -7.79997e-15 -2.65681e-14 0 0 -4.71068e-15 -3.78689e-14 8.11517e-16 -2.05331e-14 0 0 -1.77365e-14 -3.16588e-14 1.28884e-14 -2.54726e-14 0 0 -1.54736e-14 -2.57024e-14 -5.36188e-15 6.68511e-16 0 0 -5.51991e-15 -5.87921e-15 -3.41617e-14 2.81668e-14 0 0 -9.27661e-15 2.50978e-14 -4.54146e-14 1.49914e-14 0 0 1.01829e-14 -6.73378e-15 -6.25879e-15 -2.79842e-14 0 0 9.8376e-15 -1.02821e-14 1.61787e-15 -4.50462e-14 0 0 2.56017e-15 2.51646e-15 -2.3727e-14 -2.37291e-14 0 0 -2.0751e-15 3.53584e-15 -3.5536e-14 -2.84303e-15 0 0 -1.51915e-14 2.24039e-14 -6.85976e-14 1.40242e-14 0 0 1.45974e-14 -4.65138e-14 4.47052e-16 -3.48345e-14 0 0 6.03489e-14 -1.31039e-13 8.31088e-14 -8.20084e-14 0 0 -1.95454e-14 9.89739e-16 -5.58077e-14 -6.49252e-15 0 0 -7.15958e-14 3.38158e-14 -4.6334e-14 -4.07893e-14 0 0 1.01151e-14 -1.28825e-13 1.1576e-13 -1.17494e-13 0 0 7.26294e-15 -9.36698e-14 1.96553e-14 -1.95482e-14 0 0 -3.1894e-14 -1.17765e-14 -7.91197e-14 1.73747e-14 0 0 -3.07245e-14 -7.47378e-15 -7.68717e-14 -3.07651e-14 0 0 -8.99624e-15 -2.93239e-14 -6.04514e-14 -5.97695e-14 0 0 2.98001e-15 -4.60838e-14 -1.90774e-14 -8.24333e-14 0 0 -2.62574e-14 -2.79623e-14 -2.49067e-14 -4.23869e-14 0 0 -2.8283e-14 -4.1204e-14 -2.9334e-14 -4.08059e-14 0 0 1.29707e-15 -7.01089e-14 -3.08822e-14 -3.31363e-14 0 0 -9.86585e-15 -4.59543e-14 -4.83393e-14 2.23948e-14 0 0 -4.10983e-14 -2.37971e-14 -5.70459e-15 -3.07147e-14 0 0 -4.73708e-14 -5.92721e-15 -2.72467e-14 -1.77723e-14 0 0 -5.64107e-14 3.79134e-14 -1.07685e-13 6.18996e-14 0 0 -3.70556e-14 1.04861e-14 -7.24284e-14 2.86011e-14 0 0 -2.24041e-14 -2.1784e-14 -5.62874e-15 -2.97324e-14 0 0 -1.99766e-14 -3.15884e-14 4.41671e-14 -4.89263e-14 0 0 -3.19087e-14 6.96954e-15 3.58559e-14 -5.2025e-14 0 0 -8.1963e-14 7.96541e-14 5.45287e-15 -3.67088e-14 0 0 -8.48549e-14 8.73383e-14 1.85216e-14 -9.53301e-15 0 0 -3.1319e-14 3.77041e-15 1.21702e-13 -4.07109e-14 0 0 2.26375e-15 -4.18507e-14 1.94885e-13 -6.17622e-14 0 0 -3.08193e-14 5.30241e-14 1.06235e-13 2.64339e-14 0 0 7.24018e-15 1.20881e-14 1.46871e-13 3.67643e-14 0 0 -1.3358e-14 -2.27725e-16 1.33576e-13 5.8168e-14 0 0 -8.40313e-14 1.11185e-13 -1.41865e-14 1.382e-13 0 0 -9.06079e-14 1.92567e-13 -1.19379e-13 1.31658e-13 0 0 8.04604e-14 -9.72706e-14 1.66594e-13 -1.27124e-13 0 0 2.06605e-14 -9.68739e-14 2.22506e-13 -2.77146e-13 0 0 -1.72634e-13 1.84636e-13 -7.49057e-14 -1.50798e-13 0 0 -1.41861e-15 2.5232e-14 -7.47764e-14 -8.59659e-14 0 0 3.02014e-14 -2.50796e-14 -9.75985e-14 -5.51436e-14 0 0 -7.77797e-14 -2.33622e-16 -1.24402e-13 -3.25329e-14 0 0 -2.51623e-14 -1.3556e-13 -5.43533e-14 -1.05899e-13 0 0 -2.57526e-14 -1.24262e-13 -1.10504e-13 -1.80172e-13 0 0 -2.67196e-14 -6.12527e-14 -2.24102e-13 -1.55876e-13 0 0 6.42448e-14 -1.18218e-13 -1.63348e-13 -2.07336e-13 0 0 8.36048e-14 -9.82359e-14 -1.21878e-13 -2.56479e-13 0 0 3.19529e-14 -3.76992e-14 -1.43546e-13 -2.55012e-13 0 0 -1.17775e-13 9.64296e-14 -2.60314e-13 -1.81158e-13 0 0 -1.79637e-13 2.31698e-14 -1.58271e-13 -1.98468e-13 0 0 -1.06102e-13 -1.59546e-13 9.40461e-14 -3.75972e-13 0 0 -9.67881e-14 -9.32342e-14 1.88257e-15 -4.15779e-13 0 0 -1.28428e-13 4.78933e-14 -2.2213e-13 -3.04408e-13 0 0 -1.55929e-13 1.45835e-13 -4.42174e-13 -1.88755e-13 0 0 -1.5745e-13 8.9597e-14 -3.25265e-13 -2.83837e-13 0 0 -1.44398e-13 -2.01407e-13 8.92713e-14 -5.9268e-13 0 0 -1.64283e-13 -2.83507e-13 1.24804e-13 -5.72398e-13 0 0 -2.77021e-13 -2.29425e-13 4.91623e-14 -4.27903e-13 0 0 -3.55173e-13 -1.46033e-13 -7.27392e-14 -2.14609e-13 0 0 -3.59033e-13 -1.40859e-13 -6.9407e-14 -5.30153e-14 0 0 -3.7055e-13 -1.84551e-13 6.87716e-15 -7.54244e-15 0 0 -3.91163e-13 -1.81212e-13 9.56934e-14 -5.15289e-14 0 0 -4.30202e-13 -1.59843e-13 1.1881e-13 -1.60168e-13 0 0 -5.28391e-13 -8.57775e-14 1.02922e-13 -2.59493e-13 0 0 -5.03051e-13 -9.50749e-14 6.56294e-14 -2.69724e-13 0 0 -4.08906e-13 -1.20841e-13 2.01217e-14 -2.43128e-13 0 0 -3.06338e-13 -1.69183e-13 -1.53038e-14 -2.02616e-13 0 0 -2.33246e-13 -2.0293e-13 -8.19095e-14 -1.4296e-13 0 0 -1.84189e-13 -2.33582e-13 -1.90993e-13 -8.72343e-14 0 0 -1.43916e-13 -2.22119e-13 -2.82948e-13 -6.61079e-14 0 0 -1.0572e-13 -2.10148e-13 -3.37009e-13 -2.74913e-14 0 0 -6.86526e-14 -2.20074e-13 -3.49611e-13 -4.45322e-14 0 0 -3.3217e-14 -2.66692e-13 -3.11519e-13 -1.14153e-13 0 0 -1.82545e-14 -3.39061e-13 -2.20506e-13 -2.21514e-13 0 0 -2.20319e-14 -3.66669e-13 -1.42442e-13 -3.16529e-13 0 0 -5.82662e-14 -3.45603e-13 -1.50572e-13 -3.90796e-13 0 0 -1.41381e-13 -2.60873e-13 -2.09964e-13 -4.6909e-13 0 0 -2.28443e-13 -1.64218e-13 -2.89521e-13 -5.37972e-13 0 0 -2.97162e-13 -8.09189e-14 -3.68331e-13 -5.30717e-13 0 0 -2.95272e-13 -5.5844e-14 -4.41426e-13 -5.07011e-13 0 0 -2.72143e-13 -6.19049e-14 -5.03594e-13 -4.4684e-13 0 0 -2.10503e-13 -1.07978e-13 -5.45458e-13 -3.45723e-13 0 0 -1.45678e-13 -1.86698e-13 -5.76195e-13 -2.43613e-13 0 0 -9.09031e-14 -2.58278e-13 -5.70414e-13 -1.50386e-13 0 0 -4.97274e-14 -3.14183e-13 -5.51471e-13 -7.45084e-14 0 0 -5.19447e-14 -3.62498e-13 -5.3533e-13 -1.95852e-14 0 0 -7.17057e-14 -3.95358e-13 -5.1244e-13 -1.65809e-14 0 0 -1.00097e-13 -4.19803e-13 -4.53242e-13 -3.18207e-14 0 0 -1.19891e-13 -5.16646e-13 -2.54701e-13 -1.26273e-13 0 0 -1.1202e-13 -5.37647e-13 -1.38458e-13 -2.04526e-13 0 0 -1.26778e-13 -5.26817e-13 -1.41372e-13 -1.91595e-13 0 0 -1.91083e-13 -4.78574e-13 -2.03299e-13 -1.45881e-13 0 0 -1.9543e-13 -2.88303e-13 -4.10792e-13 1.83453e-14 0 0 -1.52987e-13 -2.52397e-13 -4.55823e-13 9.86418e-14 0 0 -8.90636e-14 -2.50139e-13 -4.70626e-13 1.10489e-13 0 0 -8.75306e-14 -2.29993e-13 -4.1581e-13 5.9362e-14 0 0 -1.01819e-13 -2.11654e-13 -2.50396e-13 -3.22345e-14 0 0 -1.42672e-13 -2.04927e-13 -6.73411e-14 -8.65028e-14 0 0 -1.92183e-13 -1.87507e-13 -6.46704e-15 -8.75262e-14 0 0 -2.32576e-13 -1.49944e-13 -1.54012e-14 -1.25422e-13 0 0 -2.557e-13 -1.41747e-13 -4.33181e-14 -1.42162e-13 0 0 -2.4745e-13 -1.5096e-13 -6.66543e-14 -9.9629e-14 0 0 -2.24752e-13 -1.45195e-13 -1.0057e-13 -5.24737e-14 0 0 -1.84701e-13 -1.43722e-13 -1.28928e-13 -1.19185e-14 0 0 -1.22984e-13 -1.58244e-13 -1.11255e-13 1.22119e-14 0 0 -5.1713e-14 -2.00726e-13 -3.25001e-14 4.89065e-15 0 0 -4.43715e-14 -2.19396e-13 4.35727e-14 1.9991e-14 0 0 -5.77553e-14 -1.76901e-13 3.07614e-14 3.80038e-14 0 0 -1.16311e-13 1.96218e-15 -6.72016e-14 9.00999e-14 0 0 -2.19746e-13 2.29138e-13 -1.97898e-13 1.97081e-13 0 0 -2.45167e-13 2.63512e-13 -1.94325e-13 2.06204e-13 0 0 -2.11892e-13 2.1209e-13 -1.47527e-13 1.89399e-13 0 0 -9.48322e-14 -8.76509e-15 2.10243e-14 7.01218e-14 0 0 1.0104e-14 -3.4182e-13 2.27223e-13 -8.1516e-14 0 0 -1.98909e-14 -3.52379e-13 2.36376e-13 -1.4587e-13 0 0 -1.37084e-13 -2.48357e-13 1.62384e-13 -1.00455e-13 0 0 -1.50791e-13 -1.54865e-13 -1.34393e-13 5.38278e-14 0 0 -1.31436e-13 -1.81048e-13 -2.54943e-13 1.45655e-13 0 0 -8.67383e-14 -2.264e-13 -2.08337e-13 1.13263e-13 0 0 -9.33884e-14 -1.96757e-13 -1.9358e-13 1.41991e-14 0 0 -8.98116e-14 -1.6135e-13 -2.15624e-13 -7.75669e-14 0 0 -7.51551e-14 -1.5806e-13 -2.40192e-13 -1.01939e-13 0 0 -7.30954e-14 -1.61408e-13 -2.37413e-13 -1.08138e-13 0 0 -7.61144e-14 -1.57051e-13 -2.29208e-13 -1.36297e-13 0 0 -8.30915e-14 -1.49347e-13 -2.2083e-13 -1.82053e-13 0 0 -1.05589e-13 -1.55805e-13 -1.81498e-13 -1.91416e-13 0 0 -1.06671e-13 -2.02274e-13 -1.29791e-13 -2.20267e-13 0 0 -1.1164e-13 -2.25378e-13 -1.50224e-13 -2.00116e-13 0 0 -1.14282e-13 -2.46939e-13 -1.86756e-13 -2.22265e-13 0 0 -1.0941e-13 -2.68026e-13 -2.71294e-13 -1.77064e-13 0 0 -1.13836e-13 -2.59877e-13 -3.76456e-13 -9.97309e-14 0 0 -1.33439e-13 -2.37073e-13 -3.86252e-13 -1.74483e-13 0 0 -1.51994e-13 -1.57976e-13 -4.37693e-13 -3.83608e-13 0 0 -1.38213e-13 -1.6352e-13 -4.02006e-13 -5.71113e-13 0 0 -9.42657e-14 -1.98604e-13 -3.6479e-13 -6.03796e-13 0 0 -8.60745e-14 -1.83621e-13 -3.30992e-13 -4.29379e-13 0 0 -9.51791e-14 -2.05535e-13 -1.94013e-13 2.66119e-14 0 0 -9.98734e-14 -2.97199e-13 4.97794e-14 2.53292e-14 0 0 -1.07632e-13 -2.93251e-13 3.50317e-14 2.39345e-14 0 0 -1.72735e-13 -1.04726e-13 -2.65846e-13 1.86424e-13 0 0 -1.57522e-13 -6.24862e-14 -3.42874e-13 2.37957e-13 0 0 -3.72097e-14 -1.21815e-13 -2.75833e-13 2.45514e-13 0 0 -7.15477e-14 -1.37723e-14 -2.513e-13 8.99803e-14 0 0 -1.6052e-13 5.69771e-14 -1.12467e-13 -1.32649e-13 0 0 -1.38466e-13 3.92507e-14 -5.01018e-14 -2.19279e-13 0 0 -1.05252e-13 -1.31901e-14 -3.4634e-14 -1.48443e-13 0 0 -1.26391e-13 -5.24723e-14 4.76201e-14 -1.85087e-13 0 0 -1.9787e-13 5.06872e-15 -1.84525e-15 -1.05117e-13 0 0 -1.26779e-13 -5.95435e-14 -5.39834e-14 9.6992e-14 0 0 -5.19572e-14 -1.29974e-13 1.31418e-14 1.09411e-13 0 0 -1.29203e-13 -3.10481e-14 1.31076e-14 8.9046e-14 0 0 -8.92852e-14 -8.68872e-14 1.75896e-13 -5.91677e-14 0 0 -6.41266e-14 -6.70389e-14 2.06738e-13 -6.31216e-14 0 0 -1.046e-13 4.94193e-14 5.64783e-14 8.02517e-14 0 0 -3.31583e-16 -8.44694e-14 2.05792e-13 2.62704e-14 0 0 3.59076e-14 -1.20349e-13 2.74833e-13 3.11443e-14 0 0 -4.63621e-14 2.08189e-14 1.4311e-13 2.31206e-13 0 0 -3.91857e-15 1.4912e-15 1.83891e-13 1.99091e-13 0 0 -9.65754e-15 1.37943e-14 2.28581e-13 1.34576e-13 0 0 -7.54904e-14 6.37366e-14 2.06941e-13 2.92936e-13 0 0 -2.95848e-15 -2.36095e-14 2.9821e-13 2.46124e-13 0 0 1.17058e-14 9.36798e-15 2.56193e-13 2.49466e-13 0 0 6.14021e-14 -4.71593e-14 3.04829e-13 2.37294e-13 0 0 8.90415e-14 -1.05226e-13 3.76945e-13 2.50655e-13 0 0 3.28521e-14 -1.16612e-14 2.48247e-13 4.29155e-13 0 0 -6.45055e-15 -4.39617e-15 3.10534e-13 3.54957e-13 0 0 -1.30123e-13 7.95547e-14 3.57489e-13 2.30003e-13 0 0 -2.04244e-13 1.13978e-13 3.592e-13 2.72581e-13 0 0 -2.53741e-14 -2.47812e-13 6.98328e-13 3.14586e-14 0 0 6.9465e-14 -2.85259e-13 5.22764e-13 1.6721e-13 0 0 -5.21399e-14 1.30858e-13 -4.22445e-14 5.12061e-13 0 0 -1.03464e-13 2.28444e-13 -1.20028e-13 4.16045e-13 0 0 -6.80563e-14 -2.96506e-14 2.40734e-13 9.46753e-14 0 0 7.89783e-14 -2.51238e-13 3.41212e-13 1.18444e-13 0 0 6.97001e-14 -1.8431e-13 1.12449e-13 4.17393e-13 0 0 -1.28477e-13 8.08443e-14 3.3048e-14 2.68177e-13 0 0 -4.09653e-14 5.85114e-14 -4.72292e-14 2.0515e-13 0 0 8.92175e-14 -2.48749e-14 -2.46722e-13 3.76282e-13 0 0 -1.81589e-13 3.86926e-13 -5.70761e-13 3.72978e-13 0 0 4.38195e-14 -1.11792e-13 1.11436e-13 -2.13323e-13 0 0 2.30582e-13 -4.97035e-13 4.55905e-13 -3.40133e-13 0 0 1.31084e-13 -3.22116e-13 3.59771e-14 9.45341e-14 0 0 2.78611e-13 -5.2396e-13 5.99297e-14 1.99556e-13 0
				</DataArray>
				<DataArray Name="VitesseY" type="Float32" format="ascii">