<?xml version="1.0"?>
<VTKFile type="PolyData">
	<PolyData>
		<Piece NumberOfPoints="1206" NumberOfPolys="1000">
			<Points>
				<DataArray type="Float32" NumberOfComponents="3" format="ascii">
 0 0 0 0.02 0 0 0.04 0 0 0.06 0 0 0.08 0 0 0.1 0 0 0 0.005 0 0.02 0.005 0 0.04 0.005 0 0.06 0.005 0 0.08 0.005 0 0.1 0.005 0 0 0.01 0 0.02 0.01 0 0.04 0.01 0 0.06 0.01 0 0.08 0.01 0 0.1 0.01 0 0 0.015 0 0.02 0.015 0 0.04 0.015 0 0.06 0.015 0 0.08 0.015 0 0.1 0.015 0 0 0.02 0 0.02 0.02 0 0.04 0.02 0 0.06 0.02 0 0.08 0.02 0 0.1 0.02 0 0 0.025 0 0.02 0.025 0 0.04 0.025 0 0.06 0.025 0 0.08 0.025 0 0.1 0.025 0 0 0.03 0 0.02 0.03 0 0.04 0.03 0 0.06 0.03 0 0.08 0.03 0 0.1 0.03 0 0 0.035 0 0.02 0.035 0 0.04 0.035 0 0.06 0.035 0 0.08 0.035 0 0.1 0.035 0 0 0.04 0 0.02 0.04 0 0.04 0.04 0 0.06 0.04 0 0.08 0.04 0 0.1 0.04 0 0 0.045 0 0.02 0.045 0 0.04 0.045 0 0.06 0.045 0 0.08 0.045 0 0.1 0.045 0 0 0.05 0 0.02 0.05 0 0.04 0.05 0 0.06 0.05 0 0.08 0.05 0 0.1 0.05 0 0 0.055 0 0.02 0.055 0 0.04 0.055 0 0.06 0.055 0 0.08 0.055 0 0.1 0.055 0 0 0.06 0 0.02 0.06 0 0.04 0.06 0 0.06 0.06 0 0.08 0.06 0 0.1 0.06 0 0 0.065 0 0.02 0.065 0 0.04 0.065 0 0.06 0.065 0 0.08 0.065 0 0.1 0.065 0 0 0.07 0 0.02 0.07 0 0.04 0.07 0 0.06 0.07 0 0.08 0.07 0 0.1 0.07 0 0 0.075 0 0.02 0.075 0 0.04 0.075 0 0.06 0.075 0 0.08 0.075 0 0.1 0.075 0 0 0.08 0 0.02 0.08 0 0.04 0.08 0 0.06 0.08 0 0.08 0.08 0 0.1 0.08 0 0 0.085 0 0.02 0.085 0 0.04 0.085 0 0.06 0.085 0 0.08 0.085 0 0.1 0.085 0 0 0.09 0 0.02 0.09 0 0.04 0.09 0 0.06 0.09 0 0.08 0.09 0 0.1 0.09 0 0 0.095 0 0.02 0.095 0 0.04 0.095 0 0.06 0.095 0 0.08 0.095 0 0.1 0.095 0 0 0.1 0 0.02 0.1 0 0.04 0.1 0 0.06 0.1 0 0.08 0.1 0 0.1 0.1 0 0 0.105 0 0.02 0.105 0 0.04 0.105 0 0.06 0.105 0 0.08 0.105 0 0.1 0.105 0 0 0.11 0 0.02 0.11 0 0.04 0.11 0 0.06 0.11 0 0.08 0.11 0 0.1 0.11 0 0 0.115 0 0.02 0.115 0 0.04 0.115 0 0.06 0.115 0 0.08 0.115 0 0.1 0.115 0 0 0.12 0 0.02 0.12 0 0.04 0.12 0 0.06 0.12 0 0.08 0.12 0 0.1 0.12 0 0 0.125 0 0.02 0.125 0 0.04 0.125 0 0.06 0.125 0 0.08 0.125 0 0.1 0.125 0 0 0.13 0 0.02 0.13 0 0.04 0.13 0 0.06 0.13 0 0.08 0.13 0 0.1 0.13 0 0 0.135 0 0.02 0.135 0 0.04 0.135 0 0.06 0.135 0 0.08 0.135 0 0.1 0.135 0 0 0.14 0 0.02 0.14 0 0.04 0.14 0 0.06 0.14 0 0.08 0.14 0 0.1 0.14 0 0 0.145 0 0.02 0.145 0 0.04 0.145 0 0.06 0.145 0 0.08 0.145 0 0.1 0.145 0 0 0.15 0 0.02 0.15 0 0.04 0.15 0 0.06 0.15 0 0.08 0.15 0 0.1 0.15 0 0 0.155 0 0.02 0.155 0 0.04 0.155 0 0.06 0.155 0 0.08 0.155 0 0.1 0.155 0 0 0.16 0 0.02 0.16 0 0.04 0.16 0 0.06 0.16 0 0.08 0.16 0 0.1 0.16 0 0 0.165 0 0.02 0.165 0 0.04 0.165 0 0.06 0.165 0 0.08 0.165 0 0.1 0.165 0 0 0.17 0 0.02 0.17 0 0.04 0.17 0 0.06 0.17 0 0.08 0.17 0 0.1 0.17 0 0 0.175 0 0.02 0.175 0 0.04 0.175 0 0.06 0.175 0 0.08 0.175 0 0.1 0.175 0 0 0.18 0 0.02 0.18 0 0.04 0.18 0 0.06 0.18 0 0.08 0.18 0 0.1 0.18 0 0 0.185 0 0.02 0.185 0 0.04 0.185 0 0.06 0.185 0 0.08 0.185 0 0.1 0.185 0 0 0.19 0 0.02 0.19 0 0.04 0.19 0 0.06 0.19 0 0.08 0.19 0 0.1 0.19 0 0 0.195 0 0.02 0.195 0 0.04 0.195 0 0.06 0.195 0 0.08 0.195 0 0.1 0.195 0 0 0.2 0 0.02 0.2 0 0.04 0.2 0 0.06 0.2 0 0.08 0.2 0 0.1 0.2 0 0 0.205 0 0.02 0.205 0 0.04 0.205 0 0.06 0.205 0 0.08 0.205 0 0.1 0.205 0 0 0.21 0 0.02 0.21 0 0.04 0.21 0 0.06 0.21 0 0.08 0.21 0 0.1 0.21 0 0 0.215 0 0.02 0.215 0 0.04 0.215 0 0.06 0.215 0 0.08 0.215 0 0.1 0.215 0 0 0.22 0 0.02 0.22 0 0.04 0.22 0 0.06 0.22 0 0.08 0.22 0 0.1 0.22 0 0 0.225 0 0.02 0.225 0 0.04 0.225 0 0.06 0.225 0 0.08 0.225 0 0.1 0.225 0 0 0.23 0 0.02 0.23 0 0.04 0.23 0 0.06 0.23 0 0.08 0.23 0 0.1 0.23 0 0 0.235 0 0.02 0.235 0 0.04 0.235 0 0.06 0.235 0 0.08 0.235 0 0.1 0.235 0 0 0.24 0 0.02 0.24 0 0.04 0.24 0 0.06 0.24 0 0.08 0.24 0 0.1 0.24 0 0 0.245 0 0.02 0.245 0 0.04 0.245 0 0.06 0.245 0 0.08 0.245 0 0.1 0.245 0 0 0.25 0 0.02 0.25 0 0.04 0.25 0 0.06 0.25 0 0.08 0.25 0 0.1 0.25 0 0 0.255 0 0.02 0.255 0 0.04 0.255 0 0.06 0.255 0 0.08 0.255 0 0.1 0.255 0 0 0.26 0 0.02 0.26 0 0.04 0.26 0 0.06 0.26 0 0.08 0.26 0 0.1 0.26 0 0 0.265 0 0.02 0.265 0 0.04 0.265 0 0.06 0.265 0 0.08 0.265 0 0.1 0.265 0 0 0.27 0 0.02 0.27 0 0.04 0.27 0 0.06 0.27 0 0.08 0.27 0 0.1 0.27 0 0 0.275 0 0.02 0.275 0 0.04 0.275 0 0.06 0.275 0 0.08 0.275 0 0.1 0.275 0 0 0.28 0 0.02 0.28 0 0.04 0.28 0 0.06 0.28 0 0.08 0.28 0 0.1 0.28 0 0 0.285 0 0.02 0.285 0 0.04 0.285 0 0.06 0.285 0 0.08 0.285 0 0.1 0.285 0 0 0.29 0 0.02 0.29 0 0.04 0.29 0 0.06 0.29 0 0.08 0.29 0 0.1 0.29 0 0 0.295 0 0.02 0.295 0 0.04 0.295 0 0.06 0.295 0 0.08 0.295 0 0.1 0.295 0 0 0.3 0 0.02 0.3 0 0.04 0.3 0 0.06 0.3 0 0.08 0.3 0 0.1 0.3 0 0 0.305 0 0.02 0.305 0 0.04 0.305 0 0.06 0.305 0 0.08 0.305 0 0.1 0.305 0 0 0.31 0 0.02 0.31 0 0.04 0.31 0 0.06 0.31 0 0.08 0.31 0 0.1 0.31 0 0 0.315 0 0.02 0.315 0 0.04 0.315 0 0.06 0.315 0 0.08 0.315 0 0.1 0.315 0 0 0.32 0 0.02 0.32 0 0.04 0.32 0 0.06 0.32 0 0.08 0.32 0 0.1 0.32 0 0 0.325 0 0.02 0.325 0 0.04 0.325 0 0.06 0.325 0 0.08 0.325 0 0.1 0.325 0 0 0.33 0 0.02 0.33 0 0.04 0.33 0 0.06 0.33 0 0.08 0.33 0 0.1 0.33 0 0 0.335 0 0.02 0.335 0 0.04 0.335 0 0.06 0.335 0 0.08 0.335 0 0.1 0.335 0 0 0.34 0 0.02 0.34 0 0.04 0.34 0 0.06 0.34 0 0.08 0.34 0 0.1 0.34 0 0 0.345 0 0.02 0.345 0 0.04 0.345 0 0.06 0.345 0 0.08 0.345 0 0.1 0.345 0 0 0.35 0 0.02 0.35 0 0.04 0.35 0 0.06 0.35 0 0.08 0.35 0 0.1 0.35 0 0 0.355 0 0.02 0.355 0 0.04 0.355 0 0.06 0.355 0 0.08 0.355 0 0.1 0.355 0 0 0.36 0 0.02 0.36 0 0.04 0.36 0 0.06 0.36 0 0.08 0.36 0 0.1 0.36 0 0 0.365 0 0.02 0.365 0 0.04 0.365 0 0.06 0.365 0 0.08 0.365 0 0.1 0.365 0 0 0.37 0 0.02 0.37 0 0.04 0.37 0 0.06 0.37 0 0.08 0.37 0 0.1 0.37 0 0 0.375 0 0.02 0.375 0 0.04 0.375 0 0.06 0.375 0 0.08 0.375 0 0.1 0.375 0 0 0.38 0 0.02 0.38 0 0.04 0.38 0 0.06 0.38 0 0.08 0.38 0 0.1 0.38 0 0 0.385 0 0.02 0.385 0 0.04 0.385 0 0.06 0.385 0 0.08 0.385 0 0.1 0.385 0 0 0.39 0 0.02 0.39 0 0.04 0.39 0 0.06 0.39 0 0.08 0.39 0 0.1 0.39 0 0 0.395 0 0.02 0.395 0 0.04 0.395 0 0.06 0.395 0 0.08 0.395 0 0.1 0.395 0 0 0.4 0 0.02 0.4 0 0.04 0.4 0 0.06 0.4 0 0.08 0.4 0 0.1 0.4 0 0 0.405 0 0.02 0.405 0 0.04 0.405 0 0.06 0.405 0 0.08 0.405 0 0.1 0.405 0 0 0.41 0 0.02 0.41 0 0.04 0.41 0 0.06 0.41 0 0.08 0.41 0 0.1 0.41 0 0 0.415 0 0.02 0.415 0 0.04 0.415 0 0.06 0.415 0 0.08 0.415 0 0.1 0.415 0 0 0.42 0 0.02 0.42 0 0.04 0.42 0 0.06 0.42 0 0.08 0.42 0 0.1 0.42 0 0 0.425 0 0.02 0.425 0 0.04 0.425 0 0.06 0.425 0 0.08 0.425 0 0.1 0.425 0 0 0.43 0 0.02 0.43 0 0.04 0.43 0 0.06 0.43 0 0.08 0.43 0 0.1 0.43 0 0 0.435 0 0.02 0.435 0 0.04 0.435 0 0.06 0.435 0 0.08 0.435 0 0.1 0.435 0 0 0.44 0 0.02 0.44 0 0.04 0.44 0 0.06 0.44 0 0.08 0.44 0 0.1 0.44 0 0 0.445 0 0.02 0.445 0 0.04 0.445 0 0.06 0.445 0 0.08 0.445 0 0.1 0.445 0 0 0.45 0 0.02 0.45 0 0.04 0.45 0 0.06 0.45 0 0.08 0.45 0 0.1 0.45 0 0 0.455 0 0.02 0.455 0 0.04 0.455 0 0.06 0.455 0 0.08 0.455 0 0.1 0.455 0 0 0.46 0 0.02 0.46 0 0.04 0.46 0 0.06 0.46 0 0.08 0.46 0 0.1 0.46 0 0 0.465 0 0.02 0.465 0 0.04 0.465 0 0.06 0.465 0 0.08 0.465 0 0.1 0.465 0 0 0.47 0 0.02 0.47 0 0.04 0.47 0 0.06 0.47 0 0.08 0.47 0 0.1 0.47 0 0 0.475 0 0.02 0.475 0 0.04 0.475 0 0.06 0.475 0 0.08 0.475 0 0.1 0.475 0 0 0.48 0 0.02 0.48 0 0.04 0.48 0 0.06 0.48 0 0.08 0.48 0 0.1 0.48 0 0 0.485 0 0.02 0.485 0 0.04 0.485 0 0.06 0.485 0 0.08 0.485 0 0.1 0.485 0 0 0.49 0 0.02 0.49 0 0.04 0.49 0 0.06 0.49 0 0.08 0.49 0 0.1 0.49 0 0 0.495 0 0.02 0.495 0 0.04 0.495 0 0.06 0.495 0 0.08 0.495 0 0.1 0.495 0 0 0.5 0 0.02 0.5 0 0.04 0.5 0 0.06 0.5 0 0.08 0.5 0 0.1 0.5 0 0 0.505 0 0.02 0.505 0 0.04 0.505 0 0.06 0.505 0 0.08 0.505 0 0.1 0.505 0 0 0.51 0 0.02 0.51 0 0.04 0.51 0 0.06 0.51 0 0.08 0.51 0 0.1 0.51 0 0 0.515 0 0.02 0.515 0 0.04 0.515 0 0.06 0.515 0 0.08 0.515 0 0.1 0.515 0 0 0.52 0 0.02 0.52 0 0.04 0.52 0 0.06 0.52 0 0.08 0.52 0 0.1 0.52 0 0 0.525 0 0.02 0.525 0 0.04 0.525 0 0.06 0.525 0 0.08 0.525 0 0.1 0.525 0 0 0.53 0 0.02 0.53 0 0.04 0.53 0 0.06 0.53 0 0.08 0.53 0 0.1 0.53 0 0 0.535 0 0.02 0.535 0 0.04 0.535 0 0.06 0.535 0 0.08 0.535 0 0.1 0.535 0 0 0.54 0 0.02 0.54 0 0.04 0.54 0 0.06 0.54 0 0.08 0.54 0 0.1 0.54 0 0 0.545 0 0.02 0.545 0 0.04 0.545 0 0.06 0.545 0 0.08 0.545 0 0.1 0.545 0 0 0.55 0 0.02 0.55 0 0.04 0.55 0 0.06 0.55 0 0.08 0.55 0 0.1 0.55 0 0 0.555 0 0.02 0.555 0 0.04 0.555 0 0.06 0.555 0 0.08 0.555 0 0.1 0.555 0 0 0.56 0 0.02 0.56 0 0.04 0.56 0 0.06 0.56 0 0.08 0.56 0 0.1 0.56 0 0 0.565 0 0.02 0.565 0 0.04 0.565 0 0.06 0.565 0 0.08 0.565 0 0.1 0.565 0 0 0.57 0 0.02 0.57 0 0.04 0.57 0 0.06 0.57 0 0.08 0.57 0 0.1 0.57 0 0 0.575 0 0.02 0.575 0 0.04 0.575 0 0.06 0.575 0 0.08 0.575 0 0.1 0.575 0 0 0.58 0 0.02 0.58 0 0.04 0.58 0 0.06 0.58 0 0.08 0.58 0 0.1 0.58 0 0 0.585 0 0.02 0.585 0 0.04 0.585 0 0.06 0.585 0 0.08 0.585 0 0.1 0.585 0 0 0.59 0 0.02 0.59 0 0.04 0.59 0 0.06 0.59 0 0.08 0.59 0 0.1 0.59 0 0 0.595 0 0.02 0.595 0 0.04 0.595 0 0.06 0.595 0 0.08 0.595 0 0.1 0.595 0 0 0.6 0 0.02 0.6 0 0.04 0.6 0 0.06 0.6 0 0.08 0.6 0 0.1 0.6 0 0 0.605 0 0.02 0.605 0 0.04 0.605 0 0.06 0.605 0 0.08 0.605 0 0.1 0.605 0 0 0.61 0 0.02 0.61 0 0.04 0.61 0 0.06 0.61 0 0.08 0.61 0 0.1 0.61 0 0 0.615 0 0.02 0.615 0 0.04 0.615 0 0.06 0.615 0 0.08 0.615 0 0.1 0.615 0 0 0.62 0 0.02 0.62 0 0.04 0.62 0 0.06 0.62 0 0.08 0.62 0 0.1 0.62 0 0 0.625 0 0.02 0.625 0 0.04 0.625 0 0.06 0.625 0 0.08 0.625 0 0.1 0.625 0 0 0.63 0 0.02 0.63 0 0.04 0.63 0 0.06 0.63 0 0.08 0.63 0 0.1 0.63 0 0 0.635 0 0.02 0.635 0 0.04 0.635 0 0.06 0.635 0 0.08 0.635 0 0.1 0.635 0 0 0.64 0 0.02 0.64 0 0.04 0.64 0 0.06 0.64 0 0.08 0.64 0 0.1 0.64 0 0 0.645 0 0.02 0.645 0 0.04 0.645 0 0.06 0.645 0 0.08 0.645 0 0.1 0.645 0 0 0.65 0 0.02 0.65 0 0.04 0.65 0 0.06 0.65 0 0.08 0.65 0 0.1 0.65 0 0 0.655 0 0.02 0.655 0 0.04 0.655 0 0.06 0.655 0 0.08 0.655 0 0.1 0.655 0 0 0.66 0 0.02 0.66 0 0.04 0.66 0 0.06 0.66 0 0.08 0.66 0 0.1 0.66 0 0 0.665 0 0.02 0.665 0 0.04 0.665 0 0.06 0.665 0 0.08 0.665 0 0.1 0.665 0 0 0.67 0 0.02 0.67 0 0.04 0.67 0 0.06 0.67 0 0.08 0.67 0 0.1 0.67 0 0 0.675 0 0.02 0.675 0 0.04 0.675 0 0.06 0.675 0 0.08 0.675 0 0.1 0.675 0 0 0.68 0 0.02 0.68 0 0.04 0.68 0 0.06 0.68 0 0.08 0.68 0 0.1 0.68 0 0 0.685 0 0.02 0.685 0 0.04 0.685 0 0.06 0.685 0 0.08 0.685 0 0.1 0.685 0 0 0.69 0 0.02 0.69 0 0.04 0.69 0 0.06 0.69 0 0.08 0.69 0 0.1 
[...]
			<PointData Scalars="VitesseX">
				<DataArray Name="VitesseX" type="Float32" format="ascii">
 0 -5.29116e-15 -1.14374e-14 1.06896e-14 2.64297e-14 0 0 -3.77063e-15 -1.15578e-14 1.29377e-14 2.39946e-14 0 0 -3.83917e-15 -6.87732e-15 1.28316e-14 2.2151e-14 0 0 -1.14569e-14 7.09041e-15 6.90576e-15 2.29568e-14 0 0 -1.42542e-14 1.34217e-14 1.04863e-14 1.89882e-14 0 0 -4.26847e-15 1.0549e-15 2.87946e-14 1.38383e-14 0 0 3.92472e-15 -1.17798e-14 4.77349e-14 5.11899e-15 0 0 2.80374e-15 -4.82778e-15 4.98842e-14 -4.97021e-16 0 0 6.61402e-15 4.77539e-16 4.51287e-14 5.25006e-15 0 0 6.38168e-15 1.51531e-14 2.11324e-14 2.98533e-14 0 0 1.24145e-14 2.43492e-14 2.48668e-15 4.19665e-14 0 0 3.62048e-14 -9.78012e-15 3.6547e-14 1.42261e-14 0 0 2.14034e-14 -1.39011e-15 3.87775e-14 7.08782e-15 0 0 4.37311e-15 2.2602e-14 2.44679e-14 7.37607e-15 0 0 5.44011e-15 2.04136e-14 2.96202e-14 -1.52441e-16 0 0 -6.63196e-15 3.38737e-14 1.506e-14 2.6291e-15 0 0 9.68812e-15 4.03792e-15 5.27621e-14 -4.81374e-14 0 0 2.05223e-14 -2.35477e-14 7.27428e-14 -6.98284e-14 0 0 5.13458e-15 1.92563e-15 9.7924e-16 3.64622e-16 0 0 1.25559e-15 1.05864e-15 -4.7578e-15 4.45409e-15 0 0 7.13867e-15 -1.91089e-14 2.68673e-14 -2.42477e-14 0 0 -1.88654e-14 2.47445e-14 -4.5936e-14 3.21772e-14 0 0 -5.60119e-15 8.3729e-15 -4.47148e-14 4.59068e-14 0 0 -7.23998e-15 2.05865e-14 -5.64666e-14 4.9341e-14 0 0 -1.7864e-14 2.2136e-14 -3.94247e-14 2.12232e-14 0 0 2.04349e-15 -2.20447e-14 2.12517e-14 -1.66664e-14 0 0 1.04279e-14 -1.82808e-14 -1.44204e-14 4.50196e-14 0 0 1.42978e-14 1.99149e-15 -5.04973e-14 9.05423e-14 0 0 -3.08191e-14 8.62811e-14 -9.9919e-14 1.09768e-13 0 0 -2.99987e-14 6.43504e-14 -2.36632e-14 5.51309e-14 0 0 1.78531e-14 -2.97307e-14 5.14253e-14 4.69488e-14 0 0 1.96067e-14 -3.84707e-14 2.81188e-14 9.08327e-14 0 0 9.28737e-15 -1.75992e-14 4.80723e-14 5.57272e-14 0 0 1.86435e-14 -2.00437e-14 4.66719e-14 7.85862e-14 0 0 -1.33177e-14 2.60071e-14 -9.8524e-15 1.42422e-13 0 0 6.57122e-15 -1.58335e-14 6.16638e-14 8.78409e-14 0 0 4.25049e-14 -7.8039e-14 1.2713e-13 5.40914e-14 0 0 -1.63003e-14 2.61852e-14 -1.82047e-14 1.67933e-13 0 0 -2.3358e-14 4.19506e-14 -1.00794e-14 1.51736e-13 0 0 1.5465e-14 -2.64738e-14 1.13064e-13 4.57307e-14 0 0 8.44722e-15 -1.18667e-15 8.49999e-14 3.85031e-14 0 0 2.07562e-14 4.27777e-15 2.84896e-14 8.04783e-14 0 0 1.18084e-13 -1.23842e-13 9.92884e-14 8.01231e-14 0 0 9.45764e-14 -8.7014e-14 9.31162e-14 8.65527e-14 0 0 3.38441e-14 -3.31219e-15 3.62916e-14 1.03335e-13 0 0 7.26579e-14 -7.05999e-14 1.10973e-13 1.95994e-14 0 0 1.16342e-13 -1.10622e-13 1.41233e-13 -3.8263e-14 0 0 4.67555e-14 7.09252e-14 -6.67823e-14 7.21337e-14 0 0 8.86167e-14 5.77311e-14 -5.14062e-14 3.39813e-14 0 0 2.15762e-13 -1.60576e-13 2.18159e-13 -1.63356e-13 0 0 2.25624e-13 -1.95533e-13 2.60512e-13 -1.63494e-13 0 0 2.08164e-13 -1.3193e-13 1.25751e-13 -3.17534e-14 0 0 1.43289e-13 1.04008e-14 -5.60509e-14 9.91116e-14 0 0 8.68594e-14 9.64476e-14 -7.30876e-14 8.23871e-14 0 0 1.32968e-13 2.00677e-14 8.18396e-14 -4.45694e-14 0 0 2.29873e-13 -6.51927e-14 1.68762e-13 -1.01104e-13 0 0 1.72546e-13 5.54724e-14 9.7905e-14 -3.59642e-14 0 0 1.82261e-13 2.20863e-14 1.53856e-13 -2.31565e-14 0 0 2.02993e-13 1.74554e-14 1.08436e-13 3.58758e-14 0 0 1.76379e-13 -1.12499e-14 1.61371e-13 6.56489e-14 0 0 6.51067e-14 5.69511e-14 1.64741e-13 1.06831e-13 0 0 -6.00909e-15 1.95698e-13 4.51683e-14 1.76611e-13 0 0 9.7576e-14 7.53023e-14 2.29633e-13 1.47169e-14 0 0 1.45123e-13 6.5144e-14 2.22381e-13 6.96561e-15 0 0 1.46626e-13 1.04386e-14 2.27679e-13 5.00696e-14 0 0 3.83359e-14 -3.10232e-15 3.04196e-13 7.53178e-14 0 0 -1.7289e-13 1.82147e-13 1.91079e-13 2.21031e-13 0 0 -8.79893e-14 2.78471e-14 3.60722e-13 1.07313e-13 0 0 6.35082e-15 1.02361e-14 2.34706e-13 1.7817e-13 0 0 6.48815e-14 6.32098e-14 1.70183e-14 2.52877e-13 0 0 2.54736e-13 -1.42137e-13 1.26469e-13 9.32677e-14 0 0 2.87765e-13 -5.72815e-14 -1.47483e-14 1.66661e-13 0 0 2.9298e-13 2.33992e-14 -1.93884e-14 1.24919e-13 0 0 1.21673e-13 1.73194e-13 -7.02012e-14 1.32543e-13 0 0 2.26617e-13 -6.08877e-15 6.74384e-14 1.82208e-13 0 0 4.63558e-13 -2.2472e-13 2.07552e-13 2.15958e-13 0 0 2.81501e-13 1.32008e-13 -5.08331e-14 2.29998e-13 0 0 2.39166e-13 2.24973e-13 -8.76625e-14 9.90981e-14 0 0 3.90356e-13 3.10766e-14 5.52973e-15 -2.60285e-14 0 0 5.77643e-13 -2.49475e-13 1.42343e-13 -8.27926e-14 0 0 6.42687e-13 -4.37531e-13 1.95682e-13 -2.12695e-14 0 0 4.29207e-13 -1.82606e-13 -8.95362e-14 2.54939e-13 0 0 1.22128e-13 1.94458e-13 -4.23121e-13 3.86605e-13 0 0 -6.80158e-14 1.53231e-13 -3.21005e-13 3.14368e-13 0 0 -8.55457e-14 4.00913e-14 -1.20673e-13 2.3947e-13 0 0 -1.27738e-13 -4.36832e-14 5.28906e-15 2.35797e-13 0 0 -1.79843e-13 -9.04788e-14 1.57169e-13 1.77119e-13 0 0 -1.65679e-13 -1.4092e-13 1.10931e-13 2.10771e-13 0 0 -9.96635e-14 -2.2463e-13 8.4995e-14 2.988e-13 0 0 -7.49975e-14 -2.53982e-13 8.56302e-14 3.58267e-13 0 0 -9.36666e-14 -2.38018e-13 -5.01777e-15 3.86712e-13 0 0 -1.64632e-13 -2.179e-13 8.94047e-15 3.49296e-13 0 0 -2.34605e-13 -1.85018e-13 5.84472e-14 2.70749e-13 0 0 -2.1323e-13 -2.088e-13 1.56985e-13 1.90396e-13 0 0 -1.60096e-13 -2.87759e-13 3.01516e-13 7.44441e-14 0 0 -1.68204e-13 -2.78837e-13 3.83559e-13 -4.87715e-14 0 0 -1.87337e-13 -2.33433e-13 3.74743e-13 -1.45308e-13 0 0 -2.34383e-13 -1.06879e-13 3.21924e-13 -1.37275e-13 0 0 -3.28363e-13 4.60056e-14 2.03614e-13 -8.71889e-14 0 0 -3.82963e-13 1.89658e-13 1.03767e-13 -3.07182e-14 0 0 -3.54624e-13 3.02295e-13 9.40386e-14 -1.2581e-15 0 0 -2.86054e-13 2.983e-13 1.02971e-13 2.08034e-14 0 0 -1.59094e-13 2.70082e-13 1.55366e-13 3.81002e-14 0 0 -3.06048e-14 2.3002e-13 2.21906e-13 3.20181e-14 0 0 9.90235e-14 1.33398e-13 4.03801e-13 -6.07642e-14 0 0 2.73517e-13 2.2633e-14 5.95985e-13 -1.18096e-13 0 0 3.11734e-13 5.39539e-14 5.41679e-13 -3.61756e-14 0 0 2.84287e-13 2.02271e-13 3.53597e-13 1.87856e-13 0 0 1.92385e-13 3.69776e-13 1.8234e-13 2.95592e-13 0 0 9.31674e-14 4.08187e-13 1.60541e-13 2.61488e-13 0 0 6.37707e-14 4.28061e-13 1.36922e-13 1.7727e-13 0 0 7.07909e-14 4.39145e-13 -3.22929e-15 2.1522e-13 0 0 1.22773e-13 4.03973e-13 -1.95383e-14 2.82276e-13 0 0 1.97642e-13 2.97664e-13 5.06343e-14 2.26257e-13 0 0 2.607e-13 2.24569e-13 1.42125e-13 1.06321e-13 0 0 3.32335e-13 1.73696e-13 2.25147e-13 1.7284e-14 0 0 3.62572e-13 1.76291e-13 1.93857e-13 7.35208e-14 0 0 3.73616e-13 1.96861e-13 1.85194e-13 7.81494e-14 0 0 3.4799e-13 2.82838e-13 1.6963e-13 3.39353e-14 0 0 2.24238e-13 4.87545e-13 6.53259e-14 5.20963e-14 0 0 1.05649e-13 5.75e-13 4.06401e-14 5.09227e-14 0 0 8.60569e-14 5.62671e-13 7.53036e-14 -5.28073e-15 0 0 9.27107e-14 4.6882e-13 1.8891e-13 -1.13529e-13 0 0 1.10121e-13 2.47468e-13 4.3141e-13 -2.65203e-13 0 0 1.70487e-13 -1.89063e-14 5.43967e-13 -2.84385e-13 0 0 1.78158e-13 -3.27453e-14 4.83121e-13 -1.98311e-13 0 0 1.19484e-13 6.49908e-14 2.30143e-13 4.16118e-14 0 0 4.9387e-14 1.47643e-13 1.59921e-13 1.73904e-13 0 0 5.05241e-14 1.82568e-13 1.31079e-13 1.82584e-13 0 0 5.61581e-14 1.80654e-13 1.12009e-13 1.62782e-13 0 0 9.07426e-14 1.8403e-13 6.08474e-14 1.48469e-13 0 0 1.17e-13 1.67459e-13 8.36302e-14 4.28775e-14 0 0 1.03363e-13 1.70294e-13 1.37358e-13 -1.22572e-13 0 0 1.00557e-13 1.59413e-13 1.1968e-13 -8.37425e-14 0 0 1.23068e-13 8.88367e-14 1.12577e-13 1.68651e-14 0 0 1.23934e-13 9.51627e-14 8.76528e-14 1.08406e-13 0 0 8.00374e-14 1.16701e-13 8.57926e-14 1.42279e-13 0 0 2.38373e-14 1.04773e-13 1.27662e-13 1.01747e-13 0 0 3.05914e-15 8.36937e-14 1.69217e-13 6.07518e-15 0 0 -9.8339e-15 8.79619e-14 9.57271e-14 5.30315e-14 0 0 -1.35437e-14 9.44988e-14 2.2035e-15 1.44532e-13 0 0 7.93358e-15 3.15494e-14 4.18729e-14 1.2413e-13 0 0 2.61318e-14 3.27648e-14 4.01508e-14 9.8678e-14 0 0 3.54982e-14 2.04957e-14 1.60388e-13 -2.87311e-14 0 0 5.0528e-14 1.8568e-15 3.2754e-13 -5.86561e-14 0 0 -1.13157e-14 1.55367e-13 1.7681e-13 1.47272e-13 0 0 -2.16043e-14 2.28042e-13 2.16172e-13 2.0179e-13 0 0 1.08191e-13 7.11834e-14 4.77251e-13 1.87321e-13 0 0 1.22825e-13 9.89725e-14 5.70379e-13 1.68478e-13 0 0 6.09182e-14 2.72331e-13 4.8374e-13 1.94839e-13 0 0 4.48725e-14 3.91716e-13 4.0213e-13 2.16896e-13 0 0 1.56608e-13 2.72313e-13 4.92829e-13 2.19462e-13 0 0 2.12325e-13 2.03887e-13 5.76573e-13 2.29427e-13 0 0 1.43926e-13 3.37039e-13 4.7724e-13 2.56376e-13 0 0 1.32379e-13 4.26939e-13 3.31336e-13 3.45525e-13 0 0 1.66436e-13 4.27109e-13 2.58256e-13 4.32471e-13 0 0 2.06594e-13 3.79021e-13 3.33073e-13 2.82908e-13 0 0 2.4715e-13 3.03343e-13 4.51206e-13 1.65715e-13 0 0 2.8725e-13 2.47588e-13 5.59665e-13 1.15941e-13 0 0 1.74864e-13 4.66124e-13 3.77782e-13 1.98854e-13 0 0 1.26209e-13 5.53958e-13 3.02698e-13 2.50311e-13 0 0 3.3108e-13 2.54871e-13 6.11571e-13 7.60365e-14 0 0 4.48808e-13 1.23407e-13 6.7534e-13 1.58472e-13 0 0 3.47682e-13 3.60969e-13 4.5431e-13 3.43294e-13 0 0 2.73017e-13 5.17891e-13 3.61315e-13 4.37318e-13 0 0 1.65568e-13 6.6135e-13 3.02126e-13 4.37962e-13 0 0 1.26724e-13 7.82255e-13 2.33601e-13 4.05998e-13 0 0 3.1633e-13 5.92311e-13 3.45066e-13 4.57946e-13 0 0 4.42286e-13 4.32982e-13 4.83702e-13 4.78215e-13 0 0 3.35317e-13 6.3802e-13 2.72518e-13 6.05583e-13 0 0 2.70304e-13 7.76057e-13 1.11295e-13 6.71777e-13 0 0 3.50646e-13 5.96942e-13 4.58429e-13 3.05926e-13 0 0 4.87088e-13 3.57423e-13 7.48277e-13 9.432e-14 0 0 5.95385e-13 2.95884e-13 6.43661e-13 2.20546e-13 0 0 4.51322e-13 6.13818e-13 2.36951e-13 4.62756e-13 0 0 3.21038e-13 7.66922e-13 1.85362e-13 5.26607e-13 0 0 4.42955e-13 5.09453e-13 6.38015e-13 2.09584e-13 0 0 4.4208e-13 5.62309e-13 6.5118e-13 1.57439e-13 0 0 3.58569e-13 7.536e-13 4.70005e-13 3.10722e-13 0 0 4.21265e-13 5.96519e-13 5.6523e-13 3.97543e-13 0 0 2.83526e-13 7.48726e-13 4.19925e-13 5.05023e-13 0 0 1.67745e-13 9.4353e-13 4.50349e-13 2.97963e-13 0 0 1.76358e-13 9.17253e-13 5.923e-13 6.96304e-14 0 0 2.75493e-13 8.13004e-13 5.52001e-13 9.97457e-14 0 0 2.67634e-13 8.23498e-13 3.54564e-13 4.13681e-13 0 0 1.74343e-13 8.21625e-13 2.6758e-13 6.29108e-13 0 0 3.11347e-13 4.88888e-13 5.94757e-13 4.09352e-13 0 0 1.42538e-13 6.1689e-13 7.51405e-13 1.33193e-13 0 0 -1.96037e-16 6.76808e-13 9.65674e-13 -1.34317e-13 0 0 2.40738e-13 3.63047e-13 1.10658e-12 -1.55105e-13 0 0 1.29776e-13 5.44169e-13 8.82868e-13 -6.18334e-14 0 0 1.60523e-14 6.82532e-13 8.76639e-13 -2.33647e-13 0 0 8.26008e-16 5.96321e-13 1.2071e-12 -6.00333e-13 0 0 1.7308e-13 1.64988e-13 1.67269e-12 -8.18327e-13 0 0 -8.26189e-16 5.52878e-13 9.32599e-13 -1.21463e-13 0 0 -1.24279e-13 8.59533e-13 4.557e-13 3.57916e-13 0 0 -7.67452e-14 6.99164e-13 7.99939e-13 1.67254e-13 0 0 7.56199e-15 4.76306e-13 1.22875e-12 -1.87799e-13 0 0 1.60494e-13 3.27989e-13 1.23129e-12 -1.31204e-13 0 0 -1.67625e-13 9.81196e-13 3.77881e-13 3.93657e-13 0 0 -2.5299e-13 1.19344e-12 9.9074e-14 5.01626e-13 0
				</DataArray>
				<DataArray Name="VitesseY" type="Float32" format="ascii">