<?xml version="1.0"?>
<VTKFile type="PolyData">
	<PolyData>
		<Piece NumberOfPoints="1206" NumberOfPolys="1000">
			<Points>
				<DataArray type="Float32" NumberOfComponents="3" format="ascii">
 0 0 0 0.02 0 0 0.04 0 0 0.06 0 0 0.08 0 0 0.1 0 0 0 0.005 0 0.02 0.005 0 0.04 0.005 0 0.06 0.005 0 0.08 0.005 0 0.1 0.005 0 0 0.01 0 0.02 0.01 0 0.04 0.01 0 0.06 0.01 0 0.08 0.01 0 0.1 0.01 0 0 0.015 0 0.02 0.015 0 0.04 0.015 0 0.06 0.015 0 0.08 0.015 0 0.1 0.015 0 0 0.02 0 0.02 0.02 0 0.04 0.02 0 0.06 0.02 0 0.08 0.02 0 0.1 0.02 0 0 0.025 0 0.02 0.025 0 0.04 0.025 0 0.06 0.025 0 0.08 0.025 0 0.1 0.025 0 0 0.03 0 0.02 0.03 0 0.04 0.03 0 0.06 0.03 0 0.08 0.03 0 0.1 0.03 0 0 0.035 0 0.02 0.035 0 0.04 0.035 0 0.06 0.035 0 0.08 0.035 0 0.1 0.035 0 0 0.04 0 0.02 0.04 0 0.04 0.04 0 0.06 0.04 0 0.08 0.04 0 0.1 0.04 0 0 0.045 0 0.02 0.045 0 0.04 0.045 0 0.06 0.045 0 0.08 0.045 0 0.1 0.045 0 0 0.05 0 0.02 0.05 0 0.04 0.05 0 0.06 0.05 0 0.08 0.05 0 0.1 0.05 0 0 0.055 0 0.02 0.055 0 0.04 0.055 0 0.06 0.055 0 0.08 0.055 0 0.1 0.055 0 0 0.06 0 0.02 0.06 0 0.04 0.06 0 0.06 0.06 0 0.08 0.06 0 0.1 0.06 0 0 0.065 0 0.02 0.065 0 0.04 0.065 0 0.06 0.065 0 0.08 0.065 0 0.1 0.065 0 0 0.07 0 0.02 0.07 0 0.04 0.07 0 0.06 0.07 0 0.08 0.07 0 0.1 0.07 0 0 0.075 0 0.02 0.075 0 0.04 0.075 0 0.06 0.075 0 0.08 0.075 0 0.1 0.075 0 0 0.08 0 0.02 0.08 0 0.04 0.08 0 0.06 0.08 0 0.08 0.08 0 0.1 0.08 0 0 0.085 0 0.02 0.085 0 0.04 0.085 0 0.06 0.085 0 0.08 0.085 0 0.1 0.085 0 0 0.09 0 0.02 0.09 0 0.04 0.09 0 0.06 0.09 0 0.08 0.09 0 0.1 0.09 0 0 0.095 0 0.02 0.095 0 0.04 0.095 0 0.06 0.095 0 0.08 0.095 0 0.1 0.095 0 0 0.1 0 0.02 0.1 0 0.04 0.1 0 0.06 0.1 0 0.08 0.1 0 0.1 0.1 0 0 0.105 0 0.02 0.105 0 0.04 0.105 0 0.06 0.105 0 0.08 0.105 0 0.1 0.105 0 0 0.11 0 0.02 0.11 0 0.04 0.11 0 0.06 0.11 0 0.08 0.11 0 0.1 0.11 0 0 0.115 0 0.02 0.115 0 0.04 0.115 0 0.06 0.115 0 0.08 0.115 0 0.1 0.115 0 0 0.12 0 0.02 0.12 0 0.04 0.12 0 0.06 0.12 0 0.08 0.12 0 0.1 0.12 0 0 0.125 0 0.02 0.125 0 0.04 0.125 0 0.06 0.125 0 0.08 0.125 0 0.1 0.125 0 0 0.13 0 0.02 0.13 0 0.04 0.13 0 0.06 0.13 0 0.08 0.13 0 0.1 0.13 0 0 0.135 0 0.02 0.135 0 0.04 0.135 0 0.06 0.135 0 0.08 0.135 0 0.1 0.135 0 0 0.14 0 0.02 0.14 0 0.04 0.14 0 0.06 0.14 0 0.08 0.14 0 0.1 0.14 0 0 0.145 0 0.02 0.145 0 0.04 0.145 0 0.06 0.145 0 0.08 0.145 0 0.1 0.145 0 0 0.15 0 0.02 0.15 0 0.04 0.15 0 0.06 0.15 0 0.08 0.15 0 0.1 0.15 0 0 0.155 0 0.02 0.155 0 0.04 0.155 0 0.06 0.155 0 0.08 0.155 0 0.1 0.155 0 0 0.16 0 0.02 0.16 0 0.04 0.16 0 0.06 0.16 0 0.08 0.16 0 0.1 0.16 0 0 0.165 0 0.02 0.165 0 0.04 0.165 0 0.06 0.165 0 0.08 0.165 0 0.1 0.165 0 0 0.17 0 0.02 0.17 0 0.04 0.17 0 0.06 0.17 0 0.08 0.17 0 0.1 0.17 0 0 0.175 0 0.02 0.175 0 0.04 0.175 0 0.06 0.175 0 0.08 0.175 0 0.1 0.175 0 0 0.18 0 0.02 0.18 0 0.04 0.18 0 0.06 0.18 0 0.08 0.18 0 0.1 0.18 0 0 0.185 0 0.02 0.185 0 0.04 0.185 0 0.06 0.185 0 0.08 0.185 0 0.1 0.185 0 0 0.19 0 0.02 0.19 0 0.04 0.19 0 0.06 0.19 0 0.08 0.19 0 0.1 0.19 0 0 0.195 0 0.02 0.195 0 0.04 0.195 0 0.06 0.195 0 0.08 0.195 0 0.1 0.195 0 0 0.2 0 0.02 0.2 0 0.04 0.2 0 0.06 0.2 0 0.08 0.2 0 0.1 0.2 0 0 0.205 0 0.02 0.205 0 0.04 0.205 0 0.06 0.205 0 0.08 0.205 0 0.1 0.205 0 0 0.21 0 0.02 0.21 0 0.04 0.21 0 0.06 0.21 0 0.08 0.21 0 0.1 0.21 0 0 0.215 0 0.02 0.215 0 0.04 0.215 0 0.06 0.215 0 0.08 0.215 0 0.1 0.215 0 0 0.22 0 0.02 0.22 0 0.04 0.22 0 0.06 0.22 0 0.08 0.22 0 0.1 0.22 0 0 0.225 0 0.02 0.225 0 0.04 0.225 0 0.06 0.225 0 0.08 0.225 0 0.1 0.225 0 0 0.23 0 0.02 0.23 0 0.04 0.23 0 0.06 0.23 0 0.08 0.23 0 0.1 0.23 0 0 0.235 0 0.02 0.235 0 0.04 0.235 0 0.06 0.235 0 0.08 0.235 0 0.1 0.235 0 0 0.24 0 0.02 0.24 0 0.04 0.24 0 0.06 0.24 0 0.08 0.24 0 0.1 0.24 0 0 0.245 0 0.02 0.245 0 0.04 0.245 0 0.06 0.245 0 0.08 0.245 0 0.1 0.245 0 0 0.25 0 0.02 0.25 0 0.04 0.25 0 0.06 0.25 0 0.08 0.25 0 0.1 0.25 0 0 0.255 0 0.02 0.255 0 0.04 0.255 0 0.06 0.255 0 0.08 0.255 0 0.1 0.255 0 0 0.26 0 0.02 0.26 0 0.04 0.26 0 0.06 0.26 0 0.08 0.26 0 0.1 0.26 0 0 0.265 0 0.02 0.265 0 0.04 0.265 0 0.06 0.265 0 0.08 0.265 0 0.1 0.265 0 0 0.27 0 0.02 0.27 0 0.04 0.27 0 0.06 0.27 0 0.08 0.27 0 0.1 0.27 0 0 0.275 0 0.02 0.275 0 0.04 0.275 0 0.06 0.275 0 0.08 0.275 0 0.1 0.275 0 0 0.28 0 0.02 0.28 0 0.04 0.28 0 0.06 0.28 0 0.08 0.28 0 0.1 0.28 0 0 0.285 0 0.02 0.285 0 0.04 0.285 0 0.06 0.285 0 0.08 0.285 0 0.1 0.285 0 0 0.29 0 0.02 0.29 0 0.04 0.29 0 0.06 0.29 0 0.08 0.29 0 0.1 0.29 0 0 0.295 0 0.02 0.295 0 0.04 0.295 0 0.06 0.295 0 0.08 0.295 0 0.1 0.295 0 0 0.3 0 0.02 0.3 0 0.04 0.3 0 0.06 0.3 0 0.08 0.3 0 0.1 0.3 0 0 0.305 0 0.02 0.305 0 0.04 0.305 0 0.06 0.305 0 0.08 0.305 0 0.1 0.305 0 0 0.31 0 0.02 0.31 0 0.04 0.31 0 0.06 0.31 0 0.08 0.31 0 0.1 0.31 0 0 0.315 0 0.02 0.315 0 0.04 0.315 0 0.06 0.315 0 0.08 0.315 0 0.1 0.315 0 0 0.32 0 0.02 0.32 0 0.04 0.32 0 0.06 0.32 0 0.08 0.32 0 0.1 0.32 0 0 0.325 0 0.02 0.325 0 0.04 0.325 0 0.06 0.325 0 0.08 0.325 0 0.1 0.325 0 0 0.33 0 0.02 0.33 0 0.04 0.33 0 0.06 0.33 0 0.08 0.33 0 0.1 0.33 0 0 0.335 0 0.02 0.335 0 0.04 0.335 0 0.06 0.335 0 0.08 0.335 0 0.1 0.335 0 0 0.34 0 0.02 0.34 0 0.04 0.34 0 0.06 0.34 0 0.08 0.34 0 0.1 0.34 0 0 0.345 0 0.02 0.345 0 0.04 0.345 0 0.06 0.345 0 0.08 0.345 0 0.1 0.345 0 0 0.35 0 0.02 0.35 0 0.04 0.35 0 0.06 0.35 0 0.08 0.35 0 0.1 0.35 0 0 0.355 0 0.02 0.355 0 0.04 0.355 0 0.06 0.355 0 0.08 0.355 0 0.1 0.355 0 0 0.36 0 0.02 0.36 0 0.04 0.36 0 0.06 0.36 0 0.08 0.36 0 0.1 0.36 0 0 0.365 0 0.02 0.365 0 0.04 0.365 0 0.06 0.365 0 0.08 0.365 0 0.1 0.365 0 0 0.37 0 0.02 0.37 0 0.04 0.37 0 0.06 0.37 0 0.08 0.37 0 0.1 0.37 0 0 0.375 0 0.02 0.375 0 0.04 0.375 0 0.06 0.375 0 0.08 0.375 0 0.1 0.375 0 0 0.38 0 0.02 0.38 0 0.04 0.38 0 0.06 0.38 0 0.08 0.38 0 0.1 0.38 0 0 0.385 0 0.02 0.385 0 0.04 0.385 0 0.06 0.385 0 0.08 0.385 0 0.1 0.385 0 0 0.39 0 0.02 0.39 0 0.04 0.39 0 0.06 0.39 0 0.08 0.39 0 0.1 0.39 0 0 0.395 0 0.02 0.395 0 0.04 0.395 0 0.06 0.395 0 0.08 0.395 0 0.1 0.395 0 0 0.4 0 0.02 0.4 0 0.04 0.4 0 0.06 0.4 0 0.08 0.4 0 0.1 0.4 0 0 0.405 0 0.02 0.405 0 0.04 0.405 0 0.06 0.405 0 0.08 0.405 0 0.1 0.405 0 0 0.41 0 0.02 0.41 0 0.04 0.41 0 0.06 0.41 0 0.08 0.41 0 0.1 0.41 0 0 0.415 0 0.02 0.415 0 0.04 0.415 0 0.06 0.415 0 0.08 0.415 0 0.1 0.415 0 0 0.42 0 0.02 0.42 0 0.04 0.42 0 0.06 0.42 0 0.08 0.42 0 0.1 0.42 0 0 0.425 0 0.02 0.425 0 0.04 0.425 0 0.06 0.425 0 0.08 0.425 0 0.1 0.425 0 0 0.43 0 0.02 0.43 0 0.04 0.43 0 0.06 0.43 0 0.08 0.43 0 0.1 0.43 0 0 0.435 0 0.02 0.435 0 0.04 0.435 0 0.06 0.435 0 0.08 0.435 0 0.1 0.435 0 0 0.44 0 0.02 0.44 0 0.04 0.44 0 0.06 0.44 0 0.08 0.44 0 0.1 0.44 0 0 0.445 0 0.02 0.445 0 0.04 0.445 0 0.06 0.445 0 0.08 0.445 0 0.1 0.445 0 0 0.45 0 0.02 0.45 0 0.04 0.45 0 0.06 0.45 0 0.08 0.45 0 0.1 0.45 0 0 0.455 0 0.02 0.455 0 0.04 0.455 0 0.06 0.455 0 0.08 0.455 0 0.1 0.455 0 0 0.46 0 0.02 0.46 0 0.04 0.46 0 0.06 0.46 0 0.08 0.46 0 0.1 0.46 0 0 0.465 0 0.02 0.465 0 0.04 0.465 0 0.06 0.465 0 0.08 0.465 0 0.1 0.465 0 0 0.47 0 0.02 0.47 0 0.04 0.47 0 0.06 0.47 0 0.08 0.47 0 0.1 0.47 0 0 0.475 0 0.02 0.475 0 0.04 0.475 0 0.06 0.475 0 0.08 0.475 0 0.1 0.475 0 0 0.48 0 0.02 0.48 0 0.04 0.48 0 0.06 0.48 0 0.08 0.48 0 0.1 0.48 0 0 0.485 0 0.02 0.485 0 0.04 0.485 0 0.06 0.485 0 0.08 0.485 0 0.1 0.485 0 0 0.49 0 0.02 0.49 0 0.04 0.49 0 0.06 0.49 0 0.08 0.49 0 0.1 0.49 0 0 0.495 0 0.02 0.495 0 0.04 0.495 0 0.06 0.495 0 0.08 0.495 0 0.1 0.495 0 0 0.5 0 0.02 0.5 0 0.04 0.5 0 0.06 0.5 0 0.08 0.5 0 0.1 0.5 0 0 0.505 0 0.02 0.505 0 0.04 0.505 0 0.06 0.505 0 0.08 0.505 0 0.1 0.505 0 0 0.51 0 0.02 0.51 0 0.04 0.51 0 0.06 0.51 0 0.08 0.51 0 0.1 0.51 0 0 0.515 0 0.02 0.515 0 0.04 0.515 0 0.06 0.515 0 0.08 0.515 0 0.1 0.515 0 0 0.52 0 0.02 0.52 0 0.04 0.52 0 0.06 0.52 0 0.08 0.52 0 0.1 0.52 0 0 0.525 0 0.02 0.525 0 0.04 0.525 0 0.06 0.525 0 0.08 0.525 0 0.1 0.525 0 0 0.53 0 0.02 0.53 0 0.04 0.53 0 0.06 0.53 0 0.08 0.53 0 0.1 0.53 0 0 0.535 0 0.02 0.535 0 0.04 0.535 0 0.06 0.535 0 0.08 0.535 0 0.1 0.535 0 0 0.54 0 0.02 0.54 0 0.04 0.54 0 0.06 0.54 0 0.08 0.54 0 0.1 0.54 0 0 0.545 0 0.02 0.545 0 0.04 0.545 0 0.06 0.545 0 0.08 0.545 0 0.1 0.545 0 0 0.55 0 0.02 0.55 0 0.04 0.55 0 0.06 0.55 0 0.08 0.55 0 0.1 0.55 0 0 0.555 0 0.02 0.555 0 0.04 0.555 0 0.06 0.555 0 0.08 0.555 0 0.1 0.555 0 0 0.56 0 0.02 0.56 0 0.04 0.56 0 0.06 0.56 0 0.08 0.56 0 0.1 0.56 0 0 0.565 0 0.02 0.565 0 0.04 0.565 0 0.06 0.565 0 0.08 0.565 0 0.1 0.565 0 0 0.57 0 0.02 0.57 0 0.04 0.57 0 0.06 0.57 0 0.08 0.57 0 0.1 0.57 0 0 0.575 0 0.02 0.575 0 0.04 0.575 0 0.06 0.575 0 0.08 0.575 0 0.1 0.575 0 0 0.58 0 0.02 0.58 0 0.04 0.58 0 0.06 0.58 0 0.08 0.58 0 0.1 0.58 0 0 0.585 0 0.02 0.585 0 0.04 0.585 0 0.06 0.585 0 0.08 0.585 0 0.1 0.585 0 0 0.59 0 0.02 0.59 0 0.04 0.59 0 0.06 0.59 0 0.08 0.59 0 0.1 0.59 0 0 0.595 0 0.02 0.595 0 0.04 0.595 0 0.06 0.595 0 0.08 0.595 0 0.1 0.595 0 0 0.6 0 0.02 0.6 0 0.04 0.6 0 0.06 0.6 0 0.08 0.6 0 0.1 0.6 0 0 0.605 0 0.02 0.605 0 0.04 0.605 0 0.06 0.605 0 0.08 0.605 0 0.1 0.605 0 0 0.61 0 0.02 0.61 0 0.04 0.61 0 0.06 0.61 0 0.08 0.61 0 0.1 0.61 0 0 0.615 0 0.02 0.615 0 0.04 0.615 0 0.06 0.615 0 0.08 0.615 0 0.1 0.615 0 0 0.62 0 0.02 0.62 0 0.04 0.62 0 0.06 0.62 0 0.08 0.62 0 0.1 0.62 0 0 0.625 0 0.02 0.625 0 0.04 0.625 0 0.06 0.625 0 0.08 0.625 0 0.1 0.625 0 0 0.63 0 0.02 0.63 0 0.04 0.63 0 0.06 0.63 0 0.08 0.63 0 0.1 0.63 0 0 0.635 0 0.02 0.635 0 0.04 0.635 0 0.06 0.635 0 0.08 0.635 0 0.1 0.635 0 0 0.64 0 0.02 0.64 0 0.04 0.64 0 0.06 0.64 0 0.08 0.64 0 0.1 0.64 0 0 0.645 0 0.02 0.645 0 0.04 0.645 0 0.06 0.645 0 0.08 0.645 0 0.1 0.645 0 0 0.65 0 0.02 0.65 0 0.04 0.65 0 0.06 0.65 0 0.08 0.65 0 0.1 0.65 0 0 0.655 0 0.02 0.655 0 0.04 0.655 0 0.06 0.655 0 0.08 0.655 0 0.1 0.655 0 0 0.66 0 0.02 0.66 0 0.04 0.66 0 0.06 0.66 0 0.08 0.66 0 0.1 0.66 0 0 0.665 0 0.02 0.665 0 0.04 0.665 0 0.06 0.665 0 0.08 0.665 0 0.1 0.665 0 0 0.67 0 0.02 0.67 0 0.04 0.67 0 0.06 0.67 0 0.08 0.67 0 0.1 0.67 0 0 0.675 0 0.02 0.675 0 0.04 0.675 0 0.06 0.675 0 0.08 0.675 0 0.1 0.675 0 0 0.68 0 0.02 0.68 0 0.04 0.68 0 0.06 0.68 0 0.08 0.68 0 0.1 0.68 0 0 0.685 0 0.02 0.685 0 0.04 0.685 0 0.06 0.685 0 0.08 0.685 0 0.1 0.685 0 0 0.69 0 0.02 0.69 0 0.04 0.69 0 0.06 0.69 0 0.08 0.69 0 0.1 
[...]
			<PointData Scalars="VitesseX">
				<DataArray Name="VitesseX" type="Float32" format="ascii">
 0 -1.92525e-14 -1.03753e-14 9.76751e-15 8.40258e-15 0 0 -1.37764e-14 -1.70223e-14 1.25128e-14 8.36424e-15 0 0 -9.32427e-15 -1.95525e-14 6.71043e-15 1.48806e-14 0 0 -8.97837e-15 -1.60044e-14 -1.09586e-15 1.92768e-14 0 0 -6.5427e-15 -1.69605e-14 2.6702e-15 1.67779e-14 0 0 -1.37157e-15 -1.79111e-14 7.91295e-15 1.27153e-14 0 0 -1.91942e-15 -8.29497e-15 6.94764e-15 9.69038e-15 0 0 -6.68529e-15 4.61098e-15 6.98449e-15 9.39521e-15 0 0 -3.62985e-15 1.87419e-14 -4.10363e-15 1.64977e-14 0 0 -3.35816e-16 2.20497e-14 3.80561e-15 1.3532e-14 0 0 -9.85373e-15 3.38859e-14 8.86083e-15 9.16342e-15 0 0 -8.48713e-15 3.24748e-14 1.97837e-14 -7.27355e-15 0 0 -1.25889e-14 3.11649e-14 2.99749e-14 -2.52416e-14 0 0 6.66511e-15 2.35797e-15 4.32001e-14 -2.92346e-14 0 0 3.54622e-15 1.25242e-14 1.37149e-14 -1.39439e-15 0 0 3.88754e-15 -3.04567e-15 2.91043e-14 -1.7706e-14 0 0 3.91393e-15 -2.21966e-15 3.94778e-15 2.01289e-15 0 0 -1.57106e-14 1.61211e-14 -2.8489e-14 2.23133e-14 0 0 -1.21621e-15 -1.72744e-14 -1.24717e-14 2.22956e-14 0 0 8.76381e-15 -1.65541e-14 -2.47433e-14 4.09888e-14 0 0 1.56522e-14 -4.08727e-14 2.75227e-14 -4.32076e-15 0 0 2.05278e-14 -2.97754e-14 -3.23728e-15 2.56018e-14 0 0 2.06077e-14 -1.58451e-14 -2.3404e-14 4.61418e-14 0 0 -1.41961e-14 2.29185e-14 -1.63994e-14 1.43185e-14 0 0 -4.76068e-14 7.52614e-14 -3.53092e-14 3.1423e-15 0 0 -2.51752e-14 5.98664e-14 -1.9905e-14 -5.06319e-15 0 0 2.73782e-14 -1.08146e-14 2.71309e-14 -7.49338e-15 0 0 7.78197e-15 2.09805e-14 8.61539e-15 9.55859e-15 0 0 -3.35341e-14 8.68414e-14 -4.09556e-14 3.24335e-14 0 0 -1.16204e-14 4.74817e-14 -1.59791e-14 4.92135e-14 0 0 1.59368e-14 -8.0643e-15 3.76266e-14 2.46596e-14 0 0 2.93866e-14 -3.85497e-14 7.50689e-14 -3.0562e-14 0 0 2.19799e-15 2.05064e-14 -1.42045e-14 1.85194e-14 0 0 -1.77163e-14 4.41587e-14 -4.43313e-14 3.62828e-14 0 0 6.34954e-16 -5.44756e-16 2.23531e-14 7.73825e-15 0 0 2.31011e-14 -4.40038e-14 6.29877e-14 2.7905e-14 0 0 1.10008e-14 -1.90558e-15 7.86174e-15 8.55296e-14 0 0 -1.96949e-14 6.74728e-14 -5.63352e-14 1.11878e-13 0 0 2.29596e-14 1.39396e-14 2.49103e-15 7.06125e-14 0 0 4.69465e-14 2.33053e-14 -3.75367e-14 9.94808e-14 0 0 9.57056e-14 -3.4067e-14 -7.5118e-16 6.09736e-14 0 0 6.76464e-14 2.13133e-14 -4.60947e-14 5.2432e-14 0 0 5.41699e-14 4.54291e-14 -7.5808e-14 7.0806e-14 0 0 7.91832e-14 -1.92338e-14 9.89215e-15 2.10608e-14 0 0 4.91565e-14 3.75618e-14 3.97157e-15 -2.98427e-14 0 0 1.20711e-13 -6.22942e-14 1.04246e-13 -1.33505e-13 0 0 1.37851e-13 -6.75172e-14 5.87933e-14 -7.94515e-14 0 0 9.83562e-14 3.33536e-14 -5.01582e-14 -4.92354e-15 0 0 8.10051e-14 4.64624e-14 -4.0849e-14 -2.46049e-14 0 0 1.01648e-13 1.13039e-15 -9.49654e-15 -3.8998e-14 0 0 8.2607e-14 1.2816e-14 1.23484e-14 -8.14851e-14 0 0 6.7215e-14 7.90821e-15 3.12875e-15 -3.95966e-14 0 0 1.3721e-13 -5.93483e-14 3.87293e-14 -2.71197e-14 0 0 1.64427e-13 -7.58503e-14 6.01394e-14 -1.28884e-14 0 0 8.86843e-14 8.05292e-14 -5.56961e-14 7.82745e-14 0 0 5.80614e-14 1.84999e-13 -6.7767e-14 9.6243e-14 0 0 6.51138e-14 1.30991e-13 5.9984e-14 8.67547e-14 0 0 1.37744e-13 6.76569e-14 8.77882e-14 1.42596e-13 0 0 2.20534e-13 -2.55224e-14 1.79067e-13 1.0416e-13 0 0 1.03771e-13 9.02272e-14 1.95861e-13 3.10741e-14 0 0 -2.12233e-14 2.69612e-13 2.38433e-14 1.20047e-13 0 0 3.93585e-14 1.60526e-13 7.2907e-14 9.72253e-14 0 0 1.36209e-13 8.73742e-14 1.19886e-13 1.54377e-14 0 0 1.64805e-13 9.19335e-14 1.04339e-13 1.39898e-14 0 0 1.08975e-13 9.22752e-14 1.2776e-13 6.46271e-14 0 0 5.6846e-14 1.27644e-13 5.82745e-14 1.73632e-13 0 0 1.68603e-13 -4.78406e-14 1.50268e-13 1.05711e-13 0 0 1.55995e-13 -2.1039e-14 3.66092e-14 1.02878e-13 0 0 4.75782e-14 1.76267e-13 -2.33511e-13 2.15421e-13 0 0 2.49191e-13 -3.87302e-14 -4.13328e-14 7.11484e-14 0 0 4.90315e-13 -2.39952e-13 9.25583e-14 1.23585e-14 0 0 3.65787e-13 -1.06273e-13 -3.09225e-15 7.36775e-14 0 0 4.24527e-14 2.88585e-13 -2.67482e-13 2.12256e-13 0 0 1.04079e-13 2.63356e-13 -3.31846e-13 2.73776e-13 0 0 3.34049e-13 1.26499e-14 -1.29151e-13 9.2796e-14 0 0 3.86408e-13 1.48585e-14 -5.95706e-14 -1.70005e-14 0 0 3.96524e-13 -3.13526e-14 -2.74417e-14 -2.04773e-14 0 0 3.17149e-13 8.87145e-14 -2.27067e-13 1.92366e-13 0 0 2.3829e-13 1.76872e-13 -4.30832e-13 3.27444e-13 0 0 3.23698e-13 -2.56117e-14 -2.74159e-13 2.13187e-13 0 0 3.89289e-13 -3.35094e-13 1.29727e-14 5.43063e-14 0 0 2.71194e-13 -3.01882e-13 4.73249e-14 8.05966e-15 0 0 -2.79682e-14 1.48947e-15 -9.02123e-14 3.67052e-14 0 0 -3.12492e-13 2.19064e-14 -5.30552e-14 -1.22649e-14 0 0 -3.01917e-13 -5.2367e-14 5.93202e-14 -9.35245e-14 0 0 -2.39978e-13 -1.65516e-13 1.11119e-13 -3.67085e-14 0 0 -2.31935e-13 -1.89642e-13 5.85783e-14 9.73016e-14 0 0 -2.90428e-13 -1.28865e-13 -4.03283e-14 2.10473e-13 0 0 -3.50199e-13 -6.82971e-14 -1.90498e-13 2.99738e-13 0 0 -3.39392e-13 -1.0132e-13 -1.93503e-13 3.58964e-13 0 0 -2.60182e-13 -2.38495e-13 -1.56419e-13 3.47111e-13 0 0 -1.60548e-13 -3.996e-13 -7.39205e-14 3.08847e-13 0 0 -1.49828e-13 -4.88144e-13 3.8377e-14 2.31434e-13 0 0 -1.94603e-13 -4.75457e-13 1.1441e-13 1.85403e-13 0 0 -3.08217e-13 -4.09956e-13 1.25181e-13 1.32242e-13 0 0 -4.24332e-13 -3.15788e-13 1.5313e-13 7.51857e-14 0 0 -5.23086e-13 -2.35219e-13 2.03235e-13 -4.07385e-15 0 0 -5.89561e-13 -1.87387e-13 2.00269e-13 -9.54927e-14 0 0 -5.99351e-13 -1.60302e-13 1.93067e-13 -1.57874e-13 0 0 -5.81743e-13 -1.32448e-13 1.71194e-13 -1.85699e-13 0 0 -5.38937e-13 -1.04819e-13 1.2372e-13 -1.9572e-13 0 0 -4.6139e-13 -5.80011e-14 7.82775e-14 -1.83127e-13 0 0 -3.28227e-13 -3.58588e-14 3.23523e-14 -1.17109e-13 0 0 -1.96849e-13 -2.30894e-14 2.83434e-15 3.73689e-15 0 0 -6.99949e-14 -4.77314e-14 5.97392e-14 -2.55082e-14 0 0 8.53626e-14 -1.42954e-13 2.38955e-13 -4.22939e-14 0 0 2.43887e-13 -1.05538e-13 1.61442e-13 8.66867e-14 0 0 2.67866e-13 -6.45207e-15 3.30662e-14 2.50479e-13 0 0 2.57914e-13 5.2184e-14 -2.43231e-14 3.75091e-13 0 0 2.48028e-13 8.25874e-14 2.03733e-14 4.50813e-13 0 0 1.67667e-13 1.55939e-13 1.26143e-13 4.08941e-13 0 0 9.04893e-14 1.64758e-13 2.06292e-13 3.04565e-13 0 0 4.15373e-14 1.87109e-13 1.94713e-13 1.81e-13 0 0 4.22737e-14 1.82718e-13 1.59107e-13 1.88349e-13 0 0 8.16887e-14 1.55571e-13 1.26083e-13 2.38656e-13 0 0 1.69192e-13 1.23341e-13 6.42426e-14 3.05059e-13 0 0 2.47256e-13 4.38691e-14 7.21447e-14 3.12249e-13 0 0 3.05188e-13 3.64806e-14 1.48913e-13 2.20854e-13 0 0 3.28971e-13 3.60491e-14 2.80085e-13 2.23758e-14 0 0 3.47058e-13 2.42242e-14 3.1505e-13 -1.40311e-14 0 0 3.22324e-13 1.17254e-13 2.6892e-13 1.87847e-14 0 0 2.06635e-13 3.75539e-13 1.05841e-13 6.8397e-14 0 0 1.30341e-13 4.92794e-13 -2.54835e-14 1.36024e-13 0 0 1.43558e-13 4.68054e-13 -1.05582e-14 1.44881e-13 0 0 1.9319e-13 3.07077e-13 1.04584e-13 6.47369e-14 0 0 2.35021e-13 8.74306e-14 2.40299e-13 -1.11494e-14 0 0 2.29684e-13 -7.60463e-14 4.10179e-13 -1.63032e-13 0 0 2.12159e-13 -9.49767e-14 4.57253e-13 -2.04096e-13 0 0 1.07401e-13 2.29929e-14 2.95804e-13 -5.92985e-14 0 0 3.39747e-14 1.52674e-13 8.91268e-14 1.2959e-13 0 0 5.94483e-14 1.39474e-13 7.68738e-14 1.30801e-13 0 0 1.04095e-13 1.47004e-13 4.70718e-14 1.01481e-13 0 0 1.21867e-13 1.71081e-13 5.41741e-15 4.6091e-14 0 0 1.14932e-13 1.86916e-13 -9.26537e-15 -5.5759e-16 0 0 1.12636e-13 1.62271e-13 1.75346e-14 -8.57257e-14 0 0 1.09585e-13 1.12392e-13 4.17947e-14 -9.00274e-14 0 0 8.86369e-14 1.16742e-13 3.24932e-14 -6.91988e-14 0 0 4.45326e-14 1.24378e-13 3.48328e-14 -4.78871e-14 0 0 5.04673e-15 1.04383e-13 3.8802e-14 5.8744e-14 0 0 -3.41916e-15 3.75283e-14 5.09689e-14 4.73229e-14 0 0 -1.44952e-14 3.74143e-15 6.66529e-14 3.70197e-14 0 0 -5.42189e-14 9.96334e-15 6.70519e-16 1.5872e-13 0 0 -6.75908e-14 -2.47066e-14 2.91049e-14 1.36138e-13 0 0 -8.49331e-14 3.98243e-14 -4.46379e-14 1.03692e-13 0 0 -9.16817e-14 6.6551e-14 -7.38056e-14 1.01997e-13 0 0 -5.54575e-14 2.62956e-15 8.03821e-14 2.87527e-14 0 0 -4.37505e-15 1.44093e-14 8.50088e-14 1.28595e-13 0 0 2.85225e-14 8.13006e-14 1.29246e-13 1.69228e-13 0 0 1.93693e-14 1.26275e-13 2.18699e-13 4.86623e-14 0 0 5.03721e-14 9.92917e-14 3.8886e-13 9.22612e-14 0 0 5.95516e-14 1.66591e-13 4.2472e-13 2.82763e-13 0 0 1.31564e-13 1.62034e-13 4.77407e-13 2.80241e-13 0 0 1.59936e-13 2.3209e-13 4.14002e-13 2.94987e-13 0 0 1.76213e-13 2.38627e-13 4.3845e-13 2.8984e-13 0 0 1.51213e-13 3.07989e-13 4.11934e-13 3.40023e-13 0 0 1.01994e-13 3.86704e-13 3.45042e-13 3.98319e-13 0 0 8.97495e-14 3.82286e-13 4.45921e-13 2.70041e-13 0 0 1.39628e-13 3.0245e-13 5.58542e-13 1.70793e-13 0 0 1.50862e-13 2.97169e-13 4.84391e-13 2.65812e-13 0 0 8.74155e-14 4.26936e-13 2.89283e-13 4.77953e-13 0 0 1.69329e-13 3.08879e-13 3.49423e-13 5.54849e-13 0 0 2.42464e-13 2.22322e-13 4.45812e-13 5.16443e-13 0 0 2.09097e-13 3.10636e-13 4.22189e-13 5.09159e-13 0 0 1.29662e-13 4.55532e-13 3.216e-13 6.25754e-13 0 0 1.20184e-13 5.26739e-13 2.46859e-13 7.07601e-13 0 0 2.44821e-13 3.62564e-13 3.87147e-13 6.3835e-13 0 0 2.97234e-13 3.00662e-13 4.57847e-13 5.70991e-13 0 0 3.31541e-13 3.15927e-13 4.84778e-13 3.53599e-13 0 0 3.99353e-13 2.11505e-13 6.10896e-13 1.86919e-13 0 0 3.16588e-13 2.96716e-13 5.29228e-13 2.95371e-13 0 0 1.96107e-13 4.60742e-13 3.82142e-13 3.28445e-13 0 0 2.23241e-13 4.30763e-13 3.72831e-13 3.5802e-13 0 0 3.50683e-13 3.20617e-13 3.96135e-13 3.73675e-13 0 0 3.75047e-13 3.2413e-13 3.5261e-13 3.41392e-13 0 0 2.12855e-13 5.43863e-13 2.6248e-13 2.10975e-13 0 0 2.03645e-13 6.02892e-13 1.55279e-13 2.34542e-13 0 0 1.98881e-13 5.8335e-13 1.817e-13 2.35148e-13 0 0 1.99003e-13 5.24179e-13 3.41018e-13 1.40468e-13 0 0 2.2937e-13 5.01228e-13 3.16034e-13 2.54759e-13 0 0 2.66743e-13 4.84384e-13 4.95224e-13 2.86295e-14 0 0 1.90201e-13 6.43696e-13 2.98657e-13 1.93126e-13 0 0 1.19758e-13 6.69457e-13 2.04027e-13 3.4706e-13 0 0 1.95355e-13 4.05753e-13 5.38333e-13 1.48363e-13 0 0 5.90435e-14 5.57189e-13 3.78168e-13 3.38369e-13 0 0 -2.36841e-14 6.13045e-13 2.82512e-13 4.90313e-13 0 0 1.89724e-13 2.2009e-13 4.92098e-13 4.81518e-13 0 0 4.52671e-13 -1.43997e-13 7.45149e-13 3.12506e-13 0 0 2.34516e-13 1.52116e-13 5.55893e-13 3.32112e-13 0 0 6.50588e-14 3.41462e-13 4.13352e-13 4.17074e-13 0 0 1.27514e-13 2.32132e-13 4.84409e-13 4.80702e-13 0 0 -8.93963e-15 4.46361e-13 2.81249e-13 6.41193e-13 0 0 8.02308e-14 4.02449e-13 2.96019e-13 4.90746e-13 0 0 1.32304e-13 4.20003e-13 2.63598e-13 3.99835e-13 0 0 1.20549e-13 4.24679e-13 3.35052e-13 3.76779e-13 0 0 7.8342e-14 5.93266e-13 6.2612e-14 5.72183e-13 0 0 7.29117e-14 6.51168e-13 5.25044e-14 4.58027e-13 0 0 2.95143e-13 2.90226e-13 5.25223e-13 9.55622e-14 0 0 3.73228e-13 2.07271e-13 6.31849e-13 -7.44571e-14 0 0 2.23725e-13 4.5962e-13 4.08704e-13 -3.46632e-14 0 0 -1.18019e-13 1.03469e-12 -2.0552e-13 3.36805e-13 0 0 -3.10083e-13 1.33332e-12 -4.6421e-13 4.51884e-13 0
				</DataArray>
				<DataArray Name="VitesseY" type="Float32" format="ascii">