<?xml version="1.0"?>
<VTKFile type="PolyData">
	<PolyData>
		<Piece NumberOfPoints="1206" NumberOfPolys="1000">
			<Points>
				<DataArray type="Float32" NumberOfComponents="3" format="ascii">
 0 0 0 0.02 0 0 0.04 0 0 0.06 0 0 0.08 0 0 0.1 0 0 0 0.005 0 0.02 0.005 0 0.04 0.005 0 0.06 0.005 0 0.08 0.005 0 0.1 0.005 0 0 0.01 0 0.02 0.01 0 0.04 0.01 0 0.06 0.01 0 0.08 0.01 0 0.1 0.01 0 0 0.015 0 0.02 0.015 0 0.04 0.015 0 0.06 0.015 0 0.08 0.015 0 0.1 0.015 0 0 0.02 0 0.02 0.02 0 0.04 0.02 0 0.06 0.02 0 0.08 0.02 0 0.1 0.02 0 0 0.025 0 0.02 0.025 0 0.04 0.025 0 0.06 0.025 0 0.08 0.025 0 0.1 0.025 0 0 0.03 0 0.02 0.03 0 0.04 0.03 0 0.06 0.03 0 0.08 0.03 0 0.1 0.03 0 0 0.035 0 0.02 0.035 0 0.04 0.035 0 0.06 0.035 0 0.08 0.035 0 0.1 0.035 0 0 0.04 0 0.02 0.04 0 0.04 0.04 0 0.06 0.04 0 0.08 0.04 0 0.1 0.04 0 0 0.045 0 0.02 0.045 0 0.04 0.045 0 0.06 0.045 0 0.08 0.045 0 0.1 0.045 0 0 0.05 0 0.02 0.05 0 0.04 0.05 0 0.06 0.05 0 0.08 0.05 0 0.1 0.05 0 0 0.055 0 0.02 0.055 0 0.04 0.055 0 0.06 0.055 0 0.08 0.055 0 0.1 0.055 0 0 0.06 0 0.02 0.06 0 0.04 0.06 0 0.06 0.06 0 0.08 0.06 0 0.1 0.06 0 0 0.065 0 0.02 0.065 0 0.04 0.065 0 0.06 0.065 0 0.08 0.065 0 0.1 0.065 0 0 0.07 0 0.02 0.07 0 0.04 0.07 0 0.06 0.07 0 0.08 0.07 0 0.1 0.07 0 0 0.075 0 0.02 0.075 0 0.04 0.075 0 0.06 0.075 0 0.08 0.075 0 0.1 0.075 0 0 0.08 0 0.02 0.08 0 0.04 0.08 0 0.06 0.08 0 0.08 0.08 0 0.1 0.08 0 0 0.085 0 0.02 0.085 0 0.04 0.085 0 0.06 0.085 0 0.08 0.085 0 0.1 0.085 0 0 0.09 0 0.02 0.09 0 0.04 0.09 0 0.06 0.09 0 0.08 0.09 0 0.1 0.09 0 0 0.095 0 0.02 0.095 0 0.04 0.095 0 0.06 0.095 0 0.08 0.095 0 0.1 0.095 0 0 0.1 0 0.02 0.1 0 0.04 0.1 0 0.06 0.1 0 0.08 0.1 0 0.1 0.1 0 0 0.105 0 0.02 0.105 0 0.04 0.105 0 0.06 0.105 0 0.08 0.105 0 0.1 0.105 0 0 0.11 0 0.02 0.11 0 0.04 0.11 0 0.06 0.11 0 0.08 0.11 0 0.1 0.11 0 0 0.115 0 0.02 0.115 0 0.04 0.115 0 0.06 0.115 0 0.08 0.115 0 0.1 0.115 0 0 0.12 0 0.02 0.12 0 0.04 0.12 0 0.06 0.12 0 0.08 0.12 0 0.1 0.12 0 0 0.125 0 0.02 0.125 0 0.04 0.125 0 0.06 0.125 0 0.08 0.125 0 0.1 0.125 0 0 0.13 0 0.02 0.13 0 0.04 0.13 0 0.06 0.13 0 0.08 0.13 0 0.1 0.13 0 0 0.135 0 0.02 0.135 0 0.04 0.135 0 0.06 0.135 0 0.08 0.135 0 0.1 0.135 0 0 0.14 0 0.02 0.14 0 0.04 0.14 0 0.06 0.14 0 0.08 0.14 0 0.1 0.14 0 0 0.145 0 0.02 0.145 0 0.04 0.145 0 0.06 0.145 0 0.08 0.145 0 0.1 0.145 0 0 0.15 0 0.02 0.15 0 0.04 0.15 0 0.06 0.15 0 0.08 0.15 0 0.1 0.15 0 0 0.155 0 0.02 0.155 0 0.04 0.155 0 0.06 0.155 0 0.08 0.155 0 0.1 0.155 0 0 0.16 0 0.02 0.16 0 0.04 0.16 0 0.06 0.16 0 0.08 0.16 0 0.1 0.16 0 0 0.165 0 0.02 0.165 0 0.04 0.165 0 0.06 0.165 0 0.08 0.165 0 0.1 0.165 0 0 0.17 0 0.02 0.17 0 0.04 0.17 0 0.06 0.17 0 0.08 0.17 0 0.1 0.17 0 0 0.175 0 0.02 0.175 0 0.04 0.175 0 0.06 0.175 0 0.08 0.175 0 0.1 0.175 0 0 0.18 0 0.02 0.18 0 0.04 0.18 0 0.06 0.18 0 0.08 0.18 0 0.1 0.18 0 0 0.185 0 0.02 0.185 0 0.04 0.185 0 0.06 0.185 0 0.08 0.185 0 0.1 0.185 0 0 0.19 0 0.02 0.19 0 0.04 0.19 0 0.06 0.19 0 0.08 0.19 0 0.1 0.19 0 0 0.195 0 0.02 0.195 0 0.04 0.195 0 0.06 0.195 0 0.08 0.195 0 0.1 0.195 0 0 0.2 0 0.02 0.2 0 0.04 0.2 0 0.06 0.2 0 0.08 0.2 0 0.1 0.2 0 0 0.205 0 0.02 0.205 0 0.04 0.205 0 0.06 0.205 0 0.08 0.205 0 0.1 0.205 0 0 0.21 0 0.02 0.21 0 0.04 0.21 0 0.06 0.21 0 0.08 0.21 0 0.1 0.21 0 0 0.215 0 0.02 0.215 0 0.04 0.215 0 0.06 0.215 0 0.08 0.215 0 0.1 0.215 0 0 0.22 0 0.02 0.22 0 0.04 0.22 0 0.06 0.22 0 0.08 0.22 0 0.1 0.22 0 0 0.225 0 0.02 0.225 0 0.04 0.225 0 0.06 0.225 0 0.08 0.225 0 0.1 0.225 0 0 0.23 0 0.02 0.23 0 0.04 0.23 0 0.06 0.23 0 0.08 0.23 0 0.1 0.23 0 0 0.235 0 0.02 0.235 0 0.04 0.235 0 0.06 0.235 0 0.08 0.235 0 0.1 0.235 0 0 0.24 0 0.02 0.24 0 0.04 0.24 0 0.06 0.24 0 0.08 0.24 0 0.1 0.24 0 0 0.245 0 0.02 0.245 0 0.04 0.245 0 0.06 0.245 0 0.08 0.245 0 0.1 0.245 0 0 0.25 0 0.02 0.25 0 0.04 0.25 0 0.06 0.25 0 0.08 0.25 0 0.1 0.25 0 0 0.255 0 0.02 0.255 0 0.04 0.255 0 0.06 0.255 0 0.08 0.255 0 0.1 0.255 0 0 0.26 0 0.02 0.26 0 0.04 0.26 0 0.06 0.26 0 0.08 0.26 0 0.1 0.26 0 0 0.265 0 0.02 0.265 0 0.04 0.265 0 0.06 0.265 0 0.08 0.265 0 0.1 0.265 0 0 0.27 0 0.02 0.27 0 0.04 0.27 0 0.06 0.27 0 0.08 0.27 0 0.1 0.27 0 0 0.275 0 0.02 0.275 0 0.04 0.275 0 0.06 0.275 0 0.08 0.275 0 0.1 0.275 0 0 0.28 0 0.02 0.28 0 0.04 0.28 0 0.06 0.28 0 0.08 0.28 0 0.1 0.28 0 0 0.285 0 0.02 0.285 0 0.04 0.285 0 0.06 0.285 0 0.08 0.285 0 0.1 0.285 0 0 0.29 0 0.02 0.29 0 0.04 0.29 0 0.06 0.29 0 0.08 0.29 0 0.1 0.29 0 0 0.295 0 0.02 0.295 0 0.04 0.295 0 0.06 0.295 0 0.08 0.295 0 0.1 0.295 0 0 0.3 0 0.02 0.3 0 0.04 0.3 0 0.06 0.3 0 0.08 0.3 0 0.1 0.3 0 0 0.305 0 0.02 0.305 0 0.04 0.305 0 0.06 0.305 0 0.08 0.305 0 0.1 0.305 0 0 0.31 0 0.02 0.31 0 0.04 0.31 0 0.06 0.31 0 0.08 0.31 0 0.1 0.31 0 0 0.315 0 0.02 0.315 0 0.04 0.315 0 0.06 0.315 0 0.08 0.315 0 0.1 0.315 0 0 0.32 0 0.02 0.32 0 0.04 0.32 0 0.06 0.32 0 0.08 0.32 0 0.1 0.32 0 0 0.325 0 0.02 0.325 0 0.04 0.325 0 0.06 0.325 0 0.08 0.325 0 0.1 0.325 0 0 0.33 0 0.02 0.33 0 0.04 0.33 0 0.06 0.33 0 0.08 0.33 0 0.1 0.33 0 0 0.335 0 0.02 0.335 0 0.04 0.335 0 0.06 0.335 0 0.08 0.335 0 0.1 0.335 0 0 0.34 0 0.02 0.34 0 0.04 0.34 0 0.06 0.34 0 0.08 0.34 0 0.1 0.34 0 0 0.345 0 0.02 0.345 0 0.04 0.345 0 0.06 0.345 0 0.08 0.345 0 0.1 0.345 0 0 0.35 0 0.02 0.35 0 0.04 0.35 0 0.06 0.35 0 0.08 0.35 0 0.1 0.35 0 0 0.355 0 0.02 0.355 0 0.04 0.355 0 0.06 0.355 0 0.08 0.355 0 0.1 0.355 0 0 0.36 0 0.02 0.36 0 0.04 0.36 0 0.06 0.36 0 0.08 0.36 0 0.1 0.36 0 0 0.365 0 0.02 0.365 0 0.04 0.365 0 0.06 0.365 0 0.08 0.365 0 0.1 0.365 0 0 0.37 0 0.02 0.37 0 0.04 0.37 0 0.06 0.37 0 0.08 0.37 0 0.1 0.37 0 0 0.375 0 0.02 0.375 0 0.04 0.375 0 0.06 0.375 0 0.08 0.375 0 0.1 0.375 0 0 0.38 0 0.02 0.38 0 0.04 0.38 0 0.06 0.38 0 0.08 0.38 0 0.1 0.38 0 0 0.385 0 0.02 0.385 0 0.04 0.385 0 0.06 0.385 0 0.08 0.385 0 0.1 0.385 0 0 0.39 0 0.02 0.39 0 0.04 0.39 0 0.06 0.39 0 0.08 0.39 0 0.1 0.39 0 0 0.395 0 0.02 0.395 0 0.04 0.395 0 0.06 0.395 0 0.08 0.395 0 0.1 0.395 0 0 0.4 0 0.02 0.4 0 0.04 0.4 0 0.06 0.4 0 0.08 0.4 0 0.1 0.4 0 0 0.405 0 0.02 0.405 0 0.04 0.405 0 0.06 0.405 0 0.08 0.405 0 0.1 0.405 0 0 0.41 0 0.02 0.41 0 0.04 0.41 0 0.06 0.41 0 0.08 0.41 0 0.1 0.41 0 0 0.415 0 0.02 0.415 0 0.04 0.415 0 0.06 0.415 0 0.08 0.415 0 0.1 0.415 0 0 0.42 0 0.02 0.42 0 0.04 0.42 0 0.06 0.42 0 0.08 0.42 0 0.1 0.42 0 0 0.425 0 0.02 0.425 0 0.04 0.425 0 0.06 0.425 0 0.08 0.425 0 0.1 0.425 0 0 0.43 0 0.02 0.43 0 0.04 0.43 0 0.06 0.43 0 0.08 0.43 0 0.1 0.43 0 0 0.435 0 0.02 0.435 0 0.04 0.435 0 0.06 0.435 0 0.08 0.435 0 0.1 0.435 0 0 0.44 0 0.02 0.44 0 0.04 0.44 0 0.06 0.44 0 0.08 0.44 0 0.1 0.44 0 0 0.445 0 0.02 0.445 0 0.04 0.445 0 0.06 0.445 0 0.08 0.445 0 0.1 0.445 0 0 0.45 0 0.02 0.45 0 0.04 0.45 0 0.06 0.45 0 0.08 0.45 0 0.1 0.45 0 0 0.455 0 0.02 0.455 0 0.04 0.455 0 0.06 0.455 0 0.08 0.455 0 0.1 0.455 0 0 0.46 0 0.02 0.46 0 0.04 0.46 0 0.06 0.46 0 0.08 0.46 0 0.1 0.46 0 0 0.465 0 0.02 0.465 0 0.04 0.465 0 0.06 0.465 0 0.08 0.465 0 0.1 0.465 0 0 0.47 0 0.02 0.47 0 0.04 0.47 0 0.06 0.47 0 0.08 0.47 0 0.1 0.47 0 0 0.475 0 0.02 0.475 0 0.04 0.475 0 0.06 0.475 0 0.08 0.475 0 0.1 0.475 0 0 0.48 0 0.02 0.48 0 0.04 0.48 0 0.06 0.48 0 0.08 0.48 0 0.1 0.48 0 0 0.485 0 0.02 0.485 0 0.04 0.485 0 0.06 0.485 0 0.08 0.485 0 0.1 0.485 0 0 0.49 0 0.02 0.49 0 0.04 0.49 0 0.06 0.49 0 0.08 0.49 0 0.1 0.49 0 0 0.495 0 0.02 0.495 0 0.04 0.495 0 0.06 0.495 0 0.08 0.495 0 0.1 0.495 0 0 0.5 0 0.02 0.5 0 0.04 0.5 0 0.06 0.5 0 0.08 0.5 0 0.1 0.5 0 0 0.505 0 0.02 0.505 0 0.04 0.505 0 0.06 0.505 0 0.08 0.505 0 0.1 0.505 0 0 0.51 0 0.02 0.51 0 0.04 0.51 0 0.06 0.51 0 0.08 0.51 0 0.1 0.51 0 0 0.515 0 0.02 0.515 0 0.04 0.515 0 0.06 0.515 0 0.08 0.515 0 0.1 0.515 0 0 0.52 0 0.02 0.52 0 0.04 0.52 0 0.06 0.52 0 0.08 0.52 0 0.1 0.52 0 0 0.525 0 0.02 0.525 0 0.04 0.525 0 0.06 0.525 0 0.08 0.525 0 0.1 0.525 0 0 0.53 0 0.02 0.53 0 0.04 0.53 0 0.06 0.53 0 0.08 0.53 0 0.1 0.53 0 0 0.535 0 0.02 0.535 0 0.04 0.535 0 0.06 0.535 0 0.08 0.535 0 0.1 0.535 0 0 0.54 0 0.02 0.54 0 0.04 0.54 0 0.06 0.54 0 0.08 0.54 0 0.1 0.54 0 0 0.545 0 0.02 0.545 0 0.04 0.545 0 0.06 0.545 0 0.08 0.545 0 0.1 0.545 0 0 0.55 0 0.02 0.55 0 0.04 0.55 0 0.06 0.55 0 0.08 0.55 0 0.1 0.55 0 0 0.555 0 0.02 0.555 0 0.04 0.555 0 0.06 0.555 0 0.08 0.555 0 0.1 0.555 0 0 0.56 0 0.02 0.56 0 0.04 0.56 0 0.06 0.56 0 0.08 0.56 0 0.1 0.56 0 0 0.565 0 0.02 0.565 0 0.04 0.565 0 0.06 0.565 0 0.08 0.565 0 0.1 0.565 0 0 0.57 0 0.02 0.57 0 0.04 0.57 0 0.06 0.57 0 0.08 0.57 0 0.1 0.57 0 0 0.575 0 0.02 0.575 0 0.04 0.575 0 0.06 0.575 0 0.08 0.575 0 0.1 0.575 0 0 0.58 0 0.02 0.58 0 0.04 0.58 0 0.06 0.58 0 0.08 0.58 0 0.1 0.58 0 0 0.585 0 0.02 0.585 0 0.04 0.585 0 0.06 0.585 0 0.08 0.585 0 0.1 0.585 0 0 0.59 0 0.02 0.59 0 0.04 0.59 0 0.06 0.59 0 0.08 0.59 0 0.1 0.59 0 0 0.595 0 0.02 0.595 0 0.04 0.595 0 0.06 0.595 0 0.08 0.595 0 0.1 0.595 0 0 0.6 0 0.02 0.6 0 0.04 0.6 0 0.06 0.6 0 0.08 0.6 0 0.1 0.6 0 0 0.605 0 0.02 0.605 0 0.04 0.605 0 0.06 0.605 0 0.08 0.605 0 0.1 0.605 0 0 0.61 0 0.02 0.61 0 0.04 0.61 0 0.06 0.61 0 0.08 0.61 0 0.1 0.61 0 0 0.615 0 0.02 0.615 0 0.04 0.615 0 0.06 0.615 0 0.08 0.615 0 0.1 0.615 0 0 0.62 0 0.02 0.62 0 0.04 0.62 0 0.06 0.62 0 0.08 0.62 0 0.1 0.62 0 0 0.625 0 0.02 0.625 0 0.04 0.625 0 0.06 0.625 0 0.08 0.625 0 0.1 0.625 0 0 0.63 0 0.02 0.63 0 0.04 0.63 0 0.06 0.63 0 0.08 0.63 0 0.1 0.63 0 0 0.635 0 0.02 0.635 0 0.04 0.635 0 0.06 0.635 0 0.08 0.635 0 0.1 0.635 0 0 0.64 0 0.02 0.64 0 0.04 0.64 0 0.06 0.64 0 0.08 0.64 0 0.1 0.64 0 0 0.645 0 0.02 0.645 0 0.04 0.645 0 0.06 0.645 0 0.08 0.645 0 0.1 0.645 0 0 0.65 0 0.02 0.65 0 0.04 0.65 0 0.06 0.65 0 0.08 0.65 0 0.1 0.65 0 0 0.655 0 0.02 0.655 0 0.04 0.655 0 0.06 0.655 0 0.08 0.655 0 0.1 0.655 0 0 0.66 0 0.02 0.66 0 0.04 0.66 0 0.06 0.66 0 0.08 0.66 0 0.1 0.66 0 0 0.665 0 0.02 0.665 0 0.04 0.665 0 0.06 0.665 0 0.08 0.665 0 0.1 0.665 0 0 0.67 0 0.02 0.67 0 0.04 0.67 0 0.06 0.67 0 0.08 0.67 0 0.1 0.67 0 0 0.675 0 0.02 0.675 0 0.04 0.675 0 0.06 0.675 0 0.08 0.675 0 0.1 0.675 0 0 0.68 0 0.02 0.68 0 0.04 0.68 0 0.06 0.68 0 0.08 0.68 0 0.1 0.68 0 0 0.685 0 0.02 0.685 0 0.04 0.685 0 0.06 0.685 0 0.08 0.685 0 0.1 0.685 0 0 0.69 0 0.02 0.69 0 0.04 0.69 0 0.06 0.69 0 0.08 0.69 0 0.1 
[...]
			<PointData Scalars="VitesseX">
				<DataArray Name="VitesseX" type="Float32" format="ascii">
 0 1.47572e-14 5.86274e-14 3.27348e-14 2.75648e-14 0 0 2.02765e-14 4.66191e-14 4.15634e-14 2.11063e-14 0 0 2.3528e-14 3.42493e-14 4.99964e-14 1.00041e-14 0 0 2.46817e-14 3.64023e-14 3.29866e-14 1.39411e-14 0 0 4.17836e-14 2.25295e-14 2.46257e-14 1.08425e-14 0 0 4.80988e-14 9.49616e-15 2.9631e-14 -6.0239e-15 0 0 1.75633e-14 4.19152e-14 -5.50327e-15 1.09619e-14 0 0 9.06448e-15 4.93246e-14 -1.6106e-14 2.23833e-14 0 0 2.34996e-14 3.5241e-14 -8.66279e-15 2.69911e-14 0 0 3.73413e-14 2.8069e-14 -6.89849e-17 2.35464e-14 0 0 2.77552e-14 4.87897e-14 -5.45075e-15 2.35354e-14 0 0 1.587e-14 5.61744e-14 1.61916e-14 -1.8166e-15 0 0 -1.14712e-14 8.60208e-14 1.56795e-14 -1.17217e-14 0 0 -7.62106e-15 5.85103e-14 5.33873e-14 -2.29024e-14 0 0 1.3878e-14 1.45186e-14 9.06028e-14 -2.79715e-14 0 0 -2.03466e-14 7.39734e-14 1.10927e-14 4.46274e-14 0 0 1.65874e-14 1.62275e-14 6.45647e-14 2.50114e-14 0 0 4.36688e-14 -1.29238e-15 6.58195e-14 3.93831e-14 0 0 5.4912e-14 6.56227e-15 4.67219e-14 8.22195e-14 0 0 3.98203e-14 3.69458e-14 4.36699e-14 8.82411e-14 0 0 -3.64536e-15 1.06007e-13 2.40449e-15 9.95334e-14 0 0 1.76957e-14 8.16438e-14 3.57069e-14 7.69219e-14 0 0 8.07034e-14 -2.74367e-17 1.22961e-13 1.35085e-14 0 0 1.1555e-13 -3.56147e-14 1.75152e-13 -3.14234e-14 0 0 2.52251e-14 1.23257e-13 3.77213e-14 4.68942e-14 0 0 -4.91602e-14 2.5103e-13 -7.39568e-14 1.06961e-13 0 0 3.41632e-14 1.21309e-13 5.16261e-14 -1.05188e-15 0 0 1.27411e-13 -1.84035e-14 1.56088e-13 -8.46702e-14 0 0 1.01298e-13 4.00175e-14 1.07362e-13 -9.35409e-14 0 0 3.37906e-14 1.37235e-13 4.84881e-14 -8.61647e-14 0 0 4.54689e-14 1.10581e-13 5.95325e-14 -7.69727e-14 0 0 8.17708e-14 5.57765e-14 7.20677e-14 -6.48595e-14 0 0 4.15831e-14 1.04777e-13 1.41545e-14 -8.10958e-15 0 0 5.14316e-14 7.72161e-14 2.18133e-14 2.72887e-14 0 0 4.84678e-14 7.24138e-14 1.97519e-14 6.59958e-14 0 0 7.41339e-15 1.16992e-13 3.88541e-14 3.93653e-14 0 0 1.7448e-14 1.04804e-13 3.1815e-14 9.1378e-14 0 0 5.27875e-14 6.03027e-14 4.39129e-14 1.23511e-13 0 0 7.46726e-14 4.55899e-14 7.12642e-14 6.33957e-14 0 0 6.63749e-14 1.0641e-13 -2.01287e-14 1.05582e-13 0 0 1.15429e-13 6.39593e-14 1.49449e-15 8.85916e-14 0 0 1.28941e-13 5.61647e-14 2.14035e-14 5.88132e-14 0 0 1.57004e-13 2.45787e-15 4.72316e-14 6.54968e-14 0 0 9.0875e-14 6.82803e-14 -1.66829e-16 9.95805e-14 0 0 1.34331e-14 1.37357e-13 4.34481e-14 3.98491e-14 0 0 7.46589e-14 1.4366e-14 2.01779e-13 -4.62351e-14 0 0 9.25561e-14 2.9539e-15 1.11253e-13 1.06786e-13 0 0 1.12297e-13 -1.98471e-14 5.64737e-14 2.14286e-13 0 0 8.13729e-14 -2.22074e-14 1.39924e-13 1.17953e-13 0 0 -2.97375e-14 9.7391e-14 1.1771e-13 9.5834e-14 0 0 -1.00109e-13 2.0959e-13 5.31333e-14 1.37479e-13 0 0 -5.48169e-14 1.7593e-13 3.82229e-14 1.80071e-13 0 0 1.14494e-13 -9.40715e-14 2.57881e-13 8.93743e-14 0 0 9.57717e-14 -1.43441e-13 3.48164e-13 3.20394e-14 0 0 -1.05442e-13 1.3841e-13 8.49585e-14 1.79498e-13 0 0 -1.31373e-13 2.42529e-13 -8.0568e-14 3.16848e-13 0 0 -5.24658e-14 1.27741e-13 5.33604e-14 2.3017e-13 0 0 -4.73185e-14 1.18362e-13 1.44297e-13 1.0278e-13 0 0 -7.75083e-14 2.32218e-13 2.85507e-16 1.88041e-13 0 0 -2.97246e-14 1.7006e-13 7.387e-14 1.4415e-13 0 0 1.40105e-14 1.15187e-13 1.96458e-13 -1.34566e-14 0 0 -5.25327e-16 1.6515e-13 2.16437e-13 -1.33423e-13 0 0 7.15079e-16 2.411e-13 1.17381e-13 -1.3198e-13 0 0 6.1046e-14 2.70409e-13 -3.14182e-14 -1.23607e-14 0 0 1.55669e-13 1.69613e-13 -1.2624e-14 3.94166e-14 0 0 2.12663e-13 1.06457e-13 6.41644e-15 5.72284e-14 0 0 1.20216e-13 2.00818e-13 -3.19203e-14 1.05017e-13 0 0 4.86684e-14 2.40488e-13 -7.34834e-15 1.53713e-13 0 0 -4.69998e-14 3.73734e-13 -1.57835e-13 3.02354e-13 0 0 3.1869e-14 2.83903e-13 -8.53692e-14 2.62872e-13 0 0 2.83452e-13 1.0517e-14 2.38836e-13 3.9032e-14 0 0 1.48614e-13 2.21181e-13 1.44909e-13 8.10086e-14 0 0 -1.10968e-13 4.98818e-13 -8.01073e-14 2.30543e-13 0 0 -2.33835e-13 5.90319e-13 -1.4423e-13 3.41394e-13 0 0 -6.83976e-14 2.32092e-13 2.54596e-13 1.98909e-13 0 0 1.70929e-13 -1.22696e-13 5.79496e-13 1.08778e-13 0 0 -5.05708e-14 3.35417e-13 7.40176e-14 5.02185e-13 0 0 -2.9137e-13 6.54455e-13 -1.68934e-13 5.47556e-13 0 0 -1.55452e-13 4.03607e-13 1.8625e-13 1.71099e-13 0 0 1.75333e-13 8.12241e-14 4.10771e-13 7.05306e-14 0 0 -1.74551e-14 3.69159e-13 1.05414e-13 3.86753e-13 0 0 -2.37818e-13 4.70768e-13 3.46333e-13 1.99949e-13 0 0 1.40553e-13 -2.26013e-14 1.10188e-12 -3.7643e-13 0 0 1.31128e-13 4.3675e-13 6.85998e-13 -2.89907e-13 0 0 -3.37256e-14 1.29164e-12 -4.26e-13 3.17011e-13 0 0 3.06598e-13 1.01209e-12 -5.16062e-13 6.03669e-13 0 0 9.89899e-13 1.14352e-13 3.74369e-13 2.62865e-14 0 0 8.51232e-13 1.37553e-13 7.85468e-13 -5.0832e-13 0 0 4.73764e-13 4.77269e-13 5.31657e-13 -2.8305e-13 0 0 2.41299e-13 7.82775e-13 2.38131e-13 -5.18437e-15 0 0 6.19853e-14 1.01701e-12 5.33735e-14 1.60508e-13 0 0 9.83767e-14 9.64913e-13 1.12527e-13 1.29695e-13 0 0 2.13308e-13 7.27331e-13 3.1608e-13 6.04969e-14 0 0 5.70122e-13 2.19908e-13 4.96709e-13 6.46964e-14 0 0 8.64064e-13 -5.24149e-14 4.9564e-13 2.11597e-13 0 0 8.32205e-13 8.99014e-15 3.27453e-13 4.05596e-13 0 0 6.67241e-13 2.45945e-13 6.8163e-14 4.44283e-13 0 0 4.42978e-13 4.92504e-13 -6.13792e-14 4.03732e-13 0 0 2.68265e-13 5.93675e-13 -7.21356e-14 3.03431e-13 0 0 2.65498e-13 5.69946e-13 -2.1176e-14 2.09688e-13 0 0 3.29578e-13 4.17187e-13 1.66262e-13 1.26565e-13 0 0 3.91472e-13 2.08519e-13 3.70255e-13 8.37533e-14 0 0 3.69219e-13 3.38744e-14 4.50634e-13 6.39403e-14 0 0 2.44934e-13 -6.87876e-15 4.44589e-13 5.11206e-14 0 0 6.8459e-14 3.23988e-14 4.06232e-13 3.69139e-14 0 0 -9.80183e-14 1.35172e-13 3.81756e-13 1.75396e-14 0 0 -1.6203e-13 1.50417e-13 3.85492e-13 -3.34151e-14 0 0 -1.3695e-13 9.16694e-14 4.63266e-13 -1.03806e-13 0 0 -1.72224e-14 -4.96458e-14 5.02425e-13 -8.00957e-14 0 0 1.09917e-13 -7.33262e-14 5.05033e-13 -2.23295e-14 0 0 1.53749e-13 -6.1411e-14 4.30842e-13 9.57287e-14 0 0 1.34267e-13 6.87384e-14 2.59652e-13 2.38786e-13 0 0 7.31939e-14 2.4095e-13 9.14473e-14 3.89981e-13 0 0 9.49829e-14 2.32359e-13 5.97334e-14 5.10463e-13 0 0 1.10544e-13 1.49917e-13 1.34848e-13 4.92401e-13 0 0 9.23109e-14 9.13448e-14 2.72986e-13 3.80475e-13 0 0 6.6634e-14 9.53701e-14 3.69656e-13 2.49554e-13 0 0 1.0007e-13 3.17584e-14 4.48986e-13 2.40389e-13 0 0 1.51132e-13 -1.02387e-14 4.22703e-13 2.82493e-13 0 0 1.46762e-13 8.54866e-14 2.65466e-13 3.25439e-13 0 0 1.29183e-13 1.87298e-13 1.92241e-13 2.94152e-13 0 0 1.13243e-13 2.71828e-13 1.59913e-13 2.73837e-13 0 0 1.25293e-13 3.26829e-13 6.2931e-14 2.91422e-13 0 0 1.63335e-13 3.08814e-13 4.84248e-14 2.0345e-13 0 0 1.50069e-13 2.88559e-13 1.26816e-13 2.28926e-14 0 0 1.39794e-13 2.75952e-13 1.26769e-13 4.22441e-14 0 0 1.31441e-13 2.75896e-13 2.78064e-14 1.68137e-13 0 0 7.32044e-14 2.82501e-13 8.40286e-14 1.04399e-13 0 0 6.18987e-14 2.2132e-13 2.77511e-13 -2.51739e-14 0 0 7.28736e-14 2.38134e-13 2.42107e-13 1.13511e-13 0 0 1.15254e-13 1.8635e-13 3.04762e-13 2.18649e-13 0 0 1.71893e-13 1.93182e-13 3.98826e-13 1.46377e-13 0 0 9.31236e-14 3.92839e-13 2.84512e-13 1.92633e-13 0 0 1.41728e-13 3.23e-13 4.60372e-13 1.80818e-13 0 0 1.72e-13 3.44928e-13 4.24174e-13 2.46392e-13 0 0 2.38783e-13 3.57047e-13 4.1014e-13 1.68761e-13 0 0 2.74774e-13 3.85613e-13 4.02901e-13 1.52685e-13 0 0 2.23365e-13 5.50046e-13 2.04151e-13 2.80568e-13 0 0 4.09431e-13 3.1115e-13 3.93351e-13 2.37672e-13 0 0 4.51045e-13 3.22833e-13 3.88896e-13 2.26688e-13 0 0 3.89809e-13 4.56307e-13 3.37646e-13 1.62772e-13 0 0 4.76736e-13 3.06553e-13 5.39528e-13 3.92098e-14 0 0 2.96285e-13 6.269e-13 1.98718e-13 2.57323e-13 0 0 2.54617e-13 7.16311e-13 8.89534e-14 2.76507e-13 0 0 4.77263e-13 3.89221e-13 3.7685e-13 9.40618e-14 0 0 3.4285e-13 6.46599e-13 5.15353e-14 3.15004e-13 0 0 4.04084e-13 5.65057e-13 7.41096e-14 2.99762e-13 0 0 4.24307e-13 5.13204e-13 5.86408e-14 3.81987e-13 0 0 3.55883e-13 5.72104e-13 -5.19068e-14 4.74722e-13 0 0 5.18911e-13 2.34383e-13 2.86121e-13 2.77601e-13 0 0 2.19746e-13 6.62549e-13 -1.18694e-13 5.39565e-13 0 0 2.66891e-13 5.41755e-13 5.04036e-14 3.83425e-13 0 0 3.84841e-13 3.7309e-13 3.05964e-13 1.19991e-13 0 0 4.37353e-13 3.79295e-13 3.4689e-13 -2.04188e-17 0 0 5.91478e-13 2.29423e-13 4.19685e-13 -8.77655e-15 0 0 5.23519e-13 3.87615e-13 2.46057e-13 2.46681e-13 0 0 5.28535e-13 3.14485e-13 4.94151e-13 1.7018e-13 0 0 3.31632e-13 5.43883e-13 4.64733e-13 1.92564e-13 0 0 2.52394e-13 6.31365e-13 4.29626e-13 3.06567e-13 0 0 3.1874e-13 6.05697e-13 3.65895e-13 5.63354e-13 0 0 3.63583e-13 4.3537e-13 6.12762e-13 4.85212e-13 0 0 3.39067e-13 3.85916e-13 7.94201e-13 1.84452e-13 0 0 3.69994e-13 5.2996e-13 6.08254e-13 8.7198e-14 0 0 4.80784e-13 4.51313e-13 5.79991e-13 1.5644e-13 0 0 2.77117e-13 6.7779e-13 3.1658e-13 3.93528e-13 0 0 -1.70827e-14 8.79809e-13 2.74291e-13 2.91641e-13 0 0 2.03577e-13 3.88028e-13 7.75668e-13 -6.85653e-14 0 0 4.44035e-13 1.51024e-13 7.93133e-13 2.30433e-16 0 0 6.68994e-13 -4.152e-14 8.56386e-13 1.06499e-14 0 0 4.49114e-13 1.47059e-13 8.56336e-13 6.72604e-14 0 0 8.3811e-14 5.37492e-13 5.38197e-13 4.06599e-13 0 0 2.08697e-13 3.78002e-13 5.07175e-13 5.62614e-13 0 0 3.93327e-14 6.5797e-13 2.1671e-13 7.40259e-13 0 0 3.59438e-13 2.69435e-13 5.02423e-13 5.95305e-13 0 0 3.89145e-13 2.07861e-13 6.60805e-13 4.35005e-13 0 0 1.3496e-13 3.98123e-13 7.13977e-13 2.47469e-13 0 0 1.69844e-13 3.02091e-13 7.6822e-13 2.1368e-13 0 0 -9.36177e-14 8.1836e-13 1.61428e-13 5.02919e-13 0 0 2.84836e-13 2.37786e-13 7.1206e-13 1.23798e-14 0 0 4.20985e-13 -1.10311e-13 9.96225e-13 -1.12545e-13 0 0 2.09981e-13 2.22106e-13 5.06444e-13 2.84804e-13 0 0 4.74988e-13 -8.53031e-14 7.51139e-13 5.58081e-14 0 0 2.69938e-13 3.50324e-13 1.6253e-13 4.00867e-13 0 0 3.76401e-13 1.57046e-13 3.19978e-13 3.53321e-13 0 0 5.18263e-13 1.91283e-14 5.99498e-13 9.32367e-14 0 0 4.10998e-13 5.20659e-13 -1.22916e-15 4.47949e-13 0 0 5.75528e-13 5.07123e-13 -1.26193e-13 6.42128e-13 0 0 4.28135e-13 6.78697e-13 -2.10485e-13 7.07449e-13 0 0 5.09963e-13 2.43358e-13 3.39151e-13 4.65549e-13 0 0 4.75915e-13 2.38616e-13 2.98039e-13 6.09297e-13 0 0 5.26509e-13 4.9686e-13 -1.16204e-13 7.73414e-13 0 0 9.00876e-13 1.62697e-13 2.6255e-13 3.76323e-13 0 0 4.99987e-13 7.3416e-13 -1.89716e-13 6.35647e-13 0 0 3.13122e-13 9.57597e-13 -4.40071e-13 8.98558e-13 0 0 6.85429e-13 4.03484e-13 5.13934e-14 6.1639e-13 0 0 7.98875e-13 3.58061e-13 -9.30567e-14 6.94186e-13 0 0 8.90787e-13 1.52802e-13 -7.43872e-15 7.46706e-13 0 0 5.50329e-13 5.30626e-13 -1.50546e-13 7.41956e-13 0 0 4.84894e-13 6.1624e-13 -8.27483e-14 6.10312e-13 0 0 8.41788e-13 1.12124e-13 3.38988e-14 6.38118e-13 0 0 8.75798e-13 1.23581e-13 -2.74802e-13 8.44886e-13 0
				</DataArray>
				<DataArray Name="VitesseY" type="Float32" format="ascii">