<?xml version="1.0"?>
<VTKFile type="PolyData">
	<PolyData>
		<Piece NumberOfPoints="1206" NumberOfPolys="1000">
			<Points>
				<DataArray type="Float32" NumberOfComponents="3" format="ascii">
 0 0 0 0.02 0 0 0.04 0 0 0.06 0 0 0.08 0 0 0.1 0 0 0 0.005 0 0.02 0.005 0 0.04 0.005 0 0.06 0.005 0 0.08 0.005 0 0.1 0.005 0 0 0.01 0 0.02 0.01 0 0.04 0.01 0 0.06 0.01 0 0.08 0.01 0 0.1 0.01 0 0 0.015 0 0.02 0.015 0 0.04 0.015 0 0.06 0.015 0 0.08 0.015 0 0.1 0.015 0 0 0.02 0 0.02 0.02 0 0.04 0.02 0 0.06 0.02 0 0.08 0.02 0 0.1 0.02 0 0 0.025 0 0.02 0.025 0 0.04 0.025 0 0.06 0.025 0 0.08 0.025 0 0.1 0.025 0 0 0.03 0 0.02 0.03 0 0.04 0.03 0 0.06 0.03 0 0.08 0.03 0 0.1 0.03 0 0 0.035 0 0.02 0.035 0 0.04 0.035 0 0.06 0.035 0 0.08 0.035 0 0.1 0.035 0 0 0.04 0 0.02 0.04 0 0.04 0.04 0 0.06 0.04 0 0.08 0.04 0 0.1 0.04 0 0 0.045 0 0.02 0.045 0 0.04 0.045 0 0.06 0.045 0 0.08 0.045 0 0.1 0.045 0 0 0.05 0 0.02 0.05 0 0.04 0.05 0 0.06 0.05 0 0.08 0.05 0 0.1 0.05 0 0 0.055 0 0.02 0.055 0 0.04 0.055 0 0.06 0.055 0 0.08 0.055 0 0.1 0.055 0 0 0.06 0 0.02 0.06 0 0.04 0.06 0 0.06 0.06 0 0.08 0.06 0 0.1 0.06 0 0 0.065 0 0.02 0.065 0 0.04 0.065 0 0.06 0.065 0 0.08 0.065 0 0.1 0.065 0 0 0.07 0 0.02 0.07 0 0.04 0.07 0 0.06 0.07 0 0.08 0.07 0 0.1 0.07 0 0 0.075 0 0.02 0.075 0 0.04 0.075 0 0.06 0.075 0 0.08 0.075 0 0.1 0.075 0 0 0.08 0 0.02 0.08 0 0.04 0.08 0 0.06 0.08 0 0.08 0.08 0 0.1 0.08 0 0 0.085 0 0.02 0.085 0 0.04 0.085 0 0.06 0.085 0 0.08 0.085 0 0.1 0.085 0 0 0.09 0 0.02 0.09 0 0.04 0.09 0 0.06 0.09 0 0.08 0.09 0 0.1 0.09 0 0 0.095 0 0.02 0.095 0 0.04 0.095 0 0.06 0.095 0 0.08 0.095 0 0.1 0.095 0 0 0.1 0 0.02 0.1 0 0.04 0.1 0 0.06 0.1 0 0.08 0.1 0 0.1 0.1 0 0 0.105 0 0.02 0.105 0 0.04 0.105 0 0.06 0.105 0 0.08 0.105 0 0.1 0.105 0 0 0.11 0 0.02 0.11 0 0.04 0.11 0 0.06 0.11 0 0.08 0.11 0 0.1 0.11 0 0 0.115 0 0.02 0.115 0 0.04 0.115 0 0.06 0.115 0 0.08 0.115 0 0.1 0.115 0 0 0.12 0 0.02 0.12 0 0.04 0.12 0 0.06 0.12 0 0.08 0.12 0 0.1 0.12 0 0 0.125 0 0.02 0.125 0 0.04 0.125 0 0.06 0.125 0 0.08 0.125 0 0.1 0.125 0 0 0.13 0 0.02 0.13 0 0.04 0.13 0 0.06 0.13 0 0.08 0.13 0 0.1 0.13 0 0 0.135 0 0.02 0.135 0 0.04 0.135 0 0.06 0.135 0 0.08 0.135 0 0.1 0.135 0 0 0.14 0 0.02 0.14 0 0.04 0.14 0 0.06 0.14 0 0.08 0.14 0 0.1 0.14 0 0 0.145 0 0.02 0.145 0 0.04 0.145 0 0.06 0.145 0 0.08 0.145 0 0.1 0.145 0 0 0.15 0 0.02 0.15 0 0.04 0.15 0 0.06 0.15 0 0.08 0.15 0 0.1 0.15 0 0 0.155 0 0.02 0.155 0 0.04 0.155 0 0.06 0.155 0 0.08 0.155 0 0.1 0.155 0 0 0.16 0 0.02 0.16 0 0.04 0.16 0 0.06 0.16 0 0.08 0.16 0 0.1 0.16 0 0 0.165 0 0.02 0.165 0 0.04 0.165 0 0.06 0.165 0 0.08 0.165 0 0.1 0.165 0 0 0.17 0 0.02 0.17 0 0.04 0.17 0 0.06 0.17 0 0.08 0.17 0 0.1 0.17 0 0 0.175 0 0.02 0.175 0 0.04 0.175 0 0.06 0.175 0 0.08 0.175 0 0.1 0.175 0 0 0.18 0 0.02 0.18 0 0.04 0.18 0 0.06 0.18 0 0.08 0.18 0 0.1 0.18 0 0 0.185 0 0.02 0.185 0 0.04 0.185 0 0.06 0.185 0 0.08 0.185 0 0.1 0.185 0 0 0.19 0 0.02 0.19 0 0.04 0.19 0 0.06 0.19 0 0.08 0.19 0 0.1 0.19 0 0 0.195 0 0.02 0.195 0 0.04 0.195 0 0.06 0.195 0 0.08 0.195 0 0.1 0.195 0 0 0.2 0 0.02 0.2 0 0.04 0.2 0 0.06 0.2 0 0.08 0.2 0 0.1 0.2 0 0 0.205 0 0.02 0.205 0 0.04 0.205 0 0.06 0.205 0 0.08 0.205 0 0.1 0.205 0 0 0.21 0 0.02 0.21 0 0.04 0.21 0 0.06 0.21 0 0.08 0.21 0 0.1 0.21 0 0 0.215 0 0.02 0.215 0 0.04 0.215 0 0.06 0.215 0 0.08 0.215 0 0.1 0.215 0 0 0.22 0 0.02 0.22 0 0.04 0.22 0 0.06 0.22 0 0.08 0.22 0 0.1 0.22 0 0 0.225 0 0.02 0.225 0 0.04 0.225 0 0.06 0.225 0 0.08 0.225 0 0.1 0.225 0 0 0.23 0 0.02 0.23 0 0.04 0.23 0 0.06 0.23 0 0.08 0.23 0 0.1 0.23 0 0 0.235 0 0.02 0.235 0 0.04 0.235 0 0.06 0.235 0 0.08 0.235 0 0.1 0.235 0 0 0.24 0 0.02 0.24 0 0.04 0.24 0 0.06 0.24 0 0.08 0.24 0 0.1 0.24 0 0 0.245 0 0.02 0.245 0 0.04 0.245 0 0.06 0.245 0 0.08 0.245 0 0.1 0.245 0 0 0.25 0 0.02 0.25 0 0.04 0.25 0 0.06 0.25 0 0.08 0.25 0 0.1 0.25 0 0 0.255 0 0.02 0.255 0 0.04 0.255 0 0.06 0.255 0 0.08 0.255 0 0.1 0.255 0 0 0.26 0 0.02 0.26 0 0.04 0.26 0 0.06 0.26 0 0.08 0.26 0 0.1 0.26 0 0 0.265 0 0.02 0.265 0 0.04 0.265 0 0.06 0.265 0 0.08 0.265 0 0.1 0.265 0 0 0.27 0 0.02 0.27 0 0.04 0.27 0 0.06 0.27 0 0.08 0.27 0 0.1 0.27 0 0 0.275 0 0.02 0.275 0 0.04 0.275 0 0.06 0.275 0 0.08 0.275 0 0.1 0.275 0 0 0.28 0 0.02 0.28 0 0.04 0.28 0 0.06 0.28 0 0.08 0.28 0 0.1 0.28 0 0 0.285 0 0.02 0.285 0 0.04 0.285 0 0.06 0.285 0 0.08 0.285 0 0.1 0.285 0 0 0.29 0 0.02 0.29 0 0.04 0.29 0 0.06 0.29 0 0.08 0.29 0 0.1 0.29 0 0 0.295 0 0.02 0.295 0 0.04 0.295 0 0.06 0.295 0 0.08 0.295 0 0.1 0.295 0 0 0.3 0 0.02 0.3 0 0.04 0.3 0 0.06 0.3 0 0.08 0.3 0 0.1 0.3 0 0 0.305 0 0.02 0.305 0 0.04 0.305 0 0.06 0.305 0 0.08 0.305 0 0.1 0.305 0 0 0.31 0 0.02 0.31 0 0.04 0.31 0 0.06 0.31 0 0.08 0.31 0 0.1 0.31 0 0 0.315 0 0.02 0.315 0 0.04 0.315 0 0.06 0.315 0 0.08 0.315 0 0.1 0.315 0 0 0.32 0 0.02 0.32 0 0.04 0.32 0 0.06 0.32 0 0.08 0.32 0 0.1 0.32 0 0 0.325 0 0.02 0.325 0 0.04 0.325 0 0.06 0.325 0 0.08 0.325 0 0.1 0.325 0 0 0.33 0 0.02 0.33 0 0.04 0.33 0 0.06 0.33 0 0.08 0.33 0 0.1 0.33 0 0 0.335 0 0.02 0.335 0 0.04 0.335 0 0.06 0.335 0 0.08 0.335 0 0.1 0.335 0 0 0.34 0 0.02 0.34 0 0.04 0.34 0 0.06 0.34 0 0.08 0.34 0 0.1 0.34 0 0 0.345 0 0.02 0.345 0 0.04 0.345 0 0.06 0.345 0 0.08 0.345 0 0.1 0.345 0 0 0.35 0 0.02 0.35 0 0.04 0.35 0 0.06 0.35 0 0.08 0.35 0 0.1 0.35 0 0 0.355 0 0.02 0.355 0 0.04 0.355 0 0.06 0.355 0 0.08 0.355 0 0.1 0.355 0 0 0.36 0 0.02 0.36 0 0.04 0.36 0 0.06 0.36 0 0.08 0.36 0 0.1 0.36 0 0 0.365 0 0.02 0.365 0 0.04 0.365 0 0.06 0.365 0 0.08 0.365 0 0.1 0.365 0 0 0.37 0 0.02 0.37 0 0.04 0.37 0 0.06 0.37 0 0.08 0.37 0 0.1 0.37 0 0 0.375 0 0.02 0.375 0 0.04 0.375 0 0.06 0.375 0 0.08 0.375 0 0.1 0.375 0 0 0.38 0 0.02 0.38 0 0.04 0.38 0 0.06 0.38 0 0.08 0.38 0 0.1 0.38 0 0 0.385 0 0.02 0.385 0 0.04 0.385 0 0.06 0.385 0 0.08 0.385 0 0.1 0.385 0 0 0.39 0 0.02 0.39 0 0.04 0.39 0 0.06 0.39 0 0.08 0.39 0 0.1 0.39 0 0 0.395 0 0.02 0.395 0 0.04 0.395 0 0.06 0.395 0 0.08 0.395 0 0.1 0.395 0 0 0.4 0 0.02 0.4 0 0.04 0.4 0 0.06 0.4 0 0.08 0.4 0 0.1 0.4 0 0 0.405 0 0.02 0.405 0 0.04 0.405 0 0.06 0.405 0 0.08 0.405 0 0.1 0.405 0 0 0.41 0 0.02 0.41 0 0.04 0.41 0 0.06 0.41 0 0.08 0.41 0 0.1 0.41 0 0 0.415 0 0.02 0.415 0 0.04 0.415 0 0.06 0.415 0 0.08 0.415 0 0.1 0.415 0 0 0.42 0 0.02 0.42 0 0.04 0.42 0 0.06 0.42 0 0.08 0.42 0 0.1 0.42 0 0 0.425 0 0.02 0.425 0 0.04 0.425 0 0.06 0.425 0 0.08 0.425 0 0.1 0.425 0 0 0.43 0 0.02 0.43 0 0.04 0.43 0 0.06 0.43 0 0.08 0.43 0 0.1 0.43 0 0 0.435 0 0.02 0.435 0 0.04 0.435 0 0.06 0.435 0 0.08 0.435 0 0.1 0.435 0 0 0.44 0 0.02 0.44 0 0.04 0.44 0 0.06 0.44 0 0.08 0.44 0 0.1 0.44 0 0 0.445 0 0.02 0.445 0 0.04 0.445 0 0.06 0.445 0 0.08 0.445 0 0.1 0.445 0 0 0.45 0 0.02 0.45 0 0.04 0.45 0 0.06 0.45 0 0.08 0.45 0 0.1 0.45 0 0 0.455 0 0.02 0.455 0 0.04 0.455 0 0.06 0.455 0 0.08 0.455 0 0.1 0.455 0 0 0.46 0 0.02 0.46 0 0.04 0.46 0 0.06 0.46 0 0.08 0.46 0 0.1 0.46 0 0 0.465 0 0.02 0.465 0 0.04 0.465 0 0.06 0.465 0 0.08 0.465 0 0.1 0.465 0 0 0.47 0 0.02 0.47 0 0.04 0.47 0 0.06 0.47 0 0.08 0.47 0 0.1 0.47 0 0 0.475 0 0.02 0.475 0 0.04 0.475 0 0.06 0.475 0 0.08 0.475 0 0.1 0.475 0 0 0.48 0 0.02 0.48 0 0.04 0.48 0 0.06 0.48 0 0.08 0.48 0 0.1 0.48 0 0 0.485 0 0.02 0.485 0 0.04 0.485 0 0.06 0.485 0 0.08 0.485 0 0.1 0.485 0 0 0.49 0 0.02 0.49 0 0.04 0.49 0 0.06 0.49 0 0.08 0.49 0 0.1 0.49 0 0 0.495 0 0.02 0.495 0 0.04 0.495 0 0.06 0.495 0 0.08 0.495 0 0.1 0.495 0 0 0.5 0 0.02 0.5 0 0.04 0.5 0 0.06 0.5 0 0.08 0.5 0 0.1 0.5 0 0 0.505 0 0.02 0.505 0 0.04 0.505 0 0.06 0.505 0 0.08 0.505 0 0.1 0.505 0 0 0.51 0 0.02 0.51 0 0.04 0.51 0 0.06 0.51 0 0.08 0.51 0 0.1 0.51 0 0 0.515 0 0.02 0.515 0 0.04 0.515 0 0.06 0.515 0 0.08 0.515 0 0.1 0.515 0 0 0.52 0 0.02 0.52 0 0.04 0.52 0 0.06 0.52 0 0.08 0.52 0 0.1 0.52 0 0 0.525 0 0.02 0.525 0 0.04 0.525 0 0.06 0.525 0 0.08 0.525 0 0.1 0.525 0 0 0.53 0 0.02 0.53 0 0.04 0.53 0 0.06 0.53 0 0.08 0.53 0 0.1 0.53 0 0 0.535 0 0.02 0.535 0 0.04 0.535 0 0.06 0.535 0 0.08 0.535 0 0.1 0.535 0 0 0.54 0 0.02 0.54 0 0.04 0.54 0 0.06 0.54 0 0.08 0.54 0 0.1 0.54 0 0 0.545 0 0.02 0.545 0 0.04 0.545 0 0.06 0.545 0 0.08 0.545 0 0.1 0.545 0 0 0.55 0 0.02 0.55 0 0.04 0.55 0 0.06 0.55 0 0.08 0.55 0 0.1 0.55 0 0 0.555 0 0.02 0.555 0 0.04 0.555 0 0.06 0.555 0 0.08 0.555 0 0.1 0.555 0 0 0.56 0 0.02 0.56 0 0.04 0.56 0 0.06 0.56 0 0.08 0.56 0 0.1 0.56 0 0 0.565 0 0.02 0.565 0 0.04 0.565 0 0.06 0.565 0 0.08 0.565 0 0.1 0.565 0 0 0.57 0 0.02 0.57 0 0.04 0.57 0 0.06 0.57 0 0.08 0.57 0 0.1 0.57 0 0 0.575 0 0.02 0.575 0 0.04 0.575 0 0.06 0.575 0 0.08 0.575 0 0.1 0.575 0 0 0.58 0 0.02 0.58 0 0.04 0.58 0 0.06 0.58 0 0.08 0.58 0 0.1 0.58 0 0 0.585 0 0.02 0.585 0 0.04 0.585 0 0.06 0.585 0 0.08 0.585 0 0.1 0.585 0 0 0.59 0 0.02 0.59 0 0.04 0.59 0 0.06 0.59 0 0.08 0.59 0 0.1 0.59 0 0 0.595 0 0.02 0.595 0 0.04 0.595 0 0.06 0.595 0 0.08 0.595 0 0.1 0.595 0 0 0.6 0 0.02 0.6 0 0.04 0.6 0 0.06 0.6 0 0.08 0.6 0 0.1 0.6 0 0 0.605 0 0.02 0.605 0 0.04 0.605 0 0.06 0.605 0 0.08 0.605 0 0.1 0.605 0 0 0.61 0 0.02 0.61 0 0.04 0.61 0 0.06 0.61 0 0.08 0.61 0 0.1 0.61 0 0 0.615 0 0.02 0.615 0 0.04 0.615 0 0.06 0.615 0 0.08 0.615 0 0.1 0.615 0 0 0.62 0 0.02 0.62 0 0.04 0.62 0 0.06 0.62 0 0.08 0.62 0 0.1 0.62 0 0 0.625 0 0.02 0.625 0 0.04 0.625 0 0.06 0.625 0 0.08 0.625 0 0.1 0.625 0 0 0.63 0 0.02 0.63 0 0.04 0.63 0 0.06 0.63 0 0.08 0.63 0 0.1 0.63 0 0 0.635 0 0.02 0.635 0 0.04 0.635 0 0.06 0.635 0 0.08 0.635 0 0.1 0.635 0 0 0.64 0 0.02 0.64 0 0.04 0.64 0 0.06 0.64 0 0.08 0.64 0 0.1 0.64 0 0 0.645 0 0.02 0.645 0 0.04 0.645 0 0.06 0.645 0 0.08 0.645 0 0.1 0.645 0 0 0.65 0 0.02 0.65 0 0.04 0.65 0 0.06 0.65 0 0.08 0.65 0 0.1 0.65 0 0 0.655 0 0.02 0.655 0 0.04 0.655 0 0.06 0.655 0 0.08 0.655 0 0.1 0.655 0 0 0.66 0 0.02 0.66 0 0.04 0.66 0 0.06 0.66 0 0.08 0.66 0 0.1 0.66 0 0 0.665 0 0.02 0.665 0 0.04 0.665 0 0.06 0.665 0 0.08 0.665 0 0.1 0.665 0 0 0.67 0 0.02 0.67 0 0.04 0.67 0 0.06 0.67 0 0.08 0.67 0 0.1 0.67 0 0 0.675 0 0.02 0.675 0 0.04 0.675 0 0.06 0.675 0 0.08 0.675 0 0.1 0.675 0 0 0.68 0 0.02 0.68 0 0.04 0.68 0 0.06 0.68 0 0.08 0.68 0 0.1 0.68 0 0 0.685 0 0.02 0.685 0 0.04 0.685 0 0.06 0.685 0 0.08 0.685 0 0.1 0.685 0 0 0.69 0 0.02 0.69 0 0.04 0.69 0 0.06 0.69 0 0.08 0.69 0 0.1 
[...]
			<PointData Scalars="VitesseX">
				<DataArray Name="VitesseX" type="Float32" format="ascii">
 0 2.74823e-14 1.60426e-14 3.75199e-14 1.59941e-15 0 0 2.12404e-14 2.35217e-14 2.92306e-14 8.25946e-15 0 0 1.10826e-14 3.24305e-14 1.91508e-14 2.00078e-14 0 0 1.53804e-14 1.43425e-14 4.10612e-14 1.13493e-14 0 0 1.41033e-14 1.58534e-14 3.97115e-14 1.65677e-14 0 0 -1.80649e-15 4.64884e-14 5.3939e-15 4.08017e-14 0 0 3.86657e-15 2.93837e-14 2.81974e-14 2.46309e-14 0 0 9.11696e-15 1.46913e-14 3.92402e-14 1.70783e-14 0 0 3.93254e-15 1.57026e-14 3.44589e-14 2.07354e-14 0 0 -7.58155e-15 1.49628e-14 4.51789e-14 2.15331e-14 0 0 -9.41459e-15 3.40952e-15 6.18573e-14 1.63053e-14 0 0 -9.87607e-15 6.27297e-15 5.36957e-14 1.61239e-14 0 0 3.3553e-14 -4.48214e-14 8.56334e-14 -2.91025e-15 0 0 2.8702e-14 -4.63622e-15 2.1742e-14 4.56102e-14 0 0 8.00893e-15 5.61527e-14 -3.50837e-14 7.8482e-14 0 0 4.81346e-14 -3.7708e-17 4.46317e-14 2.4869e-14 0 0 3.23913e-14 2.02411e-14 4.61092e-14 2.84393e-14 0 0 2.53881e-14 3.20615e-14 4.98335e-14 3.1458e-14 0 0 8.31419e-15 8.3202e-14 -8.97733e-17 5.80105e-14 0 0 1.17417e-14 1.03383e-13 -1.49893e-14 5.57416e-14 0 0 2.83797e-14 7.23354e-14 4.64861e-14 5.2998e-15 0 0 5.20284e-14 1.47197e-14 1.18825e-13 -5.36833e-14 0 0 2.0851e-14 5.33827e-14 7.38713e-14 -4.50879e-14 0 0 -3.34239e-14 1.38248e-13 -2.6038e-14 -9.37068e-16 0 0 2.60469e-14 4.09548e-14 5.05166e-14 -3.96789e-14 0 0 6.14337e-14 -2.86176e-14 1.14564e-13 -6.31156e-14 0 0 1.00442e-14 4.35902e-14 4.59592e-14 -1.31925e-14 0 0 -2.48872e-14 8.27721e-14 1.09445e-14 2.5114e-14 0 0 -2.14001e-14 4.93853e-14 5.43006e-14 -8.402e-16 0 0 -5.01914e-15 4.63187e-14 4.51498e-14 9.1559e-15 0 0 1.21346e-14 7.44203e-14 -1.26616e-14 6.29202e-14 0 0 1.73366e-14 9.87954e-14 -1.35477e-14 2.45894e-14 0 0 4.84421e-14 5.5547e-14 8.39604e-14 -6.75843e-14 0 0 3.03945e-15 1.21064e-13 4.65585e-14 -1.02309e-14 0 0 3.985e-14 9.17712e-14 6.04821e-14 1.73374e-14 0 0 8.38698e-14 4.52559e-14 1.14564e-13 -6.63315e-15 0 0 2.15723e-14 1.42946e-13 2.84834e-14 6.83079e-14 0 0 5.26402e-14 9.22936e-14 4.2836e-14 1.01433e-13 0 0 4.28824e-14 5.86848e-14 1.079e-13 6.38776e-14 0 0 1.18193e-14 2.38777e-14 1.74291e-13 5.26748e-14 0 0 -2.4619e-15 -4.03597e-14 2.39006e-13 6.437e-14 0 0 -8.84572e-14 6.76132e-14 1.90001e-13 4.72174e-14 0 0 -2.0156e-13 2.69786e-13 3.23864e-15 9.45059e-14 0 0 -1.47468e-13 2.11365e-13 5.23869e-15 7.78756e-14 0 0 -9.96048e-14 1.47452e-13 4.86057e-14 4.16628e-14 0 0 -1.28949e-13 1.51491e-13 7.88662e-14 3.49169e-15 0 0 -9.75238e-14 3.38879e-14 2.19197e-13 -8.16473e-14 0 0 -1.25635e-13 5.85676e-14 1.90056e-13 -5.18068e-14 0 0 -1.72664e-13 1.69806e-13 6.62101e-14 1.95186e-14 0 0 -1.74166e-13 2.17674e-13 -3.16125e-14 9.59223e-14 0 0 -7.3612e-14 9.79506e-14 8.92782e-14 2.66116e-14 0 0 -3.66544e-14 3.29898e-14 2.36636e-13 -7.36104e-14 0 0 -1.62944e-13 2.58812e-13 6.39176e-14 3.36994e-14 0 0 -1.30749e-13 2.8325e-13 4.72716e-14 4.32709e-14 0 0 2.34771e-14 7.20803e-14 2.68488e-13 -1.00191e-13 0 0 3.11829e-14 8.62309e-14 2.73821e-13 -9.77168e-14 0 0 -1.94181e-14 1.55059e-13 2.14471e-13 -1.37543e-14 0 0 -6.94629e-14 2.61569e-13 7.33271e-14 1.05757e-13 0 0 -3.79137e-14 2.52837e-13 9.78628e-14 3.64763e-15 0 0 1.70198e-14 1.91857e-13 1.50258e-13 -3.79817e-14 0 0 7.37665e-14 1.28156e-13 1.40775e-13 9.82078e-14 0 0 9.2383e-14 6.01989e-14 2.28173e-13 1.18094e-13 0 0 5.07806e-14 1.33715e-13 1.41134e-13 2.16906e-13 0 0 5.35819e-14 1.39274e-13 1.03184e-13 2.69271e-13 0 0 -5.88642e-14 2.3316e-13 1.22848e-13 2.0551e-13 0 0 -5.28261e-14 2.48689e-13 1.44442e-13 1.35523e-13 0 0 1.70787e-13 5.48557e-14 2.59219e-13 9.55509e-14 0 0 1.66263e-13 1.36767e-13 2.22071e-13 8.99269e-14 0 0 1.16551e-13 8.31752e-14 3.89508e-13 -8.47727e-14 0 0 -5.46541e-15 1.04601e-13 4.39986e-13 -9.93105e-14 0 0 -2.25713e-13 3.91131e-13 1.8122e-13 1.51981e-13 0 0 -1.89612e-13 2.22777e-13 3.98237e-13 9.96027e-14 0 0 -6.44492e-14 2.72182e-14 5.98488e-13 -1.22515e-14 0 0 1.01664e-13 -1.35567e-13 6.23071e-13 -2.9549e-14 0 0 -9.76488e-14 2.06699e-13 2.4124e-13 1.17431e-13 0 0 -3.4024e-13 5.53352e-13 7.99602e-14 8.81275e-14 0 0 -5.96917e-14 5.97661e-14 5.90317e-13 -1.69032e-13 0 0 6.99746e-14 -1.1576e-13 6.1699e-13 -3.59025e-16 0 0 -1.50587e-13 2.0724e-13 4.26691e-13 1.25205e-13 0 0 -3.31729e-13 6.24361e-13 1.9785e-13 9.42432e-14 0 0 3.08226e-15 3.46663e-13 3.4051e-13 -6.90942e-14 0 0 3.70252e-13 -9.0692e-14 6.47119e-13 -3.41476e-13 0 0 2.26814e-13 1.77367e-13 2.6065e-13 -4.60379e-16 0 0 2.16345e-13 3.95998e-13 -2.93929e-13 6.50744e-13 0 0 5.05693e-13 -1.17209e-14 9.09379e-14 4.18828e-13 0 0 5.40579e-13 -3.86964e-13 8.39994e-13 -2.81429e-13 0 0 2.10027e-13 -1.83328e-13 8.38358e-13 -3.75955e-13 0 0 -2.30696e-13 3.63828e-13 5.41474e-13 -2.74002e-13 0 0 -2.48109e-13 5.80152e-13 1.76064e-13 -5.26438e-14 0 0 -3.04858e-14 5.06157e-13 -2.69774e-14 1.40278e-13 0 0 2.64806e-13 3.40674e-13 -6.72912e-14 3.27794e-13 0 0 4.71653e-13 1.88094e-13 -1.18293e-13 5.12788e-13 0 0 5.9125e-13 8.92203e-14 -9.11451e-14 6.32098e-13 0 0 5.7285e-13 1.08887e-13 -7.31581e-14 6.21916e-13 0 0 5.24366e-13 1.5674e-13 -4.76124e-14 5.91278e-13 0 0 4.53527e-13 1.5691e-13 8.42398e-14 4.34693e-13 0 0 3.3085e-13 1.9805e-13 2.77369e-13 1.893e-13 0 0 2.26781e-13 2.92067e-13 4.03535e-13 1.02794e-14 0 0 1.69609e-13 3.60463e-13 4.28852e-13 -3.1767e-14 0 0 1.55585e-13 4.14854e-13 4.17497e-13 -2.60722e-14 0 0 1.28496e-13 4.89136e-13 3.32372e-13 2.28184e-14 0 0 9.8903e-14 5.74219e-13 2.57968e-13 8.77923e-14 0 0 1.04983e-13 6.39265e-13 2.56848e-13 9.12897e-14 0 0 1.02147e-13 6.74515e-13 2.81024e-13 3.50369e-14 0 0 8.81424e-14 6.66176e-13 4.77151e-13 -1.89698e-13 0 0 4.84145e-14 5.846e-13 6.58468e-13 -4.13354e-13 0 0 4.72011e-14 5.01311e-13 5.85374e-13 -3.78586e-13 0 0 8.58423e-14 4.51983e-13 3.67984e-13 -2.29455e-13 0 0 1.45615e-13 3.89053e-13 3.55528e-13 -1.49565e-13 0 0 1.58227e-13 3.40751e-13 3.16946e-13 -6.68684e-14 0 0 1.55627e-13 3.08684e-13 2.83894e-13 -3.15312e-14 0 0 1.48181e-13 3.11526e-13 2.63256e-13 1.90631e-14 0 0 1.39178e-13 3.22236e-13 2.68124e-13 1.11342e-13 0 0 1.2771e-13 3.37412e-13 2.97796e-13 1.15469e-13 0 0 9.06347e-14 4.16638e-13 2.44372e-13 1.43061e-13 0 0 2.34418e-14 5.49446e-13 1.72869e-13 1.1874e-13 0 0 -2.18168e-14 6.41243e-13 9.28615e-14 1.087e-13 0 0 -8.44098e-15 6.4199e-13 5.54701e-14 1.34864e-13 0 0 7.25187e-14 5.22272e-13 1.14217e-13 1.15775e-13 0 0 1.47551e-13 3.23523e-13 2.07351e-13 1.35039e-13 0 0 2.00552e-13 1.0532e-13 4.07297e-13 1.29238e-13 0 0 2.03157e-13 -7.30873e-14 5.151e-13 1.67549e-13 0 0 1.88909e-13 -5.25198e-14 4.3514e-13 3.07883e-13 0 0 1.11559e-13 6.18699e-14 2.61556e-13 3.1045e-13 0 0 4.96168e-14 2.08065e-13 2.46185e-13 2.88914e-13 0 0 6.19995e-14 2.03673e-13 2.44862e-13 3.28802e-13 0 0 1.07789e-13 2.12324e-13 2.04736e-13 3.1225e-13 0 0 1.1057e-13 2.34555e-13 2.02379e-13 2.03871e-13 0 0 1.32402e-13 2.15655e-13 2.40353e-13 1.68505e-13 0 0 1.30835e-13 2.13163e-13 2.81263e-13 1.5222e-13 0 0 1.24071e-13 1.53415e-13 3.83548e-13 1.05244e-13 0 0 1.16629e-13 1.69687e-13 3.64681e-13 1.48822e-13 0 0 8.05085e-14 2.63471e-13 2.62944e-13 2.00436e-13 0 0 9.5262e-14 2.78019e-13 2.40752e-13 2.31888e-13 0 0 1.30246e-13 2.46571e-13 2.57538e-13 2.64339e-13 0 0 1.53419e-13 2.10103e-13 3.105e-13 2.52853e-13 0 0 1.73299e-13 2.28452e-13 3.61383e-13 1.61678e-13 0 0 1.52463e-13 2.87176e-13 3.89259e-13 -2.44559e-15 0 0 7.4025e-14 4.87565e-13 2.81002e-13 9.06418e-14 0 0 8.5315e-14 5.43542e-13 2.6205e-13 1.88868e-13 0 0 1.77185e-13 4.45134e-13 3.3e-13 2.10523e-13 0 0 2.26114e-13 4.01203e-13 3.64498e-13 2.1377e-13 0 0 2.57476e-13 3.77884e-13 4.08683e-13 1.77383e-13 0 0 2.56695e-13 3.82692e-13 3.66946e-13 1.98504e-13 0 0 2.14542e-13 4.17059e-13 3.30037e-13 1.98242e-13 0 0 3.26036e-13 2.04137e-13 5.71104e-13 6.44493e-14 0 0 2.67211e-13 2.78555e-13 5.16862e-13 1.41913e-13 0 0 1.07549e-13 5.64297e-13 2.4453e-13 2.58157e-13 0 0 1.51258e-13 4.94071e-13 3.13523e-13 2.59085e-13 0 0 2.17644e-13 3.84066e-13 4.28306e-13 2.83669e-13 0 0 3.2101e-13 2.30526e-13 6.54195e-13 1.29393e-13 0 0 1.90015e-13 4.3868e-13 5.17821e-13 2.61002e-13 0 0 9.69224e-14 6.14519e-13 3.84072e-13 3.76591e-13 0 0 1.75709e-13 5.52339e-13 4.96918e-13 2.64618e-13 0 0 2.35048e-13 4.73682e-13 6.61748e-13 1.59108e-13 0 0 2.66273e-13 4.52153e-13 7.24629e-13 1.47786e-13 0 0 1.86878e-13 7.27162e-13 4.23315e-13 3.72758e-13 0 0 2.4744e-13 8.17548e-13 2.43365e-13 5.57646e-13 0 0 4.07361e-13 6.68642e-13 3.40233e-13 4.6091e-13 0 0 5.62308e-13 4.95796e-13 5.80426e-13 1.63652e-13 0 0 5.83432e-13 5.60197e-13 4.69718e-13 2.06655e-13 0 0 4.43147e-13 8.81777e-13 3.25162e-14 6.09115e-13 0 0 1.95413e-13 1.19005e-12 -1.27486e-13 7.47167e-13 0 0 2.6222e-13 9.18864e-13 3.561e-13 4.1087e-13 0 0 6.07379e-13 4.57709e-13 7.74527e-13 1.2129e-13 0 0 8.49444e-13 2.68672e-13 6.95652e-13 3.03181e-13 0 0 7.99408e-13 3.67183e-13 5.84423e-13 4.51866e-13 0 0 5.30564e-13 6.43794e-13 4.35741e-13 5.06487e-13 0 0 3.18283e-13 8.91066e-13 1.97525e-13 6.13371e-13 0 0 4.51199e-13 7.52054e-13 2.96316e-13 4.62438e-13 0 0 6.74495e-13 4.72901e-13 5.19868e-13 3.51948e-13 0 0 6.53448e-13 5.14467e-13 4.92891e-13 4.73791e-13 0 0 5.58986e-13 5.27819e-13 5.26976e-13 5.28589e-13 0 0 1.76565e-13 9.87846e-13 2.1786e-13 6.24203e-13 0 0 3.64191e-13 6.92911e-13 5.7877e-13 3.13784e-13 0 0 4.99068e-13 5.5914e-13 5.96959e-13 3.87062e-13 0 0 2.35033e-13 9.91678e-13 1.70679e-13 6.93729e-13 0 0 3.77444e-13 6.50383e-13 7.84967e-13 2.16492e-13 0 0 2.60465e-13 8.19401e-13 7.80293e-13 6.8452e-14 0 0 1.65637e-13 9.71115e-13 6.39644e-13 2.04783e-14 0 0 3.90758e-13 6.32523e-13 8.91539e-13 -1.40125e-13 0 0 4.68931e-13 5.4507e-13 8.70886e-13 1.05892e-14 0 0 6.07063e-13 2.76378e-13 1.13669e-12 -8.55844e-14 0 0 2.34616e-13 8.39438e-13 6.20881e-13 2.46402e-13 0 0 1.64077e-13 1.09698e-12 1.15442e-13 7.26079e-13 0 0 4.00409e-13 7.06086e-13 2.46182e-13 7.04947e-13 0 0 2.93688e-13 7.66993e-13 2.7598e-13 5.39005e-13 0 0 4.91665e-13 5.51261e-13 4.5811e-13 4.08936e-13 0 0 3.71239e-13 7.72038e-13 1.68913e-13 5.43794e-13 0 0 2.20421e-13 9.46761e-13 1.53461e-13 2.95088e-13 0 0 4.62575e-13 4.71035e-13 6.87982e-13 -5.77149e-14 0 0 6.12693e-13 1.62886e-13 8.76554e-13 1.39773e-13 0 0 5.29787e-13 3.22535e-13 6.19861e-13 5.32573e-13 0 0 1.39979e-13 1.00893e-12 8.16398e-14 7.90161e-13 0 0 1.88028e-13 8.22005e-13 5.49927e-13 4.30963e-13 0 0 3.62513e-13 3.44094e-13 1.14027e-12 1.15805e-13 0 0 7.72929e-14 6.35737e-13 8.63352e-13 3.01714e-13 0 0 -9.48699e-14 9.89855e-13 3.84095e-13 6.5604e-13 0 0 1.35344e-13 7.6348e-13 5.22432e-13 6.22148e-13 0 0 5.89671e-13 -1.70906e-13 1.70719e-12 -1.5261e-13 0 0 6.96991e-13 -5.15361e-13 2.27496e-12 -5.49951e-13 0
				</DataArray>
				<DataArray Name="VitesseY" type="Float32" format="ascii">