<?xml version="1.0"?>
<VTKFile type="PolyData">
	<PolyData>
		<Piece NumberOfPoints="1206" NumberOfPolys="1000">
			<Points>
				<DataArray type="Float32" NumberOfComponents="3" format="ascii">
 0 0 0 0.02 0 0 0.04 0 0 0.06 0 0 0.08 0 0 0.1 0 0 0 0.005 0 0.02 0.005 0 0.04 0.005 0 0.06 0.005 0 0.08 0.005 0 0.1 0.005 0 0 0.01 0 0.02 0.01 0 0.04 0.01 0 0.06 0.01 0 0.08 0.01 0 0.1 0.01 0 0 0.015 0 0.02 0.015 0 0.04 0.015 0 0.06 0.015 0 0.08 0.015 0 0.1 0.015 0 0 0.02 0 0.02 0.02 0 0.04 0.02 0 0.06 0.02 0 0.08 0.02 0 0.1 0.02 0 0 0.025 0 0.02 0.025 0 0.04 0.025 0 0.06 0.025 0 0.08 0.025 0 0.1 0.025 0 0 0.03 0 0.02 0.03 0 0.04 0.03 0 0.06 0.03 0 0.08 0.03 0 0.1 0.03 0 0 0.035 0 0.02 0.035 0 0.04 0.035 0 0.06 0.035 0 0.08 0.035 0 0.1 0.035 0 0 0.04 0 0.02 0.04 0 0.04 0.04 0 0.06 0.04 0 0.08 0.04 0 0.1 0.04 0 0 0.045 0 0.02 0.045 0 0.04 0.045 0 0.06 0.045 0 0.08 0.045 0 0.1 0.045 0 0 0.05 0 0.02 0.05 0 0.04 0.05 0 0.06 0.05 0 0.08 0.05 0 0.1 0.05 0 0 0.055 0 0.02 0.055 0 0.04 0.055 0 0.06 0.055 0 0.08 0.055 0 0.1 0.055 0 0 0.06 0 0.02 0.06 0 0.04 0.06 0 0.06 0.06 0 0.08 0.06 0 0.1 0.06 0 0 0.065 0 0.02 0.065 0 0.04 0.065 0 0.06 0.065 0 0.08 0.065 0 0.1 0.065 0 0 0.07 0 0.02 0.07 0 0.04 0.07 0 0.06 0.07 0 0.08 0.07 0 0.1 0.07 0 0 0.075 0 0.02 0.075 0 0.04 0.075 0 0.06 0.075 0 0.08 0.075 0 0.1 0.075 0 0 0.08 0 0.02 0.08 0 0.04 0.08 0 0.06 0.08 0 0.08 0.08 0 0.1 0.08 0 0 0.085 0 0.02 0.085 0 0.04 0.085 0 0.06 0.085 0 0.08 0.085 0 0.1 0.085 0 0 0.09 0 0.02 0.09 0 0.04 0.09 0 0.06 0.09 0 0.08 0.09 0 0.1 0.09 0 0 0.095 0 0.02 0.095 0 0.04 0.095 0 0.06 0.095 0 0.08 0.095 0 0.1 0.095 0 0 0.1 0 0.02 0.1 0 0.04 0.1 0 0.06 0.1 0 0.08 0.1 0 0.1 0.1 0 0 0.105 0 0.02 0.105 0 0.04 0.105 0 0.06 0.105 0 0.08 0.105 0 0.1 0.105 0 0 0.11 0 0.02 0.11 0 0.04 0.11 0 0.06 0.11 0 0.08 0.11 0 0.1 0.11 0 0 0.115 0 0.02 0.115 0 0.04 0.115 0 0.06 0.115 0 0.08 0.115 0 0.1 0.115 0 0 0.12 0 0.02 0.12 0 0.04 0.12 0 0.06 0.12 0 0.08 0.12 0 0.1 0.12 0 0 0.125 0 0.02 0.125 0 0.04 0.125 0 0.06 0.125 0 0.08 0.125 0 0.1 0.125 0 0 0.13 0 0.02 0.13 0 0.04 0.13 0 0.06 0.13 0 0.08 0.13 0 0.1 0.13 0 0 0.135 0 0.02 0.135 0 0.04 0.135 0 0.06 0.135 0 0.08 0.135 0 0.1 0.135 0 0 0.14 0 0.02 0.14 0 0.04 0.14 0 0.06 0.14 0 0.08 0.14 0 0.1 0.14 0 0 0.145 0 0.02 0.145 0 0.04 0.145 0 0.06 0.145 0 0.08 0.145 0 0.1 0.145 0 0 0.15 0 0.02 0.15 0 0.04 0.15 0 0.06 0.15 0 0.08 0.15 0 0.1 0.15 0 0 0.155 0 0.02 0.155 0 0.04 0.155 0 0.06 0.155 0 0.08 0.155 0 0.1 0.155 0 0 0.16 0 0.02 0.16 0 0.04 0.16 0 0.06 0.16 0 0.08 0.16 0 0.1 0.16 0 0 0.165 0 0.02 0.165 0 0.04 0.165 0 0.06 0.165 0 0.08 0.165 0 0.1 0.165 0 0 0.17 0 0.02 0.17 0 0.04 0.17 0 0.06 0.17 0 0.08 0.17 0 0.1 0.17 0 0 0.175 0 0.02 0.175 0 0.04 0.175 0 0.06 0.175 0 0.08 0.175 0 0.1 0.175 0 0 0.18 0 0.02 0.18 0 0.04 0.18 0 0.06 0.18 0 0.08 0.18 0 0.1 0.18 0 0 0.185 0 0.02 0.185 0 0.04 0.185 0 0.06 0.185 0 0.08 0.185 0 0.1 0.185 0 0 0.19 0 0.02 0.19 0 0.04 0.19 0 0.06 0.19 0 0.08 0.19 0 0.1 0.19 0 0 0.195 0 0.02 0.195 0 0.04 0.195 0 0.06 0.195 0 0.08 0.195 0 0.1 0.195 0 0 0.2 0 0.02 0.2 0 0.04 0.2 0 0.06 0.2 0 0.08 0.2 0 0.1 0.2 0 0 0.205 0 0.02 0.205 0 0.04 0.205 0 0.06 0.205 0 0.08 0.205 0 0.1 0.205 0 0 0.21 0 0.02 0.21 0 0.04 0.21 0 0.06 0.21 0 0.08 0.21 0 0.1 0.21 0 0 0.215 0 0.02 0.215 0 0.04 0.215 0 0.06 0.215 0 0.08 0.215 0 0.1 0.215 0 0 0.22 0 0.02 0.22 0 0.04 0.22 0 0.06 0.22 0 0.08 0.22 0 0.1 0.22 0 0 0.225 0 0.02 0.225 0 0.04 0.225 0 0.06 0.225 0 0.08 0.225 0 0.1 0.225 0 0 0.23 0 0.02 0.23 0 0.04 0.23 0 0.06 0.23 0 0.08 0.23 0 0.1 0.23 0 0 0.235 0 0.02 0.235 0 0.04 0.235 0 0.06 0.235 0 0.08 0.235 0 0.1 0.235 0 0 0.24 0 0.02 0.24 0 0.04 0.24 0 0.06 0.24 0 0.08 0.24 0 0.1 0.24 0 0 0.245 0 0.02 0.245 0 0.04 0.245 0 0.06 0.245 0 0.08 0.245 0 0.1 0.245 0 0 0.25 0 0.02 0.25 0 0.04 0.25 0 0.06 0.25 0 0.08 0.25 0 0.1 0.25 0 0 0.255 0 0.02 0.255 0 0.04 0.255 0 0.06 0.255 0 0.08 0.255 0 0.1 0.255 0 0 0.26 0 0.02 0.26 0 0.04 0.26 0 0.06 0.26 0 0.08 0.26 0 0.1 0.26 0 0 0.265 0 0.02 0.265 0 0.04 0.265 0 0.06 0.265 0 0.08 0.265 0 0.1 0.265 0 0 0.27 0 0.02 0.27 0 0.04 0.27 0 0.06 0.27 0 0.08 0.27 0 0.1 0.27 0 0 0.275 0 0.02 0.275 0 0.04 0.275 0 0.06 0.275 0 0.08 0.275 0 0.1 0.275 0 0 0.28 0 0.02 0.28 0 0.04 0.28 0 0.06 0.28 0 0.08 0.28 0 0.1 0.28 0 0 0.285 0 0.02 0.285 0 0.04 0.285 0 0.06 0.285 0 0.08 0.285 0 0.1 0.285 0 0 0.29 0 0.02 0.29 0 0.04 0.29 0 0.06 0.29 0 0.08 0.29 0 0.1 0.29 0 0 0.295 0 0.02 0.295 0 0.04 0.295 0 0.06 0.295 0 0.08 0.295 0 0.1 0.295 0 0 0.3 0 0.02 0.3 0 0.04 0.3 0 0.06 0.3 0 0.08 0.3 0 0.1 0.3 0 0 0.305 0 0.02 0.305 0 0.04 0.305 0 0.06 0.305 0 0.08 0.305 0 0.1 0.305 0 0 0.31 0 0.02 0.31 0 0.04 0.31 0 0.06 0.31 0 0.08 0.31 0 0.1 0.31 0 0 0.315 0 0.02 0.315 0 0.04 0.315 0 0.06 0.315 0 0.08 0.315 0 0.1 0.315 0 0 0.32 0 0.02 0.32 0 0.04 0.32 0 0.06 0.32 0 0.08 0.32 0 0.1 0.32 0 0 0.325 0 0.02 0.325 0 0.04 0.325 0 0.06 0.325 0 0.08 0.325 0 0.1 0.325 0 0 0.33 0 0.02 0.33 0 0.04 0.33 0 0.06 0.33 0 0.08 0.33 0 0.1 0.33 0 0 0.335 0 0.02 0.335 0 0.04 0.335 0 0.06 0.335 0 0.08 0.335 0 0.1 0.335 0 0 0.34 0 0.02 0.34 0 0.04 0.34 0 0.06 0.34 0 0.08 0.34 0 0.1 0.34 0 0 0.345 0 0.02 0.345 0 0.04 0.345 0 0.06 0.345 0 0.08 0.345 0 0.1 0.345 0 0 0.35 0 0.02 0.35 0 0.04 0.35 0 0.06 0.35 0 0.08 0.35 0 0.1 0.35 0 0 0.355 0 0.02 0.355 0 0.04 0.355 0 0.06 0.355 0 0.08 0.355 0 0.1 0.355 0 0 0.36 0 0.02 0.36 0 0.04 0.36 0 0.06 0.36 0 0.08 0.36 0 0.1 0.36 0 0 0.365 0 0.02 0.365 0 0.04 0.365 0 0.06 0.365 0 0.08 0.365 0 0.1 0.365 0 0 0.37 0 0.02 0.37 0 0.04 0.37 0 0.06 0.37 0 0.08 0.37 0 0.1 0.37 0 0 0.375 0 0.02 0.375 0 0.04 0.375 0 0.06 0.375 0 0.08 0.375 0 0.1 0.375 0 0 0.38 0 0.02 0.38 0 0.04 0.38 0 0.06 0.38 0 0.08 0.38 0 0.1 0.38 0 0 0.385 0 0.02 0.385 0 0.04 0.385 0 0.06 0.385 0 0.08 0.385 0 0.1 0.385 0 0 0.39 0 0.02 0.39 0 0.04 0.39 0 0.06 0.39 0 0.08 0.39 0 0.1 0.39 0 0 0.395 0 0.02 0.395 0 0.04 0.395 0 0.06 0.395 0 0.08 0.395 0 0.1 0.395 0 0 0.4 0 0.02 0.4 0 0.04 0.4 0 0.06 0.4 0 0.08 0.4 0 0.1 0.4 0 0 0.405 0 0.02 0.405 0 0.04 0.405 0 0.06 0.405 0 0.08 0.405 0 0.1 0.405 0 0 0.41 0 0.02 0.41 0 0.04 0.41 0 0.06 0.41 0 0.08 0.41 0 0.1 0.41 0 0 0.415 0 0.02 0.415 0 0.04 0.415 0 0.06 0.415 0 0.08 0.415 0 0.1 0.415 0 0 0.42 0 0.02 0.42 0 0.04 0.42 0 0.06 0.42 0 0.08 0.42 0 0.1 0.42 0 0 0.425 0 0.02 0.425 0 0.04 0.425 0 0.06 0.425 0 0.08 0.425 0 0.1 0.425 0 0 0.43 0 0.02 0.43 0 0.04 0.43 0 0.06 0.43 0 0.08 0.43 0 0.1 0.43 0 0 0.435 0 0.02 0.435 0 0.04 0.435 0 0.06 0.435 0 0.08 0.435 0 0.1 0.435 0 0 0.44 0 0.02 0.44 0 0.04 0.44 0 0.06 0.44 0 0.08 0.44 0 0.1 0.44 0 0 0.445 0 0.02 0.445 0 0.04 0.445 0 0.06 0.445 0 0.08 0.445 0 0.1 0.445 0 0 0.45 0 0.02 0.45 0 0.04 0.45 0 0.06 0.45 0 0.08 0.45 0 0.1 0.45 0 0 0.455 0 0.02 0.455 0 0.04 0.455 0 0.06 0.455 0 0.08 0.455 0 0.1 0.455 0 0 0.46 0 0.02 0.46 0 0.04 0.46 0 0.06 0.46 0 0.08 0.46 0 0.1 0.46 0 0 0.465 0 0.02 0.465 0 0.04 0.465 0 0.06 0.465 0 0.08 0.465 0 0.1 0.465 0 0 0.47 0 0.02 0.47 0 0.04 0.47 0 0.06 0.47 0 0.08 0.47 0 0.1 0.47 0 0 0.475 0 0.02 0.475 0 0.04 0.475 0 0.06 0.475 0 0.08 0.475 0 0.1 0.475 0 0 0.48 0 0.02 0.48 0 0.04 0.48 0 0.06 0.48 0 0.08 0.48 0 0.1 0.48 0 0 0.485 0 0.02 0.485 0 0.04 0.485 0 0.06 0.485 0 0.08 0.485 0 0.1 0.485 0 0 0.49 0 0.02 0.49 0 0.04 0.49 0 0.06 0.49 0 0.08 0.49 0 0.1 0.49 0 0 0.495 0 0.02 0.495 0 0.04 0.495 0 0.06 0.495 0 0.08 0.495 0 0.1 0.495 0 0 0.5 0 0.02 0.5 0 0.04 0.5 0 0.06 0.5 0 0.08 0.5 0 0.1 0.5 0 0 0.505 0 0.02 0.505 0 0.04 0.505 0 0.06 0.505 0 0.08 0.505 0 0.1 0.505 0 0 0.51 0 0.02 0.51 0 0.04 0.51 0 0.06 0.51 0 0.08 0.51 0 0.1 0.51 0 0 0.515 0 0.02 0.515 0 0.04 0.515 0 0.06 0.515 0 0.08 0.515 0 0.1 0.515 0 0 0.52 0 0.02 0.52 0 0.04 0.52 0 0.06 0.52 0 0.08 0.52 0 0.1 0.52 0 0 0.525 0 0.02 0.525 0 0.04 0.525 0 0.06 0.525 0 0.08 0.525 0 0.1 0.525 0 0 0.53 0 0.02 0.53 0 0.04 0.53 0 0.06 0.53 0 0.08 0.53 0 0.1 0.53 0 0 0.535 0 0.02 0.535 0 0.04 0.535 0 0.06 0.535 0 0.08 0.535 0 0.1 0.535 0 0 0.54 0 0.02 0.54 0 0.04 0.54 0 0.06 0.54 0 0.08 0.54 0 0.1 0.54 0 0 0.545 0 0.02 0.545 0 0.04 0.545 0 0.06 0.545 0 0.08 0.545 0 0.1 0.545 0 0 0.55 0 0.02 0.55 0 0.04 0.55 0 0.06 0.55 0 0.08 0.55 0 0.1 0.55 0 0 0.555 0 0.02 0.555 0 0.04 0.555 0 0.06 0.555 0 0.08 0.555 0 0.1 0.555 0 0 0.56 0 0.02 0.56 0 0.04 0.56 0 0.06 0.56 0 0.08 0.56 0 0.1 0.56 0 0 0.565 0 0.02 0.565 0 0.04 0.565 0 0.06 0.565 0 0.08 0.565 0 0.1 0.565 0 0 0.57 0 0.02 0.57 0 0.04 0.57 0 0.06 0.57 0 0.08 0.57 0 0.1 0.57 0 0 0.575 0 0.02 0.575 0 0.04 0.575 0 0.06 0.575 0 0.08 0.575 0 0.1 0.575 0 0 0.58 0 0.02 0.58 0 0.04 0.58 0 0.06 0.58 0 0.08 0.58 0 0.1 0.58 0 0 0.585 0 0.02 0.585 0 0.04 0.585 0 0.06 0.585 0 0.08 0.585 0 0.1 0.585 0 0 0.59 0 0.02 0.59 0 0.04 0.59 0 0.06 0.59 0 0.08 0.59 0 0.1 0.59 0 0 0.595 0 0.02 0.595 0 0.04 0.595 0 0.06 0.595 0 0.08 0.595 0 0.1 0.595 0 0 0.6 0 0.02 0.6 0 0.04 0.6 0 0.06 0.6 0 0.08 0.6 0 0.1 0.6 0 0 0.605 0 0.02 0.605 0 0.04 0.605 0 0.06 0.605 0 0.08 0.605 0 0.1 0.605 0 0 0.61 0 0.02 0.61 0 0.04 0.61 0 0.06 0.61 0 0.08 0.61 0 0.1 0.61 0 0 0.615 0 0.02 0.615 0 0.04 0.615 0 0.06 0.615 0 0.08 0.615 0 0.1 0.615 0 0 0.62 0 0.02 0.62 0 0.04 0.62 0 0.06 0.62 0 0.08 0.62 0 0.1 0.62 0 0 0.625 0 0.02 0.625 0 0.04 0.625 0 0.06 0.625 0 0.08 0.625 0 0.1 0.625 0 0 0.63 0 0.02 0.63 0 0.04 0.63 0 0.06 0.63 0 0.08 0.63 0 0.1 0.63 0 0 0.635 0 0.02 0.635 0 0.04 0.635 0 0.06 0.635 0 0.08 0.635 0 0.1 0.635 0 0 0.64 0 0.02 0.64 0 0.04 0.64 0 0.06 0.64 0 0.08 0.64 0 0.1 0.64 0 0 0.645 0 0.02 0.645 0 0.04 0.645 0 0.06 0.645 0 0.08 0.645 0 0.1 0.645 0 0 0.65 0 0.02 0.65 0 0.04 0.65 0 0.06 0.65 0 0.08 0.65 0 0.1 0.65 0 0 0.655 0 0.02 0.655 0 0.04 0.655 0 0.06 0.655 0 0.08 0.655 0 0.1 0.655 0 0 0.66 0 0.02 0.66 0 0.04 0.66 0 0.06 0.66 0 0.08 0.66 0 0.1 0.66 0 0 0.665 0 0.02 0.665 0 0.04 0.665 0 0.06 0.665 0 0.08 0.665 0 0.1 0.665 0 0 0.67 0 0.02 0.67 0 0.04 0.67 0 0.06 0.67 0 0.08 0.67 0 0.1 0.67 0 0 0.675 0 0.02 0.675 0 0.04 0.675 0 0.06 0.675 0 0.08 0.675 0 0.1 0.675 0 0 0.68 0 0.02 0.68 0 0.04 0.68 0 0.06 0.68 0 0.08 0.68 0 0.1 0.68 0 0 0.685 0 0.02 0.685 0 0.04 0.685 0 0.06 0.685 0 0.08 0.685 0 0.1 0.685 0 0 0.69 0 0.02 0.69 0 0.04 0.69 0 0.06 0.69 0 0.08 0.69 0 0.1 
[...]
			<PointData Scalars="VitesseX">
				<DataArray Name="VitesseX" type="Float32" format="ascii">
 0 9.35419e-15 -8.59447e-15 1.63437e-14 1.75928e-14 0 0 2.94781e-15 2.01836e-15 9.63971e-15 2.09175e-14 0 0 -3.28627e-15 1.29778e-14 9.87992e-15 1.94178e-14 0 0 -3.6726e-15 1.52898e-14 1.89638e-14 1.58485e-14 0 0 -1.16327e-14 2.73714e-14 1.83312e-14 1.87286e-14 0 0 -1.76984e-14 3.33626e-14 1.74111e-14 2.07642e-14 0 0 -5.42097e-16 4.42464e-15 4.81027e-14 3.91466e-16 0 0 1.04222e-14 -1.51179e-14 6.89355e-14 -1.47133e-14 0 0 7.30838e-17 -8.37986e-15 6.22208e-14 -5.49509e-15 0 0 -9.04327e-15 6.27155e-15 3.1443e-14 3.32351e-14 0 0 -2.3703e-15 6.19992e-15 9.06959e-15 5.55859e-14 0 0 1.70526e-14 -1.76013e-14 3.2719e-14 3.03466e-14 0 0 2.5203e-14 -2.86917e-14 5.87059e-14 3.09647e-15 0 0 5.77055e-15 1.62733e-14 1.88375e-14 2.49761e-14 0 0 7.23574e-15 2.82766e-14 1.01522e-14 3.08724e-14 0 0 4.41431e-15 2.98268e-14 2.60919e-14 1.42164e-14 0 0 -9.57624e-15 3.47999e-14 4.57623e-14 -4.18435e-15 0 0 6.14091e-15 -1.00309e-14 1.00381e-13 -3.50385e-14 0 0 1.98065e-14 -1.64761e-14 8.56199e-14 -1.59328e-14 0 0 -2.91948e-16 1.68499e-14 5.65329e-14 -4.63175e-15 0 0 1.01576e-14 -1.80934e-14 8.10279e-14 -7.25979e-15 0 0 2.26957e-14 -6.20954e-14 1.33812e-13 -3.29273e-14 0 0 -3.51044e-15 -1.72489e-14 9.06342e-14 -1.81088e-14 0 0 -4.12217e-14 8.39622e-14 -8.67384e-14 1.20669e-13 0 0 -7.87967e-15 1.49257e-15 -8.31245e-15 9.62815e-14 0 0 2.85326e-14 -1.00814e-13 1.36594e-13 6.87e-15 0 0 -2.46164e-14 -6.31469e-15 4.82229e-14 7.11075e-14 0 0 -2.01989e-14 2.8373e-18 5.51301e-14 6.92629e-14 0 0 -3.26008e-14 1.96809e-14 6.66177e-14 5.16487e-14 0 0 -2.77135e-14 5.30253e-14 4.68017e-14 4.92266e-14 0 0 2.45831e-14 2.04594e-14 1.0451e-13 -1.45264e-14 0 0 -2.79121e-15 9.7083e-14 5.64993e-14 -1.52451e-14 0 0 2.2464e-14 9.47287e-14 5.52058e-14 -4.72077e-15 0 0 4.59113e-14 5.5754e-14 1.04147e-13 -8.10943e-15 0 0 3.97104e-14 6.4592e-14 1.08105e-13 -1.50903e-15 0 0 4.04614e-14 7.93641e-14 7.4303e-14 3.43481e-14 0 0 3.08507e-14 8.79193e-14 3.37364e-14 9.35595e-14 0 0 2.91329e-14 5.4435e-14 6.12098e-14 1.28772e-13 0 0 -4.20337e-14 1.16535e-13 1.93714e-14 1.61098e-13 0 0 -4.27251e-14 7.37801e-14 1.07948e-13 6.30063e-14 0 0 -1.60477e-14 1.04883e-14 1.8215e-13 6.47542e-15 0 0 -4.7943e-14 6.83586e-14 1.23495e-13 2.04149e-14 0 0 -5.57951e-14 1.35613e-13 1.34199e-14 5.93262e-14 0 0 -2.08904e-15 9.95227e-14 5.11359e-15 4.30313e-14 0 0 6.90351e-15 7.0141e-14 7.47345e-14 -3.87922e-14 0 0 -4.19205e-14 9.96484e-14 7.65349e-14 -4.85199e-14 0 0 -1.04632e-13 2.01867e-13 -3.63572e-14 -7.76865e-15 0 0 -1.06951e-13 2.29062e-13 -1.36669e-13 7.2524e-14 0 0 2.5329e-14 1.60926e-14 2.47042e-14 2.75545e-14 0 0 8.42344e-14 -9.10464e-14 1.66311e-13 -4.50721e-14 0 0 1.46914e-13 -2.08658e-13 3.28726e-13 -1.22774e-13 0 0 1.3907e-13 -1.52514e-13 2.77609e-13 -9.12102e-14 0 0 -3.47142e-14 1.98968e-13 -5.776e-14 7.81171e-14 0 0 -1.0391e-13 3.35087e-13 -1.47075e-13 1.24343e-13 0 0 9.96259e-14 2.97152e-15 1.98108e-13 -7.39257e-14 0 0 1.76826e-13 -1.1766e-13 2.68962e-13 -1.19483e-13 0 0 1.64328e-14 9.25305e-14 5.58354e-14 2.68294e-14 0 0 1.11082e-14 1.03542e-13 6.56441e-14 3.28374e-14 0 0 -2.98047e-14 1.93768e-13 5.0167e-14 2.77987e-14 0 0 -1.24703e-14 2.22808e-13 5.48821e-14 1.01933e-13 0 0 1.6431e-13 4.01573e-14 1.5835e-13 1.91984e-13 0 0 7.15296e-14 7.86587e-14 1.84501e-13 2.52476e-13 0 0 -1.46825e-14 1.24415e-13 2.4024e-13 2.45021e-13 0 0 1.29804e-14 7.29527e-14 3.51323e-13 2.05189e-13 0 0 -4.96035e-15 7.51103e-14 3.88807e-13 2.02552e-13 0 0 -4.07639e-15 9.83429e-14 3.86729e-13 1.55393e-13 0 0 -1.16369e-13 3.2041e-13 2.03546e-13 1.90185e-13 0 0 -4.04297e-14 2.0061e-13 3.18453e-13 1.28508e-13 0 0 1.69778e-13 -1.15196e-13 6.07821e-13 9.54903e-15 0 0 -1.00473e-15 1.47478e-13 3.62097e-13 1.85851e-13 0 0 -2.04098e-13 4.09466e-13 1.10257e-13 3.27729e-13 0 0 -9.35706e-14 2.72218e-13 1.68386e-13 2.32072e-13 0 0 2.98743e-13 -2.09695e-13 4.6562e-13 7.62351e-15 0 0 3.36151e-13 -1.28879e-13 3.50398e-13 1.22053e-14 0 0 5.73202e-14 2.06967e-13 1.76654e-13 8.40796e-14 0 0 2.6406e-14 1.54152e-13 2.34259e-13 1.71688e-13 0 0 6.24737e-14 1.38378e-13 1.58915e-13 2.92355e-13 0 0 2.77722e-13 -1.99777e-13 6.53138e-13 -1.46822e-13 0 0 1.90339e-13 -2.40597e-15 5.83125e-13 -3.25028e-13 0 0 2.2036e-13 1.62552e-13 2.58759e-13 -1.68421e-13 0 0 4.95208e-13 -1.87242e-13 3.44431e-13 -7.63141e-14 0 0 4.53037e-13 -4.113e-14 2.56472e-14 2.16144e-13 0 0 2.74616e-13 1.72605e-13 -1.84376e-13 3.45334e-13 0 0 1.03094e-13 2.66194e-13 -2.50715e-13 4.74202e-13 0 0 1.11035e-13 1.31389e-13 -6.3286e-14 3.95758e-13 0 0 2.02126e-13 -2.86787e-13 4.62789e-13 1.56187e-13 0 0 2.44235e-13 -4.74322e-13 7.22366e-13 -1.93751e-14 0 0 1.81177e-13 -4.36947e-13 6.62695e-13 4.95899e-14 0 0 -6.30138e-14 -1.36262e-13 4.1824e-13 2.07187e-13 0 0 -1.71612e-13 1.83897e-13 -5.44444e-15 3.9229e-13 0 0 -1.46867e-13 2.04169e-13 -1.16885e-13 4.59145e-13 0 0 1.7736e-14 1.10261e-13 -8.58416e-14 4.28238e-13 0 0 2.98738e-13 -1.57762e-13 3.8255e-14 3.51155e-13 0 0 4.4324e-13 -3.32131e-13 1.98018e-13 2.40646e-13 0 0 4.26019e-13 -3.15727e-13 2.57569e-13 1.34804e-13 0 0 3.56214e-13 -1.97026e-13 2.31358e-13 9.05693e-14 0 0 1.99479e-13 2.38798e-14 1.54688e-13 8.39256e-14 0 0 5.55475e-14 2.23602e-13 1.18424e-13 5.55049e-14 0 0 -8.21425e-14 3.8733e-13 1.25492e-13 -6.08115e-15 0 0 -9.73439e-14 5.09691e-13 1.74825e-13 -7.02926e-14 0 0 -7.18834e-14 5.06513e-13 2.34886e-13 -8.76894e-14 0 0 3.64249e-15 4.70647e-13 2.86168e-13 -7.57751e-14 0 0 1.00112e-13 4.08515e-13 3.5229e-13 -4.10496e-14 0 0 1.87451e-13 3.66592e-13 4.06853e-13 -8.99987e-15 0 0 2.88633e-13 2.91578e-13 5.08671e-13 -2.80051e-14 0 0 2.90553e-13 2.99669e-13 6.27682e-13 -8.82748e-14 0 0 1.84805e-13 4.3205e-13 5.43995e-13 -1.26643e-14 0 0 -1.97045e-15 6.34283e-13 3.83399e-13 3.4182e-14 0 0 -3.77714e-14 6.7722e-13 2.73092e-13 -5.83922e-15 0 0 -2.29343e-14 6.75308e-13 6.85549e-14 2.86851e-14 0 0 8.67836e-14 6.3369e-13 -1.68685e-14 1.01469e-13 0 0 2.04296e-13 5.3098e-13 -3.34589e-14 1.75763e-13 0 0 2.67694e-13 3.87846e-13 4.44754e-14 1.62556e-13 0 0 3.22765e-13 2.24042e-13 2.76563e-13 2.85738e-14 0 0 3.31405e-13 2.05662e-13 4.05214e-13 -5.47921e-14 0 0 3.08542e-13 2.40337e-13 3.93787e-13 -3.72949e-14 0 0 2.4992e-13 3.55839e-13 3.34385e-13 9.29906e-15 0 0 1.5625e-13 5.23518e-13 2.20637e-13 6.09362e-14 0 0 3.87739e-14 6.88162e-13 9.72315e-14 1.31047e-13 0 0 1.39762e-14 6.98844e-13 9.20666e-14 1.22422e-13 0 0 5.89066e-14 5.78971e-13 2.05559e-13 3.91942e-15 0 0 1.03364e-13 3.80753e-13 3.70324e-13 -7.42566e-14 0 0 1.5989e-13 2.40541e-13 4.04492e-13 -4.40198e-14 0 0 1.99277e-13 9.34477e-14 4.82088e-13 -5.63244e-14 0 0 1.52054e-13 8.06111e-14 4.78097e-13 -2.87075e-14 0 0 5.76807e-14 2.1749e-13 2.81348e-13 1.13015e-13 0 0 6.03312e-14 2.57784e-13 1.54761e-13 2.22193e-13 0 0 1.06151e-13 2.53996e-13 1.25446e-13 2.85833e-13 0 0 1.50224e-13 2.61354e-13 1.24833e-13 2.61797e-13 0 0 1.64041e-13 2.49232e-13 2.12555e-13 1.23194e-13 0 0 1.62494e-13 2.18302e-13 2.89395e-13 1.19681e-13 0 0 1.38358e-13 2.19979e-13 2.93991e-13 1.19011e-13 0 0 1.18501e-13 2.45138e-13 2.90638e-13 4.39903e-14 0 0 1.04172e-13 2.53312e-13 2.70254e-13 6.38916e-14 0 0 8.62255e-14 2.22486e-13 2.82552e-13 1.64394e-13 0 0 8.0379e-14 2.09268e-13 2.92782e-13 1.45739e-13 0 0 8.70544e-14 2.10006e-13 2.78174e-13 4.37402e-14 0 0 1.2211e-13 1.515e-13 2.96485e-13 4.42233e-14 0 0 1.06733e-13 1.09914e-13 2.92631e-13 7.16092e-14 0 0 8.14465e-14 1.08196e-13 3.22419e-13 2.02506e-13 0 0 9.93055e-14 7.8252e-14 4.35308e-13 1.91079e-13 0 0 8.15309e-14 1.69531e-13 3.83813e-13 1.37833e-13 0 0 1.10647e-13 2.19753e-13 3.45227e-13 2.1474e-13 0 0 1.49051e-13 2.07618e-13 4.74753e-13 1.42783e-13 0 0 7.31809e-14 3.46805e-13 4.56768e-13 1.71955e-13 0 0 1.004e-13 3.4318e-13 5.07663e-13 1.23e-13 0 0 9.62971e-14 3.9793e-13 4.7308e-13 1.47288e-13 0 0 1.37876e-13 3.62303e-13 5.57842e-13 1.33583e-13 0 0 2.1159e-13 2.60368e-13 7.05928e-13 1.31883e-13 0 0 1.15833e-13 4.3566e-13 5.49636e-13 3.26223e-13 0 0 1.51432e-13 4.06167e-13 6.0152e-13 3.2465e-13 0 0 2.20596e-13 3.35824e-13 6.48198e-13 3.23272e-13 0 0 1.88696e-13 4.22736e-13 6.19175e-13 3.45038e-13 0 0 1.1891e-13 5.50259e-13 5.65898e-13 4.26811e-13 0 0 1.52021e-13 5.51293e-13 5.38972e-13 4.77202e-13 0 0 2.90266e-13 4.47298e-13 5.61778e-13 5.12328e-13 0 0 4.11107e-13 3.43214e-13 6.45571e-13 3.95575e-13 0 0 3.67239e-13 4.76221e-13 6.23316e-13 2.56888e-13 0 0 3.02292e-13 6.01417e-13 6.20172e-13 2.28582e-13 0 0 3.5056e-13 5.09942e-13 7.54802e-13 1.79316e-13 0 0 3.91263e-13 5.33757e-13 7.36124e-13 1.24919e-13 0 0 5.31854e-13 4.48807e-13 7.725e-13 9.92639e-14 0 0 5.27499e-13 5.46179e-13 5.61223e-13 3.63546e-13 0 0 5.02753e-13 6.66755e-13 3.20287e-13 6.25792e-13 0 0 5.86894e-13 5.80787e-13 4.11512e-13 5.15706e-13 0 0 5.16581e-13 6.88348e-13 3.98489e-13 3.52829e-13 0 0 4.95895e-13 6.82413e-13 4.52541e-13 3.0958e-13 0 0 4.29637e-13 6.97223e-13 5.35073e-13 1.63047e-13 0 0 2.9113e-13 8.98323e-13 2.94689e-13 2.87001e-13 0 0 2.73523e-13 8.72821e-13 4.0768e-13 2.11109e-13 0 0 4.80206e-13 6.28254e-13 5.38487e-13 1.3095e-13 0 0 6.71825e-13 4.3383e-13 5.10611e-13 1.7736e-13 0 0 5.00086e-13 5.79195e-13 5.63922e-13 5.24347e-15 0 0 3.67542e-13 7.29802e-13 4.03565e-13 2.24253e-13 0 0 5.11569e-13 4.88108e-13 5.09103e-13 3.5332e-13 0 0 2.65504e-13 7.3415e-13 4.19442e-13 3.07173e-13 0 0 1.71018e-13 8.77654e-13 3.59428e-13 2.20739e-13 0 0 3.17661e-13 6.93956e-13 4.29129e-13 2.25829e-13 0 0 3.37858e-13 6.18796e-13 3.98418e-13 2.95923e-13 0 0 4.64621e-13 4.64576e-13 6.28209e-13 3.91447e-14 0 0 3.74704e-13 6.35378e-13 4.42977e-13 1.10192e-13 0 0 2.64409e-13 6.80374e-13 3.30483e-13 2.20984e-13 0 0 3.69592e-13 4.35434e-13 5.53167e-13 1.57131e-13 0 0 4.8687e-13 3.47341e-13 4.11462e-13 5.19708e-13 0 0 5.57911e-13 1.79275e-13 3.94332e-13 7.49012e-13 0 0 4.13425e-13 2.4103e-13 4.88381e-13 6.32505e-13 0 0 1.92446e-13 5.13438e-13 5.37401e-13 4.24887e-13 0 0 4.11e-13 2.6536e-13 6.73931e-13 3.67732e-13 0 0 4.89659e-13 2.93353e-13 4.58516e-13 5.35299e-13 0 0 3.21283e-13 4.53459e-13 4.40213e-13 4.2586e-13 0 0 1.23215e-13 6.17024e-13 4.16975e-13 3.74509e-13 0 0 1.14934e-13 7.55643e-13 2.23569e-13 6.14595e-13 0 0 3.09592e-13 5.60357e-13 3.60247e-13 7.172e-13 0 0 1.09545e-13 7.75779e-13 2.15616e-13 8.32379e-13 0 0 4.67965e-14 7.74476e-13 3.40604e-13 6.72485e-13 0 0 3.61026e-14 6.92287e-13 7.30071e-13 2.70485e-13 0 0 -1.72225e-13 1.03852e-12 5.32143e-13 2.64353e-13 0 0 -3.90909e-14 8.24739e-13 6.79707e-13 1.44225e-13 0 0 1.41472e-13 4.64365e-13 8.62893e-13 1.56577e-13 0 0 1.66601e-13 3.55105e-13 9.92467e-13 1.02729e-13 0 0 1.57395e-13 2.63203e-13 1.31766e-12 -2.14396e-13 0
				</DataArray>
				<DataArray Name="VitesseY" type="Float32" format="ascii">