<?xml version="1.0"?>
<VTKFile type="PolyData">
	<PolyData>
		<Piece NumberOfPoints="1206" NumberOfPolys="1000">
			<Points>
				<DataArray type="Float32" NumberOfComponents="3" format="ascii">
 0 0 0 0.02 0 0 0.04 0 0 0.06 0 0 0.08 0 0 0.1 0 0 0 0.005 0 0.02 0.005 0 0.04 0.005 0 0.06 0.005 0 0.08 0.005 0 0.1 0.005 0 0 0.01 0 0.02 0.01 0 0.04 0.01 0 0.06 0.01 0 0.08 0.01 0 0.1 0.01 0 0 0.015 0 0.02 0.015 0 0.04 0.015 0 0.06 0.015 0 0.08 0.015 0 0.1 0.015 0 0 0.02 0 0.02 0.02 0 0.04 0.02 0 0.06 0.02 0 0.08 0.02 0 0.1 0.02 0 0 0.025 0 0.02 0.025 0 0.04 0.025 0 0.06 0.025 0 0.08 0.025 0 0.1 0.025 0 0 0.03 0 0.02 0.03 0 0.04 0.03 0 0.06 0.03 0 0.08 0.03 0 0.1 0.03 0 0 0.035 0 0.02 0.035 0 0.04 0.035 0 0.06 0.035 0 0.08 0.035 0 0.1 0.035 0 0 0.04 0 0.02 0.04 0 0.04 0.04 0 0.06 0.04 0 0.08 0.04 0 0.1 0.04 0 0 0.045 0 0.02 0.045 0 0.04 0.045 0 0.06 0.045 0 0.08 0.045 0 0.1 0.045 0 0 0.05 0 0.02 0.05 0 0.04 0.05 0 0.06 0.05 0 0.08 0.05 0 0.1 0.05 0 0 0.055 0 0.02 0.055 0 0.04 0.055 0 0.06 0.055 0 0.08 0.055 0 0.1 0.055 0 0 0.06 0 0.02 0.06 0 0.04 0.06 0 0.06 0.06 0 0.08 0.06 0 0.1 0.06 0 0 0.065 0 0.02 0.065 0 0.04 0.065 0 0.06 0.065 0 0.08 0.065 0 0.1 0.065 0 0 0.07 0 0.02 0.07 0 0.04 0.07 0 0.06 0.07 0 0.08 0.07 0 0.1 0.07 0 0 0.075 0 0.02 0.075 0 0.04 0.075 0 0.06 0.075 0 0.08 0.075 0 0.1 0.075 0 0 0.08 0 0.02 0.08 0 0.04 0.08 0 0.06 0.08 0 0.08 0.08 0 0.1 0.08 0 0 0.085 0 0.02 0.085 0 0.04 0.085 0 0.06 0.085 0 0.08 0.085 0 0.1 0.085 0 0 0.09 0 0.02 0.09 0 0.04 0.09 0 0.06 0.09 0 0.08 0.09 0 0.1 0.09 0 0 0.095 0 0.02 0.095 0 0.04 0.095 0 0.06 0.095 0 0.08 0.095 0 0.1 0.095 0 0 0.1 0 0.02 0.1 0 0.04 0.1 0 0.06 0.1 0 0.08 0.1 0 0.1 0.1 0 0 0.105 0 0.02 0.105 0 0.04 0.105 0 0.06 0.105 0 0.08 0.105 0 0.1 0.105 0 0 0.11 0 0.02 0.11 0 0.04 0.11 0 0.06 0.11 0 0.08 0.11 0 0.1 0.11 0 0 0.115 0 0.02 0.115 0 0.04 0.115 0 0.06 0.115 0 0.08 0.115 0 0.1 0.115 0 0 0.12 0 0.02 0.12 0 0.04 0.12 0 0.06 0.12 0 0.08 0.12 0 0.1 0.12 0 0 0.125 0 0.02 0.125 0 0.04 0.125 0 0.06 0.125 0 0.08 0.125 0 0.1 0.125 0 0 0.13 0 0.02 0.13 0 0.04 0.13 0 0.06 0.13 0 0.08 0.13 0 0.1 0.13 0 0 0.135 0 0.02 0.135 0 0.04 0.135 0 0.06 0.135 0 0.08 0.135 0 0.1 0.135 0 0 0.14 0 0.02 0.14 0 0.04 0.14 0 0.06 0.14 0 0.08 0.14 0 0.1 0.14 0 0 0.145 0 0.02 0.145 0 0.04 0.145 0 0.06 0.145 0 0.08 0.145 0 0.1 0.145 0 0 0.15 0 0.02 0.15 0 0.04 0.15 0 0.06 0.15 0 0.08 0.15 0 0.1 0.15 0 0 0.155 0 0.02 0.155 0 0.04 0.155 0 0.06 0.155 0 0.08 0.155 0 0.1 0.155 0 0 0.16 0 0.02 0.16 0 0.04 0.16 0 0.06 0.16 0 0.08 0.16 0 0.1 0.16 0 0 0.165 0 0.02 0.165 0 0.04 0.165 0 0.06 0.165 0 0.08 0.165 0 0.1 0.165 0 0 0.17 0 0.02 0.17 0 0.04 0.17 0 0.06 0.17 0 0.08 0.17 0 0.1 0.17 0 0 0.175 0 0.02 0.175 0 0.04 0.175 0 0.06 0.175 0 0.08 0.175 0 0.1 0.175 0 0 0.18 0 0.02 0.18 0 0.04 0.18 0 0.06 0.18 0 0.08 0.18 0 0.1 0.18 0 0 0.185 0 0.02 0.185 0 0.04 0.185 0 0.06 0.185 0 0.08 0.185 0 0.1 0.185 0 0 0.19 0 0.02 0.19 0 0.04 0.19 0 0.06 0.19 0 0.08 0.19 0 0.1 0.19 0 0 0.195 0 0.02 0.195 0 0.04 0.195 0 0.06 0.195 0 0.08 0.195 0 0.1 0.195 0 0 0.2 0 0.02 0.2 0 0.04 0.2 0 0.06 0.2 0 0.08 0.2 0 0.1 0.2 0 0 0.205 0 0.02 0.205 0 0.04 0.205 0 0.06 0.205 0 0.08 0.205 0 0.1 0.205 0 0 0.21 0 0.02 0.21 0 0.04 0.21 0 0.06 0.21 0 0.08 0.21 0 0.1 0.21 0 0 0.215 0 0.02 0.215 0 0.04 0.215 0 0.06 0.215 0 0.08 0.215 0 0.1 0.215 0 0 0.22 0 0.02 0.22 0 0.04 0.22 0 0.06 0.22 0 0.08 0.22 0 0.1 0.22 0 0 0.225 0 0.02 0.225 0 0.04 0.225 0 0.06 0.225 0 0.08 0.225 0 0.1 0.225 0 0 0.23 0 0.02 0.23 0 0.04 0.23 0 0.06 0.23 0 0.08 0.23 0 0.1 0.23 0 0 0.235 0 0.02 0.235 0 0.04 0.235 0 0.06 0.235 0 0.08 0.235 0 0.1 0.235 0 0 0.24 0 0.02 0.24 0 0.04 0.24 0 0.06 0.24 0 0.08 0.24 0 0.1 0.24 0 0 0.245 0 0.02 0.245 0 0.04 0.245 0 0.06 0.245 0 0.08 0.245 0 0.1 0.245 0 0 0.25 0 0.02 0.25 0 0.04 0.25 0 0.06 0.25 0 0.08 0.25 0 0.1 0.25 0 0 0.255 0 0.02 0.255 0 0.04 0.255 0 0.06 0.255 0 0.08 0.255 0 0.1 0.255 0 0 0.26 0 0.02 0.26 0 0.04 0.26 0 0.06 0.26 0 0.08 0.26 0 0.1 0.26 0 0 0.265 0 0.02 0.265 0 0.04 0.265 0 0.06 0.265 0 0.08 0.265 0 0.1 0.265 0 0 0.27 0 0.02 0.27 0 0.04 0.27 0 0.06 0.27 0 0.08 0.27 0 0.1 0.27 0 0 0.275 0 0.02 0.275 0 0.04 0.275 0 0.06 0.275 0 0.08 0.275 0 0.1 0.275 0 0 0.28 0 0.02 0.28 0 0.04 0.28 0 0.06 0.28 0 0.08 0.28 0 0.1 0.28 0 0 0.285 0 0.02 0.285 0 0.04 0.285 0 0.06 0.285 0 0.08 0.285 0 0.1 0.285 0 0 0.29 0 0.02 0.29 0 0.04 0.29 0 0.06 0.29 0 0.08 0.29 0 0.1 0.29 0 0 0.295 0 0.02 0.295 0 0.04 0.295 0 0.06 0.295 0 0.08 0.295 0 0.1 0.295 0 0 0.3 0 0.02 0.3 0 0.04 0.3 0 0.06 0.3 0 0.08 0.3 0 0.1 0.3 0 0 0.305 0 0.02 0.305 0 0.04 0.305 0 0.06 0.305 0 0.08 0.305 0 0.1 0.305 0 0 0.31 0 0.02 0.31 0 0.04 0.31 0 0.06 0.31 0 0.08 0.31 0 0.1 0.31 0 0 0.315 0 0.02 0.315 0 0.04 0.315 0 0.06 0.315 0 0.08 0.315 0 0.1 0.315 0 0 0.32 0 0.02 0.32 0 0.04 0.32 0 0.06 0.32 0 0.08 0.32 0 0.1 0.32 0 0 0.325 0 0.02 0.325 0 0.04 0.325 0 0.06 0.325 0 0.08 0.325 0 0.1 0.325 0 0 0.33 0 0.02 0.33 0 0.04 0.33 0 0.06 0.33 0 0.08 0.33 0 0.1 0.33 0 0 0.335 0 0.02 0.335 0 0.04 0.335 0 0.06 0.335 0 0.08 0.335 0 0.1 0.335 0 0 0.34 0 0.02 0.34 0 0.04 0.34 0 0.06 0.34 0 0.08 0.34 0 0.1 0.34 0 0 0.345 0 0.02 0.345 0 0.04 0.345 0 0.06 0.345 0 0.08 0.345 0 0.1 0.345 0 0 0.35 0 0.02 0.35 0 0.04 0.35 0 0.06 0.35 0 0.08 0.35 0 0.1 0.35 0 0 0.355 0 0.02 0.355 0 0.04 0.355 0 0.06 0.355 0 0.08 0.355 0 0.1 0.355 0 0 0.36 0 0.02 0.36 0 0.04 0.36 0 0.06 0.36 0 0.08 0.36 0 0.1 0.36 0 0 0.365 0 0.02 0.365 0 0.04 0.365 0 0.06 0.365 0 0.08 0.365 0 0.1 0.365 0 0 0.37 0 0.02 0.37 0 0.04 0.37 0 0.06 0.37 0 0.08 0.37 0 0.1 0.37 0 0 0.375 0 0.02 0.375 0 0.04 0.375 0 0.06 0.375 0 0.08 0.375 0 0.1 0.375 0 0 0.38 0 0.02 0.38 0 0.04 0.38 0 0.06 0.38 0 0.08 0.38 0 0.1 0.38 0 0 0.385 0 0.02 0.385 0 0.04 0.385 0 0.06 0.385 0 0.08 0.385 0 0.1 0.385 0 0 0.39 0 0.02 0.39 0 0.04 0.39 0 0.06 0.39 0 0.08 0.39 0 0.1 0.39 0 0 0.395 0 0.02 0.395 0 0.04 0.395 0 0.06 0.395 0 0.08 0.395 0 0.1 0.395 0 0 0.4 0 0.02 0.4 0 0.04 0.4 0 0.06 0.4 0 0.08 0.4 0 0.1 0.4 0 0 0.405 0 0.02 0.405 0 0.04 0.405 0 0.06 0.405 0 0.08 0.405 0 0.1 0.405 0 0 0.41 0 0.02 0.41 0 0.04 0.41 0 0.06 0.41 0 0.08 0.41 0 0.1 0.41 0 0 0.415 0 0.02 0.415 0 0.04 0.415 0 0.06 0.415 0 0.08 0.415 0 0.1 0.415 0 0 0.42 0 0.02 0.42 0 0.04 0.42 0 0.06 0.42 0 0.08 0.42 0 0.1 0.42 0 0 0.425 0 0.02 0.425 0 0.04 0.425 0 0.06 0.425 0 0.08 0.425 0 0.1 0.425 0 0 0.43 0 0.02 0.43 0 0.04 0.43 0 0.06 0.43 0 0.08 0.43 0 0.1 0.43 0 0 0.435 0 0.02 0.435 0 0.04 0.435 0 0.06 0.435 0 0.08 0.435 0 0.1 0.435 0 0 0.44 0 0.02 0.44 0 0.04 0.44 0 0.06 0.44 0 0.08 0.44 0 0.1 0.44 0 0 0.445 0 0.02 0.445 0 0.04 0.445 0 0.06 0.445 0 0.08 0.445 0 0.1 0.445 0 0 0.45 0 0.02 0.45 0 0.04 0.45 0 0.06 0.45 0 0.08 0.45 0 0.1 0.45 0 0 0.455 0 0.02 0.455 0 0.04 0.455 0 0.06 0.455 0 0.08 0.455 0 0.1 0.455 0 0 0.46 0 0.02 0.46 0 0.04 0.46 0 0.06 0.46 0 0.08 0.46 0 0.1 0.46 0 0 0.465 0 0.02 0.465 0 0.04 0.465 0 0.06 0.465 0 0.08 0.465 0 0.1 0.465 0 0 0.47 0 0.02 0.47 0 0.04 0.47 0 0.06 0.47 0 0.08 0.47 0 0.1 0.47 0 0 0.475 0 0.02 0.475 0 0.04 0.475 0 0.06 0.475 0 0.08 0.475 0 0.1 0.475 0 0 0.48 0 0.02 0.48 0 0.04 0.48 0 0.06 0.48 0 0.08 0.48 0 0.1 0.48 0 0 0.485 0 0.02 0.485 0 0.04 0.485 0 0.06 0.485 0 0.08 0.485 0 0.1 0.485 0 0 0.49 0 0.02 0.49 0 0.04 0.49 0 0.06 0.49 0 0.08 0.49 0 0.1 0.49 0 0 0.495 0 0.02 0.495 0 0.04 0.495 0 0.06 0.495 0 0.08 0.495 0 0.1 0.495 0 0 0.5 0 0.02 0.5 0 0.04 0.5 0 0.06 0.5 0 0.08 0.5 0 0.1 0.5 0 0 0.505 0 0.02 0.505 0 0.04 0.505 0 0.06 0.505 0 0.08 0.505 0 0.1 0.505 0 0 0.51 0 0.02 0.51 0 0.04 0.51 0 0.06 0.51 0 0.08 0.51 0 0.1 0.51 0 0 0.515 0 0.02 0.515 0 0.04 0.515 0 0.06 0.515 0 0.08 0.515 0 0.1 0.515 0 0 0.52 0 0.02 0.52 0 0.04 0.52 0 0.06 0.52 0 0.08 0.52 0 0.1 0.52 0 0 0.525 0 0.02 0.525 0 0.04 0.525 0 0.06 0.525 0 0.08 0.525 0 0.1 0.525 0 0 0.53 0 0.02 0.53 0 0.04 0.53 0 0.06 0.53 0 0.08 0.53 0 0.1 0.53 0 0 0.535 0 0.02 0.535 0 0.04 0.535 0 0.06 0.535 0 0.08 0.535 0 0.1 0.535 0 0 0.54 0 0.02 0.54 0 0.04 0.54 0 0.06 0.54 0 0.08 0.54 0 0.1 0.54 0 0 0.545 0 0.02 0.545 0 0.04 0.545 0 0.06 0.545 0 0.08 0.545 0 0.1 0.545 0 0 0.55 0 0.02 0.55 0 0.04 0.55 0 0.06 0.55 0 0.08 0.55 0 0.1 0.55 0 0 0.555 0 0.02 0.555 0 0.04 0.555 0 0.06 0.555 0 0.08 0.555 0 0.1 0.555 0 0 0.56 0 0.02 0.56 0 0.04 0.56 0 0.06 0.56 0 0.08 0.56 0 0.1 0.56 0 0 0.565 0 0.02 0.565 0 0.04 0.565 0 0.06 0.565 0 0.08 0.565 0 0.1 0.565 0 0 0.57 0 0.02 0.57 0 0.04 0.57 0 0.06 0.57 0 0.08 0.57 0 0.1 0.57 0 0 0.575 0 0.02 0.575 0 0.04 0.575 0 0.06 0.575 0 0.08 0.575 0 0.1 0.575 0 0 0.58 0 0.02 0.58 0 0.04 0.58 0 0.06 0.58 0 0.08 0.58 0 0.1 0.58 0 0 0.585 0 0.02 0.585 0 0.04 0.585 0 0.06 0.585 0 0.08 0.585 0 0.1 0.585 0 0 0.59 0 0.02 0.59 0 0.04 0.59 0 0.06 0.59 0 0.08 0.59 0 0.1 0.59 0 0 0.595 0 0.02 0.595 0 0.04 0.595 0 0.06 0.595 0 0.08 0.595 0 0.1 0.595 0 0 0.6 0 0.02 0.6 0 0.04 0.6 0 0.06 0.6 0 0.08 0.6 0 0.1 0.6 0 0 0.605 0 0.02 0.605 0 0.04 0.605 0 0.06 0.605 0 0.08 0.605 0 0.1 0.605 0 0 0.61 0 0.02 0.61 0 0.04 0.61 0 0.06 0.61 0 0.08 0.61 0 0.1 0.61 0 0 0.615 0 0.02 0.615 0 0.04 0.615 0 0.06 0.615 0 0.08 0.615 0 0.1 0.615 0 0 0.62 0 0.02 0.62 0 0.04 0.62 0 0.06 0.62 0 0.08 0.62 0 0.1 0.62 0 0 0.625 0 0.02 0.625 0 0.04 0.625 0 0.06 0.625 0 0.08 0.625 0 0.1 0.625 0 0 0.63 0 0.02 0.63 0 0.04 0.63 0 0.06 0.63 0 0.08 0.63 0 0.1 0.63 0 0 0.635 0 0.02 0.635 0 0.04 0.635 0 0.06 0.635 0 0.08 0.635 0 0.1 0.635 0 0 0.64 0 0.02 0.64 0 0.04 0.64 0 0.06 0.64 0 0.08 0.64 0 0.1 0.64 0 0 0.645 0 0.02 0.645 0 0.04 0.645 0 0.06 0.645 0 0.08 0.645 0 0.1 0.645 0 0 0.65 0 0.02 0.65 0 0.04 0.65 0 0.06 0.65 0 0.08 0.65 0 0.1 0.65 0 0 0.655 0 0.02 0.655 0 0.04 0.655 0 0.06 0.655 0 0.08 0.655 0 0.1 0.655 0 0 0.66 0 0.02 0.66 0 0.04 0.66 0 0.06 0.66 0 0.08 0.66 0 0.1 0.66 0 0 0.665 0 0.02 0.665 0 0.04 0.665 0 0.06 0.665 0 0.08 0.665 0 0.1 0.665 0 0 0.67 0 0.02 0.67 0 0.04 0.67 0 0.06 0.67 0 0.08 0.67 0 0.1 0.67 0 0 0.675 0 0.02 0.675 0 0.04 0.675 0 0.06 0.675 0 0.08 0.675 0 0.1 0.675 0 0 0.68 0 0.02 0.68 0 0.04 0.68 0 0.06 0.68 0 0.08 0.68 0 0.1 0.68 0 0 0.685 0 0.02 0.685 0 0.04 0.685 0 0.06 0.685 0 0.08 0.685 0 0.1 0.685 0 0 0.69 0 0.02 0.69 0 0.04 0.69 0 0.06 0.69 0 0.08 0.69 0 0.1 
[...]
			<PointData Scalars="VitesseX">
				<DataArray Name="VitesseX" type="Float32" format="ascii">
 0 1.6058e-14 5.5187e-14 3.31079e-14 2.17269e-14 0 0 2.13856e-14 4.31178e-14 4.30228e-14 1.43598e-14 0 0 2.42419e-14 3.33227e-14 4.44026e-14 1.07287e-14 0 0 2.53466e-14 3.34736e-14 2.67122e-14 1.74977e-14 0 0 3.8234e-14 1.77649e-14 2.43947e-14 1.0125e-14 0 0 4.7083e-14 -1.65571e-15 3.28297e-14 -5.01302e-15 0 0 2.26024e-14 2.31318e-14 5.18745e-15 6.2701e-15 0 0 8.02256e-15 4.7781e-14 -2.78451e-14 2.59672e-14 0 0 1.66908e-14 3.99531e-14 -2.34486e-14 2.91751e-14 0 0 3.53004e-14 1.54355e-14 3.34339e-15 2.16836e-14 0 0 2.31695e-14 3.3558e-14 -3.39408e-15 2.31947e-14 0 0 4.65201e-15 4.94051e-14 7.52372e-15 5.5073e-16 0 0 -7.94962e-15 5.71365e-14 1.95651e-14 -1.98385e-14 0 0 -3.96888e-15 3.81145e-14 4.39819e-14 -2.67891e-14 0 0 1.62249e-14 1.68908e-14 4.78976e-14 -1.12594e-14 0 0 1.0511e-14 3.86138e-14 1.38441e-14 1.27305e-14 0 0 3.25247e-14 -3.67681e-16 4.58853e-14 7.59628e-15 0 0 2.36024e-14 3.33795e-14 -1.00884e-15 5.04266e-14 0 0 3.32808e-14 4.43216e-14 -2.71389e-14 8.50826e-14 0 0 4.29274e-14 4.57013e-14 -2.64356e-14 9.73851e-14 0 0 1.44788e-15 1.1903e-13 -7.67324e-14 1.10271e-13 0 0 -7.65556e-15 1.37469e-13 -8.71829e-14 1.36025e-13 0 0 6.3459e-14 2.50962e-14 5.37012e-14 5.82311e-14 0 0 1.14623e-13 -4.2913e-14 1.54517e-13 -3.46185e-14 0 0 2.39209e-14 1.16378e-13 2.92587e-14 6.39931e-15 0 0 -4.98552e-14 2.46589e-13 -1.0081e-13 6.43679e-14 0 0 4.10177e-14 1.00565e-13 2.3215e-14 -1.40171e-14 0 0 9.33458e-14 9.34312e-15 1.17861e-13 -7.29742e-14 0 0 6.71818e-14 6.12527e-14 6.86334e-14 -5.88996e-14 0 0 5.23034e-14 6.86478e-14 6.90889e-14 -6.43233e-14 0 0 5.03397e-14 6.73638e-14 6.53903e-14 -4.54277e-14 0 0 4.30844e-14 6.94491e-14 7.63224e-14 -4.54818e-14 0 0 1.82574e-14 1.0245e-13 1.31927e-14 2.77467e-14 0 0 2.83538e-14 8.11338e-14 6.2378e-17 7.85458e-14 0 0 4.14745e-14 2.18378e-14 9.18356e-14 2.44769e-14 0 0 4.23827e-15 7.34808e-14 6.22316e-14 2.7453e-14 0 0 3.25395e-15 1.00711e-13 1.66859e-14 7.68852e-14 0 0 7.22844e-14 1.25955e-14 1.0781e-13 3.02618e-14 0 0 6.41304e-14 5.18944e-14 8.64801e-14 2.09455e-14 0 0 5.88465e-14 8.5186e-14 2.70214e-14 6.04051e-14 0 0 1.07654e-13 3.7159e-14 4.29031e-14 5.15888e-14 0 0 9.75491e-14 7.89865e-14 1.98572e-14 2.16867e-14 0 0 9.97453e-14 5.02888e-14 7.52179e-14 -2.20042e-14 0 0 8.55223e-14 4.856e-14 6.94016e-14 1.20051e-14 0 0 -1.97408e-14 1.78075e-13 -1.63927e-14 7.26535e-14 0 0 1.18219e-14 8.22874e-14 1.11779e-13 2.3663e-14 0 0 1.26112e-13 -1.02023e-13 2.27907e-13 3.52e-15 0 0 1.45113e-13 -1.24508e-13 2.26532e-13 1.58893e-14 0 0 8.89297e-14 -5.9764e-14 1.82484e-13 4.52247e-14 0 0 -6.62967e-14 1.33764e-13 5.99996e-14 1.02718e-13 0 0 -1.47366e-13 2.79358e-13 -4.43055e-14 1.50066e-13 0 0 -3.59958e-14 1.69727e-13 -3.75893e-14 1.97012e-13 0 0 1.86458e-13 -1.7376e-13 2.80664e-13 1.63623e-15 0 0 7.92317e-14 -1.73836e-15 1.37099e-13 4.41045e-14 0 0 -1.16215e-13 2.87568e-13 -1.33383e-13 1.89734e-13 0 0 -4.16298e-14 1.03584e-13 1.10323e-13 2.99319e-14 0 0 -1.73891e-14 7.56047e-14 1.23712e-13 2.63545e-14 0 0 8.2781e-15 6.90835e-14 7.73223e-14 1.02782e-13 0 0 5.14756e-14 2.69164e-14 1.31858e-13 7.79841e-14 0 0 4.14425e-14 8.10814e-14 1.24358e-13 5.64257e-14 0 0 4.03219e-14 1.3541e-13 5.29018e-14 1.27395e-13 0 0 4.65619e-14 1.58148e-13 5.86338e-14 3.99657e-14 0 0 5.6634e-14 1.63717e-13 1.03878e-13 -1.21679e-13 0 0 1.45309e-13 1.14013e-13 7.38515e-15 -3.83635e-14 0 0 2.21457e-13 8.57677e-14 -7.80594e-14 6.2548e-14 0 0 1.6486e-13 1.39959e-13 -8.13114e-14 1.16349e-13 0 0 1.21438e-13 1.05456e-13 7.42345e-14 6.79229e-14 0 0 1.2734e-13 1.22435e-13 9.73485e-14 5.4911e-14 0 0 1.99253e-14 3.28307e-13 -1.27185e-13 2.74544e-13 0 0 1.12532e-13 1.52859e-13 9.74442e-14 2.24078e-13 0 0 2.93392e-13 -1.14939e-13 4.40058e-13 -3.02998e-15 0 0 1.2783e-13 1.48117e-13 2.585e-13 7.48912e-14 0 0 -8.62251e-14 4.73678e-13 -4.12994e-14 2.82278e-13 0 0 -1.32404e-13 5.3322e-13 -9.93432e-14 3.79161e-13 0 0 -9.17038e-16 2.04896e-13 3.16406e-13 1.68318e-13 0 0 1.30076e-13 9.20049e-15 5.69422e-13 9.39514e-14 0 0 -2.60456e-14 3.89908e-13 8.39179e-14 5.33408e-13 0 0 -1.82864e-13 5.44691e-13 7.56295e-15 5.28373e-13 0 0 -1.65648e-13 4.73158e-13 2.41312e-13 2.22e-13 0 0 1.32777e-13 2.1876e-13 3.5949e-13 1.93886e-13 0 0 4.2121e-14 4.18528e-13 9.09968e-14 4.74541e-13 0 0 -1.31495e-13 5.05346e-13 3.0806e-13 2.42333e-13 0 0 2.10501e-13 4.03348e-14 1.07429e-12 -4.07397e-13 0 0 1.38037e-13 5.42517e-13 5.82745e-13 -2.43805e-13 0 0 -8.1731e-14 1.3928e-12 -5.19287e-13 3.87122e-13 0 0 2.34952e-13 1.13421e-12 -5.12293e-13 4.97648e-13 0 0 9.27927e-13 2.49648e-13 4.06222e-13 -1.10885e-13 0 0 8.20863e-13 2.5501e-13 7.91323e-13 -5.69865e-13 0 0 4.64845e-13 6.03391e-13 5.0544e-13 -3.16064e-13 0 0 2.07487e-13 9.24965e-13 1.89304e-13 -1.58149e-14 0 0 1.8327e-14 1.13277e-12 4.06323e-15 1.51731e-13 0 0 5.61686e-14 1.06263e-12 6.78795e-14 1.28731e-13 0 0 1.9162e-13 7.5498e-13 3.2546e-13 4.36913e-14 0 0 5.93812e-13 1.91845e-13 5.48253e-13 4.12848e-14 0 0 8.82658e-13 -6.61484e-14 5.45964e-13 1.92075e-13 0 0 8.48491e-13 -6.24005e-15 3.84846e-13 3.6433e-13 0 0 6.90484e-13 2.27817e-13 1.59767e-13 3.94039e-13 0 0 4.69356e-13 4.84065e-13 7.0348e-15 3.54758e-13 0 0 2.90517e-13 6.07957e-13 -3.17562e-14 2.6255e-13 0 0 2.87905e-13 5.88078e-13 -3.54624e-15 1.87793e-13 0 0 3.56492e-13 4.53909e-13 1.347e-13 1.38362e-13 0 0 4.27174e-13 2.63399e-13 3.24592e-13 1.10818e-13 0 0 4.12135e-13 9.68191e-14 4.03589e-13 8.72945e-14 0 0 2.96291e-13 7.20344e-15 4.13263e-13 5.39887e-14 0 0 1.1829e-13 2.36587e-14 3.98563e-13 3.70799e-14 0 0 -5.59359e-14 1.07263e-13 3.54461e-13 4.01395e-14 0 0 -1.23077e-13 1.26374e-13 3.61168e-13 -1.07521e-14 0 0 -9.67676e-14 6.22334e-14 4.50934e-13 -9.07721e-14 0 0 1.1849e-14 -5.62818e-14 5.32193e-13 -6.0456e-14 0 0 9.29484e-14 -3.32729e-14 4.88765e-13 4.07798e-15 0 0 1.42551e-13 3.09102e-15 4.16274e-13 9.45504e-14 0 0 1.17072e-13 1.64397e-13 2.04593e-13 3.20479e-13 0 0 5.90324e-14 3.49831e-13 -2.93534e-14 5.60961e-13 0 0 9.03082e-14 3.18309e-13 -1.52238e-14 5.80141e-13 0 0 1.51735e-13 1.7465e-13 1.01281e-13 5.73813e-13 0 0 1.4911e-13 4.58105e-14 2.89215e-13 4.91838e-13 0 0 1.17043e-13 2.47844e-14 3.96092e-13 3.5971e-13 0 0 8.71738e-14 4.41549e-14 4.27472e-13 2.54295e-13 0 0 4.3002e-14 1.07959e-13 3.81596e-13 2.50819e-13 0 0 4.46955e-14 1.22787e-13 3.47447e-13 2.56199e-13 0 0 6.37128e-14 1.34315e-13 3.13243e-13 3.0814e-13 0 0 8.99193e-14 1.83387e-13 2.32528e-13 3.12223e-13 0 0 1.39109e-13 2.04388e-13 2.31134e-13 1.64136e-13 0 0 1.3888e-13 2.65933e-13 1.52255e-13 8.93359e-14 0 0 1.58878e-13 2.21537e-13 1.31566e-13 8.89008e-14 0 0 1.55816e-13 2.02307e-13 1.14964e-13 7.61246e-14 0 0 6.80732e-14 2.96146e-13 -5.98214e-14 1.89294e-13 0 0 3.74982e-14 3.05715e-13 -6.22365e-14 2.07927e-13 0 0 7.09563e-14 1.95293e-13 1.3496e-13 1.1402e-13 0 0 1.27064e-13 1.40168e-13 1.78107e-13 2.13091e-13 0 0 1.36659e-13 2.63349e-13 9.2047e-14 2.84902e-13 0 0 1.95232e-13 2.71137e-13 2.122e-13 7.38076e-14 0 0 1.60521e-13 3.90608e-13 2.07746e-13 1.32224e-13 0 0 2.0639e-13 3.71139e-13 3.40442e-13 1.12981e-13 0 0 2.74414e-13 3.26624e-13 4.96365e-13 2.53719e-14 0 0 2.90355e-13 3.74992e-13 4.92616e-13 8.20806e-14 0 0 2.86582e-13 4.43191e-13 4.41297e-13 1.54086e-13 0 0 2.31809e-13 6.39511e-13 2.19036e-13 2.96969e-13 0 0 3.86053e-13 4.94687e-13 2.98511e-13 3.0275e-13 0 0 4.81264e-13 3.92044e-13 3.53814e-13 3.43945e-13 0 0 4.95641e-13 4.08902e-13 3.11237e-13 3.53084e-13 0 0 6.04363e-13 2.42168e-13 5.23206e-13 1.41426e-13 0 0 3.68998e-13 6.36484e-13 1.48743e-13 3.17999e-13 0 0 2.85545e-13 7.59979e-13 5.84465e-15 4.21874e-13 0 0 5.00486e-13 3.88482e-13 3.86347e-13 9.20476e-14 0 0 4.33877e-13 5.37678e-13 1.3331e-13 2.1522e-13 0 0 5.01177e-13 4.12147e-13 1.41583e-13 3.24828e-13 0 0 4.36487e-13 4.99034e-13 7.85115e-15 4.30735e-13 0 0 3.19896e-13 6.90211e-13 -2.05492e-13 5.35761e-13 0 0 4.75609e-13 3.34396e-13 1.91792e-13 2.84731e-13 0 0 3.13532e-13 4.98302e-13 5.52646e-14 3.66627e-13 0 0 3.25038e-13 4.33682e-13 1.61527e-13 2.26812e-13 0 0 3.2359e-13 4.75404e-13 1.55003e-13 1.18664e-13 0 0 3.67889e-13 5.32639e-13 5.09413e-14 1.0295e-13 0 0 5.7061e-13 2.79024e-13 2.96964e-13 -1.66594e-14 0 0 4.58786e-13 4.2359e-13 2.66102e-13 8.44758e-14 0 0 3.59277e-13 5.41229e-13 2.16183e-13 1.50927e-13 0 0 2.59639e-13 6.32209e-13 2.39196e-13 1.15141e-13 0 0 2.65619e-13 5.4699e-13 4.74951e-13 5.97384e-14 0 0 2.34397e-13 7.03013e-13 1.04658e-13 5.7783e-13 0 0 3.40732e-13 5.73246e-13 1.16647e-13 6.14724e-13 0 0 2.96515e-13 5.9416e-13 2.34594e-13 3.34893e-13 0 0 2.44852e-13 6.36768e-13 3.23406e-13 9.75286e-14 0 0 2.80763e-13 4.46541e-13 6.66797e-13 -1.39309e-13 0 0 1.84903e-13 6.10882e-13 4.27348e-13 1.47946e-13 0 0 1.1871e-13 7.52197e-13 2.31482e-13 2.71484e-13 0 0 8.86195e-14 6.16817e-13 4.98838e-13 4.02955e-14 0 0 3.17416e-13 2.85105e-13 6.40986e-13 7.70809e-14 0 0 5.83148e-13 -7.00393e-14 7.68111e-13 1.778e-13 0 0 3.19311e-13 1.06101e-13 7.26568e-13 1.69272e-13 0 0 1.91521e-13 2.22987e-13 6.70328e-13 1.67151e-13 0 0 2.43999e-13 2.29882e-13 7.56234e-13 4.70689e-14 0 0 5.24152e-14 6.06875e-13 3.5823e-13 2.75937e-13 0 0 2.77045e-13 3.15657e-13 4.53103e-13 3.09632e-13 0 0 1.4934e-13 5.39802e-13 1.65938e-13 4.53091e-13 0 0 2.14091e-13 3.62734e-13 5.05843e-13 2.84295e-14 0 0 4.38503e-13 1.79568e-14 8.07011e-13 -2.68134e-13 0 0 1.33841e-13 4.87921e-13 1.56604e-13 1.59408e-13 0 0 3.22835e-13 1.04866e-13 5.42924e-13 -1.30417e-13 0 0 3.44543e-13 1.01243e-13 5.2146e-13 -2.33436e-13 0 0 3.10598e-13 1.58326e-13 3.83609e-13 -2.04892e-13 0 0 3.86174e-13 3.77605e-14 4.14465e-13 -5.77575e-14 0 0 2.06755e-13 3.38706e-13 1.09292e-13 2.45831e-13 0 0 2.73197e-13 2.23072e-13 3.62953e-13 -9.747e-14 0 0 1.27398e-13 4.82145e-13 1.38239e-13 1.1503e-14 0 0 3.65703e-13 3.81707e-13 -1.22743e-13 4.5703e-13 0 0 7.41662e-13 3.74544e-14 7.08186e-14 3.48808e-13 0 0 5.74057e-13 2.75714e-13 5.77881e-14 2.03363e-13 0 0 5.05712e-13 1.14569e-13 4.79165e-13 -3.77712e-14 0 0 4.25262e-13 6.57962e-14 5.52984e-13 5.1807e-14 0 0 6.19521e-13 4.84377e-15 3.83285e-13 2.40895e-13 0 0 8.0465e-13 -1.40322e-13 5.14039e-13 8.08076e-14 0 0 2.67404e-13 4.70917e-13 2.35438e-13 1.00501e-13 0 0 3.15762e-14 8.55751e-13 -3.92723e-14 1.80576e-13 0 0 4.79445e-13 4.85392e-13 -1.36919e-13 4.96232e-13 0 0 6.58156e-13 3.42184e-13 -1.54729e-13 6.5728e-13 0 0 7.12071e-13 6.84214e-14 4.56518e-13 2.11121e-13 0 0 5.43372e-13 1.74751e-13 3.781e-13 5.20526e-13 0 0 4.00908e-13 4.43284e-13 -5.23092e-14 8.87761e-13 0 0 6.45441e-13 2.32005e-13 -1.77859e-13 8.70674e-13 0 0 7.30494e-13 2.7119e-13 -5.04082e-13 1.07007e-12 0
				</DataArray>
				<DataArray Name="VitesseY" type="Float32" format="ascii">