<?xml version="1.0"?>
<VTKFile type="PolyData">
	<PolyData>
		<Piece NumberOfPoints="1206" NumberOfPolys="1000">
			<Points>
				<DataArray type="Float32" NumberOfComponents="3" format="ascii">
 0 0 0 0.02 0 0 0.04 0 0 0.06 0 0 0.08 0 0 0.1 0 0 0 0.005 0 0.02 0.005 0 0.04 0.005 0 0.06 0.005 0 0.08 0.005 0 0.1 0.005 0 0 0.01 0 0.02 0.01 0 0.04 0.01 0 0.06 0.01 0 0.08 0.01 0 0.1 0.01 0 0 0.015 0 0.02 0.015 0 0.04 0.015 0 0.06 0.015 0 0.08 0.015 0 0.1 0.015 0 0 0.02 0 0.02 0.02 0 0.04 0.02 0 0.06 0.02 0 0.08 0.02 0 0.1 0.02 0 0 0.025 0 0.02 0.025 0 0.04 0.025 0 0.06 0.025 0 0.08 0.025 0 0.1 0.025 0 0 0.03 0 0.02 0.03 0 0.04 0.03 0 0.06 0.03 0 0.08 0.03 0 0.1 0.03 0 0 0.035 0 0.02 0.035 0 0.04 0.035 0 0.06 0.035 0 0.08 0.035 0 0.1 0.035 0 0 0.04 0 0.02 0.04 0 0.04 0.04 0 0.06 0.04 0 0.08 0.04 0 0.1 0.04 0 0 0.045 0 0.02 0.045 0 0.04 0.045 0 0.06 0.045 0 0.08 0.045 0 0.1 0.045 0 0 0.05 0 0.02 0.05 0 0.04 0.05 0 0.06 0.05 0 0.08 0.05 0 0.1 0.05 0 0 0.055 0 0.02 0.055 0 0.04 0.055 0 0.06 0.055 0 0.08 0.055 0 0.1 0.055 0 0 0.06 0 0.02 0.06 0 0.04 0.06 0 0.06 0.06 0 0.08 0.06 0 0.1 0.06 0 0 0.065 0 0.02 0.065 0 0.04 0.065 0 0.06 0.065 0 0.08 0.065 0 0.1 0.065 0 0 0.07 0 0.02 0.07 0 0.04 0.07 0 0.06 0.07 0 0.08 0.07 0 0.1 0.07 0 0 0.075 0 0.02 0.075 0 0.04 0.075 0 0.06 0.075 0 0.08 0.075 0 0.1 0.075 0 0 0.08 0 0.02 0.08 0 0.04 0.08 0 0.06 0.08 0 0.08 0.08 0 0.1 0.08 0 0 0.085 0 0.02 0.085 0 0.04 0.085 0 0.06 0.085 0 0.08 0.085 0 0.1 0.085 0 0 0.09 0 0.02 0.09 0 0.04 0.09 0 0.06 0.09 0 0.08 0.09 0 0.1 0.09 0 0 0.095 0 0.02 0.095 0 0.04 0.095 0 0.06 0.095 0 0.08 0.095 0 0.1 0.095 0 0 0.1 0 0.02 0.1 0 0.04 0.1 0 0.06 0.1 0 0.08 0.1 0 0.1 0.1 0 0 0.105 0 0.02 0.105 0 0.04 0.105 0 0.06 0.105 0 0.08 0.105 0 0.1 0.105 0 0 0.11 0 0.02 0.11 0 0.04 0.11 0 0.06 0.11 0 0.08 0.11 0 0.1 0.11 0 0 0.115 0 0.02 0.115 0 0.04 0.115 0 0.06 0.115 0 0.08 0.115 0 0.1 0.115 0 0 0.12 0 0.02 0.12 0 0.04 0.12 0 0.06 0.12 0 0.08 0.12 0 0.1 0.12 0 0 0.125 0 0.02 0.125 0 0.04 0.125 0 0.06 0.125 0 0.08 0.125 0 0.1 0.125 0 0 0.13 0 0.02 0.13 0 0.04 0.13 0 0.06 0.13 0 0.08 0.13 0 0.1 0.13 0 0 0.135 0 0.02 0.135 0 0.04 0.135 0 0.06 0.135 0 0.08 0.135 0 0.1 0.135 0 0 0.14 0 0.02 0.14 0 0.04 0.14 0 0.06 0.14 0 0.08 0.14 0 0.1 0.14 0 0 0.145 0 0.02 0.145 0 0.04 0.145 0 0.06 0.145 0 0.08 0.145 0 0.1 0.145 0 0 0.15 0 0.02 0.15 0 0.04 0.15 0 0.06 0.15 0 0.08 0.15 0 0.1 0.15 0 0 0.155 0 0.02 0.155 0 0.04 0.155 0 0.06 0.155 0 0.08 0.155 0 0.1 0.155 0 0 0.16 0 0.02 0.16 0 0.04 0.16 0 0.06 0.16 0 0.08 0.16 0 0.1 0.16 0 0 0.165 0 0.02 0.165 0 0.04 0.165 0 0.06 0.165 0 0.08 0.165 0 0.1 0.165 0 0 0.17 0 0.02 0.17 0 0.04 0.17 0 0.06 0.17 0 0.08 0.17 0 0.1 0.17 0 0 0.175 0 0.02 0.175 0 0.04 0.175 0 0.06 0.175 0 0.08 0.175 0 0.1 0.175 0 0 0.18 0 0.02 0.18 0 0.04 0.18 0 0.06 0.18 0 0.08 0.18 0 0.1 0.18 0 0 0.185 0 0.02 0.185 0 0.04 0.185 0 0.06 0.185 0 0.08 0.185 0 0.1 0.185 0 0 0.19 0 0.02 0.19 0 0.04 0.19 0 0.06 0.19 0 0.08 0.19 0 0.1 0.19 0 0 0.195 0 0.02 0.195 0 0.04 0.195 0 0.06 0.195 0 0.08 0.195 0 0.1 0.195 0 0 0.2 0 0.02 0.2 0 0.04 0.2 0 0.06 0.2 0 0.08 0.2 0 0.1 0.2 0 0 0.205 0 0.02 0.205 0 0.04 0.205 0 0.06 0.205 0 0.08 0.205 0 0.1 0.205 0 0 0.21 0 0.02 0.21 0 0.04 0.21 0 0.06 0.21 0 0.08 0.21 0 0.1 0.21 0 0 0.215 0 0.02 0.215 0 0.04 0.215 0 0.06 0.215 0 0.08 0.215 0 0.1 0.215 0 0 0.22 0 0.02 0.22 0 0.04 0.22 0 0.06 0.22 0 0.08 0.22 0 0.1 0.22 0 0 0.225 0 0.02 0.225 0 0.04 0.225 0 0.06 0.225 0 0.08 0.225 0 0.1 0.225 0 0 0.23 0 0.02 0.23 0 0.04 0.23 0 0.06 0.23 0 0.08 0.23 0 0.1 0.23 0 0 0.235 0 0.02 0.235 0 0.04 0.235 0 0.06 0.235 0 0.08 0.235 0 0.1 0.235 0 0 0.24 0 0.02 0.24 0 0.04 0.24 0 0.06 0.24 0 0.08 0.24 0 0.1 0.24 0 0 0.245 0 0.02 0.245 0 0.04 0.245 0 0.06 0.245 0 0.08 0.245 0 0.1 0.245 0 0 0.25 0 0.02 0.25 0 0.04 0.25 0 0.06 0.25 0 0.08 0.25 0 0.1 0.25 0 0 0.255 0 0.02 0.255 0 0.04 0.255 0 0.06 0.255 0 0.08 0.255 0 0.1 0.255 0 0 0.26 0 0.02 0.26 0 0.04 0.26 0 0.06 0.26 0 0.08 0.26 0 0.1 0.26 0 0 0.265 0 0.02 0.265 0 0.04 0.265 0 0.06 0.265 0 0.08 0.265 0 0.1 0.265 0 0 0.27 0 0.02 0.27 0 0.04 0.27 0 0.06 0.27 0 0.08 0.27 0 0.1 0.27 0 0 0.275 0 0.02 0.275 0 0.04 0.275 0 0.06 0.275 0 0.08 0.275 0 0.1 0.275 0 0 0.28 0 0.02 0.28 0 0.04 0.28 0 0.06 0.28 0 0.08 0.28 0 0.1 0.28 0 0 0.285 0 0.02 0.285 0 0.04 0.285 0 0.06 0.285 0 0.08 0.285 0 0.1 0.285 0 0 0.29 0 0.02 0.29 0 0.04 0.29 0 0.06 0.29 0 0.08 0.29 0 0.1 0.29 0 0 0.295 0 0.02 0.295 0 0.04 0.295 0 0.06 0.295 0 0.08 0.295 0 0.1 0.295 0 0 0.3 0 0.02 0.3 0 0.04 0.3 0 0.06 0.3 0 0.08 0.3 0 0.1 0.3 0 0 0.305 0 0.02 0.305 0 0.04 0.305 0 0.06 0.305 0 0.08 0.305 0 0.1 0.305 0 0 0.31 0 0.02 0.31 0 0.04 0.31 0 0.06 0.31 0 0.08 0.31 0 0.1 0.31 0 0 0.315 0 0.02 0.315 0 0.04 0.315 0 0.06 0.315 0 0.08 0.315 0 0.1 0.315 0 0 0.32 0 0.02 0.32 0 0.04 0.32 0 0.06 0.32 0 0.08 0.32 0 0.1 0.32 0 0 0.325 0 0.02 0.325 0 0.04 0.325 0 0.06 0.325 0 0.08 0.325 0 0.1 0.325 0 0 0.33 0 0.02 0.33 0 0.04 0.33 0 0.06 0.33 0 0.08 0.33 0 0.1 0.33 0 0 0.335 0 0.02 0.335 0 0.04 0.335 0 0.06 0.335 0 0.08 0.335 0 0.1 0.335 0 0 0.34 0 0.02 0.34 0 0.04 0.34 0 0.06 0.34 0 0.08 0.34 0 0.1 0.34 0 0 0.345 0 0.02 0.345 0 0.04 0.345 0 0.06 0.345 0 0.08 0.345 0 0.1 0.345 0 0 0.35 0 0.02 0.35 0 0.04 0.35 0 0.06 0.35 0 0.08 0.35 0 0.1 0.35 0 0 0.355 0 0.02 0.355 0 0.04 0.355 0 0.06 0.355 0 0.08 0.355 0 0.1 0.355 0 0 0.36 0 0.02 0.36 0 0.04 0.36 0 0.06 0.36 0 0.08 0.36 0 0.1 0.36 0 0 0.365 0 0.02 0.365 0 0.04 0.365 0 0.06 0.365 0 0.08 0.365 0 0.1 0.365 0 0 0.37 0 0.02 0.37 0 0.04 0.37 0 0.06 0.37 0 0.08 0.37 0 0.1 0.37 0 0 0.375 0 0.02 0.375 0 0.04 0.375 0 0.06 0.375 0 0.08 0.375 0 0.1 0.375 0 0 0.38 0 0.02 0.38 0 0.04 0.38 0 0.06 0.38 0 0.08 0.38 0 0.1 0.38 0 0 0.385 0 0.02 0.385 0 0.04 0.385 0 0.06 0.385 0 0.08 0.385 0 0.1 0.385 0 0 0.39 0 0.02 0.39 0 0.04 0.39 0 0.06 0.39 0 0.08 0.39 0 0.1 0.39 0 0 0.395 0 0.02 0.395 0 0.04 0.395 0 0.06 0.395 0 0.08 0.395 0 0.1 0.395 0 0 0.4 0 0.02 0.4 0 0.04 0.4 0 0.06 0.4 0 0.08 0.4 0 0.1 0.4 0 0 0.405 0 0.02 0.405 0 0.04 0.405 0 0.06 0.405 0 0.08 0.405 0 0.1 0.405 0 0 0.41 0 0.02 0.41 0 0.04 0.41 0 0.06 0.41 0 0.08 0.41 0 0.1 0.41 0 0 0.415 0 0.02 0.415 0 0.04 0.415 0 0.06 0.415 0 0.08 0.415 0 0.1 0.415 0 0 0.42 0 0.02 0.42 0 0.04 0.42 0 0.06 0.42 0 0.08 0.42 0 0.1 0.42 0 0 0.425 0 0.02 0.425 0 0.04 0.425 0 0.06 0.425 0 0.08 0.425 0 0.1 0.425 0 0 0.43 0 0.02 0.43 0 0.04 0.43 0 0.06 0.43 0 0.08 0.43 0 0.1 0.43 0 0 0.435 0 0.02 0.435 0 0.04 0.435 0 0.06 0.435 0 0.08 0.435 0 0.1 0.435 0 0 0.44 0 0.02 0.44 0 0.04 0.44 0 0.06 0.44 0 0.08 0.44 0 0.1 0.44 0 0 0.445 0 0.02 0.445 0 0.04 0.445 0 0.06 0.445 0 0.08 0.445 0 0.1 0.445 0 0 0.45 0 0.02 0.45 0 0.04 0.45 0 0.06 0.45 0 0.08 0.45 0 0.1 0.45 0 0 0.455 0 0.02 0.455 0 0.04 0.455 0 0.06 0.455 0 0.08 0.455 0 0.1 0.455 0 0 0.46 0 0.02 0.46 0 0.04 0.46 0 0.06 0.46 0 0.08 0.46 0 0.1 0.46 0 0 0.465 0 0.02 0.465 0 0.04 0.465 0 0.06 0.465 0 0.08 0.465 0 0.1 0.465 0 0 0.47 0 0.02 0.47 0 0.04 0.47 0 0.06 0.47 0 0.08 0.47 0 0.1 0.47 0 0 0.475 0 0.02 0.475 0 0.04 0.475 0 0.06 0.475 0 0.08 0.475 0 0.1 0.475 0 0 0.48 0 0.02 0.48 0 0.04 0.48 0 0.06 0.48 0 0.08 0.48 0 0.1 0.48 0 0 0.485 0 0.02 0.485 0 0.04 0.485 0 0.06 0.485 0 0.08 0.485 0 0.1 0.485 0 0 0.49 0 0.02 0.49 0 0.04 0.49 0 0.06 0.49 0 0.08 0.49 0 0.1 0.49 0 0 0.495 0 0.02 0.495 0 0.04 0.495 0 0.06 0.495 0 0.08 0.495 0 0.1 0.495 0 0 0.5 0 0.02 0.5 0 0.04 0.5 0 0.06 0.5 0 0.08 0.5 0 0.1 0.5 0 0 0.505 0 0.02 0.505 0 0.04 0.505 0 0.06 0.505 0 0.08 0.505 0 0.1 0.505 0 0 0.51 0 0.02 0.51 0 0.04 0.51 0 0.06 0.51 0 0.08 0.51 0 0.1 0.51 0 0 0.515 0 0.02 0.515 0 0.04 0.515 0 0.06 0.515 0 0.08 0.515 0 0.1 0.515 0 0 0.52 0 0.02 0.52 0 0.04 0.52 0 0.06 0.52 0 0.08 0.52 0 0.1 0.52 0 0 0.525 0 0.02 0.525 0 0.04 0.525 0 0.06 0.525 0 0.08 0.525 0 0.1 0.525 0 0 0.53 0 0.02 0.53 0 0.04 0.53 0 0.06 0.53 0 0.08 0.53 0 0.1 0.53 0 0 0.535 0 0.02 0.535 0 0.04 0.535 0 0.06 0.535 0 0.08 0.535 0 0.1 0.535 0 0 0.54 0 0.02 0.54 0 0.04 0.54 0 0.06 0.54 0 0.08 0.54 0 0.1 0.54 0 0 0.545 0 0.02 0.545 0 0.04 0.545 0 0.06 0.545 0 0.08 0.545 0 0.1 0.545 0 0 0.55 0 0.02 0.55 0 0.04 0.55 0 0.06 0.55 0 0.08 0.55 0 0.1 0.55 0 0 0.555 0 0.02 0.555 0 0.04 0.555 0 0.06 0.555 0 0.08 0.555 0 0.1 0.555 0 0 0.56 0 0.02 0.56 0 0.04 0.56 0 0.06 0.56 0 0.08 0.56 0 0.1 0.56 0 0 0.565 0 0.02 0.565 0 0.04 0.565 0 0.06 0.565 0 0.08 0.565 0 0.1 0.565 0 0 0.57 0 0.02 0.57 0 0.04 0.57 0 0.06 0.57 0 0.08 0.57 0 0.1 0.57 0 0 0.575 0 0.02 0.575 0 0.04 0.575 0 0.06 0.575 0 0.08 0.575 0 0.1 0.575 0 0 0.58 0 0.02 0.58 0 0.04 0.58 0 0.06 0.58 0 0.08 0.58 0 0.1 0.58 0 0 0.585 0 0.02 0.585 0 0.04 0.585 0 0.06 0.585 0 0.08 0.585 0 0.1 0.585 0 0 0.59 0 0.02 0.59 0 0.04 0.59 0 0.06 0.59 0 0.08 0.59 0 0.1 0.59 0 0 0.595 0 0.02 0.595 0 0.04 0.595 0 0.06 0.595 0 0.08 0.595 0 0.1 0.595 0 0 0.6 0 0.02 0.6 0 0.04 0.6 0 0.06 0.6 0 0.08 0.6 0 0.1 0.6 0 0 0.605 0 0.02 0.605 0 0.04 0.605 0 0.06 0.605 0 0.08 0.605 0 0.1 0.605 0 0 0.61 0 0.02 0.61 0 0.04 0.61 0 0.06 0.61 0 0.08 0.61 0 0.1 0.61 0 0 0.615 0 0.02 0.615 0 0.04 0.615 0 0.06 0.615 0 0.08 0.615 0 0.1 0.615 0 0 0.62 0 0.02 0.62 0 0.04 0.62 0 0.06 0.62 0 0.08 0.62 0 0.1 0.62 0 0 0.625 0 0.02 0.625 0 0.04 0.625 0 0.06 0.625 0 0.08 0.625 0 0.1 0.625 0 0 0.63 0 0.02 0.63 0 0.04 0.63 0 0.06 0.63 0 0.08 0.63 0 0.1 0.63 0 0 0.635 0 0.02 0.635 0 0.04 0.635 0 0.06 0.635 0 0.08 0.635 0 0.1 0.635 0 0 0.64 0 0.02 0.64 0 0.04 0.64 0 0.06 0.64 0 0.08 0.64 0 0.1 0.64 0 0 0.645 0 0.02 0.645 0 0.04 0.645 0 0.06 0.645 0 0.08 0.645 0 0.1 0.645 0 0 0.65 0 0.02 0.65 0 0.04 0.65 0 0.06 0.65 0 0.08 0.65 0 0.1 0.65 0 0 0.655 0 0.02 0.655 0 0.04 0.655 0 0.06 0.655 0 0.08 0.655 0 0.1 0.655 0 0 0.66 0 0.02 0.66 0 0.04 0.66 0 0.06 0.66 0 0.08 0.66 0 0.1 0.66 0 0 0.665 0 0.02 0.665 0 0.04 0.665 0 0.06 0.665 0 0.08 0.665 0 0.1 0.665 0 0 0.67 0 0.02 0.67 0 0.04 0.67 0 0.06 0.67 0 0.08 0.67 0 0.1 0.67 0 0 0.675 0 0.02 0.675 0 0.04 0.675 0 0.06 0.675 0 0.08 0.675 0 0.1 0.675 0 0 0.68 0 0.02 0.68 0 0.04 0.68 0 0.06 0.68 0 0.08 0.68 0 0.1 0.68 0 0 0.685 0 0.02 0.685 0 0.04 0.685 0 0.06 0.685 0 0.08 0.685 0 0.1 0.685 0 0 0.69 0 0.02 0.69 0 0.04 0.69 0 0.06 0.69 0 0.08 0.69 0 0.1 
[...]
			<PointData Scalars="VitesseX">
				<DataArray Name="VitesseX" type="Float32" format="ascii">
 0 3.31288e-14 1.55924e-14 8.8123e-15 5.32488e-14 0 0 2.51809e-14 2.52419e-14 9.56119e-15 4.34067e-14 0 0 2.37369e-14 2.15585e-14 3.35597e-14 1.06226e-14 0 0 3.99597e-15 4.7938e-14 2.45045e-14 1.99357e-15 0 0 1.0605e-15 6.16246e-14 5.22728e-15 1.33433e-14 0 0 5.09866e-14 8.47766e-15 3.47375e-14 -3.85112e-15 0 0 6.23074e-14 3.00894e-15 3.74139e-14 -1.89699e-14 0 0 4.48068e-14 2.52847e-14 1.75983e-14 -1.42116e-14 0 0 4.038e-14 3.51827e-14 -4.57064e-15 1.22314e-16 0 0 3.02854e-14 4.45151e-14 -1.73886e-14 1.45429e-14 0 0 4.37162e-15 8.51864e-14 -5.27361e-14 3.52443e-14 0 0 3.00806e-14 5.42255e-14 -7.19111e-15 -6.93757e-15 0 0 1.96128e-14 6.46008e-14 7.20967e-15 -1.72221e-14 0 0 2.4733e-14 6.00257e-14 2.15192e-14 -1.05038e-14 0 0 4.86661e-14 2.35081e-14 5.34674e-14 -3.47095e-15 0 0 3.97096e-15 7.32023e-14 8.55995e-15 3.22961e-14 0 0 2.59742e-14 1.96471e-14 5.02528e-14 2.36792e-14 0 0 2.49098e-14 2.32234e-14 2.81239e-14 6.16107e-14 0 0 1.90234e-14 1.99475e-14 4.57512e-14 4.76069e-14 0 0 4.08237e-14 -1.31098e-14 7.80475e-14 3.28467e-14 0 0 3.854e-14 2.05338e-14 3.58773e-14 6.99774e-14 0 0 2.93745e-14 5.98122e-14 2.16926e-14 7.10705e-14 0 0 6.08345e-14 4.30367e-14 4.40979e-14 6.86749e-14 0 0 8.17589e-14 3.7953e-14 3.37178e-14 9.31324e-14 0 0 6.13626e-14 8.21965e-14 8.96652e-15 9.6035e-14 0 0 5.85034e-14 8.67e-14 2.38664e-14 7.94751e-14 0 0 5.85217e-14 8.63158e-14 2.82435e-14 7.17297e-14 0 0 6.67485e-14 8.52275e-14 5.09805e-14 3.04335e-14 0 0 6.88906e-14 1.01387e-13 2.68608e-14 3.00459e-14 0 0 9.60632e-14 5.93015e-14 3.88342e-14 2.00721e-14 0 0 1.19848e-13 -8.24701e-15 1.24543e-13 -7.89609e-14 0 0 6.65636e-14 5.79048e-14 9.01853e-14 -8.59082e-14 0 0 3.51352e-14 1.11184e-13 -1.56974e-14 3.31336e-14 0 0 6.56575e-14 4.77564e-14 -9.22034e-15 8.82539e-14 0 0 4.45195e-14 7.0041e-14 -5.05625e-14 1.4552e-13 0 0 9.17672e-14 1.90143e-14 -3.77803e-14 1.45076e-13 0 0 9.7878e-14 1.70293e-14 -1.69786e-14 8.21647e-14 0 0 6.30004e-14 7.62245e-14 -7.11655e-14 1.01096e-13 0 0 4.89609e-14 1.13428e-13 -1.2284e-13 1.50662e-13 0 0 3.81413e-14 1.27566e-13 -1.15235e-13 1.42043e-13 0 0 1.16046e-13 1.97606e-14 5.8474e-15 7.04361e-14 0 0 1.50971e-13 4.07533e-14 -7.13071e-15 7.35631e-14 0 0 2.71271e-13 -6.95308e-14 6.48703e-14 7.2579e-14 0 0 3.23858e-13 -1.12119e-13 1.02105e-13 6.70561e-14 0 0 2.40714e-13 -9.87097e-15 4.00865e-14 8.41949e-14 0 0 2.07499e-13 6.8481e-15 5.65861e-15 1.25623e-13 0 0 1.38412e-13 1.27699e-13 -1.08717e-13 1.7479e-13 0 0 1.49724e-13 9.45493e-14 -5.80493e-14 1.50551e-13 0 0 2.13528e-13 -2.04129e-14 2.78176e-14 1.7858e-13 0 0 2.76933e-13 -1.78262e-13 2.09841e-13 9.82675e-14 0 0 2.94455e-13 -2.91203e-13 3.57264e-13 6.10453e-15 0 0 1.73016e-13 -1.01807e-13 1.43007e-13 1.58118e-13 0 0 2.02385e-13 -1.12482e-13 9.83259e-14 2.02075e-13 0 0 1.45548e-13 -2.39944e-14 3.61052e-15 2.31587e-13 0 0 5.76129e-14 9.32055e-14 -1.25874e-13 3.26704e-13 0 0 1.38637e-13 -6.51491e-14 -3.93889e-14 3.62234e-13 0 0 1.53052e-13 -1.24008e-13 3.2641e-14 3.27017e-13 0 0 1.85187e-13 -1.64209e-13 1.47662e-13 2.06954e-13 0 0 5.89363e-14 7.54658e-14 -1.57898e-14 2.71138e-13 0 0 2.78609e-14 1.07769e-13 8.08994e-14 1.06445e-13 0 0 8.88004e-14 5.84268e-15 2.29802e-13 -4.67665e-14 0 0 6.79481e-14 1.28013e-13 4.6372e-14 4.84486e-14 0 0 1.639e-13 4.83598e-14 1.10288e-13 -5.39637e-14 0 0 1.40954e-13 5.71663e-14 1.48824e-13 -1.13821e-13 0 0 1.16078e-13 8.88024e-14 1.60185e-13 -1.70955e-13 0 0 1.31744e-13 7.47726e-14 1.60146e-13 -2.01389e-13 0 0 2.19275e-14 2.90378e-13 -1.37098e-13 3.47568e-14 0 0 1.36662e-13 1.26168e-13 -1.38753e-14 6.35547e-15 0 0 1.66775e-13 5.01756e-14 7.87158e-14 -1.47471e-14 0 0 1.22934e-13 1.57469e-13 -8.27686e-14 2.0167e-13 0 0 2.71158e-13 -6.43558e-14 4.18811e-14 2.31952e-13 0 0 2.1221e-13 7.74054e-14 -1.11487e-13 3.13199e-13 0 0 2.60458e-13 1.37744e-13 -5.80328e-14 2.07484e-13 0 0 2.38493e-13 2.81325e-13 -1.53964e-13 2.68015e-13 0 0 3.68596e-13 7.53769e-14 4.05505e-14 2.15926e-13 0 0 3.1429e-13 2.31911e-14 2.20432e-13 1.39686e-13 0 0 -4.16699e-14 4.77363e-13 -1.54059e-13 4.32981e-13 0 0 3.20283e-13 -1.01915e-15 2.76608e-13 2.94166e-13 0 0 2.78729e-13 1.14672e-13 2.20044e-13 3.58473e-13 0 0 3.34979e-13 -1.96084e-14 4.37356e-13 1.11823e-13 0 0 3.04328e-13 1.98324e-13 1.58951e-13 1.91888e-13 0 0 -6.861e-14 8.6857e-13 -4.44813e-13 5.33834e-13 0 0 2.64683e-13 1.03746e-13 6.30252e-13 -1.88895e-13 0 0 7.35387e-14 3.66701e-13 4.37108e-13 5.31411e-14 0 0 -1.69851e-13 1.16728e-12 -3.5623e-13 6.53782e-13 0 0 4.11855e-13 5.61972e-13 1.85547e-13 2.9075e-13 0 0 8.29853e-13 -1.15046e-14 6.3665e-13 8.17062e-14 0 0 5.74235e-13 5.37428e-13 2.94609e-13 1.38411e-13 0 0 4.35222e-13 5.7938e-13 4.77425e-13 -1.97911e-13 0 0 1.89696e-13 6.11126e-13 7.48757e-13 -5.12383e-13 0 0 -8.90041e-14 7.86553e-13 5.70628e-13 -3.44138e-13 0 0 -6.2168e-14 7.05627e-13 4.77718e-13 -1.32969e-13 0 0 2.11705e-13 4.92326e-13 3.99872e-13 4.56585e-14 0 0 4.52897e-13 3.80053e-13 1.8322e-13 2.27477e-13 0 0 4.64128e-13 4.20462e-13 -2.72731e-14 4.13091e-13 0 0 5.33146e-13 3.53438e-13 -5.37416e-14 4.08378e-13 0 0 6.54773e-13 7.98673e-14 5.82791e-14 3.4559e-13 0 0 6.59913e-13 -1.9917e-14 1.87431e-13 3.11605e-13 0 0 6.71e-13 -8.11503e-14 2.70425e-13 3.24697e-13 0 0 5.72023e-13 -8.7277e-14 3.1458e-13 3.57298e-13 0 0 2.16398e-13 3.52736e-14 2.65639e-13 3.77143e-13 0 0 -1.12563e-13 1.75884e-13 2.08387e-14 4.13857e-13 0 0 -2.46264e-13 2.28366e-13 -1.39076e-13 4.27873e-13 0 0 -2.68972e-13 2.39541e-13 -1.40127e-13 4.11388e-13 0 0 -1.66578e-13 1.40134e-13 -1.23203e-13 3.75629e-13 0 0 1.32023e-13 -2.03054e-13 6.09643e-14 2.59158e-13 0 0 3.07732e-13 -4.07137e-13 3.62565e-13 1.22669e-13 0 0 3.67282e-13 -4.22475e-13 4.21803e-13 1.0668e-13 0 0 3.67694e-13 -3.94091e-13 4.13479e-13 9.14216e-14 0 0 2.63949e-13 -1.31434e-13 2.17898e-13 2.40646e-13 0 0 9.60307e-14 1.43523e-13 7.64632e-14 4.06965e-13 0 0 2.48659e-14 1.48324e-13 1.32142e-13 3.71564e-13 0 0 1.20265e-14 1.18619e-13 2.6008e-13 2.73296e-13 0 0 2.51491e-14 5.03242e-14 3.21354e-13 1.54351e-13 0 0 4.34214e-14 4.97068e-14 3.17636e-13 1.64243e-13 0 0 5.69853e-14 3.39439e-14 3.55483e-13 1.30726e-13 0 0 6.57187e-14 5.79713e-14 3.12159e-13 9.46233e-14 0 0 5.11103e-14 1.43638e-13 2.18203e-13 1.0073e-13 0 0 5.86975e-14 2.34792e-13 9.73112e-14 1.6593e-13 0 0 7.88749e-14 2.4813e-13 9.97333e-14 1.36024e-13 0 0 1.01555e-13 2.42837e-13 1.37139e-13 -2.48051e-14 0 0 1.54852e-13 2.32292e-13 7.8183e-14 -4.05355e-14 0 0 1.43367e-13 2.33537e-13 3.88075e-14 -5.24579e-14 0 0 1.3866e-13 1.9315e-13 7.60387e-14 -5.63181e-14 0 0 1.39417e-13 1.2088e-13 1.58246e-13 -3.89305e-14 0 0 1.09961e-13 1.89024e-13 7.26827e-14 7.19226e-14 0 0 1.49284e-13 1.96936e-13 3.00926e-14 1.01049e-13 0 0 2.03633e-13 1.45392e-13 1.26473e-13 1.14963e-13 0 0 1.81156e-13 1.27303e-13 2.43528e-13 7.42469e-14 0 0 1.23773e-13 2.0852e-13 2.68192e-13 8.979e-14 0 0 1.49521e-13 2.494e-13 2.32428e-13 1.26825e-13 0 0 2.76701e-13 1.11805e-13 3.11501e-13 1.50456e-13 0 0 2.80273e-13 1.25643e-13 2.85799e-13 1.72067e-13 0 0 2.68614e-13 1.90362e-13 2.6812e-13 1.00538e-13 0 0 2.26557e-13 2.82085e-13 2.55459e-13 1.24874e-13 0 0 2.38587e-13 2.53902e-13 3.39715e-13 9.59181e-14 0 0 2.79597e-13 1.95868e-13 4.23169e-13 1.13651e-13 0 0 3.08674e-13 1.89285e-13 4.09915e-13 1.79442e-13 0 0 3.65386e-13 1.6401e-13 3.68516e-13 2.30162e-13 0 0 3.74242e-13 2.29876e-13 2.78458e-13 2.82132e-13 0 0 2.97938e-13 4.23524e-13 9.44145e-14 3.49229e-13 0 0 3.08209e-13 4.36254e-13 1.33789e-13 3.37569e-13 0 0 4.35867e-13 2.79413e-13 3.45938e-13 1.63912e-13 0 0 4.31504e-13 3.33819e-13 3.27135e-13 1.31733e-13 0 0 3.68998e-13 4.56114e-13 1.81443e-13 2.78607e-13 0 0 2.1834e-13 7.11046e-13 -1.27052e-13 4.32983e-13 0 0 3.6036e-13 4.53527e-13 8.40249e-14 2.86228e-13 0 0 5.66857e-13 4.7251e-14 4.92526e-13 1.21069e-14 0 0 5.04483e-13 1.22582e-13 4.03805e-13 3.89645e-14 0 0 3.11618e-13 4.89989e-13 -7.89071e-14 4.08235e-13 0 0 1.99853e-13 7.69372e-13 -4.66618e-13 6.68735e-13 0 0 6.01552e-13 1.61722e-13 1.79123e-13 1.57557e-13 0 0 6.99299e-13 -3.97113e-14 4.70418e-13 -5.88828e-14 0 0 4.42369e-13 2.48068e-13 3.21441e-13 3.14976e-14 0 0 3.05302e-13 3.76488e-13 2.59549e-13 3.42608e-14 0 0 3.15741e-13 4.15582e-13 3.22503e-14 3.68184e-13 0 0 6.16504e-13 -1.20679e-14 3.86581e-13 3.21551e-13 0 0 6.54376e-13 -1.10824e-13 6.2427e-13 1.10509e-13 0 0 3.08306e-13 2.71302e-13 3.73784e-13 3.34422e-13 0 0 -1.42367e-13 7.91713e-13 3.07916e-14 6.46269e-13 0 0 -1.28994e-13 7.29092e-13 2.14913e-13 4.50954e-13 0 0 4.52738e-13 -1.94065e-13 1.16775e-12 -2.11624e-13 0 0 7.5657e-13 -7.12498e-13 1.68889e-12 -5.50194e-13 0 0 4.07572e-13 -1.52492e-13 1.02781e-12 -9.08616e-14 0 0 -3.07056e-13 8.67747e-13 2.4652e-14 4.75187e-13 0 0 -4.40295e-13 1.01379e-12 -1.31592e-13 4.86003e-13 0 0 5.57473e-14 2.45477e-13 5.81e-13 2.17565e-14 0 0 3.55594e-13 -2.66338e-13 1.11292e-12 -2.85281e-13 0 0 4.28351e-13 -4.07144e-13 1.28116e-12 -3.6305e-13 0 0 4.24927e-13 -3.67701e-13 1.24743e-12 -3.52609e-13 0 0 -3.17521e-15 2.68657e-13 6.79925e-13 8.43856e-14 0 0 -1.63742e-13 5.19412e-13 3.05806e-13 5.20158e-13 0 0 1.59735e-13 1.46961e-13 3.261e-13 6.63105e-13 0 0 3.11834e-13 -1.06215e-13 4.51927e-13 5.74155e-13 0 0 2.37287e-13 -7.01149e-16 3.76225e-13 4.22778e-13 0 0 3.34227e-13 -1.82657e-13 6.37483e-13 9.74818e-14 0 0 1.68055e-13 -5.39719e-14 5.25807e-13 1.57449e-13 0 0 -1.62186e-13 4.3905e-13 -1.00039e-13 6.0472e-13 0 0 1.84522e-13 -8.41785e-14 3.26614e-13 4.17366e-13 0 0 4.1437e-13 -3.91055e-13 6.37025e-13 1.35157e-13 0 0 2.85327e-13 -1.53297e-13 3.88035e-13 2.20375e-13 0 0 -3.68399e-14 2.91908e-13 1.08092e-14 4.68007e-13 0 0 -1.17583e-13 4.53117e-13 -1.981e-13 6.49964e-13 0 0 3.13783e-13 -1.08945e-13 3.71894e-13 2.82109e-13 0 0 5.41243e-13 -3.51028e-13 5.9333e-13 1.30599e-13 0 0 4.05116e-13 -6.83755e-14 1.76584e-13 3.63356e-13 0 0 1.96031e-13 3.16271e-13 -1.84176e-13 4.59704e-13 0 0 1.12257e-13 4.28254e-13 -1.35236e-13 4.18126e-13 0 0 3.65735e-13 1.08752e-13 4.87401e-13 -6.30853e-14 0 0 5.96628e-13 -1.03185e-13 7.47872e-13 -2.20066e-13 0 0 4.95702e-13 2.78922e-13 -3.74319e-14 5.32905e-13 0 0 4.62242e-13 5.34185e-13 -5.98648e-13 1.01139e-12 0 0 5.8541e-13 2.95428e-13 -3.14258e-13 7.76247e-13 0 0 8.75874e-13 -3.30009e-13 3.94225e-13 2.40579e-13 0 0 5.5136e-13 1.04691e-13 2.0871e-14 3.7074e-13 0 0 5.06578e-14 1.00726e-12 -9.3965e-13 9.63615e-13 0 0 4.5052e-13 5.50726e-13 -4.92449e-13 6.84297e-13 0 0 1.03792e-12 -1.61572e-13 1.14016e-13 3.02513e-13 0 0 1.07043e-12 -2.05513e-13 3.19116e-14 5.19399e-13 0 0 2.47698e-13 9.2353e-13 -7.35585e-13 1.00251e-12 0 0 -3.47559e-13 1.78734e-12 -1.30194e-12 1.24213e-12 0
				</DataArray>
				<DataArray Name="VitesseY" type="Float32" format="ascii">