<?xml version="1.0"?>
<VTKFile type="PolyData">
	<PolyData>
		<Piece NumberOfPoints="1206" NumberOfPolys="1000">
			<Points>
				<DataArray type="Float32" NumberOfComponents="3" format="ascii">
 0 0 0 0.02 0 0 0.04 0 0 0.06 0 0 0.08 0 0 0.1 0 0 0 0.005 0 0.02 0.005 0 0.04 0.005 0 0.06 0.005 0 0.08 0.005 0 0.1 0.005 0 0 0.01 0 0.02 0.01 0 0.04 0.01 0 0.06 0.01 0 0.08 0.01 0 0.1 0.01 0 0 0.015 0 0.02 0.015 0 0.04 0.015 0 0.06 0.015 0 0.08 0.015 0 0.1 0.015 0 0 0.02 0 0.02 0.02 0 0.04 0.02 0 0.06 0.02 0 0.08 0.02 0 0.1 0.02 0 0 0.025 0 0.02 0.025 0 0.04 0.025 0 0.06 0.025 0 0.08 0.025 0 0.1 0.025 0 0 0.03 0 0.02 0.03 0 0.04 0.03 0 0.06 0.03 0 0.08 0.03 0 0.1 0.03 0 0 0.035 0 0.02 0.035 0 0.04 0.035 0 0.06 0.035 0 0.08 0.035 0 0.1 0.035 0 0 0.04 0 0.02 0.04 0 0.04 0.04 0 0.06 0.04 0 0.08 0.04 0 0.1 0.04 0 0 0.045 0 0.02 0.045 0 0.04 0.045 0 0.06 0.045 0 0.08 0.045 0 0.1 0.045 0 0 0.05 0 0.02 0.05 0 0.04 0.05 0 0.06 0.05 0 0.08 0.05 0 0.1 0.05 0 0 0.055 0 0.02 0.055 0 0.04 0.055 0 0.06 0.055 0 0.08 0.055 0 0.1 0.055 0 0 0.06 0 0.02 0.06 0 0.04 0.06 0 0.06 0.06 0 0.08 0.06 0 0.1 0.06 0 0 0.065 0 0.02 0.065 0 0.04 0.065 0 0.06 0.065 0 0.08 0.065 0 0.1 0.065 0 0 0.07 0 0.02 0.07 0 0.04 0.07 0 0.06 0.07 0 0.08 0.07 0 0.1 0.07 0 0 0.075 0 0.02 0.075 0 0.04 0.075 0 0.06 0.075 0 0.08 0.075 0 0.1 0.075 0 0 0.08 0 0.02 0.08 0 0.04 0.08 0 0.06 0.08 0 0.08 0.08 0 0.1 0.08 0 0 0.085 0 0.02 0.085 0 0.04 0.085 0 0.06 0.085 0 0.08 0.085 0 0.1 0.085 0 0 0.09 0 0.02 0.09 0 0.04 0.09 0 0.06 0.09 0 0.08 0.09 0 0.1 0.09 0 0 0.095 0 0.02 0.095 0 0.04 0.095 0 0.06 0.095 0 0.08 0.095 0 0.1 0.095 0 0 0.1 0 0.02 0.1 0 0.04 0.1 0 0.06 0.1 0 0.08 0.1 0 0.1 0.1 0 0 0.105 0 0.02 0.105 0 0.04 0.105 0 0.06 0.105 0 0.08 0.105 0 0.1 0.105 0 0 0.11 0 0.02 0.11 0 0.04 0.11 0 0.06 0.11 0 0.08 0.11 0 0.1 0.11 0 0 0.115 0 0.02 0.115 0 0.04 0.115 0 0.06 0.115 0 0.08 0.115 0 0.1 0.115 0 0 0.12 0 0.02 0.12 0 0.04 0.12 0 0.06 0.12 0 0.08 0.12 0 0.1 0.12 0 0 0.125 0 0.02 0.125 0 0.04 0.125 0 0.06 0.125 0 0.08 0.125 0 0.1 0.125 0 0 0.13 0 0.02 0.13 0 0.04 0.13 0 0.06 0.13 0 0.08 0.13 0 0.1 0.13 0 0 0.135 0 0.02 0.135 0 0.04 0.135 0 0.06 0.135 0 0.08 0.135 0 0.1 0.135 0 0 0.14 0 0.02 0.14 0 0.04 0.14 0 0.06 0.14 0 0.08 0.14 0 0.1 0.14 0 0 0.145 0 0.02 0.145 0 0.04 0.145 0 0.06 0.145 0 0.08 0.145 0 0.1 0.145 0 0 0.15 0 0.02 0.15 0 0.04 0.15 0 0.06 0.15 0 0.08 0.15 0 0.1 0.15 0 0 0.155 0 0.02 0.155 0 0.04 0.155 0 0.06 0.155 0 0.08 0.155 0 0.1 0.155 0 0 0.16 0 0.02 0.16 0 0.04 0.16 0 0.06 0.16 0 0.08 0.16 0 0.1 0.16 0 0 0.165 0 0.02 0.165 0 0.04 0.165 0 0.06 0.165 0 0.08 0.165 0 0.1 0.165 0 0 0.17 0 0.02 0.17 0 0.04 0.17 0 0.06 0.17 0 0.08 0.17 0 0.1 0.17 0 0 0.175 0 0.02 0.175 0 0.04 0.175 0 0.06 0.175 0 0.08 0.175 0 0.1 0.175 0 0 0.18 0 0.02 0.18 0 0.04 0.18 0 0.06 0.18 0 0.08 0.18 0 0.1 0.18 0 0 0.185 0 0.02 0.185 0 0.04 0.185 0 0.06 0.185 0 0.08 0.185 0 0.1 0.185 0 0 0.19 0 0.02 0.19 0 0.04 0.19 0 0.06 0.19 0 0.08 0.19 0 0.1 0.19 0 0 0.195 0 0.02 0.195 0 0.04 0.195 0 0.06 0.195 0 0.08 0.195 0 0.1 0.195 0 0 0.2 0 0.02 0.2 0 0.04 0.2 0 0.06 0.2 0 0.08 0.2 0 0.1 0.2 0 0 0.205 0 0.02 0.205 0 0.04 0.205 0 0.06 0.205 0 0.08 0.205 0 0.1 0.205 0 0 0.21 0 0.02 0.21 0 0.04 0.21 0 0.06 0.21 0 0.08 0.21 0 0.1 0.21 0 0 0.215 0 0.02 0.215 0 0.04 0.215 0 0.06 0.215 0 0.08 0.215 0 0.1 0.215 0 0 0.22 0 0.02 0.22 0 0.04 0.22 0 0.06 0.22 0 0.08 0.22 0 0.1 0.22 0 0 0.225 0 0.02 0.225 0 0.04 0.225 0 0.06 0.225 0 0.08 0.225 0 0.1 0.225 0 0 0.23 0 0.02 0.23 0 0.04 0.23 0 0.06 0.23 0 0.08 0.23 0 0.1 0.23 0 0 0.235 0 0.02 0.235 0 0.04 0.235 0 0.06 0.235 0 0.08 0.235 0 0.1 0.235 0 0 0.24 0 0.02 0.24 0 0.04 0.24 0 0.06 0.24 0 0.08 0.24 0 0.1 0.24 0 0 0.245 0 0.02 0.245 0 0.04 0.245 0 0.06 0.245 0 0.08 0.245 0 0.1 0.245 0 0 0.25 0 0.02 0.25 0 0.04 0.25 0 0.06 0.25 0 0.08 0.25 0 0.1 0.25 0 0 0.255 0 0.02 0.255 0 0.04 0.255 0 0.06 0.255 0 0.08 0.255 0 0.1 0.255 0 0 0.26 0 0.02 0.26 0 0.04 0.26 0 0.06 0.26 0 0.08 0.26 0 0.1 0.26 0 0 0.265 0 0.02 0.265 0 0.04 0.265 0 0.06 0.265 0 0.08 0.265 0 0.1 0.265 0 0 0.27 0 0.02 0.27 0 0.04 0.27 0 0.06 0.27 0 0.08 0.27 0 0.1 0.27 0 0 0.275 0 0.02 0.275 0 0.04 0.275 0 0.06 0.275 0 0.08 0.275 0 0.1 0.275 0 0 0.28 0 0.02 0.28 0 0.04 0.28 0 0.06 0.28 0 0.08 0.28 0 0.1 0.28 0 0 0.285 0 0.02 0.285 0 0.04 0.285 0 0.06 0.285 0 0.08 0.285 0 0.1 0.285 0 0 0.29 0 0.02 0.29 0 0.04 0.29 0 0.06 0.29 0 0.08 0.29 0 0.1 0.29 0 0 0.295 0 0.02 0.295 0 0.04 0.295 0 0.06 0.295 0 0.08 0.295 0 0.1 0.295 0 0 0.3 0 0.02 0.3 0 0.04 0.3 0 0.06 0.3 0 0.08 0.3 0 0.1 0.3 0 0 0.305 0 0.02 0.305 0 0.04 0.305 0 0.06 0.305 0 0.08 0.305 0 0.1 0.305 0 0 0.31 0 0.02 0.31 0 0.04 0.31 0 0.06 0.31 0 0.08 0.31 0 0.1 0.31 0 0 0.315 0 0.02 0.315 0 0.04 0.315 0 0.06 0.315 0 0.08 0.315 0 0.1 0.315 0 0 0.32 0 0.02 0.32 0 0.04 0.32 0 0.06 0.32 0 0.08 0.32 0 0.1 0.32 0 0 0.325 0 0.02 0.325 0 0.04 0.325 0 0.06 0.325 0 0.08 0.325 0 0.1 0.325 0 0 0.33 0 0.02 0.33 0 0.04 0.33 0 0.06 0.33 0 0.08 0.33 0 0.1 0.33 0 0 0.335 0 0.02 0.335 0 0.04 0.335 0 0.06 0.335 0 0.08 0.335 0 0.1 0.335 0 0 0.34 0 0.02 0.34 0 0.04 0.34 0 0.06 0.34 0 0.08 0.34 0 0.1 0.34 0 0 0.345 0 0.02 0.345 0 0.04 0.345 0 0.06 0.345 0 0.08 0.345 0 0.1 0.345 0 0 0.35 0 0.02 0.35 0 0.04 0.35 0 0.06 0.35 0 0.08 0.35 0 0.1 0.35 0 0 0.355 0 0.02 0.355 0 0.04 0.355 0 0.06 0.355 0 0.08 0.355 0 0.1 0.355 0 0 0.36 0 0.02 0.36 0 0.04 0.36 0 0.06 0.36 0 0.08 0.36 0 0.1 0.36 0 0 0.365 0 0.02 0.365 0 0.04 0.365 0 0.06 0.365 0 0.08 0.365 0 0.1 0.365 0 0 0.37 0 0.02 0.37 0 0.04 0.37 0 0.06 0.37 0 0.08 0.37 0 0.1 0.37 0 0 0.375 0 0.02 0.375 0 0.04 0.375 0 0.06 0.375 0 0.08 0.375 0 0.1 0.375 0 0 0.38 0 0.02 0.38 0 0.04 0.38 0 0.06 0.38 0 0.08 0.38 0 0.1 0.38 0 0 0.385 0 0.02 0.385 0 0.04 0.385 0 0.06 0.385 0 0.08 0.385 0 0.1 0.385 0 0 0.39 0 0.02 0.39 0 0.04 0.39 0 0.06 0.39 0 0.08 0.39 0 0.1 0.39 0 0 0.395 0 0.02 0.395 0 0.04 0.395 0 0.06 0.395 0 0.08 0.395 0 0.1 0.395 0 0 0.4 0 0.02 0.4 0 0.04 0.4 0 0.06 0.4 0 0.08 0.4 0 0.1 0.4 0 0 0.405 0 0.02 0.405 0 0.04 0.405 0 0.06 0.405 0 0.08 0.405 0 0.1 0.405 0 0 0.41 0 0.02 0.41 0 0.04 0.41 0 0.06 0.41 0 0.08 0.41 0 0.1 0.41 0 0 0.415 0 0.02 0.415 0 0.04 0.415 0 0.06 0.415 0 0.08 0.415 0 0.1 0.415 0 0 0.42 0 0.02 0.42 0 0.04 0.42 0 0.06 0.42 0 0.08 0.42 0 0.1 0.42 0 0 0.425 0 0.02 0.425 0 0.04 0.425 0 0.06 0.425 0 0.08 0.425 0 0.1 0.425 0 0 0.43 0 0.02 0.43 0 0.04 0.43 0 0.06 0.43 0 0.08 0.43 0 0.1 0.43 0 0 0.435 0 0.02 0.435 0 0.04 0.435 0 0.06 0.435 0 0.08 0.435 0 0.1 0.435 0 0 0.44 0 0.02 0.44 0 0.04 0.44 0 0.06 0.44 0 0.08 0.44 0 0.1 0.44 0 0 0.445 0 0.02 0.445 0 0.04 0.445 0 0.06 0.445 0 0.08 0.445 0 0.1 0.445 0 0 0.45 0 0.02 0.45 0 0.04 0.45 0 0.06 0.45 0 0.08 0.45 0 0.1 0.45 0 0 0.455 0 0.02 0.455 0 0.04 0.455 0 0.06 0.455 0 0.08 0.455 0 0.1 0.455 0 0 0.46 0 0.02 0.46 0 0.04 0.46 0 0.06 0.46 0 0.08 0.46 0 0.1 0.46 0 0 0.465 0 0.02 0.465 0 0.04 0.465 0 0.06 0.465 0 0.08 0.465 0 0.1 0.465 0 0 0.47 0 0.02 0.47 0 0.04 0.47 0 0.06 0.47 0 0.08 0.47 0 0.1 0.47 0 0 0.475 0 0.02 0.475 0 0.04 0.475 0 0.06 0.475 0 0.08 0.475 0 0.1 0.475 0 0 0.48 0 0.02 0.48 0 0.04 0.48 0 0.06 0.48 0 0.08 0.48 0 0.1 0.48 0 0 0.485 0 0.02 0.485 0 0.04 0.485 0 0.06 0.485 0 0.08 0.485 0 0.1 0.485 0 0 0.49 0 0.02 0.49 0 0.04 0.49 0 0.06 0.49 0 0.08 0.49 0 0.1 0.49 0 0 0.495 0 0.02 0.495 0 0.04 0.495 0 0.06 0.495 0 0.08 0.495 0 0.1 0.495 0 0 0.5 0 0.02 0.5 0 0.04 0.5 0 0.06 0.5 0 0.08 0.5 0 0.1 0.5 0 0 0.505 0 0.02 0.505 0 0.04 0.505 0 0.06 0.505 0 0.08 0.505 0 0.1 0.505 0 0 0.51 0 0.02 0.51 0 0.04 0.51 0 0.06 0.51 0 0.08 0.51 0 0.1 0.51 0 0 0.515 0 0.02 0.515 0 0.04 0.515 0 0.06 0.515 0 0.08 0.515 0 0.1 0.515 0 0 0.52 0 0.02 0.52 0 0.04 0.52 0 0.06 0.52 0 0.08 0.52 0 0.1 0.52 0 0 0.525 0 0.02 0.525 0 0.04 0.525 0 0.06 0.525 0 0.08 0.525 0 0.1 0.525 0 0 0.53 0 0.02 0.53 0 0.04 0.53 0 0.06 0.53 0 0.08 0.53 0 0.1 0.53 0 0 0.535 0 0.02 0.535 0 0.04 0.535 0 0.06 0.535 0 0.08 0.535 0 0.1 0.535 0 0 0.54 0 0.02 0.54 0 0.04 0.54 0 0.06 0.54 0 0.08 0.54 0 0.1 0.54 0 0 0.545 0 0.02 0.545 0 0.04 0.545 0 0.06 0.545 0 0.08 0.545 0 0.1 0.545 0 0 0.55 0 0.02 0.55 0 0.04 0.55 0 0.06 0.55 0 0.08 0.55 0 0.1 0.55 0 0 0.555 0 0.02 0.555 0 0.04 0.555 0 0.06 0.555 0 0.08 0.555 0 0.1 0.555 0 0 0.56 0 0.02 0.56 0 0.04 0.56 0 0.06 0.56 0 0.08 0.56 0 0.1 0.56 0 0 0.565 0 0.02 0.565 0 0.04 0.565 0 0.06 0.565 0 0.08 0.565 0 0.1 0.565 0 0 0.57 0 0.02 0.57 0 0.04 0.57 0 0.06 0.57 0 0.08 0.57 0 0.1 0.57 0 0 0.575 0 0.02 0.575 0 0.04 0.575 0 0.06 0.575 0 0.08 0.575 0 0.1 0.575 0 0 0.58 0 0.02 0.58 0 0.04 0.58 0 0.06 0.58 0 0.08 0.58 0 0.1 0.58 0 0 0.585 0 0.02 0.585 0 0.04 0.585 0 0.06 0.585 0 0.08 0.585 0 0.1 0.585 0 0 0.59 0 0.02 0.59 0 0.04 0.59 0 0.06 0.59 0 0.08 0.59 0 0.1 0.59 0 0 0.595 0 0.02 0.595 0 0.04 0.595 0 0.06 0.595 0 0.08 0.595 0 0.1 0.595 0 0 0.6 0 0.02 0.6 0 0.04 0.6 0 0.06 0.6 0 0.08 0.6 0 0.1 0.6 0 0 0.605 0 0.02 0.605 0 0.04 0.605 0 0.06 0.605 0 0.08 0.605 0 0.1 0.605 0 0 0.61 0 0.02 0.61 0 0.04 0.61 0 0.06 0.61 0 0.08 0.61 0 0.1 0.61 0 0 0.615 0 0.02 0.615 0 0.04 0.615 0 0.06 0.615 0 0.08 0.615 0 0.1 0.615 0 0 0.62 0 0.02 0.62 0 0.04 0.62 0 0.06 0.62 0 0.08 0.62 0 0.1 0.62 0 0 0.625 0 0.02 0.625 0 0.04 0.625 0 0.06 0.625 0 0.08 0.625 0 0.1 0.625 0 0 0.63 0 0.02 0.63 0 0.04 0.63 0 0.06 0.63 0 0.08 0.63 0 0.1 0.63 0 0 0.635 0 0.02 0.635 0 0.04 0.635 0 0.06 0.635 0 0.08 0.635 0 0.1 0.635 0 0 0.64 0 0.02 0.64 0 0.04 0.64 0 0.06 0.64 0 0.08 0.64 0 0.1 0.64 0 0 0.645 0 0.02 0.645 0 0.04 0.645 0 0.06 0.645 0 0.08 0.645 0 0.1 0.645 0 0 0.65 0 0.02 0.65 0 0.04 0.65 0 0.06 0.65 0 0.08 0.65 0 0.1 0.65 0 0 0.655 0 0.02 0.655 0 0.04 0.655 0 0.06 0.655 0 0.08 0.655 0 0.1 0.655 0 0 0.66 0 0.02 0.66 0 0.04 0.66 0 0.06 0.66 0 0.08 0.66 0 0.1 0.66 0 0 0.665 0 0.02 0.665 0 0.04 0.665 0 0.06 0.665 0 0.08 0.665 0 0.1 0.665 0 0 0.67 0 0.02 0.67 0 0.04 0.67 0 0.06 0.67 0 0.08 0.67 0 0.1 0.67 0 0 0.675 0 0.02 0.675 0 0.04 0.675 0 0.06 0.675 0 0.08 0.675 0 0.1 0.675 0 0 0.68 0 0.02 0.68 0 0.04 0.68 0 0.06 0.68 0 0.08 0.68 0 0.1 0.68 0 0 0.685 0 0.02 0.685 0 0.04 0.685 0 0.06 0.685 0 0.08 0.685 0 0.1 0.685 0 0 0.69 0 0.02 0.69 0 0.04 0.69 0 0.06 0.69 0 0.08 0.69 0 0.1 
[...]
			<PointData Scalars="VitesseX">
				<DataArray Name="VitesseX" type="Float32" format="ascii">
 0 -2.82921e-14 1.24043e-14 -1.10041e-14 -1.0325e-15 0 0 -2.4342e-14 1.98264e-15 -2.15513e-15 -4.52897e-15 0 0 -1.54137e-14 -2.56677e-14 2.82064e-14 -2.10237e-14 0 0 -4.88812e-14 1.53443e-14 -1.98978e-15 -9.62916e-15 0 0 -3.50163e-14 -1.91512e-15 6.04073e-15 -1.47519e-14 0 0 2.1176e-14 -7.229e-14 4.39553e-14 -2.33707e-14 0 0 -9.73021e-15 -1.01484e-14 -4.70912e-14 5.14759e-14 0 0 -5.60587e-14 6.22341e-14 -1.23339e-13 1.1485e-13 0 0 -3.3085e-14 1.24971e-14 -4.74458e-14 7.42822e-14 0 0 -8.25748e-15 -5.76749e-14 7.60717e-14 -1.65944e-14 0 0 -6.62065e-14 7.50512e-15 5.78855e-14 -2.75232e-14 0 0 -4.84116e-14 -2.1907e-14 9.07163e-14 -4.89045e-14 0 0 -8.29354e-14 5.46318e-14 -1.08164e-14 3.47377e-14 0 0 -4.21371e-14 1.98492e-14 8.62883e-15 4.01477e-14 0 0 -3.8304e-15 -3.08326e-14 8.45707e-14 -2.87224e-14 0 0 -8.16929e-14 1.1667e-13 -8.39676e-14 6.29e-14 0 0 3.55523e-14 -3.69681e-14 7.46997e-16 -2.68572e-15 0 0 9.89949e-15 -2.22304e-14 -2.92294e-14 -1.73285e-14 0 0 -3.84772e-15 -5.02351e-14 -1.3553e-14 -1.84199e-14 0 0 2.759e-15 -7.53536e-14 -2.32588e-14 1.28005e-14 0 0 -1.32267e-13 1.3928e-13 -2.36222e-13 1.68577e-13 0 0 -1.29783e-13 1.31719e-13 -1.88989e-13 1.41558e-13 0 0 9.08112e-15 -9.4269e-14 7.17431e-14 -3.48661e-14 0 0 5.81447e-14 -1.8863e-13 1.73332e-13 -9.14556e-14 0 0 -1.29443e-13 6.29252e-14 -5.68472e-14 3.05154e-14 0 0 -2.63781e-13 2.36847e-13 -2.33505e-13 1.06778e-13 0 0 -9.52437e-14 -1.52484e-14 -4.69861e-14 -1.59996e-14 0 0 1.68899e-14 -1.53869e-13 7.04673e-14 -1.50705e-13 0 0 -8.46382e-14 2.20209e-14 -7.29583e-14 -1.33716e-13 0 0 -1.85175e-13 1.467e-13 -2.00449e-13 -1.68547e-14 0 0 -9.21744e-14 -3.83824e-14 -5.17249e-14 -2.50172e-14 0 0 -1.30538e-13 -2.20473e-14 -1.08404e-14 -2.61435e-14 0 0 -1.65563e-13 4.75472e-14 -4.98754e-14 5.2108e-14 0 0 5.47033e-14 -2.24058e-13 1.8427e-13 1.18825e-14 0 0 -8.00323e-14 -4.7941e-15 3.63655e-14 1.12969e-13 0 0 -2.12904e-13 1.70051e-13 -4.50163e-14 1.02999e-13 0 0 -2.26948e-13 1.90677e-13 -4.46122e-14 5.88351e-14 0 0 -3.21481e-14 -1.061e-13 2.1246e-13 -1.10421e-13 0 0 -4.08859e-14 -1.24334e-13 2.45956e-13 -1.77588e-13 0 0 -2.08106e-13 1.15809e-13 1.32237e-14 -5.83721e-14 0 0 -1.33417e-13 2.55194e-14 1.30207e-14 1.25175e-14 0 0 -1.12055e-13 2.3444e-14 -8.83369e-14 1.37583e-13 0 0 -2.88766e-15 -1.49859e-13 2.43737e-14 9.26618e-14 0 0 -1.45664e-13 2.30201e-14 -1.25079e-13 1.34849e-13 0 0 -3.77593e-13 2.35555e-13 -2.02463e-13 6.74551e-14 0 0 -2.39088e-13 -1.09112e-13 2.58201e-13 -2.90809e-13 0 0 -2.18177e-13 -1.40015e-13 3.39015e-13 -4.13582e-13 0 0 -1.78117e-13 -1.47964e-13 3.55965e-13 -4.57256e-13 0 0 -1.22146e-13 -1.09026e-13 2.10746e-13 -3.03275e-13 0 0 -2.86696e-13 2.59072e-13 -2.38402e-13 1.35171e-14 0 0 -4.11599e-13 4.50685e-13 -3.55648e-13 -2.17656e-14 0 0 -4.44527e-13 5.08254e-13 -3.60794e-13 -1.58933e-13 0 0 1.16858e-13 -3.7152e-13 4.90735e-13 -7.05198e-13 0 0 -1.26485e-14 -1.72288e-13 3.11765e-13 -6.22362e-13 0 0 -4.33478e-13 5.33822e-13 -3.65513e-13 -2.6169e-13 0 0 -1.83559e-13 1.52627e-13 1.18704e-14 -4.64623e-13 0 0 -3.55263e-13 3.38875e-13 -1.86435e-13 -2.05617e-13 0 0 -2.1589e-13 -3.61545e-14 1.66617e-13 -2.77276e-13 0 0 -3.05494e-13 -1.26701e-14 1.62513e-13 -2.91024e-13 0 0 -5.68699e-13 4.22951e-13 -2.24479e-13 -2.03773e-13 0 0 -2.26398e-13 5.7775e-14 3.51148e-14 -4.17615e-13 0 0 -1.68089e-14 -8.79583e-14 -3.28431e-14 -2.72642e-13 0 0 -3.27124e-14 -2.53662e-14 -2.32768e-13 -4.74847e-14 0 0 -2.51021e-13 2.95669e-13 -6.19007e-13 2.59742e-13 0 0 -2.16403e-13 2.16807e-13 -5.40484e-13 2.38387e-13 0 0 -9.46296e-15 -1.22973e-13 -1.05604e-13 -1.0953e-13 0 0 3.09631e-14 -1.5602e-13 1.79804e-14 -2.39087e-13 0 0 6.46552e-15 -1.77583e-13 8.86875e-14 -2.27802e-13 0 0 -4.49567e-13 4.01081e-13 -3.15086e-13 7.69553e-14 0 0 -4.79333e-13 3.94257e-13 -2.07211e-13 5.50822e-14 0 0 9.33092e-14 -4.2122e-13 5.91218e-13 -4.20131e-13 0 0 -1.52232e-13 1.38045e-14 1.96427e-13 -2.03291e-13 0 0 -4.41139e-13 4.15739e-13 -1.52833e-13 -3.90072e-14 0 0 -5.96987e-13 7.00968e-13 -3.77863e-13 1.18258e-16 0 0 -2.33087e-13 2.81339e-13 -3.32128e-15 -2.70743e-13 0 0 1.11693e-13 -2.25134e-13 4.46559e-13 -5.72867e-13 0 0 -4.58368e-13 5.27351e-13 -2.73175e-13 -6.71353e-14 0 0 -4.62037e-13 3.79315e-13 -2.38803e-13 1.36788e-13 0 0 -3.59839e-13 2.43675e-13 -3.58756e-13 3.46157e-13 0 0 -1.24857e-14 -2.21567e-13 6.58818e-14 1.66605e-14 0 0 -3.13011e-13 7.57006e-14 1.42335e-13 -3.11201e-13 0 0 -6.29725e-13 4.81189e-13 -1.28685e-13 -3.24534e-13 0 0 3.21345e-13 -8.56831e-13 8.28402e-13 -6.92258e-13 0 0 -1.33863e-13 -2.21464e-13 1.48871e-13 -2.50098e-13 0 0 -1.04446e-12 1.03184e-12 -1.05057e-12 3.73768e-13 0 0 3.15086e-14 -3.78541e-13 -1.36462e-13 3.79369e-14 0 0 7.10549e-13 -1.22796e-12 5.00573e-13 -1.87729e-13 0 0 -1.06661e-13 -1.31932e-13 -2.92858e-13 1.58603e-13 0 0 -4.53225e-13 1.92733e-13 -3.70469e-13 1.19193e-13 0 0 -7.64148e-13 2.90283e-13 -5.85531e-13 3.93261e-13 0 0 -1.31454e-13 -8.04617e-13 1.06061e-13 1.37009e-13 0 0 4.4954e-13 -1.44528e-12 6.76347e-13 -8.38563e-14 0 0 -4.49463e-13 -6.30412e-14 -3.70675e-13 3.15847e-13 0 0 -7.4921e-13 6.01606e-13 -4.35377e-13 -3.97885e-15 0 0 -6.98085e-13 7.76622e-13 -4.49438e-13 -9.78777e-15 0 0 1.72617e-13 -4.94046e-13 4.57914e-13 -4.63018e-13 0 0 5.93579e-13 -1.20579e-12 9.95312e-13 -6.57458e-13 0 0 -1.07713e-13 -2.6499e-13 2.89222e-13 -4.59483e-13 0 0 -8.97615e-13 7.15665e-13 -1.79225e-13 -4.57309e-13 0 0 -7.75067e-13 5.88678e-13 -5.70409e-14 -5.27776e-13 0 0 -1.448e-13 9.64826e-14 -2.96241e-14 -5.18175e-13 0 0 1.23438e-13 8.44728e-14 -1.83275e-13 -3.69345e-13 0 0 7.40031e-14 3.69508e-13 -8.09038e-13 1.13917e-13 0 0 -1.39713e-13 5.67475e-13 -1.06903e-12 2.89612e-13 0 0 -1.80523e-13 4.44831e-13 -9.68329e-13 2.32124e-13 0 0 -1.29151e-13 -8.29527e-14 -5.52324e-13 7.09596e-15 0 0 -9.08001e-14 -4.98632e-13 -2.71082e-13 -2.15768e-13 0 0 -1.38945e-13 -4.81585e-13 -3.30869e-13 -2.03278e-13 0 0 -2.85456e-13 -3.94311e-13 -3.85654e-13 -1.23569e-13 0 0 -3.01448e-13 -4.19256e-13 -2.86393e-13 -1.45757e-13 0 0 -2.23103e-13 -5.57707e-13 7.02807e-14 -3.05143e-13 0 0 -1.69185e-13 -4.90146e-13 3.02996e-14 -2.17904e-13 0 0 -3.31234e-13 2.21285e-14 -5.98069e-13 3.03247e-13 0 0 -4.43962e-13 1.93125e-13 -6.78987e-13 3.79319e-13 0 0 -1.05084e-13 -3.6605e-13 -6.09269e-14 -5.25303e-14 0 0 1.90381e-13 -7.60028e-13 2.8377e-13 -3.13208e-13 0 0 -1.17435e-13 -2.98291e-13 -1.07037e-13 -1.49262e-13 0 0 -5.34595e-13 3.38503e-13 -6.9489e-13 1.80581e-13 0 0 -2.94819e-13 1.47788e-14 -3.60348e-13 -7.17055e-14 0 0 -1.98079e-13 -1.05349e-13 -1.59431e-13 -2.87555e-13 0 0 -5.23239e-14 -2.98956e-13 4.25475e-14 -4.22586e-13 0 0 -1.01968e-13 -1.8336e-13 -1.01326e-13 -2.19239e-13 0 0 -6.73904e-13 6.74736e-13 -9.42564e-13 4.36362e-13 0 0 -1.5393e-13 -2.65116e-13 1.96028e-15 -7.00706e-14 0 0 -1.17541e-13 -3.70813e-13 1.73809e-13 -2.70416e-13 0 0 -6.70755e-14 -2.68783e-13 -5.58165e-14 -2.28415e-13 0 0 -5.12986e-14 -2.55601e-13 -1.37594e-13 -1.50569e-13 0 0 -7.54699e-13 6.66388e-13 -9.24986e-13 4.16283e-13 0 0 -2.81664e-13 -1.59144e-13 -7.37293e-14 -7.52699e-14 0 0 -2.38163e-13 -2.77414e-13 1.56593e-13 -3.78493e-13 0 0 -1.23782e-13 -3.42899e-13 1.23406e-13 -3.93528e-13 0 0 -5.52108e-14 -3.94828e-13 4.29431e-14 -2.98441e-13 0 0 -7.74211e-13 6.3995e-13 -1.02451e-12 4.52142e-13 0 0 -2.98292e-13 -1.83667e-13 -2.30029e-13 1.81839e-14 0 0 -3.58092e-13 -1.58905e-13 7.55929e-14 -5.00425e-13 0 0 -2.28066e-13 -1.21567e-13 -1.34557e-13 -4.43459e-13 0 0 -1.20408e-13 -3.57859e-13 -1.37312e-13 -2.69157e-13 0 0 -9.32555e-13 6.06273e-13 -9.34945e-13 2.55629e-13 0 0 -2.07082e-13 -3.85959e-13 -2.87518e-13 1.38978e-13 0 0 -7.14648e-14 -5.64081e-13 -1.00379e-13 5.52537e-14 0 0 -3.92034e-13 -1.31112e-13 -3.08086e-13 -1.42668e-13 0 0 1.6129e-13 -1.03106e-12 4.38492e-13 -5.92935e-13 0 0 -8.76131e-13 3.59693e-13 -7.22484e-13 2.43645e-13 0 0 -1.0981e-12 7.06894e-13 -8.51691e-13 3.27734e-13 0 0 1.55025e-13 -7.97846e-13 6.40536e-13 -6.10416e-13 0 0 -2.72317e-13 -6.02693e-15 1.35135e-13 -4.21511e-13 0 0 -2.48142e-13 -1.40328e-13 1.53341e-13 -1.88027e-13 0 0 -6.27904e-13 2.61007e-13 -5.47883e-13 6.84246e-13 0 0 -9.91047e-13 5.70306e-13 -7.97326e-13 8.63173e-13 0 0 5.87403e-14 -9.16354e-13 8.10089e-13 -4.09136e-13 0 0 -4.36768e-13 -4.58257e-14 1.38689e-13 -1.64107e-13 0 0 -3.98877e-13 -1.54551e-13 6.71914e-14 2.06984e-13 0 0 -6.34264e-13 1.63001e-14 -3.18413e-13 8.20923e-13 0 0 -7.93498e-13 1.40321e-13 -4.05616e-13 7.90117e-13 0 0 -4.64931e-13 -2.40525e-13 7.57911e-14 -2.75372e-14 0 0 -1.70308e-13 -3.27654e-13 -1.74026e-13 -2.50839e-13 0 0 2.58208e-14 -5.4544e-13 -3.73247e-13 -2.09308e-13 0 0 -8.40523e-13 4.57056e-13 -1.20461e-12 2.11157e-13 0 0 -6.54887e-13 -1.19699e-13 -3.17805e-13 -3.44876e-13 0 0 -2.66252e-13 -8.22194e-13 5.7599e-13 -1.09107e-12 0 0 2.28099e-14 -9.14921e-13 3.90495e-13 -1.21151e-12 0 0 -3.7347e-13 4.9307e-14 -1.13901e-12 1.5817e-14 0 0 -8.94839e-13 9.05453e-13 -2.23147e-12 9.67846e-13 0 0 -3.2846e-13 -2.28073e-13 -7.84057e-13 -7.11596e-14 0 0 -2.92576e-14 -1.03409e-12 4.47038e-13 -1.09931e-12 0 0 -1.80605e-13 -7.12581e-13 1.30634e-13 -1.08903e-12 0 0 -6.34519e-13 7.81557e-14 -9.59533e-13 -1.67578e-13 0 0 -8.3874e-13 4.01625e-13 -1.82547e-12 1.06476e-12 0 0 8.51433e-14 -8.62964e-13 -1.01701e-12 9.87194e-13 0 0 -2.43404e-13 -3.70963e-13 -1.08471e-12 5.2339e-13 0 0 -6.44379e-13 1.77988e-13 -1.05421e-12 -2.42677e-13 0 0 1.53452e-14 -9.71148e-13 2.12132e-13 -1.07151e-12 0 0 -6.25756e-13 -8.89841e-14 -5.56978e-13 -5.93008e-13 0 0 -4.75059e-13 -1.625e-13 -7.5059e-13 -5.72734e-13 0 0 -4.3285e-13 -2.21779e-13 -8.96561e-13 -4.74628e-13 0 0 -4.67303e-13 -1.95979e-13 -7.92921e-13 -5.54149e-13 0 0 -4.52726e-14 -9.48371e-13 2.41016e-13 -9.40644e-13 0 0 -7.71306e-13 -5.45934e-14 -3.92845e-13 -3.77553e-13 0 0 -5.0604e-13 -2.48137e-13 -5.452e-13 -3.89502e-13 0 0 -4.0358e-13 -1.38539e-13 -1.06834e-12 -1.34042e-13 0 0 -5.71291e-13 -4.36972e-14 -1.02384e-12 -1.52344e-13 0 0 1.18519e-13 -1.41944e-12 7.2266e-13 -1.10983e-12 0 0 -5.19608e-13 -5.14321e-13 -4.98524e-14 -4.77792e-13 0 0 -5.09203e-13 -2.73289e-13 -5.16375e-13 -2.9458e-13 0 0 -3.90999e-13 -1.35512e-13 -1.03922e-12 -2.66323e-13 0 0 -5.31099e-13 7.26747e-14 -1.33813e-12 -1.92573e-13 0 0 1.14947e-13 -1.2849e-12 2.49584e-13 -1.0779e-12 0 0 -5.8588e-13 -3.76203e-13 -2.73031e-13 -7.90835e-13 0 0 -5.20853e-13 -2.28292e-13 -3.98776e-13 -7.22406e-13 0 0 -9.19868e-13 2.89663e-13 -7.60387e-13 -5.5761e-13 0 0 -1.12939e-12 3.05052e-13 -6.66313e-13 -5.90635e-13 0 0 3.38053e-13 -2.17161e-12 1.58604e-12 -1.67451e-12 0 0 -1.15565e-12 8.21003e-14 -5.28155e-13 -4.16003e-13 0 0 -1.79974e-12 1.38534e-12 -1.80293e-12 7.97236e-14 0 0 -2.1519e-13 -6.74305e-13 2.67216e-13 -1.40779e-12 0 0 -5.0792e-14 -8.54288e-13 5.65206e-13 -1.6033e-12 0 0 1.26572e-13 -1.29403e-12 8.5105e-13 -1.5371e-12 0 0 -1.2488e-12 9.62401e-13 -1.74303e-12 3.45001e-13 0 0 -1.29095e-12 1.11947e-12 -1.88671e-12 4.78328e-13 0 0 1.59564e-14 -1.22782e-12 1.02464e-12 -1.51846e-12 0 0 -2.39312e-13 -1.09522e-12 1.28892e-12 -1.7907e-12 0
				</DataArray>
				<DataArray Name="VitesseY" type="Float32" format="ascii">