<?xml version="1.0"?>
<VTKFile type="PolyData">
	<PolyData>
		<Piece NumberOfPoints="1206" NumberOfPolys="1000">
			<Points>
				<DataArray type="Float32" NumberOfComponents="3" format="ascii">
 0 0 0 0.02 0 0 0.04 0 0 0.06 0 0 0.08 0 0 0.1 0 0 0 0.005 0 0.02 0.005 0 0.04 0.005 0 0.06 0.005 0 0.08 0.005 0 0.1 0.005 0 0 0.01 0 0.02 0.01 0 0.04 0.01 0 0.06 0.01 0 0.08 0.01 0 0.1 0.01 0 0 0.015 0 0.02 0.015 0 0.04 0.015 0 0.06 0.015 0 0.08 0.015 0 0.1 0.015 0 0 0.02 0 0.02 0.02 0 0.04 0.02 0 0.06 0.02 0 0.08 0.02 0 0.1 0.02 0 0 0.025 0 0.02 0.025 0 0.04 0.025 0 0.06 0.025 0 0.08 0.025 0 0.1 0.025 0 0 0.03 0 0.02 0.03 0 0.04 0.03 0 0.06 0.03 0 0.08 0.03 0 0.1 0.03 0 0 0.035 0 0.02 0.035 0 0.04 0.035 0 0.06 0.035 0 0.08 0.035 0 0.1 0.035 0 0 0.04 0 0.02 0.04 0 0.04 0.04 0 0.06 0.04 0 0.08 0.04 0 0.1 0.04 0 0 0.045 0 0.02 0.045 0 0.04 0.045 0 0.06 0.045 0 0.08 0.045 0 0.1 0.045 0 0 0.05 0 0.02 0.05 0 0.04 0.05 0 0.06 0.05 0 0.08 0.05 0 0.1 0.05 0 0 0.055 0 0.02 0.055 0 0.04 0.055 0 0.06 0.055 0 0.08 0.055 0 0.1 0.055 0 0 0.06 0 0.02 0.06 0 0.04 0.06 0 0.06 0.06 0 0.08 0.06 0 0.1 0.06 0 0 0.065 0 0.02 0.065 0 0.04 0.065 0 0.06 0.065 0 0.08 0.065 0 0.1 0.065 0 0 0.07 0 0.02 0.07 0 0.04 0.07 0 0.06 0.07 0 0.08 0.07 0 0.1 0.07 0 0 0.075 0 0.02 0.075 0 0.04 0.075 0 0.06 0.075 0 0.08 0.075 0 0.1 0.075 0 0 0.08 0 0.02 0.08 0 0.04 0.08 0 0.06 0.08 0 0.08 0.08 0 0.1 0.08 0 0 0.085 0 0.02 0.085 0 0.04 0.085 0 0.06 0.085 0 0.08 0.085 0 0.1 0.085 0 0 0.09 0 0.02 0.09 0 0.04 0.09 0 0.06 0.09 0 0.08 0.09 0 0.1 0.09 0 0 0.095 0 0.02 0.095 0 0.04 0.095 0 0.06 0.095 0 0.08 0.095 0 0.1 0.095 0 0 0.1 0 0.02 0.1 0 0.04 0.1 0 0.06 0.1 0 0.08 0.1 0 0.1 0.1 0 0 0.105 0 0.02 0.105 0 0.04 0.105 0 0.06 0.105 0 0.08 0.105 0 0.1 0.105 0 0 0.11 0 0.02 0.11 0 0.04 0.11 0 0.06 0.11 0 0.08 0.11 0 0.1 0.11 0 0 0.115 0 0.02 0.115 0 0.04 0.115 0 0.06 0.115 0 0.08 0.115 0 0.1 0.115 0 0 0.12 0 0.02 0.12 0 0.04 0.12 0 0.06 0.12 0 0.08 0.12 0 0.1 0.12 0 0 0.125 0 0.02 0.125 0 0.04 0.125 0 0.06 0.125 0 0.08 0.125 0 0.1 0.125 0 0 0.13 0 0.02 0.13 0 0.04 0.13 0 0.06 0.13 0 0.08 0.13 0 0.1 0.13 0 0 0.135 0 0.02 0.135 0 0.04 0.135 0 0.06 0.135 0 0.08 0.135 0 0.1 0.135 0 0 0.14 0 0.02 0.14 0 0.04 0.14 0 0.06 0.14 0 0.08 0.14 0 0.1 0.14 0 0 0.145 0 0.02 0.145 0 0.04 0.145 0 0.06 0.145 0 0.08 0.145 0 0.1 0.145 0 0 0.15 0 0.02 0.15 0 0.04 0.15 0 0.06 0.15 0 0.08 0.15 0 0.1 0.15 0 0 0.155 0 0.02 0.155 0 0.04 0.155 0 0.06 0.155 0 0.08 0.155 0 0.1 0.155 0 0 0.16 0 0.02 0.16 0 0.04 0.16 0 0.06 0.16 0 0.08 0.16 0 0.1 0.16 0 0 0.165 0 0.02 0.165 0 0.04 0.165 0 0.06 0.165 0 0.08 0.165 0 0.1 0.165 0 0 0.17 0 0.02 0.17 0 0.04 0.17 0 0.06 0.17 0 0.08 0.17 0 0.1 0.17 0 0 0.175 0 0.02 0.175 0 0.04 0.175 0 0.06 0.175 0 0.08 0.175 0 0.1 0.175 0 0 0.18 0 0.02 0.18 0 0.04 0.18 0 0.06 0.18 0 0.08 0.18 0 0.1 0.18 0 0 0.185 0 0.02 0.185 0 0.04 0.185 0 0.06 0.185 0 0.08 0.185 0 0.1 0.185 0 0 0.19 0 0.02 0.19 0 0.04 0.19 0 0.06 0.19 0 0.08 0.19 0 0.1 0.19 0 0 0.195 0 0.02 0.195 0 0.04 0.195 0 0.06 0.195 0 0.08 0.195 0 0.1 0.195 0 0 0.2 0 0.02 0.2 0 0.04 0.2 0 0.06 0.2 0 0.08 0.2 0 0.1 0.2 0 0 0.205 0 0.02 0.205 0 0.04 0.205 0 0.06 0.205 0 0.08 0.205 0 0.1 0.205 0 0 0.21 0 0.02 0.21 0 0.04 0.21 0 0.06 0.21 0 0.08 0.21 0 0.1 0.21 0 0 0.215 0 0.02 0.215 0 0.04 0.215 0 0.06 0.215 0 0.08 0.215 0 0.1 0.215 0 0 0.22 0 0.02 0.22 0 0.04 0.22 0 0.06 0.22 0 0.08 0.22 0 0.1 0.22 0 0 0.225 0 0.02 0.225 0 0.04 0.225 0 0.06 0.225 0 0.08 0.225 0 0.1 0.225 0 0 0.23 0 0.02 0.23 0 0.04 0.23 0 0.06 0.23 0 0.08 0.23 0 0.1 0.23 0 0 0.235 0 0.02 0.235 0 0.04 0.235 0 0.06 0.235 0 0.08 0.235 0 0.1 0.235 0 0 0.24 0 0.02 0.24 0 0.04 0.24 0 0.06 0.24 0 0.08 0.24 0 0.1 0.24 0 0 0.245 0 0.02 0.245 0 0.04 0.245 0 0.06 0.245 0 0.08 0.245 0 0.1 0.245 0 0 0.25 0 0.02 0.25 0 0.04 0.25 0 0.06 0.25 0 0.08 0.25 0 0.1 0.25 0 0 0.255 0 0.02 0.255 0 0.04 0.255 0 0.06 0.255 0 0.08 0.255 0 0.1 0.255 0 0 0.26 0 0.02 0.26 0 0.04 0.26 0 0.06 0.26 0 0.08 0.26 0 0.1 0.26 0 0 0.265 0 0.02 0.265 0 0.04 0.265 0 0.06 0.265 0 0.08 0.265 0 0.1 0.265 0 0 0.27 0 0.02 0.27 0 0.04 0.27 0 0.06 0.27 0 0.08 0.27 0 0.1 0.27 0 0 0.275 0 0.02 0.275 0 0.04 0.275 0 0.06 0.275 0 0.08 0.275 0 0.1 0.275 0 0 0.28 0 0.02 0.28 0 0.04 0.28 0 0.06 0.28 0 0.08 0.28 0 0.1 0.28 0 0 0.285 0 0.02 0.285 0 0.04 0.285 0 0.06 0.285 0 0.08 0.285 0 0.1 0.285 0 0 0.29 0 0.02 0.29 0 0.04 0.29 0 0.06 0.29 0 0.08 0.29 0 0.1 0.29 0 0 0.295 0 0.02 0.295 0 0.04 0.295 0 0.06 0.295 0 0.08 0.295 0 0.1 0.295 0 0 0.3 0 0.02 0.3 0 0.04 0.3 0 0.06 0.3 0 0.08 0.3 0 0.1 0.3 0 0 0.305 0 0.02 0.305 0 0.04 0.305 0 0.06 0.305 0 0.08 0.305 0 0.1 0.305 0 0 0.31 0 0.02 0.31 0 0.04 0.31 0 0.06 0.31 0 0.08 0.31 0 0.1 0.31 0 0 0.315 0 0.02 0.315 0 0.04 0.315 0 0.06 0.315 0 0.08 0.315 0 0.1 0.315 0 0 0.32 0 0.02 0.32 0 0.04 0.32 0 0.06 0.32 0 0.08 0.32 0 0.1 0.32 0 0 0.325 0 0.02 0.325 0 0.04 0.325 0 0.06 0.325 0 0.08 0.325 0 0.1 0.325 0 0 0.33 0 0.02 0.33 0 0.04 0.33 0 0.06 0.33 0 0.08 0.33 0 0.1 0.33 0 0 0.335 0 0.02 0.335 0 0.04 0.335 0 0.06 0.335 0 0.08 0.335 0 0.1 0.335 0 0 0.34 0 0.02 0.34 0 0.04 0.34 0 0.06 0.34 0 0.08 0.34 0 0.1 0.34 0 0 0.345 0 0.02 0.345 0 0.04 0.345 0 0.06 0.345 0 0.08 0.345 0 0.1 0.345 0 0 0.35 0 0.02 0.35 0 0.04 0.35 0 0.06 0.35 0 0.08 0.35 0 0.1 0.35 0 0 0.355 0 0.02 0.355 0 0.04 0.355 0 0.06 0.355 0 0.08 0.355 0 0.1 0.355 0 0 0.36 0 0.02 0.36 0 0.04 0.36 0 0.06 0.36 0 0.08 0.36 0 0.1 0.36 0 0 0.365 0 0.02 0.365 0 0.04 0.365 0 0.06 0.365 0 0.08 0.365 0 0.1 0.365 0 0 0.37 0 0.02 0.37 0 0.04 0.37 0 0.06 0.37 0 0.08 0.37 0 0.1 0.37 0 0 0.375 0 0.02 0.375 0 0.04 0.375 0 0.06 0.375 0 0.08 0.375 0 0.1 0.375 0 0 0.38 0 0.02 0.38 0 0.04 0.38 0 0.06 0.38 0 0.08 0.38 0 0.1 0.38 0 0 0.385 0 0.02 0.385 0 0.04 0.385 0 0.06 0.385 0 0.08 0.385 0 0.1 0.385 0 0 0.39 0 0.02 0.39 0 0.04 0.39 0 0.06 0.39 0 0.08 0.39 0 0.1 0.39 0 0 0.395 0 0.02 0.395 0 0.04 0.395 0 0.06 0.395 0 0.08 0.395 0 0.1 0.395 0 0 0.4 0 0.02 0.4 0 0.04 0.4 0 0.06 0.4 0 0.08 0.4 0 0.1 0.4 0 0 0.405 0 0.02 0.405 0 0.04 0.405 0 0.06 0.405 0 0.08 0.405 0 0.1 0.405 0 0 0.41 0 0.02 0.41 0 0.04 0.41 0 0.06 0.41 0 0.08 0.41 0 0.1 0.41 0 0 0.415 0 0.02 0.415 0 0.04 0.415 0 0.06 0.415 0 0.08 0.415 0 0.1 0.415 0 0 0.42 0 0.02 0.42 0 0.04 0.42 0 0.06 0.42 0 0.08 0.42 0 0.1 0.42 0 0 0.425 0 0.02 0.425 0 0.04 0.425 0 0.06 0.425 0 0.08 0.425 0 0.1 0.425 0 0 0.43 0 0.02 0.43 0 0.04 0.43 0 0.06 0.43 0 0.08 0.43 0 0.1 0.43 0 0 0.435 0 0.02 0.435 0 0.04 0.435 0 0.06 0.435 0 0.08 0.435 0 0.1 0.435 0 0 0.44 0 0.02 0.44 0 0.04 0.44 0 0.06 0.44 0 0.08 0.44 0 0.1 0.44 0 0 0.445 0 0.02 0.445 0 0.04 0.445 0 0.06 0.445 0 0.08 0.445 0 0.1 0.445 0 0 0.45 0 0.02 0.45 0 0.04 0.45 0 0.06 0.45 0 0.08 0.45 0 0.1 0.45 0 0 0.455 0 0.02 0.455 0 0.04 0.455 0 0.06 0.455 0 0.08 0.455 0 0.1 0.455 0 0 0.46 0 0.02 0.46 0 0.04 0.46 0 0.06 0.46 0 0.08 0.46 0 0.1 0.46 0 0 0.465 0 0.02 0.465 0 0.04 0.465 0 0.06 0.465 0 0.08 0.465 0 0.1 0.465 0 0 0.47 0 0.02 0.47 0 0.04 0.47 0 0.06 0.47 0 0.08 0.47 0 0.1 0.47 0 0 0.475 0 0.02 0.475 0 0.04 0.475 0 0.06 0.475 0 0.08 0.475 0 0.1 0.475 0 0 0.48 0 0.02 0.48 0 0.04 0.48 0 0.06 0.48 0 0.08 0.48 0 0.1 0.48 0 0 0.485 0 0.02 0.485 0 0.04 0.485 0 0.06 0.485 0 0.08 0.485 0 0.1 0.485 0 0 0.49 0 0.02 0.49 0 0.04 0.49 0 0.06 0.49 0 0.08 0.49 0 0.1 0.49 0 0 0.495 0 0.02 0.495 0 0.04 0.495 0 0.06 0.495 0 0.08 0.495 0 0.1 0.495 0 0 0.5 0 0.02 0.5 0 0.04 0.5 0 0.06 0.5 0 0.08 0.5 0 0.1 0.5 0 0 0.505 0 0.02 0.505 0 0.04 0.505 0 0.06 0.505 0 0.08 0.505 0 0.1 0.505 0 0 0.51 0 0.02 0.51 0 0.04 0.51 0 0.06 0.51 0 0.08 0.51 0 0.1 0.51 0 0 0.515 0 0.02 0.515 0 0.04 0.515 0 0.06 0.515 0 0.08 0.515 0 0.1 0.515 0 0 0.52 0 0.02 0.52 0 0.04 0.52 0 0.06 0.52 0 0.08 0.52 0 0.1 0.52 0 0 0.525 0 0.02 0.525 0 0.04 0.525 0 0.06 0.525 0 0.08 0.525 0 0.1 0.525 0 0 0.53 0 0.02 0.53 0 0.04 0.53 0 0.06 0.53 0 0.08 0.53 0 0.1 0.53 0 0 0.535 0 0.02 0.535 0 0.04 0.535 0 0.06 0.535 0 0.08 0.535 0 0.1 0.535 0 0 0.54 0 0.02 0.54 0 0.04 0.54 0 0.06 0.54 0 0.08 0.54 0 0.1 0.54 0 0 0.545 0 0.02 0.545 0 0.04 0.545 0 0.06 0.545 0 0.08 0.545 0 0.1 0.545 0 0 0.55 0 0.02 0.55 0 0.04 0.55 0 0.06 0.55 0 0.08 0.55 0 0.1 0.55 0 0 0.555 0 0.02 0.555 0 0.04 0.555 0 0.06 0.555 0 0.08 0.555 0 0.1 0.555 0 0 0.56 0 0.02 0.56 0 0.04 0.56 0 0.06 0.56 0 0.08 0.56 0 0.1 0.56 0 0 0.565 0 0.02 0.565 0 0.04 0.565 0 0.06 0.565 0 0.08 0.565 0 0.1 0.565 0 0 0.57 0 0.02 0.57 0 0.04 0.57 0 0.06 0.57 0 0.08 0.57 0 0.1 0.57 0 0 0.575 0 0.02 0.575 0 0.04 0.575 0 0.06 0.575 0 0.08 0.575 0 0.1 0.575 0 0 0.58 0 0.02 0.58 0 0.04 0.58 0 0.06 0.58 0 0.08 0.58 0 0.1 0.58 0 0 0.585 0 0.02 0.585 0 0.04 0.585 0 0.06 0.585 0 0.08 0.585 0 0.1 0.585 0 0 0.59 0 0.02 0.59 0 0.04 0.59 0 0.06 0.59 0 0.08 0.59 0 0.1 0.59 0 0 0.595 0 0.02 0.595 0 0.04 0.595 0 0.06 0.595 0 0.08 0.595 0 0.1 0.595 0 0 0.6 0 0.02 0.6 0 0.04 0.6 0 0.06 0.6 0 0.08 0.6 0 0.1 0.6 0 0 0.605 0 0.02 0.605 0 0.04 0.605 0 0.06 0.605 0 0.08 0.605 0 0.1 0.605 0 0 0.61 0 0.02 0.61 0 0.04 0.61 0 0.06 0.61 0 0.08 0.61 0 0.1 0.61 0 0 0.615 0 0.02 0.615 0 0.04 0.615 0 0.06 0.615 0 0.08 0.615 0 0.1 0.615 0 0 0.62 0 0.02 0.62 0 0.04 0.62 0 0.06 0.62 0 0.08 0.62 0 0.1 0.62 0 0 0.625 0 0.02 0.625 0 0.04 0.625 0 0.06 0.625 0 0.08 0.625 0 0.1 0.625 0 0 0.63 0 0.02 0.63 0 0.04 0.63 0 0.06 0.63 0 0.08 0.63 0 0.1 0.63 0 0 0.635 0 0.02 0.635 0 0.04 0.635 0 0.06 0.635 0 0.08 0.635 0 0.1 0.635 0 0 0.64 0 0.02 0.64 0 0.04 0.64 0 0.06 0.64 0 0.08 0.64 0 0.1 0.64 0 0 0.645 0 0.02 0.645 0 0.04 0.645 0 0.06 0.645 0 0.08 0.645 0 0.1 0.645 0 0 0.65 0 0.02 0.65 0 0.04 0.65 0 0.06 0.65 0 0.08 0.65 0 0.1 0.65 0 0 0.655 0 0.02 0.655 0 0.04 0.655 0 0.06 0.655 0 0.08 0.655 0 0.1 0.655 0 0 0.66 0 0.02 0.66 0 0.04 0.66 0 0.06 0.66 0 0.08 0.66 0 0.1 0.66 0 0 0.665 0 0.02 0.665 0 0.04 0.665 0 0.06 0.665 0 0.08 0.665 0 0.1 0.665 0 0 0.67 0 0.02 0.67 0 0.04 0.67 0 0.06 0.67 0 0.08 0.67 0 0.1 0.67 0 0 0.675 0 0.02 0.675 0 0.04 0.675 0 0.06 0.675 0 0.08 0.675 0 0.1 0.675 0 0 0.68 0 0.02 0.68 0 0.04 0.68 0 0.06 0.68 0 0.08 0.68 0 0.1 0.68 0 0 0.685 0 0.02 0.685 0 0.04 0.685 0 0.06 0.685 0 0.08 0.685 0 0.1 0.685 0 0 0.69 0 0.02 0.69 0 0.04 0.69 0 0.06 0.69 0 0.08 0.69 0 0.1 
[...]
			<PointData Scalars="VitesseX">
				<DataArray Name="VitesseX" type="Float32" format="ascii">
 0 2.29649e-14 -1.11551e-14 1.90611e-14 1.72822e-14 0 0 1.37949e-14 3.40642e-17 1.43879e-14 1.93448e-14 0 0 2.63105e-15 1.32293e-14 1.43253e-14 1.95289e-14 0 0 5.39889e-17 1.47542e-14 2.38976e-14 1.8313e-14 0 0 -8.25793e-15 2.6458e-14 2.07582e-14 2.50626e-14 0 0 -1.00753e-14 2.67453e-14 2.95756e-14 2.09866e-14 0 0 1.30535e-14 -1.16704e-14 7.24412e-14 -3.43536e-15 0 0 9.55829e-15 -9.46081e-15 7.00828e-14 6.32354e-15 0 0 -7.38876e-15 1.07743e-14 5.3293e-14 2.31601e-14 0 0 -5.10077e-15 1.30761e-14 4.36073e-14 2.97981e-14 0 0 -9.15414e-15 2.09877e-14 3.1484e-14 3.38183e-14 0 0 1.09934e-14 -6.08e-15 5.5385e-14 1.59902e-14 0 0 5.41691e-14 -4.85988e-14 7.68584e-14 4.20313e-15 0 0 3.8982e-14 -3.11801e-15 1.69857e-14 4.04628e-14 0 0 1.00495e-14 4.57446e-14 -8.78754e-15 3.8434e-14 0 0 1.53316e-14 3.66351e-14 2.42479e-14 5.17126e-15 0 0 2.35922e-14 2.31802e-14 4.52611e-14 -6.34963e-15 0 0 6.92831e-15 5.16903e-14 3.2102e-14 -3.68231e-15 0 0 -7.83743e-15 9.40793e-14 -2.10199e-14 3.68954e-14 0 0 2.87354e-15 7.22056e-14 -1.59806e-14 3.59569e-14 0 0 4.36627e-14 -7.40512e-16 4.55779e-14 -2.23912e-14 0 0 4.04902e-14 7.99648e-15 3.08661e-14 -3.31606e-14 0 0 -8.79594e-15 7.48999e-14 -4.01121e-14 6.61492e-15 0 0 -4.72224e-14 1.28773e-13 -1.01205e-13 5.5156e-14 0 0 9.18963e-15 1.45345e-14 2.32429e-14 -3.14519e-15 0 0 4.87891e-14 -8.39065e-14 1.25256e-13 -4.46964e-14 0 0 -3.11667e-14 3.94982e-14 9.52428e-15 1.73847e-14 0 0 -5.05478e-14 1.00771e-13 -6.82596e-14 5.78578e-14 0 0 -1.0986e-14 5.38463e-14 -5.61923e-14 9.25664e-14 0 0 3.29392e-14 -1.35828e-14 1.34728e-14 6.89322e-14 0 0 1.93238e-14 1.50371e-14 1.94594e-14 5.50262e-14 0 0 -7.31036e-16 4.84763e-14 2.44648e-14 5.97062e-14 0 0 2.3834e-14 1.29758e-14 6.98021e-14 5.48146e-14 0 0 4.78556e-14 2.42563e-14 4.19778e-14 8.63071e-14 0 0 5.0825e-14 5.53431e-14 2.07858e-14 7.4407e-14 0 0 4.54656e-14 5.88011e-14 2.73986e-14 6.79781e-14 0 0 4.11938e-14 5.51786e-14 2.9897e-14 9.38861e-14 0 0 5.36097e-15 6.46974e-14 4.12062e-14 1.17164e-13 0 0 -2.96528e-14 7.80304e-14 1.82199e-14 1.55611e-13 0 0 -4.13534e-15 2.02909e-14 1.03178e-13 5.60691e-14 0 0 2.51175e-14 -4.63876e-14 2.36849e-13 -8.32229e-14 0 0 -4.22452e-14 6.0932e-14 1.08998e-13 2.44241e-14 0 0 -5.3348e-14 9.57332e-14 1.96926e-14 1.47278e-13 0 0 -3.97639e-15 3.27663e-14 8.16392e-14 1.05424e-13 0 0 -6.96703e-14 1.08489e-13 4.03193e-14 9.72535e-14 0 0 -4.84702e-14 3.50169e-14 1.31375e-13 3.33829e-14 0 0 -2.50545e-14 -9.7233e-15 1.89971e-13 -4.18249e-14 0 0 -1.06005e-13 1.58456e-13 -3.40117e-15 3.87027e-14 0 0 -3.00786e-14 9.7108e-14 6.54458e-15 1.84413e-15 0 0 8.78928e-14 -7.92685e-14 2.037e-13 -1.36063e-13 0 0 1.43445e-13 -1.69615e-13 3.38356e-13 -2.14582e-13 0 0 1.67336e-13 -1.40532e-13 2.91359e-13 -1.69522e-13 0 0 2.38703e-14 1.73658e-13 -1.49202e-14 1.47157e-14 0 0 -1.14086e-13 3.84969e-13 -1.45496e-13 9.02721e-14 0 0 5.62961e-14 8.57511e-14 1.93775e-13 -9.29309e-14 0 0 2.04196e-13 -1.2688e-13 3.87044e-13 -1.76119e-13 0 0 1.55053e-13 2.13133e-14 2.05774e-13 -7.07096e-14 0 0 3.66135e-14 2.02024e-13 8.04254e-14 -2.37411e-14 0 0 -6.48119e-15 2.07653e-13 1.432e-13 1.24481e-14 0 0 1.04172e-13 4.68313e-14 2.80629e-13 -1.16155e-14 0 0 1.08788e-13 1.13369e-13 1.42438e-13 9.68199e-14 0 0 9.51295e-14 1.62067e-13 1.54118e-14 2.40571e-13 0 0 1.65052e-13 -2.92564e-14 2.09672e-13 1.83132e-13 0 0 2.35997e-14 7.71644e-14 2.30992e-13 1.84277e-13 0 0 -2.56398e-15 1.47734e-13 2.16686e-13 1.95177e-13 0 0 8.61089e-14 6.06524e-14 3.31245e-13 9.01386e-14 0 0 -8.46172e-14 2.67827e-13 2.06664e-13 7.76302e-14 0 0 1.439e-15 3.62498e-14 4.28979e-13 -2.59302e-14 0 0 1.1539e-13 -1.76906e-13 6.12084e-13 -5.5809e-14 0 0 -8.4029e-15 5.42973e-14 3.49579e-13 1.39329e-13 0 0 -4.10851e-14 1.50983e-13 1.94594e-13 2.10232e-13 0 0 1.92703e-14 1.33404e-13 1.39962e-13 1.63589e-13 0 0 2.80496e-13 -2.49087e-13 4.20689e-13 -4.76342e-14 0 0 2.63506e-13 -1.67202e-13 3.8293e-13 -6.04768e-14 0 0 7.72338e-14 1.04993e-13 2.56995e-13 1.64587e-14 0 0 1.18797e-14 1.706e-13 1.82249e-13 1.81902e-13 0 0 1.50139e-14 2.38534e-13 9.27224e-14 3.27169e-13 0 0 2.94757e-13 -2.12368e-13 7.20161e-13 -2.15406e-13 0 0 2.18451e-13 -2.58198e-14 5.71796e-13 -2.83808e-13 0 0 1.97524e-13 2.03951e-13 1.27652e-13 -6.24868e-14 0 0 4.40088e-13 -1.34843e-13 2.62722e-13 -3.37948e-14 0 0 3.951e-13 -3.46936e-15 -1.45161e-14 1.88458e-13 0 0 2.09791e-13 1.82528e-13 -1.65882e-13 2.78577e-13 0 0 7.78218e-14 2.51899e-13 -2.81052e-13 4.73954e-13 0 0 9.34009e-14 1.48892e-13 -1.53124e-13 4.26177e-13 0 0 1.6834e-13 -1.89807e-13 2.83279e-13 1.73498e-13 0 0 1.92026e-13 -3.93141e-13 6.76478e-13 -1.27065e-13 0 0 1.00207e-13 -3.66041e-13 6.5904e-13 -9.36016e-14 0 0 -1.65032e-13 -9.57541e-14 4.68412e-13 5.82437e-14 0 0 -2.82072e-13 2.10585e-13 1.05226e-13 2.26859e-13 0 0 -2.60368e-13 2.36321e-13 -9.48454e-14 3.40445e-13 0 0 -8.84232e-14 1.62298e-13 -6.54107e-14 3.93333e-13 0 0 2.12046e-13 -7.98119e-14 1.33307e-14 4.10171e-13 0 0 3.68681e-13 -2.60612e-13 1.38001e-13 3.61843e-13 0 0 3.55601e-13 -2.47557e-13 2.14985e-13 2.79089e-13 0 0 2.87254e-13 -1.48309e-13 1.95692e-13 2.30999e-13 0 0 1.35187e-13 2.30674e-14 1.48027e-13 2.24499e-13 0 0 -7.74187e-15 1.92299e-13 1.32947e-13 1.91721e-13 0 0 -1.50199e-13 3.38625e-13 1.55127e-13 1.12952e-13 0 0 -1.57023e-13 4.59579e-13 2.14873e-13 3.22199e-14 0 0 -1.2854e-13 4.58894e-13 2.93321e-13 -4.61637e-14 0 0 -3.9953e-14 4.22691e-13 3.64295e-13 -8.51837e-14 0 0 6.24037e-14 3.62273e-13 4.19225e-13 -8.39513e-14 0 0 1.52799e-13 3.45206e-13 4.53849e-13 -4.60423e-14 0 0 2.28719e-13 3.25871e-13 5.22843e-13 -6.36356e-14 0 0 2.23395e-13 3.51841e-13 6.01475e-13 -1.19976e-13 0 0 1.36071e-13 4.99425e-13 4.84574e-13 -1.93416e-14 0 0 1.66886e-14 6.1364e-13 3.86047e-13 -3.77386e-14 0 0 1.15427e-14 5.89055e-13 3.02723e-13 -6.29789e-14 0 0 1.94126e-14 5.80302e-13 1.17295e-13 1.1814e-14 0 0 6.55297e-14 5.15849e-13 1.23183e-13 2.8655e-14 0 0 1.58534e-13 4.16019e-13 1.02784e-13 1.04689e-13 0 0 2.32525e-13 3.54404e-13 9.94208e-14 1.84923e-13 0 0 2.76863e-13 3.02109e-13 1.68642e-13 1.32302e-13 0 0 2.81864e-13 2.8111e-13 2.67498e-13 4.62117e-14 0 0 2.69401e-13 3.10333e-13 2.53352e-13 5.72603e-15 0 0 2.31461e-13 4.18921e-13 1.81186e-13 4.17739e-14 0 0 1.41821e-13 5.78407e-13 1.23684e-13 3.80516e-14 0 0 4.60039e-14 6.62185e-13 7.5188e-14 5.56088e-14 0 0 2.45739e-14 6.70246e-13 5.0987e-14 6.8458e-14 0 0 4.63534e-14 5.65973e-13 1.33153e-13 -1.03083e-14 0 0 1.17397e-13 2.96176e-13 3.48135e-13 -7.82117e-14 0 0 1.76629e-13 6.10885e-14 5.13642e-13 -1.32193e-13 0 0 2.04426e-13 -1.9754e-14 5.09085e-13 -1.10599e-13 0 0 1.7663e-13 5.65883e-15 3.84113e-13 8.79409e-14 0 0 5.39502e-14 1.27939e-13 2.6109e-13 2.12437e-13 0 0 1.88311e-14 2.38569e-13 1.93222e-13 2.49722e-13 0 0 2.62138e-14 2.50826e-13 1.58624e-13 2.35148e-13 0 0 7.39233e-14 2.19961e-13 1.52306e-13 2.28732e-13 0 0 1.36961e-13 1.86609e-13 1.34504e-13 2.48956e-13 0 0 1.30177e-13 1.68618e-13 2.27511e-13 1.52323e-13 0 0 1.1974e-13 1.71969e-13 3.0853e-13 -1.72911e-14 0 0 1.16051e-13 1.9122e-13 2.2871e-13 6.34202e-14 0 0 1.07079e-13 1.57901e-13 2.50871e-13 1.79421e-13 0 0 1.1648e-13 1.36207e-13 2.65995e-13 1.69999e-13 0 0 9.77565e-14 1.88167e-13 1.97e-13 1.71111e-13 0 0 5.10465e-14 2.71122e-13 1.03914e-13 1.96199e-13 0 0 7.43548e-14 2.52484e-13 1.05577e-13 1.22106e-13 0 0 9.60357e-14 1.77206e-13 2.07843e-13 -5.98804e-14 0 0 5.96417e-14 1.69492e-13 2.93534e-13 -1.89491e-14 0 0 4.09403e-14 1.99979e-13 2.66272e-13 1.36978e-13 0 0 2.69043e-14 2.77994e-13 1.81304e-13 2.42874e-13 0 0 1.16154e-13 1.89748e-13 3.09231e-13 1.75499e-13 0 0 1.36342e-13 1.73811e-13 3.92858e-13 1.82484e-13 0 0 6.86591e-14 3.01595e-13 3.138e-13 2.48939e-13 0 0 1.11177e-13 2.72364e-13 3.91236e-13 2.0878e-13 0 0 8.19823e-14 3.30511e-13 3.98691e-13 2.01709e-13 0 0 9.78995e-14 2.9471e-13 4.8955e-13 1.21723e-13 0 0 1.42061e-13 2.54296e-13 5.94462e-13 9.41051e-14 0 0 1.09714e-13 3.34342e-13 6.0028e-13 1.22847e-13 0 0 1.96303e-13 2.70339e-13 6.51209e-13 1.90635e-13 0 0 2.13338e-13 3.15789e-13 6.21585e-13 2.25624e-13 0 0 1.63322e-13 4.36178e-13 4.98185e-13 2.99713e-13 0 0 1.38292e-13 5.41496e-13 3.79822e-13 4.07676e-13 0 0 1.39537e-13 5.93585e-13 3.44481e-13 4.1213e-13 0 0 2.1869e-13 5.0817e-13 4.21278e-13 3.80666e-13 0 0 2.20606e-13 5.80055e-13 3.18999e-13 4.6819e-13 0 0 2.67929e-13 5.83693e-13 2.91566e-13 4.52229e-13 0 0 3.23737e-13 5.52725e-13 3.76409e-13 3.45891e-13 0 0 3.68693e-13 5.89843e-13 3.50047e-13 3.34052e-13 0 0 3.72406e-13 6.25465e-13 3.58522e-13 2.59698e-13 0 0 3.78322e-13 6.21886e-13 4.42572e-13 1.56557e-13 0 0 4.60813e-13 5.86891e-13 3.6559e-13 3.30391e-13 0 0 4.50538e-13 6.29418e-13 2.15857e-13 6.44379e-13 0 0 4.88569e-13 5.05324e-13 4.52329e-13 5.15244e-13 0 0 5.67498e-13 4.22834e-13 6.02693e-13 3.7904e-13 0 0 5.27206e-13 5.41829e-13 4.91987e-13 5.00427e-13 0 0 4.45469e-13 6.74915e-13 3.89982e-13 5.41532e-13 0 0 4.04669e-13 8.62072e-13 9.53804e-14 7.00213e-13 0 0 4.59249e-13 7.52102e-13 2.29303e-13 6.73948e-13 0 0 4.99691e-13 6.0865e-13 4.55843e-13 5.69926e-13 0 0 4.39648e-13 6.89091e-13 3.42526e-13 5.72729e-13 0 0 5.72849e-13 4.29181e-13 7.04997e-13 1.38989e-13 0 0 5.28005e-13 5.83561e-13 5.53261e-13 2.01737e-13 0 0 4.79908e-13 7.01774e-13 4.46466e-13 3.77478e-13 0 0 4.68492e-13 6.89996e-13 5.03824e-13 2.98045e-13 0 0 3.48903e-13 8.70964e-13 3.26263e-13 3.24924e-13 0 0 5.39801e-13 5.30883e-13 7.15229e-13 1.25758e-13 0 0 3.89578e-13 6.91537e-13 5.22921e-13 4.36962e-13 0 0 3.21294e-13 8.03272e-13 4.95117e-13 4.71622e-13 0 0 4.03465e-13 8.40349e-13 6.0701e-13 2.27562e-13 0 0 2.79744e-13 1.10827e-12 3.78719e-13 2.43527e-13 0 0 4.89244e-13 7.46898e-13 7.35626e-13 -4.65727e-14 0 0 3.41317e-13 8.77336e-13 5.43314e-13 2.12533e-13 0 0 1.00605e-13 1.04484e-12 2.93892e-13 5.55503e-13 0 0 1.50284e-13 8.80755e-13 4.53033e-13 4.71588e-13 0 0 2.93253e-13 6.59115e-13 6.91539e-13 2.9295e-13 0 0 2.87296e-13 6.15231e-13 7.13458e-13 1.78945e-13 0 0 -4.44221e-14 1.02249e-12 3.6871e-13 2.67321e-13 0 0 1.80279e-13 6.45148e-13 7.86273e-13 -7.23058e-14 0 0 3.92321e-13 4.41481e-13 9.31654e-13 -2.42291e-13 0 0 2.00609e-13 6.85228e-13 6.94086e-13 -8.67966e-16 0 0 2.1184e-13 4.75764e-13 1.05753e-12 -1.5424e-13 0 0 2.10877e-13 3.17149e-13 1.34111e-12 -3.12458e-13 0 0 -1.33582e-13 7.76972e-13 8.98647e-13 3.04549e-14 0 0 -2.59006e-13 1.02695e-12 5.78594e-13 3.24034e-13 0 0 -3.73377e-14 8.24092e-13 6.737e-13 3.8518e-13 0 0 5.01477e-14 6.3976e-13 1.04574e-12 1.22002e-13 0 0 1.38709e-13 4.41853e-13 1.22574e-12 1.02066e-13 0 0 1.8521e-13 3.91865e-13 1.25087e-12 1.56288e-13 0 0 1.47787e-13 3.6802e-13 1.4646e-12 -4.23627e-14 0
				</DataArray>
				<DataArray Name="VitesseY" type="Float32" format="ascii">