<?xml version="1.0"?>
<VTKFile type="PolyData">
	<PolyData>
		<Piece NumberOfPoints="1206" NumberOfPolys="1000">
			<Points>
				<DataArray type="Float32" NumberOfComponents="3" format="ascii">
 0 0 0 0.02 0 0 0.04 0 0 0.06 0 0 0.08 0 0 0.1 0 0 0 0.005 0 0.02 0.005 0 0.04 0.005 0 0.06 0.005 0 0.08 0.005 0 0.1 0.005 0 0 0.01 0 0.02 0.01 0 0.04 0.01 0 0.06 0.01 0 0.08 0.01 0 0.1 0.01 0 0 0.015 0 0.02 0.015 0 0.04 0.015 0 0.06 0.015 0 0.08 0.015 0 0.1 0.015 0 0 0.02 0 0.02 0.02 0 0.04 0.02 0 0.06 0.02 0 0.08 0.02 0 0.1 0.02 0 0 0.025 0 0.02 0.025 0 0.04 0.025 0 0.06 0.025 0 0.08 0.025 0 0.1 0.025 0 0 0.03 0 0.02 0.03 0 0.04 0.03 0 0.06 0.03 0 0.08 0.03 0 0.1 0.03 0 0 0.035 0 0.02 0.035 0 0.04 0.035 0 0.06 0.035 0 0.08 0.035 0 0.1 0.035 0 0 0.04 0 0.02 0.04 0 0.04 0.04 0 0.06 0.04 0 0.08 0.04 0 0.1 0.04 0 0 0.045 0 0.02 0.045 0 0.04 0.045 0 0.06 0.045 0 0.08 0.045 0 0.1 0.045 0 0 0.05 0 0.02 0.05 0 0.04 0.05 0 0.06 0.05 0 0.08 0.05 0 0.1 0.05 0 0 0.055 0 0.02 0.055 0 0.04 0.055 0 0.06 0.055 0 0.08 0.055 0 0.1 0.055 0 0 0.06 0 0.02 0.06 0 0.04 0.06 0 0.06 0.06 0 0.08 0.06 0 0.1 0.06 0 0 0.065 0 0.02 0.065 0 0.04 0.065 0 0.06 0.065 0 0.08 0.065 0 0.1 0.065 0 0 0.07 0 0.02 0.07 0 0.04 0.07 0 0.06 0.07 0 0.08 0.07 0 0.1 0.07 0 0 0.075 0 0.02 0.075 0 0.04 0.075 0 0.06 0.075 0 0.08 0.075 0 0.1 0.075 0 0 0.08 0 0.02 0.08 0 0.04 0.08 0 0.06 0.08 0 0.08 0.08 0 0.1 0.08 0 0 0.085 0 0.02 0.085 0 0.04 0.085 0 0.06 0.085 0 0.08 0.085 0 0.1 0.085 0 0 0.09 0 0.02 0.09 0 0.04 0.09 0 0.06 0.09 0 0.08 0.09 0 0.1 0.09 0 0 0.095 0 0.02 0.095 0 0.04 0.095 0 0.06 0.095 0 0.08 0.095 0 0.1 0.095 0 0 0.1 0 0.02 0.1 0 0.04 0.1 0 0.06 0.1 0 0.08 0.1 0 0.1 0.1 0 0 0.105 0 0.02 0.105 0 0.04 0.105 0 0.06 0.105 0 0.08 0.105 0 0.1 0.105 0 0 0.11 0 0.02 0.11 0 0.04 0.11 0 0.06 0.11 0 0.08 0.11 0 0.1 0.11 0 0 0.115 0 0.02 0.115 0 0.04 0.115 0 0.06 0.115 0 0.08 0.115 0 0.1 0.115 0 0 0.12 0 0.02 0.12 0 0.04 0.12 0 0.06 0.12 0 0.08 0.12 0 0.1 0.12 0 0 0.125 0 0.02 0.125 0 0.04 0.125 0 0.06 0.125 0 0.08 0.125 0 0.1 0.125 0 0 0.13 0 0.02 0.13 0 0.04 0.13 0 0.06 0.13 0 0.08 0.13 0 0.1 0.13 0 0 0.135 0 0.02 0.135 0 0.04 0.135 0 0.06 0.135 0 0.08 0.135 0 0.1 0.135 0 0 0.14 0 0.02 0.14 0 0.04 0.14 0 0.06 0.14 0 0.08 0.14 0 0.1 0.14 0 0 0.145 0 0.02 0.145 0 0.04 0.145 0 0.06 0.145 0 0.08 0.145 0 0.1 0.145 0 0 0.15 0 0.02 0.15 0 0.04 0.15 0 0.06 0.15 0 0.08 0.15 0 0.1 0.15 0 0 0.155 0 0.02 0.155 0 0.04 0.155 0 0.06 0.155 0 0.08 0.155 0 0.1 0.155 0 0 0.16 0 0.02 0.16 0 0.04 0.16 0 0.06 0.16 0 0.08 0.16 0 0.1 0.16 0 0 0.165 0 0.02 0.165 0 0.04 0.165 0 0.06 0.165 0 0.08 0.165 0 0.1 0.165 0 0 0.17 0 0.02 0.17 0 0.04 0.17 0 0.06 0.17 0 0.08 0.17 0 0.1 0.17 0 0 0.175 0 0.02 0.175 0 0.04 0.175 0 0.06 0.175 0 0.08 0.175 0 0.1 0.175 0 0 0.18 0 0.02 0.18 0 0.04 0.18 0 0.06 0.18 0 0.08 0.18 0 0.1 0.18 0 0 0.185 0 0.02 0.185 0 0.04 0.185 0 0.06 0.185 0 0.08 0.185 0 0.1 0.185 0 0 0.19 0 0.02 0.19 0 0.04 0.19 0 0.06 0.19 0 0.08 0.19 0 0.1 0.19 0 0 0.195 0 0.02 0.195 0 0.04 0.195 0 0.06 0.195 0 0.08 0.195 0 0.1 0.195 0 0 0.2 0 0.02 0.2 0 0.04 0.2 0 0.06 0.2 0 0.08 0.2 0 0.1 0.2 0 0 0.205 0 0.02 0.205 0 0.04 0.205 0 0.06 0.205 0 0.08 0.205 0 0.1 0.205 0 0 0.21 0 0.02 0.21 0 0.04 0.21 0 0.06 0.21 0 0.08 0.21 0 0.1 0.21 0 0 0.215 0 0.02 0.215 0 0.04 0.215 0 0.06 0.215 0 0.08 0.215 0 0.1 0.215 0 0 0.22 0 0.02 0.22 0 0.04 0.22 0 0.06 0.22 0 0.08 0.22 0 0.1 0.22 0 0 0.225 0 0.02 0.225 0 0.04 0.225 0 0.06 0.225 0 0.08 0.225 0 0.1 0.225 0 0 0.23 0 0.02 0.23 0 0.04 0.23 0 0.06 0.23 0 0.08 0.23 0 0.1 0.23 0 0 0.235 0 0.02 0.235 0 0.04 0.235 0 0.06 0.235 0 0.08 0.235 0 0.1 0.235 0 0 0.24 0 0.02 0.24 0 0.04 0.24 0 0.06 0.24 0 0.08 0.24 0 0.1 0.24 0 0 0.245 0 0.02 0.245 0 0.04 0.245 0 0.06 0.245 0 0.08 0.245 0 0.1 0.245 0 0 0.25 0 0.02 0.25 0 0.04 0.25 0 0.06 0.25 0 0.08 0.25 0 0.1 0.25 0 0 0.255 0 0.02 0.255 0 0.04 0.255 0 0.06 0.255 0 0.08 0.255 0 0.1 0.255 0 0 0.26 0 0.02 0.26 0 0.04 0.26 0 0.06 0.26 0 0.08 0.26 0 0.1 0.26 0 0 0.265 0 0.02 0.265 0 0.04 0.265 0 0.06 0.265 0 0.08 0.265 0 0.1 0.265 0 0 0.27 0 0.02 0.27 0 0.04 0.27 0 0.06 0.27 0 0.08 0.27 0 0.1 0.27 0 0 0.275 0 0.02 0.275 0 0.04 0.275 0 0.06 0.275 0 0.08 0.275 0 0.1 0.275 0 0 0.28 0 0.02 0.28 0 0.04 0.28 0 0.06 0.28 0 0.08 0.28 0 0.1 0.28 0 0 0.285 0 0.02 0.285 0 0.04 0.285 0 0.06 0.285 0 0.08 0.285 0 0.1 0.285 0 0 0.29 0 0.02 0.29 0 0.04 0.29 0 0.06 0.29 0 0.08 0.29 0 0.1 0.29 0 0 0.295 0 0.02 0.295 0 0.04 0.295 0 0.06 0.295 0 0.08 0.295 0 0.1 0.295 0 0 0.3 0 0.02 0.3 0 0.04 0.3 0 0.06 0.3 0 0.08 0.3 0 0.1 0.3 0 0 0.305 0 0.02 0.305 0 0.04 0.305 0 0.06 0.305 0 0.08 0.305 0 0.1 0.305 0 0 0.31 0 0.02 0.31 0 0.04 0.31 0 0.06 0.31 0 0.08 0.31 0 0.1 0.31 0 0 0.315 0 0.02 0.315 0 0.04 0.315 0 0.06 0.315 0 0.08 0.315 0 0.1 0.315 0 0 0.32 0 0.02 0.32 0 0.04 0.32 0 0.06 0.32 0 0.08 0.32 0 0.1 0.32 0 0 0.325 0 0.02 0.325 0 0.04 0.325 0 0.06 0.325 0 0.08 0.325 0 0.1 0.325 0 0 0.33 0 0.02 0.33 0 0.04 0.33 0 0.06 0.33 0 0.08 0.33 0 0.1 0.33 0 0 0.335 0 0.02 0.335 0 0.04 0.335 0 0.06 0.335 0 0.08 0.335 0 0.1 0.335 0 0 0.34 0 0.02 0.34 0 0.04 0.34 0 0.06 0.34 0 0.08 0.34 0 0.1 0.34 0 0 0.345 0 0.02 0.345 0 0.04 0.345 0 0.06 0.345 0 0.08 0.345 0 0.1 0.345 0 0 0.35 0 0.02 0.35 0 0.04 0.35 0 0.06 0.35 0 0.08 0.35 0 0.1 0.35 0 0 0.355 0 0.02 0.355 0 0.04 0.355 0 0.06 0.355 0 0.08 0.355 0 0.1 0.355 0 0 0.36 0 0.02 0.36 0 0.04 0.36 0 0.06 0.36 0 0.08 0.36 0 0.1 0.36 0 0 0.365 0 0.02 0.365 0 0.04 0.365 0 0.06 0.365 0 0.08 0.365 0 0.1 0.365 0 0 0.37 0 0.02 0.37 0 0.04 0.37 0 0.06 0.37 0 0.08 0.37 0 0.1 0.37 0 0 0.375 0 0.02 0.375 0 0.04 0.375 0 0.06 0.375 0 0.08 0.375 0 0.1 0.375 0 0 0.38 0 0.02 0.38 0 0.04 0.38 0 0.06 0.38 0 0.08 0.38 0 0.1 0.38 0 0 0.385 0 0.02 0.385 0 0.04 0.385 0 0.06 0.385 0 0.08 0.385 0 0.1 0.385 0 0 0.39 0 0.02 0.39 0 0.04 0.39 0 0.06 0.39 0 0.08 0.39 0 0.1 0.39 0 0 0.395 0 0.02 0.395 0 0.04 0.395 0 0.06 0.395 0 0.08 0.395 0 0.1 0.395 0 0 0.4 0 0.02 0.4 0 0.04 0.4 0 0.06 0.4 0 0.08 0.4 0 0.1 0.4 0 0 0.405 0 0.02 0.405 0 0.04 0.405 0 0.06 0.405 0 0.08 0.405 0 0.1 0.405 0 0 0.41 0 0.02 0.41 0 0.04 0.41 0 0.06 0.41 0 0.08 0.41 0 0.1 0.41 0 0 0.415 0 0.02 0.415 0 0.04 0.415 0 0.06 0.415 0 0.08 0.415 0 0.1 0.415 0 0 0.42 0 0.02 0.42 0 0.04 0.42 0 0.06 0.42 0 0.08 0.42 0 0.1 0.42 0 0 0.425 0 0.02 0.425 0 0.04 0.425 0 0.06 0.425 0 0.08 0.425 0 0.1 0.425 0 0 0.43 0 0.02 0.43 0 0.04 0.43 0 0.06 0.43 0 0.08 0.43 0 0.1 0.43 0 0 0.435 0 0.02 0.435 0 0.04 0.435 0 0.06 0.435 0 0.08 0.435 0 0.1 0.435 0 0 0.44 0 0.02 0.44 0 0.04 0.44 0 0.06 0.44 0 0.08 0.44 0 0.1 0.44 0 0 0.445 0 0.02 0.445 0 0.04 0.445 0 0.06 0.445 0 0.08 0.445 0 0.1 0.445 0 0 0.45 0 0.02 0.45 0 0.04 0.45 0 0.06 0.45 0 0.08 0.45 0 0.1 0.45 0 0 0.455 0 0.02 0.455 0 0.04 0.455 0 0.06 0.455 0 0.08 0.455 0 0.1 0.455 0 0 0.46 0 0.02 0.46 0 0.04 0.46 0 0.06 0.46 0 0.08 0.46 0 0.1 0.46 0 0 0.465 0 0.02 0.465 0 0.04 0.465 0 0.06 0.465 0 0.08 0.465 0 0.1 0.465 0 0 0.47 0 0.02 0.47 0 0.04 0.47 0 0.06 0.47 0 0.08 0.47 0 0.1 0.47 0 0 0.475 0 0.02 0.475 0 0.04 0.475 0 0.06 0.475 0 0.08 0.475 0 0.1 0.475 0 0 0.48 0 0.02 0.48 0 0.04 0.48 0 0.06 0.48 0 0.08 0.48 0 0.1 0.48 0 0 0.485 0 0.02 0.485 0 0.04 0.485 0 0.06 0.485 0 0.08 0.485 0 0.1 0.485 0 0 0.49 0 0.02 0.49 0 0.04 0.49 0 0.06 0.49 0 0.08 0.49 0 0.1 0.49 0 0 0.495 0 0.02 0.495 0 0.04 0.495 0 0.06 0.495 0 0.08 0.495 0 0.1 0.495 0 0 0.5 0 0.02 0.5 0 0.04 0.5 0 0.06 0.5 0 0.08 0.5 0 0.1 0.5 0 0 0.505 0 0.02 0.505 0 0.04 0.505 0 0.06 0.505 0 0.08 0.505 0 0.1 0.505 0 0 0.51 0 0.02 0.51 0 0.04 0.51 0 0.06 0.51 0 0.08 0.51 0 0.1 0.51 0 0 0.515 0 0.02 0.515 0 0.04 0.515 0 0.06 0.515 0 0.08 0.515 0 0.1 0.515 0 0 0.52 0 0.02 0.52 0 0.04 0.52 0 0.06 0.52 0 0.08 0.52 0 0.1 0.52 0 0 0.525 0 0.02 0.525 0 0.04 0.525 0 0.06 0.525 0 0.08 0.525 0 0.1 0.525 0 0 0.53 0 0.02 0.53 0 0.04 0.53 0 0.06 0.53 0 0.08 0.53 0 0.1 0.53 0 0 0.535 0 0.02 0.535 0 0.04 0.535 0 0.06 0.535 0 0.08 0.535 0 0.1 0.535 0 0 0.54 0 0.02 0.54 0 0.04 0.54 0 0.06 0.54 0 0.08 0.54 0 0.1 0.54 0 0 0.545 0 0.02 0.545 0 0.04 0.545 0 0.06 0.545 0 0.08 0.545 0 0.1 0.545 0 0 0.55 0 0.02 0.55 0 0.04 0.55 0 0.06 0.55 0 0.08 0.55 0 0.1 0.55 0 0 0.555 0 0.02 0.555 0 0.04 0.555 0 0.06 0.555 0 0.08 0.555 0 0.1 0.555 0 0 0.56 0 0.02 0.56 0 0.04 0.56 0 0.06 0.56 0 0.08 0.56 0 0.1 0.56 0 0 0.565 0 0.02 0.565 0 0.04 0.565 0 0.06 0.565 0 0.08 0.565 0 0.1 0.565 0 0 0.57 0 0.02 0.57 0 0.04 0.57 0 0.06 0.57 0 0.08 0.57 0 0.1 0.57 0 0 0.575 0 0.02 0.575 0 0.04 0.575 0 0.06 0.575 0 0.08 0.575 0 0.1 0.575 0 0 0.58 0 0.02 0.58 0 0.04 0.58 0 0.06 0.58 0 0.08 0.58 0 0.1 0.58 0 0 0.585 0 0.02 0.585 0 0.04 0.585 0 0.06 0.585 0 0.08 0.585 0 0.1 0.585 0 0 0.59 0 0.02 0.59 0 0.04 0.59 0 0.06 0.59 0 0.08 0.59 0 0.1 0.59 0 0 0.595 0 0.02 0.595 0 0.04 0.595 0 0.06 0.595 0 0.08 0.595 0 0.1 0.595 0 0 0.6 0 0.02 0.6 0 0.04 0.6 0 0.06 0.6 0 0.08 0.6 0 0.1 0.6 0 0 0.605 0 0.02 0.605 0 0.04 0.605 0 0.06 0.605 0 0.08 0.605 0 0.1 0.605 0 0 0.61 0 0.02 0.61 0 0.04 0.61 0 0.06 0.61 0 0.08 0.61 0 0.1 0.61 0 0 0.615 0 0.02 0.615 0 0.04 0.615 0 0.06 0.615 0 0.08 0.615 0 0.1 0.615 0 0 0.62 0 0.02 0.62 0 0.04 0.62 0 0.06 0.62 0 0.08 0.62 0 0.1 0.62 0 0 0.625 0 0.02 0.625 0 0.04 0.625 0 0.06 0.625 0 0.08 0.625 0 0.1 0.625 0 0 0.63 0 0.02 0.63 0 0.04 0.63 0 0.06 0.63 0 0.08 0.63 0 0.1 0.63 0 0 0.635 0 0.02 0.635 0 0.04 0.635 0 0.06 0.635 0 0.08 0.635 0 0.1 0.635 0 0 0.64 0 0.02 0.64 0 0.04 0.64 0 0.06 0.64 0 0.08 0.64 0 0.1 0.64 0 0 0.645 0 0.02 0.645 0 0.04 0.645 0 0.06 0.645 0 0.08 0.645 0 0.1 0.645 0 0 0.65 0 0.02 0.65 0 0.04 0.65 0 0.06 0.65 0 0.08 0.65 0 0.1 0.65 0 0 0.655 0 0.02 0.655 0 0.04 0.655 0 0.06 0.655 0 0.08 0.655 0 0.1 0.655 0 0 0.66 0 0.02 0.66 0 0.04 0.66 0 0.06 0.66 0 0.08 0.66 0 0.1 0.66 0 0 0.665 0 0.02 0.665 0 0.04 0.665 0 0.06 0.665 0 0.08 0.665 0 0.1 0.665 0 0 0.67 0 0.02 0.67 0 0.04 0.67 0 0.06 0.67 0 0.08 0.67 0 0.1 0.67 0 0 0.675 0 0.02 0.675 0 0.04 0.675 0 0.06 0.675 0 0.08 0.675 0 0.1 0.675 0 0 0.68 0 0.02 0.68 0 0.04 0.68 0 0.06 0.68 0 0.08 0.68 0 0.1 0.68 0 0 0.685 0 0.02 0.685 0 0.04 0.685 0 0.06 0.685 0 0.08 0.685 0 0.1 0.685 0 0 0.69 0 0.02 0.69 0 0.04 0.69 0 0.06 0.69 0 0.08 0.69 0 0.1 
[...]
			<PointData Scalars="VitesseX">
				<DataArray Name="VitesseX" type="Float32" format="ascii">
 0 2.38301e-14 -1.46345e-14 1.30479e-14 -2.90464e-15 0 0 1.89051e-14 -2.52413e-15 -6.74162e-16 1.18053e-14 0 0 1.6958e-14 7.04214e-15 -3.38856e-15 2.08297e-14 0 0 1.84684e-14 9.30024e-15 1.37488e-14 1.00698e-14 0 0 -4.2296e-15 4.53098e-14 5.8123e-15 8.97053e-15 0 0 -1.07492e-14 6.32312e-14 4.76284e-16 6.53625e-15 0 0 4.17463e-14 4.37627e-15 4.55336e-14 -1.89885e-14 0 0 6.69189e-14 -1.87335e-14 6.70163e-14 -3.65153e-14 0 0 5.3838e-14 1.31065e-15 5.08165e-14 -2.9715e-14 0 0 1.9187e-14 5.06835e-14 -7.25113e-15 1.48596e-14 0 0 8.17511e-15 6.9464e-14 -4.65188e-14 4.5481e-14 0 0 3.47081e-14 3.17597e-14 -2.36505e-14 3.01545e-14 0 0 6.02524e-14 -1.91626e-15 2.17381e-14 -1.04782e-14 0 0 5.91914e-14 4.68369e-15 2.86311e-14 -2.34536e-14 0 0 3.82177e-14 4.43808e-14 -1.17591e-14 6.41144e-15 0 0 6.04826e-14 1.1955e-14 2.37058e-14 -1.62223e-14 0 0 3.98908e-14 4.02832e-14 1.27296e-15 -1.52995e-16 0 0 -2.66198e-15 8.71713e-14 -2.72531e-14 5.15939e-15 0 0 -1.42503e-14 9.93171e-14 -4.27293e-14 1.33244e-14 0 0 2.73467e-14 4.56219e-14 -1.60502e-14 1.85957e-14 0 0 8.85688e-14 -5.7107e-14 7.23797e-14 -2.23154e-14 0 0 7.96948e-14 -4.23032e-14 4.77741e-14 7.69166e-15 0 0 5.17869e-15 7.87199e-14 -7.18198e-14 7.64264e-14 0 0 -1.17735e-14 1.25001e-13 -1.44515e-13 1.36393e-13 0 0 8.21393e-14 -3.07591e-14 1.2708e-14 5.90726e-14 0 0 1.65148e-13 -1.68407e-13 1.77869e-13 -3.73975e-14 0 0 7.64406e-14 1.33481e-14 -6.95154e-15 9.2774e-14 0 0 -2.88419e-15 1.38955e-13 -9.65374e-14 1.51575e-13 0 0 6.10723e-14 1.13326e-14 5.34716e-14 7.6287e-14 0 0 8.85205e-14 -4.11294e-14 1.05634e-13 4.31439e-14 0 0 1.15054e-13 -7.42041e-14 1.36484e-13 -2.45613e-14 0 0 8.59758e-14 -3.55614e-14 7.87976e-14 -2.76426e-14 0 0 9.67345e-15 8.28337e-14 -7.12198e-14 2.86533e-14 0 0 2.38004e-14 1.05019e-13 -1.3808e-13 5.92751e-14 0 0 1.05116e-13 -5.43255e-15 -3.57922e-14 1.30769e-14 0 0 1.72149e-13 -1.40825e-13 6.72132e-14 -1.95154e-14 0 0 1.04752e-13 -6.22737e-14 -4.10408e-14 6.93379e-14 0 0 -8.86833e-16 1.16552e-13 -2.07595e-13 1.80875e-13 0 0 3.45336e-15 1.36835e-13 -2.1846e-13 1.89256e-13 0 0 7.14296e-14 1.85611e-14 -4.87502e-14 4.72745e-14 0 0 1.16538e-13 -7.82018e-14 1.0803e-13 -9.28632e-14 0 0 7.47536e-14 -1.78856e-14 7.66776e-14 -9.67893e-14 0 0 8.3652e-14 1.04729e-14 -2.83672e-15 -1.05663e-14 0 0 2.07022e-13 -9.42904e-14 4.97497e-14 -1.23683e-14 0 0 3.2587e-13 -1.99144e-13 1.67224e-13 -9.29491e-14 0 0 2.28169e-13 -1.08806e-15 -3.23062e-14 5.45014e-14 0 0 4.90021e-14 2.76781e-13 -2.92278e-13 2.21279e-13 0 0 8.41213e-14 2.16676e-13 -2.22277e-13 1.70258e-13 0 0 2.24921e-13 1.91898e-15 -4.23675e-14 1.14956e-13 0 0 4.1079e-13 -2.95024e-13 1.54515e-13 9.79729e-14 0 0 5.41579e-13 -5.70162e-13 4.15445e-13 -4.72079e-14 0 0 2.84049e-13 -2.51738e-13 1.99875e-13 -3.95994e-14 0 0 -8.2302e-14 3.18909e-13 -3.5717e-13 2.64482e-13 0 0 5.29545e-14 1.67186e-13 -2.98878e-13 2.92823e-13 0 0 3.46671e-13 -2.32982e-13 6.51973e-15 1.53129e-13 0 0 3.6102e-13 -2.08596e-13 -4.3931e-14 1.85089e-13 0 0 2.37487e-13 1.22988e-14 -2.10961e-13 1.6055e-13 0 0 1.68587e-13 9.4032e-14 -2.42766e-13 5.62739e-14 0 0 1.93471e-13 2.59025e-14 -1.81698e-13 -3.28659e-14 0 0 2.50962e-13 -8.16669e-14 -5.83986e-14 -1.16745e-13 0 0 2.32256e-13 -5.75888e-14 -5.60586e-14 -8.2078e-14 0 0 1.41377e-13 3.93634e-14 -1.37425e-13 3.53848e-14 0 0 1.47728e-13 4.43829e-16 -7.76033e-14 3.07052e-14 0 0 1.68106e-13 -4.67405e-14 4.94248e-14 -8.3354e-14 0 0 7.37474e-14 7.75577e-14 -9.4446e-15 -8.91908e-14 0 0 2.93137e-14 1.51908e-13 -1.05077e-13 -4.09655e-14 0 0 2.26569e-14 2.15678e-13 -2.40851e-13 8.0915e-14 0 0 1.77241e-13 6.10098e-14 -1.84699e-13 4.54917e-14 0 0 4.10183e-13 -3.23155e-13 1.95731e-13 -2.12286e-13 0 0 2.64378e-13 -8.74987e-14 1.11328e-14 -1.0637e-13 0 0 1.09739e-13 2.68495e-13 -3.71988e-13 1.42925e-13 0 0 2.8684e-13 5.81724e-14 -2.16296e-13 1.4179e-13 0 0 5.02238e-13 -2.73656e-13 1.38919e-13 5.65953e-14 0 0 5.23769e-13 -2.62614e-13 1.99676e-13 7.99256e-14 0 0 3.66126e-13 6.30817e-14 -4.01089e-14 2.72415e-13 0 0 3.03616e-13 2.8785e-13 -1.9894e-13 3.59297e-13 0 0 4.60016e-13 4.48978e-14 1.47257e-13 5.36633e-14 0 0 5.76934e-13 -2.0001e-13 4.60866e-13 -1.61464e-13 0 0 6.27692e-13 -1.54567e-13 2.75426e-13 6.39896e-14 0 0 4.51423e-13 4.8363e-14 2.32784e-13 1.35618e-13 0 0 2.79677e-13 1.15287e-13 5.23338e-13 -1.05325e-13 0 0 2.55764e-13 3.354e-13 1.7827e-13 1.60968e-13 0 0 2.77402e-13 6.13258e-13 -3.99889e-13 7.00465e-13 0 0 4.33791e-13 2.00654e-13 1.54265e-13 4.29908e-13 0 0 4.02961e-13 -3.77989e-13 1.10928e-12 -1.59046e-13 0 0 -8.49773e-14 1.74079e-13 7.79965e-13 3.33931e-14 0 0 -2.04894e-13 8.57704e-13 -1.71912e-14 5.37778e-13 0 0 2.04427e-13 4.07266e-13 1.99485e-13 4.95413e-13 0 0 4.38774e-13 -9.69711e-14 9.21846e-13 -1.17331e-13 0 0 5.70213e-13 -1.00351e-13 9.13151e-13 -1.14276e-13 0 0 3.55267e-13 7.33003e-14 5.62806e-13 -2.72252e-14 0 0 -4.90007e-13 8.68777e-13 3.34121e-13 -2.71916e-13 0 0 -5.28044e-13 1.0623e-12 -3.10029e-14 -1.17166e-13 0 0 -2.04124e-13 8.0135e-13 -5.54464e-14 1.39752e-13 0 0 4.28202e-13 1.43354e-13 1.38731e-13 2.93486e-13 0 0 9.53832e-13 -5.27116e-13 4.85312e-13 3.44075e-13 0 0 9.51263e-13 -6.21639e-13 5.23214e-13 3.69848e-13 0 0 7.16553e-13 -5.16343e-13 4.60154e-13 4.30141e-13 0 0 1.8311e-14 -4.10538e-14 2.73714e-13 4.71715e-13 0 0 -5.7215e-13 4.88706e-13 -1.88194e-13 5.32286e-13 0 0 -6.25934e-13 5.59173e-13 -6.51881e-13 7.25321e-13 0 0 -4.90569e-13 4.81075e-13 -6.84865e-13 7.61665e-13 0 0 -6.29929e-15 8.75911e-14 -6.06152e-13 7.32371e-13 0 0 4.60649e-13 -4.10864e-13 -3.52443e-13 6.37309e-13 0 0 6.21687e-13 -6.86529e-13 7.38798e-14 4.25954e-13 0 0 6.0581e-13 -6.82625e-13 2.75191e-13 2.5454e-13 0 0 4.01433e-13 -4.79317e-13 2.21766e-13 1.79134e-13 0 0 1.11009e-13 -8.76609e-14 1.32047e-13 1.69854e-13 0 0 -7.26551e-14 1.50594e-13 1.44166e-13 8.81152e-14 0 0 -9.85325e-14 1.65034e-13 2.66888e-13 -1.41891e-13 0 0 -7.25901e-14 1.44573e-13 4.66232e-13 -3.39345e-13 0 0 5.15245e-14 -8.57431e-15 4.97124e-13 -3.53857e-13 0 0 9.43434e-14 -2.94172e-14 3.88181e-13 -2.63291e-13 0 0 7.07259e-14 3.68002e-15 2.46797e-13 -1.65997e-13 0 0 1.8469e-14 7.13991e-14 5.19504e-14 -6.10551e-14 0 0 3.89012e-14 7.14722e-14 -5.11437e-14 4.22846e-14 0 0 9.40682e-14 9.61544e-15 -4.75522e-14 3.6636e-14 0 0 9.16415e-14 1.31975e-14 -4.11357e-14 -3.98173e-14 0 0 8.22377e-14 4.39273e-14 -7.57247e-14 -8.31804e-14 0 0 7.40644e-14 7.12491e-14 -1.59326e-13 -2.65492e-14 0 0 7.02775e-14 2.68051e-14 -6.16759e-14 -5.71792e-14 0 0 8.01861e-14 1.1353e-14 3.44321e-14 -1.23058e-13 0 0 1.52285e-13 -2.30876e-14 1.00778e-13 -1.48301e-13 0 0 1.46421e-13 -2.50524e-14 1.23747e-13 -5.80931e-14 0 0 1.29566e-13 5.7035e-14 5.41886e-14 1.37576e-13 0 0 1.68075e-13 1.1045e-13 3.09322e-14 1.20793e-13 0 0 2.77646e-13 4.38602e-15 1.92766e-13 -1.33803e-14 0 0 4.53333e-13 -2.14788e-13 3.94791e-13 -1.49151e-13 0 0 2.72801e-13 1.07916e-13 6.93246e-14 -6.15236e-15 0 0 1.93665e-13 1.98454e-13 9.80974e-15 1.54689e-14 0 0 1.42938e-13 2.71092e-13 -7.47446e-14 5.3563e-14 0 0 1.70842e-13 2.1372e-13 -3.35352e-14 2.07557e-15 0 0 4.27714e-13 -2.08753e-13 3.12342e-13 -1.4568e-13 0 0 2.40265e-13 4.80867e-14 3.24766e-14 8.37578e-14 0 0 1.30583e-13 2.02355e-13 -1.01818e-13 1.6764e-13 0 0 8.40078e-14 3.0236e-13 -1.59081e-13 1.97949e-13 0 0 2.0052e-13 1.34683e-13 1.68635e-14 1.25452e-13 0 0 4.61144e-13 -3.04828e-13 5.04719e-13 -1.65507e-13 0 0 1.48848e-13 1.63292e-13 2.0073e-13 2.84726e-14 0 0 6.9361e-14 3.06093e-13 1.53094e-13 1.66179e-13 0 0 1.53545e-13 2.10605e-13 2.48271e-13 1.74085e-13 0 0 -4.05097e-14 5.81723e-13 -2.06007e-13 5.27389e-13 0 0 3.83685e-13 -4.22669e-15 3.02113e-13 2.47926e-13 0 0 6.56522e-13 -3.27793e-13 5.43989e-13 3.3965e-14 0 0 1.48807e-13 5.15937e-13 -2.61973e-13 4.22138e-13 0 0 7.39828e-14 5.64709e-13 -1.63907e-13 2.79639e-13 0 0 2.23825e-13 2.60105e-13 1.19768e-13 1.53802e-13 0 0 4.49982e-13 -1.65318e-13 5.40667e-13 -2.37273e-13 0 0 5.42972e-13 -2.99869e-13 6.19515e-13 -3.72696e-13 0 0 6.08125e-14 6.0899e-13 -4.19701e-13 3.60763e-13 0 0 3.06117e-13 3.47787e-13 -1.4153e-13 1.50885e-13 0 0 5.21991e-13 1.38537e-14 1.79005e-13 -1.31051e-14 0 0 4.65702e-13 -2.80247e-14 2.25116e-13 4.58266e-14 0 0 3.58155e-13 1.00028e-14 2.93955e-13 -4.00721e-14 0 0 5.42087e-14 3.91626e-13 -4.60635e-14 1.11168e-13 0 0 2.46218e-14 3.68175e-13 -3.7147e-14 6.25261e-14 0 0 3.1516e-13 -9.09739e-14 2.68295e-13 -1.0671e-13 0 0 6.18149e-13 -5.87826e-13 5.92393e-13 -2.15779e-13 0 0 1.4779e-13 -2.59586e-14 1.80616e-13 -3.46857e-14 0 0 -3.20075e-13 5.01796e-13 -7.30297e-14 -3.617e-14 0 0 -3.42573e-13 4.6072e-13 9.0104e-14 -2.30002e-13 0 0 2.22443e-13 -4.86172e-13 9.02706e-13 -4.39112e-13 0 0 5.22503e-13 -1.01678e-12 1.17169e-12 -1.76952e-13 0 0 -1.01496e-13 -5.63921e-14 7.2837e-14 5.31749e-13 0 0 -5.03816e-13 5.87544e-13 -4.76645e-13 6.33888e-13 0 0 -2.69464e-13 2.20031e-13 -1.29179e-13 3.37954e-13 0 0 6.34282e-14 -3.94768e-13 4.24574e-13 1.90939e-13 0 0 2.90813e-14 -4.93807e-13 8.25015e-13 -1.18452e-13 0 0 -2.37448e-13 -9.6259e-14 6.53185e-13 -2.39708e-13 0 0 -1.37254e-13 -8.1885e-14 5.16254e-13 -2.49694e-13 0 0 -4.48173e-14 -3.35375e-14 1.17273e-13 8.98193e-14 0 0 -2.40845e-13 1.40665e-13 -2.19953e-13 4.91422e-13 0 0 -1.34108e-14 -3.76271e-13 2.76805e-13 1.59951e-13 0 0 -7.03796e-15 -3.41313e-13 7.13815e-14 3.39861e-13 0 0 9.39451e-14 -4.50584e-13 6.66018e-14 4.26538e-13 0 0 6.00106e-14 -3.12525e-13 7.27107e-14 1.80151e-13 0 0 -2.41308e-13 1.6158e-13 -1.37791e-13 6.70603e-14 0 0 -1.25265e-14 -2.03153e-13 2.69199e-13 -2.28185e-13 0 0 -2.70406e-14 -1.02436e-13 3.52789e-14 -7.57104e-14 0 0 1.97701e-13 -4.12941e-13 2.7566e-13 -2.40862e-13 0 0 1.78069e-13 -4.02749e-13 2.60737e-13 -3.10974e-13 0 0 -3.58701e-13 3.75039e-13 -4.78814e-13 1.49729e-13 0 0 -1.57162e-13 2.48595e-14 -7.58598e-14 -5.85031e-14 0 0 9.33272e-14 -1.26147e-13 -1.76625e-13 1.32923e-13 0 0 3.16307e-13 -3.17986e-13 -2.02565e-13 3.36795e-13 0 0 1.69634e-13 -3.17885e-13 1.53782e-13 -1.89153e-14 0 0 -4.06919e-13 3.42968e-13 -1.17932e-14 -1.85754e-13 0 0 -1.75052e-13 1.47557e-13 2.05386e-13 -4.80376e-13 0 0 2.48291e-13 -1.08886e-13 -2.95418e-14 -1.65598e-13 0 0 6.26688e-13 -7.28928e-13 4.5989e-13 -3.95927e-13 0 0 1.82358e-13 -1.90078e-13 2.52028e-13 -4.14373e-13 0 0 -3.73484e-13 7.93303e-13 -7.1409e-13 2.31687e-13 0 0 5.8365e-13 -5.31062e-13 3.20957e-13 -2.1149e-13 0 0 1.20882e-12 -1.35723e-12 1.03651e-12 -6.20582e-13 0 0 4.01532e-13 -1.03166e-13 -5.00084e-14 -1.52574e-13 0 0 -3.08242e-13 7.69871e-13 -7.82187e-13 3.40822e-13 0 0 -1.81549e-13 5.41395e-13 -7.51837e-13 5.6407e-13 0 0 8.75593e-13 -1.00075e-12 6.92636e-13 -2.83638e-13 0 0 9.91516e-13 -1.03891e-12 8.03976e-13 -3.73096e-13 0 0 -1.56009e-13 7.76002e-13 -7.5303e-13 4.46119e-13 0 0 -5.66387e-13 1.25749e-12 -8.87356e-13 3.34305e-13 0
				</DataArray>
				<DataArray Name="VitesseY" type="Float32" format="ascii">