<?xml version="1.0"?>
<VTKFile type="PolyData">
	<PolyData>
		<Piece NumberOfPoints="1206" NumberOfPolys="1000">
			<Points>
				<DataArray type="Float32" NumberOfComponents="3" format="ascii">
 0 0 0 0.02 0 0 0.04 0 0 0.06 0 0 0.08 0 0 0.1 0 0 0 0.005 0 0.02 0.005 0 0.04 0.005 0 0.06 0.005 0 0.08 0.005 0 0.1 0.005 0 0 0.01 0 0.02 0.01 0 0.04 0.01 0 0.06 0.01 0 0.08 0.01 0 0.1 0.01 0 0 0.015 0 0.02 0.015 0 0.04 0.015 0 0.06 0.015 0 0.08 0.015 0 0.1 0.015 0 0 0.02 0 0.02 0.02 0 0.04 0.02 0 0.06 0.02 0 0.08 0.02 0 0.1 0.02 0 0 0.025 0 0.02 0.025 0 0.04 0.025 0 0.06 0.025 0 0.08 0.025 0 0.1 0.025 0 0 0.03 0 0.02 0.03 0 0.04 0.03 0 0.06 0.03 0 0.08 0.03 0 0.1 0.03 0 0 0.035 0 0.02 0.035 0 0.04 0.035 0 0.06 0.035 0 0.08 0.035 0 0.1 0.035 0 0 0.04 0 0.02 0.04 0 0.04 0.04 0 0.06 0.04 0 0.08 0.04 0 0.1 0.04 0 0 0.045 0 0.02 0.045 0 0.04 0.045 0 0.06 0.045 0 0.08 0.045 0 0.1 0.045 0 0 0.05 0 0.02 0.05 0 0.04 0.05 0 0.06 0.05 0 0.08 0.05 0 0.1 0.05 0 0 0.055 0 0.02 0.055 0 0.04 0.055 0 0.06 0.055 0 0.08 0.055 0 0.1 0.055 0 0 0.06 0 0.02 0.06 0 0.04 0.06 0 0.06 0.06 0 0.08 0.06 0 0.1 0.06 0 0 0.065 0 0.02 0.065 0 0.04 0.065 0 0.06 0.065 0 0.08 0.065 0 0.1 0.065 0 0 0.07 0 0.02 0.07 0 0.04 0.07 0 0.06 0.07 0 0.08 0.07 0 0.1 0.07 0 0 0.075 0 0.02 0.075 0 0.04 0.075 0 0.06 0.075 0 0.08 0.075 0 0.1 0.075 0 0 0.08 0 0.02 0.08 0 0.04 0.08 0 0.06 0.08 0 0.08 0.08 0 0.1 0.08 0 0 0.085 0 0.02 0.085 0 0.04 0.085 0 0.06 0.085 0 0.08 0.085 0 0.1 0.085 0 0 0.09 0 0.02 0.09 0 0.04 0.09 0 0.06 0.09 0 0.08 0.09 0 0.1 0.09 0 0 0.095 0 0.02 0.095 0 0.04 0.095 0 0.06 0.095 0 0.08 0.095 0 0.1 0.095 0 0 0.1 0 0.02 0.1 0 0.04 0.1 0 0.06 0.1 0 0.08 0.1 0 0.1 0.1 0 0 0.105 0 0.02 0.105 0 0.04 0.105 0 0.06 0.105 0 0.08 0.105 0 0.1 0.105 0 0 0.11 0 0.02 0.11 0 0.04 0.11 0 0.06 0.11 0 0.08 0.11 0 0.1 0.11 0 0 0.115 0 0.02 0.115 0 0.04 0.115 0 0.06 0.115 0 0.08 0.115 0 0.1 0.115 0 0 0.12 0 0.02 0.12 0 0.04 0.12 0 0.06 0.12 0 0.08 0.12 0 0.1 0.12 0 0 0.125 0 0.02 0.125 0 0.04 0.125 0 0.06 0.125 0 0.08 0.125 0 0.1 0.125 0 0 0.13 0 0.02 0.13 0 0.04 0.13 0 0.06 0.13 0 0.08 0.13 0 0.1 0.13 0 0 0.135 0 0.02 0.135 0 0.04 0.135 0 0.06 0.135 0 0.08 0.135 0 0.1 0.135 0 0 0.14 0 0.02 0.14 0 0.04 0.14 0 0.06 0.14 0 0.08 0.14 0 0.1 0.14 0 0 0.145 0 0.02 0.145 0 0.04 0.145 0 0.06 0.145 0 0.08 0.145 0 0.1 0.145 0 0 0.15 0 0.02 0.15 0 0.04 0.15 0 0.06 0.15 0 0.08 0.15 0 0.1 0.15 0 0 0.155 0 0.02 0.155 0 0.04 0.155 0 0.06 0.155 0 0.08 0.155 0 0.1 0.155 0 0 0.16 0 0.02 0.16 0 0.04 0.16 0 0.06 0.16 0 0.08 0.16 0 0.1 0.16 0 0 0.165 0 0.02 0.165 0 0.04 0.165 0 0.06 0.165 0 0.08 0.165 0 0.1 0.165 0 0 0.17 0 0.02 0.17 0 0.04 0.17 0 0.06 0.17 0 0.08 0.17 0 0.1 0.17 0 0 0.175 0 0.02 0.175 0 0.04 0.175 0 0.06 0.175 0 0.08 0.175 0 0.1 0.175 0 0 0.18 0 0.02 0.18 0 0.04 0.18 0 0.06 0.18 0 0.08 0.18 0 0.1 0.18 0 0 0.185 0 0.02 0.185 0 0.04 0.185 0 0.06 0.185 0 0.08 0.185 0 0.1 0.185 0 0 0.19 0 0.02 0.19 0 0.04 0.19 0 0.06 0.19 0 0.08 0.19 0 0.1 0.19 0 0 0.195 0 0.02 0.195 0 0.04 0.195 0 0.06 0.195 0 0.08 0.195 0 0.1 0.195 0 0 0.2 0 0.02 0.2 0 0.04 0.2 0 0.06 0.2 0 0.08 0.2 0 0.1 0.2 0 0 0.205 0 0.02 0.205 0 0.04 0.205 0 0.06 0.205 0 0.08 0.205 0 0.1 0.205 0 0 0.21 0 0.02 0.21 0 0.04 0.21 0 0.06 0.21 0 0.08 0.21 0 0.1 0.21 0 0 0.215 0 0.02 0.215 0 0.04 0.215 0 0.06 0.215 0 0.08 0.215 0 0.1 0.215 0 0 0.22 0 0.02 0.22 0 0.04 0.22 0 0.06 0.22 0 0.08 0.22 0 0.1 0.22 0 0 0.225 0 0.02 0.225 0 0.04 0.225 0 0.06 0.225 0 0.08 0.225 0 0.1 0.225 0 0 0.23 0 0.02 0.23 0 0.04 0.23 0 0.06 0.23 0 0.08 0.23 0 0.1 0.23 0 0 0.235 0 0.02 0.235 0 0.04 0.235 0 0.06 0.235 0 0.08 0.235 0 0.1 0.235 0 0 0.24 0 0.02 0.24 0 0.04 0.24 0 0.06 0.24 0 0.08 0.24 0 0.1 0.24 0 0 0.245 0 0.02 0.245 0 0.04 0.245 0 0.06 0.245 0 0.08 0.245 0 0.1 0.245 0 0 0.25 0 0.02 0.25 0 0.04 0.25 0 0.06 0.25 0 0.08 0.25 0 0.1 0.25 0 0 0.255 0 0.02 0.255 0 0.04 0.255 0 0.06 0.255 0 0.08 0.255 0 0.1 0.255 0 0 0.26 0 0.02 0.26 0 0.04 0.26 0 0.06 0.26 0 0.08 0.26 0 0.1 0.26 0 0 0.265 0 0.02 0.265 0 0.04 0.265 0 0.06 0.265 0 0.08 0.265 0 0.1 0.265 0 0 0.27 0 0.02 0.27 0 0.04 0.27 0 0.06 0.27 0 0.08 0.27 0 0.1 0.27 0 0 0.275 0 0.02 0.275 0 0.04 0.275 0 0.06 0.275 0 0.08 0.275 0 0.1 0.275 0 0 0.28 0 0.02 0.28 0 0.04 0.28 0 0.06 0.28 0 0.08 0.28 0 0.1 0.28 0 0 0.285 0 0.02 0.285 0 0.04 0.285 0 0.06 0.285 0 0.08 0.285 0 0.1 0.285 0 0 0.29 0 0.02 0.29 0 0.04 0.29 0 0.06 0.29 0 0.08 0.29 0 0.1 0.29 0 0 0.295 0 0.02 0.295 0 0.04 0.295 0 0.06 0.295 0 0.08 0.295 0 0.1 0.295 0 0 0.3 0 0.02 0.3 0 0.04 0.3 0 0.06 0.3 0 0.08 0.3 0 0.1 0.3 0 0 0.305 0 0.02 0.305 0 0.04 0.305 0 0.06 0.305 0 0.08 0.305 0 0.1 0.305 0 0 0.31 0 0.02 0.31 0 0.04 0.31 0 0.06 0.31 0 0.08 0.31 0 0.1 0.31 0 0 0.315 0 0.02 0.315 0 0.04 0.315 0 0.06 0.315 0 0.08 0.315 0 0.1 0.315 0 0 0.32 0 0.02 0.32 0 0.04 0.32 0 0.06 0.32 0 0.08 0.32 0 0.1 0.32 0 0 0.325 0 0.02 0.325 0 0.04 0.325 0 0.06 0.325 0 0.08 0.325 0 0.1 0.325 0 0 0.33 0 0.02 0.33 0 0.04 0.33 0 0.06 0.33 0 0.08 0.33 0 0.1 0.33 0 0 0.335 0 0.02 0.335 0 0.04 0.335 0 0.06 0.335 0 0.08 0.335 0 0.1 0.335 0 0 0.34 0 0.02 0.34 0 0.04 0.34 0 0.06 0.34 0 0.08 0.34 0 0.1 0.34 0 0 0.345 0 0.02 0.345 0 0.04 0.345 0 0.06 0.345 0 0.08 0.345 0 0.1 0.345 0 0 0.35 0 0.02 0.35 0 0.04 0.35 0 0.06 0.35 0 0.08 0.35 0 0.1 0.35 0 0 0.355 0 0.02 0.355 0 0.04 0.355 0 0.06 0.355 0 0.08 0.355 0 0.1 0.355 0 0 0.36 0 0.02 0.36 0 0.04 0.36 0 0.06 0.36 0 0.08 0.36 0 0.1 0.36 0 0 0.365 0 0.02 0.365 0 0.04 0.365 0 0.06 0.365 0 0.08 0.365 0 0.1 0.365 0 0 0.37 0 0.02 0.37 0 0.04 0.37 0 0.06 0.37 0 0.08 0.37 0 0.1 0.37 0 0 0.375 0 0.02 0.375 0 0.04 0.375 0 0.06 0.375 0 0.08 0.375 0 0.1 0.375 0 0 0.38 0 0.02 0.38 0 0.04 0.38 0 0.06 0.38 0 0.08 0.38 0 0.1 0.38 0 0 0.385 0 0.02 0.385 0 0.04 0.385 0 0.06 0.385 0 0.08 0.385 0 0.1 0.385 0 0 0.39 0 0.02 0.39 0 0.04 0.39 0 0.06 0.39 0 0.08 0.39 0 0.1 0.39 0 0 0.395 0 0.02 0.395 0 0.04 0.395 0 0.06 0.395 0 0.08 0.395 0 0.1 0.395 0 0 0.4 0 0.02 0.4 0 0.04 0.4 0 0.06 0.4 0 0.08 0.4 0 0.1 0.4 0 0 0.405 0 0.02 0.405 0 0.04 0.405 0 0.06 0.405 0 0.08 0.405 0 0.1 0.405 0 0 0.41 0 0.02 0.41 0 0.04 0.41 0 0.06 0.41 0 0.08 0.41 0 0.1 0.41 0 0 0.415 0 0.02 0.415 0 0.04 0.415 0 0.06 0.415 0 0.08 0.415 0 0.1 0.415 0 0 0.42 0 0.02 0.42 0 0.04 0.42 0 0.06 0.42 0 0.08 0.42 0 0.1 0.42 0 0 0.425 0 0.02 0.425 0 0.04 0.425 0 0.06 0.425 0 0.08 0.425 0 0.1 0.425 0 0 0.43 0 0.02 0.43 0 0.04 0.43 0 0.06 0.43 0 0.08 0.43 0 0.1 0.43 0 0 0.435 0 0.02 0.435 0 0.04 0.435 0 0.06 0.435 0 0.08 0.435 0 0.1 0.435 0 0 0.44 0 0.02 0.44 0 0.04 0.44 0 0.06 0.44 0 0.08 0.44 0 0.1 0.44 0 0 0.445 0 0.02 0.445 0 0.04 0.445 0 0.06 0.445 0 0.08 0.445 0 0.1 0.445 0 0 0.45 0 0.02 0.45 0 0.04 0.45 0 0.06 0.45 0 0.08 0.45 0 0.1 0.45 0 0 0.455 0 0.02 0.455 0 0.04 0.455 0 0.06 0.455 0 0.08 0.455 0 0.1 0.455 0 0 0.46 0 0.02 0.46 0 0.04 0.46 0 0.06 0.46 0 0.08 0.46 0 0.1 0.46 0 0 0.465 0 0.02 0.465 0 0.04 0.465 0 0.06 0.465 0 0.08 0.465 0 0.1 0.465 0 0 0.47 0 0.02 0.47 0 0.04 0.47 0 0.06 0.47 0 0.08 0.47 0 0.1 0.47 0 0 0.475 0 0.02 0.475 0 0.04 0.475 0 0.06 0.475 0 0.08 0.475 0 0.1 0.475 0 0 0.48 0 0.02 0.48 0 0.04 0.48 0 0.06 0.48 0 0.08 0.48 0 0.1 0.48 0 0 0.485 0 0.02 0.485 0 0.04 0.485 0 0.06 0.485 0 0.08 0.485 0 0.1 0.485 0 0 0.49 0 0.02 0.49 0 0.04 0.49 0 0.06 0.49 0 0.08 0.49 0 0.1 0.49 0 0 0.495 0 0.02 0.495 0 0.04 0.495 0 0.06 0.495 0 0.08 0.495 0 0.1 0.495 0 0 0.5 0 0.02 0.5 0 0.04 0.5 0 0.06 0.5 0 0.08 0.5 0 0.1 0.5 0 0 0.505 0 0.02 0.505 0 0.04 0.505 0 0.06 0.505 0 0.08 0.505 0 0.1 0.505 0 0 0.51 0 0.02 0.51 0 0.04 0.51 0 0.06 0.51 0 0.08 0.51 0 0.1 0.51 0 0 0.515 0 0.02 0.515 0 0.04 0.515 0 0.06 0.515 0 0.08 0.515 0 0.1 0.515 0 0 0.52 0 0.02 0.52 0 0.04 0.52 0 0.06 0.52 0 0.08 0.52 0 0.1 0.52 0 0 0.525 0 0.02 0.525 0 0.04 0.525 0 0.06 0.525 0 0.08 0.525 0 0.1 0.525 0 0 0.53 0 0.02 0.53 0 0.04 0.53 0 0.06 0.53 0 0.08 0.53 0 0.1 0.53 0 0 0.535 0 0.02 0.535 0 0.04 0.535 0 0.06 0.535 0 0.08 0.535 0 0.1 0.535 0 0 0.54 0 0.02 0.54 0 0.04 0.54 0 0.06 0.54 0 0.08 0.54 0 0.1 0.54 0 0 0.545 0 0.02 0.545 0 0.04 0.545 0 0.06 0.545 0 0.08 0.545 0 0.1 0.545 0 0 0.55 0 0.02 0.55 0 0.04 0.55 0 0.06 0.55 0 0.08 0.55 0 0.1 0.55 0 0 0.555 0 0.02 0.555 0 0.04 0.555 0 0.06 0.555 0 0.08 0.555 0 0.1 0.555 0 0 0.56 0 0.02 0.56 0 0.04 0.56 0 0.06 0.56 0 0.08 0.56 0 0.1 0.56 0 0 0.565 0 0.02 0.565 0 0.04 0.565 0 0.06 0.565 0 0.08 0.565 0 0.1 0.565 0 0 0.57 0 0.02 0.57 0 0.04 0.57 0 0.06 0.57 0 0.08 0.57 0 0.1 0.57 0 0 0.575 0 0.02 0.575 0 0.04 0.575 0 0.06 0.575 0 0.08 0.575 0 0.1 0.575 0 0 0.58 0 0.02 0.58 0 0.04 0.58 0 0.06 0.58 0 0.08 0.58 0 0.1 0.58 0 0 0.585 0 0.02 0.585 0 0.04 0.585 0 0.06 0.585 0 0.08 0.585 0 0.1 0.585 0 0 0.59 0 0.02 0.59 0 0.04 0.59 0 0.06 0.59 0 0.08 0.59 0 0.1 0.59 0 0 0.595 0 0.02 0.595 0 0.04 0.595 0 0.06 0.595 0 0.08 0.595 0 0.1 0.595 0 0 0.6 0 0.02 0.6 0 0.04 0.6 0 0.06 0.6 0 0.08 0.6 0 0.1 0.6 0 0 0.605 0 0.02 0.605 0 0.04 0.605 0 0.06 0.605 0 0.08 0.605 0 0.1 0.605 0 0 0.61 0 0.02 0.61 0 0.04 0.61 0 0.06 0.61 0 0.08 0.61 0 0.1 0.61 0 0 0.615 0 0.02 0.615 0 0.04 0.615 0 0.06 0.615 0 0.08 0.615 0 0.1 0.615 0 0 0.62 0 0.02 0.62 0 0.04 0.62 0 0.06 0.62 0 0.08 0.62 0 0.1 0.62 0 0 0.625 0 0.02 0.625 0 0.04 0.625 0 0.06 0.625 0 0.08 0.625 0 0.1 0.625 0 0 0.63 0 0.02 0.63 0 0.04 0.63 0 0.06 0.63 0 0.08 0.63 0 0.1 0.63 0 0 0.635 0 0.02 0.635 0 0.04 0.635 0 0.06 0.635 0 0.08 0.635 0 0.1 0.635 0 0 0.64 0 0.02 0.64 0 0.04 0.64 0 0.06 0.64 0 0.08 0.64 0 0.1 0.64 0 0 0.645 0 0.02 0.645 0 0.04 0.645 0 0.06 0.645 0 0.08 0.645 0 0.1 0.645 0 0 0.65 0 0.02 0.65 0 0.04 0.65 0 0.06 0.65 0 0.08 0.65 0 0.1 0.65 0 0 0.655 0 0.02 0.655 0 0.04 0.655 0 0.06 0.655 0 0.08 0.655 0 0.1 0.655 0 0 0.66 0 0.02 0.66 0 0.04 0.66 0 0.06 0.66 0 0.08 0.66 0 0.1 0.66 0 0 0.665 0 0.02 0.665 0 0.04 0.665 0 0.06 0.665 0 0.08 0.665 0 0.1 0.665 0 0 0.67 0 0.02 0.67 0 0.04 0.67 0 0.06 0.67 0 0.08 0.67 0 0.1 0.67 0 0 0.675 0 0.02 0.675 0 0.04 0.675 0 0.06 0.675 0 0.08 0.675 0 0.1 0.675 0 0 0.68 0 0.02 0.68 0 0.04 0.68 0 0.06 0.68 0 0.08 0.68 0 0.1 0.68 0 0 0.685 0 0.02 0.685 0 0.04 0.685 0 0.06 0.685 0 0.08 0.685 0 0.1 0.685 0 0 0.69 0 0.02 0.69 0 0.04 0.69 0 0.06 0.69 0 0.08 0.69 0 0.1 
[...]
			<PointData Scalars="VitesseX">
				<DataArray Name="VitesseX" type="Float32" format="ascii">
 0 -2.68052e-14 1.18784e-14 -1.16245e-14 -5.08241e-15 0 0 -2.31478e-14 2.46735e-15 -4.65219e-15 -7.29845e-15 0 0 -1.54052e-14 -2.38426e-14 2.39926e-14 -2.1924e-14 0 0 -4.93708e-14 1.55052e-14 -4.92745e-15 -9.04565e-15 0 0 -3.45337e-14 -3.57342e-15 5.55817e-15 -1.64528e-14 0 0 2.30159e-14 -7.56383e-14 4.49383e-14 -2.60097e-14 0 0 -7.24087e-15 -1.64303e-14 -4.33858e-14 4.80492e-14 0 0 -5.44967e-14 5.71802e-14 -1.19894e-13 1.08361e-13 0 0 -3.2283e-14 9.59336e-15 -4.96568e-14 7.08763e-14 0 0 -9.35993e-15 -5.65688e-14 6.78983e-14 -1.68931e-14 0 0 -6.92434e-14 1.02622e-14 4.84774e-14 -2.65071e-14 0 0 -4.94013e-14 -2.44773e-14 8.49323e-14 -4.84509e-14 0 0 -8.26749e-14 5.13027e-14 -1.70862e-14 3.29737e-14 0 0 -4.03315e-14 1.30803e-14 5.12793e-15 3.5073e-14 0 0 -7.03013e-15 -2.4737e-14 5.95822e-14 -1.31575e-14 0 0 -8.76801e-14 1.27098e-13 -1.12248e-13 7.44828e-14 0 0 3.80472e-14 -4.51502e-14 -1.9413e-15 -1.6442e-14 0 0 7.96405e-15 -1.61279e-14 -4.72781e-14 -1.50475e-14 0 0 -1.14619e-14 -3.46384e-14 -3.82508e-14 -1.80773e-14 0 0 -1.4731e-15 -7.58996e-14 -2.42057e-14 -8.86871e-15 0 0 -1.26326e-13 1.12241e-13 -1.93559e-13 1.09522e-13 0 0 -1.32101e-13 1.1837e-13 -1.67044e-13 1.04737e-13 0 0 9.65345e-16 -8.79869e-14 4.32801e-14 -1.26621e-14 0 0 6.24096e-14 -2.06459e-13 1.73764e-13 -1.08324e-13 0 0 -1.30084e-13 5.44905e-14 -6.236e-14 -1.77331e-15 0 0 -2.7049e-13 2.44867e-13 -2.53616e-13 8.58596e-14 0 0 -1.02292e-13 -1.02153e-14 -4.69082e-14 -6.44242e-14 0 0 1.0908e-14 -1.51813e-13 7.49056e-14 -2.09801e-13 0 0 -9.83378e-14 2.62205e-14 -6.68897e-14 -1.93921e-13 0 0 -2.06294e-13 1.59616e-13 -2.11491e-13 -4.06403e-14 0 0 -1.12452e-13 -2.77889e-14 -7.87206e-14 -1.4861e-14 0 0 -1.33173e-13 -4.0861e-14 -1.61205e-14 -4.87859e-14 0 0 -1.60292e-13 9.34638e-15 -1.08849e-14 -2.40134e-14 0 0 6.26665e-14 -2.54472e-13 2.28369e-13 -7.6229e-14 0 0 -1.02377e-13 5.13183e-14 -4.4901e-14 1.13202e-13 0 0 -2.3058e-13 2.01117e-13 -1.13442e-13 1.08495e-13 0 0 -1.9913e-13 1.15457e-13 4.67871e-15 1.79915e-15 0 0 -2.19585e-14 -1.41857e-13 2.38368e-13 -1.79574e-13 0 0 -5.77712e-14 -1.1937e-13 2.43451e-13 -2.44797e-13 0 0 -2.05782e-13 8.00279e-14 4.00513e-14 -1.33462e-13 0 0 -1.61968e-13 6.31815e-14 -1.11855e-14 -6.14999e-14 0 0 -1.24782e-13 6.70489e-14 -1.04219e-13 4.1821e-14 0 0 4.66173e-14 -1.81391e-13 4.6803e-14 -1.65742e-14 0 0 -1.31554e-13 5.23467e-14 -1.89694e-13 8.57772e-14 0 0 -3.69658e-13 2.98246e-13 -3.23628e-13 4.82887e-14 0 0 -2.1189e-13 -8.23574e-14 1.45614e-13 -3.04674e-13 0 0 -1.99341e-13 -1.54908e-13 2.64215e-13 -4.1411e-13 0 0 -1.81839e-13 -1.53126e-13 2.88694e-13 -4.43049e-13 0 0 -1.31317e-13 -1.23006e-13 1.70387e-13 -3.03441e-13 0 0 -2.90577e-13 2.38514e-13 -2.8166e-13 1.86787e-14 0 0 -4.1024e-13 4.28287e-13 -4.11999e-13 -1.14902e-14 0 0 -4.48753e-13 4.89245e-13 -4.07703e-13 -1.59953e-13 0 0 1.11583e-13 -3.70126e-13 4.35125e-13 -7.10251e-13 0 0 -3.52542e-14 -9.95814e-14 1.73003e-13 -5.83487e-13 0 0 -4.47548e-13 5.79432e-13 -4.86282e-13 -2.01655e-13 0 0 -1.78418e-13 1.3504e-13 -2.03651e-14 -4.58437e-13 0 0 -3.77912e-13 3.3731e-13 -1.62251e-13 -2.99441e-13 0 0 -2.10491e-13 -1.19899e-13 2.89305e-13 -4.73027e-13 0 0 -3.18953e-13 -6.28506e-14 2.10948e-13 -3.77506e-13 0 0 -5.78071e-13 4.13592e-13 -2.93069e-13 -1.33145e-13 0 0 -1.82208e-13 -4.14109e-14 4.37002e-14 -3.76048e-13 0 0 1.19914e-14 -1.94946e-13 3.65812e-14 -3.43975e-13 0 0 -6.99528e-14 -8.12563e-14 -1.67387e-13 -1.63685e-13 0 0 -3.05948e-13 2.55885e-13 -5.39057e-13 1.61539e-13 0 0 -2.11349e-13 1.58274e-13 -4.82226e-13 1.6055e-13 0 0 -2.09999e-14 -1.35751e-13 -1.19118e-13 -1.3253e-13 0 0 -4.406e-16 -1.45679e-13 -3.54097e-14 -2.27638e-13 0 0 -4.13244e-14 -1.39611e-13 -1.69074e-14 -1.53784e-13 0 0 -4.68867e-13 3.86802e-13 -3.44596e-13 1.12797e-13 0 0 -4.63021e-13 3.29301e-13 -1.70314e-13 3.77206e-14 0 0 5.94713e-14 -4.39826e-13 5.7081e-13 -3.80799e-13 0 0 -1.81611e-13 -3.06619e-14 2.06952e-13 -1.4895e-13 0 0 -4.57993e-13 3.72348e-13 -1.57068e-13 1.4323e-14 0 0 -5.87802e-13 6.04897e-13 -3.23756e-13 -6.72525e-14 0 0 -2.23787e-13 1.87695e-13 3.10438e-14 -3.72247e-13 0 0 6.47044e-14 -2.39139e-13 4.24166e-13 -6.46733e-13 0 0 -5.0214e-13 5.13329e-13 -2.50136e-13 -1.67254e-13 0 0 -4.48279e-13 3.25172e-13 -1.93359e-13 4.75708e-14 0 0 -3.5296e-13 2.21584e-13 -3.74638e-13 3.55847e-13 0 0 -2.14684e-14 -2.41494e-13 -7.37154e-14 2.22988e-13 0 0 -2.80913e-13 1.11466e-14 -6.49978e-14 -7.10044e-15 0 0 -6.13585e-13 4.49416e-13 -3.05323e-13 -5.02022e-14 0 0 3.23775e-13 -8.92272e-13 7.32933e-13 -5.45473e-13 0 0 -1.31065e-13 -2.33858e-13 4.28332e-14 -1.5858e-13 0 0 -1.09991e-12 1.124e-12 -1.22426e-12 4.87821e-13 0 0 -1.132e-15 -3.33761e-13 -2.40231e-13 1.06475e-13 0 0 6.66564e-13 -1.17722e-12 4.40494e-13 -1.78745e-13 0 0 -1.87918e-13 -2.29451e-14 -3.69174e-13 1.45793e-13 0 0 -4.75612e-13 2.45372e-13 -4.49075e-13 1.48396e-13 0 0 -7.78213e-13 3.33437e-13 -6.92214e-13 4.84585e-13 0 0 -1.47802e-13 -7.90815e-13 4.7796e-14 2.35564e-13 0 0 4.26e-13 -1.46557e-12 6.68993e-13 -9.70128e-15 0 0 -4.7664e-13 -7.07163e-14 -3.83043e-13 3.74454e-13 0 0 -7.49649e-13 6.27296e-13 -4.5252e-13 2.30612e-14 0 0 -7.13146e-13 7.9791e-13 -4.27844e-13 -4.89981e-14 0 0 1.59881e-13 -5.27406e-13 5.45121e-13 -5.70058e-13 0 0 6.08735e-13 -1.31161e-12 1.07562e-12 -7.21159e-13 0 0 -1.08219e-13 -3.28477e-13 3.39209e-13 -4.94712e-13 0 0 -9.13809e-13 6.99555e-13 -1.83297e-13 -4.69448e-13 0 0 -7.89799e-13 5.7488e-13 -8.33216e-14 -5.08217e-13 0 0 -1.48626e-13 8.3599e-14 -6.24976e-14 -4.96452e-13 0 0 1.23359e-13 7.63765e-14 -2.18009e-13 -3.52042e-13 0 0 7.30764e-14 3.76351e-13 -8.39989e-13 1.12224e-13 0 0 -1.61965e-13 5.96706e-13 -1.14747e-12 3.21563e-13 0 0 -2.19381e-13 4.99699e-13 -1.09253e-12 3.17817e-13 0 0 -1.60895e-13 -1.26315e-14 -7.01869e-13 1.17047e-13 0 0 -6.05265e-14 -6.20197e-13 -1.55893e-13 -3.90377e-13 0 0 -1.35415e-13 -6.1797e-13 -1.92107e-13 -3.94025e-13 0 0 -3.43828e-13 -3.32595e-13 -4.94351e-13 -1.56403e-13 0 0 -3.40017e-13 -3.27057e-13 -4.40233e-13 -2.03933e-13 0 0 -2.0632e-13 -5.06265e-13 -1.37238e-14 -4.52133e-13 0 0 -1.86106e-13 -4.62369e-13 -2.70382e-14 -3.60753e-13 0 0 -3.58921e-13 2.21188e-14 -5.26538e-13 6.74593e-14 0 0 -4.61222e-13 1.64529e-13 -6.27896e-13 2.12557e-13 0 0 -1.08236e-13 -3.79835e-13 -5.07522e-14 -1.4398e-13 0 0 1.89393e-13 -7.97933e-13 3.6338e-13 -4.48302e-13 0 0 -1.20485e-13 -2.99751e-13 -1.39835e-13 -1.61086e-13 0 0 -5.88192e-13 4.22839e-13 -8.47345e-13 2.5338e-13 0 0 -3.01821e-13 -4.54974e-14 -3.27609e-13 -1.09174e-13 0 0 -1.83521e-13 -2.01116e-13 -1.09175e-13 -3.20682e-13 0 0 -5.79842e-14 -2.55953e-13 -6.49826e-14 -4.02466e-13 0 0 -7.49994e-14 -1.70696e-13 -1.90395e-13 -2.23765e-13 0 0 -6.61742e-13 6.57389e-13 -1.0034e-12 4.51711e-13 0 0 -1.9756e-13 -2.10271e-13 -7.89194e-14 -1.00174e-13 0 0 -1.67604e-13 -2.82765e-13 7.15661e-14 -3.46911e-13 0 0 -4.10594e-14 -2.55495e-13 -1.50395e-13 -2.51117e-13 0 0 -3.38546e-14 -2.77031e-13 -1.66536e-13 -2.53738e-13 0 0 -7.95125e-13 6.94183e-13 -9.63604e-13 2.9246e-13 0 0 -3.10412e-13 -1.61038e-13 -1.10475e-13 -1.41204e-13 0 0 -2.91135e-13 -2.34828e-13 1.68142e-14 -3.42178e-13 0 0 -1.73083e-13 -3.03423e-13 -7.18564e-14 -3.0512e-13 0 0 -1.14494e-13 -3.76758e-13 -1.45526e-13 -1.40186e-13 0 0 -8.66254e-13 6.6759e-13 -1.15533e-12 6.31113e-13 0 0 -2.8171e-13 -2.8517e-13 -1.99704e-13 7.99601e-14 0 0 -2.99529e-13 -3.02054e-13 7.99109e-15 -2.6897e-13 0 0 -2.3383e-13 -2.63551e-13 -3.55131e-14 -5.10614e-13 0 0 -1.51034e-13 -4.25129e-13 -5.0115e-14 -5.25038e-13 0 0 -9.49987e-13 5.58985e-13 -1.05717e-12 2.77085e-13 0 0 -2.84846e-13 -4.46594e-13 -2.36046e-13 -6.21344e-14 0 0 -2.04134e-13 -5.15837e-13 -1.5752e-13 -2.62821e-13 0 0 -4.62306e-13 -1.49027e-13 -4.40642e-13 -2.00015e-13 0 0 1.7556e-13 -1.30388e-12 6.67885e-13 -8.10699e-13 0 0 -8.61404e-13 6.49603e-14 -4.08032e-13 -1.58189e-13 0 0 -1.20022e-12 6.6804e-13 -7.87699e-13 8.65159e-14 0 0 7.66732e-14 -8.54434e-13 7.71631e-13 -8.97555e-13 0 0 -2.8735e-13 -1.47316e-13 3.15931e-13 -6.2835e-13 0 0 -2.64031e-13 -2.83485e-13 1.98692e-13 -2.10015e-13 0 0 -6.48527e-13 1.12757e-13 -4.71852e-13 5.79307e-13 0 0 -1.03941e-12 4.6074e-13 -6.25152e-13 6.03476e-13 0 0 -1.71755e-14 -9.75646e-13 9.22407e-13 -6.18032e-13 0 0 -4.55563e-13 -1.53338e-13 2.5162e-13 -2.97596e-13 0 0 -3.71849e-13 -2.68922e-13 1.49446e-13 1.5501e-13 0 0 -7.0128e-13 5.28553e-14 -4.06721e-13 8.77204e-13 0 0 -8.98319e-13 1.37857e-13 -5.0091e-13 8.58894e-13 0 0 -5.2721e-13 -3.6596e-13 4.68939e-14 3.43576e-14 0 0 -2.00906e-13 -5.00683e-13 -1.76868e-13 -1.44414e-13 0 0 -8.79194e-14 -5.3808e-13 -4.94515e-13 -1.32679e-13 0 0 -9.14634e-13 4.46841e-13 -1.22737e-12 8.68264e-14 0 0 -6.88269e-13 -2.24908e-13 -2.34654e-13 -5.56653e-13 0 0 -3.16074e-13 -9.53199e-13 5.09484e-13 -1.0204e-12 0 0 3.7109e-14 -1.17835e-12 3.24794e-13 -9.53318e-13 0 0 -4.33894e-13 -1.20247e-13 -1.08632e-12 2.52012e-14 0 0 -9.58602e-13 7.54244e-13 -2.01132e-12 6.40975e-13 0 0 -2.52101e-13 -5.13598e-13 -5.42324e-13 -4.14475e-13 0 0 4.79606e-14 -1.23615e-12 5.59746e-13 -1.38057e-12 0 0 -1.75711e-13 -7.92721e-13 2.1417e-13 -1.42663e-12 0 0 -6.60591e-13 3.39212e-14 -8.73741e-13 -5.71624e-13 0 0 -8.87631e-13 4.37629e-13 -1.84321e-12 6.63725e-13 0 0 3.55621e-14 -8.88683e-13 -1.03192e-12 6.92618e-13 0 0 -2.3149e-13 -5.63496e-13 -1.03209e-12 3.47379e-13 0 0 -6.28757e-13 5.33541e-14 -1.27108e-12 -8.88017e-14 0 0 4.37827e-14 -1.14728e-12 9.6364e-14 -1.07593e-12 0 0 -6.56369e-13 -3.11754e-13 -3.83911e-13 -9.10332e-13 0 0 -5.67389e-13 -2.24079e-13 -6.49624e-13 -8.04229e-13 0 0 -5.35733e-13 -1.2024e-14 -1.19535e-12 -4.67357e-13 0 0 -5.27843e-13 -4.08354e-14 -1.06308e-12 -5.81234e-13 0 0 5.20382e-14 -1.23169e-12 3.67709e-13 -1.13784e-12 0 0 -7.84852e-13 -3.11654e-13 -3.59048e-13 -3.35543e-13 0 0 -5.04037e-13 -4.77882e-13 -5.47678e-13 -1.57803e-13 0 0 -3.68286e-13 -2.17885e-13 -1.20087e-12 5.31197e-14 0 0 -4.70029e-13 -1.01243e-13 -1.25189e-12 -5.78212e-14 0 0 2.30401e-13 -1.54655e-12 3.73469e-13 -7.76599e-13 0 0 -5.96286e-13 -4.81989e-13 -3.6629e-13 -1.70544e-13 0 0 -5.17266e-13 -3.66576e-13 -4.7921e-13 -3.15673e-13 0 0 -4.27054e-13 -2.99687e-13 -7.55646e-13 -4.30706e-13 0 0 -6.03177e-13 -1.19511e-13 -9.06472e-13 -6.0829e-13 0 0 8.16279e-14 -1.42427e-12 5.39043e-13 -1.45721e-12 0 0 -6.74318e-13 -3.99749e-13 -2.73515e-13 -8.15124e-13 0 0 -5.88199e-13 -1.39426e-13 -6.53514e-13 -5.92834e-13 0 0 -1.03074e-12 4.74422e-13 -1.10925e-12 -4.05433e-13 0 0 -1.2732e-12 3.36396e-13 -7.65272e-13 -5.43939e-13 0 0 2.97634e-13 -2.2382e-12 1.50067e-12 -1.65445e-12 0 0 -1.26391e-12 2.11816e-13 -7.41242e-13 -3.92546e-13 0 0 -2.06191e-12 1.75889e-12 -2.07099e-12 5.58298e-14 0 0 -3.81702e-13 -4.89406e-13 1.24728e-13 -1.48006e-12 0 0 -1.05677e-13 -8.81588e-13 5.61373e-13 -1.77995e-12 0 0 3.15143e-13 -1.54088e-12 7.74914e-13 -1.64512e-12 0 0 -1.06901e-12 7.92452e-13 -1.91809e-12 2.2552e-13 0 0 -1.34123e-12 1.20434e-12 -2.03309e-12 1.65775e-13 0 0 2.04193e-14 -1.23775e-12 9.69037e-13 -1.77844e-12 0 0 -2.22361e-13 -1.09199e-12 1.16055e-12 -1.88532e-12 0
				</DataArray>
				<DataArray Name="VitesseY" type="Float32" format="ascii">