<?xml version="1.0"?>
<VTKFile type="PolyData">
	<PolyData>
		<Piece NumberOfPoints="1206" NumberOfPolys="1000">
			<Points>
				<DataArray type="Float32" NumberOfComponents="3" format="ascii">
 0 0 0 0.02 0 0 0.04 0 0 0.06 0 0 0.08 0 0 0.1 0 0 0 0.005 0 0.02 0.005 0 0.04 0.005 0 0.06 0.005 0 0.08 0.005 0 0.1 0.005 0 0 0.01 0 0.02 0.01 0 0.04 0.01 0 0.06 0.01 0 0.08 0.01 0 0.1 0.01 0 0 0.015 0 0.02 0.015 0 0.04 0.015 0 0.06 0.015 0 0.08 0.015 0 0.1 0.015 0 0 0.02 0 0.02 0.02 0 0.04 0.02 0 0.06 0.02 0 0.08 0.02 0 0.1 0.02 0 0 0.025 0 0.02 0.025 0 0.04 0.025 0 0.06 0.025 0 0.08 0.025 0 0.1 0.025 0 0 0.03 0 0.02 0.03 0 0.04 0.03 0 0.06 0.03 0 0.08 0.03 0 0.1 0.03 0 0 0.035 0 0.02 0.035 0 0.04 0.035 0 0.06 0.035 0 0.08 0.035 0 0.1 0.035 0 0 0.04 0 0.02 0.04 0 0.04 0.04 0 0.06 0.04 0 0.08 0.04 0 0.1 0.04 0 0 0.045 0 0.02 0.045 0 0.04 0.045 0 0.06 0.045 0 0.08 0.045 0 0.1 0.045 0 0 0.05 0 0.02 0.05 0 0.04 0.05 0 0.06 0.05 0 0.08 0.05 0 0.1 0.05 0 0 0.055 0 0.02 0.055 0 0.04 0.055 0 0.06 0.055 0 0.08 0.055 0 0.1 0.055 0 0 0.06 0 0.02 0.06 0 0.04 0.06 0 0.06 0.06 0 0.08 0.06 0 0.1 0.06 0 0 0.065 0 0.02 0.065 0 0.04 0.065 0 0.06 0.065 0 0.08 0.065 0 0.1 0.065 0 0 0.07 0 0.02 0.07 0 0.04 0.07 0 0.06 0.07 0 0.08 0.07 0 0.1 0.07 0 0 0.075 0 0.02 0.075 0 0.04 0.075 0 0.06 0.075 0 0.08 0.075 0 0.1 0.075 0 0 0.08 0 0.02 0.08 0 0.04 0.08 0 0.06 0.08 0 0.08 0.08 0 0.1 0.08 0 0 0.085 0 0.02 0.085 0 0.04 0.085 0 0.06 0.085 0 0.08 0.085 0 0.1 0.085 0 0 0.09 0 0.02 0.09 0 0.04 0.09 0 0.06 0.09 0 0.08 0.09 0 0.1 0.09 0 0 0.095 0 0.02 0.095 0 0.04 0.095 0 0.06 0.095 0 0.08 0.095 0 0.1 0.095 0 0 0.1 0 0.02 0.1 0 0.04 0.1 0 0.06 0.1 0 0.08 0.1 0 0.1 0.1 0 0 0.105 0 0.02 0.105 0 0.04 0.105 0 0.06 0.105 0 0.08 0.105 0 0.1 0.105 0 0 0.11 0 0.02 0.11 0 0.04 0.11 0 0.06 0.11 0 0.08 0.11 0 0.1 0.11 0 0 0.115 0 0.02 0.115 0 0.04 0.115 0 0.06 0.115 0 0.08 0.115 0 0.1 0.115 0 0 0.12 0 0.02 0.12 0 0.04 0.12 0 0.06 0.12 0 0.08 0.12 0 0.1 0.12 0 0 0.125 0 0.02 0.125 0 0.04 0.125 0 0.06 0.125 0 0.08 0.125 0 0.1 0.125 0 0 0.13 0 0.02 0.13 0 0.04 0.13 0 0.06 0.13 0 0.08 0.13 0 0.1 0.13 0 0 0.135 0 0.02 0.135 0 0.04 0.135 0 0.06 0.135 0 0.08 0.135 0 0.1 0.135 0 0 0.14 0 0.02 0.14 0 0.04 0.14 0 0.06 0.14 0 0.08 0.14 0 0.1 0.14 0 0 0.145 0 0.02 0.145 0 0.04 0.145 0 0.06 0.145 0 0.08 0.145 0 0.1 0.145 0 0 0.15 0 0.02 0.15 0 0.04 0.15 0 0.06 0.15 0 0.08 0.15 0 0.1 0.15 0 0 0.155 0 0.02 0.155 0 0.04 0.155 0 0.06 0.155 0 0.08 0.155 0 0.1 0.155 0 0 0.16 0 0.02 0.16 0 0.04 0.16 0 0.06 0.16 0 0.08 0.16 0 0.1 0.16 0 0 0.165 0 0.02 0.165 0 0.04 0.165 0 0.06 0.165 0 0.08 0.165 0 0.1 0.165 0 0 0.17 0 0.02 0.17 0 0.04 0.17 0 0.06 0.17 0 0.08 0.17 0 0.1 0.17 0 0 0.175 0 0.02 0.175 0 0.04 0.175 0 0.06 0.175 0 0.08 0.175 0 0.1 0.175 0 0 0.18 0 0.02 0.18 0 0.04 0.18 0 0.06 0.18 0 0.08 0.18 0 0.1 0.18 0 0 0.185 0 0.02 0.185 0 0.04 0.185 0 0.06 0.185 0 0.08 0.185 0 0.1 0.185 0 0 0.19 0 0.02 0.19 0 0.04 0.19 0 0.06 0.19 0 0.08 0.19 0 0.1 0.19 0 0 0.195 0 0.02 0.195 0 0.04 0.195 0 0.06 0.195 0 0.08 0.195 0 0.1 0.195 0 0 0.2 0 0.02 0.2 0 0.04 0.2 0 0.06 0.2 0 0.08 0.2 0 0.1 0.2 0 0 0.205 0 0.02 0.205 0 0.04 0.205 0 0.06 0.205 0 0.08 0.205 0 0.1 0.205 0 0 0.21 0 0.02 0.21 0 0.04 0.21 0 0.06 0.21 0 0.08 0.21 0 0.1 0.21 0 0 0.215 0 0.02 0.215 0 0.04 0.215 0 0.06 0.215 0 0.08 0.215 0 0.1 0.215 0 0 0.22 0 0.02 0.22 0 0.04 0.22 0 0.06 0.22 0 0.08 0.22 0 0.1 0.22 0 0 0.225 0 0.02 0.225 0 0.04 0.225 0 0.06 0.225 0 0.08 0.225 0 0.1 0.225 0 0 0.23 0 0.02 0.23 0 0.04 0.23 0 0.06 0.23 0 0.08 0.23 0 0.1 0.23 0 0 0.235 0 0.02 0.235 0 0.04 0.235 0 0.06 0.235 0 0.08 0.235 0 0.1 0.235 0 0 0.24 0 0.02 0.24 0 0.04 0.24 0 0.06 0.24 0 0.08 0.24 0 0.1 0.24 0 0 0.245 0 0.02 0.245 0 0.04 0.245 0 0.06 0.245 0 0.08 0.245 0 0.1 0.245 0 0 0.25 0 0.02 0.25 0 0.04 0.25 0 0.06 0.25 0 0.08 0.25 0 0.1 0.25 0 0 0.255 0 0.02 0.255 0 0.04 0.255 0 0.06 0.255 0 0.08 0.255 0 0.1 0.255 0 0 0.26 0 0.02 0.26 0 0.04 0.26 0 0.06 0.26 0 0.08 0.26 0 0.1 0.26 0 0 0.265 0 0.02 0.265 0 0.04 0.265 0 0.06 0.265 0 0.08 0.265 0 0.1 0.265 0 0 0.27 0 0.02 0.27 0 0.04 0.27 0 0.06 0.27 0 0.08 0.27 0 0.1 0.27 0 0 0.275 0 0.02 0.275 0 0.04 0.275 0 0.06 0.275 0 0.08 0.275 0 0.1 0.275 0 0 0.28 0 0.02 0.28 0 0.04 0.28 0 0.06 0.28 0 0.08 0.28 0 0.1 0.28 0 0 0.285 0 0.02 0.285 0 0.04 0.285 0 0.06 0.285 0 0.08 0.285 0 0.1 0.285 0 0 0.29 0 0.02 0.29 0 0.04 0.29 0 0.06 0.29 0 0.08 0.29 0 0.1 0.29 0 0 0.295 0 0.02 0.295 0 0.04 0.295 0 0.06 0.295 0 0.08 0.295 0 0.1 0.295 0 0 0.3 0 0.02 0.3 0 0.04 0.3 0 0.06 0.3 0 0.08 0.3 0 0.1 0.3 0 0 0.305 0 0.02 0.305 0 0.04 0.305 0 0.06 0.305 0 0.08 0.305 0 0.1 0.305 0 0 0.31 0 0.02 0.31 0 0.04 0.31 0 0.06 0.31 0 0.08 0.31 0 0.1 0.31 0 0 0.315 0 0.02 0.315 0 0.04 0.315 0 0.06 0.315 0 0.08 0.315 0 0.1 0.315 0 0 0.32 0 0.02 0.32 0 0.04 0.32 0 0.06 0.32 0 0.08 0.32 0 0.1 0.32 0 0 0.325 0 0.02 0.325 0 0.04 0.325 0 0.06 0.325 0 0.08 0.325 0 0.1 0.325 0 0 0.33 0 0.02 0.33 0 0.04 0.33 0 0.06 0.33 0 0.08 0.33 0 0.1 0.33 0 0 0.335 0 0.02 0.335 0 0.04 0.335 0 0.06 0.335 0 0.08 0.335 0 0.1 0.335 0 0 0.34 0 0.02 0.34 0 0.04 0.34 0 0.06 0.34 0 0.08 0.34 0 0.1 0.34 0 0 0.345 0 0.02 0.345 0 0.04 0.345 0 0.06 0.345 0 0.08 0.345 0 0.1 0.345 0 0 0.35 0 0.02 0.35 0 0.04 0.35 0 0.06 0.35 0 0.08 0.35 0 0.1 0.35 0 0 0.355 0 0.02 0.355 0 0.04 0.355 0 0.06 0.355 0 0.08 0.355 0 0.1 0.355 0 0 0.36 0 0.02 0.36 0 0.04 0.36 0 0.06 0.36 0 0.08 0.36 0 0.1 0.36 0 0 0.365 0 0.02 0.365 0 0.04 0.365 0 0.06 0.365 0 0.08 0.365 0 0.1 0.365 0 0 0.37 0 0.02 0.37 0 0.04 0.37 0 0.06 0.37 0 0.08 0.37 0 0.1 0.37 0 0 0.375 0 0.02 0.375 0 0.04 0.375 0 0.06 0.375 0 0.08 0.375 0 0.1 0.375 0 0 0.38 0 0.02 0.38 0 0.04 0.38 0 0.06 0.38 0 0.08 0.38 0 0.1 0.38 0 0 0.385 0 0.02 0.385 0 0.04 0.385 0 0.06 0.385 0 0.08 0.385 0 0.1 0.385 0 0 0.39 0 0.02 0.39 0 0.04 0.39 0 0.06 0.39 0 0.08 0.39 0 0.1 0.39 0 0 0.395 0 0.02 0.395 0 0.04 0.395 0 0.06 0.395 0 0.08 0.395 0 0.1 0.395 0 0 0.4 0 0.02 0.4 0 0.04 0.4 0 0.06 0.4 0 0.08 0.4 0 0.1 0.4 0 0 0.405 0 0.02 0.405 0 0.04 0.405 0 0.06 0.405 0 0.08 0.405 0 0.1 0.405 0 0 0.41 0 0.02 0.41 0 0.04 0.41 0 0.06 0.41 0 0.08 0.41 0 0.1 0.41 0 0 0.415 0 0.02 0.415 0 0.04 0.415 0 0.06 0.415 0 0.08 0.415 0 0.1 0.415 0 0 0.42 0 0.02 0.42 0 0.04 0.42 0 0.06 0.42 0 0.08 0.42 0 0.1 0.42 0 0 0.425 0 0.02 0.425 0 0.04 0.425 0 0.06 0.425 0 0.08 0.425 0 0.1 0.425 0 0 0.43 0 0.02 0.43 0 0.04 0.43 0 0.06 0.43 0 0.08 0.43 0 0.1 0.43 0 0 0.435 0 0.02 0.435 0 0.04 0.435 0 0.06 0.435 0 0.08 0.435 0 0.1 0.435 0 0 0.44 0 0.02 0.44 0 0.04 0.44 0 0.06 0.44 0 0.08 0.44 0 0.1 0.44 0 0 0.445 0 0.02 0.445 0 0.04 0.445 0 0.06 0.445 0 0.08 0.445 0 0.1 0.445 0 0 0.45 0 0.02 0.45 0 0.04 0.45 0 0.06 0.45 0 0.08 0.45 0 0.1 0.45 0 0 0.455 0 0.02 0.455 0 0.04 0.455 0 0.06 0.455 0 0.08 0.455 0 0.1 0.455 0 0 0.46 0 0.02 0.46 0 0.04 0.46 0 0.06 0.46 0 0.08 0.46 0 0.1 0.46 0 0 0.465 0 0.02 0.465 0 0.04 0.465 0 0.06 0.465 0 0.08 0.465 0 0.1 0.465 0 0 0.47 0 0.02 0.47 0 0.04 0.47 0 0.06 0.47 0 0.08 0.47 0 0.1 0.47 0 0 0.475 0 0.02 0.475 0 0.04 0.475 0 0.06 0.475 0 0.08 0.475 0 0.1 0.475 0 0 0.48 0 0.02 0.48 0 0.04 0.48 0 0.06 0.48 0 0.08 0.48 0 0.1 0.48 0 0 0.485 0 0.02 0.485 0 0.04 0.485 0 0.06 0.485 0 0.08 0.485 0 0.1 0.485 0 0 0.49 0 0.02 0.49 0 0.04 0.49 0 0.06 0.49 0 0.08 0.49 0 0.1 0.49 0 0 0.495 0 0.02 0.495 0 0.04 0.495 0 0.06 0.495 0 0.08 0.495 0 0.1 0.495 0 0 0.5 0 0.02 0.5 0 0.04 0.5 0 0.06 0.5 0 0.08 0.5 0 0.1 0.5 0 0 0.505 0 0.02 0.505 0 0.04 0.505 0 0.06 0.505 0 0.08 0.505 0 0.1 0.505 0 0 0.51 0 0.02 0.51 0 0.04 0.51 0 0.06 0.51 0 0.08 0.51 0 0.1 0.51 0 0 0.515 0 0.02 0.515 0 0.04 0.515 0 0.06 0.515 0 0.08 0.515 0 0.1 0.515 0 0 0.52 0 0.02 0.52 0 0.04 0.52 0 0.06 0.52 0 0.08 0.52 0 0.1 0.52 0 0 0.525 0 0.02 0.525 0 0.04 0.525 0 0.06 0.525 0 0.08 0.525 0 0.1 0.525 0 0 0.53 0 0.02 0.53 0 0.04 0.53 0 0.06 0.53 0 0.08 0.53 0 0.1 0.53 0 0 0.535 0 0.02 0.535 0 0.04 0.535 0 0.06 0.535 0 0.08 0.535 0 0.1 0.535 0 0 0.54 0 0.02 0.54 0 0.04 0.54 0 0.06 0.54 0 0.08 0.54 0 0.1 0.54 0 0 0.545 0 0.02 0.545 0 0.04 0.545 0 0.06 0.545 0 0.08 0.545 0 0.1 0.545 0 0 0.55 0 0.02 0.55 0 0.04 0.55 0 0.06 0.55 0 0.08 0.55 0 0.1 0.55 0 0 0.555 0 0.02 0.555 0 0.04 0.555 0 0.06 0.555 0 0.08 0.555 0 0.1 0.555 0 0 0.56 0 0.02 0.56 0 0.04 0.56 0 0.06 0.56 0 0.08 0.56 0 0.1 0.56 0 0 0.565 0 0.02 0.565 0 0.04 0.565 0 0.06 0.565 0 0.08 0.565 0 0.1 0.565 0 0 0.57 0 0.02 0.57 0 0.04 0.57 0 0.06 0.57 0 0.08 0.57 0 0.1 0.57 0 0 0.575 0 0.02 0.575 0 0.04 0.575 0 0.06 0.575 0 0.08 0.575 0 0.1 0.575 0 0 0.58 0 0.02 0.58 0 0.04 0.58 0 0.06 0.58 0 0.08 0.58 0 0.1 0.58 0 0 0.585 0 0.02 0.585 0 0.04 0.585 0 0.06 0.585 0 0.08 0.585 0 0.1 0.585 0 0 0.59 0 0.02 0.59 0 0.04 0.59 0 0.06 0.59 0 0.08 0.59 0 0.1 0.59 0 0 0.595 0 0.02 0.595 0 0.04 0.595 0 0.06 0.595 0 0.08 0.595 0 0.1 0.595 0 0 0.6 0 0.02 0.6 0 0.04 0.6 0 0.06 0.6 0 0.08 0.6 0 0.1 0.6 0 0 0.605 0 0.02 0.605 0 0.04 0.605 0 0.06 0.605 0 0.08 0.605 0 0.1 0.605 0 0 0.61 0 0.02 0.61 0 0.04 0.61 0 0.06 0.61 0 0.08 0.61 0 0.1 0.61 0 0 0.615 0 0.02 0.615 0 0.04 0.615 0 0.06 0.615 0 0.08 0.615 0 0.1 0.615 0 0 0.62 0 0.02 0.62 0 0.04 0.62 0 0.06 0.62 0 0.08 0.62 0 0.1 0.62 0 0 0.625 0 0.02 0.625 0 0.04 0.625 0 0.06 0.625 0 0.08 0.625 0 0.1 0.625 0 0 0.63 0 0.02 0.63 0 0.04 0.63 0 0.06 0.63 0 0.08 0.63 0 0.1 0.63 0 0 0.635 0 0.02 0.635 0 0.04 0.635 0 0.06 0.635 0 0.08 0.635 0 0.1 0.635 0 0 0.64 0 0.02 0.64 0 0.04 0.64 0 0.06 0.64 0 0.08 0.64 0 0.1 0.64 0 0 0.645 0 0.02 0.645 0 0.04 0.645 0 0.06 0.645 0 0.08 0.645 0 0.1 0.645 0 0 0.65 0 0.02 0.65 0 0.04 0.65 0 0.06 0.65 0 0.08 0.65 0 0.1 0.65 0 0 0.655 0 0.02 0.655 0 0.04 0.655 0 0.06 0.655 0 0.08 0.655 0 0.1 0.655 0 0 0.66 0 0.02 0.66 0 0.04 0.66 0 0.06 0.66 0 0.08 0.66 0 0.1 0.66 0 0 0.665 0 0.02 0.665 0 0.04 0.665 0 0.06 0.665 0 0.08 0.665 0 0.1 0.665 0 0 0.67 0 0.02 0.67 0 0.04 0.67 0 0.06 0.67 0 0.08 0.67 0 0.1 0.67 0 0 0.675 0 0.02 0.675 0 0.04 0.675 0 0.06 0.675 0 0.08 0.675 0 0.1 0.675 0 0 0.68 0 0.02 0.68 0 0.04 0.68 0 0.06 0.68 0 0.08 0.68 0 0.1 0.68 0 0 0.685 0 0.02 0.685 0 0.04 0.685 0 0.06 0.685 0 0.08 0.685 0 0.1 0.685 0 0 0.69 0 0.02 0.69 0 0.04 0.69 0 0.06 0.69 0 0.08 0.69 0 0.1 
[...]
			<PointData Scalars="VitesseX">
				<DataArray Name="VitesseX" type="Float32" format="ascii">
 0 -2.30959e-14 -6.94524e-15 1.2137e-14 1.78204e-14 0 0 -1.77625e-14 -1.34405e-14 1.54009e-14 1.64062e-14 0 0 -1.21137e-14 -1.5442e-14 1.46996e-14 1.34825e-14 0 0 -1.13927e-14 -8.48314e-15 9.86764e-15 8.69342e-15 0 0 -3.62694e-15 -1.40655e-14 1.53269e-14 1.34242e-15 0 0 1.49727e-15 -1.42696e-14 1.2352e-14 7.67557e-15 0 0 -8.32455e-15 1.06071e-14 -7.519e-15 1.86733e-14 0 0 -3.53066e-15 9.10976e-15 4.05907e-15 5.78397e-15 0 0 1.1415e-14 4.58935e-16 8.6226e-15 6.58583e-15 0 0 8.73022e-15 2.62652e-14 -1.90483e-14 2.51142e-14 0 0 5.79974e-15 3.28416e-14 -1.14094e-14 1.88651e-14 0 0 7.11913e-15 2.45066e-14 5.33251e-15 7.82484e-15 0 0 -1.56685e-14 4.55298e-14 5.11877e-15 -3.71605e-15 0 0 -1.58424e-14 1.42798e-14 4.52383e-14 -2.97349e-14 0 0 -1.49357e-14 -3.16058e-15 4.57472e-14 -1.77974e-14 0 0 -2.87723e-14 1.2667e-14 1.76309e-14 -7.48669e-15 0 0 -1.49388e-14 -2.87619e-14 4.5617e-14 -3.84839e-14 0 0 1.3786e-14 -7.82149e-14 6.48219e-14 -4.00879e-14 0 0 3.95479e-16 -4.51731e-14 3.74966e-15 1.79258e-14 0 0 -1.24868e-14 -3.19341e-14 -1.71095e-14 3.37849e-14 0 0 -2.44255e-14 -2.44088e-14 -2.76428e-14 3.04743e-14 0 0 -5.75447e-14 9.57818e-15 -4.02033e-14 2.60014e-14 0 0 -1.54607e-14 -6.68045e-14 3.6443e-14 -2.91124e-14 0 0 8.26984e-15 -8.29873e-14 3.44585e-14 -2.59548e-14 0 0 -2.68829e-14 -3.79051e-15 -4.35005e-14 2.41581e-14 0 0 -1.04013e-14 -1.59461e-14 -1.85324e-14 4.95203e-15 0 0 4.13227e-14 -8.38974e-14 4.93445e-14 -2.77475e-14 0 0 4.2691e-14 -8.35161e-14 3.77209e-14 5.42225e-15 0 0 -1.22066e-14 1.69752e-15 -2.60502e-14 4.53818e-14 0 0 -1.4506e-15 -1.45045e-14 7.67549e-15 2.88861e-14 0 0 2.39912e-14 -4.82431e-14 7.12438e-14 -4.04765e-15 0 0 -8.2524e-15 1.56786e-14 1.61668e-14 3.45786e-14 0 0 -7.63883e-15 -1.63974e-14 1.66016e-14 6.75664e-14 0 0 -2.72305e-14 -4.06931e-14 4.33707e-14 7.34937e-14 0 0 -5.22332e-14 -4.98391e-15 -2.72065e-14 1.51638e-13 0 0 -1.59479e-14 -4.25914e-14 -1.71226e-14 1.38309e-13 0 0 2.09355e-15 -6.08636e-14 2.14851e-14 8.82032e-14 0 0 -2.71383e-14 1.29233e-14 -4.37052e-14 1.40272e-13 0 0 -6.50116e-15 -3.64457e-15 -1.47499e-14 1.27293e-13 0 0 1.16801e-14 -2.21223e-14 -4.8893e-15 1.20969e-13 0 0 -1.27447e-14 5.82007e-14 -1.33718e-13 1.95753e-13 0 0 3.39223e-14 7.69704e-15 -1.04529e-13 1.49806e-13 0 0 1.10399e-13 -1.31647e-13 7.63071e-14 -2.57401e-14 0 0 8.78669e-14 -7.32841e-14 -5.55849e-15 4.9218e-14 0 0 1.01438e-13 -5.18748e-14 -3.29912e-14 1.05235e-13 0 0 1.43449e-13 -8.80764e-14 1.89033e-14 5.917e-14 0 0 1.67927e-13 -7.38338e-14 -1.80769e-15 5.82886e-14 0 0 1.55254e-13 -3.55987e-14 -2.39444e-14 6.04764e-14 0 0 1.09067e-13 -2.6806e-15 -3.02297e-14 6.00749e-14 0 0 1.45913e-13 -7.16229e-14 7.59445e-14 -3.61278e-14 0 0 1.1899e-13 -1.09223e-14 1.80829e-14 -4.50777e-15 0 0 7.6181e-14 5.59273e-14 -5.93817e-14 7.09441e-14 0 0 1.23546e-13 -1.23946e-14 -4.79635e-15 3.70852e-14 0 0 2.4836e-13 -1.45009e-13 7.29664e-14 -1.56807e-14 0 0 1.78882e-13 1.99975e-14 -9.72554e-14 1.03488e-13 0 0 3.36354e-14 1.82106e-13 -1.72296e-13 1.52514e-13 0 0 7.58437e-14 7.71541e-14 -5.45074e-14 8.20813e-14 0 0 2.11604e-13 -7.71051e-14 4.81839e-14 7.24432e-14 0 0 1.92918e-13 -8.23317e-14 8.98529e-14 8.02741e-14 0 0 9.46473e-14 7.97697e-14 -2.22567e-14 1.23026e-13 0 0 1.17782e-13 6.62052e-14 5.36241e-14 4.63342e-14 0 0 3.20857e-14 1.0637e-13 1.67054e-13 -7.72784e-14 0 0 -9.28064e-15 1.82546e-13 6.21214e-14 9.76034e-17 0 0 8.27329e-14 1.7738e-14 1.65333e-13 -7.11024e-15 0 0 5.80586e-14 -2.4618e-14 2.52441e-13 -3.10399e-14 0 0 -1.80341e-14 9.25422e-14 7.38997e-14 1.0175e-13 0 0 1.04685e-13 -4.94604e-14 7.62633e-14 1.333e-13 0 0 6.85577e-14 5.6772e-14 -1.24869e-13 2.48518e-13 0 0 -7.19893e-14 2.7562e-13 -3.19401e-13 2.65238e-13 0 0 9.97057e-14 7.57143e-14 -1.29072e-13 1.27136e-13 0 0 3.14063e-13 -8.77729e-14 -2.09332e-14 9.88781e-14 0 0 2.64535e-13 -7.07278e-14 1.66424e-14 5.66053e-14 0 0 -8.59222e-15 2.48911e-13 -2.27299e-13 2.16611e-13 0 0 5.4556e-14 3.10961e-13 -3.90379e-13 3.33093e-13 0 0 2.90018e-13 1.10802e-13 -2.66921e-13 1.66936e-13 0 0 3.95042e-13 -3.0444e-15 -1.07949e-13 -1.10941e-15 0 0 4.43991e-13 -1.30131e-13 1.96741e-14 -6.00675e-14 0 0 3.17948e-13 1.13126e-13 -3.33339e-13 2.39208e-13 0 0 2.09458e-13 2.65377e-13 -6.56812e-13 5.27141e-13 0 0 3.47326e-13 -1.2172e-14 -4.32857e-13 3.78407e-13 0 0 4.34948e-13 -3.88423e-13 -4.69894e-14 1.41015e-13 0 0 3.25515e-13 -3.21543e-13 -1.76763e-14 8.6065e-14 0 0 4.63717e-14 4.3685e-14 -2.0045e-13 1.03663e-13 0 0 -2.24489e-13 5.94773e-14 -1.83096e-13 5.21528e-14 0 0 -2.15479e-13 -3.45415e-14 -7.22665e-14 -1.59977e-14 0 0 -1.81917e-13 -1.63623e-13 8.91335e-15 4.49613e-14 0 0 -1.99102e-13 -1.46946e-13 -2.45359e-14 1.52052e-13 0 0 -2.74468e-13 -5.97808e-14 -1.10347e-13 2.35879e-13 0 0 -3.10004e-13 4.02372e-15 -2.86442e-13 3.20012e-13 0 0 -2.9283e-13 -1.74864e-14 -3.14036e-13 3.89696e-13 0 0 -2.02447e-13 -1.44199e-13 -2.7087e-13 3.61913e-13 0 0 -1.01205e-13 -3.32924e-13 -1.42608e-13 2.84742e-13 0 0 -9.73549e-14 -4.40077e-13 -1.35038e-14 1.65588e-13 0 0 -1.69804e-13 -4.27325e-13 8.39261e-14 5.8861e-14 0 0 -3.13521e-13 -3.69082e-13 1.65837e-13 -3.43929e-14 0 0 -4.48894e-13 -2.80943e-13 2.50127e-13 -1.03341e-13 0 0 -5.67193e-13 -1.93657e-13 2.79298e-13 -1.7141e-13 0 0 -6.23605e-13 -1.34871e-13 2.76507e-13 -2.54144e-13 0 0 -6.12694e-13 -9.34497e-14 2.72266e-13 -2.80605e-13 0 0 -5.81776e-13 -6.46107e-14 2.2863e-13 -2.77129e-13 0 0 -5.33868e-13 -1.04479e-14 1.43392e-13 -2.44464e-13 0 0 -4.6153e-13 1.64466e-14 7.00865e-14 -1.65788e-13 0 0 -3.25163e-13 -4.81446e-16 5.59914e-14 -8.4983e-14 0 0 -1.88726e-13 -1.33228e-14 4.89308e-14 2.60665e-14 0 0 -7.01563e-14 -3.89777e-14 9.20448e-14 1.8675e-14 0 0 4.35508e-14 -1.25721e-13 2.42786e-13 7.04761e-15 0 0 1.9192e-13 -1.28642e-13 2.24584e-13 7.65181e-14 0 0 2.7296e-13 -8.8273e-14 1.43563e-13 2.34989e-13 0 0 2.73195e-13 -2.18267e-14 6.02414e-14 4.27587e-13 0 0 2.6586e-13 8.1241e-14 1.49324e-14 4.63899e-13 0 0 2.09017e-13 1.37158e-13 4.46017e-14 4.48912e-13 0 0 1.34885e-13 2.0169e-13 2.97201e-14 4.03507e-13 0 0 8.04204e-14 2.26774e-13 6.36465e-15 3.4594e-13 0 0 9.34399e-14 1.94292e-13 6.09609e-14 2.27294e-13 0 0 1.12697e-13 1.66277e-13 6.77979e-14 2.06618e-13 0 0 1.42693e-13 1.31362e-13 8.90163e-14 1.70079e-13 0 0 2.0664e-13 8.05317e-14 1.39735e-13 1.25013e-13 0 0 3.12147e-13 3.4631e-14 1.62164e-13 1.25667e-13 0 0 3.33003e-13 4.41725e-14 1.82797e-13 7.11045e-14 0 0 3.24545e-13 9.04472e-14 1.78018e-13 3.13841e-14 0 0 2.97345e-13 1.97866e-13 1.62286e-13 2.98496e-14 0 0 1.68229e-13 4.6493e-13 -1.86624e-14 9.99651e-14 0 0 6.26483e-14 6.05391e-13 -2.07729e-13 1.7596e-13 0 0 7.20827e-14 5.68556e-13 -1.68513e-13 1.61279e-13 0 0 1.46579e-13 3.59389e-13 6.03379e-14 8.56258e-15 0 0 1.99789e-13 -1.89533e-14 4.22237e-13 -1.42363e-13 0 0 1.92729e-13 -1.68355e-13 4.70316e-13 -1.29626e-13 0 0 1.58652e-13 -1.39694e-13 4.31377e-13 -1.00805e-13 0 0 6.6422e-14 -2.05424e-14 2.61536e-13 -5.82939e-14 0 0 5.9314e-14 6.96627e-14 8.83555e-14 6.86283e-14 0 0 6.87576e-14 8.73317e-14 5.31758e-14 6.68839e-14 0 0 6.68105e-14 1.49526e-13 -2.26162e-14 2.8242e-14 0 0 7.60203e-14 1.54428e-13 -3.16454e-14 -1.28407e-14 0 0 8.03729e-14 1.44605e-13 -3.42527e-14 -5.54823e-14 0 0 7.13228e-14 1.46332e-13 -7.059e-14 -8.54635e-14 0 0 7.29483e-14 1.20745e-13 -7.01002e-14 -8.51778e-14 0 0 6.78711e-14 4.35327e-14 2.24045e-14 -1.73548e-13 0 0 5.63274e-14 -7.02757e-14 1.91447e-13 -1.71372e-13 0 0 2.69379e-14 -9.21483e-14 1.73894e-13 -6.75951e-14 0 0 -2.89706e-14 -6.66558e-14 1.17999e-13 -2.86937e-14 0 0 -4.81292e-14 -5.0232e-14 7.94523e-14 -2.73437e-14 0 0 -4.26137e-14 -6.08062e-14 3.40484e-14 -1.40284e-14 0 0 -5.93166e-14 -6.92962e-14 8.9185e-15 -2.03318e-14 0 0 -9.23847e-14 -2.27026e-14 -3.35241e-14 -2.657e-14 0 0 -5.70041e-14 -5.98025e-14 2.52362e-15 -9.45238e-15 0 0 -4.78698e-14 -9.10097e-14 6.94614e-14 -1.33501e-14 0 0 -5.80649e-14 5.89789e-14 -7.37305e-14 1.58071e-13 0 0 2.95988e-14 5.26993e-14 -4.79208e-14 1.35655e-13 0 0 6.76208e-14 6.3546e-14 1.12205e-13 -2.04197e-14 0 0 6.00405e-14 1.04569e-13 2.062e-13 2.37731e-14 0 0 2.86857e-14 2.34969e-13 1.89624e-13 2.40297e-13 0 0 4.47685e-14 2.61949e-13 1.80539e-13 2.97289e-13 0 0 1.26888e-13 1.60084e-13 3.03182e-13 2.46872e-13 0 0 1.57149e-13 1.45222e-13 3.33011e-13 2.59674e-13 0 0 1.24092e-13 2.26473e-13 2.62234e-13 2.21828e-13 0 0 8.66617e-14 3.15899e-13 1.94178e-13 2.03414e-13 0 0 1.61337e-13 2.17045e-13 2.82761e-13 1.54543e-13 0 0 1.49807e-13 2.04839e-13 3.52004e-13 6.39447e-14 0 0 1.21048e-13 1.84902e-13 4.38475e-13 -6.87351e-15 0 0 5.14682e-14 2.55231e-13 3.66943e-13 8.52358e-14 0 0 5.53208e-14 2.67105e-13 3.61435e-13 1.17305e-13 0 0 1.27354e-13 1.66329e-13 4.46569e-13 1.38371e-13 0 0 1.82562e-13 6.26152e-14 5.56999e-13 1.42528e-13 0 0 2.27851e-13 7.80947e-14 5.42905e-13 2.09609e-13 0 0 1.25208e-13 3.35392e-13 2.60744e-13 3.94941e-13 0 0 7.02506e-14 4.96161e-13 8.90153e-14 4.49051e-13 0 0 4.63047e-14 5.56855e-13 1.36783e-13 3.70581e-13 0 0 1.4978e-13 3.72723e-13 4.46692e-13 1.10462e-13 0 0 3.64864e-13 1.05984e-13 6.94084e-13 -6.50221e-14 0 0 2.71612e-13 3.00455e-13 5.55352e-13 2.9769e-14 0 0 1.13561e-13 5.94921e-13 2.73947e-13 2.71404e-13 0 0 2.70498e-13 4.49169e-13 2.37093e-13 4.56753e-13 0 0 3.39115e-13 3.99788e-13 2.18713e-13 5.8694e-13 0 0 3.97946e-13 2.60521e-13 4.38371e-13 5.37714e-13 0 0 2.94069e-13 4.59957e-13 3.08608e-13 6.21938e-13 0 0 2.90964e-13 5.99623e-13 1.91307e-13 5.36957e-13 0 0 5.2895e-13 2.63528e-13 6.83764e-13 8.77291e-14 0 0 2.90601e-13 6.16376e-13 5.18152e-13 1.39244e-13 0 0 2.98714e-13 5.98626e-13 4.30061e-13 3.27182e-13 0 0 4.88802e-13 3.6904e-13 5.0317e-13 4.08938e-13 0 0 2.82007e-13 6.59126e-13 2.54368e-13 5.08837e-13 0 0 1.52716e-13 6.25252e-13 4.65637e-13 3.08585e-13 0 0 1.84696e-15 7.18404e-13 4.39971e-13 3.37824e-13 0 0 2.26609e-13 5.16184e-13 3.6014e-13 5.21893e-13 0 0 3.53225e-13 3.94943e-13 4.28476e-13 4.18185e-13 0 0 2.45003e-13 6.02465e-13 2.39561e-13 4.5686e-13 0 0 2.06937e-13 6.52126e-13 1.77593e-13 5.37858e-13 0 0 5.93467e-14 6.2752e-13 5.01928e-13 2.08272e-13 0 0 2.76205e-13 1.66723e-13 1.07876e-12 -2.46533e-13 0 0 1.39539e-13 3.506e-13 9.6194e-13 -1.68443e-13 0 0 -7.18558e-14 6.55984e-13 6.17396e-13 1.26126e-13 0 0 8.57915e-15 5.67714e-13 6.53286e-13 8.38371e-14 0 0 1.19762e-13 4.06301e-13 8.04671e-13 -8.65614e-14 0 0 1.05836e-13 4.50332e-13 7.42744e-13 -8.69015e-14 0 0 7.63088e-15 5.32221e-13 7.16078e-13 -5.32321e-14 0 0 9.71998e-14 3.70117e-13 7.15191e-13 6.2803e-14 0 0 2.26184e-13 2.99892e-13 5.6325e-13 1.53542e-13 0 0 2.69746e-13 2.82605e-13 5.89078e-13 8.31274e-15 0 0 4.35909e-14 7.32417e-13 2.09983e-13 1.66122e-13 0 0 -1.71932e-13 1.19698e-12 -3.23663e-13 4.96655e-13 0 0 -1.95299e-13 1.26966e-12 -4.58875e-13 5.835e-13 0
				</DataArray>
				<DataArray Name="VitesseY" type="Float32" format="ascii">