<?xml version="1.0"?>
<VTKFile type="PolyData">
	<PolyData>
		<Piece NumberOfPoints="1206" NumberOfPolys="1000">
			<Points>
				<DataArray type="Float32" NumberOfComponents="3" format="ascii">
 0 0 0 0.02 0 0 0.04 0 0 0.06 0 0 0.08 0 0 0.1 0 0 0 0.005 0 0.02 0.005 0 0.04 0.005 0 0.06 0.005 0 0.08 0.005 0 0.1 0.005 0 0 0.01 0 0.02 0.01 0 0.04 0.01 0 0.06 0.01 0 0.08 0.01 0 0.1 0.01 0 0 0.015 0 0.02 0.015 0 0.04 0.015 0 0.06 0.015 0 0.08 0.015 0 0.1 0.015 0 0 0.02 0 0.02 0.02 0 0.04 0.02 0 0.06 0.02 0 0.08 0.02 0 0.1 0.02 0 0 0.025 0 0.02 0.025 0 0.04 0.025 0 0.06 0.025 0 0.08 0.025 0 0.1 0.025 0 0 0.03 0 0.02 0.03 0 0.04 0.03 0 0.06 0.03 0 0.08 0.03 0 0.1 0.03 0 0 0.035 0 0.02 0.035 0 0.04 0.035 0 0.06 0.035 0 0.08 0.035 0 0.1 0.035 0 0 0.04 0 0.02 0.04 0 0.04 0.04 0 0.06 0.04 0 0.08 0.04 0 0.1 0.04 0 0 0.045 0 0.02 0.045 0 0.04 0.045 0 0.06 0.045 0 0.08 0.045 0 0.1 0.045 0 0 0.05 0 0.02 0.05 0 0.04 0.05 0 0.06 0.05 0 0.08 0.05 0 0.1 0.05 0 0 0.055 0 0.02 0.055 0 0.04 0.055 0 0.06 0.055 0 0.08 0.055 0 0.1 0.055 0 0 0.06 0 0.02 0.06 0 0.04 0.06 0 0.06 0.06 0 0.08 0.06 0 0.1 0.06 0 0 0.065 0 0.02 0.065 0 0.04 0.065 0 0.06 0.065 0 0.08 0.065 0 0.1 0.065 0 0 0.07 0 0.02 0.07 0 0.04 0.07 0 0.06 0.07 0 0.08 0.07 0 0.1 0.07 0 0 0.075 0 0.02 0.075 0 0.04 0.075 0 0.06 0.075 0 0.08 0.075 0 0.1 0.075 0 0 0.08 0 0.02 0.08 0 0.04 0.08 0 0.06 0.08 0 0.08 0.08 0 0.1 0.08 0 0 0.085 0 0.02 0.085 0 0.04 0.085 0 0.06 0.085 0 0.08 0.085 0 0.1 0.085 0 0 0.09 0 0.02 0.09 0 0.04 0.09 0 0.06 0.09 0 0.08 0.09 0 0.1 0.09 0 0 0.095 0 0.02 0.095 0 0.04 0.095 0 0.06 0.095 0 0.08 0.095 0 0.1 0.095 0 0 0.1 0 0.02 0.1 0 0.04 0.1 0 0.06 0.1 0 0.08 0.1 0 0.1 0.1 0 0 0.105 0 0.02 0.105 0 0.04 0.105 0 0.06 0.105 0 0.08 0.105 0 0.1 0.105 0 0 0.11 0 0.02 0.11 0 0.04 0.11 0 0.06 0.11 0 0.08 0.11 0 0.1 0.11 0 0 0.115 0 0.02 0.115 0 0.04 0.115 0 0.06 0.115 0 0.08 0.115 0 0.1 0.115 0 0 0.12 0 0.02 0.12 0 0.04 0.12 0 0.06 0.12 0 0.08 0.12 0 0.1 0.12 0 0 0.125 0 0.02 0.125 0 0.04 0.125 0 0.06 0.125 0 0.08 0.125 0 0.1 0.125 0 0 0.13 0 0.02 0.13 0 0.04 0.13 0 0.06 0.13 0 0.08 0.13 0 0.1 0.13 0 0 0.135 0 0.02 0.135 0 0.04 0.135 0 0.06 0.135 0 0.08 0.135 0 0.1 0.135 0 0 0.14 0 0.02 0.14 0 0.04 0.14 0 0.06 0.14 0 0.08 0.14 0 0.1 0.14 0 0 0.145 0 0.02 0.145 0 0.04 0.145 0 0.06 0.145 0 0.08 0.145 0 0.1 0.145 0 0 0.15 0 0.02 0.15 0 0.04 0.15 0 0.06 0.15 0 0.08 0.15 0 0.1 0.15 0 0 0.155 0 0.02 0.155 0 0.04 0.155 0 0.06 0.155 0 0.08 0.155 0 0.1 0.155 0 0 0.16 0 0.02 0.16 0 0.04 0.16 0 0.06 0.16 0 0.08 0.16 0 0.1 0.16 0 0 0.165 0 0.02 0.165 0 0.04 0.165 0 0.06 0.165 0 0.08 0.165 0 0.1 0.165 0 0 0.17 0 0.02 0.17 0 0.04 0.17 0 0.06 0.17 0 0.08 0.17 0 0.1 0.17 0 0 0.175 0 0.02 0.175 0 0.04 0.175 0 0.06 0.175 0 0.08 0.175 0 0.1 0.175 0 0 0.18 0 0.02 0.18 0 0.04 0.18 0 0.06 0.18 0 0.08 0.18 0 0.1 0.18 0 0 0.185 0 0.02 0.185 0 0.04 0.185 0 0.06 0.185 0 0.08 0.185 0 0.1 0.185 0 0 0.19 0 0.02 0.19 0 0.04 0.19 0 0.06 0.19 0 0.08 0.19 0 0.1 0.19 0 0 0.195 0 0.02 0.195 0 0.04 0.195 0 0.06 0.195 0 0.08 0.195 0 0.1 0.195 0 0 0.2 0 0.02 0.2 0 0.04 0.2 0 0.06 0.2 0 0.08 0.2 0 0.1 0.2 0 0 0.205 0 0.02 0.205 0 0.04 0.205 0 0.06 0.205 0 0.08 0.205 0 0.1 0.205 0 0 0.21 0 0.02 0.21 0 0.04 0.21 0 0.06 0.21 0 0.08 0.21 0 0.1 0.21 0 0 0.215 0 0.02 0.215 0 0.04 0.215 0 0.06 0.215 0 0.08 0.215 0 0.1 0.215 0 0 0.22 0 0.02 0.22 0 0.04 0.22 0 0.06 0.22 0 0.08 0.22 0 0.1 0.22 0 0 0.225 0 0.02 0.225 0 0.04 0.225 0 0.06 0.225 0 0.08 0.225 0 0.1 0.225 0 0 0.23 0 0.02 0.23 0 0.04 0.23 0 0.06 0.23 0 0.08 0.23 0 0.1 0.23 0 0 0.235 0 0.02 0.235 0 0.04 0.235 0 0.06 0.235 0 0.08 0.235 0 0.1 0.235 0 0 0.24 0 0.02 0.24 0 0.04 0.24 0 0.06 0.24 0 0.08 0.24 0 0.1 0.24 0 0 0.245 0 0.02 0.245 0 0.04 0.245 0 0.06 0.245 0 0.08 0.245 0 0.1 0.245 0 0 0.25 0 0.02 0.25 0 0.04 0.25 0 0.06 0.25 0 0.08 0.25 0 0.1 0.25 0 0 0.255 0 0.02 0.255 0 0.04 0.255 0 0.06 0.255 0 0.08 0.255 0 0.1 0.255 0 0 0.26 0 0.02 0.26 0 0.04 0.26 0 0.06 0.26 0 0.08 0.26 0 0.1 0.26 0 0 0.265 0 0.02 0.265 0 0.04 0.265 0 0.06 0.265 0 0.08 0.265 0 0.1 0.265 0 0 0.27 0 0.02 0.27 0 0.04 0.27 0 0.06 0.27 0 0.08 0.27 0 0.1 0.27 0 0 0.275 0 0.02 0.275 0 0.04 0.275 0 0.06 0.275 0 0.08 0.275 0 0.1 0.275 0 0 0.28 0 0.02 0.28 0 0.04 0.28 0 0.06 0.28 0 0.08 0.28 0 0.1 0.28 0 0 0.285 0 0.02 0.285 0 0.04 0.285 0 0.06 0.285 0 0.08 0.285 0 0.1 0.285 0 0 0.29 0 0.02 0.29 0 0.04 0.29 0 0.06 0.29 0 0.08 0.29 0 0.1 0.29 0 0 0.295 0 0.02 0.295 0 0.04 0.295 0 0.06 0.295 0 0.08 0.295 0 0.1 0.295 0 0 0.3 0 0.02 0.3 0 0.04 0.3 0 0.06 0.3 0 0.08 0.3 0 0.1 0.3 0 0 0.305 0 0.02 0.305 0 0.04 0.305 0 0.06 0.305 0 0.08 0.305 0 0.1 0.305 0 0 0.31 0 0.02 0.31 0 0.04 0.31 0 0.06 0.31 0 0.08 0.31 0 0.1 0.31 0 0 0.315 0 0.02 0.315 0 0.04 0.315 0 0.06 0.315 0 0.08 0.315 0 0.1 0.315 0 0 0.32 0 0.02 0.32 0 0.04 0.32 0 0.06 0.32 0 0.08 0.32 0 0.1 0.32 0 0 0.325 0 0.02 0.325 0 0.04 0.325 0 0.06 0.325 0 0.08 0.325 0 0.1 0.325 0 0 0.33 0 0.02 0.33 0 0.04 0.33 0 0.06 0.33 0 0.08 0.33 0 0.1 0.33 0 0 0.335 0 0.02 0.335 0 0.04 0.335 0 0.06 0.335 0 0.08 0.335 0 0.1 0.335 0 0 0.34 0 0.02 0.34 0 0.04 0.34 0 0.06 0.34 0 0.08 0.34 0 0.1 0.34 0 0 0.345 0 0.02 0.345 0 0.04 0.345 0 0.06 0.345 0 0.08 0.345 0 0.1 0.345 0 0 0.35 0 0.02 0.35 0 0.04 0.35 0 0.06 0.35 0 0.08 0.35 0 0.1 0.35 0 0 0.355 0 0.02 0.355 0 0.04 0.355 0 0.06 0.355 0 0.08 0.355 0 0.1 0.355 0 0 0.36 0 0.02 0.36 0 0.04 0.36 0 0.06 0.36 0 0.08 0.36 0 0.1 0.36 0 0 0.365 0 0.02 0.365 0 0.04 0.365 0 0.06 0.365 0 0.08 0.365 0 0.1 0.365 0 0 0.37 0 0.02 0.37 0 0.04 0.37 0 0.06 0.37 0 0.08 0.37 0 0.1 0.37 0 0 0.375 0 0.02 0.375 0 0.04 0.375 0 0.06 0.375 0 0.08 0.375 0 0.1 0.375 0 0 0.38 0 0.02 0.38 0 0.04 0.38 0 0.06 0.38 0 0.08 0.38 0 0.1 0.38 0 0 0.385 0 0.02 0.385 0 0.04 0.385 0 0.06 0.385 0 0.08 0.385 0 0.1 0.385 0 0 0.39 0 0.02 0.39 0 0.04 0.39 0 0.06 0.39 0 0.08 0.39 0 0.1 0.39 0 0 0.395 0 0.02 0.395 0 0.04 0.395 0 0.06 0.395 0 0.08 0.395 0 0.1 0.395 0 0 0.4 0 0.02 0.4 0 0.04 0.4 0 0.06 0.4 0 0.08 0.4 0 0.1 0.4 0 0 0.405 0 0.02 0.405 0 0.04 0.405 0 0.06 0.405 0 0.08 0.405 0 0.1 0.405 0 0 0.41 0 0.02 0.41 0 0.04 0.41 0 0.06 0.41 0 0.08 0.41 0 0.1 0.41 0 0 0.415 0 0.02 0.415 0 0.04 0.415 0 0.06 0.415 0 0.08 0.415 0 0.1 0.415 0 0 0.42 0 0.02 0.42 0 0.04 0.42 0 0.06 0.42 0 0.08 0.42 0 0.1 0.42 0 0 0.425 0 0.02 0.425 0 0.04 0.425 0 0.06 0.425 0 0.08 0.425 0 0.1 0.425 0 0 0.43 0 0.02 0.43 0 0.04 0.43 0 0.06 0.43 0 0.08 0.43 0 0.1 0.43 0 0 0.435 0 0.02 0.435 0 0.04 0.435 0 0.06 0.435 0 0.08 0.435 0 0.1 0.435 0 0 0.44 0 0.02 0.44 0 0.04 0.44 0 0.06 0.44 0 0.08 0.44 0 0.1 0.44 0 0 0.445 0 0.02 0.445 0 0.04 0.445 0 0.06 0.445 0 0.08 0.445 0 0.1 0.445 0 0 0.45 0 0.02 0.45 0 0.04 0.45 0 0.06 0.45 0 0.08 0.45 0 0.1 0.45 0 0 0.455 0 0.02 0.455 0 0.04 0.455 0 0.06 0.455 0 0.08 0.455 0 0.1 0.455 0 0 0.46 0 0.02 0.46 0 0.04 0.46 0 0.06 0.46 0 0.08 0.46 0 0.1 0.46 0 0 0.465 0 0.02 0.465 0 0.04 0.465 0 0.06 0.465 0 0.08 0.465 0 0.1 0.465 0 0 0.47 0 0.02 0.47 0 0.04 0.47 0 0.06 0.47 0 0.08 0.47 0 0.1 0.47 0 0 0.475 0 0.02 0.475 0 0.04 0.475 0 0.06 0.475 0 0.08 0.475 0 0.1 0.475 0 0 0.48 0 0.02 0.48 0 0.04 0.48 0 0.06 0.48 0 0.08 0.48 0 0.1 0.48 0 0 0.485 0 0.02 0.485 0 0.04 0.485 0 0.06 0.485 0 0.08 0.485 0 0.1 0.485 0 0 0.49 0 0.02 0.49 0 0.04 0.49 0 0.06 0.49 0 0.08 0.49 0 0.1 0.49 0 0 0.495 0 0.02 0.495 0 0.04 0.495 0 0.06 0.495 0 0.08 0.495 0 0.1 0.495 0 0 0.5 0 0.02 0.5 0 0.04 0.5 0 0.06 0.5 0 0.08 0.5 0 0.1 0.5 0 0 0.505 0 0.02 0.505 0 0.04 0.505 0 0.06 0.505 0 0.08 0.505 0 0.1 0.505 0 0 0.51 0 0.02 0.51 0 0.04 0.51 0 0.06 0.51 0 0.08 0.51 0 0.1 0.51 0 0 0.515 0 0.02 0.515 0 0.04 0.515 0 0.06 0.515 0 0.08 0.515 0 0.1 0.515 0 0 0.52 0 0.02 0.52 0 0.04 0.52 0 0.06 0.52 0 0.08 0.52 0 0.1 0.52 0 0 0.525 0 0.02 0.525 0 0.04 0.525 0 0.06 0.525 0 0.08 0.525 0 0.1 0.525 0 0 0.53 0 0.02 0.53 0 0.04 0.53 0 0.06 0.53 0 0.08 0.53 0 0.1 0.53 0 0 0.535 0 0.02 0.535 0 0.04 0.535 0 0.06 0.535 0 0.08 0.535 0 0.1 0.535 0 0 0.54 0 0.02 0.54 0 0.04 0.54 0 0.06 0.54 0 0.08 0.54 0 0.1 0.54 0 0 0.545 0 0.02 0.545 0 0.04 0.545 0 0.06 0.545 0 0.08 0.545 0 0.1 0.545 0 0 0.55 0 0.02 0.55 0 0.04 0.55 0 0.06 0.55 0 0.08 0.55 0 0.1 0.55 0 0 0.555 0 0.02 0.555 0 0.04 0.555 0 0.06 0.555 0 0.08 0.555 0 0.1 0.555 0 0 0.56 0 0.02 0.56 0 0.04 0.56 0 0.06 0.56 0 0.08 0.56 0 0.1 0.56 0 0 0.565 0 0.02 0.565 0 0.04 0.565 0 0.06 0.565 0 0.08 0.565 0 0.1 0.565 0 0 0.57 0 0.02 0.57 0 0.04 0.57 0 0.06 0.57 0 0.08 0.57 0 0.1 0.57 0 0 0.575 0 0.02 0.575 0 0.04 0.575 0 0.06 0.575 0 0.08 0.575 0 0.1 0.575 0 0 0.58 0 0.02 0.58 0 0.04 0.58 0 0.06 0.58 0 0.08 0.58 0 0.1 0.58 0 0 0.585 0 0.02 0.585 0 0.04 0.585 0 0.06 0.585 0 0.08 0.585 0 0.1 0.585 0 0 0.59 0 0.02 0.59 0 0.04 0.59 0 0.06 0.59 0 0.08 0.59 0 0.1 0.59 0 0 0.595 0 0.02 0.595 0 0.04 0.595 0 0.06 0.595 0 0.08 0.595 0 0.1 0.595 0 0 0.6 0 0.02 0.6 0 0.04 0.6 0 0.06 0.6 0 0.08 0.6 0 0.1 0.6 0 0 0.605 0 0.02 0.605 0 0.04 0.605 0 0.06 0.605 0 0.08 0.605 0 0.1 0.605 0 0 0.61 0 0.02 0.61 0 0.04 0.61 0 0.06 0.61 0 0.08 0.61 0 0.1 0.61 0 0 0.615 0 0.02 0.615 0 0.04 0.615 0 0.06 0.615 0 0.08 0.615 0 0.1 0.615 0 0 0.62 0 0.02 0.62 0 0.04 0.62 0 0.06 0.62 0 0.08 0.62 0 0.1 0.62 0 0 0.625 0 0.02 0.625 0 0.04 0.625 0 0.06 0.625 0 0.08 0.625 0 0.1 0.625 0 0 0.63 0 0.02 0.63 0 0.04 0.63 0 0.06 0.63 0 0.08 0.63 0 0.1 0.63 0 0 0.635 0 0.02 0.635 0 0.04 0.635 0 0.06 0.635 0 0.08 0.635 0 0.1 0.635 0 0 0.64 0 0.02 0.64 0 0.04 0.64 0 0.06 0.64 0 0.08 0.64 0 0.1 0.64 0 0 0.645 0 0.02 0.645 0 0.04 0.645 0 0.06 0.645 0 0.08 0.645 0 0.1 0.645 0 0 0.65 0 0.02 0.65 0 0.04 0.65 0 0.06 0.65 0 0.08 0.65 0 0.1 0.65 0 0 0.655 0 0.02 0.655 0 0.04 0.655 0 0.06 0.655 0 0.08 0.655 0 0.1 0.655 0 0 0.66 0 0.02 0.66 0 0.04 0.66 0 0.06 0.66 0 0.08 0.66 0 0.1 0.66 0 0 0.665 0 0.02 0.665 0 0.04 0.665 0 0.06 0.665 0 0.08 0.665 0 0.1 0.665 0 0 0.67 0 0.02 0.67 0 0.04 0.67 0 0.06 0.67 0 0.08 0.67 0 0.1 0.67 0 0 0.675 0 0.02 0.675 0 0.04 0.675 0 0.06 0.675 0 0.08 0.675 0 0.1 0.675 0 0 0.68 0 0.02 0.68 0 0.04 0.68 0 0.06 0.68 0 0.08 0.68 0 0.1 0.68 0 0 0.685 0 0.02 0.685 0 0.04 0.685 0 0.06 0.685 0 0.08 0.685 0 0.1 0.685 0 0 0.69 0 0.02 0.69 0 0.04 0.69 0 0.06 0.69 0 0.08 0.69 0 0.1 
[...]
			<PointData Scalars="VitesseX">
				<DataArray Name="VitesseX" type="Float32" format="ascii">
 0 -9.31809e-15 -1.31612e-14 -2.73962e-14 2.29068e-14 0 0 -1.67131e-14 -5.11721e-15 -2.35698e-14 1.49416e-14 0 0 -7.84195e-15 -2.26183e-14 5.16239e-15 -6.13398e-15 0 0 -2.46822e-14 -5.08312e-15 -8.68335e-15 7.73109e-15 0 0 -5.04875e-14 1.4166e-14 -9.37347e-15 7.68037e-15 0 0 -3.08733e-14 -2.3006e-14 2.92033e-14 -2.2578e-14 0 0 4.60969e-15 -5.39439e-14 1.38333e-14 -6.55993e-15 0 0 3.77077e-15 -4.23881e-14 -3.99147e-14 3.38404e-14 0 0 -1.71258e-14 -3.85614e-14 -3.83593e-14 2.092e-14 0 0 -4.28923e-14 -2.8221e-14 -3.81543e-14 2.37198e-14 0 0 -8.5012e-14 3.77497e-14 -9.32755e-14 6.02753e-14 0 0 -4.01885e-14 -3.8426e-14 1.48671e-14 -1.35641e-14 0 0 -7.10058e-14 -1.45399e-14 3.38734e-14 -4.58055e-14 0 0 -6.49201e-14 1.6826e-15 8.87195e-15 -5.52445e-14 0 0 -3.22848e-14 2.16263e-15 -4.06421e-14 -1.21645e-14 0 0 -8.2102e-14 8.0587e-14 -1.21378e-13 5.00816e-14 0 0 -2.32297e-14 -4.09361e-14 -8.92702e-15 9.87262e-16 0 0 -8.1568e-14 4.15551e-14 -1.09231e-13 6.2989e-14 0 0 -1.30171e-13 1.19467e-13 -1.78994e-13 7.09209e-14 0 0 -5.9219e-14 1.2777e-14 -1.02642e-13 2.94321e-14 0 0 -2.72881e-14 -2.95831e-14 -1.45245e-13 8.91126e-14 0 0 -3.1022e-14 -5.39426e-14 -1.53445e-13 1.14249e-13 0 0 -8.85151e-14 -5.85975e-14 -3.63042e-14 8.23438e-15 0 0 -9.48321e-14 -6.72542e-14 6.58007e-14 -1.28655e-13 0 0 -3.61708e-14 -3.40845e-14 -4.44968e-14 -7.35964e-14 0 0 -1.15701e-14 -6.29601e-15 -1.31017e-13 -2.20391e-14 0 0 -4.04944e-14 -2.9778e-14 -4.65775e-14 -1.6602e-13 0 0 -1.15346e-13 -8.22871e-15 -5.34708e-14 -2.15493e-13 0 0 -1.12176e-13 -2.72186e-14 -1.23226e-13 -1.18793e-13 0 0 -1.0305e-13 -1.37045e-14 -1.63685e-13 -8.06932e-14 0 0 -3.78365e-14 -9.87026e-14 -2.4156e-14 -1.85088e-13 0 0 -1.59012e-14 -1.27903e-13 1.50941e-14 -1.32175e-13 0 0 -1.0837e-13 -3.52893e-14 -4.56474e-14 -2.22774e-14 0 0 -1.20798e-13 -7.9712e-14 4.58329e-14 -5.85061e-14 0 0 -1.10278e-13 -5.74982e-14 -4.85608e-14 7.21023e-14 0 0 -2.68597e-14 -1.2684e-13 -1.83995e-14 1.18446e-13 0 0 -1.19755e-13 -8.06172e-16 -2.22696e-14 1.05861e-13 0 0 -1.78605e-13 5.98036e-14 2.37017e-14 1.81766e-14 0 0 -1.6016e-13 5.5356e-14 2.09826e-14 4.50597e-15 0 0 -6.9261e-14 -2.46674e-14 -7.79208e-15 4.48134e-14 0 0 -3.37196e-14 -9.13591e-14 -5.20891e-14 5.66544e-14 0 0 -1.38309e-13 -3.14633e-14 -1.26684e-13 6.58154e-14 0 0 -6.8891e-14 -1.64332e-13 3.02957e-15 -6.91167e-14 0 0 6.90491e-15 -1.97855e-13 -3.56321e-14 -5.71958e-14 0 0 -1.8831e-14 -1.05172e-13 -1.26674e-13 -1.86046e-14 0 0 -3.36332e-14 -1.25406e-13 7.43456e-15 -2.19419e-13 0 0 -2.77216e-13 6.27431e-14 1.25506e-14 -3.45314e-13 0 0 -3.07886e-13 -1.05767e-14 8.68124e-14 -3.64676e-13 0 0 -1.57657e-13 -1.96558e-13 8.10535e-14 -2.43878e-13 0 0 -1.07076e-13 -1.95208e-13 -9.08181e-14 -1.53685e-14 0 0 3.8516e-14 -3.57786e-13 4.00586e-15 -3.93401e-14 0 0 -2.45045e-13 -1.53885e-14 -1.04305e-13 -1.30584e-13 0 0 -3.26829e-13 -3.5204e-14 1.67139e-13 -5.11845e-13 0 0 -3.76008e-13 9.56807e-14 -3.38958e-14 -3.69129e-13 0 0 -2.18556e-13 1.44074e-13 -3.85693e-13 1.64559e-14 0 0 1.1363e-13 -2.52225e-13 -6.00161e-14 -1.45892e-13 0 0 -2.80238e-13 7.20877e-14 -1.4902e-13 -1.41489e-13 0 0 -2.52013e-13 -2.45505e-13 4.09094e-13 -5.98079e-13 0 0 -2.29276e-13 -2.43503e-13 3.83497e-13 -5.80753e-13 0 0 -3.00423e-13 6.27698e-14 -1.98937e-13 -6.57696e-14 0 0 -9.08729e-14 -1.51011e-13 -1.73405e-13 1.95839e-14 0 0 -2.39212e-13 3.7683e-14 -2.9883e-13 9.26874e-14 0 0 -1.34267e-13 -1.01127e-13 -9.7944e-14 -6.1182e-14 0 0 -9.90088e-14 -6.12368e-14 -1.65218e-13 -3.66726e-14 0 0 -1.62128e-13 3.14875e-14 -2.46874e-13 1.74591e-14 0 0 -6.48027e-14 -1.41052e-13 -1.07576e-13 -3.56622e-14 0 0 -1.95842e-13 1.32285e-14 -3.08411e-13 9.5691e-14 0 0 -5.05323e-14 -1.47523e-13 -2.3851e-13 5.19195e-14 0 0 -9.9348e-15 -1.71755e-13 -2.49796e-13 6.82291e-14 0 0 -2.74319e-13 6.94782e-14 -2.00996e-13 -6.35196e-14 0 0 -1.57819e-13 -2.96102e-13 4.74801e-13 -5.36136e-13 0 0 -3.17719e-13 -7.24791e-14 2.35051e-13 -2.12976e-13 0 0 -1.49669e-13 -5.67102e-14 -5.65249e-14 2.08797e-13 0 0 -8.76301e-14 -6.96376e-14 -1.55905e-13 3.77809e-13 0 0 -4.17736e-13 1.29392e-13 -9.11227e-14 2.28689e-13 0 0 -4.34171e-13 3.3737e-14 1.44972e-13 -6.49942e-14 0 0 -3.84522e-13 1.36742e-13 -2.33009e-13 1.48268e-13 0 0 -7.4274e-14 -2.68233e-13 -6.28557e-14 -2.93247e-15 0 0 -3.13917e-13 -1.34171e-13 -9.98034e-14 -1.27743e-13 0 0 -4.09534e-13 -2.68374e-13 7.65969e-14 -2.85956e-13 0 0 -3.07026e-13 -3.45028e-13 -4.58956e-14 -1.39224e-13 0 0 -5.32095e-13 5.38721e-14 -4.17816e-13 4.07722e-14 0 0 -2.83053e-13 -3.49314e-13 1.29423e-13 -4.83246e-13 0 0 -2.40882e-13 -7.99664e-14 -4.2946e-13 -2.3965e-13 0 0 -2.59137e-13 2.73636e-13 -1.04028e-12 1.15874e-13 0 0 -1.74853e-13 -1.85734e-13 -2.48303e-13 -4.65865e-13 0 0 -5.15475e-13 -1.65043e-13 1.21167e-14 -6.32835e-13 0 0 -3.76482e-13 -1.88549e-13 -3.64226e-13 -1.70802e-13 0 0 1.82765e-13 -6.85258e-13 -3.94421e-13 1.08668e-13 0 0 -7.57723e-14 -2.20414e-13 -5.59287e-13 -7.88197e-14 0 0 -3.77361e-13 -3.54753e-14 -1.38509e-13 -6.30975e-13 0 0 -4.68755e-13 -1.79459e-13 5.75252e-14 -6.90629e-13 0 0 -1.11982e-13 -1.81206e-13 -5.09059e-13 -7.60867e-15 0 0 4.13998e-13 -8.48154e-13 -6.18988e-13 5.72899e-13 0 0 -4.1877e-13 -2.06706e-14 -4.90175e-13 2.00654e-13 0 0 -3.97077e-13 -2.405e-13 7.36983e-13 -1.05366e-12 0 0 1.55929e-13 -6.64076e-13 5.61721e-13 -8.88966e-13 0 0 -8.96746e-13 1.0017e-12 -6.06229e-13 -3.64801e-13 0 0 -1.73779e-13 5.14245e-14 3.49618e-13 -9.34055e-13 0 0 3.46478e-13 -4.84402e-13 4.41014e-13 -9.14484e-13 0 0 2.345e-13 -3.00451e-13 -1.39091e-13 -1.80161e-13 0 0 -2.08285e-15 6.42277e-15 -9.78381e-13 5.41172e-13 0 0 -2.01465e-13 -3.64898e-14 -9.8222e-13 5.34271e-13 0 0 -2.82784e-13 -2.85519e-13 -6.48391e-13 2.19719e-13 0 0 -3.10144e-13 -5.68683e-13 -1.36949e-13 -3.44659e-13 0 0 -3.89245e-13 -5.79015e-13 -6.60779e-14 -5.24611e-13 0 0 -3.82901e-13 -4.64541e-13 -2.14489e-13 -3.50003e-13 0 0 -2.61418e-13 -2.92446e-13 -5.3593e-13 -7.08436e-14 0 0 -2.92702e-13 -1.38202e-13 -5.36522e-13 -4.08103e-14 0 0 -3.19908e-13 -1.67237e-13 -2.47762e-13 -2.26815e-13 0 0 -3.24976e-13 -1.46994e-13 -1.1757e-13 -4.18679e-13 0 0 -1.39264e-13 -1.41835e-13 -3.43664e-13 -2.4732e-13 0 0 4.40498e-14 -2.01104e-13 -4.73695e-13 -1.3114e-13 0 0 -6.07099e-14 -1.88237e-13 -4.31846e-13 -1.05357e-13 0 0 -3.41383e-13 -1.85635e-13 -1.61784e-13 -2.75183e-13 0 0 -3.76832e-13 -3.55217e-13 7.77006e-14 -4.66705e-13 0 0 -6.82504e-14 -5.38159e-13 -7.99355e-14 -3.53179e-13 0 0 -8.07342e-14 -2.18637e-13 -5.76492e-13 -1.39534e-13 0 0 -1.92209e-13 -2.00786e-13 -3.0888e-13 -4.16316e-13 0 0 -3.43785e-13 -1.98109e-13 -1.26685e-13 -4.42987e-13 0 0 -3.5312e-13 -2.908e-13 -1.4653e-13 -2.04838e-13 0 0 -9.50964e-14 -5.25408e-13 -6.64867e-14 -2.61736e-13 0 0 -2.28232e-13 -1.58323e-13 -5.24121e-13 -7.34339e-14 0 0 -3.55804e-13 -1.82137e-13 -3.61109e-13 -1.85336e-13 0 0 -5.46103e-13 -1.29068e-13 -2.71432e-13 -1.50608e-13 0 0 -6.20498e-13 -2.18571e-13 -9.63369e-14 -1.07006e-13 0 0 -3.01756e-13 -3.8679e-13 -1.46401e-13 -3.09627e-14 0 0 -2.84813e-13 -6.37035e-14 -6.97929e-13 1.60802e-13 0 0 -3.49365e-13 -2.68775e-13 -2.66379e-13 -3.78022e-13 0 0 -5.35643e-13 -2.49615e-13 -1.03282e-13 -4.82843e-13 0 0 -6.58642e-13 -2.38944e-13 -4.04651e-14 -3.06731e-13 0 0 -2.86778e-13 -4.70184e-13 -6.12147e-14 -2.27269e-13 0 0 -2.49673e-13 -1.8534e-13 -6.16278e-13 9.26257e-14 0 0 -3.65918e-13 -2.71492e-13 -3.32194e-13 -2.23157e-13 0 0 -5.47704e-13 -1.61047e-13 -2.07233e-13 -4.10327e-13 0 0 -6.25382e-13 -1.41701e-13 -1.64483e-13 -2.18303e-13 0 0 -1.9762e-13 -4.39573e-13 -1.01016e-13 -2.26373e-13 0 0 -1.6435e-13 -1.36118e-13 -6.64816e-13 -1.3483e-13 0 0 -3.95248e-13 -2.1139e-13 -4.71807e-13 -4.36172e-13 0 0 -3.79009e-13 -5.71415e-13 -2.8184e-13 -2.93733e-13 0 0 -3.2164e-13 -6.70801e-13 -3.59636e-13 5.95415e-14 0 0 -2.51663e-13 -6.60677e-13 9.04206e-15 -5.06788e-13 0 0 -2.14291e-13 -2.10093e-13 -5.40496e-13 -4.23607e-13 0 0 -1.64959e-13 -1.13039e-13 -7.18662e-13 -3.95349e-13 0 0 -4.61573e-13 -2.5833e-13 -1.69816e-13 -6.52328e-13 0 0 -7.11658e-13 -8.3009e-14 -4.39549e-13 -8.41769e-14 0 0 -2.7725e-13 -6.19693e-13 -1.07918e-13 6.41748e-15 0 0 -2.30357e-13 -5.45948e-13 -3.04481e-13 2.59465e-13 0 0 -4.01877e-13 -2.48492e-13 -6.23582e-13 4.95525e-13 0 0 -6.58916e-13 -2.46054e-13 -4.53908e-13 5.15706e-13 0 0 -7.45983e-13 -1.41488e-13 -7.76498e-13 8.76724e-13 0 0 -2.95174e-13 -7.60715e-13 -1.83473e-13 4.01596e-13 0 0 -4.32225e-13 -4.05378e-13 -2.6009e-13 1.65974e-14 0 0 -4.46457e-13 -1.67307e-13 -3.85003e-13 -2.40226e-13 0 0 -4.71354e-13 -2.94638e-13 -2.4953e-13 -3.33375e-13 0 0 -7.49005e-13 -2.84367e-13 -3.05543e-13 -1.16278e-13 0 0 -3.76131e-13 -6.69441e-13 -3.76647e-13 -9.89973e-14 0 0 -8.94546e-14 -6.06167e-13 -9.91541e-13 -6.82309e-15 0 0 -3.06182e-13 -3.96962e-13 -9.38757e-13 -4.73857e-13 0 0 -9.01972e-13 1.19363e-13 -6.88342e-13 -7.75373e-13 0 0 -9.50599e-13 3.9969e-14 -4.0382e-13 -4.53244e-13 0 0 -4.81521e-14 -7.74995e-13 -3.35837e-13 -4.36783e-14 0 0 3.22937e-13 -9.75899e-13 -6.38573e-13 -7.76898e-14 0 0 -1.9679e-13 -5.76503e-13 -6.15324e-13 -9.17773e-13 0 0 -9.07193e-13 9.51761e-14 -9.28463e-13 -1.35153e-12 0 0 -9.15688e-13 8.50311e-14 -1.20305e-12 -1.05712e-12 0 0 -2.49014e-13 -4.37959e-13 -1.15932e-12 -5.69785e-13 0 0 -1.33731e-13 -4.98952e-13 -9.285e-13 -4.3161e-13 0 0 -2.71445e-13 -7.09077e-13 -2.11011e-13 -9.73055e-13 0 0 -2.25317e-13 -7.98057e-13 -3.73915e-13 -8.70889e-13 0 0 -3.84976e-13 -5.78192e-13 -7.99117e-13 -6.45155e-13 0 0 -5.84275e-13 -4.00069e-13 -5.61072e-13 -1.30328e-12 0 0 -7.00122e-13 -1.48368e-14 -9.1486e-13 -1.25333e-12 0 0 -2.80555e-13 -4.91153e-13 -8.51157e-13 -7.67294e-13 0 0 5.22899e-14 -1.01374e-12 -5.42454e-13 -4.2181e-13 0 0 -2.97154e-13 -7.89585e-13 -4.57863e-13 -4.29843e-13 0 0 -5.68338e-13 -4.98562e-13 -3.06783e-13 -1.15991e-12 0 0 -6.50478e-13 2.45369e-17 -8.31408e-13 -1.28559e-12 0 0 -2.35871e-13 -5.92487e-13 -5.57373e-13 -1.07566e-12 0 0 1.25595e-13 -1.13853e-12 -5.36213e-13 -2.42742e-13 0 0 -2.12822e-13 -7.37194e-13 -8.92801e-13 1.66924e-13 0 0 -5.13297e-13 -4.90211e-13 -4.11844e-13 -8.90901e-13 0 0 -6.82587e-13 -2.23288e-14 -8.41321e-13 -9.12914e-13 0 0 -2.35069e-13 -6.4972e-13 -6.86298e-13 -5.78008e-13 0 0 7.96939e-14 -1.14826e-12 -5.23147e-13 -1.19961e-13 0 0 -4.22039e-13 -5.82212e-13 -8.50785e-13 1.55243e-13 0 0 -6.74356e-13 -3.73634e-13 -4.84202e-13 -8.97249e-13 0 0 -6.83366e-13 4.76257e-14 -1.12909e-12 -1.05065e-12 0 0 -1.78146e-13 -5.71888e-13 -1.06021e-12 -7.90291e-13 0 0 2.0442e-13 -1.15486e-12 -7.82584e-13 -3.21165e-13 0 0 -5.82226e-13 -3.20889e-13 -6.57015e-13 -3.93531e-13 0 0 -7.36551e-13 -6.156e-13 8.28963e-13 -1.9319e-12 0 0 -4.07331e-13 -5.55266e-13 -1.66079e-13 -1.22453e-12 0 0 -8.61108e-14 -4.57345e-13 -1.46337e-12 -1.36272e-14 0 0 -4.7184e-13 -3.98557e-13 -1.10164e-12 -4.54698e-13 0 0 -1.32187e-12 3.96489e-13 -1.14542e-12 -7.71538e-13 0 0 -5.7981e-13 -4.11269e-13 -5.53152e-13 -9.41998e-13 0 0 -3.34365e-14 -6.43674e-13 -1.13e-12 -8.92299e-15 0 0 -2.74738e-14 -8.94357e-13 -9.16271e-13 1.69585e-13 0 0 -5.69172e-13 -7.86506e-13 -3.62535e-13 -3.43087e-13 0 0 -1.28009e-12 1.36286e-13 -1.03324e-12 -8.59949e-14 0
				</DataArray>
				<DataArray Name="VitesseY" type="Float32" format="ascii">