<?xml version="1.0"?>
<VTKFile type="PolyData">
	<PolyData>
		<Piece NumberOfPoints="1206" NumberOfPolys="1000">
			<Points>
				<DataArray type="Float32" NumberOfComponents="3" format="ascii">
 0 0 0 0.02 0 0 0.04 0 0 0.06 0 0 0.08 0 0 0.1 0 0 0 0.005 0 0.02 0.005 0 0.04 0.005 0 0.06 0.005 0 0.08 0.005 0 0.1 0.005 0 0 0.01 0 0.02 0.01 0 0.04 0.01 0 0.06 0.01 0 0.08 0.01 0 0.1 0.01 0 0 0.015 0 0.02 0.015 0 0.04 0.015 0 0.06 0.015 0 0.08 0.015 0 0.1 0.015 0 0 0.02 0 0.02 0.02 0 0.04 0.02 0 0.06 0.02 0 0.08 0.02 0 0.1 0.02 0 0 0.025 0 0.02 0.025 0 0.04 0.025 0 0.06 0.025 0 0.08 0.025 0 0.1 0.025 0 0 0.03 0 0.02 0.03 0 0.04 0.03 0 0.06 0.03 0 0.08 0.03 0 0.1 0.03 0 0 0.035 0 0.02 0.035 0 0.04 0.035 0 0.06 0.035 0 0.08 0.035 0 0.1 0.035 0 0 0.04 0 0.02 0.04 0 0.04 0.04 0 0.06 0.04 0 0.08 0.04 0 0.1 0.04 0 0 0.045 0 0.02 0.045 0 0.04 0.045 0 0.06 0.045 0 0.08 0.045 0 0.1 0.045 0 0 0.05 0 0.02 0.05 0 0.04 0.05 0 0.06 0.05 0 0.08 0.05 0 0.1 0.05 0 0 0.055 0 0.02 0.055 0 0.04 0.055 0 0.06 0.055 0 0.08 0.055 0 0.1 0.055 0 0 0.06 0 0.02 0.06 0 0.04 0.06 0 0.06 0.06 0 0.08 0.06 0 0.1 0.06 0 0 0.065 0 0.02 0.065 0 0.04 0.065 0 0.06 0.065 0 0.08 0.065 0 0.1 0.065 0 0 0.07 0 0.02 0.07 0 0.04 0.07 0 0.06 0.07 0 0.08 0.07 0 0.1 0.07 0 0 0.075 0 0.02 0.075 0 0.04 0.075 0 0.06 0.075 0 0.08 0.075 0 0.1 0.075 0 0 0.08 0 0.02 0.08 0 0.04 0.08 0 0.06 0.08 0 0.08 0.08 0 0.1 0.08 0 0 0.085 0 0.02 0.085 0 0.04 0.085 0 0.06 0.085 0 0.08 0.085 0 0.1 0.085 0 0 0.09 0 0.02 0.09 0 0.04 0.09 0 0.06 0.09 0 0.08 0.09 0 0.1 0.09 0 0 0.095 0 0.02 0.095 0 0.04 0.095 0 0.06 0.095 0 0.08 0.095 0 0.1 0.095 0 0 0.1 0 0.02 0.1 0 0.04 0.1 0 0.06 0.1 0 0.08 0.1 0 0.1 0.1 0 0 0.105 0 0.02 0.105 0 0.04 0.105 0 0.06 0.105 0 0.08 0.105 0 0.1 0.105 0 0 0.11 0 0.02 0.11 0 0.04 0.11 0 0.06 0.11 0 0.08 0.11 0 0.1 0.11 0 0 0.115 0 0.02 0.115 0 0.04 0.115 0 0.06 0.115 0 0.08 0.115 0 0.1 0.115 0 0 0.12 0 0.02 0.12 0 0.04 0.12 0 0.06 0.12 0 0.08 0.12 0 0.1 0.12 0 0 0.125 0 0.02 0.125 0 0.04 0.125 0 0.06 0.125 0 0.08 0.125 0 0.1 0.125 0 0 0.13 0 0.02 0.13 0 0.04 0.13 0 0.06 0.13 0 0.08 0.13 0 0.1 0.13 0 0 0.135 0 0.02 0.135 0 0.04 0.135 0 0.06 0.135 0 0.08 0.135 0 0.1 0.135 0 0 0.14 0 0.02 0.14 0 0.04 0.14 0 0.06 0.14 0 0.08 0.14 0 0.1 0.14 0 0 0.145 0 0.02 0.145 0 0.04 0.145 0 0.06 0.145 0 0.08 0.145 0 0.1 0.145 0 0 0.15 0 0.02 0.15 0 0.04 0.15 0 0.06 0.15 0 0.08 0.15 0 0.1 0.15 0 0 0.155 0 0.02 0.155 0 0.04 0.155 0 0.06 0.155 0 0.08 0.155 0 0.1 0.155 0 0 0.16 0 0.02 0.16 0 0.04 0.16 0 0.06 0.16 0 0.08 0.16 0 0.1 0.16 0 0 0.165 0 0.02 0.165 0 0.04 0.165 0 0.06 0.165 0 0.08 0.165 0 0.1 0.165 0 0 0.17 0 0.02 0.17 0 0.04 0.17 0 0.06 0.17 0 0.08 0.17 0 0.1 0.17 0 0 0.175 0 0.02 0.175 0 0.04 0.175 0 0.06 0.175 0 0.08 0.175 0 0.1 0.175 0 0 0.18 0 0.02 0.18 0 0.04 0.18 0 0.06 0.18 0 0.08 0.18 0 0.1 0.18 0 0 0.185 0 0.02 0.185 0 0.04 0.185 0 0.06 0.185 0 0.08 0.185 0 0.1 0.185 0 0 0.19 0 0.02 0.19 0 0.04 0.19 0 0.06 0.19 0 0.08 0.19 0 0.1 0.19 0 0 0.195 0 0.02 0.195 0 0.04 0.195 0 0.06 0.195 0 0.08 0.195 0 0.1 0.195 0 0 0.2 0 0.02 0.2 0 0.04 0.2 0 0.06 0.2 0 0.08 0.2 0 0.1 0.2 0 0 0.205 0 0.02 0.205 0 0.04 0.205 0 0.06 0.205 0 0.08 0.205 0 0.1 0.205 0 0 0.21 0 0.02 0.21 0 0.04 0.21 0 0.06 0.21 0 0.08 0.21 0 0.1 0.21 0 0 0.215 0 0.02 0.215 0 0.04 0.215 0 0.06 0.215 0 0.08 0.215 0 0.1 0.215 0 0 0.22 0 0.02 0.22 0 0.04 0.22 0 0.06 0.22 0 0.08 0.22 0 0.1 0.22 0 0 0.225 0 0.02 0.225 0 0.04 0.225 0 0.06 0.225 0 0.08 0.225 0 0.1 0.225 0 0 0.23 0 0.02 0.23 0 0.04 0.23 0 0.06 0.23 0 0.08 0.23 0 0.1 0.23 0 0 0.235 0 0.02 0.235 0 0.04 0.235 0 0.06 0.235 0 0.08 0.235 0 0.1 0.235 0 0 0.24 0 0.02 0.24 0 0.04 0.24 0 0.06 0.24 0 0.08 0.24 0 0.1 0.24 0 0 0.245 0 0.02 0.245 0 0.04 0.245 0 0.06 0.245 0 0.08 0.245 0 0.1 0.245 0 0 0.25 0 0.02 0.25 0 0.04 0.25 0 0.06 0.25 0 0.08 0.25 0 0.1 0.25 0 0 0.255 0 0.02 0.255 0 0.04 0.255 0 0.06 0.255 0 0.08 0.255 0 0.1 0.255 0 0 0.26 0 0.02 0.26 0 0.04 0.26 0 0.06 0.26 0 0.08 0.26 0 0.1 0.26 0 0 0.265 0 0.02 0.265 0 0.04 0.265 0 0.06 0.265 0 0.08 0.265 0 0.1 0.265 0 0 0.27 0 0.02 0.27 0 0.04 0.27 0 0.06 0.27 0 0.08 0.27 0 0.1 0.27 0 0 0.275 0 0.02 0.275 0 0.04 0.275 0 0.06 0.275 0 0.08 0.275 0 0.1 0.275 0 0 0.28 0 0.02 0.28 0 0.04 0.28 0 0.06 0.28 0 0.08 0.28 0 0.1 0.28 0 0 0.285 0 0.02 0.285 0 0.04 0.285 0 0.06 0.285 0 0.08 0.285 0 0.1 0.285 0 0 0.29 0 0.02 0.29 0 0.04 0.29 0 0.06 0.29 0 0.08 0.29 0 0.1 0.29 0 0 0.295 0 0.02 0.295 0 0.04 0.295 0 0.06 0.295 0 0.08 0.295 0 0.1 0.295 0 0 0.3 0 0.02 0.3 0 0.04 0.3 0 0.06 0.3 0 0.08 0.3 0 0.1 0.3 0 0 0.305 0 0.02 0.305 0 0.04 0.305 0 0.06 0.305 0 0.08 0.305 0 0.1 0.305 0 0 0.31 0 0.02 0.31 0 0.04 0.31 0 0.06 0.31 0 0.08 0.31 0 0.1 0.31 0 0 0.315 0 0.02 0.315 0 0.04 0.315 0 0.06 0.315 0 0.08 0.315 0 0.1 0.315 0 0 0.32 0 0.02 0.32 0 0.04 0.32 0 0.06 0.32 0 0.08 0.32 0 0.1 0.32 0 0 0.325 0 0.02 0.325 0 0.04 0.325 0 0.06 0.325 0 0.08 0.325 0 0.1 0.325 0 0 0.33 0 0.02 0.33 0 0.04 0.33 0 0.06 0.33 0 0.08 0.33 0 0.1 0.33 0 0 0.335 0 0.02 0.335 0 0.04 0.335 0 0.06 0.335 0 0.08 0.335 0 0.1 0.335 0 0 0.34 0 0.02 0.34 0 0.04 0.34 0 0.06 0.34 0 0.08 0.34 0 0.1 0.34 0 0 0.345 0 0.02 0.345 0 0.04 0.345 0 0.06 0.345 0 0.08 0.345 0 0.1 0.345 0 0 0.35 0 0.02 0.35 0 0.04 0.35 0 0.06 0.35 0 0.08 0.35 0 0.1 0.35 0 0 0.355 0 0.02 0.355 0 0.04 0.355 0 0.06 0.355 0 0.08 0.355 0 0.1 0.355 0 0 0.36 0 0.02 0.36 0 0.04 0.36 0 0.06 0.36 0 0.08 0.36 0 0.1 0.36 0 0 0.365 0 0.02 0.365 0 0.04 0.365 0 0.06 0.365 0 0.08 0.365 0 0.1 0.365 0 0 0.37 0 0.02 0.37 0 0.04 0.37 0 0.06 0.37 0 0.08 0.37 0 0.1 0.37 0 0 0.375 0 0.02 0.375 0 0.04 0.375 0 0.06 0.375 0 0.08 0.375 0 0.1 0.375 0 0 0.38 0 0.02 0.38 0 0.04 0.38 0 0.06 0.38 0 0.08 0.38 0 0.1 0.38 0 0 0.385 0 0.02 0.385 0 0.04 0.385 0 0.06 0.385 0 0.08 0.385 0 0.1 0.385 0 0 0.39 0 0.02 0.39 0 0.04 0.39 0 0.06 0.39 0 0.08 0.39 0 0.1 0.39 0 0 0.395 0 0.02 0.395 0 0.04 0.395 0 0.06 0.395 0 0.08 0.395 0 0.1 0.395 0 0 0.4 0 0.02 0.4 0 0.04 0.4 0 0.06 0.4 0 0.08 0.4 0 0.1 0.4 0 0 0.405 0 0.02 0.405 0 0.04 0.405 0 0.06 0.405 0 0.08 0.405 0 0.1 0.405 0 0 0.41 0 0.02 0.41 0 0.04 0.41 0 0.06 0.41 0 0.08 0.41 0 0.1 0.41 0 0 0.415 0 0.02 0.415 0 0.04 0.415 0 0.06 0.415 0 0.08 0.415 0 0.1 0.415 0 0 0.42 0 0.02 0.42 0 0.04 0.42 0 0.06 0.42 0 0.08 0.42 0 0.1 0.42 0 0 0.425 0 0.02 0.425 0 0.04 0.425 0 0.06 0.425 0 0.08 0.425 0 0.1 0.425 0 0 0.43 0 0.02 0.43 0 0.04 0.43 0 0.06 0.43 0 0.08 0.43 0 0.1 0.43 0 0 0.435 0 0.02 0.435 0 0.04 0.435 0 0.06 0.435 0 0.08 0.435 0 0.1 0.435 0 0 0.44 0 0.02 0.44 0 0.04 0.44 0 0.06 0.44 0 0.08 0.44 0 0.1 0.44 0 0 0.445 0 0.02 0.445 0 0.04 0.445 0 0.06 0.445 0 0.08 0.445 0 0.1 0.445 0 0 0.45 0 0.02 0.45 0 0.04 0.45 0 0.06 0.45 0 0.08 0.45 0 0.1 0.45 0 0 0.455 0 0.02 0.455 0 0.04 0.455 0 0.06 0.455 0 0.08 0.455 0 0.1 0.455 0 0 0.46 0 0.02 0.46 0 0.04 0.46 0 0.06 0.46 0 0.08 0.46 0 0.1 0.46 0 0 0.465 0 0.02 0.465 0 0.04 0.465 0 0.06 0.465 0 0.08 0.465 0 0.1 0.465 0 0 0.47 0 0.02 0.47 0 0.04 0.47 0 0.06 0.47 0 0.08 0.47 0 0.1 0.47 0 0 0.475 0 0.02 0.475 0 0.04 0.475 0 0.06 0.475 0 0.08 0.475 0 0.1 0.475 0 0 0.48 0 0.02 0.48 0 0.04 0.48 0 0.06 0.48 0 0.08 0.48 0 0.1 0.48 0 0 0.485 0 0.02 0.485 0 0.04 0.485 0 0.06 0.485 0 0.08 0.485 0 0.1 0.485 0 0 0.49 0 0.02 0.49 0 0.04 0.49 0 0.06 0.49 0 0.08 0.49 0 0.1 0.49 0 0 0.495 0 0.02 0.495 0 0.04 0.495 0 0.06 0.495 0 0.08 0.495 0 0.1 0.495 0 0 0.5 0 0.02 0.5 0 0.04 0.5 0 0.06 0.5 0 0.08 0.5 0 0.1 0.5 0 0 0.505 0 0.02 0.505 0 0.04 0.505 0 0.06 0.505 0 0.08 0.505 0 0.1 0.505 0 0 0.51 0 0.02 0.51 0 0.04 0.51 0 0.06 0.51 0 0.08 0.51 0 0.1 0.51 0 0 0.515 0 0.02 0.515 0 0.04 0.515 0 0.06 0.515 0 0.08 0.515 0 0.1 0.515 0 0 0.52 0 0.02 0.52 0 0.04 0.52 0 0.06 0.52 0 0.08 0.52 0 0.1 0.52 0 0 0.525 0 0.02 0.525 0 0.04 0.525 0 0.06 0.525 0 0.08 0.525 0 0.1 0.525 0 0 0.53 0 0.02 0.53 0 0.04 0.53 0 0.06 0.53 0 0.08 0.53 0 0.1 0.53 0 0 0.535 0 0.02 0.535 0 0.04 0.535 0 0.06 0.535 0 0.08 0.535 0 0.1 0.535 0 0 0.54 0 0.02 0.54 0 0.04 0.54 0 0.06 0.54 0 0.08 0.54 0 0.1 0.54 0 0 0.545 0 0.02 0.545 0 0.04 0.545 0 0.06 0.545 0 0.08 0.545 0 0.1 0.545 0 0 0.55 0 0.02 0.55 0 0.04 0.55 0 0.06 0.55 0 0.08 0.55 0 0.1 0.55 0 0 0.555 0 0.02 0.555 0 0.04 0.555 0 0.06 0.555 0 0.08 0.555 0 0.1 0.555 0 0 0.56 0 0.02 0.56 0 0.04 0.56 0 0.06 0.56 0 0.08 0.56 0 0.1 0.56 0 0 0.565 0 0.02 0.565 0 0.04 0.565 0 0.06 0.565 0 0.08 0.565 0 0.1 0.565 0 0 0.57 0 0.02 0.57 0 0.04 0.57 0 0.06 0.57 0 0.08 0.57 0 0.1 0.57 0 0 0.575 0 0.02 0.575 0 0.04 0.575 0 0.06 0.575 0 0.08 0.575 0 0.1 0.575 0 0 0.58 0 0.02 0.58 0 0.04 0.58 0 0.06 0.58 0 0.08 0.58 0 0.1 0.58 0 0 0.585 0 0.02 0.585 0 0.04 0.585 0 0.06 0.585 0 0.08 0.585 0 0.1 0.585 0 0 0.59 0 0.02 0.59 0 0.04 0.59 0 0.06 0.59 0 0.08 0.59 0 0.1 0.59 0 0 0.595 0 0.02 0.595 0 0.04 0.595 0 0.06 0.595 0 0.08 0.595 0 0.1 0.595 0 0 0.6 0 0.02 0.6 0 0.04 0.6 0 0.06 0.6 0 0.08 0.6 0 0.1 0.6 0 0 0.605 0 0.02 0.605 0 0.04 0.605 0 0.06 0.605 0 0.08 0.605 0 0.1 0.605 0 0 0.61 0 0.02 0.61 0 0.04 0.61 0 0.06 0.61 0 0.08 0.61 0 0.1 0.61 0 0 0.615 0 0.02 0.615 0 0.04 0.615 0 0.06 0.615 0 0.08 0.615 0 0.1 0.615 0 0 0.62 0 0.02 0.62 0 0.04 0.62 0 0.06 0.62 0 0.08 0.62 0 0.1 0.62 0 0 0.625 0 0.02 0.625 0 0.04 0.625 0 0.06 0.625 0 0.08 0.625 0 0.1 0.625 0 0 0.63 0 0.02 0.63 0 0.04 0.63 0 0.06 0.63 0 0.08 0.63 0 0.1 0.63 0 0 0.635 0 0.02 0.635 0 0.04 0.635 0 0.06 0.635 0 0.08 0.635 0 0.1 0.635 0 0 0.64 0 0.02 0.64 0 0.04 0.64 0 0.06 0.64 0 0.08 0.64 0 0.1 0.64 0 0 0.645 0 0.02 0.645 0 0.04 0.645 0 0.06 0.645 0 0.08 0.645 0 0.1 0.645 0 0 0.65 0 0.02 0.65 0 0.04 0.65 0 0.06 0.65 0 0.08 0.65 0 0.1 0.65 0 0 0.655 0 0.02 0.655 0 0.04 0.655 0 0.06 0.655 0 0.08 0.655 0 0.1 0.655 0 0 0.66 0 0.02 0.66 0 0.04 0.66 0 0.06 0.66 0 0.08 0.66 0 0.1 0.66 0 0 0.665 0 0.02 0.665 0 0.04 0.665 0 0.06 0.665 0 0.08 0.665 0 0.1 0.665 0 0 0.67 0 0.02 0.67 0 0.04 0.67 0 0.06 0.67 0 0.08 0.67 0 0.1 0.67 0 0 0.675 0 0.02 0.675 0 0.04 0.675 0 0.06 0.675 0 0.08 0.675 0 0.1 0.675 0 0 0.68 0 0.02 0.68 0 0.04 0.68 0 0.06 0.68 0 0.08 0.68 0 0.1 0.68 0 0 0.685 0 0.02 0.685 0 0.04 0.685 0 0.06 0.685 0 0.08 0.685 0 0.1 0.685 0 0 0.69 0 0.02 0.69 0 0.04 0.69 0 0.06 0.69 0 0.08 0.69 0 0.1 
[...]
			<PointData Scalars="VitesseX">
				<DataArray Name="VitesseX" type="Float32" format="ascii">
 0 3.25202e-14 1.43299e-14 1.08899e-14 4.45819e-14 0 0 2.41378e-14 2.34526e-14 1.10136e-14 3.67409e-14 0 0 2.30653e-14 1.8389e-14 3.36853e-14 7.07571e-15 0 0 4.54759e-15 4.46805e-14 2.0814e-14 1.96204e-15 0 0 4.41314e-15 5.59558e-14 -1.43852e-15 1.47991e-14 0 0 5.03046e-14 4.29317e-15 3.10978e-14 -4.65138e-15 0 0 5.86104e-14 -2.04211e-15 3.67538e-14 -1.83518e-14 0 0 4.38105e-14 1.78615e-14 1.39185e-14 -1.02449e-14 0 0 3.92064e-14 3.08022e-14 -1.78804e-14 1.48705e-14 0 0 2.57309e-14 4.61122e-14 -4.1528e-14 3.9274e-14 0 0 2.29454e-15 8.17784e-14 -6.85797e-14 5.3476e-14 0 0 2.86277e-14 4.25981e-14 -9.91487e-15 7.36634e-15 0 0 1.42386e-14 5.26362e-14 6.22569e-15 -5.28357e-15 0 0 2.1487e-14 4.78536e-14 1.6451e-14 -3.68011e-15 0 0 4.36962e-14 2.05651e-14 4.11417e-14 -7.8409e-15 0 0 7.7207e-15 7.26418e-14 -2.79524e-15 1.15761e-14 0 0 4.16647e-14 3.57482e-14 2.82566e-14 -4.06865e-14 0 0 2.29417e-14 8.84407e-14 -5.74918e-14 9.56724e-15 0 0 2.0226e-14 8.30673e-14 -7.60822e-14 7.05669e-14 0 0 4.44751e-14 1.80947e-14 -7.27908e-15 6.17646e-14 0 0 3.2151e-14 3.34457e-14 -6.11054e-15 6.56775e-14 0 0 3.23087e-14 5.56395e-14 -1.88138e-14 6.93822e-14 0 0 5.27649e-14 4.50004e-14 -9.8125e-15 7.97008e-14 0 0 6.78921e-14 4.67512e-14 -1.38091e-14 9.82532e-14 0 0 5.44457e-14 8.57828e-14 -4.13208e-14 1.06427e-13 0 0 6.16415e-14 6.64754e-14 2.49006e-14 5.44157e-14 0 0 6.79672e-14 6.41063e-14 6.11561e-14 4.89766e-15 0 0 6.41766e-14 9.31731e-14 1.65735e-14 1.19933e-14 0 0 5.33542e-14 9.42539e-14 9.79225e-15 1.32262e-14 0 0 5.15514e-14 6.6692e-14 4.56778e-14 -2.27456e-14 0 0 8.81447e-14 -1.23069e-14 1.27744e-13 -8.66567e-14 0 0 8.4221e-14 9.36423e-15 7.61896e-14 -3.63387e-14 0 0 4.70572e-14 9.60419e-14 -5.76017e-14 9.32209e-14 0 0 6.19398e-14 6.08899e-14 -5.20492e-14 1.27558e-13 0 0 8.90035e-14 -8.03953e-15 2.52711e-14 5.83747e-14 0 0 9.86163e-14 -3.82681e-14 7.4788e-14 -3.46637e-15 0 0 6.39603e-14 2.77578e-14 1.33986e-15 5.01865e-14 0 0 7.07288e-14 1.71965e-14 -3.00604e-15 5.8524e-14 0 0 1.40881e-15 1.06681e-13 -8.4391e-14 8.84414e-14 0 0 1.21347e-14 8.90304e-14 -3.60657e-14 1.93281e-14 0 0 1.20225e-13 -3.75444e-14 1.02327e-13 -9.18192e-14 0 0 1.33149e-13 2.37032e-14 1.21713e-14 -2.24385e-14 0 0 2.23985e-13 -3.01075e-14 3.67268e-14 2.0645e-15 0 0 2.6778e-13 -7.47669e-14 1.2539e-13 -4.3229e-14 0 0 2.20159e-13 -3.18984e-14 1.19117e-13 -3.04654e-14 0 0 1.63767e-13 4.746e-14 -2.78328e-15 9.59844e-14 0 0 6.16179e-14 1.79089e-13 -1.45448e-13 2.22598e-13 0 0 1.16038e-13 3.62225e-14 2.77172e-15 1.70173e-13 0 0 2.24911e-13 -1.48615e-13 1.9008e-13 6.76376e-14 0 0 2.55834e-13 -2.04364e-13 2.31874e-13 5.57091e-14 0 0 2.62072e-13 -2.38372e-13 2.2721e-13 8.8686e-14 0 0 1.5292e-13 -4.85244e-14 1.79319e-14 2.39108e-13 0 0 1.95656e-13 -8.74831e-14 2.8915e-14 2.28627e-13 0 0 1.42938e-13 1.67622e-14 -9.83822e-14 2.5555e-13 0 0 7.87376e-14 1.05471e-13 -1.33977e-13 1.65648e-13 0 0 1.84312e-13 -1.02177e-13 1.34277e-13 -7.60231e-14 0 0 6.66234e-14 7.72553e-14 -7.72689e-14 1.03479e-13 0 0 1.08617e-13 3.47396e-14 -2.71458e-17 7.97479e-14 0 0 1.60517e-13 -2.26364e-14 1.21435e-13 -1.82074e-14 0 0 1.0868e-13 7.62321e-14 1.54829e-14 -5.07375e-16 0 0 1.17303e-13 1.01863e-13 -1.76504e-14 -3.72927e-14 0 0 1.5959e-13 1.24414e-13 -1.02415e-13 3.32786e-14 0 0 2.43885e-13 2.48839e-14 -2.27697e-14 1.58606e-14 0 0 1.7816e-13 6.59088e-14 1.2491e-16 -1.07779e-14 0 0 1.41127e-13 7.49424e-14 2.42702e-14 -2.89087e-14 0 0 1.36022e-13 1.33512e-13 -7.0269e-14 -3.00901e-14 0 0 1.22891e-13 2.47897e-13 -2.94963e-13 8.3848e-14 0 0 2.0125e-13 8.9568e-14 -1.53777e-13 5.42652e-14 0 0 2.84682e-13 -9.10009e-14 9.02301e-14 -6.70784e-14 0 0 2.55547e-13 -3.04447e-14 4.99495e-14 2.37118e-14 0 0 2.53564e-13 -2.10561e-14 5.32384e-14 1.4273e-13 0 0 2.27919e-13 9.91381e-14 -4.97713e-14 2.83435e-13 0 0 3.38948e-13 5.06356e-14 1.69705e-14 2.51303e-13 0 0 2.85884e-13 2.20602e-13 -1.18491e-13 3.4275e-13 0 0 3.94728e-13 9.76926e-14 3.98135e-14 2.72576e-13 0 0 3.64099e-13 -1.16936e-14 2.7133e-13 1.64577e-13 0 0 -2.04464e-14 4.49332e-13 -2.22534e-14 4.06785e-13 0 0 3.22364e-13 -1.42669e-14 4.37961e-13 2.42644e-13 0 0 2.91434e-13 8.28813e-14 3.775e-13 3.07974e-13 0 0 3.89339e-13 -2.27484e-14 5.39327e-13 8.92803e-14 0 0 3.80455e-13 1.66894e-13 2.72786e-13 1.36205e-13 0 0 -1.80896e-14 8.24196e-13 -2.99644e-13 4.39511e-13 0 0 2.46571e-13 1.15811e-13 6.89493e-13 -2.24102e-13 0 0 2.15909e-14 4.02046e-13 5.3707e-13 -6.42822e-14 0 0 -2.56129e-13 1.25257e-12 -2.46836e-13 4.81828e-13 0 0 3.70634e-13 6.25206e-13 2.89123e-13 1.59157e-13 0 0 8.83535e-13 7.03058e-15 7.28564e-13 6.99282e-15 0 0 5.9556e-13 5.90554e-13 2.7877e-13 1.69996e-13 0 0 4.07707e-13 6.61745e-13 3.92511e-13 -9.74856e-14 0 0 1.29678e-13 6.8409e-13 6.65875e-13 -3.50155e-13 0 0 -1.24017e-13 8.03089e-13 5.52577e-13 -2.31483e-13 0 0 -6.67948e-14 6.53085e-13 5.51628e-13 -1.04005e-13 0 0 2.23947e-13 4.21544e-13 5.03838e-13 1.63274e-14 0 0 4.52806e-13 3.61426e-13 2.71925e-13 1.69861e-13 0 0 4.5672e-13 4.25604e-13 3.16807e-14 3.35677e-13 0 0 5.33479e-13 3.69711e-13 1.35695e-14 3.26339e-13 0 0 6.73805e-13 7.94324e-14 1.36892e-13 2.91535e-13 0 0 6.78565e-13 -1.87911e-14 2.2834e-13 2.93247e-13 0 0 6.90995e-13 -6.49261e-14 2.45869e-13 3.55585e-13 0 0 5.96042e-13 -6.08831e-14 2.5566e-13 4.3761e-13 0 0 2.36764e-13 7.72932e-14 1.82101e-13 4.87193e-13 0 0 -1.1308e-13 2.25481e-13 -8.58625e-14 5.2546e-13 0 0 -2.67967e-13 2.49489e-13 -1.80785e-13 5.14297e-13 0 0 -2.8986e-13 2.5149e-13 -1.72578e-13 4.76735e-13 0 0 -1.83526e-13 1.38251e-13 -1.25981e-13 3.82148e-13 0 0 1.35126e-13 -2.07521e-13 1.0586e-13 2.46506e-13 0 0 3.54241e-13 -4.03956e-13 4.08439e-13 8.00232e-14 0 0 4.0232e-13 -4.18759e-13 4.43778e-13 5.64567e-14 0 0 3.87606e-13 -3.43486e-13 3.72495e-13 1.23856e-13 0 0 2.61393e-13 -7.8549e-14 2.02253e-13 2.88266e-13 0 0 1.16529e-13 7.29202e-14 1.58254e-13 3.63893e-13 0 0 8.66222e-14 5.65489e-14 2.16333e-13 3.21881e-13 0 0 8.01965e-14 -7.16631e-16 3.98065e-13 1.95731e-13 0 0 7.38512e-14 -2.46253e-14 3.98517e-13 1.8673e-13 0 0 6.60926e-14 6.94326e-15 3.76698e-13 1.76049e-13 0 0 6.47936e-14 1.24737e-14 3.76667e-13 1.25406e-13 0 0 4.89427e-14 5.77694e-14 2.9684e-13 9.20502e-14 0 0 3.12094e-14 1.99428e-13 8.81303e-14 1.53135e-13 0 0 4.79105e-14 2.30361e-13 4.03106e-14 2.13554e-13 0 0 1.10678e-13 1.74218e-13 1.13579e-13 9.83435e-14 0 0 1.66399e-13 1.17203e-13 1.4418e-13 -5.19438e-14 0 0 1.63775e-13 1.35919e-13 7.82066e-14 -6.82393e-14 0 0 1.38922e-13 2.06354e-13 -3.72469e-14 -5.13784e-14 0 0 1.34772e-13 1.65634e-13 -2.22476e-14 -1.32001e-14 0 0 1.0043e-13 1.22658e-13 9.9817e-14 2.19183e-14 0 0 5.82542e-14 1.95063e-13 7.28146e-14 5.38319e-14 0 0 1.50732e-13 1.20084e-13 1.50265e-13 -9.09859e-15 0 0 1.65704e-13 9.38271e-14 2.05918e-13 4.0022e-14 0 0 1.87831e-13 1.08109e-13 1.77566e-13 1.58978e-13 0 0 1.99463e-13 1.77826e-13 1.40894e-13 1.6232e-13 0 0 1.51408e-13 2.82974e-13 1.03482e-13 1.18222e-13 0 0 2.55476e-13 1.65547e-13 1.68179e-13 1.08227e-13 0 0 2.9416e-13 1.66157e-13 1.61127e-13 1.28858e-13 0 0 2.9783e-13 1.92454e-13 1.98418e-13 7.01399e-14 0 0 2.28536e-13 2.93558e-13 1.79203e-13 1.13675e-13 0 0 2.17828e-13 3.54948e-13 1.75817e-13 1.71328e-13 0 0 3.05427e-13 3.0291e-13 2.64934e-13 1.10754e-13 0 0 3.28272e-13 3.01552e-13 2.9329e-13 1.57609e-13 0 0 3.77459e-13 2.21102e-13 3.58862e-13 2.65448e-13 0 0 3.83093e-13 2.30788e-13 3.86707e-13 2.5208e-13 0 0 3.75378e-13 3.22369e-13 2.96865e-13 2.69467e-13 0 0 4.03424e-13 3.64159e-13 1.72686e-13 3.85012e-13 0 0 4.16932e-13 4.63866e-13 1.77156e-14 4.55477e-13 0 0 4.84264e-13 3.92371e-13 1.83852e-13 2.24892e-13 0 0 4.15712e-13 4.42215e-13 2.17877e-13 1.01984e-13 0 0 2.54455e-13 7.11872e-13 -1.18774e-13 2.94787e-13 0 0 5.0709e-13 2.80573e-13 1.66129e-13 2.01236e-13 0 0 6.22571e-13 3.21771e-14 3.10287e-13 9.82482e-14 0 0 5.24033e-13 1.55592e-13 1.70527e-13 7.46349e-14 0 0 3.50395e-13 4.61738e-13 -1.9095e-13 2.41613e-13 0 0 2.3742e-13 7.0312e-13 -4.55362e-13 3.16218e-13 0 0 6.28326e-13 9.14588e-14 1.28613e-13 6.06447e-14 0 0 6.00181e-13 1.08033e-13 1.97858e-13 4.8745e-14 0 0 3.26491e-13 3.64702e-13 2.09444e-13 -7.82611e-14 0 0 1.94863e-13 4.50005e-13 2.63822e-13 -1.60602e-13 0 0 3.11903e-13 4.42955e-13 -4.07033e-15 1.67312e-13 0 0 6.03804e-13 2.38311e-14 2.74447e-13 1.0196e-13 0 0 4.88854e-13 5.03898e-14 4.75749e-13 -1.8594e-13 0 0 2.04429e-13 3.23507e-13 3.98551e-13 -2.31099e-13 0 0 -2.32417e-13 8.29186e-13 3.93883e-14 6.84849e-14 0 0 -8.48807e-14 5.66492e-13 1.74566e-13 2.54887e-13 0 0 4.71221e-13 -2.54465e-13 8.05985e-13 1.99812e-14 0 0 4.58919e-13 -2.33218e-13 8.04644e-13 -5.62606e-14 0 0 7.94211e-14 3.83461e-13 1.46767e-13 3.95643e-13 0 0 -2.84665e-13 8.75736e-13 -2.37337e-13 6.31451e-13 0 0 -3.15106e-13 7.45617e-13 3.31519e-14 3.95139e-13 0 0 4.17907e-14 1.3026e-13 4.91104e-13 1.38107e-13 0 0 2.60395e-13 -2.64339e-13 7.81862e-13 -4.13888e-14 0 0 3.48118e-13 -4.18393e-13 9.00078e-13 -5.90122e-14 0 0 1.15153e-13 -4.55454e-14 6.67174e-13 4.13896e-14 0 0 -2.299e-13 3.95151e-13 4.53957e-13 1.11726e-13 0 0 -8.27162e-14 2.76336e-13 3.39536e-13 2.44953e-13 0 0 1.92635e-14 1.4431e-13 3.12456e-13 2.72018e-13 0 0 1.89765e-13 -1.40528e-13 4.92274e-13 2.45707e-13 0 0 2.82158e-13 -1.10326e-13 2.55557e-13 4.24052e-13 0 0 2.02558e-13 -9.57172e-14 4.33637e-13 6.53651e-14 0 0 3.56273e-14 1.61116e-14 5.47271e-13 -2.44525e-13 0 0 -1.07352e-13 3.79281e-13 6.34154e-14 2.97844e-14 0 0 2.65303e-13 -5.29621e-14 2.84205e-13 -4.41957e-14 0 0 4.75372e-13 -3.55018e-13 4.19533e-13 -1.84569e-13 0 0 3.32089e-13 -1.16629e-13 1.9017e-13 -1.59765e-13 0 0 6.68185e-14 2.44227e-13 4.81053e-14 -8.87501e-14 0 0 -1.75849e-13 5.40074e-13 -1.46327e-13 8.89732e-14 0 0 8.95614e-14 1.84939e-13 9.05664e-14 1.86195e-13 0 0 3.08292e-13 -2.86507e-14 1.25556e-13 3.43488e-13 0 0 2.68543e-13 6.96623e-14 2.77008e-14 2.44629e-13 0 0 3.11931e-13 8.45749e-14 -9.39414e-14 2.9401e-13 0 0 1.95495e-13 2.05485e-13 -1.66723e-13 2.863e-13 0 0 2.44894e-13 1.15643e-13 1.52778e-13 -1.10962e-13 0 0 6.0029e-13 -1.98152e-13 5.1139e-13 -4.05931e-13 0 0 5.3076e-13 -2.40949e-14 3.29633e-13 -3.20695e-13 0 0 4.44009e-13 7.54756e-14 6.74335e-14 3.8675e-14 0 0 5.20971e-13 4.40699e-14 1.33553e-13 4.46225e-14 0 0 6.10775e-13 -1.77141e-13 4.99912e-13 -2.09559e-13 0 0 4.53002e-13 3.38122e-14 2.30234e-13 6.90467e-14 0 0 6.17338e-14 8.35669e-13 -7.40375e-13 7.23617e-13 0 0 4.6575e-13 3.42308e-13 -4.59429e-13 7.07057e-13 0 0 1.08633e-12 -5.53435e-13 2.69763e-13 3.81534e-13 0 0 8.62047e-13 -2.38938e-13 -1.74235e-14 5.825e-13 0 0 1.37255e-13 8.26008e-13 -9.00056e-13 1.09683e-12 0 0 -2.22137e-13 1.37504e-12 -1.41214e-12 1.41806e-12 0
				</DataArray>
				<DataArray Name="VitesseY" type="Float32" format="ascii">