<?xml version="1.0"?>
<VTKFile type="PolyData">
	<PolyData>
		<Piece NumberOfPoints="1206" NumberOfPolys="1000">
			<Points>
				<DataArray type="Float32" NumberOfComponents="3" format="ascii">
 0 0 0 0.02 0 0 0.04 0 0 0.06 0 0 0.08 0 0 0.1 0 0 0 0.005 0 0.02 0.005 0 0.04 0.005 0 0.06 0.005 0 0.08 0.005 0 0.1 0.005 0 0 0.01 0 0.02 0.01 0 0.04 0.01 0 0.06 0.01 0 0.08 0.01 0 0.1 0.01 0 0 0.015 0 0.02 0.015 0 0.04 0.015 0 0.06 0.015 0 0.08 0.015 0 0.1 0.015 0 0 0.02 0 0.02 0.02 0 0.04 0.02 0 0.06 0.02 0 0.08 0.02 0 0.1 0.02 0 0 0.025 0 0.02 0.025 0 0.04 0.025 0 0.06 0.025 0 0.08 0.025 0 0.1 0.025 0 0 0.03 0 0.02 0.03 0 0.04 0.03 0 0.06 0.03 0 0.08 0.03 0 0.1 0.03 0 0 0.035 0 0.02 0.035 0 0.04 0.035 0 0.06 0.035 0 0.08 0.035 0 0.1 0.035 0 0 0.04 0 0.02 0.04 0 0.04 0.04 0 0.06 0.04 0 0.08 0.04 0 0.1 0.04 0 0 0.045 0 0.02 0.045 0 0.04 0.045 0 0.06 0.045 0 0.08 0.045 0 0.1 0.045 0 0 0.05 0 0.02 0.05 0 0.04 0.05 0 0.06 0.05 0 0.08 0.05 0 0.1 0.05 0 0 0.055 0 0.02 0.055 0 0.04 0.055 0 0.06 0.055 0 0.08 0.055 0 0.1 0.055 0 0 0.06 0 0.02 0.06 0 0.04 0.06 0 0.06 0.06 0 0.08 0.06 0 0.1 0.06 0 0 0.065 0 0.02 0.065 0 0.04 0.065 0 0.06 0.065 0 0.08 0.065 0 0.1 0.065 0 0 0.07 0 0.02 0.07 0 0.04 0.07 0 0.06 0.07 0 0.08 0.07 0 0.1 0.07 0 0 0.075 0 0.02 0.075 0 0.04 0.075 0 0.06 0.075 0 0.08 0.075 0 0.1 0.075 0 0 0.08 0 0.02 0.08 0 0.04 0.08 0 0.06 0.08 0 0.08 0.08 0 0.1 0.08 0 0 0.085 0 0.02 0.085 0 0.04 0.085 0 0.06 0.085 0 0.08 0.085 0 0.1 0.085 0 0 0.09 0 0.02 0.09 0 0.04 0.09 0 0.06 0.09 0 0.08 0.09 0 0.1 0.09 0 0 0.095 0 0.02 0.095 0 0.04 0.095 0 0.06 0.095 0 0.08 0.095 0 0.1 0.095 0 0 0.1 0 0.02 0.1 0 0.04 0.1 0 0.06 0.1 0 0.08 0.1 0 0.1 0.1 0 0 0.105 0 0.02 0.105 0 0.04 0.105 0 0.06 0.105 0 0.08 0.105 0 0.1 0.105 0 0 0.11 0 0.02 0.11 0 0.04 0.11 0 0.06 0.11 0 0.08 0.11 0 0.1 0.11 0 0 0.115 0 0.02 0.115 0 0.04 0.115 0 0.06 0.115 0 0.08 0.115 0 0.1 0.115 0 0 0.12 0 0.02 0.12 0 0.04 0.12 0 0.06 0.12 0 0.08 0.12 0 0.1 0.12 0 0 0.125 0 0.02 0.125 0 0.04 0.125 0 0.06 0.125 0 0.08 0.125 0 0.1 0.125 0 0 0.13 0 0.02 0.13 0 0.04 0.13 0 0.06 0.13 0 0.08 0.13 0 0.1 0.13 0 0 0.135 0 0.02 0.135 0 0.04 0.135 0 0.06 0.135 0 0.08 0.135 0 0.1 0.135 0 0 0.14 0 0.02 0.14 0 0.04 0.14 0 0.06 0.14 0 0.08 0.14 0 0.1 0.14 0 0 0.145 0 0.02 0.145 0 0.04 0.145 0 0.06 0.145 0 0.08 0.145 0 0.1 0.145 0 0 0.15 0 0.02 0.15 0 0.04 0.15 0 0.06 0.15 0 0.08 0.15 0 0.1 0.15 0 0 0.155 0 0.02 0.155 0 0.04 0.155 0 0.06 0.155 0 0.08 0.155 0 0.1 0.155 0 0 0.16 0 0.02 0.16 0 0.04 0.16 0 0.06 0.16 0 0.08 0.16 0 0.1 0.16 0 0 0.165 0 0.02 0.165 0 0.04 0.165 0 0.06 0.165 0 0.08 0.165 0 0.1 0.165 0 0 0.17 0 0.02 0.17 0 0.04 0.17 0 0.06 0.17 0 0.08 0.17 0 0.1 0.17 0 0 0.175 0 0.02 0.175 0 0.04 0.175 0 0.06 0.175 0 0.08 0.175 0 0.1 0.175 0 0 0.18 0 0.02 0.18 0 0.04 0.18 0 0.06 0.18 0 0.08 0.18 0 0.1 0.18 0 0 0.185 0 0.02 0.185 0 0.04 0.185 0 0.06 0.185 0 0.08 0.185 0 0.1 0.185 0 0 0.19 0 0.02 0.19 0 0.04 0.19 0 0.06 0.19 0 0.08 0.19 0 0.1 0.19 0 0 0.195 0 0.02 0.195 0 0.04 0.195 0 0.06 0.195 0 0.08 0.195 0 0.1 0.195 0 0 0.2 0 0.02 0.2 0 0.04 0.2 0 0.06 0.2 0 0.08 0.2 0 0.1 0.2 0 0 0.205 0 0.02 0.205 0 0.04 0.205 0 0.06 0.205 0 0.08 0.205 0 0.1 0.205 0 0 0.21 0 0.02 0.21 0 0.04 0.21 0 0.06 0.21 0 0.08 0.21 0 0.1 0.21 0 0 0.215 0 0.02 0.215 0 0.04 0.215 0 0.06 0.215 0 0.08 0.215 0 0.1 0.215 0 0 0.22 0 0.02 0.22 0 0.04 0.22 0 0.06 0.22 0 0.08 0.22 0 0.1 0.22 0 0 0.225 0 0.02 0.225 0 0.04 0.225 0 0.06 0.225 0 0.08 0.225 0 0.1 0.225 0 0 0.23 0 0.02 0.23 0 0.04 0.23 0 0.06 0.23 0 0.08 0.23 0 0.1 0.23 0 0 0.235 0 0.02 0.235 0 0.04 0.235 0 0.06 0.235 0 0.08 0.235 0 0.1 0.235 0 0 0.24 0 0.02 0.24 0 0.04 0.24 0 0.06 0.24 0 0.08 0.24 0 0.1 0.24 0 0 0.245 0 0.02 0.245 0 0.04 0.245 0 0.06 0.245 0 0.08 0.245 0 0.1 0.245 0 0 0.25 0 0.02 0.25 0 0.04 0.25 0 0.06 0.25 0 0.08 0.25 0 0.1 0.25 0 0 0.255 0 0.02 0.255 0 0.04 0.255 0 0.06 0.255 0 0.08 0.255 0 0.1 0.255 0 0 0.26 0 0.02 0.26 0 0.04 0.26 0 0.06 0.26 0 0.08 0.26 0 0.1 0.26 0 0 0.265 0 0.02 0.265 0 0.04 0.265 0 0.06 0.265 0 0.08 0.265 0 0.1 0.265 0 0 0.27 0 0.02 0.27 0 0.04 0.27 0 0.06 0.27 0 0.08 0.27 0 0.1 0.27 0 0 0.275 0 0.02 0.275 0 0.04 0.275 0 0.06 0.275 0 0.08 0.275 0 0.1 0.275 0 0 0.28 0 0.02 0.28 0 0.04 0.28 0 0.06 0.28 0 0.08 0.28 0 0.1 0.28 0 0 0.285 0 0.02 0.285 0 0.04 0.285 0 0.06 0.285 0 0.08 0.285 0 0.1 0.285 0 0 0.29 0 0.02 0.29 0 0.04 0.29 0 0.06 0.29 0 0.08 0.29 0 0.1 0.29 0 0 0.295 0 0.02 0.295 0 0.04 0.295 0 0.06 0.295 0 0.08 0.295 0 0.1 0.295 0 0 0.3 0 0.02 0.3 0 0.04 0.3 0 0.06 0.3 0 0.08 0.3 0 0.1 0.3 0 0 0.305 0 0.02 0.305 0 0.04 0.305 0 0.06 0.305 0 0.08 0.305 0 0.1 0.305 0 0 0.31 0 0.02 0.31 0 0.04 0.31 0 0.06 0.31 0 0.08 0.31 0 0.1 0.31 0 0 0.315 0 0.02 0.315 0 0.04 0.315 0 0.06 0.315 0 0.08 0.315 0 0.1 0.315 0 0 0.32 0 0.02 0.32 0 0.04 0.32 0 0.06 0.32 0 0.08 0.32 0 0.1 0.32 0 0 0.325 0 0.02 0.325 0 0.04 0.325 0 0.06 0.325 0 0.08 0.325 0 0.1 0.325 0 0 0.33 0 0.02 0.33 0 0.04 0.33 0 0.06 0.33 0 0.08 0.33 0 0.1 0.33 0 0 0.335 0 0.02 0.335 0 0.04 0.335 0 0.06 0.335 0 0.08 0.335 0 0.1 0.335 0 0 0.34 0 0.02 0.34 0 0.04 0.34 0 0.06 0.34 0 0.08 0.34 0 0.1 0.34 0 0 0.345 0 0.02 0.345 0 0.04 0.345 0 0.06 0.345 0 0.08 0.345 0 0.1 0.345 0 0 0.35 0 0.02 0.35 0 0.04 0.35 0 0.06 0.35 0 0.08 0.35 0 0.1 0.35 0 0 0.355 0 0.02 0.355 0 0.04 0.355 0 0.06 0.355 0 0.08 0.355 0 0.1 0.355 0 0 0.36 0 0.02 0.36 0 0.04 0.36 0 0.06 0.36 0 0.08 0.36 0 0.1 0.36 0 0 0.365 0 0.02 0.365 0 0.04 0.365 0 0.06 0.365 0 0.08 0.365 0 0.1 0.365 0 0 0.37 0 0.02 0.37 0 0.04 0.37 0 0.06 0.37 0 0.08 0.37 0 0.1 0.37 0 0 0.375 0 0.02 0.375 0 0.04 0.375 0 0.06 0.375 0 0.08 0.375 0 0.1 0.375 0 0 0.38 0 0.02 0.38 0 0.04 0.38 0 0.06 0.38 0 0.08 0.38 0 0.1 0.38 0 0 0.385 0 0.02 0.385 0 0.04 0.385 0 0.06 0.385 0 0.08 0.385 0 0.1 0.385 0 0 0.39 0 0.02 0.39 0 0.04 0.39 0 0.06 0.39 0 0.08 0.39 0 0.1 0.39 0 0 0.395 0 0.02 0.395 0 0.04 0.395 0 0.06 0.395 0 0.08 0.395 0 0.1 0.395 0 0 0.4 0 0.02 0.4 0 0.04 0.4 0 0.06 0.4 0 0.08 0.4 0 0.1 0.4 0 0 0.405 0 0.02 0.405 0 0.04 0.405 0 0.06 0.405 0 0.08 0.405 0 0.1 0.405 0 0 0.41 0 0.02 0.41 0 0.04 0.41 0 0.06 0.41 0 0.08 0.41 0 0.1 0.41 0 0 0.415 0 0.02 0.415 0 0.04 0.415 0 0.06 0.415 0 0.08 0.415 0 0.1 0.415 0 0 0.42 0 0.02 0.42 0 0.04 0.42 0 0.06 0.42 0 0.08 0.42 0 0.1 0.42 0 0 0.425 0 0.02 0.425 0 0.04 0.425 0 0.06 0.425 0 0.08 0.425 0 0.1 0.425 0 0 0.43 0 0.02 0.43 0 0.04 0.43 0 0.06 0.43 0 0.08 0.43 0 0.1 0.43 0 0 0.435 0 0.02 0.435 0 0.04 0.435 0 0.06 0.435 0 0.08 0.435 0 0.1 0.435 0 0 0.44 0 0.02 0.44 0 0.04 0.44 0 0.06 0.44 0 0.08 0.44 0 0.1 0.44 0 0 0.445 0 0.02 0.445 0 0.04 0.445 0 0.06 0.445 0 0.08 0.445 0 0.1 0.445 0 0 0.45 0 0.02 0.45 0 0.04 0.45 0 0.06 0.45 0 0.08 0.45 0 0.1 0.45 0 0 0.455 0 0.02 0.455 0 0.04 0.455 0 0.06 0.455 0 0.08 0.455 0 0.1 0.455 0 0 0.46 0 0.02 0.46 0 0.04 0.46 0 0.06 0.46 0 0.08 0.46 0 0.1 0.46 0 0 0.465 0 0.02 0.465 0 0.04 0.465 0 0.06 0.465 0 0.08 0.465 0 0.1 0.465 0 0 0.47 0 0.02 0.47 0 0.04 0.47 0 0.06 0.47 0 0.08 0.47 0 0.1 0.47 0 0 0.475 0 0.02 0.475 0 0.04 0.475 0 0.06 0.475 0 0.08 0.475 0 0.1 0.475 0 0 0.48 0 0.02 0.48 0 0.04 0.48 0 0.06 0.48 0 0.08 0.48 0 0.1 0.48 0 0 0.485 0 0.02 0.485 0 0.04 0.485 0 0.06 0.485 0 0.08 0.485 0 0.1 0.485 0 0 0.49 0 0.02 0.49 0 0.04 0.49 0 0.06 0.49 0 0.08 0.49 0 0.1 0.49 0 0 0.495 0 0.02 0.495 0 0.04 0.495 0 0.06 0.495 0 0.08 0.495 0 0.1 0.495 0 0 0.5 0 0.02 0.5 0 0.04 0.5 0 0.06 0.5 0 0.08 0.5 0 0.1 0.5 0 0 0.505 0 0.02 0.505 0 0.04 0.505 0 0.06 0.505 0 0.08 0.505 0 0.1 0.505 0 0 0.51 0 0.02 0.51 0 0.04 0.51 0 0.06 0.51 0 0.08 0.51 0 0.1 0.51 0 0 0.515 0 0.02 0.515 0 0.04 0.515 0 0.06 0.515 0 0.08 0.515 0 0.1 0.515 0 0 0.52 0 0.02 0.52 0 0.04 0.52 0 0.06 0.52 0 0.08 0.52 0 0.1 0.52 0 0 0.525 0 0.02 0.525 0 0.04 0.525 0 0.06 0.525 0 0.08 0.525 0 0.1 0.525 0 0 0.53 0 0.02 0.53 0 0.04 0.53 0 0.06 0.53 0 0.08 0.53 0 0.1 0.53 0 0 0.535 0 0.02 0.535 0 0.04 0.535 0 0.06 0.535 0 0.08 0.535 0 0.1 0.535 0 0 0.54 0 0.02 0.54 0 0.04 0.54 0 0.06 0.54 0 0.08 0.54 0 0.1 0.54 0 0 0.545 0 0.02 0.545 0 0.04 0.545 0 0.06 0.545 0 0.08 0.545 0 0.1 0.545 0 0 0.55 0 0.02 0.55 0 0.04 0.55 0 0.06 0.55 0 0.08 0.55 0 0.1 0.55 0 0 0.555 0 0.02 0.555 0 0.04 0.555 0 0.06 0.555 0 0.08 0.555 0 0.1 0.555 0 0 0.56 0 0.02 0.56 0 0.04 0.56 0 0.06 0.56 0 0.08 0.56 0 0.1 0.56 0 0 0.565 0 0.02 0.565 0 0.04 0.565 0 0.06 0.565 0 0.08 0.565 0 0.1 0.565 0 0 0.57 0 0.02 0.57 0 0.04 0.57 0 0.06 0.57 0 0.08 0.57 0 0.1 0.57 0 0 0.575 0 0.02 0.575 0 0.04 0.575 0 0.06 0.575 0 0.08 0.575 0 0.1 0.575 0 0 0.58 0 0.02 0.58 0 0.04 0.58 0 0.06 0.58 0 0.08 0.58 0 0.1 0.58 0 0 0.585 0 0.02 0.585 0 0.04 0.585 0 0.06 0.585 0 0.08 0.585 0 0.1 0.585 0 0 0.59 0 0.02 0.59 0 0.04 0.59 0 0.06 0.59 0 0.08 0.59 0 0.1 0.59 0 0 0.595 0 0.02 0.595 0 0.04 0.595 0 0.06 0.595 0 0.08 0.595 0 0.1 0.595 0 0 0.6 0 0.02 0.6 0 0.04 0.6 0 0.06 0.6 0 0.08 0.6 0 0.1 0.6 0 0 0.605 0 0.02 0.605 0 0.04 0.605 0 0.06 0.605 0 0.08 0.605 0 0.1 0.605 0 0 0.61 0 0.02 0.61 0 0.04 0.61 0 0.06 0.61 0 0.08 0.61 0 0.1 0.61 0 0 0.615 0 0.02 0.615 0 0.04 0.615 0 0.06 0.615 0 0.08 0.615 0 0.1 0.615 0 0 0.62 0 0.02 0.62 0 0.04 0.62 0 0.06 0.62 0 0.08 0.62 0 0.1 0.62 0 0 0.625 0 0.02 0.625 0 0.04 0.625 0 0.06 0.625 0 0.08 0.625 0 0.1 0.625 0 0 0.63 0 0.02 0.63 0 0.04 0.63 0 0.06 0.63 0 0.08 0.63 0 0.1 0.63 0 0 0.635 0 0.02 0.635 0 0.04 0.635 0 0.06 0.635 0 0.08 0.635 0 0.1 0.635 0 0 0.64 0 0.02 0.64 0 0.04 0.64 0 0.06 0.64 0 0.08 0.64 0 0.1 0.64 0 0 0.645 0 0.02 0.645 0 0.04 0.645 0 0.06 0.645 0 0.08 0.645 0 0.1 0.645 0 0 0.65 0 0.02 0.65 0 0.04 0.65 0 0.06 0.65 0 0.08 0.65 0 0.1 0.65 0 0 0.655 0 0.02 0.655 0 0.04 0.655 0 0.06 0.655 0 0.08 0.655 0 0.1 0.655 0 0 0.66 0 0.02 0.66 0 0.04 0.66 0 0.06 0.66 0 0.08 0.66 0 0.1 0.66 0 0 0.665 0 0.02 0.665 0 0.04 0.665 0 0.06 0.665 0 0.08 0.665 0 0.1 0.665 0 0 0.67 0 0.02 0.67 0 0.04 0.67 0 0.06 0.67 0 0.08 0.67 0 0.1 0.67 0 0 0.675 0 0.02 0.675 0 0.04 0.675 0 0.06 0.675 0 0.08 0.675 0 0.1 0.675 0 0 0.68 0 0.02 0.68 0 0.04 0.68 0 0.06 0.68 0 0.08 0.68 0 0.1 0.68 0 0 0.685 0 0.02 0.685 0 0.04 0.685 0 0.06 0.685 0 0.08 0.685 0 0.1 0.685 0 0 0.69 0 0.02 0.69 0 0.04 0.69 0 0.06 0.69 0 0.08 0.69 0 0.1 
[...]
			<PointData Scalars="VitesseX">
				<DataArray Name="VitesseX" type="Float32" format="ascii">
 0 4.47857e-15 -3.59536e-14 1.51435e-15 7.87696e-15 0 0 2.20754e-15 -3.33398e-14 -6.36903e-15 1.63274e-14 0 0 -2.42759e-14 2.43294e-15 -3.31319e-14 3.21094e-14 0 0 1.33038e-14 -3.87938e-14 4.64508e-16 1.57111e-14 0 0 1.23118e-14 -2.75542e-14 -2.67075e-14 3.14952e-14 0 0 -5.55147e-14 3.5171e-14 -6.91755e-14 3.98018e-14 0 0 -3.12315e-14 -5.18225e-14 4.87753e-14 -5.64194e-14 0 0 2.69241e-14 -1.25302e-13 1.23284e-13 -1.41057e-13 0 0 7.92395e-15 -7.19166e-14 3.2757e-14 -7.76992e-14 0 0 -5.21033e-14 3.61745e-14 -1.23085e-13 5.64416e-14 0 0 2.51705e-15 -4.15678e-14 -9.57009e-14 6.46407e-14 0 0 -4.81642e-14 -1.86141e-14 -9.42692e-14 1.56454e-14 0 0 3.29657e-14 -1.34268e-13 2.67167e-14 -1.02367e-13 0 0 -2.63729e-14 -6.36343e-14 -4.38876e-15 -8.46584e-14 0 0 -1.03071e-13 5.13542e-16 -6.8743e-14 -2.30431e-14 0 0 4.92301e-14 -2.37828e-13 1.02798e-13 -8.42363e-14 0 0 -1.30153e-13 2.37427e-14 -6.89283e-14 1.38246e-14 0 0 -7.47562e-14 -2.89658e-15 -7.52248e-14 1.07388e-13 0 0 -5.65677e-14 2.91687e-15 -1.32264e-13 2.04183e-13 0 0 -1.02351e-13 3.55519e-14 -1.18425e-13 1.25077e-13 0 0 6.25183e-14 -2.26856e-13 1.43538e-13 -1.20623e-13 0 0 3.85001e-14 -2.0302e-13 9.37738e-14 -1.22034e-13 0 0 -9.2397e-14 2.25613e-14 -2.02931e-13 3.56011e-14 0 0 -1.5833e-13 1.2977e-13 -3.17007e-13 5.89639e-14 0 0 1.53948e-14 -1.82441e-13 2.76569e-14 -1.83108e-13 0 0 1.99111e-13 -4.53962e-13 2.78207e-13 -3.58966e-13 0 0 1.07318e-14 -1.20615e-13 -7.45707e-14 -1.25821e-13 0 0 -1.38867e-13 1.76152e-13 -3.88953e-13 1.17682e-13 0 0 -2.72848e-14 2.12704e-14 -2.36418e-13 2.31853e-14 0 0 1.11395e-13 -2.49703e-13 5.86498e-14 -1.69869e-13 0 0 4.17211e-15 -1.80991e-13 4.55025e-14 -1.39809e-13 0 0 1.12672e-14 -1.96606e-13 4.50079e-14 -1.43953e-13 0 0 2.2761e-14 -1.49743e-13 -3.94535e-14 -9.77874e-14 0 0 -1.94573e-13 1.77403e-13 -3.45183e-13 9.95684e-14 0 0 1.74683e-14 -1.91143e-13 -3.33306e-15 -1.06666e-13 0 0 9.92495e-14 -3.84805e-13 1.79553e-13 -1.8001e-13 0 0 1.14781e-13 -3.41934e-13 2.56658e-14 1.12756e-13 0 0 -1.36798e-13 1.30169e-13 -4.15352e-13 5.16097e-13 0 0 -1.26734e-13 1.09874e-13 -3.98355e-13 5.63216e-13 0 0 5.34963e-14 -2.35783e-13 -8.44281e-14 2.82606e-13 0 0 3.5816e-15 -2.02898e-13 -6.12153e-15 -4.44206e-15 0 0 6.96615e-14 -2.5325e-13 4.41093e-14 -1.79692e-13 0 0 -1.61608e-13 6.81451e-14 -2.09205e-13 -8.94702e-14 0 0 -5.98275e-14 -1.42115e-13 5.33787e-14 -2.6587e-13 0 0 2.3418e-13 -5.50268e-13 3.39925e-13 -4.04384e-13 0 0 -5.48262e-14 -7.25523e-14 -2.18194e-13 1.96781e-14 0 0 1.44866e-14 -3.7554e-14 -4.79225e-13 3.35032e-13 0 0 -1.47954e-14 -3.08815e-14 -4.7408e-13 3.0098e-13 0 0 -1.54681e-13 -2.51949e-14 -2.89439e-13 1.55777e-14 0 0 1.49561e-13 -5.95163e-13 2.65571e-13 -3.64734e-13 0 0 1.32798e-13 -7.078e-13 4.09571e-13 -4.19225e-13 0 0 1.90537e-13 -7.37545e-13 2.14085e-13 -4.09204e-14 0 0 -3.89089e-13 2.04139e-13 -6.68324e-13 5.96182e-13 0 0 -1.77915e-13 -1.53421e-14 -3.63762e-13 2.75097e-13 0 0 1.84766e-13 -7.20754e-13 2.88958e-13 -1.04262e-13 0 0 -3.3369e-13 -2.22511e-13 -1.14328e-13 1.93483e-13 0 0 1.24096e-13 -6.23091e-13 2.10349e-13 -1.63162e-13 0 0 2.36213e-14 -3.46431e-13 5.4185e-14 -2.23146e-13 0 0 9.85116e-14 -3.8342e-13 1.17724e-13 -2.46758e-13 0 0 3.31624e-13 -7.01475e-13 3.33296e-13 -2.32054e-13 0 0 -2.02682e-13 -9.3769e-14 -2.46834e-13 3.05986e-13 0 0 -2.90084e-13 2.76969e-14 -4.15538e-13 4.34097e-13 0 0 -2.18292e-13 -1.4273e-13 -1.1074e-13 1.46781e-13 0 0 1.226e-13 -5.59693e-13 5.24775e-13 -4.9665e-13 0 0 6.48933e-14 -4.23972e-13 3.71743e-13 -4.10529e-13 0 0 -2.78063e-13 1.98831e-14 -2.35306e-13 1.81869e-13 0 0 -2.35444e-13 1.71466e-14 -3.77806e-13 3.18368e-13 0 0 -2.31218e-13 -2.02778e-14 -2.72791e-13 1.71718e-13 0 0 1.69539e-13 -4.95013e-13 2.43064e-13 -3.24013e-13 0 0 2.41741e-13 -5.32949e-13 3.31142e-16 -1.20133e-14 0 0 -4.78643e-13 2.80907e-13 -7.65096e-13 5.88349e-13 0 0 -7.32473e-14 -3.13572e-13 -7.73672e-14 4.8797e-14 0 0 1.27604e-13 -7.41489e-13 3.42976e-13 -6.40422e-14 0 0 1.28504e-13 -8.47099e-13 4.32641e-13 2.1264e-13 0 0 -1.6921e-13 -2.75446e-13 -2.23914e-13 8.60437e-13 0 0 -5.37953e-13 1.6851e-13 -8.02523e-13 1.36018e-12 0 0 9.72005e-14 -8.69816e-13 2.38565e-13 3.41667e-13 0 0 -1.24609e-13 -6.78409e-13 3.14699e-13 -2.41386e-13 0 0 -7.91044e-15 -6.96438e-13 2.82556e-13 -4.50007e-13 0 0 -3.41939e-13 -1.00776e-13 -1.96184e-13 -3.06087e-13 0 0 -2.7922e-13 -3.6309e-13 -2.05684e-13 7.11297e-14 0 0 2.46474e-13 -9.92241e-13 -2.16795e-13 1.06709e-13 0 0 -6.3846e-13 4.30061e-13 -1.37273e-12 2.92131e-13 0 0 -2.27937e-13 -1.4361e-13 -5.55681e-13 -2.58505e-13 0 0 5.4797e-13 -1.49636e-12 8.20152e-13 -9.32878e-13 0 0 -3.79581e-13 -2.03085e-13 -2.15804e-13 -5.94986e-13 0 0 -6.63591e-13 5.61892e-13 -1.21903e-12 -1.99931e-13 0 0 3.84916e-14 -5.1286e-13 -3.30389e-13 -5.62893e-13 0 0 -3.64925e-14 -5.36706e-13 3.59441e-14 -9.97924e-13 0 0 2.23618e-13 -7.5009e-13 1.79769e-13 -9.93362e-13 0 0 -1.43449e-13 1.04037e-13 -6.3093e-13 -4.71777e-13 0 0 -4.50293e-13 7.48256e-13 -1.34412e-12 -1.66004e-13 0 0 1.62718e-13 -5.5311e-13 -1.35709e-13 -4.6513e-13 0 0 6.75757e-14 -6.61547e-13 2.77378e-13 -8.38812e-13 0 0 3.79156e-13 -8.99633e-13 -4.90865e-15 -3.92844e-13 0 0 -7.8238e-13 7.12561e-13 -1.39535e-12 4.10765e-13 0 0 4.6783e-14 -1.67152e-13 -5.5202e-13 -1.08726e-13 0 0 3.84225e-13 -8.38999e-13 1.50557e-13 -3.49456e-13 0 0 -3.69412e-13 -2.92872e-13 3.91387e-13 -7.11926e-13 0 0 3.15773e-13 -8.31965e-13 3.08785e-13 -2.05017e-13 0 0 6.06582e-14 -4.7227e-13 -1.67657e-13 1.81543e-13 0 0 -3.40115e-13 -2.4141e-13 -3.95807e-13 1.05195e-13 0 0 -3.50195e-13 -3.82557e-13 -2.01715e-13 -1.33981e-13 0 0 -2.47454e-13 -4.53296e-13 -2.43919e-13 -9.35981e-14 0 0 -9.12905e-14 -3.876e-13 -2.76823e-13 -4.92284e-14 0 0 -5.33869e-13 3.19645e-13 -8.26851e-13 2.18288e-13 0 0 -2.63687e-13 -1.09299e-13 -4.50762e-13 7.52603e-14 0 0 2.28267e-13 -9.00051e-13 4.01243e-13 -5.90625e-13 0 0 3.05287e-13 -9.63878e-13 4.0328e-13 -5.89764e-13 0 0 -1.74169e-13 -5.77806e-14 -6.71888e-13 1.54806e-13 0 0 -7.27751e-13 8.51149e-13 -1.52387e-12 5.31931e-13 0 0 -1.8153e-13 -2.05399e-13 -4.81698e-13 -3.16248e-14 0 0 3.27181e-13 -1.06944e-12 5.40315e-13 -9.73241e-13 0 0 3.45964e-13 -9.69402e-13 4.3031e-13 -1.08662e-12 0 0 -2.35536e-13 5.84414e-14 -6.70766e-13 -3.14987e-13 0 0 -7.12493e-13 6.42616e-13 -1.15777e-12 3.05068e-14 0 0 -2.63838e-13 -3.6097e-13 -1.69782e-13 -3.23352e-13 0 0 4.00923e-13 -1.23628e-12 7.00662e-13 -1.06065e-12 0 0 -1.44017e-13 -2.95236e-13 -2.8691e-13 -5.37339e-13 0 0 -1.63957e-13 -4.15077e-13 -4.58072e-13 1.04752e-13 0 0 -3.70217e-13 -2.29993e-13 -5.19886e-13 7.51388e-14 0 0 -5.91906e-13 -1.98722e-13 -3.82241e-13 -1.09795e-14 0 0 4.13519e-13 -1.54114e-12 6.94405e-13 -7.38477e-13 0 0 -3.42731e-13 -9.71009e-14 -7.28968e-13 -1.99273e-13 0 0 -3.14939e-13 -2.16542e-13 -7.23644e-13 2.5272e-13 0 0 -3.28722e-13 -2.71378e-13 -4.64848e-13 4.44631e-15 0 0 -5.69523e-13 -2.48525e-13 -3.2823e-13 -1.02379e-13 0 0 4.66671e-13 -1.71634e-12 8.46476e-13 -8.14114e-13 0 0 -2.40854e-13 -4.16754e-13 -3.63923e-13 -3.11712e-13 0 0 -2.87432e-13 -3.85496e-13 -4.98573e-13 1.78811e-13 0 0 -2.89495e-13 -4.24178e-13 -3.03014e-13 -8.04148e-14 0 0 -5.58171e-13 -3.81543e-13 -1.42316e-13 -2.20906e-13 0 0 3.88727e-13 -1.63099e-12 9.09499e-13 -9.76779e-13 0 0 -2.8838e-13 -2.52717e-13 -3.56662e-13 -5.65181e-13 0 0 -2.58549e-13 -3.29223e-13 -5.40667e-13 5.58803e-14 0 0 -2.35795e-13 -3.6548e-13 -4.68068e-13 8.42729e-15 0 0 -4.52978e-13 -2.91782e-13 -3.75597e-13 -7.0198e-14 0 0 4.33437e-13 -1.47367e-12 5.86802e-13 -7.13317e-13 0 0 -1.5123e-13 -2.15104e-13 -5.83085e-13 -4.32318e-13 0 0 -2.4758e-13 -1.44947e-13 -6.14121e-13 -2.08651e-13 0 0 -3.33604e-14 -6.48953e-13 -2.91578e-13 -2.09006e-13 0 0 -7.60854e-13 4.56286e-13 -1.43833e-12 2.17311e-13 0 0 3.37367e-13 -1.05092e-12 9.79623e-14 -9.13679e-13 0 0 5.67131e-13 -1.55614e-12 4.88609e-13 -9.76752e-13 0 0 -8.93045e-13 4.84787e-13 -1.75471e-12 5.24152e-13 0 0 -3.38372e-13 -4.69471e-13 -1.10895e-12 4.94673e-13 0 0 -4.61814e-13 -4.97214e-13 -7.03704e-13 1.52134e-14 0 0 1.02162e-13 -1.12332e-12 2.19355e-13 -8.1925e-13 0 0 5.01713e-13 -1.64055e-12 4.34027e-13 -3.89325e-13 0 0 -8.97449e-13 4.35485e-13 -2.01731e-12 1.68717e-12 0 0 -3.02643e-13 -5.41786e-13 -1.25444e-12 1.56521e-12 0 0 -4.15158e-13 -6.3817e-13 -5.31653e-13 2.24025e-13 0 0 1.39784e-13 -1.12561e-12 2.05164e-13 -1.26868e-12 0 0 1.75514e-13 -1.13048e-12 1.5712e-13 -1.39188e-12 0 0 -4.24882e-13 -4.91372e-13 -6.48234e-13 -3.93017e-13 0 0 -4.52489e-13 -3.01194e-13 -7.27988e-13 -3.16325e-13 0 0 -4.96968e-13 -3.43815e-13 -3.40798e-13 -4.5536e-13 0 0 4.32541e-13 -1.59604e-12 6.5172e-13 -7.87363e-13 0 0 -1.07528e-13 -3.7717e-13 -9.25186e-13 1.18553e-13 0 0 -5.98333e-13 5.87006e-13 -2.43842e-12 1.33639e-12 0 0 -7.23298e-13 6.31945e-13 -2.18259e-12 7.65319e-13 0 0 -5.70561e-14 -1.18992e-12 4.45766e-13 -9.84384e-13 0 0 6.53263e-13 -2.48995e-12 1.91558e-12 -2.28e-12 0 0 -2.31452e-13 -6.54518e-13 -4.622e-13 -1.08697e-12 0 0 -7.94144e-13 6.72761e-13 -2.43522e-12 6.72082e-13 0 0 -6.72554e-13 5.93954e-13 -2.16113e-12 3.76806e-13 0 0 2.08811e-14 -9.74125e-13 -2.89028e-13 -8.21131e-13 0 0 5.45047e-13 -2.0334e-12 8.77325e-13 -2.37315e-12 0 0 -4.35658e-13 -5.1226e-13 -3.10921e-13 -2.48438e-12 0 0 -1.08252e-13 -1.0171e-12 1.76765e-13 -1.82944e-12 0 0 4.72683e-14 -1.09011e-12 9.48428e-14 -1.16943e-12 0 0 -9.81701e-13 6.19444e-13 -1.93286e-12 6.4116e-14 0 0 -1.5401e-14 -6.783e-13 -1.18732e-12 -3.06051e-13 0 0 -1.93914e-13 -6.54917e-13 -6.30311e-13 -8.54035e-13 0 0 -3.17676e-14 -1.21959e-12 3.84702e-13 -1.07319e-12 0 0 1.75701e-13 -1.25186e-12 1.15189e-13 -8.94369e-13 0 0 -8.44463e-13 4.99408e-13 -1.95027e-12 1.0853e-13 0 0 5.57835e-14 -7.48936e-13 -1.16371e-12 -1.94294e-13 0 0 -5.94637e-14 -7.62418e-13 -5.57585e-13 -9.75284e-13 0 0 -8.19503e-14 -1.09391e-12 3.73274e-13 -1.3044e-12 0 0 1.09856e-13 -1.20859e-12 1.41737e-13 -8.31511e-13 0 0 -8.62775e-13 5.28172e-13 -2.14853e-12 3.89056e-13 0 0 -4.33147e-14 -5.83351e-13 -1.52298e-12 -2.24626e-14 0 0 -1.06584e-13 -8.09242e-13 -6.06386e-13 -8.09688e-13 0 0 -9.06161e-14 -1.13637e-12 2.25998e-13 -8.71173e-13 0 0 1.14636e-13 -1.12098e-12 -2.17754e-13 -4.65099e-13 0 0 -9.39818e-13 6.74262e-13 -2.32458e-12 5.82377e-13 0 0 -1.78572e-14 -6.38925e-13 -1.35649e-12 1.40389e-13 0 0 -8.83807e-14 -7.59865e-13 -7.28555e-13 -5.17991e-13 0 0 1.58431e-13 -1.35746e-12 5.30212e-14 -8.21441e-13 0 0 4.87494e-13 -1.33676e-12 -8.53831e-13 -3.81059e-13 0 0 -1.29725e-12 1.34598e-12 -3.50308e-12 6.53652e-13 0 0 6.43211e-13 -1.78339e-12 1.55732e-13 -1.33273e-12 0 0 1.30402e-12 -3.03305e-12 1.75181e-12 -1.92946e-12 0 0 -7.83359e-13 2.83174e-14 -1.75637e-12 4.85713e-13 0 0 -8.59266e-13 4.18004e-13 -3.02838e-12 1.57355e-12 0 0 -1.30872e-12 7.21149e-13 -2.89368e-12 1.37001e-12 0 0 5.75968e-13 -2.34475e-12 8.99664e-13 -9.71363e-13 0 0 8.07622e-13 -2.75438e-12 1.42013e-12 -1.2376e-12 0 0 -1.01316e-12 2.85625e-13 -2.47279e-12 1.2975e-12 0 0 -7.86131e-13 3.53552e-13 -3.3621e-12 2.09993e-12 0
				</DataArray>
				<DataArray Name="VitesseY" type="Float32" format="ascii">