<?xml version="1.0"?>
<VTKFile type="PolyData">
	<PolyData>
		<Piece NumberOfPoints="1206" NumberOfPolys="1000">
			<Points>
				<DataArray type="Float32" NumberOfComponents="3" format="ascii">
 0 0 0 0.02 0 0 0.04 0 0 0.06 0 0 0.08 0 0 0.1 0 0 0 0.005 0 0.02 0.005 0 0.04 0.005 0 0.06 0.005 0 0.08 0.005 0 0.1 0.005 0 0 0.01 0 0.02 0.01 0 0.04 0.01 0 0.06 0.01 0 0.08 0.01 0 0.1 0.01 0 0 0.015 0 0.02 0.015 0 0.04 0.015 0 0.06 0.015 0 0.08 0.015 0 0.1 0.015 0 0 0.02 0 0.02 0.02 0 0.04 0.02 0 0.06 0.02 0 0.08 0.02 0 0.1 0.02 0 0 0.025 0 0.02 0.025 0 0.04 0.025 0 0.06 0.025 0 0.08 0.025 0 0.1 0.025 0 0 0.03 0 0.02 0.03 0 0.04 0.03 0 0.06 0.03 0 0.08 0.03 0 0.1 0.03 0 0 0.035 0 0.02 0.035 0 0.04 0.035 0 0.06 0.035 0 0.08 0.035 0 0.1 0.035 0 0 0.04 0 0.02 0.04 0 0.04 0.04 0 0.06 0.04 0 0.08 0.04 0 0.1 0.04 0 0 0.045 0 0.02 0.045 0 0.04 0.045 0 0.06 0.045 0 0.08 0.045 0 0.1 0.045 0 0 0.05 0 0.02 0.05 0 0.04 0.05 0 0.06 0.05 0 0.08 0.05 0 0.1 0.05 0 0 0.055 0 0.02 0.055 0 0.04 0.055 0 0.06 0.055 0 0.08 0.055 0 0.1 0.055 0 0 0.06 0 0.02 0.06 0 0.04 0.06 0 0.06 0.06 0 0.08 0.06 0 0.1 0.06 0 0 0.065 0 0.02 0.065 0 0.04 0.065 0 0.06 0.065 0 0.08 0.065 0 0.1 0.065 0 0 0.07 0 0.02 0.07 0 0.04 0.07 0 0.06 0.07 0 0.08 0.07 0 0.1 0.07 0 0 0.075 0 0.02 0.075 0 0.04 0.075 0 0.06 0.075 0 0.08 0.075 0 0.1 0.075 0 0 0.08 0 0.02 0.08 0 0.04 0.08 0 0.06 0.08 0 0.08 0.08 0 0.1 0.08 0 0 0.085 0 0.02 0.085 0 0.04 0.085 0 0.06 0.085 0 0.08 0.085 0 0.1 0.085 0 0 0.09 0 0.02 0.09 0 0.04 0.09 0 0.06 0.09 0 0.08 0.09 0 0.1 0.09 0 0 0.095 0 0.02 0.095 0 0.04 0.095 0 0.06 0.095 0 0.08 0.095 0 0.1 0.095 0 0 0.1 0 0.02 0.1 0 0.04 0.1 0 0.06 0.1 0 0.08 0.1 0 0.1 0.1 0 0 0.105 0 0.02 0.105 0 0.04 0.105 0 0.06 0.105 0 0.08 0.105 0 0.1 0.105 0 0 0.11 0 0.02 0.11 0 0.04 0.11 0 0.06 0.11 0 0.08 0.11 0 0.1 0.11 0 0 0.115 0 0.02 0.115 0 0.04 0.115 0 0.06 0.115 0 0.08 0.115 0 0.1 0.115 0 0 0.12 0 0.02 0.12 0 0.04 0.12 0 0.06 0.12 0 0.08 0.12 0 0.1 0.12 0 0 0.125 0 0.02 0.125 0 0.04 0.125 0 0.06 0.125 0 0.08 0.125 0 0.1 0.125 0 0 0.13 0 0.02 0.13 0 0.04 0.13 0 0.06 0.13 0 0.08 0.13 0 0.1 0.13 0 0 0.135 0 0.02 0.135 0 0.04 0.135 0 0.06 0.135 0 0.08 0.135 0 0.1 0.135 0 0 0.14 0 0.02 0.14 0 0.04 0.14 0 0.06 0.14 0 0.08 0.14 0 0.1 0.14 0 0 0.145 0 0.02 0.145 0 0.04 0.145 0 0.06 0.145 0 0.08 0.145 0 0.1 0.145 0 0 0.15 0 0.02 0.15 0 0.04 0.15 0 0.06 0.15 0 0.08 0.15 0 0.1 0.15 0 0 0.155 0 0.02 0.155 0 0.04 0.155 0 0.06 0.155 0 0.08 0.155 0 0.1 0.155 0 0 0.16 0 0.02 0.16 0 0.04 0.16 0 0.06 0.16 0 0.08 0.16 0 0.1 0.16 0 0 0.165 0 0.02 0.165 0 0.04 0.165 0 0.06 0.165 0 0.08 0.165 0 0.1 0.165 0 0 0.17 0 0.02 0.17 0 0.04 0.17 0 0.06 0.17 0 0.08 0.17 0 0.1 0.17 0 0 0.175 0 0.02 0.175 0 0.04 0.175 0 0.06 0.175 0 0.08 0.175 0 0.1 0.175 0 0 0.18 0 0.02 0.18 0 0.04 0.18 0 0.06 0.18 0 0.08 0.18 0 0.1 0.18 0 0 0.185 0 0.02 0.185 0 0.04 0.185 0 0.06 0.185 0 0.08 0.185 0 0.1 0.185 0 0 0.19 0 0.02 0.19 0 0.04 0.19 0 0.06 0.19 0 0.08 0.19 0 0.1 0.19 0 0 0.195 0 0.02 0.195 0 0.04 0.195 0 0.06 0.195 0 0.08 0.195 0 0.1 0.195 0 0 0.2 0 0.02 0.2 0 0.04 0.2 0 0.06 0.2 0 0.08 0.2 0 0.1 0.2 0 0 0.205 0 0.02 0.205 0 0.04 0.205 0 0.06 0.205 0 0.08 0.205 0 0.1 0.205 0 0 0.21 0 0.02 0.21 0 0.04 0.21 0 0.06 0.21 0 0.08 0.21 0 0.1 0.21 0 0 0.215 0 0.02 0.215 0 0.04 0.215 0 0.06 0.215 0 0.08 0.215 0 0.1 0.215 0 0 0.22 0 0.02 0.22 0 0.04 0.22 0 0.06 0.22 0 0.08 0.22 0 0.1 0.22 0 0 0.225 0 0.02 0.225 0 0.04 0.225 0 0.06 0.225 0 0.08 0.225 0 0.1 0.225 0 0 0.23 0 0.02 0.23 0 0.04 0.23 0 0.06 0.23 0 0.08 0.23 0 0.1 0.23 0 0 0.235 0 0.02 0.235 0 0.04 0.235 0 0.06 0.235 0 0.08 0.235 0 0.1 0.235 0 0 0.24 0 0.02 0.24 0 0.04 0.24 0 0.06 0.24 0 0.08 0.24 0 0.1 0.24 0 0 0.245 0 0.02 0.245 0 0.04 0.245 0 0.06 0.245 0 0.08 0.245 0 0.1 0.245 0 0 0.25 0 0.02 0.25 0 0.04 0.25 0 0.06 0.25 0 0.08 0.25 0 0.1 0.25 0 0 0.255 0 0.02 0.255 0 0.04 0.255 0 0.06 0.255 0 0.08 0.255 0 0.1 0.255 0 0 0.26 0 0.02 0.26 0 0.04 0.26 0 0.06 0.26 0 0.08 0.26 0 0.1 0.26 0 0 0.265 0 0.02 0.265 0 0.04 0.265 0 0.06 0.265 0 0.08 0.265 0 0.1 0.265 0 0 0.27 0 0.02 0.27 0 0.04 0.27 0 0.06 0.27 0 0.08 0.27 0 0.1 0.27 0 0 0.275 0 0.02 0.275 0 0.04 0.275 0 0.06 0.275 0 0.08 0.275 0 0.1 0.275 0 0 0.28 0 0.02 0.28 0 0.04 0.28 0 0.06 0.28 0 0.08 0.28 0 0.1 0.28 0 0 0.285 0 0.02 0.285 0 0.04 0.285 0 0.06 0.285 0 0.08 0.285 0 0.1 0.285 0 0 0.29 0 0.02 0.29 0 0.04 0.29 0 0.06 0.29 0 0.08 0.29 0 0.1 0.29 0 0 0.295 0 0.02 0.295 0 0.04 0.295 0 0.06 0.295 0 0.08 0.295 0 0.1 0.295 0 0 0.3 0 0.02 0.3 0 0.04 0.3 0 0.06 0.3 0 0.08 0.3 0 0.1 0.3 0 0 0.305 0 0.02 0.305 0 0.04 0.305 0 0.06 0.305 0 0.08 0.305 0 0.1 0.305 0 0 0.31 0 0.02 0.31 0 0.04 0.31 0 0.06 0.31 0 0.08 0.31 0 0.1 0.31 0 0 0.315 0 0.02 0.315 0 0.04 0.315 0 0.06 0.315 0 0.08 0.315 0 0.1 0.315 0 0 0.32 0 0.02 0.32 0 0.04 0.32 0 0.06 0.32 0 0.08 0.32 0 0.1 0.32 0 0 0.325 0 0.02 0.325 0 0.04 0.325 0 0.06 0.325 0 0.08 0.325 0 0.1 0.325 0 0 0.33 0 0.02 0.33 0 0.04 0.33 0 0.06 0.33 0 0.08 0.33 0 0.1 0.33 0 0 0.335 0 0.02 0.335 0 0.04 0.335 0 0.06 0.335 0 0.08 0.335 0 0.1 0.335 0 0 0.34 0 0.02 0.34 0 0.04 0.34 0 0.06 0.34 0 0.08 0.34 0 0.1 0.34 0 0 0.345 0 0.02 0.345 0 0.04 0.345 0 0.06 0.345 0 0.08 0.345 0 0.1 0.345 0 0 0.35 0 0.02 0.35 0 0.04 0.35 0 0.06 0.35 0 0.08 0.35 0 0.1 0.35 0 0 0.355 0 0.02 0.355 0 0.04 0.355 0 0.06 0.355 0 0.08 0.355 0 0.1 0.355 0 0 0.36 0 0.02 0.36 0 0.04 0.36 0 0.06 0.36 0 0.08 0.36 0 0.1 0.36 0 0 0.365 0 0.02 0.365 0 0.04 0.365 0 0.06 0.365 0 0.08 0.365 0 0.1 0.365 0 0 0.37 0 0.02 0.37 0 0.04 0.37 0 0.06 0.37 0 0.08 0.37 0 0.1 0.37 0 0 0.375 0 0.02 0.375 0 0.04 0.375 0 0.06 0.375 0 0.08 0.375 0 0.1 0.375 0 0 0.38 0 0.02 0.38 0 0.04 0.38 0 0.06 0.38 0 0.08 0.38 0 0.1 0.38 0 0 0.385 0 0.02 0.385 0 0.04 0.385 0 0.06 0.385 0 0.08 0.385 0 0.1 0.385 0 0 0.39 0 0.02 0.39 0 0.04 0.39 0 0.06 0.39 0 0.08 0.39 0 0.1 0.39 0 0 0.395 0 0.02 0.395 0 0.04 0.395 0 0.06 0.395 0 0.08 0.395 0 0.1 0.395 0 0 0.4 0 0.02 0.4 0 0.04 0.4 0 0.06 0.4 0 0.08 0.4 0 0.1 0.4 0 0 0.405 0 0.02 0.405 0 0.04 0.405 0 0.06 0.405 0 0.08 0.405 0 0.1 0.405 0 0 0.41 0 0.02 0.41 0 0.04 0.41 0 0.06 0.41 0 0.08 0.41 0 0.1 0.41 0 0 0.415 0 0.02 0.415 0 0.04 0.415 0 0.06 0.415 0 0.08 0.415 0 0.1 0.415 0 0 0.42 0 0.02 0.42 0 0.04 0.42 0 0.06 0.42 0 0.08 0.42 0 0.1 0.42 0 0 0.425 0 0.02 0.425 0 0.04 0.425 0 0.06 0.425 0 0.08 0.425 0 0.1 0.425 0 0 0.43 0 0.02 0.43 0 0.04 0.43 0 0.06 0.43 0 0.08 0.43 0 0.1 0.43 0 0 0.435 0 0.02 0.435 0 0.04 0.435 0 0.06 0.435 0 0.08 0.435 0 0.1 0.435 0 0 0.44 0 0.02 0.44 0 0.04 0.44 0 0.06 0.44 0 0.08 0.44 0 0.1 0.44 0 0 0.445 0 0.02 0.445 0 0.04 0.445 0 0.06 0.445 0 0.08 0.445 0 0.1 0.445 0 0 0.45 0 0.02 0.45 0 0.04 0.45 0 0.06 0.45 0 0.08 0.45 0 0.1 0.45 0 0 0.455 0 0.02 0.455 0 0.04 0.455 0 0.06 0.455 0 0.08 0.455 0 0.1 0.455 0 0 0.46 0 0.02 0.46 0 0.04 0.46 0 0.06 0.46 0 0.08 0.46 0 0.1 0.46 0 0 0.465 0 0.02 0.465 0 0.04 0.465 0 0.06 0.465 0 0.08 0.465 0 0.1 0.465 0 0 0.47 0 0.02 0.47 0 0.04 0.47 0 0.06 0.47 0 0.08 0.47 0 0.1 0.47 0 0 0.475 0 0.02 0.475 0 0.04 0.475 0 0.06 0.475 0 0.08 0.475 0 0.1 0.475 0 0 0.48 0 0.02 0.48 0 0.04 0.48 0 0.06 0.48 0 0.08 0.48 0 0.1 0.48 0 0 0.485 0 0.02 0.485 0 0.04 0.485 0 0.06 0.485 0 0.08 0.485 0 0.1 0.485 0 0 0.49 0 0.02 0.49 0 0.04 0.49 0 0.06 0.49 0 0.08 0.49 0 0.1 0.49 0 0 0.495 0 0.02 0.495 0 0.04 0.495 0 0.06 0.495 0 0.08 0.495 0 0.1 0.495 0 0 0.5 0 0.02 0.5 0 0.04 0.5 0 0.06 0.5 0 0.08 0.5 0 0.1 0.5 0 0 0.505 0 0.02 0.505 0 0.04 0.505 0 0.06 0.505 0 0.08 0.505 0 0.1 0.505 0 0 0.51 0 0.02 0.51 0 0.04 0.51 0 0.06 0.51 0 0.08 0.51 0 0.1 0.51 0 0 0.515 0 0.02 0.515 0 0.04 0.515 0 0.06 0.515 0 0.08 0.515 0 0.1 0.515 0 0 0.52 0 0.02 0.52 0 0.04 0.52 0 0.06 0.52 0 0.08 0.52 0 0.1 0.52 0 0 0.525 0 0.02 0.525 0 0.04 0.525 0 0.06 0.525 0 0.08 0.525 0 0.1 0.525 0 0 0.53 0 0.02 0.53 0 0.04 0.53 0 0.06 0.53 0 0.08 0.53 0 0.1 0.53 0 0 0.535 0 0.02 0.535 0 0.04 0.535 0 0.06 0.535 0 0.08 0.535 0 0.1 0.535 0 0 0.54 0 0.02 0.54 0 0.04 0.54 0 0.06 0.54 0 0.08 0.54 0 0.1 0.54 0 0 0.545 0 0.02 0.545 0 0.04 0.545 0 0.06 0.545 0 0.08 0.545 0 0.1 0.545 0 0 0.55 0 0.02 0.55 0 0.04 0.55 0 0.06 0.55 0 0.08 0.55 0 0.1 0.55 0 0 0.555 0 0.02 0.555 0 0.04 0.555 0 0.06 0.555 0 0.08 0.555 0 0.1 0.555 0 0 0.56 0 0.02 0.56 0 0.04 0.56 0 0.06 0.56 0 0.08 0.56 0 0.1 0.56 0 0 0.565 0 0.02 0.565 0 0.04 0.565 0 0.06 0.565 0 0.08 0.565 0 0.1 0.565 0 0 0.57 0 0.02 0.57 0 0.04 0.57 0 0.06 0.57 0 0.08 0.57 0 0.1 0.57 0 0 0.575 0 0.02 0.575 0 0.04 0.575 0 0.06 0.575 0 0.08 0.575 0 0.1 0.575 0 0 0.58 0 0.02 0.58 0 0.04 0.58 0 0.06 0.58 0 0.08 0.58 0 0.1 0.58 0 0 0.585 0 0.02 0.585 0 0.04 0.585 0 0.06 0.585 0 0.08 0.585 0 0.1 0.585 0 0 0.59 0 0.02 0.59 0 0.04 0.59 0 0.06 0.59 0 0.08 0.59 0 0.1 0.59 0 0 0.595 0 0.02 0.595 0 0.04 0.595 0 0.06 0.595 0 0.08 0.595 0 0.1 0.595 0 0 0.6 0 0.02 0.6 0 0.04 0.6 0 0.06 0.6 0 0.08 0.6 0 0.1 0.6 0 0 0.605 0 0.02 0.605 0 0.04 0.605 0 0.06 0.605 0 0.08 0.605 0 0.1 0.605 0 0 0.61 0 0.02 0.61 0 0.04 0.61 0 0.06 0.61 0 0.08 0.61 0 0.1 0.61 0 0 0.615 0 0.02 0.615 0 0.04 0.615 0 0.06 0.615 0 0.08 0.615 0 0.1 0.615 0 0 0.62 0 0.02 0.62 0 0.04 0.62 0 0.06 0.62 0 0.08 0.62 0 0.1 0.62 0 0 0.625 0 0.02 0.625 0 0.04 0.625 0 0.06 0.625 0 0.08 0.625 0 0.1 0.625 0 0 0.63 0 0.02 0.63 0 0.04 0.63 0 0.06 0.63 0 0.08 0.63 0 0.1 0.63 0 0 0.635 0 0.02 0.635 0 0.04 0.635 0 0.06 0.635 0 0.08 0.635 0 0.1 0.635 0 0 0.64 0 0.02 0.64 0 0.04 0.64 0 0.06 0.64 0 0.08 0.64 0 0.1 0.64 0 0 0.645 0 0.02 0.645 0 0.04 0.645 0 0.06 0.645 0 0.08 0.645 0 0.1 0.645 0 0 0.65 0 0.02 0.65 0 0.04 0.65 0 0.06 0.65 0 0.08 0.65 0 0.1 0.65 0 0 0.655 0 0.02 0.655 0 0.04 0.655 0 0.06 0.655 0 0.08 0.655 0 0.1 0.655 0 0 0.66 0 0.02 0.66 0 0.04 0.66 0 0.06 0.66 0 0.08 0.66 0 0.1 0.66 0 0 0.665 0 0.02 0.665 0 0.04 0.665 0 0.06 0.665 0 0.08 0.665 0 0.1 0.665 0 0 0.67 0 0.02 0.67 0 0.04 0.67 0 0.06 0.67 0 0.08 0.67 0 0.1 0.67 0 0 0.675 0 0.02 0.675 0 0.04 0.675 0 0.06 0.675 0 0.08 0.675 0 0.1 0.675 0 0 0.68 0 0.02 0.68 0 0.04 0.68 0 0.06 0.68 0 0.08 0.68 0 0.1 0.68 0 0 0.685 0 0.02 0.685 0 0.04 0.685 0 0.06 0.685 0 0.08 0.685 0 0.1 0.685 0 0 0.69 0 0.02 0.69 0 0.04 0.69 0 0.06 0.69 0 0.08 0.69 0 0.1 
[...]
			<PointData Scalars="VitesseX">
				<DataArray Name="VitesseX" type="Float32" format="ascii">
 0 1.94217e-14 1.58075e-14 3.50888e-14 4.24767e-15 0 0 1.23016e-14 2.38357e-14 2.775e-14 9.98315e-15 0 0 3.91744e-15 3.27111e-14 1.60737e-14 2.17239e-14 0 0 1.19727e-14 1.52473e-14 3.40306e-14 1.16825e-14 0 0 1.34888e-14 1.41645e-14 3.54158e-14 1.28587e-14 0 0 -9.26067e-15 5.18331e-14 2.61344e-16 3.63432e-14 0 0 -7.56113e-15 3.58741e-14 2.4286e-14 1.912e-14 0 0 6.48119e-15 7.51596e-16 5.58072e-14 1.99451e-15 0 0 9.28965e-16 5.51013e-15 3.94292e-14 1.73489e-14 0 0 -1.19663e-14 1.88346e-14 2.75822e-14 1.8185e-14 0 0 -2.51336e-15 -7.93093e-15 5.9429e-14 -1.22917e-14 0 0 -8.54437e-16 -7.06652e-15 4.18988e-14 6.52139e-15 0 0 2.79266e-14 -3.67372e-14 5.20568e-14 7.90247e-15 0 0 2.01215e-14 -5.42553e-15 1.54989e-14 3.65718e-14 0 0 -8.92984e-15 5.02282e-14 -1.49042e-14 5.18772e-14 0 0 4.32355e-15 2.39698e-14 4.02167e-14 1.34966e-14 0 0 7.85882e-15 1.9895e-14 4.52085e-14 2.97458e-14 0 0 2.17406e-14 -1.91165e-14 1.08156e-13 3.86156e-15 0 0 1.54996e-15 -6.72544e-15 1.15729e-13 1.53795e-14 0 0 -4.65664e-15 1.4848e-14 7.52912e-14 5.59962e-14 0 0 -8.1025e-15 4.17046e-14 6.12902e-14 2.89924e-14 0 0 -1.04435e-14 6.08199e-14 4.59724e-14 1.39047e-14 0 0 -2.09838e-14 5.6615e-14 5.52398e-14 -7.78922e-16 0 0 -2.61784e-14 4.13966e-14 7.90926e-14 -2.98603e-14 0 0 2.44229e-14 -2.01887e-14 1.09418e-13 -3.29318e-14 0 0 4.72273e-14 -2.74662e-14 8.6213e-14 -2.92431e-15 0 0 8.99374e-15 2.1865e-14 2.8515e-14 6.41197e-14 0 0 1.04518e-14 -1.89627e-14 1.10385e-13 2.06639e-14 0 0 -5.37145e-15 1.34525e-14 1.08047e-13 5.78761e-15 0 0 -1.28666e-14 5.15955e-14 5.47765e-14 4.42638e-14 0 0 1.08569e-14 4.19764e-14 6.9226e-14 7.04071e-15 0 0 1.6722e-14 7.02276e-14 5.38646e-14 -4.44829e-15 0 0 -1.09135e-14 1.0961e-13 6.43093e-14 -1.22938e-14 0 0 -8.27553e-15 1.27847e-13 6.52729e-14 6.46393e-15 0 0 4.268e-14 8.3994e-14 8.72889e-14 2.63102e-14 0 0 2.10963e-14 1.26506e-13 6.78487e-14 4.08043e-14 0 0 6.92337e-16 1.70444e-13 2.227e-14 8.85522e-14 0 0 2.21423e-14 1.3526e-13 4.09313e-14 1.11283e-13 0 0 8.205e-14 3.11007e-14 1.50695e-13 5.52445e-14 0 0 1.21063e-14 1.05918e-13 9.56754e-14 8.95629e-14 0 0 -9.13157e-14 1.88797e-13 4.81798e-14 1.18911e-13 0 0 -8.11612e-14 1.15373e-13 1.42307e-13 4.30151e-14 0 0 -1.56478e-13 2.27594e-13 -1.36569e-14 1.15959e-13 0 0 -1.52685e-13 2.07208e-13 -2.87432e-14 1.11027e-13 0 0 -3.90017e-14 4.23601e-14 1.06136e-13 1.43747e-14 0 0 -5.62024e-14 7.01337e-14 8.30867e-14 -1.69698e-14 0 0 -9.41644e-14 9.3418e-14 1.30721e-13 -8.77489e-14 0 0 -1.07851e-13 1.17827e-13 1.14858e-13 -6.08995e-14 0 0 -1.32011e-13 1.7574e-13 4.98625e-14 -2.17768e-14 0 0 -1.08234e-13 1.80496e-13 3.09973e-14 -1.04611e-14 0 0 -3.01606e-14 7.82748e-14 1.52479e-13 -7.42266e-14 0 0 -4.51581e-14 7.72409e-14 2.07072e-13 -8.28668e-14 0 0 -2.04592e-13 3.48072e-13 -7.83103e-14 1.28001e-13 0 0 -6.61841e-14 1.61581e-13 6.13959e-14 4.5335e-14 0 0 2.7625e-14 1.58875e-14 1.95393e-13 -4.1512e-14 0 0 -2.83195e-14 1.22279e-13 1.15117e-13 1.98117e-14 0 0 7.253e-14 3.13365e-15 2.20184e-13 -1.85017e-14 0 0 -1.33205e-14 1.27832e-13 8.01962e-14 8.61238e-14 0 0 -8.8151e-14 2.3847e-13 -3.85552e-14 1.74e-13 0 0 -1.59573e-14 1.21184e-13 1.0771e-13 3.92248e-14 0 0 3.53892e-14 3.29769e-14 2.2331e-13 -3.13271e-14 0 0 1.02121e-13 2.09806e-14 1.92656e-13 1.02636e-13 0 0 4.49871e-14 1.08129e-13 1.64441e-13 2.01068e-13 0 0 -7.31124e-14 2.13043e-13 1.62118e-13 2.52057e-13 0 0 -7.94191e-14 2.28877e-13 2.28448e-13 2.19728e-13 0 0 -8.8982e-15 1.59467e-13 3.5525e-13 1.46134e-13 0 0 5.11648e-14 1.35295e-13 3.57913e-13 1.61363e-13 0 0 3.78856e-14 2.36337e-13 2.55923e-13 1.70219e-13 0 0 1.79307e-15 2.06074e-13 3.6832e-13 6.27338e-14 0 0 -1.39051e-13 2.96954e-13 3.57577e-13 1.0025e-13 0 0 -2.56428e-13 4.609e-13 2.16456e-13 2.40119e-13 0 0 -1.59113e-13 2.52209e-13 4.45643e-13 1.388e-13 0 0 -7.61832e-14 8.79076e-14 6.35794e-13 8.85155e-15 0 0 7.83852e-15 -2.02285e-14 6.3346e-13 -1.10575e-14 0 0 -1.2285e-13 2.6176e-13 2.48128e-13 1.51972e-13 0 0 -2.93925e-13 5.0642e-13 1.32191e-13 1.13841e-13 0 0 -2.29045e-14 7.95902e-14 5.7646e-13 -8.86273e-14 0 0 1.9685e-14 6.4227e-14 4.23744e-13 1.50666e-13 0 0 -1.31998e-13 2.96862e-13 2.79724e-13 2.04944e-13 0 0 -2.10371e-13 6.19008e-13 1.31325e-13 1.35075e-13 0 0 6.54974e-14 3.89114e-13 2.18658e-13 3.67604e-14 0 0 3.57336e-13 -3.21593e-14 5.54777e-13 -1.68299e-13 0 0 2.33378e-13 2.48534e-13 1.89815e-13 1.94715e-13 0 0 2.59019e-13 4.44448e-13 -3.34016e-13 7.61527e-13 0 0 6.00046e-13 9.70615e-15 6.12489e-14 5.27464e-13 0 0 6.46547e-13 -3.74349e-13 7.71134e-13 -1.56574e-13 0 0 3.47433e-13 -1.67025e-13 7.34946e-13 -2.23482e-13 0 0 -1.17736e-13 3.90101e-13 3.97692e-13 -1.32157e-13 0 0 -1.75333e-13 6.2193e-13 5.04626e-14 4.76023e-14 0 0 -1.51411e-14 5.33441e-13 -3.56989e-14 1.49652e-13 0 0 2.7643e-13 3.34956e-13 -7.25425e-15 1.84938e-13 0 0 4.97364e-13 1.71267e-13 -1.28047e-14 2.75816e-13 0 0 6.42396e-13 9.29598e-14 -2.24658e-14 4.06741e-13 0 0 6.34648e-13 1.19754e-13 -1.43856e-14 4.1275e-13 0 0 5.90515e-13 2.04142e-13 -2.60038e-15 3.90925e-13 0 0 5.01528e-13 2.24346e-13 8.65033e-14 2.79097e-13 0 0 3.81536e-13 2.67178e-13 2.70001e-13 7.13431e-14 0 0 2.81942e-13 3.39716e-13 3.82035e-13 -6.86269e-14 0 0 2.28499e-13 3.85821e-13 3.98188e-13 -7.26922e-14 0 0 2.11891e-13 4.23948e-13 3.71179e-13 -1.13724e-14 0 0 1.74221e-13 5.09216e-13 2.53153e-13 1.14569e-13 0 0 1.32277e-13 5.95766e-13 2.44038e-13 1.41342e-13 0 0 1.38474e-13 6.35446e-13 2.60081e-13 1.17604e-13 0 0 1.3169e-13 6.64015e-13 3.14166e-13 4.60224e-15 0 0 1.27366e-13 6.53726e-13 5.27719e-13 -2.18817e-13 0 0 1.01494e-13 5.3672e-13 7.19668e-13 -4.45547e-13 0 0 6.95408e-14 5.38733e-13 6.25074e-13 -4.35636e-13 0 0 1.05578e-13 5.35381e-13 4.04716e-13 -3.42771e-13 0 0 1.70565e-13 5.12761e-13 2.07688e-13 -1.20767e-13 0 0 1.94234e-13 4.54862e-13 1.95918e-13 -5.59115e-15 0 0 1.91929e-13 3.5645e-13 2.79788e-13 -7.0381e-15 0 0 1.77948e-13 2.8586e-13 3.47488e-13 -1.68898e-14 0 0 1.51881e-13 2.94864e-13 3.47045e-13 9.20031e-15 0 0 1.30731e-13 3.11527e-13 3.6887e-13 2.77005e-14 0 0 9.43384e-14 3.80944e-13 3.37799e-13 7.59499e-14 0 0 1.53995e-14 6.00698e-13 1.4081e-13 1.93158e-13 0 0 -6.17692e-15 6.87555e-13 2.53395e-14 2.62532e-13 0 0 2.38068e-14 6.59947e-13 4.6377e-14 2.5111e-13 0 0 9.53821e-14 5.31012e-13 1.57767e-13 1.76297e-13 0 0 1.31888e-13 3.68194e-13 2.75373e-13 1.61225e-13 0 0 1.62042e-13 1.92258e-13 3.74315e-13 1.94111e-13 0 0 1.97365e-13 4.36261e-15 5.6758e-13 1.15454e-13 0 0 1.46386e-13 2.40976e-14 5.71473e-13 1.16176e-13 0 0 6.8054e-14 1.59042e-13 3.60654e-13 3.16691e-13 0 0 7.64281e-14 1.98774e-13 2.77233e-13 3.13113e-13 0 0 9.26293e-14 2.04632e-13 2.91787e-13 2.64632e-13 0 0 1.12431e-13 2.604e-13 2.35902e-13 2.56438e-13 0 0 1.25523e-13 2.54121e-13 2.5483e-13 1.40493e-13 0 0 1.49333e-13 1.75243e-13 4.26304e-13 -2.51773e-14 0 0 1.57668e-13 1.57997e-13 4.44689e-13 1.47698e-14 0 0 1.23852e-13 2.1946e-13 3.19154e-13 2.12041e-13 0 0 1.01786e-13 2.70275e-13 2.29045e-13 2.60012e-13 0 0 1.12922e-13 2.51179e-13 3.08186e-13 1.57733e-13 0 0 1.17566e-13 2.49408e-13 3.36824e-13 1.44399e-13 0 0 1.39229e-13 2.47167e-13 2.61819e-13 2.77837e-13 0 0 1.84249e-13 2.34383e-13 2.61966e-13 3.09399e-13 0 0 2.36251e-13 2.01485e-13 3.40241e-13 2.08079e-13 0 0 2.12412e-13 2.86729e-13 3.26315e-13 2.04822e-13 0 0 1.84658e-13 4.03137e-13 3.14079e-13 2.26312e-13 0 0 2.19582e-13 3.71721e-13 4.26222e-13 1.30097e-13 0 0 2.46065e-13 3.95232e-13 4.49658e-13 1.40749e-13 0 0 2.53805e-13 4.12535e-13 4.59419e-13 1.38338e-13 0 0 2.90841e-13 3.34376e-13 5.71357e-13 7.98288e-14 0 0 2.59019e-13 3.75583e-13 5.21538e-13 1.45144e-13 0 0 2.46e-13 4.269e-13 4.18527e-13 1.95876e-13 0 0 2.99169e-13 3.18152e-13 5.53026e-13 1.45878e-13 0 0 1.69519e-13 5.09365e-13 4.09299e-13 2.52217e-13 0 0 1.54413e-13 5.13303e-13 4.51704e-13 1.74388e-13 0 0 1.94297e-13 4.35951e-13 5.87081e-13 9.2346e-14 0 0 2.01741e-13 4.66991e-13 5.27467e-13 2.54672e-13 0 0 2.6049e-13 4.01211e-13 5.85045e-13 2.60413e-13 0 0 1.82423e-13 5.64522e-13 4.51839e-13 2.97704e-13 0 0 2.35738e-13 5.34887e-13 4.45509e-13 3.58815e-13 0 0 2.20393e-13 5.82647e-13 3.98459e-13 4.07187e-13 0 0 2.22655e-13 5.66179e-13 4.97531e-13 3.21004e-13 0 0 3.05159e-13 4.15654e-13 7.55015e-13 1.78963e-13 0 0 2.32556e-13 5.94709e-13 5.83398e-13 3.26433e-13 0 0 2.92004e-13 7.04586e-13 3.50155e-13 5.18878e-13 0 0 4.4215e-13 6.44119e-13 3.97375e-13 4.58265e-13 0 0 5.91775e-13 5.0112e-13 6.48917e-13 1.84502e-13 0 0 4.72676e-13 6.99149e-13 5.74134e-13 1.36386e-13 0 0 3.84373e-13 8.33596e-13 4.0616e-13 3.11683e-13 0 0 3.79074e-13 8.42019e-13 3.95155e-13 3.03052e-13 0 0 4.76225e-13 6.16512e-13 7.56816e-13 -7.73882e-14 0 0 5.70297e-13 4.91935e-13 8.76974e-13 -1.98667e-13 0 0 4.69056e-13 7.60776e-13 4.27143e-13 1.68141e-13 0 0 5.09977e-13 6.74904e-13 4.8582e-13 1.45591e-13 0 0 3.33448e-13 8.30874e-13 4.66571e-13 1.08396e-13 0 0 2.01092e-13 1.02031e-12 2.81518e-13 2.75713e-13 0 0 4.51387e-13 6.9424e-13 4.77336e-13 2.11147e-13 0 0 6.06458e-13 4.22097e-13 6.82856e-13 8.65452e-14 0 0 5.88045e-13 4.36858e-13 6.86953e-13 1.03342e-13 0 0 5.17925e-13 5.678e-13 5.43788e-13 2.11259e-13 0 0 2.82287e-13 7.99097e-13 4.3989e-13 2.04543e-13 0 0 3.79109e-13 5.34337e-13 6.75864e-13 1.16404e-13 0 0 4.12019e-13 5.09085e-13 4.64108e-13 3.10531e-13 0 0 3.43404e-13 5.73726e-13 4.40531e-13 2.13919e-13 0 0 4.15463e-13 4.34245e-13 6.67013e-13 1.3331e-14 0 0 2.44023e-13 6.57437e-13 5.82495e-13 -2.33811e-14 0 0 2.85593e-13 6.17524e-13 5.75144e-13 -1.49799e-14 0 0 3.70925e-13 5.4228e-13 5.0278e-13 8.22429e-14 0 0 2.5664e-13 7.43884e-13 3.11986e-13 1.96948e-13 0 0 3.18442e-13 6.8976e-13 2.39758e-13 2.81667e-13 0 0 5.77316e-13 2.72071e-13 3.72299e-13 4.31664e-13 0 0 5.65613e-13 2.68597e-13 3.27826e-13 5.52767e-13 0 0 2.15869e-13 7.39247e-13 1.63141e-13 4.35707e-13 0 0 2.37161e-13 6.65793e-13 3.91775e-13 2.36575e-13 0 0 5.01489e-13 2.55579e-13 6.80765e-13 2.34217e-13 0 0 4.98155e-13 2.29199e-13 5.50273e-13 5.10039e-13 0 0 3.79935e-13 4.70552e-13 3.81529e-13 5.31752e-13 0 0 3.38288e-13 6.48443e-13 3.38285e-13 4.03652e-13 0 0 4.93987e-13 3.8353e-13 5.86044e-13 4.21555e-13 0 0 4.96048e-13 3.85381e-13 5.45982e-13 5.85398e-13 0 0 1.7314e-13 9.32077e-13 4.1604e-14 8.06908e-13 0 0 4.00956e-15 9.62856e-13 1.92849e-13 6.80788e-13 0 0 1.08577e-13 5.52216e-13 7.18578e-13 3.55497e-13 0 0 1.61994e-13 4.67767e-13 8.17967e-13 1.56869e-13 0 0 -7.00492e-14 9.22651e-13 4.42445e-13 2.63678e-13 0 0 4.49628e-14 7.90967e-13 4.93994e-13 3.9485e-13 0 0 5.46888e-13 -1.18321e-13 1.53036e-12 -1.74056e-13 0 0 7.20356e-13 -4.91094e-13 2.11e-12 -5.94624e-13 0
				</DataArray>
				<DataArray Name="VitesseY" type="Float32" format="ascii">