<?xml version="1.0"?>
<VTKFile type="PolyData">
	<PolyData>
		<Piece NumberOfPoints="1206" NumberOfPolys="1000">
			<Points>
				<DataArray type="Float32" NumberOfComponents="3" format="ascii">
 0 0 0 0.02 0 0 0.04 0 0 0.06 0 0 0.08 0 0 0.1 0 0 0 0.005 0 0.02 0.005 0 0.04 0.005 0 0.06 0.005 0 0.08 0.005 0 0.1 0.005 0 0 0.01 0 0.02 0.01 0 0.04 0.01 0 0.06 0.01 0 0.08 0.01 0 0.1 0.01 0 0 0.015 0 0.02 0.015 0 0.04 0.015 0 0.06 0.015 0 0.08 0.015 0 0.1 0.015 0 0 0.02 0 0.02 0.02 0 0.04 0.02 0 0.06 0.02 0 0.08 0.02 0 0.1 0.02 0 0 0.025 0 0.02 0.025 0 0.04 0.025 0 0.06 0.025 0 0.08 0.025 0 0.1 0.025 0 0 0.03 0 0.02 0.03 0 0.04 0.03 0 0.06 0.03 0 0.08 0.03 0 0.1 0.03 0 0 0.035 0 0.02 0.035 0 0.04 0.035 0 0.06 0.035 0 0.08 0.035 0 0.1 0.035 0 0 0.04 0 0.02 0.04 0 0.04 0.04 0 0.06 0.04 0 0.08 0.04 0 0.1 0.04 0 0 0.045 0 0.02 0.045 0 0.04 0.045 0 0.06 0.045 0 0.08 0.045 0 0.1 0.045 0 0 0.05 0 0.02 0.05 0 0.04 0.05 0 0.06 0.05 0 0.08 0.05 0 0.1 0.05 0 0 0.055 0 0.02 0.055 0 0.04 0.055 0 0.06 0.055 0 0.08 0.055 0 0.1 0.055 0 0 0.06 0 0.02 0.06 0 0.04 0.06 0 0.06 0.06 0 0.08 0.06 0 0.1 0.06 0 0 0.065 0 0.02 0.065 0 0.04 0.065 0 0.06 0.065 0 0.08 0.065 0 0.1 0.065 0 0 0.07 0 0.02 0.07 0 0.04 0.07 0 0.06 0.07 0 0.08 0.07 0 0.1 0.07 0 0 0.075 0 0.02 0.075 0 0.04 0.075 0 0.06 0.075 0 0.08 0.075 0 0.1 0.075 0 0 0.08 0 0.02 0.08 0 0.04 0.08 0 0.06 0.08 0 0.08 0.08 0 0.1 0.08 0 0 0.085 0 0.02 0.085 0 0.04 0.085 0 0.06 0.085 0 0.08 0.085 0 0.1 0.085 0 0 0.09 0 0.02 0.09 0 0.04 0.09 0 0.06 0.09 0 0.08 0.09 0 0.1 0.09 0 0 0.095 0 0.02 0.095 0 0.04 0.095 0 0.06 0.095 0 0.08 0.095 0 0.1 0.095 0 0 0.1 0 0.02 0.1 0 0.04 0.1 0 0.06 0.1 0 0.08 0.1 0 0.1 0.1 0 0 0.105 0 0.02 0.105 0 0.04 0.105 0 0.06 0.105 0 0.08 0.105 0 0.1 0.105 0 0 0.11 0 0.02 0.11 0 0.04 0.11 0 0.06 0.11 0 0.08 0.11 0 0.1 0.11 0 0 0.115 0 0.02 0.115 0 0.04 0.115 0 0.06 0.115 0 0.08 0.115 0 0.1 0.115 0 0 0.12 0 0.02 0.12 0 0.04 0.12 0 0.06 0.12 0 0.08 0.12 0 0.1 0.12 0 0 0.125 0 0.02 0.125 0 0.04 0.125 0 0.06 0.125 0 0.08 0.125 0 0.1 0.125 0 0 0.13 0 0.02 0.13 0 0.04 0.13 0 0.06 0.13 0 0.08 0.13 0 0.1 0.13 0 0 0.135 0 0.02 0.135 0 0.04 0.135 0 0.06 0.135 0 0.08 0.135 0 0.1 0.135 0 0 0.14 0 0.02 0.14 0 0.04 0.14 0 0.06 0.14 0 0.08 0.14 0 0.1 0.14 0 0 0.145 0 0.02 0.145 0 0.04 0.145 0 0.06 0.145 0 0.08 0.145 0 0.1 0.145 0 0 0.15 0 0.02 0.15 0 0.04 0.15 0 0.06 0.15 0 0.08 0.15 0 0.1 0.15 0 0 0.155 0 0.02 0.155 0 0.04 0.155 0 0.06 0.155 0 0.08 0.155 0 0.1 0.155 0 0 0.16 0 0.02 0.16 0 0.04 0.16 0 0.06 0.16 0 0.08 0.16 0 0.1 0.16 0 0 0.165 0 0.02 0.165 0 0.04 0.165 0 0.06 0.165 0 0.08 0.165 0 0.1 0.165 0 0 0.17 0 0.02 0.17 0 0.04 0.17 0 0.06 0.17 0 0.08 0.17 0 0.1 0.17 0 0 0.175 0 0.02 0.175 0 0.04 0.175 0 0.06 0.175 0 0.08 0.175 0 0.1 0.175 0 0 0.18 0 0.02 0.18 0 0.04 0.18 0 0.06 0.18 0 0.08 0.18 0 0.1 0.18 0 0 0.185 0 0.02 0.185 0 0.04 0.185 0 0.06 0.185 0 0.08 0.185 0 0.1 0.185 0 0 0.19 0 0.02 0.19 0 0.04 0.19 0 0.06 0.19 0 0.08 0.19 0 0.1 0.19 0 0 0.195 0 0.02 0.195 0 0.04 0.195 0 0.06 0.195 0 0.08 0.195 0 0.1 0.195 0 0 0.2 0 0.02 0.2 0 0.04 0.2 0 0.06 0.2 0 0.08 0.2 0 0.1 0.2 0 0 0.205 0 0.02 0.205 0 0.04 0.205 0 0.06 0.205 0 0.08 0.205 0 0.1 0.205 0 0 0.21 0 0.02 0.21 0 0.04 0.21 0 0.06 0.21 0 0.08 0.21 0 0.1 0.21 0 0 0.215 0 0.02 0.215 0 0.04 0.215 0 0.06 0.215 0 0.08 0.215 0 0.1 0.215 0 0 0.22 0 0.02 0.22 0 0.04 0.22 0 0.06 0.22 0 0.08 0.22 0 0.1 0.22 0 0 0.225 0 0.02 0.225 0 0.04 0.225 0 0.06 0.225 0 0.08 0.225 0 0.1 0.225 0 0 0.23 0 0.02 0.23 0 0.04 0.23 0 0.06 0.23 0 0.08 0.23 0 0.1 0.23 0 0 0.235 0 0.02 0.235 0 0.04 0.235 0 0.06 0.235 0 0.08 0.235 0 0.1 0.235 0 0 0.24 0 0.02 0.24 0 0.04 0.24 0 0.06 0.24 0 0.08 0.24 0 0.1 0.24 0 0 0.245 0 0.02 0.245 0 0.04 0.245 0 0.06 0.245 0 0.08 0.245 0 0.1 0.245 0 0 0.25 0 0.02 0.25 0 0.04 0.25 0 0.06 0.25 0 0.08 0.25 0 0.1 0.25 0 0 0.255 0 0.02 0.255 0 0.04 0.255 0 0.06 0.255 0 0.08 0.255 0 0.1 0.255 0 0 0.26 0 0.02 0.26 0 0.04 0.26 0 0.06 0.26 0 0.08 0.26 0 0.1 0.26 0 0 0.265 0 0.02 0.265 0 0.04 0.265 0 0.06 0.265 0 0.08 0.265 0 0.1 0.265 0 0 0.27 0 0.02 0.27 0 0.04 0.27 0 0.06 0.27 0 0.08 0.27 0 0.1 0.27 0 0 0.275 0 0.02 0.275 0 0.04 0.275 0 0.06 0.275 0 0.08 0.275 0 0.1 0.275 0 0 0.28 0 0.02 0.28 0 0.04 0.28 0 0.06 0.28 0 0.08 0.28 0 0.1 0.28 0 0 0.285 0 0.02 0.285 0 0.04 0.285 0 0.06 0.285 0 0.08 0.285 0 0.1 0.285 0 0 0.29 0 0.02 0.29 0 0.04 0.29 0 0.06 0.29 0 0.08 0.29 0 0.1 0.29 0 0 0.295 0 0.02 0.295 0 0.04 0.295 0 0.06 0.295 0 0.08 0.295 0 0.1 0.295 0 0 0.3 0 0.02 0.3 0 0.04 0.3 0 0.06 0.3 0 0.08 0.3 0 0.1 0.3 0 0 0.305 0 0.02 0.305 0 0.04 0.305 0 0.06 0.305 0 0.08 0.305 0 0.1 0.305 0 0 0.31 0 0.02 0.31 0 0.04 0.31 0 0.06 0.31 0 0.08 0.31 0 0.1 0.31 0 0 0.315 0 0.02 0.315 0 0.04 0.315 0 0.06 0.315 0 0.08 0.315 0 0.1 0.315 0 0 0.32 0 0.02 0.32 0 0.04 0.32 0 0.06 0.32 0 0.08 0.32 0 0.1 0.32 0 0 0.325 0 0.02 0.325 0 0.04 0.325 0 0.06 0.325 0 0.08 0.325 0 0.1 0.325 0 0 0.33 0 0.02 0.33 0 0.04 0.33 0 0.06 0.33 0 0.08 0.33 0 0.1 0.33 0 0 0.335 0 0.02 0.335 0 0.04 0.335 0 0.06 0.335 0 0.08 0.335 0 0.1 0.335 0 0 0.34 0 0.02 0.34 0 0.04 0.34 0 0.06 0.34 0 0.08 0.34 0 0.1 0.34 0 0 0.345 0 0.02 0.345 0 0.04 0.345 0 0.06 0.345 0 0.08 0.345 0 0.1 0.345 0 0 0.35 0 0.02 0.35 0 0.04 0.35 0 0.06 0.35 0 0.08 0.35 0 0.1 0.35 0 0 0.355 0 0.02 0.355 0 0.04 0.355 0 0.06 0.355 0 0.08 0.355 0 0.1 0.355 0 0 0.36 0 0.02 0.36 0 0.04 0.36 0 0.06 0.36 0 0.08 0.36 0 0.1 0.36 0 0 0.365 0 0.02 0.365 0 0.04 0.365 0 0.06 0.365 0 0.08 0.365 0 0.1 0.365 0 0 0.37 0 0.02 0.37 0 0.04 0.37 0 0.06 0.37 0 0.08 0.37 0 0.1 0.37 0 0 0.375 0 0.02 0.375 0 0.04 0.375 0 0.06 0.375 0 0.08 0.375 0 0.1 0.375 0 0 0.38 0 0.02 0.38 0 0.04 0.38 0 0.06 0.38 0 0.08 0.38 0 0.1 0.38 0 0 0.385 0 0.02 0.385 0 0.04 0.385 0 0.06 0.385 0 0.08 0.385 0 0.1 0.385 0 0 0.39 0 0.02 0.39 0 0.04 0.39 0 0.06 0.39 0 0.08 0.39 0 0.1 0.39 0 0 0.395 0 0.02 0.395 0 0.04 0.395 0 0.06 0.395 0 0.08 0.395 0 0.1 0.395 0 0 0.4 0 0.02 0.4 0 0.04 0.4 0 0.06 0.4 0 0.08 0.4 0 0.1 0.4 0 0 0.405 0 0.02 0.405 0 0.04 0.405 0 0.06 0.405 0 0.08 0.405 0 0.1 0.405 0 0 0.41 0 0.02 0.41 0 0.04 0.41 0 0.06 0.41 0 0.08 0.41 0 0.1 0.41 0 0 0.415 0 0.02 0.415 0 0.04 0.415 0 0.06 0.415 0 0.08 0.415 0 0.1 0.415 0 0 0.42 0 0.02 0.42 0 0.04 0.42 0 0.06 0.42 0 0.08 0.42 0 0.1 0.42 0 0 0.425 0 0.02 0.425 0 0.04 0.425 0 0.06 0.425 0 0.08 0.425 0 0.1 0.425 0 0 0.43 0 0.02 0.43 0 0.04 0.43 0 0.06 0.43 0 0.08 0.43 0 0.1 0.43 0 0 0.435 0 0.02 0.435 0 0.04 0.435 0 0.06 0.435 0 0.08 0.435 0 0.1 0.435 0 0 0.44 0 0.02 0.44 0 0.04 0.44 0 0.06 0.44 0 0.08 0.44 0 0.1 0.44 0 0 0.445 0 0.02 0.445 0 0.04 0.445 0 0.06 0.445 0 0.08 0.445 0 0.1 0.445 0 0 0.45 0 0.02 0.45 0 0.04 0.45 0 0.06 0.45 0 0.08 0.45 0 0.1 0.45 0 0 0.455 0 0.02 0.455 0 0.04 0.455 0 0.06 0.455 0 0.08 0.455 0 0.1 0.455 0 0 0.46 0 0.02 0.46 0 0.04 0.46 0 0.06 0.46 0 0.08 0.46 0 0.1 0.46 0 0 0.465 0 0.02 0.465 0 0.04 0.465 0 0.06 0.465 0 0.08 0.465 0 0.1 0.465 0 0 0.47 0 0.02 0.47 0 0.04 0.47 0 0.06 0.47 0 0.08 0.47 0 0.1 0.47 0 0 0.475 0 0.02 0.475 0 0.04 0.475 0 0.06 0.475 0 0.08 0.475 0 0.1 0.475 0 0 0.48 0 0.02 0.48 0 0.04 0.48 0 0.06 0.48 0 0.08 0.48 0 0.1 0.48 0 0 0.485 0 0.02 0.485 0 0.04 0.485 0 0.06 0.485 0 0.08 0.485 0 0.1 0.485 0 0 0.49 0 0.02 0.49 0 0.04 0.49 0 0.06 0.49 0 0.08 0.49 0 0.1 0.49 0 0 0.495 0 0.02 0.495 0 0.04 0.495 0 0.06 0.495 0 0.08 0.495 0 0.1 0.495 0 0 0.5 0 0.02 0.5 0 0.04 0.5 0 0.06 0.5 0 0.08 0.5 0 0.1 0.5 0 0 0.505 0 0.02 0.505 0 0.04 0.505 0 0.06 0.505 0 0.08 0.505 0 0.1 0.505 0 0 0.51 0 0.02 0.51 0 0.04 0.51 0 0.06 0.51 0 0.08 0.51 0 0.1 0.51 0 0 0.515 0 0.02 0.515 0 0.04 0.515 0 0.06 0.515 0 0.08 0.515 0 0.1 0.515 0 0 0.52 0 0.02 0.52 0 0.04 0.52 0 0.06 0.52 0 0.08 0.52 0 0.1 0.52 0 0 0.525 0 0.02 0.525 0 0.04 0.525 0 0.06 0.525 0 0.08 0.525 0 0.1 0.525 0 0 0.53 0 0.02 0.53 0 0.04 0.53 0 0.06 0.53 0 0.08 0.53 0 0.1 0.53 0 0 0.535 0 0.02 0.535 0 0.04 0.535 0 0.06 0.535 0 0.08 0.535 0 0.1 0.535 0 0 0.54 0 0.02 0.54 0 0.04 0.54 0 0.06 0.54 0 0.08 0.54 0 0.1 0.54 0 0 0.545 0 0.02 0.545 0 0.04 0.545 0 0.06 0.545 0 0.08 0.545 0 0.1 0.545 0 0 0.55 0 0.02 0.55 0 0.04 0.55 0 0.06 0.55 0 0.08 0.55 0 0.1 0.55 0 0 0.555 0 0.02 0.555 0 0.04 0.555 0 0.06 0.555 0 0.08 0.555 0 0.1 0.555 0 0 0.56 0 0.02 0.56 0 0.04 0.56 0 0.06 0.56 0 0.08 0.56 0 0.1 0.56 0 0 0.565 0 0.02 0.565 0 0.04 0.565 0 0.06 0.565 0 0.08 0.565 0 0.1 0.565 0 0 0.57 0 0.02 0.57 0 0.04 0.57 0 0.06 0.57 0 0.08 0.57 0 0.1 0.57 0 0 0.575 0 0.02 0.575 0 0.04 0.575 0 0.06 0.575 0 0.08 0.575 0 0.1 0.575 0 0 0.58 0 0.02 0.58 0 0.04 0.58 0 0.06 0.58 0 0.08 0.58 0 0.1 0.58 0 0 0.585 0 0.02 0.585 0 0.04 0.585 0 0.06 0.585 0 0.08 0.585 0 0.1 0.585 0 0 0.59 0 0.02 0.59 0 0.04 0.59 0 0.06 0.59 0 0.08 0.59 0 0.1 0.59 0 0 0.595 0 0.02 0.595 0 0.04 0.595 0 0.06 0.595 0 0.08 0.595 0 0.1 0.595 0 0 0.6 0 0.02 0.6 0 0.04 0.6 0 0.06 0.6 0 0.08 0.6 0 0.1 0.6 0 0 0.605 0 0.02 0.605 0 0.04 0.605 0 0.06 0.605 0 0.08 0.605 0 0.1 0.605 0 0 0.61 0 0.02 0.61 0 0.04 0.61 0 0.06 0.61 0 0.08 0.61 0 0.1 0.61 0 0 0.615 0 0.02 0.615 0 0.04 0.615 0 0.06 0.615 0 0.08 0.615 0 0.1 0.615 0 0 0.62 0 0.02 0.62 0 0.04 0.62 0 0.06 0.62 0 0.08 0.62 0 0.1 0.62 0 0 0.625 0 0.02 0.625 0 0.04 0.625 0 0.06 0.625 0 0.08 0.625 0 0.1 0.625 0 0 0.63 0 0.02 0.63 0 0.04 0.63 0 0.06 0.63 0 0.08 0.63 0 0.1 0.63 0 0 0.635 0 0.02 0.635 0 0.04 0.635 0 0.06 0.635 0 0.08 0.635 0 0.1 0.635 0 0 0.64 0 0.02 0.64 0 0.04 0.64 0 0.06 0.64 0 0.08 0.64 0 0.1 0.64 0 0 0.645 0 0.02 0.645 0 0.04 0.645 0 0.06 0.645 0 0.08 0.645 0 0.1 0.645 0 0 0.65 0 0.02 0.65 0 0.04 0.65 0 0.06 0.65 0 0.08 0.65 0 0.1 0.65 0 0 0.655 0 0.02 0.655 0 0.04 0.655 0 0.06 0.655 0 0.08 0.655 0 0.1 0.655 0 0 0.66 0 0.02 0.66 0 0.04 0.66 0 0.06 0.66 0 0.08 0.66 0 0.1 0.66 0 0 0.665 0 0.02 0.665 0 0.04 0.665 0 0.06 0.665 0 0.08 0.665 0 0.1 0.665 0 0 0.67 0 0.02 0.67 0 0.04 0.67 0 0.06 0.67 0 0.08 0.67 0 0.1 0.67 0 0 0.675 0 0.02 0.675 0 0.04 0.675 0 0.06 0.675 0 0.08 0.675 0 0.1 0.675 0 0 0.68 0 0.02 0.68 0 0.04 0.68 0 0.06 0.68 0 0.08 0.68 0 0.1 0.68 0 0 0.685 0 0.02 0.685 0 0.04 0.685 0 0.06 0.685 0 0.08 0.685 0 0.1 0.685 0 0 0.69 0 0.02 0.69 0 0.04 0.69 0 0.06 0.69 0 0.08 0.69 0 0.1 
[...]
			<PointData Scalars="VitesseX">
				<DataArray Name="VitesseX" type="Float32" format="ascii">
 0 -8.23477e-16 -1.9572e-14 1.69257e-15 -1.27008e-14 0 0 -3.39316e-15 -1.43461e-14 -3.63004e-15 -9.20936e-15 0 0 -7.69608e-15 -3.6821e-15 -1.221e-14 -4.67769e-15 0 0 -3.9038e-16 -1.06114e-14 -2.15533e-15 -1.31783e-14 0 0 -9.39406e-16 -4.33988e-15 -1.01904e-14 -8.44779e-15 0 0 -8.73854e-15 1.51166e-14 -3.61612e-14 9.47412e-15 0 0 -5.18305e-15 7.69595e-15 -2.26731e-14 -5.4117e-15 0 0 5.35502e-15 -2.12801e-14 1.48205e-14 -3.24478e-14 0 0 3.8705e-15 -2.20493e-14 8.44361e-15 -2.26192e-14 0 0 4.9046e-15 -1.0292e-14 -8.57934e-15 -1.78379e-14 0 0 1.6499e-14 -1.95515e-14 -2.0912e-15 -2.9838e-14 0 0 5.55986e-15 1.10581e-15 -4.11295e-14 8.26147e-15 0 0 1.57804e-14 -2.48638e-14 -1.53011e-14 -4.59903e-17 0 0 7.21198e-15 -2.76131e-14 7.55459e-15 -3.1526e-14 0 0 -2.5602e-14 1.06773e-14 -1.89258e-14 -2.41151e-14 0 0 -9.44063e-15 -1.26383e-14 8.91517e-15 -4.2694e-14 0 0 -1.40974e-14 1.22279e-14 -1.68173e-14 -3.31213e-14 0 0 -1.88015e-14 2.84212e-14 -5.76563e-14 1.86963e-14 0 0 1.1245e-14 -1.92768e-14 -4.06226e-14 3.07611e-14 0 0 1.52178e-14 -3.03248e-14 -1.29754e-14 -5.38991e-15 0 0 -2.03862e-14 1.87793e-14 -1.98203e-14 -3.25525e-14 0 0 -3.73179e-14 4.54253e-14 -4.44582e-14 -1.52439e-14 0 0 1.32593e-14 -2.78238e-14 1.96176e-14 -4.34994e-14 0 0 2.17289e-14 -3.97843e-14 5.45375e-14 -9.1798e-14 0 0 2.20657e-14 -2.57083e-14 2.72932e-14 -7.59243e-14 0 0 7.25647e-14 -1.08633e-13 8.25156e-14 -8.70646e-14 0 0 2.1719e-14 -4.17988e-14 3.03504e-14 -5.94438e-14 0 0 -7.63937e-15 1.62359e-14 -2.69171e-14 -3.74752e-14 0 0 5.55236e-14 -8.04796e-14 3.23916e-14 -6.66328e-14 0 0 3.43547e-14 -7.67129e-14 1.23788e-14 -2.94684e-14 0 0 -1.23596e-14 -2.26041e-14 -1.85039e-14 -2.14105e-14 0 0 -1.5063e-14 -1.65165e-14 -1.04407e-14 -4.82915e-14 0 0 -8.63578e-15 -2.87809e-14 -2.14961e-14 -1.27866e-14 0 0 -4.35553e-14 2.23726e-14 -1.11275e-13 7.6371e-14 0 0 -5.12764e-14 3.39208e-14 -9.88119e-14 1.54431e-14 0 0 -2.97988e-15 -4.83045e-14 2.88062e-14 -1.12515e-13 0 0 -7.68884e-15 -3.3467e-14 2.44407e-15 -6.65719e-14 0 0 7.47585e-15 -2.49962e-14 -4.59331e-14 -1.73539e-15 0 0 4.71599e-14 -7.57953e-14 -1.6603e-15 -2.71326e-14 0 0 2.0867e-14 -1.65466e-14 -6.22819e-14 1.57411e-14 0 0 -2.59023e-14 6.42357e-14 -1.45719e-13 7.62735e-14 0 0 -1.13649e-14 1.11743e-14 -4.93674e-14 -1.28239e-14 0 0 -3.02404e-14 2.58353e-14 -3.50965e-14 -3.69485e-14 0 0 -2.76904e-14 2.94906e-14 -2.99379e-14 -4.15628e-14 0 0 4.53006e-14 -6.47627e-14 5.8597e-14 -5.20622e-14 0 0 3.92531e-14 -4.89203e-14 6.61186e-14 -3.56861e-14 0 0 3.58079e-14 -6.86651e-14 1.47348e-13 -1.14899e-13 0 0 1.39008e-15 1.73473e-14 5.03986e-14 -4.87543e-14 0 0 -3.67316e-14 1.40056e-13 -1.15176e-13 8.28335e-14 0 0 -2.30158e-14 1.35388e-13 -9.90228e-14 8.58516e-14 0 0 -5.18544e-14 1.88762e-13 -7.98861e-14 4.30579e-14 0 0 -3.44695e-14 2.08887e-13 -7.13897e-14 3.97854e-14 0 0 1.19659e-14 1.50037e-13 -1.30287e-14 4.42974e-14 0 0 -1.70853e-14 8.57349e-14 8.22079e-14 2.13999e-14 0 0 -4.40178e-14 9.1663e-14 6.10777e-14 3.13962e-14 0 0 3.623e-14 6.22172e-14 -5.99328e-15 9.62213e-14 0 0 6.40236e-14 -7.25672e-15 4.96146e-14 2.69637e-14 0 0 -3.34489e-14 5.99146e-14 4.39686e-14 -9.0302e-14 0 0 -3.85882e-14 1.33609e-13 -9.57375e-14 -2.23384e-14 0 0 9.7796e-14 4.90972e-15 -2.57226e-14 -7.84761e-14 0 0 1.65445e-13 -1.38411e-13 1.39528e-13 -1.88245e-13 0 0 6.74135e-14 -2.97482e-14 1.47719e-14 -8.94341e-14 0 0 1.65204e-14 7.30318e-14 -1.32975e-13 -7.35053e-14 0 0 1.79144e-14 1.08147e-13 -2.43943e-13 -1.0807e-13 0 0 3.91824e-14 9.1209e-14 -2.85342e-13 -1.50091e-13 0 0 1.52046e-13 -3.69987e-14 -1.72061e-13 -2.4347e-13 0 0 1.65977e-13 2.64858e-14 -2.27642e-13 -2.04824e-13 0 0 1.37531e-13 8.32934e-14 -2.73597e-13 -1.46252e-13 0 0 1.22322e-13 -4.18748e-14 -1.35353e-13 -1.62643e-13 0 0 -5.93845e-14 6.22305e-14 -1.44443e-13 -1.4184e-13 0 0 -1.51372e-13 1.96492e-13 -2.41358e-13 -1.31835e-13 0 0 -6.59274e-14 1.6055e-13 -3.13978e-13 -1.48168e-13 0 0 3.10959e-14 1.15989e-14 -1.78083e-13 -2.5405e-13 0 0 2.66713e-14 -1.25307e-13 6.58677e-15 -4.47335e-13 0 0 -9.8247e-14 -3.69179e-14 -2.53773e-14 -4.59093e-13 0 0 -2.19466e-13 9.21372e-14 -1.38001e-13 -3.14849e-13 0 0 -2.11075e-13 9.42547e-14 -1.83062e-13 -1.40304e-13 0 0 -1.49924e-13 -2.70069e-14 -1.26191e-13 -2.29027e-14 0 0 -1.54909e-13 -1.09261e-13 -8.05275e-14 1.03576e-13 0 0 -2.20641e-13 -5.85259e-14 -1.44535e-13 1.22377e-13 0 0 -3.75542e-13 8.86182e-14 -2.86451e-13 1.13982e-13 0 0 -5.22435e-13 1.80783e-13 -3.21558e-13 9.99927e-14 0 0 -4.99661e-13 1.65463e-13 -2.80316e-13 1.47522e-14 0 0 -4.4759e-13 7.47459e-14 -1.59871e-13 -9.26307e-14 0 0 -3.89191e-13 -6.1563e-14 -1.65472e-14 -2.03348e-13 0 0 -3.34586e-13 -1.6299e-13 -2.43207e-14 -2.00574e-13 0 0 -2.72129e-13 -2.3604e-13 -6.67232e-14 -1.6711e-13 0 0 -2.09734e-13 -2.33221e-13 -1.64593e-13 -7.64377e-14 0 0 -1.56502e-13 -2.25373e-13 -2.61362e-13 6.17633e-14 0 0 -1.38724e-13 -2.23345e-13 -3.57197e-13 5.04455e-14 0 0 -1.41059e-13 -2.21221e-13 -3.49873e-13 1.14961e-14 0 0 -1.76747e-13 -2.02762e-13 -3.31624e-13 -5.18423e-14 0 0 -2.62423e-13 -1.48733e-13 -3.18563e-13 -1.70433e-13 0 0 -3.45851e-13 -1.03933e-13 -3.00538e-13 -3.13619e-13 0 0 -4.12486e-13 -1.10939e-13 -2.48489e-13 -4.24441e-13 0 0 -4.41208e-13 -1.21379e-13 -2.55524e-13 -4.24054e-13 0 0 -4.35352e-13 -1.31584e-13 -2.78582e-13 -3.93317e-13 0 0 -4.21218e-13 -1.6087e-13 -2.98914e-13 -3.04584e-13 0 0 -4.23145e-13 -1.74956e-13 -3.29898e-13 -1.99599e-13 0 0 -4.60629e-13 -1.54109e-13 -3.71176e-13 -9.47337e-14 0 0 -4.64192e-13 -1.56171e-13 -4.0974e-13 8.30017e-15 0 0 -4.59852e-13 -1.71576e-13 -4.07421e-13 5.51977e-14 0 0 -4.46038e-13 -2.30289e-13 -3.74543e-13 4.86718e-14 0 0 -3.98128e-13 -3.26764e-13 -2.90773e-13 1.52106e-14 0 0 -3.0904e-13 -4.05101e-13 -1.9523e-13 -4.29267e-14 0 0 -2.12399e-13 -5.7053e-13 6.48008e-15 -1.66199e-13 0 0 -1.05435e-13 -6.32865e-13 9.48736e-14 -2.7439e-13 0 0 -8.06128e-14 -5.94215e-13 3.32536e-14 -2.20399e-13 0 0 -8.90672e-14 -4.24178e-13 -2.76795e-13 7.55856e-14 0 0 -7.15367e-14 -2.13524e-13 -5.91066e-13 3.77109e-13 0 0 -3.02591e-14 -1.10482e-13 -5.75044e-13 3.91461e-13 0 0 -1.54575e-15 -1.58655e-13 -3.75436e-13 2.57917e-13 0 0 -1.31163e-14 -1.58002e-13 -1.9712e-13 1.43572e-13 0 0 -4.18817e-14 -1.04599e-13 -9.33166e-14 1.61791e-13 0 0 -6.99639e-14 -1.17488e-13 1.37092e-13 3.92625e-14 0 0 -9.79324e-14 -1.13561e-13 1.31508e-13 -5.3856e-14 0 0 -1.11545e-13 -8.78132e-14 6.26037e-14 1.52995e-14 0 0 -1.17111e-13 -9.65704e-14 4.88731e-14 3.47242e-14 0 0 -9.45703e-14 -1.28336e-13 7.10745e-14 1.50222e-14 0 0 -3.08406e-14 -1.72393e-13 9.23192e-14 3.64769e-14 0 0 -1.02885e-15 -1.47099e-13 2.03632e-14 1.47216e-13 0 0 1.83402e-14 -1.02731e-13 -1.48943e-15 1.63428e-13 0 0 6.86691e-14 -1.28403e-13 9.65909e-14 7.24961e-14 0 0 6.74078e-14 -1.1601e-13 1.41823e-13 3.44599e-14 0 0 3.78033e-14 8.56617e-15 7.59298e-14 7.5436e-14 0 0 -5.17856e-14 2.42127e-13 -9.39013e-14 1.71383e-13 0 0 -6.98535e-14 3.17665e-13 -2.09572e-13 2.51866e-13 0 0 -4.12089e-14 2.79991e-13 -1.743e-13 2.34459e-13 0 0 5.50263e-14 8.60069e-14 -3.39805e-14 1.90057e-13 0 0 1.25418e-13 -1.89083e-13 1.0182e-13 1.30796e-13 0 0 1.2927e-13 -2.95821e-13 2.33953e-13 -3.71795e-14 0 0 5.88053e-14 -2.62379e-13 2.14989e-13 -2.89398e-14 0 0 -5.95551e-14 -1.1892e-13 -3.79525e-14 1.51318e-13 0 0 -5.92673e-14 -6.63635e-14 -1.98708e-13 1.67109e-13 0 0 -2.67765e-14 -5.89161e-14 -1.68847e-13 6.73019e-14 0 0 -4.45353e-15 -5.63306e-14 -1.51428e-13 -5.10807e-14 0 0 -1.58696e-14 -4.81174e-14 -1.52965e-13 -1.21438e-13 0 0 -1.93534e-14 -4.6828e-14 -1.60679e-13 -1.70801e-13 0 0 -7.41622e-15 -5.1428e-14 -1.64878e-13 -2.22835e-13 0 0 -2.02676e-16 -5.71392e-14 -1.7759e-13 -2.24891e-13 0 0 -1.4213e-14 -6.12561e-14 -1.97877e-13 -1.55295e-13 0 0 -6.7147e-14 -5.21549e-14 -1.86603e-13 -4.22681e-14 0 0 -7.5466e-14 -6.55382e-14 -1.86015e-13 -4.4618e-14 0 0 -5.58527e-14 -1.44981e-13 -1.24328e-13 -1.18757e-13 0 0 -4.92363e-14 -1.70558e-13 -1.20902e-13 -1.62002e-13 0 0 -4.30676e-14 -2.28405e-13 -1.3404e-13 -9.05614e-14 0 0 -4.34681e-14 -2.65433e-13 -9.35178e-14 -1.33428e-13 0 0 -6.56431e-14 -2.1159e-13 -1.79279e-13 -1.89913e-13 0 0 -8.17672e-14 -1.59986e-13 -2.92732e-13 -1.79931e-13 0 0 -6.55344e-14 -1.26079e-13 -3.42058e-13 -2.7688e-13 0 0 -3.42361e-14 -1.45015e-13 -2.69899e-13 -4.84639e-13 0 0 -3.33325e-14 -1.40961e-13 -1.6183e-13 -4.39981e-13 0 0 -3.4853e-14 -1.15155e-13 -1.78893e-13 8.81702e-14 0 0 -4.32209e-14 -9.00269e-14 -1.46723e-13 4.5569e-13 0 0 -6.04471e-14 -5.28151e-14 -1.57458e-14 3.0722e-13 0 0 -2.23852e-14 -7.38059e-14 1.46065e-13 6.52694e-14 0 0 -1.83874e-15 -4.92996e-15 9.3231e-14 -1.14369e-14 0 0 2.64842e-14 4.93157e-14 -2.14448e-14 1.54841e-13 0 0 3.68612e-14 6.11902e-15 1.20391e-13 6.80858e-14 0 0 -9.63706e-15 5.29948e-14 1.77402e-13 -5.35079e-14 0 0 -2.98427e-14 8.9155e-14 2.02041e-13 -1.00404e-13 0 0 -8.97087e-14 1.26112e-13 2.6193e-13 -1.38931e-13 0 0 -1.65241e-13 1.97842e-13 1.96341e-13 -2.22815e-14 0 0 -1.12637e-13 8.38655e-14 3.23948e-13 -1.29395e-13 0 0 -2.3903e-14 -3.7479e-14 3.70374e-13 -5.29563e-14 0 0 -3.23964e-14 -1.3348e-14 3.01514e-13 1.27082e-13 0 0 -6.51583e-14 -5.38058e-15 3.09225e-13 1.34957e-13 0 0 -5.5198e-14 2.70786e-15 2.77682e-13 1.6074e-13 0 0 -6.31851e-14 1.13866e-13 1.93715e-13 2.15488e-13 0 0 -3.51415e-14 1.11296e-13 3.02258e-13 7.18635e-14 0 0 -1.07839e-14 1.33997e-13 2.62664e-13 1.22982e-13 0 0 -1.99047e-14 1.79486e-13 1.48139e-13 3.65015e-13 0 0 2.11462e-14 1.46353e-13 2.32623e-13 2.98828e-13 0 0 6.47276e-14 1.57272e-13 2.72476e-13 1.57363e-13 0 0 1.55844e-13 3.53982e-14 3.50875e-13 1.48786e-13 0 0 2.61958e-13 -1.32378e-13 4.35128e-13 2.40556e-13 0 0 2.36035e-13 -4.43544e-14 3.58266e-13 3.34898e-13 0 0 1.70666e-13 8.36875e-14 3.05609e-13 2.68167e-13 0 0 1.41077e-13 7.44747e-14 3.94622e-13 1.45253e-13 0 0 -1.56085e-14 2.84656e-13 2.2492e-13 2.92603e-13 0 0 7.6428e-14 1.12007e-13 4.11664e-13 3.08144e-13 0 0 3.2251e-14 1.33049e-13 4.10904e-13 3.566e-13 0 0 -1.01818e-13 3.05363e-13 2.98543e-13 3.24615e-13 0 0 4.97517e-14 1.39677e-13 4.39813e-13 2.36173e-13 0 0 7.60771e-14 1.08753e-13 2.95839e-13 4.53467e-13 0 0 -6.92371e-14 1.76807e-13 2.22954e-13 5.29779e-13 0 0 -5.72035e-14 -4.09822e-14 5.51238e-13 3.06387e-13 0 0 7.58137e-14 -1.94056e-13 5.63888e-13 3.32048e-13 0 0 -8.79951e-14 1.72367e-13 5.19436e-15 7.47068e-13 0 0 -1.31906e-13 3.2993e-13 -2.02074e-13 8.0752e-13 0 0 5.74949e-14 1.48914e-13 -4.3236e-15 5.86709e-13 0 0 9.87048e-14 -9.0614e-14 2.85977e-13 4.42449e-13 0 0 -4.89653e-14 1.01429e-13 1.38289e-13 4.47581e-13 0 0 -8.20435e-14 3.4115e-13 -4.31934e-14 2.63788e-13 0 0 -1.29156e-13 5.26361e-13 -1.56386e-13 3.03374e-14 0 0 -1.42903e-13 6.55325e-13 -3.73152e-13 1.22271e-13 0 0 3.06636e-14 3.84938e-13 -2.52058e-13 1.9509e-13 0 0 2.76233e-13 -1.46109e-13 2.19846e-13 2.4178e-14 0 0 2.5342e-13 -1.17255e-13 1.16589e-13 1.48837e-13 0 0 2.83244e-13 1.27077e-14 -2.36797e-13 4.54673e-13 0 0 5.03722e-13 -2.171e-13 -1.92346e-13 4.94618e-13 0
				</DataArray>
				<DataArray Name="VitesseY" type="Float32" format="ascii">