<?xml version="1.0"?>
<VTKFile type="PolyData">
	<PolyData>
		<Piece NumberOfPoints="1206" NumberOfPolys="1000">
			<Points>
				<DataArray type="Float32" NumberOfComponents="3" format="ascii">
 0 0 0 0.02 0 0 0.04 0 0 0.06 0 0 0.08 0 0 0.1 0 0 0 0.005 0 0.02 0.005 0 0.04 0.005 0 0.06 0.005 0 0.08 0.005 0 0.1 0.005 0 0 0.01 0 0.02 0.01 0 0.04 0.01 0 0.06 0.01 0 0.08 0.01 0 0.1 0.01 0 0 0.015 0 0.02 0.015 0 0.04 0.015 0 0.06 0.015 0 0.08 0.015 0 0.1 0.015 0 0 0.02 0 0.02 0.02 0 0.04 0.02 0 0.06 0.02 0 0.08 0.02 0 0.1 0.02 0 0 0.025 0 0.02 0.025 0 0.04 0.025 0 0.06 0.025 0 0.08 0.025 0 0.1 0.025 0 0 0.03 0 0.02 0.03 0 0.04 0.03 0 0.06 0.03 0 0.08 0.03 0 0.1 0.03 0 0 0.035 0 0.02 0.035 0 0.04 0.035 0 0.06 0.035 0 0.08 0.035 0 0.1 0.035 0 0 0.04 0 0.02 0.04 0 0.04 0.04 0 0.06 0.04 0 0.08 0.04 0 0.1 0.04 0 0 0.045 0 0.02 0.045 0 0.04 0.045 0 0.06 0.045 0 0.08 0.045 0 0.1 0.045 0 0 0.05 0 0.02 0.05 0 0.04 0.05 0 0.06 0.05 0 0.08 0.05 0 0.1 0.05 0 0 0.055 0 0.02 0.055 0 0.04 0.055 0 0.06 0.055 0 0.08 0.055 0 0.1 0.055 0 0 0.06 0 0.02 0.06 0 0.04 0.06 0 0.06 0.06 0 0.08 0.06 0 0.1 0.06 0 0 0.065 0 0.02 0.065 0 0.04 0.065 0 0.06 0.065 0 0.08 0.065 0 0.1 0.065 0 0 0.07 0 0.02 0.07 0 0.04 0.07 0 0.06 0.07 0 0.08 0.07 0 0.1 0.07 0 0 0.075 0 0.02 0.075 0 0.04 0.075 0 0.06 0.075 0 0.08 0.075 0 0.1 0.075 0 0 0.08 0 0.02 0.08 0 0.04 0.08 0 0.06 0.08 0 0.08 0.08 0 0.1 0.08 0 0 0.085 0 0.02 0.085 0 0.04 0.085 0 0.06 0.085 0 0.08 0.085 0 0.1 0.085 0 0 0.09 0 0.02 0.09 0 0.04 0.09 0 0.06 0.09 0 0.08 0.09 0 0.1 0.09 0 0 0.095 0 0.02 0.095 0 0.04 0.095 0 0.06 0.095 0 0.08 0.095 0 0.1 0.095 0 0 0.1 0 0.02 0.1 0 0.04 0.1 0 0.06 0.1 0 0.08 0.1 0 0.1 0.1 0 0 0.105 0 0.02 0.105 0 0.04 0.105 0 0.06 0.105 0 0.08 0.105 0 0.1 0.105 0 0 0.11 0 0.02 0.11 0 0.04 0.11 0 0.06 0.11 0 0.08 0.11 0 0.1 0.11 0 0 0.115 0 0.02 0.115 0 0.04 0.115 0 0.06 0.115 0 0.08 0.115 0 0.1 0.115 0 0 0.12 0 0.02 0.12 0 0.04 0.12 0 0.06 0.12 0 0.08 0.12 0 0.1 0.12 0 0 0.125 0 0.02 0.125 0 0.04 0.125 0 0.06 0.125 0 0.08 0.125 0 0.1 0.125 0 0 0.13 0 0.02 0.13 0 0.04 0.13 0 0.06 0.13 0 0.08 0.13 0 0.1 0.13 0 0 0.135 0 0.02 0.135 0 0.04 0.135 0 0.06 0.135 0 0.08 0.135 0 0.1 0.135 0 0 0.14 0 0.02 0.14 0 0.04 0.14 0 0.06 0.14 0 0.08 0.14 0 0.1 0.14 0 0 0.145 0 0.02 0.145 0 0.04 0.145 0 0.06 0.145 0 0.08 0.145 0 0.1 0.145 0 0 0.15 0 0.02 0.15 0 0.04 0.15 0 0.06 0.15 0 0.08 0.15 0 0.1 0.15 0 0 0.155 0 0.02 0.155 0 0.04 0.155 0 0.06 0.155 0 0.08 0.155 0 0.1 0.155 0 0 0.16 0 0.02 0.16 0 0.04 0.16 0 0.06 0.16 0 0.08 0.16 0 0.1 0.16 0 0 0.165 0 0.02 0.165 0 0.04 0.165 0 0.06 0.165 0 0.08 0.165 0 0.1 0.165 0 0 0.17 0 0.02 0.17 0 0.04 0.17 0 0.06 0.17 0 0.08 0.17 0 0.1 0.17 0 0 0.175 0 0.02 0.175 0 0.04 0.175 0 0.06 0.175 0 0.08 0.175 0 0.1 0.175 0 0 0.18 0 0.02 0.18 0 0.04 0.18 0 0.06 0.18 0 0.08 0.18 0 0.1 0.18 0 0 0.185 0 0.02 0.185 0 0.04 0.185 0 0.06 0.185 0 0.08 0.185 0 0.1 0.185 0 0 0.19 0 0.02 0.19 0 0.04 0.19 0 0.06 0.19 0 0.08 0.19 0 0.1 0.19 0 0 0.195 0 0.02 0.195 0 0.04 0.195 0 0.06 0.195 0 0.08 0.195 0 0.1 0.195 0 0 0.2 0 0.02 0.2 0 0.04 0.2 0 0.06 0.2 0 0.08 0.2 0 0.1 0.2 0 0 0.205 0 0.02 0.205 0 0.04 0.205 0 0.06 0.205 0 0.08 0.205 0 0.1 0.205 0 0 0.21 0 0.02 0.21 0 0.04 0.21 0 0.06 0.21 0 0.08 0.21 0 0.1 0.21 0 0 0.215 0 0.02 0.215 0 0.04 0.215 0 0.06 0.215 0 0.08 0.215 0 0.1 0.215 0 0 0.22 0 0.02 0.22 0 0.04 0.22 0 0.06 0.22 0 0.08 0.22 0 0.1 0.22 0 0 0.225 0 0.02 0.225 0 0.04 0.225 0 0.06 0.225 0 0.08 0.225 0 0.1 0.225 0 0 0.23 0 0.02 0.23 0 0.04 0.23 0 0.06 0.23 0 0.08 0.23 0 0.1 0.23 0 0 0.235 0 0.02 0.235 0 0.04 0.235 0 0.06 0.235 0 0.08 0.235 0 0.1 0.235 0 0 0.24 0 0.02 0.24 0 0.04 0.24 0 0.06 0.24 0 0.08 0.24 0 0.1 0.24 0 0 0.245 0 0.02 0.245 0 0.04 0.245 0 0.06 0.245 0 0.08 0.245 0 0.1 0.245 0 0 0.25 0 0.02 0.25 0 0.04 0.25 0 0.06 0.25 0 0.08 0.25 0 0.1 0.25 0 0 0.255 0 0.02 0.255 0 0.04 0.255 0 0.06 0.255 0 0.08 0.255 0 0.1 0.255 0 0 0.26 0 0.02 0.26 0 0.04 0.26 0 0.06 0.26 0 0.08 0.26 0 0.1 0.26 0 0 0.265 0 0.02 0.265 0 0.04 0.265 0 0.06 0.265 0 0.08 0.265 0 0.1 0.265 0 0 0.27 0 0.02 0.27 0 0.04 0.27 0 0.06 0.27 0 0.08 0.27 0 0.1 0.27 0 0 0.275 0 0.02 0.275 0 0.04 0.275 0 0.06 0.275 0 0.08 0.275 0 0.1 0.275 0 0 0.28 0 0.02 0.28 0 0.04 0.28 0 0.06 0.28 0 0.08 0.28 0 0.1 0.28 0 0 0.285 0 0.02 0.285 0 0.04 0.285 0 0.06 0.285 0 0.08 0.285 0 0.1 0.285 0 0 0.29 0 0.02 0.29 0 0.04 0.29 0 0.06 0.29 0 0.08 0.29 0 0.1 0.29 0 0 0.295 0 0.02 0.295 0 0.04 0.295 0 0.06 0.295 0 0.08 0.295 0 0.1 0.295 0 0 0.3 0 0.02 0.3 0 0.04 0.3 0 0.06 0.3 0 0.08 0.3 0 0.1 0.3 0 0 0.305 0 0.02 0.305 0 0.04 0.305 0 0.06 0.305 0 0.08 0.305 0 0.1 0.305 0 0 0.31 0 0.02 0.31 0 0.04 0.31 0 0.06 0.31 0 0.08 0.31 0 0.1 0.31 0 0 0.315 0 0.02 0.315 0 0.04 0.315 0 0.06 0.315 0 0.08 0.315 0 0.1 0.315 0 0 0.32 0 0.02 0.32 0 0.04 0.32 0 0.06 0.32 0 0.08 0.32 0 0.1 0.32 0 0 0.325 0 0.02 0.325 0 0.04 0.325 0 0.06 0.325 0 0.08 0.325 0 0.1 0.325 0 0 0.33 0 0.02 0.33 0 0.04 0.33 0 0.06 0.33 0 0.08 0.33 0 0.1 0.33 0 0 0.335 0 0.02 0.335 0 0.04 0.335 0 0.06 0.335 0 0.08 0.335 0 0.1 0.335 0 0 0.34 0 0.02 0.34 0 0.04 0.34 0 0.06 0.34 0 0.08 0.34 0 0.1 0.34 0 0 0.345 0 0.02 0.345 0 0.04 0.345 0 0.06 0.345 0 0.08 0.345 0 0.1 0.345 0 0 0.35 0 0.02 0.35 0 0.04 0.35 0 0.06 0.35 0 0.08 0.35 0 0.1 0.35 0 0 0.355 0 0.02 0.355 0 0.04 0.355 0 0.06 0.355 0 0.08 0.355 0 0.1 0.355 0 0 0.36 0 0.02 0.36 0 0.04 0.36 0 0.06 0.36 0 0.08 0.36 0 0.1 0.36 0 0 0.365 0 0.02 0.365 0 0.04 0.365 0 0.06 0.365 0 0.08 0.365 0 0.1 0.365 0 0 0.37 0 0.02 0.37 0 0.04 0.37 0 0.06 0.37 0 0.08 0.37 0 0.1 0.37 0 0 0.375 0 0.02 0.375 0 0.04 0.375 0 0.06 0.375 0 0.08 0.375 0 0.1 0.375 0 0 0.38 0 0.02 0.38 0 0.04 0.38 0 0.06 0.38 0 0.08 0.38 0 0.1 0.38 0 0 0.385 0 0.02 0.385 0 0.04 0.385 0 0.06 0.385 0 0.08 0.385 0 0.1 0.385 0 0 0.39 0 0.02 0.39 0 0.04 0.39 0 0.06 0.39 0 0.08 0.39 0 0.1 0.39 0 0 0.395 0 0.02 0.395 0 0.04 0.395 0 0.06 0.395 0 0.08 0.395 0 0.1 0.395 0 0 0.4 0 0.02 0.4 0 0.04 0.4 0 0.06 0.4 0 0.08 0.4 0 0.1 0.4 0 0 0.405 0 0.02 0.405 0 0.04 0.405 0 0.06 0.405 0 0.08 0.405 0 0.1 0.405 0 0 0.41 0 0.02 0.41 0 0.04 0.41 0 0.06 0.41 0 0.08 0.41 0 0.1 0.41 0 0 0.415 0 0.02 0.415 0 0.04 0.415 0 0.06 0.415 0 0.08 0.415 0 0.1 0.415 0 0 0.42 0 0.02 0.42 0 0.04 0.42 0 0.06 0.42 0 0.08 0.42 0 0.1 0.42 0 0 0.425 0 0.02 0.425 0 0.04 0.425 0 0.06 0.425 0 0.08 0.425 0 0.1 0.425 0 0 0.43 0 0.02 0.43 0 0.04 0.43 0 0.06 0.43 0 0.08 0.43 0 0.1 0.43 0 0 0.435 0 0.02 0.435 0 0.04 0.435 0 0.06 0.435 0 0.08 0.435 0 0.1 0.435 0 0 0.44 0 0.02 0.44 0 0.04 0.44 0 0.06 0.44 0 0.08 0.44 0 0.1 0.44 0 0 0.445 0 0.02 0.445 0 0.04 0.445 0 0.06 0.445 0 0.08 0.445 0 0.1 0.445 0 0 0.45 0 0.02 0.45 0 0.04 0.45 0 0.06 0.45 0 0.08 0.45 0 0.1 0.45 0 0 0.455 0 0.02 0.455 0 0.04 0.455 0 0.06 0.455 0 0.08 0.455 0 0.1 0.455 0 0 0.46 0 0.02 0.46 0 0.04 0.46 0 0.06 0.46 0 0.08 0.46 0 0.1 0.46 0 0 0.465 0 0.02 0.465 0 0.04 0.465 0 0.06 0.465 0 0.08 0.465 0 0.1 0.465 0 0 0.47 0 0.02 0.47 0 0.04 0.47 0 0.06 0.47 0 0.08 0.47 0 0.1 0.47 0 0 0.475 0 0.02 0.475 0 0.04 0.475 0 0.06 0.475 0 0.08 0.475 0 0.1 0.475 0 0 0.48 0 0.02 0.48 0 0.04 0.48 0 0.06 0.48 0 0.08 0.48 0 0.1 0.48 0 0 0.485 0 0.02 0.485 0 0.04 0.485 0 0.06 0.485 0 0.08 0.485 0 0.1 0.485 0 0 0.49 0 0.02 0.49 0 0.04 0.49 0 0.06 0.49 0 0.08 0.49 0 0.1 0.49 0 0 0.495 0 0.02 0.495 0 0.04 0.495 0 0.06 0.495 0 0.08 0.495 0 0.1 0.495 0 0 0.5 0 0.02 0.5 0 0.04 0.5 0 0.06 0.5 0 0.08 0.5 0 0.1 0.5 0 0 0.505 0 0.02 0.505 0 0.04 0.505 0 0.06 0.505 0 0.08 0.505 0 0.1 0.505 0 0 0.51 0 0.02 0.51 0 0.04 0.51 0 0.06 0.51 0 0.08 0.51 0 0.1 0.51 0 0 0.515 0 0.02 0.515 0 0.04 0.515 0 0.06 0.515 0 0.08 0.515 0 0.1 0.515 0 0 0.52 0 0.02 0.52 0 0.04 0.52 0 0.06 0.52 0 0.08 0.52 0 0.1 0.52 0 0 0.525 0 0.02 0.525 0 0.04 0.525 0 0.06 0.525 0 0.08 0.525 0 0.1 0.525 0 0 0.53 0 0.02 0.53 0 0.04 0.53 0 0.06 0.53 0 0.08 0.53 0 0.1 0.53 0 0 0.535 0 0.02 0.535 0 0.04 0.535 0 0.06 0.535 0 0.08 0.535 0 0.1 0.535 0 0 0.54 0 0.02 0.54 0 0.04 0.54 0 0.06 0.54 0 0.08 0.54 0 0.1 0.54 0 0 0.545 0 0.02 0.545 0 0.04 0.545 0 0.06 0.545 0 0.08 0.545 0 0.1 0.545 0 0 0.55 0 0.02 0.55 0 0.04 0.55 0 0.06 0.55 0 0.08 0.55 0 0.1 0.55 0 0 0.555 0 0.02 0.555 0 0.04 0.555 0 0.06 0.555 0 0.08 0.555 0 0.1 0.555 0 0 0.56 0 0.02 0.56 0 0.04 0.56 0 0.06 0.56 0 0.08 0.56 0 0.1 0.56 0 0 0.565 0 0.02 0.565 0 0.04 0.565 0 0.06 0.565 0 0.08 0.565 0 0.1 0.565 0 0 0.57 0 0.02 0.57 0 0.04 0.57 0 0.06 0.57 0 0.08 0.57 0 0.1 0.57 0 0 0.575 0 0.02 0.575 0 0.04 0.575 0 0.06 0.575 0 0.08 0.575 0 0.1 0.575 0 0 0.58 0 0.02 0.58 0 0.04 0.58 0 0.06 0.58 0 0.08 0.58 0 0.1 0.58 0 0 0.585 0 0.02 0.585 0 0.04 0.585 0 0.06 0.585 0 0.08 0.585 0 0.1 0.585 0 0 0.59 0 0.02 0.59 0 0.04 0.59 0 0.06 0.59 0 0.08 0.59 0 0.1 0.59 0 0 0.595 0 0.02 0.595 0 0.04 0.595 0 0.06 0.595 0 0.08 0.595 0 0.1 0.595 0 0 0.6 0 0.02 0.6 0 0.04 0.6 0 0.06 0.6 0 0.08 0.6 0 0.1 0.6 0 0 0.605 0 0.02 0.605 0 0.04 0.605 0 0.06 0.605 0 0.08 0.605 0 0.1 0.605 0 0 0.61 0 0.02 0.61 0 0.04 0.61 0 0.06 0.61 0 0.08 0.61 0 0.1 0.61 0 0 0.615 0 0.02 0.615 0 0.04 0.615 0 0.06 0.615 0 0.08 0.615 0 0.1 0.615 0 0 0.62 0 0.02 0.62 0 0.04 0.62 0 0.06 0.62 0 0.08 0.62 0 0.1 0.62 0 0 0.625 0 0.02 0.625 0 0.04 0.625 0 0.06 0.625 0 0.08 0.625 0 0.1 0.625 0 0 0.63 0 0.02 0.63 0 0.04 0.63 0 0.06 0.63 0 0.08 0.63 0 0.1 0.63 0 0 0.635 0 0.02 0.635 0 0.04 0.635 0 0.06 0.635 0 0.08 0.635 0 0.1 0.635 0 0 0.64 0 0.02 0.64 0 0.04 0.64 0 0.06 0.64 0 0.08 0.64 0 0.1 0.64 0 0 0.645 0 0.02 0.645 0 0.04 0.645 0 0.06 0.645 0 0.08 0.645 0 0.1 0.645 0 0 0.65 0 0.02 0.65 0 0.04 0.65 0 0.06 0.65 0 0.08 0.65 0 0.1 0.65 0 0 0.655 0 0.02 0.655 0 0.04 0.655 0 0.06 0.655 0 0.08 0.655 0 0.1 0.655 0 0 0.66 0 0.02 0.66 0 0.04 0.66 0 0.06 0.66 0 0.08 0.66 0 0.1 0.66 0 0 0.665 0 0.02 0.665 0 0.04 0.665 0 0.06 0.665 0 0.08 0.665 0 0.1 0.665 0 0 0.67 0 0.02 0.67 0 0.04 0.67 0 0.06 0.67 0 0.08 0.67 0 0.1 0.67 0 0 0.675 0 0.02 0.675 0 0.04 0.675 0 0.06 0.675 0 0.08 0.675 0 0.1 0.675 0 0 0.68 0 0.02 0.68 0 0.04 0.68 0 0.06 0.68 0 0.08 0.68 0 0.1 0.68 0 0 0.685 0 0.02 0.685 0 0.04 0.685 0 0.06 0.685 0 0.08 0.685 0 0.1 0.685 0 0 0.69 0 0.02 0.69 0 0.04 0.69 0 0.06 0.69 0 0.08 0.69 0 0.1 
[...]
			<PointData Scalars="VitesseX">
				<DataArray Name="VitesseX" type="Float32" format="ascii">
 0 -1.0672e-14 -1.34245e-14 -2.47877e-14 2.3827e-14 0 0 -1.86069e-14 -4.58058e-15 -2.19203e-14 1.62001e-14 0 0 -1.02252e-14 -2.14975e-14 5.90984e-15 -4.27433e-15 0 0 -2.64905e-14 -4.96316e-15 -5.77654e-15 9.14191e-15 0 0 -5.20025e-14 1.56226e-14 -6.89437e-15 8.00117e-15 0 0 -3.28792e-14 -1.93724e-14 2.9132e-14 -2.10008e-14 0 0 2.06258e-15 -5.15369e-14 1.53861e-14 -4.0486e-15 0 0 2.22309e-15 -4.1078e-14 -3.547e-14 3.45585e-14 0 0 -1.7437e-14 -3.60923e-14 -3.56928e-14 2.24305e-14 0 0 -4.42901e-14 -2.45054e-14 -3.59214e-14 2.19685e-14 0 0 -8.48055e-14 3.91757e-14 -8.97152e-14 5.74223e-14 0 0 -3.9025e-14 -3.75462e-14 1.51199e-14 -9.67337e-15 0 0 -6.94942e-14 -1.37688e-14 3.43801e-14 -4.1942e-14 0 0 -6.30709e-14 4.97185e-16 1.42239e-14 -5.83571e-14 0 0 -3.14274e-14 7.52006e-17 -2.88422e-14 -1.88832e-14 0 0 -7.9369e-14 7.70433e-14 -1.12923e-13 5.54661e-14 0 0 -1.9073e-14 -4.08155e-14 -1.25969e-14 2.05692e-14 0 0 -7.91558e-14 4.0537e-14 -1.06569e-13 8.69447e-14 0 0 -1.30777e-13 1.20174e-13 -1.70746e-13 8.85351e-14 0 0 -5.64306e-14 1.35325e-14 -9.54493e-14 4.56238e-14 0 0 -2.354e-14 -3.31643e-14 -1.36905e-13 1.17805e-13 0 0 -3.5971e-14 -4.08002e-14 -1.60156e-13 1.44988e-13 0 0 -9.30438e-14 -4.15596e-14 -4.49492e-14 2.64306e-14 0 0 -9.59378e-14 -5.72274e-14 6.5741e-14 -1.18699e-13 0 0 -3.44823e-14 -2.50252e-14 -4.40025e-14 -7.38548e-14 0 0 -4.33254e-15 3.53572e-16 -1.21874e-13 -3.50225e-14 0 0 -2.96447e-14 -2.16253e-14 -3.62868e-14 -1.67234e-13 0 0 -1.13663e-13 1.80964e-14 -5.97198e-14 -2.04094e-13 0 0 -1.03194e-13 -2.28348e-14 -9.66803e-14 -1.4358e-13 0 0 -8.41876e-14 -2.61783e-14 -1.2617e-13 -1.14845e-13 0 0 -3.70347e-14 -8.74642e-14 -1.48755e-14 -1.90671e-13 0 0 -2.0005e-14 -1.02668e-13 1.14869e-14 -1.31616e-13 0 0 -1.101e-13 7.48017e-16 -4.81353e-14 -3.70405e-14 0 0 -1.29877e-13 -4.53272e-14 5.10367e-14 -7.12366e-14 0 0 -1.13676e-13 -6.34276e-14 -2.93149e-15 6.2042e-14 0 0 -2.89864e-14 -1.37296e-13 2.73123e-14 1.14569e-13 0 0 -1.24626e-13 1.43994e-14 -1.94351e-14 1.24346e-13 0 0 -1.84002e-13 7.46203e-14 4.52338e-14 2.50519e-14 0 0 -1.68044e-13 6.99286e-14 5.55795e-14 1.38194e-14 0 0 -1.00299e-13 2.16151e-14 -1.25086e-14 9.15322e-14 0 0 -2.4141e-14 -1.33869e-13 5.19226e-14 2.13428e-14 0 0 -1.05572e-13 -9.43365e-14 -4.31603e-15 1.05277e-15 0 0 -1.35328e-13 -7.52986e-14 -1.15558e-14 -6.22749e-14 0 0 -4.62212e-14 -1.29172e-13 -2.6351e-14 -6.3337e-14 0 0 -1.64389e-14 -8.10742e-14 -1.10747e-13 -2.34287e-14 0 0 -4.20915e-14 -1.06917e-13 6.56502e-14 -2.57294e-13 0 0 -2.88001e-13 8.52016e-14 4.99425e-14 -3.30444e-13 0 0 -3.18078e-13 2.55646e-14 6.83527e-14 -2.96756e-13 0 0 -1.57649e-13 -1.84242e-13 1.01816e-13 -2.24487e-13 0 0 -1.03437e-13 -1.83081e-13 -7.64788e-14 3.57556e-15 0 0 3.36345e-14 -3.3184e-13 6.15818e-15 -2.15026e-14 0 0 -2.38491e-13 -8.96242e-16 -8.48615e-14 -1.29793e-13 0 0 -3.04512e-13 -2.84812e-14 1.98176e-13 -5.2042e-13 0 0 -3.48882e-13 9.71452e-14 1.05171e-14 -3.86113e-13 0 0 -2.06582e-13 1.6331e-13 -3.5799e-13 4.49988e-15 0 0 1.04281e-13 -2.16912e-13 -6.57243e-14 -1.33026e-13 0 0 -2.8212e-13 8.24573e-14 -1.40527e-13 -1.24115e-13 0 0 -2.37552e-13 -2.35732e-13 4.00651e-13 -5.61879e-13 0 0 -2.52905e-13 -1.74483e-13 3.37159e-13 -5.32219e-13 0 0 -3.42199e-13 1.40062e-13 -2.21578e-13 -6.14894e-14 0 0 -8.54106e-14 -1.32535e-13 -1.58119e-13 -9.02242e-15 0 0 -1.9387e-13 2.03185e-14 -2.74217e-13 6.32994e-14 0 0 -1.30277e-13 -7.79293e-14 -1.18638e-13 -4.42237e-14 0 0 -1.13629e-13 -1.5061e-14 -2.04947e-13 3.92313e-15 0 0 -1.10208e-13 1.42462e-14 -2.4123e-13 2.73011e-14 0 0 -2.1048e-14 -1.47445e-13 -1.06379e-13 -2.82624e-14 0 0 -1.98431e-13 5.70464e-14 -3.05991e-13 9.46568e-14 0 0 -9.28096e-14 -5.97735e-14 -2.42392e-13 3.70058e-14 0 0 -3.8133e-14 -1.01007e-13 -2.54762e-13 5.76242e-14 0 0 -2.59039e-13 8.4321e-14 -1.57414e-13 -9.32998e-14 0 0 -1.58493e-13 -2.76451e-13 5.17859e-13 -5.57945e-13 0 0 -3.0845e-13 -5.26298e-14 2.60944e-13 -2.12287e-13 0 0 -1.40804e-13 -3.24692e-15 -7.28385e-14 2.38718e-13 0 0 -9.68989e-14 3.13432e-15 -2.03762e-13 4.42515e-13 0 0 -4.1223e-13 1.66803e-13 -9.30135e-14 2.56342e-13 0 0 -4.19783e-13 3.68493e-14 1.99931e-13 -8.36862e-14 0 0 -3.71937e-13 1.30801e-13 -1.91145e-13 1.51038e-13 0 0 -6.97587e-14 -2.36055e-13 -9.06483e-14 1.04613e-13 0 0 -3.24248e-13 -1.00701e-13 -1.0473e-13 -5.8623e-15 0 0 -4.42597e-13 -2.02032e-13 1.02464e-13 -3.24215e-13 0 0 -3.32719e-13 -2.34094e-13 -6.13733e-14 -2.17129e-13 0 0 -5.33588e-13 1.21439e-13 -4.3036e-13 2.91814e-14 0 0 -2.81979e-13 -3.27489e-13 1.55543e-13 -5.31443e-13 0 0 -2.50152e-13 -6.18124e-14 -3.72732e-13 -3.14877e-13 0 0 -2.36959e-13 2.1016e-13 -8.6878e-13 -1.20707e-15 0 0 -1.21518e-13 -2.81941e-13 -9.82648e-14 -4.95051e-13 0 0 -4.82405e-13 -1.948e-13 7.47399e-14 -5.79439e-13 0 0 -3.38875e-13 -2.41712e-13 -2.65033e-13 -1.61936e-13 0 0 2.19367e-13 -7.1832e-13 -3.24917e-13 1.3565e-13 0 0 -6.67246e-14 -2.14228e-13 -5.23573e-13 -6.74158e-14 0 0 -3.63447e-13 -3.89687e-14 -1.25687e-13 -6.35346e-13 0 0 -4.4776e-13 -2.06191e-13 7.1902e-14 -6.80095e-13 0 0 -1.2009e-13 -1.80412e-13 -4.87907e-13 2.32168e-14 0 0 4.01257e-13 -8.03011e-13 -5.97065e-13 5.94592e-13 0 0 -4.05917e-13 -1.41165e-14 -4.56478e-13 2.11956e-13 0 0 -3.98311e-13 -2.15405e-13 7.04813e-13 -1.01165e-12 0 0 1.27542e-13 -5.76716e-13 4.81062e-13 -8.30747e-13 0 0 -8.8881e-13 1.03121e-12 -6.16903e-13 -3.67231e-13 0 0 -1.73432e-13 5.8108e-14 3.81493e-13 -9.69884e-13 0 0 3.34778e-13 -4.54914e-13 4.88777e-13 -9.51167e-13 0 0 2.19756e-13 -2.71012e-13 -9.13225e-14 -2.22557e-13 0 0 -7.02621e-15 2.16605e-14 -9.47832e-13 5.33472e-13 0 0 -1.71603e-13 -3.07168e-14 -9.39431e-13 5.07503e-13 0 0 -2.6025e-13 -2.85609e-13 -6.62724e-13 2.6903e-13 0 0 -3.10774e-13 -5.29873e-13 -2.71869e-13 -5.40915e-14 0 0 -3.43052e-13 -5.80955e-13 -1.81586e-14 -3.46881e-13 0 0 -3.44226e-13 -4.75436e-13 -1.45484e-13 -3.02663e-13 0 0 -2.45951e-13 -3.02819e-13 -4.43109e-13 -7.99126e-15 0 0 -2.76419e-13 -1.27134e-13 -5.27566e-13 7.53023e-14 0 0 -2.98828e-13 -1.71612e-13 -2.24047e-13 -1.72797e-13 0 0 -2.63282e-13 -1.95643e-13 -2.91996e-14 -4.39056e-13 0 0 -1.43404e-13 -1.08672e-13 -2.90237e-13 -3.01806e-13 0 0 -3.3525e-14 -7.01242e-14 -5.56561e-13 -3.68169e-14 0 0 -6.96774e-14 -1.39358e-13 -4.25925e-13 -1.01229e-13 0 0 -2.83787e-13 -2.02839e-13 -1.07701e-13 -3.58998e-13 0 0 -3.28429e-13 -3.67326e-13 1.31058e-13 -5.29474e-13 0 0 -6.55568e-14 -5.29322e-13 -9.60814e-16 -4.27213e-13 0 0 -1.43663e-13 -1.25313e-13 -5.58624e-13 -1.79901e-13 0 0 -2.21956e-13 -1.49971e-13 -2.53145e-13 -4.82008e-13 0 0 -3.67871e-13 -1.33825e-13 -1.29537e-13 -4.47396e-13 0 0 -3.92143e-13 -1.74004e-13 -1.86374e-13 -2.05606e-13 0 0 -9.92339e-14 -4.74836e-13 -6.46879e-14 -2.49554e-13 0 0 -2.56645e-13 -9.94146e-14 -5.35888e-13 -2.5135e-14 0 0 -3.59365e-13 -1.94711e-13 -2.26311e-13 -2.66801e-13 0 0 -5.12645e-13 -1.91493e-13 -7.57382e-14 -2.62658e-13 0 0 -5.72745e-13 -2.18471e-13 -1.0841e-13 3.86853e-15 0 0 -2.77255e-13 -3.56481e-13 -1.49858e-13 7.02873e-14 0 0 -3.02194e-13 -3.49364e-14 -5.59207e-13 1.04667e-13 0 0 -3.50996e-13 -2.78657e-13 -7.15859e-14 -4.44519e-13 0 0 -5.33687e-13 -2.36605e-13 3.59476e-14 -5.15377e-13 0 0 -6.73231e-13 -1.88075e-13 3.84252e-14 -3.63045e-13 0 0 -3.228e-13 -4.22517e-13 4.46432e-14 -2.78377e-13 0 0 -2.11334e-13 -2.44789e-13 -4.37023e-13 9.87457e-14 0 0 -3.26468e-13 -2.79781e-13 -2.49296e-13 -1.88392e-13 0 0 -5.51541e-13 -9.22652e-14 -2.50036e-13 -3.94383e-13 0 0 -5.82916e-13 -1.36724e-13 -1.03386e-13 -3.77526e-13 0 0 -2.19728e-13 -3.08301e-13 -1.38335e-13 -2.92518e-13 0 0 -1.63882e-13 -9.38901e-15 -7.67542e-13 1.32018e-14 0 0 -3.52041e-13 -1.45581e-13 -5.55582e-13 -2.21685e-13 0 0 -3.38744e-13 -5.49366e-13 -3.14604e-13 -1.98836e-13 0 0 -2.84719e-13 -6.43015e-13 -3.3783e-13 -2.00752e-14 0 0 -2.21926e-13 -5.361e-13 -1.271e-13 -2.95409e-13 0 0 -1.79146e-13 -7.32944e-14 -7.5115e-13 -1.15413e-13 0 0 -1.28828e-13 1.62843e-14 -8.47572e-13 -3.30563e-13 0 0 -3.90007e-13 -1.52035e-13 -2.33662e-13 -6.72759e-13 0 0 -6.36795e-13 -9.34746e-15 -4.45116e-13 -6.56294e-14 0 0 -2.72332e-13 -4.46276e-13 -2.53069e-13 1.96078e-13 0 0 -2.25473e-13 -3.71557e-13 -4.26137e-13 3.47602e-13 0 0 -3.58721e-13 -1.47178e-13 -6.06167e-13 4.49281e-13 0 0 -6.30488e-13 -1.31158e-13 -5.06395e-13 5.70106e-13 0 0 -7.26669e-13 -3.59225e-14 -8.92237e-13 1.09362e-12 0 0 -2.54327e-13 -6.68388e-13 -2.81037e-13 5.62377e-13 0 0 -3.16754e-13 -4.7087e-13 -1.27442e-13 -6.01194e-14 0 0 -3.53751e-13 -2.65483e-13 -2.08421e-13 -3.03432e-13 0 0 -4.69269e-13 -2.279e-13 -2.26595e-13 -2.82268e-13 0 0 -7.08832e-13 -2.47079e-13 -1.69534e-13 -2.13149e-13 0 0 -3.42146e-13 -6.41449e-13 -1.24941e-13 -2.90317e-13 0 0 -9.65269e-14 -4.72487e-13 -9.32689e-13 -2.83368e-14 0 0 -2.51578e-13 -2.84182e-13 -9.97322e-13 -4.25396e-13 0 0 -8.14756e-13 1.75837e-13 -6.84525e-13 -7.37658e-13 0 0 -8.50658e-13 7.42265e-14 -3.54318e-13 -4.16503e-13 0 0 -2.21029e-14 -6.04216e-13 -3.23615e-13 -7.15952e-14 0 0 2.95005e-13 -8.20802e-13 -6.0513e-13 -2.14047e-14 0 0 -2.23846e-13 -5.23591e-13 -5.38819e-13 -7.35828e-13 0 0 -9.08618e-13 1.80707e-13 -9.0266e-13 -1.17979e-12 0 0 -7.96298e-13 9.23433e-15 -1.09696e-12 -8.52026e-13 0 0 -2.24567e-13 -4.38442e-13 -1.07077e-12 -3.85296e-13 0 0 -1.88633e-13 -3.69118e-13 -8.28594e-13 -4.30914e-13 0 0 -2.70523e-13 -6.38481e-13 -2.14196e-14 -1.05603e-12 0 0 -1.49726e-13 -8.04933e-13 -1.95043e-13 -8.49736e-13 0 0 -2.8473e-13 -5.04496e-13 -9.37483e-13 -4.19157e-13 0 0 -4.95561e-13 -2.14732e-13 -8.8486e-13 -1.03074e-12 0 0 -6.45142e-13 1.8863e-13 -1.01288e-12 -1.19656e-12 0 0 -2.97065e-13 -2.74228e-13 -8.67901e-13 -7.49608e-13 0 0 7.90819e-14 -8.72824e-13 -5.85198e-13 -3.4495e-13 0 0 -3.38197e-13 -5.71972e-13 -5.34083e-13 -3.83797e-13 0 0 -6.51488e-13 -2.87331e-13 -4.12695e-13 -1.04385e-12 0 0 -7.20486e-13 1.33831e-13 -9.47055e-13 -1.13429e-12 0 0 -2.21029e-13 -4.79093e-13 -7.43936e-13 -8.34733e-13 0 0 1.38939e-13 -1.09021e-12 -4.07749e-13 -3.41392e-13 0 0 -2.83332e-13 -6.9071e-13 -5.25709e-13 -2.5375e-13 0 0 -5.45649e-13 -4.65922e-13 -2.22471e-13 -1.09205e-12 0 0 -6.60208e-13 -6.2577e-14 -7.18419e-13 -9.77819e-13 0 0 -2.53729e-13 -5.21384e-13 -6.81428e-13 -5.46218e-13 0 0 6.56982e-14 -9.79036e-13 -4.75369e-13 -1.43109e-13 0 0 -3.78468e-13 -4.64613e-13 -8.96549e-13 1.29622e-13 0 0 -6.09719e-13 -2.6469e-13 -6.68275e-13 -7.79734e-13 0 0 -5.90009e-13 6.51204e-14 -1.19487e-12 -9.23235e-13 0 0 -1.3188e-13 -5.0307e-13 -1.06282e-12 -8.25952e-13 0 0 2.5004e-13 -1.11907e-12 -7.05846e-13 -3.83783e-13 0 0 -5.63589e-13 -2.73619e-13 -6.56307e-13 -2.86957e-13 0 0 -7.46785e-13 -4.77041e-13 5.98237e-13 -1.60654e-12 0 0 -3.88657e-13 -5.80743e-13 -1.42411e-13 -1.05726e-12 0 0 -3.19559e-14 -5.61816e-13 -1.22917e-12 -1.46569e-13 0 0 -4.03825e-13 -4.7422e-13 -1.02637e-12 -3.74871e-13 0 0 -1.29856e-12 3.45889e-13 -1.15281e-12 -4.28732e-13 0 0 -5.83597e-13 -3.25282e-13 -7.88635e-13 -4.12119e-13 0 0 -2.66964e-14 -5.6589e-13 -1.33548e-12 4.54545e-13 0 0 -4.67026e-15 -9.31127e-13 -8.26767e-13 3.35349e-13 0 0 -5.45694e-13 -8.0577e-13 -2.32723e-13 -2.6557e-13 0 0 -1.27742e-12 1.95938e-13 -9.76407e-13 -2.92621e-15 0
				</DataArray>
				<DataArray Name="VitesseY" type="Float32" format="ascii">