<?xml version="1.0"?>
<VTKFile type="PolyData">
	<PolyData>
		<Piece NumberOfPoints="1206" NumberOfPolys="1000">
			<Points>
				<DataArray type="Float32" NumberOfComponents="3" format="ascii">
 0 0 0 0.02 0 0 0.04 0 0 0.06 0 0 0.08 0 0 0.1 0 0 0 0.005 0 0.02 0.005 0 0.04 0.005 0 0.06 0.005 0 0.08 0.005 0 0.1 0.005 0 0 0.01 0 0.02 0.01 0 0.04 0.01 0 0.06 0.01 0 0.08 0.01 0 0.1 0.01 0 0 0.015 0 0.02 0.015 0 0.04 0.015 0 0.06 0.015 0 0.08 0.015 0 0.1 0.015 0 0 0.02 0 0.02 0.02 0 0.04 0.02 0 0.06 0.02 0 0.08 0.02 0 0.1 0.02 0 0 0.025 0 0.02 0.025 0 0.04 0.025 0 0.06 0.025 0 0.08 0.025 0 0.1 0.025 0 0 0.03 0 0.02 0.03 0 0.04 0.03 0 0.06 0.03 0 0.08 0.03 0 0.1 0.03 0 0 0.035 0 0.02 0.035 0 0.04 0.035 0 0.06 0.035 0 0.08 0.035 0 0.1 0.035 0 0 0.04 0 0.02 0.04 0 0.04 0.04 0 0.06 0.04 0 0.08 0.04 0 0.1 0.04 0 0 0.045 0 0.02 0.045 0 0.04 0.045 0 0.06 0.045 0 0.08 0.045 0 0.1 0.045 0 0 0.05 0 0.02 0.05 0 0.04 0.05 0 0.06 0.05 0 0.08 0.05 0 0.1 0.05 0 0 0.055 0 0.02 0.055 0 0.04 0.055 0 0.06 0.055 0 0.08 0.055 0 0.1 0.055 0 0 0.06 0 0.02 0.06 0 0.04 0.06 0 0.06 0.06 0 0.08 0.06 0 0.1 0.06 0 0 0.065 0 0.02 0.065 0 0.04 0.065 0 0.06 0.065 0 0.08 0.065 0 0.1 0.065 0 0 0.07 0 0.02 0.07 0 0.04 0.07 0 0.06 0.07 0 0.08 0.07 0 0.1 0.07 0 0 0.075 0 0.02 0.075 0 0.04 0.075 0 0.06 0.075 0 0.08 0.075 0 0.1 0.075 0 0 0.08 0 0.02 0.08 0 0.04 0.08 0 0.06 0.08 0 0.08 0.08 0 0.1 0.08 0 0 0.085 0 0.02 0.085 0 0.04 0.085 0 0.06 0.085 0 0.08 0.085 0 0.1 0.085 0 0 0.09 0 0.02 0.09 0 0.04 0.09 0 0.06 0.09 0 0.08 0.09 0 0.1 0.09 0 0 0.095 0 0.02 0.095 0 0.04 0.095 0 0.06 0.095 0 0.08 0.095 0 0.1 0.095 0 0 0.1 0 0.02 0.1 0 0.04 0.1 0 0.06 0.1 0 0.08 0.1 0 0.1 0.1 0 0 0.105 0 0.02 0.105 0 0.04 0.105 0 0.06 0.105 0 0.08 0.105 0 0.1 0.105 0 0 0.11 0 0.02 0.11 0 0.04 0.11 0 0.06 0.11 0 0.08 0.11 0 0.1 0.11 0 0 0.115 0 0.02 0.115 0 0.04 0.115 0 0.06 0.115 0 0.08 0.115 0 0.1 0.115 0 0 0.12 0 0.02 0.12 0 0.04 0.12 0 0.06 0.12 0 0.08 0.12 0 0.1 0.12 0 0 0.125 0 0.02 0.125 0 0.04 0.125 0 0.06 0.125 0 0.08 0.125 0 0.1 0.125 0 0 0.13 0 0.02 0.13 0 0.04 0.13 0 0.06 0.13 0 0.08 0.13 0 0.1 0.13 0 0 0.135 0 0.02 0.135 0 0.04 0.135 0 0.06 0.135 0 0.08 0.135 0 0.1 0.135 0 0 0.14 0 0.02 0.14 0 0.04 0.14 0 0.06 0.14 0 0.08 0.14 0 0.1 0.14 0 0 0.145 0 0.02 0.145 0 0.04 0.145 0 0.06 0.145 0 0.08 0.145 0 0.1 0.145 0 0 0.15 0 0.02 0.15 0 0.04 0.15 0 0.06 0.15 0 0.08 0.15 0 0.1 0.15 0 0 0.155 0 0.02 0.155 0 0.04 0.155 0 0.06 0.155 0 0.08 0.155 0 0.1 0.155 0 0 0.16 0 0.02 0.16 0 0.04 0.16 0 0.06 0.16 0 0.08 0.16 0 0.1 0.16 0 0 0.165 0 0.02 0.165 0 0.04 0.165 0 0.06 0.165 0 0.08 0.165 0 0.1 0.165 0 0 0.17 0 0.02 0.17 0 0.04 0.17 0 0.06 0.17 0 0.08 0.17 0 0.1 0.17 0 0 0.175 0 0.02 0.175 0 0.04 0.175 0 0.06 0.175 0 0.08 0.175 0 0.1 0.175 0 0 0.18 0 0.02 0.18 0 0.04 0.18 0 0.06 0.18 0 0.08 0.18 0 0.1 0.18 0 0 0.185 0 0.02 0.185 0 0.04 0.185 0 0.06 0.185 0 0.08 0.185 0 0.1 0.185 0 0 0.19 0 0.02 0.19 0 0.04 0.19 0 0.06 0.19 0 0.08 0.19 0 0.1 0.19 0 0 0.195 0 0.02 0.195 0 0.04 0.195 0 0.06 0.195 0 0.08 0.195 0 0.1 0.195 0 0 0.2 0 0.02 0.2 0 0.04 0.2 0 0.06 0.2 0 0.08 0.2 0 0.1 0.2 0 0 0.205 0 0.02 0.205 0 0.04 0.205 0 0.06 0.205 0 0.08 0.205 0 0.1 0.205 0 0 0.21 0 0.02 0.21 0 0.04 0.21 0 0.06 0.21 0 0.08 0.21 0 0.1 0.21 0 0 0.215 0 0.02 0.215 0 0.04 0.215 0 0.06 0.215 0 0.08 0.215 0 0.1 0.215 0 0 0.22 0 0.02 0.22 0 0.04 0.22 0 0.06 0.22 0 0.08 0.22 0 0.1 0.22 0 0 0.225 0 0.02 0.225 0 0.04 0.225 0 0.06 0.225 0 0.08 0.225 0 0.1 0.225 0 0 0.23 0 0.02 0.23 0 0.04 0.23 0 0.06 0.23 0 0.08 0.23 0 0.1 0.23 0 0 0.235 0 0.02 0.235 0 0.04 0.235 0 0.06 0.235 0 0.08 0.235 0 0.1 0.235 0 0 0.24 0 0.02 0.24 0 0.04 0.24 0 0.06 0.24 0 0.08 0.24 0 0.1 0.24 0 0 0.245 0 0.02 0.245 0 0.04 0.245 0 0.06 0.245 0 0.08 0.245 0 0.1 0.245 0 0 0.25 0 0.02 0.25 0 0.04 0.25 0 0.06 0.25 0 0.08 0.25 0 0.1 0.25 0 0 0.255 0 0.02 0.255 0 0.04 0.255 0 0.06 0.255 0 0.08 0.255 0 0.1 0.255 0 0 0.26 0 0.02 0.26 0 0.04 0.26 0 0.06 0.26 0 0.08 0.26 0 0.1 0.26 0 0 0.265 0 0.02 0.265 0 0.04 0.265 0 0.06 0.265 0 0.08 0.265 0 0.1 0.265 0 0 0.27 0 0.02 0.27 0 0.04 0.27 0 0.06 0.27 0 0.08 0.27 0 0.1 0.27 0 0 0.275 0 0.02 0.275 0 0.04 0.275 0 0.06 0.275 0 0.08 0.275 0 0.1 0.275 0 0 0.28 0 0.02 0.28 0 0.04 0.28 0 0.06 0.28 0 0.08 0.28 0 0.1 0.28 0 0 0.285 0 0.02 0.285 0 0.04 0.285 0 0.06 0.285 0 0.08 0.285 0 0.1 0.285 0 0 0.29 0 0.02 0.29 0 0.04 0.29 0 0.06 0.29 0 0.08 0.29 0 0.1 0.29 0 0 0.295 0 0.02 0.295 0 0.04 0.295 0 0.06 0.295 0 0.08 0.295 0 0.1 0.295 0 0 0.3 0 0.02 0.3 0 0.04 0.3 0 0.06 0.3 0 0.08 0.3 0 0.1 0.3 0 0 0.305 0 0.02 0.305 0 0.04 0.305 0 0.06 0.305 0 0.08 0.305 0 0.1 0.305 0 0 0.31 0 0.02 0.31 0 0.04 0.31 0 0.06 0.31 0 0.08 0.31 0 0.1 0.31 0 0 0.315 0 0.02 0.315 0 0.04 0.315 0 0.06 0.315 0 0.08 0.315 0 0.1 0.315 0 0 0.32 0 0.02 0.32 0 0.04 0.32 0 0.06 0.32 0 0.08 0.32 0 0.1 0.32 0 0 0.325 0 0.02 0.325 0 0.04 0.325 0 0.06 0.325 0 0.08 0.325 0 0.1 0.325 0 0 0.33 0 0.02 0.33 0 0.04 0.33 0 0.06 0.33 0 0.08 0.33 0 0.1 0.33 0 0 0.335 0 0.02 0.335 0 0.04 0.335 0 0.06 0.335 0 0.08 0.335 0 0.1 0.335 0 0 0.34 0 0.02 0.34 0 0.04 0.34 0 0.06 0.34 0 0.08 0.34 0 0.1 0.34 0 0 0.345 0 0.02 0.345 0 0.04 0.345 0 0.06 0.345 0 0.08 0.345 0 0.1 0.345 0 0 0.35 0 0.02 0.35 0 0.04 0.35 0 0.06 0.35 0 0.08 0.35 0 0.1 0.35 0 0 0.355 0 0.02 0.355 0 0.04 0.355 0 0.06 0.355 0 0.08 0.355 0 0.1 0.355 0 0 0.36 0 0.02 0.36 0 0.04 0.36 0 0.06 0.36 0 0.08 0.36 0 0.1 0.36 0 0 0.365 0 0.02 0.365 0 0.04 0.365 0 0.06 0.365 0 0.08 0.365 0 0.1 0.365 0 0 0.37 0 0.02 0.37 0 0.04 0.37 0 0.06 0.37 0 0.08 0.37 0 0.1 0.37 0 0 0.375 0 0.02 0.375 0 0.04 0.375 0 0.06 0.375 0 0.08 0.375 0 0.1 0.375 0 0 0.38 0 0.02 0.38 0 0.04 0.38 0 0.06 0.38 0 0.08 0.38 0 0.1 0.38 0 0 0.385 0 0.02 0.385 0 0.04 0.385 0 0.06 0.385 0 0.08 0.385 0 0.1 0.385 0 0 0.39 0 0.02 0.39 0 0.04 0.39 0 0.06 0.39 0 0.08 0.39 0 0.1 0.39 0 0 0.395 0 0.02 0.395 0 0.04 0.395 0 0.06 0.395 0 0.08 0.395 0 0.1 0.395 0 0 0.4 0 0.02 0.4 0 0.04 0.4 0 0.06 0.4 0 0.08 0.4 0 0.1 0.4 0 0 0.405 0 0.02 0.405 0 0.04 0.405 0 0.06 0.405 0 0.08 0.405 0 0.1 0.405 0 0 0.41 0 0.02 0.41 0 0.04 0.41 0 0.06 0.41 0 0.08 0.41 0 0.1 0.41 0 0 0.415 0 0.02 0.415 0 0.04 0.415 0 0.06 0.415 0 0.08 0.415 0 0.1 0.415 0 0 0.42 0 0.02 0.42 0 0.04 0.42 0 0.06 0.42 0 0.08 0.42 0 0.1 0.42 0 0 0.425 0 0.02 0.425 0 0.04 0.425 0 0.06 0.425 0 0.08 0.425 0 0.1 0.425 0 0 0.43 0 0.02 0.43 0 0.04 0.43 0 0.06 0.43 0 0.08 0.43 0 0.1 0.43 0 0 0.435 0 0.02 0.435 0 0.04 0.435 0 0.06 0.435 0 0.08 0.435 0 0.1 0.435 0 0 0.44 0 0.02 0.44 0 0.04 0.44 0 0.06 0.44 0 0.08 0.44 0 0.1 0.44 0 0 0.445 0 0.02 0.445 0 0.04 0.445 0 0.06 0.445 0 0.08 0.445 0 0.1 0.445 0 0 0.45 0 0.02 0.45 0 0.04 0.45 0 0.06 0.45 0 0.08 0.45 0 0.1 0.45 0 0 0.455 0 0.02 0.455 0 0.04 0.455 0 0.06 0.455 0 0.08 0.455 0 0.1 0.455 0 0 0.46 0 0.02 0.46 0 0.04 0.46 0 0.06 0.46 0 0.08 0.46 0 0.1 0.46 0 0 0.465 0 0.02 0.465 0 0.04 0.465 0 0.06 0.465 0 0.08 0.465 0 0.1 0.465 0 0 0.47 0 0.02 0.47 0 0.04 0.47 0 0.06 0.47 0 0.08 0.47 0 0.1 0.47 0 0 0.475 0 0.02 0.475 0 0.04 0.475 0 0.06 0.475 0 0.08 0.475 0 0.1 0.475 0 0 0.48 0 0.02 0.48 0 0.04 0.48 0 0.06 0.48 0 0.08 0.48 0 0.1 0.48 0 0 0.485 0 0.02 0.485 0 0.04 0.485 0 0.06 0.485 0 0.08 0.485 0 0.1 0.485 0 0 0.49 0 0.02 0.49 0 0.04 0.49 0 0.06 0.49 0 0.08 0.49 0 0.1 0.49 0 0 0.495 0 0.02 0.495 0 0.04 0.495 0 0.06 0.495 0 0.08 0.495 0 0.1 0.495 0 0 0.5 0 0.02 0.5 0 0.04 0.5 0 0.06 0.5 0 0.08 0.5 0 0.1 0.5 0 0 0.505 0 0.02 0.505 0 0.04 0.505 0 0.06 0.505 0 0.08 0.505 0 0.1 0.505 0 0 0.51 0 0.02 0.51 0 0.04 0.51 0 0.06 0.51 0 0.08 0.51 0 0.1 0.51 0 0 0.515 0 0.02 0.515 0 0.04 0.515 0 0.06 0.515 0 0.08 0.515 0 0.1 0.515 0 0 0.52 0 0.02 0.52 0 0.04 0.52 0 0.06 0.52 0 0.08 0.52 0 0.1 0.52 0 0 0.525 0 0.02 0.525 0 0.04 0.525 0 0.06 0.525 0 0.08 0.525 0 0.1 0.525 0 0 0.53 0 0.02 0.53 0 0.04 0.53 0 0.06 0.53 0 0.08 0.53 0 0.1 0.53 0 0 0.535 0 0.02 0.535 0 0.04 0.535 0 0.06 0.535 0 0.08 0.535 0 0.1 0.535 0 0 0.54 0 0.02 0.54 0 0.04 0.54 0 0.06 0.54 0 0.08 0.54 0 0.1 0.54 0 0 0.545 0 0.02 0.545 0 0.04 0.545 0 0.06 0.545 0 0.08 0.545 0 0.1 0.545 0 0 0.55 0 0.02 0.55 0 0.04 0.55 0 0.06 0.55 0 0.08 0.55 0 0.1 0.55 0 0 0.555 0 0.02 0.555 0 0.04 0.555 0 0.06 0.555 0 0.08 0.555 0 0.1 0.555 0 0 0.56 0 0.02 0.56 0 0.04 0.56 0 0.06 0.56 0 0.08 0.56 0 0.1 0.56 0 0 0.565 0 0.02 0.565 0 0.04 0.565 0 0.06 0.565 0 0.08 0.565 0 0.1 0.565 0 0 0.57 0 0.02 0.57 0 0.04 0.57 0 0.06 0.57 0 0.08 0.57 0 0.1 0.57 0 0 0.575 0 0.02 0.575 0 0.04 0.575 0 0.06 0.575 0 0.08 0.575 0 0.1 0.575 0 0 0.58 0 0.02 0.58 0 0.04 0.58 0 0.06 0.58 0 0.08 0.58 0 0.1 0.58 0 0 0.585 0 0.02 0.585 0 0.04 0.585 0 0.06 0.585 0 0.08 0.585 0 0.1 0.585 0 0 0.59 0 0.02 0.59 0 0.04 0.59 0 0.06 0.59 0 0.08 0.59 0 0.1 0.59 0 0 0.595 0 0.02 0.595 0 0.04 0.595 0 0.06 0.595 0 0.08 0.595 0 0.1 0.595 0 0 0.6 0 0.02 0.6 0 0.04 0.6 0 0.06 0.6 0 0.08 0.6 0 0.1 0.6 0 0 0.605 0 0.02 0.605 0 0.04 0.605 0 0.06 0.605 0 0.08 0.605 0 0.1 0.605 0 0 0.61 0 0.02 0.61 0 0.04 0.61 0 0.06 0.61 0 0.08 0.61 0 0.1 0.61 0 0 0.615 0 0.02 0.615 0 0.04 0.615 0 0.06 0.615 0 0.08 0.615 0 0.1 0.615 0 0 0.62 0 0.02 0.62 0 0.04 0.62 0 0.06 0.62 0 0.08 0.62 0 0.1 0.62 0 0 0.625 0 0.02 0.625 0 0.04 0.625 0 0.06 0.625 0 0.08 0.625 0 0.1 0.625 0 0 0.63 0 0.02 0.63 0 0.04 0.63 0 0.06 0.63 0 0.08 0.63 0 0.1 0.63 0 0 0.635 0 0.02 0.635 0 0.04 0.635 0 0.06 0.635 0 0.08 0.635 0 0.1 0.635 0 0 0.64 0 0.02 0.64 0 0.04 0.64 0 0.06 0.64 0 0.08 0.64 0 0.1 0.64 0 0 0.645 0 0.02 0.645 0 0.04 0.645 0 0.06 0.645 0 0.08 0.645 0 0.1 0.645 0 0 0.65 0 0.02 0.65 0 0.04 0.65 0 0.06 0.65 0 0.08 0.65 0 0.1 0.65 0 0 0.655 0 0.02 0.655 0 0.04 0.655 0 0.06 0.655 0 0.08 0.655 0 0.1 0.655 0 0 0.66 0 0.02 0.66 0 0.04 0.66 0 0.06 0.66 0 0.08 0.66 0 0.1 0.66 0 0 0.665 0 0.02 0.665 0 0.04 0.665 0 0.06 0.665 0 0.08 0.665 0 0.1 0.665 0 0 0.67 0 0.02 0.67 0 0.04 0.67 0 0.06 0.67 0 0.08 0.67 0 0.1 0.67 0 0 0.675 0 0.02 0.675 0 0.04 0.675 0 0.06 0.675 0 0.08 0.675 0 0.1 0.675 0 0 0.68 0 0.02 0.68 0 0.04 0.68 0 0.06 0.68 0 0.08 0.68 0 0.1 0.68 0 0 0.685 0 0.02 0.685 0 0.04 0.685 0 0.06 0.685 0 0.08 0.685 0 0.1 0.685 0 0 0.69 0 0.02 0.69 0 0.04 0.69 0 0.06 0.69 0 0.08 0.69 0 0.1 
[...]
			<PointData Scalars="VitesseX">
				<DataArray Name="VitesseX" type="Float32" format="ascii">
 0 4.47147e-15 5.73993e-14 4.25685e-14 2.29712e-15 0 0 1.65559e-14 4.45465e-14 4.46361e-14 3.85125e-15 0 0 2.37931e-14 4.16363e-14 2.70408e-14 1.82279e-14 0 0 3.62548e-14 1.65182e-14 3.64836e-14 1.31358e-14 0 0 3.70501e-14 -1.76971e-15 4.62207e-14 5.07367e-15 0 0 1.09805e-14 2.68013e-14 9.82612e-15 2.48572e-14 0 0 5.08454e-16 3.91645e-14 -8.12999e-15 3.55924e-14 0 0 -5.65353e-16 3.29747e-14 4.89384e-15 2.87683e-14 0 0 4.17348e-15 2.52487e-14 1.46707e-14 2.55859e-14 0 0 8.88733e-15 1.64887e-14 2.81825e-14 8.3965e-15 0 0 1.89301e-14 -4.23858e-15 6.06451e-14 -2.64713e-14 0 0 -4.83255e-15 3.31695e-14 1.98609e-14 -1.27354e-15 0 0 2.05494e-15 1.4817e-14 3.08066e-14 -9.65507e-17 0 0 1.09529e-14 8.18929e-15 3.16778e-14 -4.49572e-15 0 0 -1.16548e-14 5.21572e-14 -1.19242e-14 2.36463e-14 0 0 1.42739e-14 8.73923e-15 3.06521e-14 1.89038e-14 0 0 1.53673e-14 -5.26565e-15 5.82466e-14 3.04932e-14 0 0 3.68407e-14 -3.39234e-14 9.30904e-14 4.11763e-14 0 0 2.84841e-14 8.94569e-15 5.78199e-14 6.65764e-14 0 0 -2.63311e-17 7.19435e-14 1.66914e-14 7.46076e-14 0 0 -3.44485e-15 9.50541e-14 -2.42286e-14 1.04687e-13 0 0 -1.07071e-14 1.30158e-13 -6.7339e-14 1.13486e-13 0 0 2.73139e-14 7.24043e-14 3.07411e-14 3.87905e-15 0 0 5.67837e-14 2.42279e-15 1.51718e-13 -9.07606e-14 0 0 7.64276e-15 6.99713e-14 1.11718e-13 -6.06598e-14 0 0 -5.01244e-14 1.67109e-13 3.19526e-16 1.78016e-14 0 0 1.38298e-14 8.28676e-14 4.63813e-14 -1.12841e-14 0 0 7.44564e-14 -2.09557e-14 1.36016e-13 -5.977e-14 0 0 3.23105e-14 3.88821e-14 7.9263e-14 -1.40688e-14 0 0 2.28766e-14 6.83703e-14 4.57508e-14 -7.31217e-16 0 0 1.7938e-14 5.54319e-14 7.32528e-14 -1.4965e-14 0 0 7.3023e-15 6.25774e-14 7.54784e-14 -3.00976e-14 0 0 -3.06213e-15 1.16125e-13 -1.33668e-14 3.38677e-14 0 0 -1.06487e-14 1.31035e-13 -1.28497e-14 5.92766e-14 0 0 3.10709e-14 5.15481e-14 1.23698e-13 -1.45073e-14 0 0 1.55556e-14 1.07116e-13 7.80633e-14 3.74394e-14 0 0 -2.91971e-15 1.67995e-13 1.52269e-14 1.03206e-13 0 0 3.05258e-14 1.17642e-13 8.77755e-14 6.92727e-14 0 0 1.08937e-13 -6.79762e-15 2.15488e-13 -2.23465e-14 0 0 7.93552e-14 6.92543e-14 1.01737e-13 6.0561e-14 0 0 5.19443e-15 1.71927e-13 -1.61459e-14 1.41346e-13 0 0 1.06196e-15 7.78468e-14 1.04281e-13 4.81805e-14 0 0 -7.39512e-14 1.42758e-13 5.78593e-14 4.36419e-14 0 0 -1.37321e-13 2.16544e-13 -1.18727e-14 6.98729e-14 0 0 -1.1186e-13 1.31588e-13 4.63794e-14 7.57242e-14 0 0 -4.05672e-14 1.67903e-14 1.30117e-13 4.90851e-14 0 0 6.31658e-14 -1.25445e-13 2.9182e-13 -6.16704e-14 0 0 2.96001e-14 -5.03189e-14 2.74777e-13 -8.98472e-14 0 0 -9.20307e-14 1.64519e-13 1.13092e-13 -4.14944e-14 0 0 -1.83413e-13 3.11063e-13 -1.55195e-14 1.32241e-14 0 0 -2.36473e-13 3.72269e-13 -7.48273e-14 3.07673e-14 0 0 -1.63573e-13 2.98797e-13 -1.99366e-14 -1.97696e-14 0 0 -4.38685e-14 1.27116e-13 1.12981e-13 -3.70741e-14 0 0 1.40657e-14 9.24584e-16 2.33925e-13 -2.7539e-14 0 0 -1.25236e-13 2.13602e-13 6.66545e-14 9.33274e-14 0 0 -1.56619e-13 2.67388e-13 4.5336e-14 1.0427e-13 0 0 5.08751e-15 1.88144e-14 2.88585e-13 -3.56032e-14 0 0 -2.29374e-14 1.26296e-13 1.3656e-13 6.12458e-14 0 0 -4.34134e-14 2.15088e-13 -4.60163e-14 2.23319e-13 0 0 3.32995e-14 6.85206e-14 7.49103e-14 1.79949e-13 0 0 -4.04572e-14 1.44241e-13 1.03337e-13 6.09764e-14 0 0 -3.50185e-14 1.19707e-13 2.00492e-13 -7.79277e-14 0 0 4.44949e-14 1.04752e-13 1.32718e-13 -1.06365e-14 0 0 4.24685e-14 2.42879e-13 -3.01208e-14 1.19204e-13 0 0 5.29257e-14 2.40309e-13 1.69266e-14 1.54383e-13 0 0 9.39254e-14 1.68425e-13 1.00296e-13 1.83081e-13 0 0 1.88352e-13 -1.55956e-15 3.28163e-13 9.06826e-14 0 0 2.85434e-14 1.64241e-13 2.76421e-13 1.81074e-13 0 0 -1.64789e-13 4.96364e-13 1.42921e-14 3.26396e-13 0 0 -1.77889e-14 3.27842e-13 1.95222e-13 1.50437e-13 0 0 4.96685e-14 1.4942e-13 4.19871e-13 -5.96054e-15 0 0 -1.40193e-14 1.48226e-13 4.77407e-13 -2.27356e-14 0 0 -2.92064e-13 4.61942e-13 2.49219e-13 1.68809e-13 0 0 -3.31614e-13 4.11732e-13 4.06915e-13 1.25885e-13 0 0 -2.34741e-13 3.13213e-13 4.50791e-13 1.91439e-13 0 0 -1.30604e-13 2.72121e-13 3.17303e-13 2.78282e-13 0 0 -5.40618e-14 1.59841e-13 4.67066e-13 -7.87881e-16 0 0 -3.48763e-13 7.52559e-13 -1.0215e-13 3.05919e-13 0 0 -1.14251e-13 4.76923e-13 1.1352e-14 4.34934e-13 0 0 -2.70593e-13 5.08638e-13 1.27052e-13 4.5015e-13 0 0 -4.44355e-13 6.93773e-13 3.13353e-13 2.06241e-13 0 0 1.73053e-13 5.15744e-14 9.29204e-13 -2.69319e-13 0 0 3.58676e-13 2.96314e-13 4.17285e-13 5.16825e-14 0 0 3.439e-13 4.54567e-13 3.28121e-14 3.94693e-13 0 0 5.80044e-13 2.73542e-13 1.90815e-13 2.5418e-13 0 0 3.85533e-13 5.22385e-13 1.77156e-13 -5.69907e-15 0 0 1.72266e-13 7.91204e-13 3.29234e-14 -7.83814e-14 0 0 2.34991e-13 6.36054e-13 2.71635e-13 -3.50618e-13 0 0 3.7039e-13 4.60334e-13 3.7814e-13 -3.38006e-13 0 0 3.9393e-13 4.97771e-13 2.99331e-13 -1.76806e-13 0 0 3.33685e-13 7.43672e-13 -2.74516e-15 1.79485e-13 0 0 3.79662e-13 7.60576e-13 -2.02482e-13 4.80432e-13 0 0 4.62308e-13 7.23677e-13 -1.8298e-13 5.01938e-13 0 0 5.17634e-13 5.73209e-13 -6.23404e-15 3.91139e-13 0 0 6.67396e-13 2.3485e-13 3.33149e-13 1.4391e-13 0 0 7.01252e-13 4.71351e-14 5.37646e-13 2.27677e-14 0 0 6.72695e-13 6.85765e-14 5.35278e-13 5.04954e-14 0 0 6.05603e-13 1.49998e-13 4.33082e-13 1.84634e-13 0 0 4.35108e-13 3.92014e-13 1.97294e-13 3.01894e-13 0 0 2.11666e-13 6.8913e-13 1.6179e-14 3.07208e-13 0 0 9.93562e-14 8.1382e-13 1.54654e-14 2.411e-13 0 0 1.04772e-13 8.05457e-13 7.51191e-14 6.10556e-14 0 0 1.53071e-13 7.16014e-13 2.76093e-13 -1.19175e-13 0 0 2.62409e-13 4.83659e-13 5.08544e-13 -2.69693e-13 0 0 3.01064e-13 2.2073e-13 7.16613e-13 -3.98105e-13 0 0 3.07102e-13 1.17763e-13 7.08702e-13 -3.94479e-13 0 0 2.80399e-13 1.30085e-13 6.29848e-13 -3.41113e-13 0 0 1.62198e-13 1.84935e-13 5.30148e-13 -2.30499e-13 0 0 4.96095e-14 2.30186e-13 4.30554e-13 -1.23117e-13 0 0 5.82133e-15 2.25803e-13 4.3804e-13 -9.34333e-14 0 0 -7.00709e-15 2.13287e-13 4.92455e-13 -7.85194e-14 0 0 4.46555e-15 1.94514e-13 5.17567e-13 -3.4496e-14 0 0 4.98546e-15 2.34279e-13 4.6035e-13 7.09892e-14 0 0 -2.87226e-15 4.14341e-13 1.92151e-13 2.85019e-13 0 0 8.02272e-16 5.54548e-13 -4.06183e-14 4.83686e-13 0 0 3.95493e-14 5.42633e-13 -4.61248e-14 4.96408e-13 0 0 1.54106e-13 3.88494e-13 3.86307e-14 4.74395e-13 0 0 1.70728e-13 2.3164e-13 1.86677e-13 4.66876e-13 0 0 1.35291e-13 1.69069e-13 2.85033e-13 4.72631e-13 0 0 1.46457e-13 2.78835e-14 4.34875e-13 3.72399e-13 0 0 1.42241e-13 1.98756e-14 4.37488e-13 3.61486e-13 0 0 8.84614e-14 9.64572e-14 3.63915e-13 4.07241e-13 0 0 5.73203e-14 1.62492e-13 3.57826e-13 3.54426e-13 0 0 7.16721e-14 1.87239e-13 3.66579e-13 2.9048e-13 0 0 7.52812e-14 2.47325e-13 3.15955e-13 2.39452e-13 0 0 6.60903e-14 3.00907e-13 2.68948e-13 1.22226e-13 0 0 9.18068e-14 2.56313e-13 2.87773e-13 4.70257e-14 0 0 1.29753e-13 2.03658e-13 2.85111e-13 5.27123e-14 0 0 1.0433e-13 2.63259e-13 1.66932e-13 1.13261e-13 0 0 9.01347e-14 2.99163e-13 1.11713e-13 1.50103e-13 0 0 1.16852e-13 2.1703e-13 2.32199e-13 1.26467e-13 0 0 1.44128e-13 2.15322e-13 2.43969e-13 2.00827e-13 0 0 1.20274e-13 3.40028e-13 1.84585e-13 3.25222e-13 0 0 1.25902e-13 3.54656e-13 2.49565e-13 3.54451e-13 0 0 2.3911e-13 2.56177e-13 4.35796e-13 3.08957e-13 0 0 3.13887e-13 2.52402e-13 5.30158e-13 2.36318e-13 0 0 3.20971e-13 3.57009e-13 4.42869e-13 2.78877e-13 0 0 2.89955e-13 5.33583e-13 3.0154e-13 3.2987e-13 0 0 3.18945e-13 5.35842e-13 3.97385e-13 2.25403e-13 0 0 4.02349e-13 4.98055e-13 3.89071e-13 2.55513e-13 0 0 4.16586e-13 5.33979e-13 2.93089e-13 2.96174e-13 0 0 4.28508e-13 4.67128e-13 4.21403e-13 1.55573e-13 0 0 3.15255e-13 5.67055e-13 3.77175e-13 1.51772e-13 0 0 2.47402e-13 6.6236e-13 2.36956e-13 2.3334e-13 0 0 3.85471e-13 4.48037e-13 3.66082e-13 1.91386e-13 0 0 4.61779e-13 3.19721e-13 4.65167e-13 1.84033e-13 0 0 4.04393e-13 4.51153e-13 3.27671e-13 2.46053e-13 0 0 2.44806e-13 6.75877e-13 8.30008e-14 4.24582e-13 0 0 1.89267e-13 7.12922e-13 3.15775e-14 4.97865e-13 0 0 3.80404e-13 3.74451e-13 4.35842e-13 2.14074e-13 0 0 3.50473e-13 3.76115e-13 4.79687e-13 1.8997e-13 0 0 1.68565e-13 6.41245e-13 2.38501e-13 2.99572e-13 0 0 2.56854e-13 5.45706e-13 3.49292e-13 1.47008e-13 0 0 3.79476e-13 4.4448e-13 3.48488e-13 2.36012e-13 0 0 4.55415e-13 3.7982e-13 4.07792e-13 2.7114e-13 0 0 4.12984e-13 4.37396e-13 5.1664e-13 8.09783e-14 0 0 1.51841e-13 8.47201e-13 2.45574e-13 2.27383e-13 0 0 1.91163e-13 8.78161e-13 2.15977e-13 3.76635e-13 0 0 4.94372e-13 5.48402e-13 3.54426e-13 4.52117e-13 0 0 6.4493e-13 4.11373e-13 3.25206e-13 5.76959e-13 0 0 5.90821e-13 5.33949e-13 3.13716e-13 5.02226e-13 0 0 2.12699e-13 1.037e-12 7.62602e-14 4.39048e-13 0 0 1.61961e-13 1.00662e-12 2.37089e-13 2.29736e-13 0 0 4.6461e-13 5.10997e-13 7.84925e-13 -2.21941e-13 0 0 4.66743e-13 5.50987e-13 6.86771e-13 -7.23926e-14 0 0 4.14943e-13 6.59284e-13 4.52196e-13 2.64283e-13 0 0 3.61853e-13 6.85235e-13 5.0176e-13 1.30039e-13 0 0 2.93926e-13 7.71668e-13 4.09101e-13 1.63483e-13 0 0 3.88035e-13 5.86878e-13 4.543e-13 2.52418e-13 0 0 5.83872e-13 2.9419e-13 6.18391e-13 2.73629e-13 0 0 5.98232e-13 2.15295e-13 8.18616e-13 9.2846e-14 0 0 3.73583e-13 3.9871e-13 7.98286e-13 4.05631e-14 0 0 2.46661e-13 5.36127e-13 5.92064e-13 2.8958e-13 0 0 2.1424e-13 6.29197e-13 4.73452e-13 3.46311e-13 0 0 1.1113e-13 8.17163e-13 4.20521e-13 1.40141e-13 0 0 3.78448e-13 4.60341e-13 6.68885e-13 -4.30969e-14 0 0 5.16347e-13 2.76138e-13 6.54079e-13 9.9733e-15 0 0 3.50899e-13 4.70633e-13 3.71842e-13 9.58835e-14 0 0 3.44965e-13 3.8561e-13 4.9522e-13 -9.64108e-14 0 0 2.18015e-13 4.27164e-13 5.13501e-13 -3.42325e-14 0 0 3.39061e-13 2.87322e-13 5.02553e-13 1.65933e-13 0 0 4.5679e-13 2.84385e-13 3.31197e-13 2.75819e-13 0 0 2.94036e-13 5.44777e-13 6.95277e-14 3.91024e-13 0 0 2.98261e-13 4.37793e-13 4.69674e-13 -5.16039e-14 0 0 3.10057e-13 5.35133e-13 3.61922e-13 -9.3272e-15 0 0 3.17178e-13 7.0251e-13 -1.08581e-13 4.80041e-13 0 0 4.76167e-13 3.69489e-13 2.40611e-13 3.17554e-13 0 0 4.63426e-13 2.5625e-13 5.50697e-13 1.28679e-13 0 0 4.50017e-13 2.92226e-13 5.85421e-13 1.4247e-13 0 0 5.05404e-13 3.9001e-13 4.05903e-13 2.55868e-13 0 0 5.7965e-13 3.07533e-13 4.63023e-13 2.75115e-13 0 0 6.39617e-13 1.24447e-13 6.91492e-13 1.8608e-13 0 0 4.60997e-13 4.38458e-13 3.42182e-13 4.46086e-13 0 0 1.96989e-13 8.45167e-13 -4.86107e-14 7.28909e-13 0 0 2.15664e-13 7.94525e-13 1.19346e-13 5.86498e-13 0 0 5.77066e-13 2.16921e-13 7.06156e-13 2.37595e-13 0 0 6.06114e-13 -3.2314e-14 1.00344e-12 1.0347e-13 0 0 -7.27225e-14 8.82909e-13 2.57883e-13 4.37841e-13 0 0 -4.1934e-14 9.79768e-13 6.41059e-15 6.36423e-13 0 0 8.0062e-13 -1.88855e-13 9.12864e-13 2.8211e-13 0 0 1.11329e-12 -6.47894e-13 1.31363e-12 7.45492e-14 0
				</DataArray>
				<DataArray Name="VitesseY" type="Float32" format="ascii">