<?xml version="1.0"?>
<VTKFile type="PolyData">
	<PolyData>
		<Piece NumberOfPoints="1206" NumberOfPolys="1000">
			<Points>
				<DataArray type="Float32" NumberOfComponents="3" format="ascii">
 0 0 0 0.02 0 0 0.04 0 0 0.06 0 0 0.08 0 0 0.1 0 0 0 0.005 0 0.02 0.005 0 0.04 0.005 0 0.06 0.005 0 0.08 0.005 0 0.1 0.005 0 0 0.01 0 0.02 0.01 0 0.04 0.01 0 0.06 0.01 0 0.08 0.01 0 0.1 0.01 0 0 0.015 0 0.02 0.015 0 0.04 0.015 0 0.06 0.015 0 0.08 0.015 0 0.1 0.015 0 0 0.02 0 0.02 0.02 0 0.04 0.02 0 0.06 0.02 0 0.08 0.02 0 0.1 0.02 0 0 0.025 0 0.02 0.025 0 0.04 0.025 0 0.06 0.025 0 0.08 0.025 0 0.1 0.025 0 0 0.03 0 0.02 0.03 0 0.04 0.03 0 0.06 0.03 0 0.08 0.03 0 0.1 0.03 0 0 0.035 0 0.02 0.035 0 0.04 0.035 0 0.06 0.035 0 0.08 0.035 0 0.1 0.035 0 0 0.04 0 0.02 0.04 0 0.04 0.04 0 0.06 0.04 0 0.08 0.04 0 0.1 0.04 0 0 0.045 0 0.02 0.045 0 0.04 0.045 0 0.06 0.045 0 0.08 0.045 0 0.1 0.045 0 0 0.05 0 0.02 0.05 0 0.04 0.05 0 0.06 0.05 0 0.08 0.05 0 0.1 0.05 0 0 0.055 0 0.02 0.055 0 0.04 0.055 0 0.06 0.055 0 0.08 0.055 0 0.1 0.055 0 0 0.06 0 0.02 0.06 0 0.04 0.06 0 0.06 0.06 0 0.08 0.06 0 0.1 0.06 0 0 0.065 0 0.02 0.065 0 0.04 0.065 0 0.06 0.065 0 0.08 0.065 0 0.1 0.065 0 0 0.07 0 0.02 0.07 0 0.04 0.07 0 0.06 0.07 0 0.08 0.07 0 0.1 0.07 0 0 0.075 0 0.02 0.075 0 0.04 0.075 0 0.06 0.075 0 0.08 0.075 0 0.1 0.075 0 0 0.08 0 0.02 0.08 0 0.04 0.08 0 0.06 0.08 0 0.08 0.08 0 0.1 0.08 0 0 0.085 0 0.02 0.085 0 0.04 0.085 0 0.06 0.085 0 0.08 0.085 0 0.1 0.085 0 0 0.09 0 0.02 0.09 0 0.04 0.09 0 0.06 0.09 0 0.08 0.09 0 0.1 0.09 0 0 0.095 0 0.02 0.095 0 0.04 0.095 0 0.06 0.095 0 0.08 0.095 0 0.1 0.095 0 0 0.1 0 0.02 0.1 0 0.04 0.1 0 0.06 0.1 0 0.08 0.1 0 0.1 0.1 0 0 0.105 0 0.02 0.105 0 0.04 0.105 0 0.06 0.105 0 0.08 0.105 0 0.1 0.105 0 0 0.11 0 0.02 0.11 0 0.04 0.11 0 0.06 0.11 0 0.08 0.11 0 0.1 0.11 0 0 0.115 0 0.02 0.115 0 0.04 0.115 0 0.06 0.115 0 0.08 0.115 0 0.1 0.115 0 0 0.12 0 0.02 0.12 0 0.04 0.12 0 0.06 0.12 0 0.08 0.12 0 0.1 0.12 0 0 0.125 0 0.02 0.125 0 0.04 0.125 0 0.06 0.125 0 0.08 0.125 0 0.1 0.125 0 0 0.13 0 0.02 0.13 0 0.04 0.13 0 0.06 0.13 0 0.08 0.13 0 0.1 0.13 0 0 0.135 0 0.02 0.135 0 0.04 0.135 0 0.06 0.135 0 0.08 0.135 0 0.1 0.135 0 0 0.14 0 0.02 0.14 0 0.04 0.14 0 0.06 0.14 0 0.08 0.14 0 0.1 0.14 0 0 0.145 0 0.02 0.145 0 0.04 0.145 0 0.06 0.145 0 0.08 0.145 0 0.1 0.145 0 0 0.15 0 0.02 0.15 0 0.04 0.15 0 0.06 0.15 0 0.08 0.15 0 0.1 0.15 0 0 0.155 0 0.02 0.155 0 0.04 0.155 0 0.06 0.155 0 0.08 0.155 0 0.1 0.155 0 0 0.16 0 0.02 0.16 0 0.04 0.16 0 0.06 0.16 0 0.08 0.16 0 0.1 0.16 0 0 0.165 0 0.02 0.165 0 0.04 0.165 0 0.06 0.165 0 0.08 0.165 0 0.1 0.165 0 0 0.17 0 0.02 0.17 0 0.04 0.17 0 0.06 0.17 0 0.08 0.17 0 0.1 0.17 0 0 0.175 0 0.02 0.175 0 0.04 0.175 0 0.06 0.175 0 0.08 0.175 0 0.1 0.175 0 0 0.18 0 0.02 0.18 0 0.04 0.18 0 0.06 0.18 0 0.08 0.18 0 0.1 0.18 0 0 0.185 0 0.02 0.185 0 0.04 0.185 0 0.06 0.185 0 0.08 0.185 0 0.1 0.185 0 0 0.19 0 0.02 0.19 0 0.04 0.19 0 0.06 0.19 0 0.08 0.19 0 0.1 0.19 0 0 0.195 0 0.02 0.195 0 0.04 0.195 0 0.06 0.195 0 0.08 0.195 0 0.1 0.195 0 0 0.2 0 0.02 0.2 0 0.04 0.2 0 0.06 0.2 0 0.08 0.2 0 0.1 0.2 0 0 0.205 0 0.02 0.205 0 0.04 0.205 0 0.06 0.205 0 0.08 0.205 0 0.1 0.205 0 0 0.21 0 0.02 0.21 0 0.04 0.21 0 0.06 0.21 0 0.08 0.21 0 0.1 0.21 0 0 0.215 0 0.02 0.215 0 0.04 0.215 0 0.06 0.215 0 0.08 0.215 0 0.1 0.215 0 0 0.22 0 0.02 0.22 0 0.04 0.22 0 0.06 0.22 0 0.08 0.22 0 0.1 0.22 0 0 0.225 0 0.02 0.225 0 0.04 0.225 0 0.06 0.225 0 0.08 0.225 0 0.1 0.225 0 0 0.23 0 0.02 0.23 0 0.04 0.23 0 0.06 0.23 0 0.08 0.23 0 0.1 0.23 0 0 0.235 0 0.02 0.235 0 0.04 0.235 0 0.06 0.235 0 0.08 0.235 0 0.1 0.235 0 0 0.24 0 0.02 0.24 0 0.04 0.24 0 0.06 0.24 0 0.08 0.24 0 0.1 0.24 0 0 0.245 0 0.02 0.245 0 0.04 0.245 0 0.06 0.245 0 0.08 0.245 0 0.1 0.245 0 0 0.25 0 0.02 0.25 0 0.04 0.25 0 0.06 0.25 0 0.08 0.25 0 0.1 0.25 0 0 0.255 0 0.02 0.255 0 0.04 0.255 0 0.06 0.255 0 0.08 0.255 0 0.1 0.255 0 0 0.26 0 0.02 0.26 0 0.04 0.26 0 0.06 0.26 0 0.08 0.26 0 0.1 0.26 0 0 0.265 0 0.02 0.265 0 0.04 0.265 0 0.06 0.265 0 0.08 0.265 0 0.1 0.265 0 0 0.27 0 0.02 0.27 0 0.04 0.27 0 0.06 0.27 0 0.08 0.27 0 0.1 0.27 0 0 0.275 0 0.02 0.275 0 0.04 0.275 0 0.06 0.275 0 0.08 0.275 0 0.1 0.275 0 0 0.28 0 0.02 0.28 0 0.04 0.28 0 0.06 0.28 0 0.08 0.28 0 0.1 0.28 0 0 0.285 0 0.02 0.285 0 0.04 0.285 0 0.06 0.285 0 0.08 0.285 0 0.1 0.285 0 0 0.29 0 0.02 0.29 0 0.04 0.29 0 0.06 0.29 0 0.08 0.29 0 0.1 0.29 0 0 0.295 0 0.02 0.295 0 0.04 0.295 0 0.06 0.295 0 0.08 0.295 0 0.1 0.295 0 0 0.3 0 0.02 0.3 0 0.04 0.3 0 0.06 0.3 0 0.08 0.3 0 0.1 0.3 0 0 0.305 0 0.02 0.305 0 0.04 0.305 0 0.06 0.305 0 0.08 0.305 0 0.1 0.305 0 0 0.31 0 0.02 0.31 0 0.04 0.31 0 0.06 0.31 0 0.08 0.31 0 0.1 0.31 0 0 0.315 0 0.02 0.315 0 0.04 0.315 0 0.06 0.315 0 0.08 0.315 0 0.1 0.315 0 0 0.32 0 0.02 0.32 0 0.04 0.32 0 0.06 0.32 0 0.08 0.32 0 0.1 0.32 0 0 0.325 0 0.02 0.325 0 0.04 0.325 0 0.06 0.325 0 0.08 0.325 0 0.1 0.325 0 0 0.33 0 0.02 0.33 0 0.04 0.33 0 0.06 0.33 0 0.08 0.33 0 0.1 0.33 0 0 0.335 0 0.02 0.335 0 0.04 0.335 0 0.06 0.335 0 0.08 0.335 0 0.1 0.335 0 0 0.34 0 0.02 0.34 0 0.04 0.34 0 0.06 0.34 0 0.08 0.34 0 0.1 0.34 0 0 0.345 0 0.02 0.345 0 0.04 0.345 0 0.06 0.345 0 0.08 0.345 0 0.1 0.345 0 0 0.35 0 0.02 0.35 0 0.04 0.35 0 0.06 0.35 0 0.08 0.35 0 0.1 0.35 0 0 0.355 0 0.02 0.355 0 0.04 0.355 0 0.06 0.355 0 0.08 0.355 0 0.1 0.355 0 0 0.36 0 0.02 0.36 0 0.04 0.36 0 0.06 0.36 0 0.08 0.36 0 0.1 0.36 0 0 0.365 0 0.02 0.365 0 0.04 0.365 0 0.06 0.365 0 0.08 0.365 0 0.1 0.365 0 0 0.37 0 0.02 0.37 0 0.04 0.37 0 0.06 0.37 0 0.08 0.37 0 0.1 0.37 0 0 0.375 0 0.02 0.375 0 0.04 0.375 0 0.06 0.375 0 0.08 0.375 0 0.1 0.375 0 0 0.38 0 0.02 0.38 0 0.04 0.38 0 0.06 0.38 0 0.08 0.38 0 0.1 0.38 0 0 0.385 0 0.02 0.385 0 0.04 0.385 0 0.06 0.385 0 0.08 0.385 0 0.1 0.385 0 0 0.39 0 0.02 0.39 0 0.04 0.39 0 0.06 0.39 0 0.08 0.39 0 0.1 0.39 0 0 0.395 0 0.02 0.395 0 0.04 0.395 0 0.06 0.395 0 0.08 0.395 0 0.1 0.395 0 0 0.4 0 0.02 0.4 0 0.04 0.4 0 0.06 0.4 0 0.08 0.4 0 0.1 0.4 0 0 0.405 0 0.02 0.405 0 0.04 0.405 0 0.06 0.405 0 0.08 0.405 0 0.1 0.405 0 0 0.41 0 0.02 0.41 0 0.04 0.41 0 0.06 0.41 0 0.08 0.41 0 0.1 0.41 0 0 0.415 0 0.02 0.415 0 0.04 0.415 0 0.06 0.415 0 0.08 0.415 0 0.1 0.415 0 0 0.42 0 0.02 0.42 0 0.04 0.42 0 0.06 0.42 0 0.08 0.42 0 0.1 0.42 0 0 0.425 0 0.02 0.425 0 0.04 0.425 0 0.06 0.425 0 0.08 0.425 0 0.1 0.425 0 0 0.43 0 0.02 0.43 0 0.04 0.43 0 0.06 0.43 0 0.08 0.43 0 0.1 0.43 0 0 0.435 0 0.02 0.435 0 0.04 0.435 0 0.06 0.435 0 0.08 0.435 0 0.1 0.435 0 0 0.44 0 0.02 0.44 0 0.04 0.44 0 0.06 0.44 0 0.08 0.44 0 0.1 0.44 0 0 0.445 0 0.02 0.445 0 0.04 0.445 0 0.06 0.445 0 0.08 0.445 0 0.1 0.445 0 0 0.45 0 0.02 0.45 0 0.04 0.45 0 0.06 0.45 0 0.08 0.45 0 0.1 0.45 0 0 0.455 0 0.02 0.455 0 0.04 0.455 0 0.06 0.455 0 0.08 0.455 0 0.1 0.455 0 0 0.46 0 0.02 0.46 0 0.04 0.46 0 0.06 0.46 0 0.08 0.46 0 0.1 0.46 0 0 0.465 0 0.02 0.465 0 0.04 0.465 0 0.06 0.465 0 0.08 0.465 0 0.1 0.465 0 0 0.47 0 0.02 0.47 0 0.04 0.47 0 0.06 0.47 0 0.08 0.47 0 0.1 0.47 0 0 0.475 0 0.02 0.475 0 0.04 0.475 0 0.06 0.475 0 0.08 0.475 0 0.1 0.475 0 0 0.48 0 0.02 0.48 0 0.04 0.48 0 0.06 0.48 0 0.08 0.48 0 0.1 0.48 0 0 0.485 0 0.02 0.485 0 0.04 0.485 0 0.06 0.485 0 0.08 0.485 0 0.1 0.485 0 0 0.49 0 0.02 0.49 0 0.04 0.49 0 0.06 0.49 0 0.08 0.49 0 0.1 0.49 0 0 0.495 0 0.02 0.495 0 0.04 0.495 0 0.06 0.495 0 0.08 0.495 0 0.1 0.495 0 0 0.5 0 0.02 0.5 0 0.04 0.5 0 0.06 0.5 0 0.08 0.5 0 0.1 0.5 0 0 0.505 0 0.02 0.505 0 0.04 0.505 0 0.06 0.505 0 0.08 0.505 0 0.1 0.505 0 0 0.51 0 0.02 0.51 0 0.04 0.51 0 0.06 0.51 0 0.08 0.51 0 0.1 0.51 0 0 0.515 0 0.02 0.515 0 0.04 0.515 0 0.06 0.515 0 0.08 0.515 0 0.1 0.515 0 0 0.52 0 0.02 0.52 0 0.04 0.52 0 0.06 0.52 0 0.08 0.52 0 0.1 0.52 0 0 0.525 0 0.02 0.525 0 0.04 0.525 0 0.06 0.525 0 0.08 0.525 0 0.1 0.525 0 0 0.53 0 0.02 0.53 0 0.04 0.53 0 0.06 0.53 0 0.08 0.53 0 0.1 0.53 0 0 0.535 0 0.02 0.535 0 0.04 0.535 0 0.06 0.535 0 0.08 0.535 0 0.1 0.535 0 0 0.54 0 0.02 0.54 0 0.04 0.54 0 0.06 0.54 0 0.08 0.54 0 0.1 0.54 0 0 0.545 0 0.02 0.545 0 0.04 0.545 0 0.06 0.545 0 0.08 0.545 0 0.1 0.545 0 0 0.55 0 0.02 0.55 0 0.04 0.55 0 0.06 0.55 0 0.08 0.55 0 0.1 0.55 0 0 0.555 0 0.02 0.555 0 0.04 0.555 0 0.06 0.555 0 0.08 0.555 0 0.1 0.555 0 0 0.56 0 0.02 0.56 0 0.04 0.56 0 0.06 0.56 0 0.08 0.56 0 0.1 0.56 0 0 0.565 0 0.02 0.565 0 0.04 0.565 0 0.06 0.565 0 0.08 0.565 0 0.1 0.565 0 0 0.57 0 0.02 0.57 0 0.04 0.57 0 0.06 0.57 0 0.08 0.57 0 0.1 0.57 0 0 0.575 0 0.02 0.575 0 0.04 0.575 0 0.06 0.575 0 0.08 0.575 0 0.1 0.575 0 0 0.58 0 0.02 0.58 0 0.04 0.58 0 0.06 0.58 0 0.08 0.58 0 0.1 0.58 0 0 0.585 0 0.02 0.585 0 0.04 0.585 0 0.06 0.585 0 0.08 0.585 0 0.1 0.585 0 0 0.59 0 0.02 0.59 0 0.04 0.59 0 0.06 0.59 0 0.08 0.59 0 0.1 0.59 0 0 0.595 0 0.02 0.595 0 0.04 0.595 0 0.06 0.595 0 0.08 0.595 0 0.1 0.595 0 0 0.6 0 0.02 0.6 0 0.04 0.6 0 0.06 0.6 0 0.08 0.6 0 0.1 0.6 0 0 0.605 0 0.02 0.605 0 0.04 0.605 0 0.06 0.605 0 0.08 0.605 0 0.1 0.605 0 0 0.61 0 0.02 0.61 0 0.04 0.61 0 0.06 0.61 0 0.08 0.61 0 0.1 0.61 0 0 0.615 0 0.02 0.615 0 0.04 0.615 0 0.06 0.615 0 0.08 0.615 0 0.1 0.615 0 0 0.62 0 0.02 0.62 0 0.04 0.62 0 0.06 0.62 0 0.08 0.62 0 0.1 0.62 0 0 0.625 0 0.02 0.625 0 0.04 0.625 0 0.06 0.625 0 0.08 0.625 0 0.1 0.625 0 0 0.63 0 0.02 0.63 0 0.04 0.63 0 0.06 0.63 0 0.08 0.63 0 0.1 0.63 0 0 0.635 0 0.02 0.635 0 0.04 0.635 0 0.06 0.635 0 0.08 0.635 0 0.1 0.635 0 0 0.64 0 0.02 0.64 0 0.04 0.64 0 0.06 0.64 0 0.08 0.64 0 0.1 0.64 0 0 0.645 0 0.02 0.645 0 0.04 0.645 0 0.06 0.645 0 0.08 0.645 0 0.1 0.645 0 0 0.65 0 0.02 0.65 0 0.04 0.65 0 0.06 0.65 0 0.08 0.65 0 0.1 0.65 0 0 0.655 0 0.02 0.655 0 0.04 0.655 0 0.06 0.655 0 0.08 0.655 0 0.1 0.655 0 0 0.66 0 0.02 0.66 0 0.04 0.66 0 0.06 0.66 0 0.08 0.66 0 0.1 0.66 0 0 0.665 0 0.02 0.665 0 0.04 0.665 0 0.06 0.665 0 0.08 0.665 0 0.1 0.665 0 0 0.67 0 0.02 0.67 0 0.04 0.67 0 0.06 0.67 0 0.08 0.67 0 0.1 0.67 0 0 0.675 0 0.02 0.675 0 0.04 0.675 0 0.06 0.675 0 0.08 0.675 0 0.1 0.675 0 0 0.68 0 0.02 0.68 0 0.04 0.68 0 0.06 0.68 0 0.08 0.68 0 0.1 0.68 0 0 0.685 0 0.02 0.685 0 0.04 0.685 0 0.06 0.685 0 0.08 0.685 0 0.1 0.685 0 0 0.69 0 0.02 0.69 0 0.04 0.69 0 0.06 0.69 0 0.08 0.69 0 0.1 
[...]
			<PointData Scalars="VitesseX">
				<DataArray Name="VitesseX" type="Float32" format="ascii">
 0 3.44915e-15 -1.42953e-14 1.85984e-14 -3.11383e-14 0 0 4.29779e-15 -1.21284e-14 1.36054e-14 -2.32964e-14 0 0 -4.98317e-16 5.81218e-15 -1.2697e-14 7.15256e-15 0 0 2.28945e-14 -2.18577e-14 1.27853e-14 7.64937e-15 0 0 2.17964e-14 -1.21725e-14 1.5309e-14 1.25603e-14 0 0 -2.07599e-14 5.33977e-14 -1.77586e-14 2.55022e-14 0 0 -1.2419e-14 2.61691e-14 4.01615e-14 -1.26651e-14 0 0 2.04255e-14 -2.39102e-14 9.37666e-14 -3.82219e-14 0 0 8.45383e-15 8.67855e-15 6.93942e-14 -2.16198e-14 0 0 7.36923e-15 3.86915e-14 3.38707e-14 7.49443e-15 0 0 6.08559e-14 -9.53712e-15 4.51864e-14 9.67329e-15 0 0 4.08253e-14 3.30547e-14 -2.76753e-14 5.84329e-14 0 0 7.12318e-14 -3.56996e-14 3.40592e-14 1.36119e-14 0 0 6.52401e-14 -2.73067e-14 2.08728e-14 -5.1469e-15 0 0 3.21621e-14 2.91481e-14 -4.5205e-14 2.9612e-14 0 0 8.81305e-14 -8.90149e-14 9.24141e-14 -4.18736e-14 0 0 1.90423e-14 2.20089e-14 1.11636e-15 2.35085e-14 0 0 2.38043e-14 3.24061e-14 1.54636e-14 3.84187e-15 0 0 4.75423e-14 1.04675e-15 7.9644e-14 -4.80319e-14 0 0 3.52654e-14 2.68963e-14 4.97299e-14 -2.72661e-14 0 0 9.14262e-14 -7.55406e-14 1.18662e-13 -6.48637e-14 0 0 7.99261e-14 -8.6274e-14 9.24624e-14 -3.19758e-14 0 0 -8.18802e-15 2.92006e-14 -4.44496e-14 5.80254e-14 0 0 -7.7738e-14 1.31428e-13 -1.5557e-13 1.21221e-13 0 0 3.2224e-14 -2.67934e-14 -3.63228e-15 3.24731e-14 0 0 1.43028e-13 -1.98882e-13 1.83981e-13 -6.44497e-14 0 0 3.27524e-14 -5.38376e-14 6.93316e-14 4.68777e-14 0 0 -2.69297e-14 1.22651e-14 3.30794e-15 1.50038e-13 0 0 1.81477e-15 -4.27549e-14 6.44154e-14 1.51189e-13 0 0 1.71884e-14 -4.26695e-14 7.4308e-14 1.44126e-13 0 0 -1.12084e-14 5.33595e-14 -3.62804e-14 1.90567e-13 0 0 4.4311e-14 8.71016e-15 8.29442e-15 1.00706e-13 0 0 9.16694e-14 -6.24971e-14 9.51863e-14 -3.2202e-14 0 0 -2.02957e-14 7.08941e-14 -7.84472e-15 -3.27002e-14 0 0 4.19799e-14 -1.38115e-14 1.12505e-14 -2.91376e-14 0 0 8.9336e-14 -5.67533e-14 -1.31696e-14 2.26192e-14 0 0 1.06992e-13 -1.21806e-13 1.0764e-13 -4.1036e-14 0 0 5.21798e-14 -2.25198e-14 2.07378e-15 6.00591e-14 0 0 6.69894e-14 -2.53065e-14 -1.64298e-14 8.38165e-14 0 0 1.35233e-13 -1.38333e-13 7.97687e-14 4.51754e-14 0 0 5.31095e-15 7.41006e-15 -1.38755e-14 1.08022e-13 0 0 -3.07085e-14 -2.46731e-14 1.58736e-13 -4.7306e-14 0 0 -1.04587e-13 1.27058e-13 1.30375e-14 7.48635e-15 0 0 -3.46516e-14 1.1863e-13 -7.14869e-14 6.46939e-14 0 0 1.51659e-13 -1.19182e-13 1.54038e-13 -6.2129e-14 0 0 7.83656e-14 7.13091e-14 -7.92421e-14 1.26175e-13 0 0 1.10308e-13 8.80333e-14 -1.6265e-13 1.95804e-13 0 0 8.50582e-14 1.02808e-13 -1.49579e-13 1.45208e-13 0 0 3.11322e-14 1.4713e-13 -1.31373e-13 7.13055e-14 0 0 1.08491e-13 2.799e-14 1.54158e-14 -7.35424e-14 0 0 2.20147e-13 -9.20721e-14 9.27646e-14 -1.37047e-13 0 0 2.96554e-13 -1.6717e-13 1.33529e-13 -1.5658e-13 0 0 -9.60758e-14 4.44151e-13 -5.20327e-13 2.98123e-13 0 0 3.115e-14 1.62293e-13 -2.48695e-13 1.74856e-13 0 0 3.83953e-13 -3.71225e-13 2.57609e-13 -1.7929e-13 0 0 2.20863e-13 -7.31141e-15 -1.5604e-13 1.1003e-14 0 0 2.28204e-13 -4.36899e-14 -7.85718e-14 -1.03726e-13 0 0 9.36104e-14 1.29697e-13 -2.09751e-13 -8.16311e-14 0 0 1.82276e-13 -3.16674e-14 -1.03095e-13 -1.07534e-13 0 0 3.48754e-13 -2.81826e-13 4.24275e-14 -1.23407e-13 0 0 1.96373e-13 -5.43731e-14 -1.88051e-13 2.49498e-14 0 0 5.99733e-14 -2.16079e-14 -4.6819e-14 -1.01421e-13 0 0 -2.07555e-14 3.69704e-15 3.91953e-14 -1.53069e-13 0 0 6.4746e-14 -1.24434e-13 1.73861e-13 -2.10304e-13 0 0 8.04729e-15 -7.64045e-15 9.08149e-14 -1.63978e-13 0 0 -5.18728e-14 1.29487e-13 -6.54151e-14 -2.36566e-14 0 0 8.35413e-14 -1.13899e-13 1.39489e-13 -6.13703e-14 0 0 4.01555e-14 -1.19648e-14 2.81042e-14 2.75756e-14 0 0 1.85571e-13 -1.74033e-13 1.95748e-13 -1.26516e-13 0 0 2.70702e-13 -1.92065e-13 1.98409e-13 -2.17303e-13 0 0 1.00611e-14 3.11295e-13 -3.2175e-13 5.16755e-14 0 0 1.5279e-13 4.38908e-14 -4.85542e-14 -9.98789e-14 0 0 2.97863e-13 -1.69421e-13 1.47995e-13 -1.55608e-13 0 0 4.26136e-13 -3.46536e-13 3.25321e-13 -1.76597e-13 0 0 2.11206e-13 -6.51567e-15 1.47333e-14 2.19376e-14 0 0 9.67471e-14 2.8484e-13 -2.62659e-13 1.32424e-13 0 0 5.90509e-13 -2.81423e-13 3.213e-13 -2.41877e-13 0 0 4.98207e-13 1.16813e-14 1.11805e-13 -1.60969e-13 0 0 3.53446e-13 1.52765e-13 1.96449e-13 -3.06977e-13 0 0 1.77144e-13 4.40115e-13 -1.43174e-13 2.77012e-14 0 0 4.51271e-13 4.92118e-14 -7.92755e-15 2.61336e-13 0 0 6.63272e-13 -4.25783e-13 5.21405e-13 1.5568e-13 0 0 -1.18685e-13 6.90632e-13 -4.84732e-13 8.23332e-13 0 0 2.05258e-13 1.38644e-13 1.11449e-13 3.92512e-13 0 0 9.01221e-13 -9.54845e-13 1.17803e-12 -3.69039e-13 0 0 -3.33247e-15 1.86595e-13 8.84637e-14 3.18434e-13 0 0 -9.39949e-13 8.61911e-13 -1.66334e-13 4.89634e-13 0 0 -3.09489e-13 2.46697e-14 5.60546e-13 1.25669e-13 0 0 4.5651e-13 -2.65417e-13 4.77359e-14 7.56066e-13 0 0 5.47766e-13 -4.55775e-13 3.6857e-13 3.50882e-13 0 0 2.29743e-14 8.81086e-14 4.31115e-13 -1.9398e-13 0 0 -7.40843e-13 9.94549e-13 -1.82165e-13 9.36537e-14 0 0 -5.1824e-13 5.95656e-13 1.13442e-13 -5.58527e-14 0 0 1.44279e-15 3.2052e-14 3.81379e-13 3.47805e-15 0 0 3.75895e-13 -3.80709e-13 3.91747e-13 2.7364e-13 0 0 5.12118e-13 -5.12372e-13 5.61986e-13 1.7365e-13 0 0 1.87516e-13 -2.96622e-13 5.30332e-13 -2.31719e-14 0 0 -4.69855e-13 2.82269e-13 2.12923e-13 3.02927e-14 0 0 -5.75576e-13 5.01932e-13 -4.81998e-13 3.16929e-13 0 0 -3.55578e-13 3.80079e-13 -7.26532e-13 6.65654e-13 0 0 1.72244e-13 -8.61489e-14 -6.61671e-13 7.06735e-13 0 0 4.77153e-13 -5.40644e-13 -4.47603e-13 6.7751e-13 0 0 4.60764e-13 -5.92522e-13 -2.51359e-13 5.85551e-13 0 0 2.77944e-13 -4.58517e-13 -1.27605e-13 4.16803e-13 0 0 -2.31931e-14 -7.19709e-14 -8.30587e-14 2.3069e-13 0 0 -2.74205e-13 3.40853e-13 -9.5202e-14 4.73638e-14 0 0 -2.97763e-13 5.06412e-13 -1.13491e-13 -9.3804e-14 0 0 -2.45512e-13 5.04435e-13 -1.07919e-13 -1.73181e-13 0 0 -1.01331e-13 4.62991e-13 -3.53014e-14 -3.64784e-13 0 0 7.22715e-14 1.91287e-13 1.96141e-13 -5.50611e-13 0 0 1.35896e-13 -1.69732e-13 3.15873e-13 -5.68523e-13 0 0 1.22504e-13 -2.55059e-13 2.9386e-13 -5.07613e-13 0 0 5.87157e-14 -2.0017e-13 1.11877e-13 -3.08926e-13 0 0 -4.05197e-14 -1.82175e-13 -9.22052e-15 -1.74005e-13 0 0 -5.87516e-14 -1.69152e-13 -8.16295e-14 -7.32159e-14 0 0 -5.20892e-14 -1.95192e-13 -4.44705e-14 -1.88387e-14 0 0 -4.58155e-14 -1.93361e-13 -4.35627e-14 -4.03208e-14 0 0 -4.14524e-14 -6.26399e-14 -1.66932e-13 -3.99753e-14 0 0 -8.57891e-15 -3.38938e-14 -1.96723e-13 1.88239e-14 0 0 1.08218e-14 -3.86259e-14 -8.32718e-14 8.89181e-14 0 0 -1.90783e-14 9.31304e-15 -9.21673e-15 1.52195e-14 0 0 4.54685e-14 9.06522e-15 2.30711e-14 -3.78698e-14 0 0 2.08619e-13 -1.5181e-13 1.62512e-13 -8.12419e-14 0 0 8.47192e-14 1.36814e-13 -1.15628e-13 5.43026e-14 0 0 1.52249e-13 4.66657e-14 2.55192e-14 -9.80635e-14 0 0 1.7754e-13 1.07368e-14 8.61887e-14 -1.25783e-13 0 0 1.00589e-13 1.1924e-13 -5.92737e-15 -2.00433e-14 0 0 2.92989e-13 -1.67277e-13 2.10398e-13 -1.2436e-13 0 0 2.11578e-13 5.50205e-14 -1.36128e-13 9.81369e-14 0 0 2.55258e-13 9.28053e-15 -1.71524e-13 1.63481e-13 0 0 1.70175e-13 1.11647e-13 -2.44681e-13 1.77839e-13 0 0 2.3274e-14 3.02223e-13 -3.41407e-13 9.79479e-14 0 0 2.84044e-13 -1.88229e-13 1.88586e-13 -2.57245e-13 0 0 1.58744e-13 -6.21941e-14 2.80159e-14 -3.54967e-14 0 0 1.57405e-13 -8.58723e-14 -6.68395e-14 1.5159e-13 0 0 1.00347e-13 -1.78175e-14 -1.71473e-13 2.02349e-13 0 0 3.35223e-14 5.90552e-14 -2.10656e-13 1.82997e-13 0 0 3.03238e-13 -3.8428e-13 3.09617e-13 -1.52989e-13 0 0 -8.22599e-14 1.66952e-13 -1.97459e-14 -6.47129e-14 0 0 -2.37671e-13 3.35544e-13 -4.87464e-14 -1.71695e-15 0 0 2.8858e-14 -1.02736e-13 3.58469e-13 -1.89903e-14 0 0 -1.74162e-13 2.57176e-13 -6.96852e-14 3.65932e-13 0 0 1.43534e-13 -2.18583e-13 3.69075e-13 6.33388e-14 0 0 2.54641e-13 -4.08507e-13 5.32672e-13 -6.23685e-14 0 0 -1.765e-13 2.35548e-13 -1.29353e-13 3.72506e-13 0 0 9.94613e-14 -2.64817e-13 4.95033e-13 -7.60453e-14 0 0 -1.66293e-14 -1.33103e-14 4.09862e-13 -1.01454e-13 0 0 4.91607e-14 8.60102e-14 4.23967e-13 -1.33282e-13 0 0 2.0447e-13 -6.87484e-14 6.92847e-13 -3.2147e-13 0 0 -5.91809e-15 3.4244e-13 2.30369e-13 5.06733e-14 0 0 3.96338e-13 -3.57878e-13 8.20474e-13 -2.39884e-13 0 0 8.03825e-14 6.13033e-14 3.20671e-13 -4.44821e-14 0 0 -1.54155e-14 2.89488e-13 -7.22655e-14 4.73926e-14 0 0 1.50054e-13 1.0544e-13 -6.78833e-14 1.62319e-13 0 0 1.03369e-13 1.16924e-13 -1.7763e-13 4.66299e-13 0 0 -8.85249e-14 3.17677e-14 9.78171e-14 2.06488e-13 0 0 -4.56763e-13 3.73885e-13 -1.96775e-13 2.40972e-13 0 0 9.53908e-15 -2.89677e-13 2.61872e-13 -9.01053e-14 0 0 1.52922e-13 -3.78199e-13 1.90384e-13 -6.38026e-14 0 0 9.15857e-14 -3.28787e-13 4.21091e-15 1.49737e-13 0 0 -5.45509e-14 -3.82941e-13 1.81015e-13 -2.90012e-14 0 0 -3.4198e-13 -1.19056e-13 1.84234e-13 -2.02615e-13 0 0 -3.69792e-13 -5.59976e-14 1.96048e-13 -3.20888e-13 0 0 -3.18511e-13 -1.75426e-13 2.23578e-13 -1.61738e-13 0 0 -1.43425e-14 -6.20702e-13 3.93191e-13 2.44515e-13 0 0 5.97207e-14 -5.59842e-13 8.82127e-14 6.66999e-13 0 0 -1.27997e-13 -2.85296e-13 3.58119e-14 5.36072e-13 0 0 -2.3401e-13 -2.03056e-13 3.87356e-13 5.49711e-14 0 0 -6.01927e-13 4.52597e-13 -3.14495e-13 3.50747e-13 0 0 -5.19963e-13 3.73608e-13 -6.23675e-13 5.75334e-13 0 0 4.73521e-14 -5.82049e-13 6.18384e-14 2.08413e-13 0 0 7.0442e-14 -6.71236e-13 1.33336e-13 3.56892e-14 0 0 1.44792e-13 -8.17642e-13 5.40616e-13 -4.92883e-13 0 0 -2.08157e-13 -2.15398e-13 1.94848e-13 -4.67696e-13 0 0 -2.8753e-13 -1.09206e-13 -2.89901e-14 -2.08628e-13 0 0 -1.18338e-13 -4.17808e-13 5.04467e-14 -1.28494e-13 0 0 -1.56588e-13 -2.19521e-13 -3.69939e-13 1.80922e-13 0 0 2.71162e-13 -6.9213e-13 -1.22608e-13 9.44792e-14 0 0 -1.7655e-13 -1.21202e-14 -6.90988e-13 4.4842e-13 0 0 -4.372e-13 1.86119e-13 -5.97515e-13 4.11738e-13 0 0 -1.42283e-13 -1.94765e-13 -2.12716e-13 1.45952e-13 0 0 -1.81374e-13 9.2134e-14 -7.67169e-13 4.86836e-13 0 0 1.06773e-13 -4.09369e-13 -2.58915e-13 1.11228e-13 0 0 -2.1479e-13 -1.04932e-13 -2.79754e-13 2.48959e-14 0 0 -5.94465e-13 2.59862e-13 -2.8563e-13 -3.68109e-14 0 0 -3.62794e-13 -1.49731e-13 4.36803e-13 -6.64323e-13 0 0 -3.28696e-13 -5.5486e-14 3.42563e-13 -7.11157e-13 0 0 5.03122e-15 -4.81316e-13 5.44037e-13 -7.30233e-13 0 0 -2.09373e-13 -1.73044e-13 -2.45585e-14 -1.45101e-13 0 0 -2.66243e-13 -1.68349e-13 -7.83538e-14 -3.25078e-14 0 0 -4.07022e-14 -4.79987e-13 4.78452e-13 -5.70518e-13 0 0 -6.90736e-13 7.58885e-13 -5.89442e-13 -9.91969e-14 0 0 -1.23228e-13 5.8806e-15 1.28292e-13 -5.2419e-13 0 0 2.37901e-13 -5.75348e-13 7.32133e-13 -8.89083e-13 0 0 -1.75965e-13 -2.39153e-14 2.79916e-13 -5.74977e-13 0 0 2.87306e-14 -4.66845e-13 6.65868e-13 -6.09361e-13 0 0 -3.00392e-13 6.54571e-14 2.11994e-13 -3.96487e-13 0 0 4.40305e-14 -3.79401e-13 9.64417e-13 -1.28657e-12 0 0 -2.8149e-14 -1.67209e-13 8.40233e-13 -1.44464e-12 0 0 -2.24329e-13 4.25454e-13 -2.18804e-13 -5.51944e-13 0 0 3.03773e-13 -1.65769e-13 -3.32874e-14 -4.64386e-13 0
				</DataArray>
				<DataArray Name="VitesseY" type="Float32" format="ascii">