<?xml version="1.0"?>
<VTKFile type="PolyData">
	<PolyData>
		<Piece NumberOfPoints="1206" NumberOfPolys="1000">
			<Points>
				<DataArray type="Float32" NumberOfComponents="3" format="ascii">
 0 0 0 0.02 0 0 0.04 0 0 0.06 0 0 0.08 0 0 0.1 0 0 0 0.005 0 0.02 0.005 0 0.04 0.005 0 0.06 0.005 0 0.08 0.005 0 0.1 0.005 0 0 0.01 0 0.02 0.01 0 0.04 0.01 0 0.06 0.01 0 0.08 0.01 0 0.1 0.01 0 0 0.015 0 0.02 0.015 0 0.04 0.015 0 0.06 0.015 0 0.08 0.015 0 0.1 0.015 0 0 0.02 0 0.02 0.02 0 0.04 0.02 0 0.06 0.02 0 0.08 0.02 0 0.1 0.02 0 0 0.025 0 0.02 0.025 0 0.04 0.025 0 0.06 0.025 0 0.08 0.025 0 0.1 0.025 0 0 0.03 0 0.02 0.03 0 0.04 0.03 0 0.06 0.03 0 0.08 0.03 0 0.1 0.03 0 0 0.035 0 0.02 0.035 0 0.04 0.035 0 0.06 0.035 0 0.08 0.035 0 0.1 0.035 0 0 0.04 0 0.02 0.04 0 0.04 0.04 0 0.06 0.04 0 0.08 0.04 0 0.1 0.04 0 0 0.045 0 0.02 0.045 0 0.04 0.045 0 0.06 0.045 0 0.08 0.045 0 0.1 0.045 0 0 0.05 0 0.02 0.05 0 0.04 0.05 0 0.06 0.05 0 0.08 0.05 0 0.1 0.05 0 0 0.055 0 0.02 0.055 0 0.04 0.055 0 0.06 0.055 0 0.08 0.055 0 0.1 0.055 0 0 0.06 0 0.02 0.06 0 0.04 0.06 0 0.06 0.06 0 0.08 0.06 0 0.1 0.06 0 0 0.065 0 0.02 0.065 0 0.04 0.065 0 0.06 0.065 0 0.08 0.065 0 0.1 0.065 0 0 0.07 0 0.02 0.07 0 0.04 0.07 0 0.06 0.07 0 0.08 0.07 0 0.1 0.07 0 0 0.075 0 0.02 0.075 0 0.04 0.075 0 0.06 0.075 0 0.08 0.075 0 0.1 0.075 0 0 0.08 0 0.02 0.08 0 0.04 0.08 0 0.06 0.08 0 0.08 0.08 0 0.1 0.08 0 0 0.085 0 0.02 0.085 0 0.04 0.085 0 0.06 0.085 0 0.08 0.085 0 0.1 0.085 0 0 0.09 0 0.02 0.09 0 0.04 0.09 0 0.06 0.09 0 0.08 0.09 0 0.1 0.09 0 0 0.095 0 0.02 0.095 0 0.04 0.095 0 0.06 0.095 0 0.08 0.095 0 0.1 0.095 0 0 0.1 0 0.02 0.1 0 0.04 0.1 0 0.06 0.1 0 0.08 0.1 0 0.1 0.1 0 0 0.105 0 0.02 0.105 0 0.04 0.105 0 0.06 0.105 0 0.08 0.105 0 0.1 0.105 0 0 0.11 0 0.02 0.11 0 0.04 0.11 0 0.06 0.11 0 0.08 0.11 0 0.1 0.11 0 0 0.115 0 0.02 0.115 0 0.04 0.115 0 0.06 0.115 0 0.08 0.115 0 0.1 0.115 0 0 0.12 0 0.02 0.12 0 0.04 0.12 0 0.06 0.12 0 0.08 0.12 0 0.1 0.12 0 0 0.125 0 0.02 0.125 0 0.04 0.125 0 0.06 0.125 0 0.08 0.125 0 0.1 0.125 0 0 0.13 0 0.02 0.13 0 0.04 0.13 0 0.06 0.13 0 0.08 0.13 0 0.1 0.13 0 0 0.135 0 0.02 0.135 0 0.04 0.135 0 0.06 0.135 0 0.08 0.135 0 0.1 0.135 0 0 0.14 0 0.02 0.14 0 0.04 0.14 0 0.06 0.14 0 0.08 0.14 0 0.1 0.14 0 0 0.145 0 0.02 0.145 0 0.04 0.145 0 0.06 0.145 0 0.08 0.145 0 0.1 0.145 0 0 0.15 0 0.02 0.15 0 0.04 0.15 0 0.06 0.15 0 0.08 0.15 0 0.1 0.15 0 0 0.155 0 0.02 0.155 0 0.04 0.155 0 0.06 0.155 0 0.08 0.155 0 0.1 0.155 0 0 0.16 0 0.02 0.16 0 0.04 0.16 0 0.06 0.16 0 0.08 0.16 0 0.1 0.16 0 0 0.165 0 0.02 0.165 0 0.04 0.165 0 0.06 0.165 0 0.08 0.165 0 0.1 0.165 0 0 0.17 0 0.02 0.17 0 0.04 0.17 0 0.06 0.17 0 0.08 0.17 0 0.1 0.17 0 0 0.175 0 0.02 0.175 0 0.04 0.175 0 0.06 0.175 0 0.08 0.175 0 0.1 0.175 0 0 0.18 0 0.02 0.18 0 0.04 0.18 0 0.06 0.18 0 0.08 0.18 0 0.1 0.18 0 0 0.185 0 0.02 0.185 0 0.04 0.185 0 0.06 0.185 0 0.08 0.185 0 0.1 0.185 0 0 0.19 0 0.02 0.19 0 0.04 0.19 0 0.06 0.19 0 0.08 0.19 0 0.1 0.19 0 0 0.195 0 0.02 0.195 0 0.04 0.195 0 0.06 0.195 0 0.08 0.195 0 0.1 0.195 0 0 0.2 0 0.02 0.2 0 0.04 0.2 0 0.06 0.2 0 0.08 0.2 0 0.1 0.2 0 0 0.205 0 0.02 0.205 0 0.04 0.205 0 0.06 0.205 0 0.08 0.205 0 0.1 0.205 0 0 0.21 0 0.02 0.21 0 0.04 0.21 0 0.06 0.21 0 0.08 0.21 0 0.1 0.21 0 0 0.215 0 0.02 0.215 0 0.04 0.215 0 0.06 0.215 0 0.08 0.215 0 0.1 0.215 0 0 0.22 0 0.02 0.22 0 0.04 0.22 0 0.06 0.22 0 0.08 0.22 0 0.1 0.22 0 0 0.225 0 0.02 0.225 0 0.04 0.225 0 0.06 0.225 0 0.08 0.225 0 0.1 0.225 0 0 0.23 0 0.02 0.23 0 0.04 0.23 0 0.06 0.23 0 0.08 0.23 0 0.1 0.23 0 0 0.235 0 0.02 0.235 0 0.04 0.235 0 0.06 0.235 0 0.08 0.235 0 0.1 0.235 0 0 0.24 0 0.02 0.24 0 0.04 0.24 0 0.06 0.24 0 0.08 0.24 0 0.1 0.24 0 0 0.245 0 0.02 0.245 0 0.04 0.245 0 0.06 0.245 0 0.08 0.245 0 0.1 0.245 0 0 0.25 0 0.02 0.25 0 0.04 0.25 0 0.06 0.25 0 0.08 0.25 0 0.1 0.25 0 0 0.255 0 0.02 0.255 0 0.04 0.255 0 0.06 0.255 0 0.08 0.255 0 0.1 0.255 0 0 0.26 0 0.02 0.26 0 0.04 0.26 0 0.06 0.26 0 0.08 0.26 0 0.1 0.26 0 0 0.265 0 0.02 0.265 0 0.04 0.265 0 0.06 0.265 0 0.08 0.265 0 0.1 0.265 0 0 0.27 0 0.02 0.27 0 0.04 0.27 0 0.06 0.27 0 0.08 0.27 0 0.1 0.27 0 0 0.275 0 0.02 0.275 0 0.04 0.275 0 0.06 0.275 0 0.08 0.275 0 0.1 0.275 0 0 0.28 0 0.02 0.28 0 0.04 0.28 0 0.06 0.28 0 0.08 0.28 0 0.1 0.28 0 0 0.285 0 0.02 0.285 0 0.04 0.285 0 0.06 0.285 0 0.08 0.285 0 0.1 0.285 0 0 0.29 0 0.02 0.29 0 0.04 0.29 0 0.06 0.29 0 0.08 0.29 0 0.1 0.29 0 0 0.295 0 0.02 0.295 0 0.04 0.295 0 0.06 0.295 0 0.08 0.295 0 0.1 0.295 0 0 0.3 0 0.02 0.3 0 0.04 0.3 0 0.06 0.3 0 0.08 0.3 0 0.1 0.3 0 0 0.305 0 0.02 0.305 0 0.04 0.305 0 0.06 0.305 0 0.08 0.305 0 0.1 0.305 0 0 0.31 0 0.02 0.31 0 0.04 0.31 0 0.06 0.31 0 0.08 0.31 0 0.1 0.31 0 0 0.315 0 0.02 0.315 0 0.04 0.315 0 0.06 0.315 0 0.08 0.315 0 0.1 0.315 0 0 0.32 0 0.02 0.32 0 0.04 0.32 0 0.06 0.32 0 0.08 0.32 0 0.1 0.32 0 0 0.325 0 0.02 0.325 0 0.04 0.325 0 0.06 0.325 0 0.08 0.325 0 0.1 0.325 0 0 0.33 0 0.02 0.33 0 0.04 0.33 0 0.06 0.33 0 0.08 0.33 0 0.1 0.33 0 0 0.335 0 0.02 0.335 0 0.04 0.335 0 0.06 0.335 0 0.08 0.335 0 0.1 0.335 0 0 0.34 0 0.02 0.34 0 0.04 0.34 0 0.06 0.34 0 0.08 0.34 0 0.1 0.34 0 0 0.345 0 0.02 0.345 0 0.04 0.345 0 0.06 0.345 0 0.08 0.345 0 0.1 0.345 0 0 0.35 0 0.02 0.35 0 0.04 0.35 0 0.06 0.35 0 0.08 0.35 0 0.1 0.35 0 0 0.355 0 0.02 0.355 0 0.04 0.355 0 0.06 0.355 0 0.08 0.355 0 0.1 0.355 0 0 0.36 0 0.02 0.36 0 0.04 0.36 0 0.06 0.36 0 0.08 0.36 0 0.1 0.36 0 0 0.365 0 0.02 0.365 0 0.04 0.365 0 0.06 0.365 0 0.08 0.365 0 0.1 0.365 0 0 0.37 0 0.02 0.37 0 0.04 0.37 0 0.06 0.37 0 0.08 0.37 0 0.1 0.37 0 0 0.375 0 0.02 0.375 0 0.04 0.375 0 0.06 0.375 0 0.08 0.375 0 0.1 0.375 0 0 0.38 0 0.02 0.38 0 0.04 0.38 0 0.06 0.38 0 0.08 0.38 0 0.1 0.38 0 0 0.385 0 0.02 0.385 0 0.04 0.385 0 0.06 0.385 0 0.08 0.385 0 0.1 0.385 0 0 0.39 0 0.02 0.39 0 0.04 0.39 0 0.06 0.39 0 0.08 0.39 0 0.1 0.39 0 0 0.395 0 0.02 0.395 0 0.04 0.395 0 0.06 0.395 0 0.08 0.395 0 0.1 0.395 0 0 0.4 0 0.02 0.4 0 0.04 0.4 0 0.06 0.4 0 0.08 0.4 0 0.1 0.4 0 0 0.405 0 0.02 0.405 0 0.04 0.405 0 0.06 0.405 0 0.08 0.405 0 0.1 0.405 0 0 0.41 0 0.02 0.41 0 0.04 0.41 0 0.06 0.41 0 0.08 0.41 0 0.1 0.41 0 0 0.415 0 0.02 0.415 0 0.04 0.415 0 0.06 0.415 0 0.08 0.415 0 0.1 0.415 0 0 0.42 0 0.02 0.42 0 0.04 0.42 0 0.06 0.42 0 0.08 0.42 0 0.1 0.42 0 0 0.425 0 0.02 0.425 0 0.04 0.425 0 0.06 0.425 0 0.08 0.425 0 0.1 0.425 0 0 0.43 0 0.02 0.43 0 0.04 0.43 0 0.06 0.43 0 0.08 0.43 0 0.1 0.43 0 0 0.435 0 0.02 0.435 0 0.04 0.435 0 0.06 0.435 0 0.08 0.435 0 0.1 0.435 0 0 0.44 0 0.02 0.44 0 0.04 0.44 0 0.06 0.44 0 0.08 0.44 0 0.1 0.44 0 0 0.445 0 0.02 0.445 0 0.04 0.445 0 0.06 0.445 0 0.08 0.445 0 0.1 0.445 0 0 0.45 0 0.02 0.45 0 0.04 0.45 0 0.06 0.45 0 0.08 0.45 0 0.1 0.45 0 0 0.455 0 0.02 0.455 0 0.04 0.455 0 0.06 0.455 0 0.08 0.455 0 0.1 0.455 0 0 0.46 0 0.02 0.46 0 0.04 0.46 0 0.06 0.46 0 0.08 0.46 0 0.1 0.46 0 0 0.465 0 0.02 0.465 0 0.04 0.465 0 0.06 0.465 0 0.08 0.465 0 0.1 0.465 0 0 0.47 0 0.02 0.47 0 0.04 0.47 0 0.06 0.47 0 0.08 0.47 0 0.1 0.47 0 0 0.475 0 0.02 0.475 0 0.04 0.475 0 0.06 0.475 0 0.08 0.475 0 0.1 0.475 0 0 0.48 0 0.02 0.48 0 0.04 0.48 0 0.06 0.48 0 0.08 0.48 0 0.1 0.48 0 0 0.485 0 0.02 0.485 0 0.04 0.485 0 0.06 0.485 0 0.08 0.485 0 0.1 0.485 0 0 0.49 0 0.02 0.49 0 0.04 0.49 0 0.06 0.49 0 0.08 0.49 0 0.1 0.49 0 0 0.495 0 0.02 0.495 0 0.04 0.495 0 0.06 0.495 0 0.08 0.495 0 0.1 0.495 0 0 0.5 0 0.02 0.5 0 0.04 0.5 0 0.06 0.5 0 0.08 0.5 0 0.1 0.5 0 0 0.505 0 0.02 0.505 0 0.04 0.505 0 0.06 0.505 0 0.08 0.505 0 0.1 0.505 0 0 0.51 0 0.02 0.51 0 0.04 0.51 0 0.06 0.51 0 0.08 0.51 0 0.1 0.51 0 0 0.515 0 0.02 0.515 0 0.04 0.515 0 0.06 0.515 0 0.08 0.515 0 0.1 0.515 0 0 0.52 0 0.02 0.52 0 0.04 0.52 0 0.06 0.52 0 0.08 0.52 0 0.1 0.52 0 0 0.525 0 0.02 0.525 0 0.04 0.525 0 0.06 0.525 0 0.08 0.525 0 0.1 0.525 0 0 0.53 0 0.02 0.53 0 0.04 0.53 0 0.06 0.53 0 0.08 0.53 0 0.1 0.53 0 0 0.535 0 0.02 0.535 0 0.04 0.535 0 0.06 0.535 0 0.08 0.535 0 0.1 0.535 0 0 0.54 0 0.02 0.54 0 0.04 0.54 0 0.06 0.54 0 0.08 0.54 0 0.1 0.54 0 0 0.545 0 0.02 0.545 0 0.04 0.545 0 0.06 0.545 0 0.08 0.545 0 0.1 0.545 0 0 0.55 0 0.02 0.55 0 0.04 0.55 0 0.06 0.55 0 0.08 0.55 0 0.1 0.55 0 0 0.555 0 0.02 0.555 0 0.04 0.555 0 0.06 0.555 0 0.08 0.555 0 0.1 0.555 0 0 0.56 0 0.02 0.56 0 0.04 0.56 0 0.06 0.56 0 0.08 0.56 0 0.1 0.56 0 0 0.565 0 0.02 0.565 0 0.04 0.565 0 0.06 0.565 0 0.08 0.565 0 0.1 0.565 0 0 0.57 0 0.02 0.57 0 0.04 0.57 0 0.06 0.57 0 0.08 0.57 0 0.1 0.57 0 0 0.575 0 0.02 0.575 0 0.04 0.575 0 0.06 0.575 0 0.08 0.575 0 0.1 0.575 0 0 0.58 0 0.02 0.58 0 0.04 0.58 0 0.06 0.58 0 0.08 0.58 0 0.1 0.58 0 0 0.585 0 0.02 0.585 0 0.04 0.585 0 0.06 0.585 0 0.08 0.585 0 0.1 0.585 0 0 0.59 0 0.02 0.59 0 0.04 0.59 0 0.06 0.59 0 0.08 0.59 0 0.1 0.59 0 0 0.595 0 0.02 0.595 0 0.04 0.595 0 0.06 0.595 0 0.08 0.595 0 0.1 0.595 0 0 0.6 0 0.02 0.6 0 0.04 0.6 0 0.06 0.6 0 0.08 0.6 0 0.1 0.6 0 0 0.605 0 0.02 0.605 0 0.04 0.605 0 0.06 0.605 0 0.08 0.605 0 0.1 0.605 0 0 0.61 0 0.02 0.61 0 0.04 0.61 0 0.06 0.61 0 0.08 0.61 0 0.1 0.61 0 0 0.615 0 0.02 0.615 0 0.04 0.615 0 0.06 0.615 0 0.08 0.615 0 0.1 0.615 0 0 0.62 0 0.02 0.62 0 0.04 0.62 0 0.06 0.62 0 0.08 0.62 0 0.1 0.62 0 0 0.625 0 0.02 0.625 0 0.04 0.625 0 0.06 0.625 0 0.08 0.625 0 0.1 0.625 0 0 0.63 0 0.02 0.63 0 0.04 0.63 0 0.06 0.63 0 0.08 0.63 0 0.1 0.63 0 0 0.635 0 0.02 0.635 0 0.04 0.635 0 0.06 0.635 0 0.08 0.635 0 0.1 0.635 0 0 0.64 0 0.02 0.64 0 0.04 0.64 0 0.06 0.64 0 0.08 0.64 0 0.1 0.64 0 0 0.645 0 0.02 0.645 0 0.04 0.645 0 0.06 0.645 0 0.08 0.645 0 0.1 0.645 0 0 0.65 0 0.02 0.65 0 0.04 0.65 0 0.06 0.65 0 0.08 0.65 0 0.1 0.65 0 0 0.655 0 0.02 0.655 0 0.04 0.655 0 0.06 0.655 0 0.08 0.655 0 0.1 0.655 0 0 0.66 0 0.02 0.66 0 0.04 0.66 0 0.06 0.66 0 0.08 0.66 0 0.1 0.66 0 0 0.665 0 0.02 0.665 0 0.04 0.665 0 0.06 0.665 0 0.08 0.665 0 0.1 0.665 0 0 0.67 0 0.02 0.67 0 0.04 0.67 0 0.06 0.67 0 0.08 0.67 0 0.1 0.67 0 0 0.675 0 0.02 0.675 0 0.04 0.675 0 0.06 0.675 0 0.08 0.675 0 0.1 0.675 0 0 0.68 0 0.02 0.68 0 0.04 0.68 0 0.06 0.68 0 0.08 0.68 0 0.1 0.68 0 0 0.685 0 0.02 0.685 0 0.04 0.685 0 0.06 0.685 0 0.08 0.685 0 0.1 0.685 0 0 0.69 0 0.02 0.69 0 0.04 0.69 0 0.06 0.69 0 0.08 0.69 0 0.1 
[...]
			<PointData Scalars="VitesseX">
				<DataArray Name="VitesseX" type="Float32" format="ascii">
 0 -5.73795e-15 -1.48286e-14 5.21576e-15 -1.8307e-14 0 0 -4.1139e-15 -1.55982e-14 3.28679e-15 -1.65394e-14 0 0 -6.51582e-15 -7.91426e-15 -9.34926e-15 -6.89278e-15 0 0 1.17467e-15 -1.92199e-14 1.80254e-15 -1.27567e-14 0 0 4.00098e-17 -1.39935e-14 -8.39754e-15 -4.20982e-15 0 0 -1.4894e-14 1.49385e-14 -4.57398e-14 2.08279e-14 0 0 -2.17613e-15 -3.78123e-15 -2.70273e-14 3.23408e-15 0 0 8.72483e-15 -2.70696e-14 1.0354e-16 -1.77241e-14 0 0 -7.58154e-15 -1.25107e-14 -1.28415e-14 -6.20941e-15 0 0 -1.69929e-14 -5.15536e-15 -2.46426e-14 5.61949e-15 0 0 -1.23016e-14 -1.97178e-14 -6.66205e-15 -6.58492e-15 0 0 -2.36131e-14 -3.96983e-15 -2.53807e-14 1.73171e-15 0 0 -2.04933e-14 -1.69279e-14 -1.7481e-14 -3.15407e-15 0 0 -1.46719e-14 -5.01801e-14 2.57474e-14 -2.58687e-14 0 0 -1.39264e-14 -5.77811e-14 2.00189e-14 -6.32548e-15 0 0 -2.36112e-14 -4.58951e-14 1.34803e-14 -5.46643e-15 0 0 -3.09978e-14 -5.30365e-14 4.35203e-14 -2.65597e-14 0 0 -2.9832e-14 -6.77339e-14 5.94625e-14 -4.04347e-14 0 0 -3.0981e-14 -4.80589e-14 6.94307e-15 -3.51934e-15 0 0 -3.15819e-14 -3.57934e-14 -1.49677e-14 1.27484e-14 0 0 -4.3018e-14 -1.66592e-14 -8.58504e-15 -1.20934e-14 0 0 -5.60013e-14 1.44367e-14 -5.06145e-14 2.27986e-14 0 0 -3.81948e-14 -1.37888e-14 -2.01555e-14 8.54368e-15 0 0 -2.70777e-14 -1.81853e-14 -3.80477e-15 -1.19661e-14 0 0 -2.93854e-14 -2.00864e-14 7.17854e-15 -2.5649e-14 0 0 -1.98208e-14 -4.70525e-14 4.79771e-14 -5.87811e-14 0 0 -2.57042e-14 -8.26306e-15 -2.05476e-14 -6.51831e-15 0 0 -2.63234e-14 -2.40008e-14 -3.76877e-14 2.36124e-14 0 0 -3.34214e-14 -4.89279e-14 8.16991e-15 -1.12506e-14 0 0 -3.61689e-14 -3.67226e-14 2.78865e-15 -3.20654e-14 0 0 -2.75325e-14 -6.69272e-14 3.02637e-14 -5.40718e-14 0 0 -2.24224e-14 -8.99457e-14 7.61082e-14 -8.69024e-14 0 0 -4.8017e-14 -2.21913e-14 -6.50966e-15 -4.13649e-14 0 0 -3.91039e-14 -1.15143e-14 -2.87228e-14 -2.53519e-14 0 0 1.91789e-14 -1.076e-13 6.50502e-14 -4.91978e-14 0 0 -2.38898e-14 -4.73976e-14 -2.58872e-14 7.12266e-14 0 0 -7.73199e-14 3.76346e-14 -1.16146e-13 1.05175e-13 0 0 -2.25064e-14 -3.19862e-14 -5.61165e-14 3.69465e-14 0 0 -1.52706e-14 2.02716e-15 -1.1143e-13 7.78681e-14 0 0 -4.36884e-14 4.24277e-14 -1.15402e-13 5.67489e-14 0 0 -2.1792e-14 -1.42789e-14 -6.28196e-14 2.5782e-14 0 0 1.62698e-15 -3.81594e-14 -4.87031e-14 -5.23333e-15 0 0 -3.74438e-14 4.63803e-14 -1.19805e-13 3.70135e-15 0 0 -2.5916e-14 3.98832e-14 -1.2169e-13 -2.22263e-15 0 0 1.72848e-14 -2.71974e-14 -4.59003e-14 -7.28965e-14 0 0 1.83472e-14 -2.26771e-14 -7.32457e-15 -1.31754e-13 0 0 -3.10568e-14 3.41855e-14 -3.81614e-14 -8.90083e-14 0 0 -5.46735e-14 3.0965e-14 -3.03255e-14 -4.38436e-14 0 0 -1.71832e-14 3.99346e-15 -2.51055e-14 -2.00869e-14 0 0 -1.01467e-13 1.62111e-13 -1.73114e-13 6.07008e-14 0 0 -1.10366e-13 1.96977e-13 -1.60318e-13 5.07136e-14 0 0 -2.42552e-14 4.9206e-14 -3.72741e-14 4.10928e-14 0 0 -7.09228e-14 -5.33052e-15 1.70992e-14 2.18558e-14 0 0 -1.58542e-13 1.12869e-13 -6.95167e-14 2.62332e-14 0 0 -8.66559e-14 4.24756e-14 -1.97195e-14 5.60715e-15 0 0 -4.56927e-14 -1.79703e-14 -1.8013e-14 4.02476e-14 0 0 -6.68258e-14 2.05552e-14 -4.24664e-14 3.27771e-14 0 0 -9.94708e-14 9.28904e-14 -1.07747e-13 3.32091e-14 0 0 -1.6385e-13 1.46308e-13 -1.36921e-13 -2.92873e-14 0 0 -9.422e-14 2.10059e-14 -5.15943e-14 -9.61919e-14 0 0 -2.16068e-14 -5.16794e-14 -1.05071e-13 5.58393e-14 0 0 -6.17194e-14 -5.12154e-14 -9.13229e-14 5.95804e-14 0 0 1.3588e-14 -1.07039e-13 -6.39342e-14 -5.08055e-14 0 0 6.57844e-14 -3.38521e-14 -2.37626e-13 -2.31373e-14 0 0 3.06258e-14 6.71629e-14 -3.47971e-13 -4.19619e-14 0 0 1.12708e-13 -2.55585e-14 -2.00755e-13 -1.87407e-13 0 0 7.51231e-14 5.15425e-14 -1.84262e-13 -1.81259e-13 0 0 8.48905e-14 5.68073e-14 -1.48007e-13 -1.64334e-13 0 0 1.60792e-13 -8.81242e-14 -7.51762e-15 -2.38972e-13 0 0 3.79114e-14 -1.1268e-14 -5.31957e-14 -2.06286e-13 0 0 -5.54186e-14 9.63397e-14 -1.51039e-13 -1.78016e-13 0 0 -1.01115e-13 2.23678e-13 -3.33251e-13 -1.16503e-13 0 0 -5.23032e-14 1.30882e-13 -2.46046e-13 -2.0407e-13 0 0 6.82638e-14 -1.22704e-13 -2.10948e-15 -4.32883e-13 0 0 -4.07033e-14 -4.75675e-14 -2.13913e-14 -4.94365e-13 0 0 -1.92465e-13 7.65468e-14 -1.37507e-13 -3.41987e-13 0 0 -2.09407e-13 6.17551e-14 -1.909e-13 -6.92132e-14 0 0 -1.52637e-13 -8.49867e-14 -1.2807e-13 4.41217e-14 0 0 -1.38557e-13 -1.78944e-13 -4.31312e-14 1.01916e-13 0 0 -1.95308e-13 -1.36646e-13 -6.5895e-14 1.1437e-13 0 0 -3.56024e-13 2.64467e-15 -1.64374e-13 8.31329e-14 0 0 -5.09862e-13 7.92971e-14 -1.85909e-13 2.6768e-14 0 0 -4.93555e-13 6.78979e-14 -1.25645e-13 -1.029e-13 0 0 -4.37814e-13 -2.52842e-14 -7.45918e-15 -2.27085e-13 0 0 -3.66531e-13 -1.4183e-13 9.43191e-14 -3.36012e-13 0 0 -2.93862e-13 -2.23748e-13 7.47778e-14 -3.35263e-13 0 0 -2.23947e-13 -2.74259e-13 1.40406e-14 -3.13416e-13 0 0 -1.56406e-13 -2.64957e-13 -6.72041e-14 -2.27333e-13 0 0 -9.05062e-14 -2.74196e-13 -1.22968e-13 -1.37533e-13 0 0 -6.44278e-14 -2.95808e-13 -1.8843e-13 -6.91928e-14 0 0 -7.28717e-14 -2.90648e-13 -2.26714e-13 -9.32742e-14 0 0 -1.31392e-13 -2.46642e-13 -2.15953e-13 -1.67213e-13 0 0 -2.18857e-13 -1.82127e-13 -2.00272e-13 -2.82908e-13 0 0 -2.90741e-13 -1.3701e-13 -1.96509e-13 -3.80608e-13 0 0 -3.27059e-13 -1.3694e-13 -2.08652e-13 -4.4923e-13 0 0 -3.26895e-13 -1.47511e-13 -2.24441e-13 -4.66952e-13 0 0 -3.03142e-13 -1.53147e-13 -2.53555e-13 -4.42821e-13 0 0 -2.65913e-13 -1.68918e-13 -3.04728e-13 -3.58779e-13 0 0 -2.65975e-13 -1.67612e-13 -3.74349e-13 -2.23816e-13 0 0 -3.24034e-13 -1.36076e-13 -4.33909e-13 -9.52186e-14 0 0 -3.37659e-13 -1.44056e-13 -4.33073e-13 -3.67077e-14 0 0 -3.32831e-13 -1.76356e-13 -4.10856e-13 -3.59845e-14 0 0 -3.26338e-13 -2.43686e-13 -3.46246e-13 -5.00542e-14 0 0 -2.99022e-13 -3.11333e-13 -2.70627e-13 -8.47938e-14 0 0 -2.4271e-13 -3.65673e-13 -1.96131e-13 -1.27652e-13 0 0 -1.72193e-13 -5.00345e-13 -9.60464e-15 -2.26015e-13 0 0 -1.10209e-13 -5.09382e-13 7.6588e-15 -2.27318e-13 0 0 -6.20511e-14 -4.69426e-13 -5.13236e-14 -2.00795e-13 0 0 -2.89841e-14 -3.55853e-13 -2.94587e-13 3.10336e-14 0 0 2.02277e-15 -2.00118e-13 -5.23404e-13 3.60337e-13 0 0 6.1786e-14 -1.9513e-13 -4.94156e-13 3.52588e-13 0 0 6.00989e-14 -1.67548e-13 -3.98082e-13 2.77322e-13 0 0 4.36829e-14 -1.2613e-13 -2.8232e-13 2.49605e-13 0 0 1.89955e-14 -1.24267e-13 -1.36421e-13 1.94075e-13 0 0 -4.64617e-14 -7.52553e-14 -6.59444e-14 1.15651e-13 0 0 -1.03649e-13 -5.9253e-14 -1.59127e-15 -1.60552e-14 0 0 -1.00137e-13 -7.85667e-14 1.8479e-15 -1.43256e-14 0 0 -8.95231e-14 -1.2184e-13 4.32837e-15 2.965e-14 0 0 -5.79638e-14 -1.38826e-13 -2.82575e-15 5.98882e-14 0 0 -2.69629e-14 -1.21574e-13 -4.17089e-14 1.01063e-13 0 0 3.39923e-15 -1.10527e-13 -1.82686e-14 9.61084e-14 0 0 4.37545e-14 -1.12177e-13 1.40844e-14 9.61144e-14 0 0 6.45589e-14 -1.1993e-13 4.82214e-14 6.84942e-14 0 0 5.64055e-14 -8.04333e-14 5.66718e-14 4.898e-14 0 0 3.7862e-14 1.11674e-14 7.62443e-14 2.57591e-14 0 0 -1.0917e-14 1.83211e-13 -6.68965e-15 5.6018e-14 0 0 -4.09973e-14 2.77292e-13 -1.74452e-13 1.5102e-13 0 0 -1.8579e-14 2.49056e-13 -1.81196e-13 1.68483e-13 0 0 4.86593e-14 9.84453e-14 -1.12859e-13 1.14216e-13 0 0 8.6812e-14 -1.68591e-13 1.05855e-13 -2.80123e-14 0 0 1.10083e-13 -2.79432e-13 1.9892e-13 -7.66835e-14 0 0 1.00747e-13 -2.49496e-13 1.21536e-13 -4.682e-14 0 0 9.41692e-15 -1.15851e-13 -9.68099e-14 1.14374e-13 0 0 -5.81394e-14 -3.20164e-14 -1.48075e-13 8.00486e-14 0 0 -4.85272e-14 -3.73064e-14 -1.43979e-13 -7.13479e-14 0 0 -4.92763e-14 -1.52565e-14 -2.09353e-13 -7.93927e-14 0 0 -4.66887e-14 -1.68179e-14 -2.17877e-13 -9.44886e-14 0 0 -2.81226e-14 -5.62293e-14 -1.99326e-13 -1.58837e-13 0 0 -2.85363e-14 -9.2259e-14 -1.81553e-13 -1.62816e-13 0 0 -3.54187e-14 -1.11483e-13 -1.58488e-13 -1.72641e-13 0 0 -4.78158e-14 -1.06605e-13 -1.6724e-13 -1.39221e-13 0 0 -5.85938e-14 -1.046e-13 -1.80797e-13 -1.39074e-13 0 0 -6.64029e-14 -1.32624e-13 -1.61031e-13 -1.10537e-13 0 0 -8.63017e-14 -1.56103e-13 -1.91332e-13 3.68568e-14 0 0 -8.75538e-14 -2.13996e-13 -1.78902e-13 -3.07123e-14 0 0 -1.17025e-13 -2.05936e-13 -1.57511e-13 -2.07199e-13 0 0 -1.46078e-13 -1.66957e-13 -2.36042e-13 -1.59273e-13 0 0 -1.26319e-13 -2.16416e-13 -2.85861e-13 -1.51413e-13 0 0 -8.77591e-14 -2.33734e-13 -3.58837e-13 -2.19067e-13 0 0 -5.43337e-14 -2.13035e-13 -4.2949e-13 -3.2197e-13 0 0 -5.84562e-14 -1.8658e-13 -4.40673e-13 -4.60586e-13 0 0 -6.86408e-14 -1.72116e-13 -3.71151e-13 -3.62394e-13 0 0 -5.95575e-14 -1.83383e-13 -2.80783e-13 2.09227e-13 0 0 -6.74956e-14 -1.63851e-13 -2.17776e-13 4.84731e-13 0 0 -6.78422e-14 -1.35781e-13 -1.3375e-13 3.83269e-13 0 0 -4.63118e-14 -1.26292e-13 -8.24994e-14 1.50934e-13 0 0 -2.66846e-14 -1.21795e-13 -8.27794e-15 -6.99055e-14 0 0 -5.00165e-14 -6.56348e-14 -5.82099e-14 -3.9116e-14 0 0 -1.13193e-13 1.95339e-14 -2.0617e-13 2.26774e-13 0 0 -2.7415e-14 -1.40387e-13 -3.184e-15 1.80647e-13 0 0 -1.32842e-15 -2.02281e-13 1.57266e-13 4.53024e-14 0 0 -8.29114e-14 -7.52228e-14 1.04831e-13 -4.01278e-14 0 0 -1.23981e-13 4.24643e-15 1.38684e-14 7.46986e-15 0 0 -1.17045e-13 1.36567e-14 -1.01973e-14 3.23762e-14 0 0 -1.01156e-13 -2.8155e-14 6.4641e-14 -5.93935e-14 0 0 -5.84306e-14 -1.36346e-13 2.11396e-13 -1.32853e-13 0 0 4.17522e-14 -2.78826e-13 3.53325e-13 -1.67296e-13 0 0 4.14352e-14 -1.8767e-13 2.22328e-13 -4.3998e-14 0 0 -3.78279e-14 -1.34671e-14 8.75799e-14 6.66638e-14 0 0 4.26227e-16 -4.82999e-14 1.48697e-13 1.48825e-14 0 0 7.52207e-14 -1.16767e-13 2.6919e-13 -1.33892e-13 0 0 -2.5004e-14 8.1731e-14 1.32525e-13 1.62319e-14 0 0 -1.0123e-13 2.10479e-13 8.88067e-14 9.60198e-14 0 0 -7.46156e-14 2.12285e-13 1.72268e-13 1.71051e-14 0 0 3.70373e-14 6.93076e-14 3.23924e-13 -8.30686e-14 0 0 1.24371e-13 -6.08508e-14 4.1626e-13 -1.11383e-13 0 0 5.45145e-14 1.58051e-13 5.70866e-14 2.32409e-13 0 0 8.05952e-14 1.51269e-13 4.57033e-14 2.94971e-13 0 0 6.73242e-14 1.12235e-13 2.01095e-13 1.07142e-13 0 0 2.93016e-15 2.32859e-13 6.75083e-14 2.39502e-13 0 0 1.13548e-13 1.05406e-13 1.64223e-13 2.16058e-13 0 0 2.66802e-13 -3.79621e-14 2.53498e-13 1.50089e-13 0 0 3.03886e-13 -1.6701e-14 2.25935e-13 1.87736e-13 0 0 5.49036e-14 4.01247e-13 -6.60439e-14 2.12471e-13 0 0 4.52842e-14 4.00632e-13 5.61296e-15 3.12734e-14 0 0 1.5614e-13 2.14044e-13 1.99837e-13 -6.79278e-14 0 0 2.58923e-14 4.4378e-13 -1.82374e-14 5.17313e-14 0 0 1.78269e-13 2.96815e-13 -1.08307e-13 2.09545e-13 0 0 2.62314e-13 2.18767e-13 -2.13202e-13 3.7315e-13 0 0 1.04143e-13 3.43706e-13 -1.42074e-13 2.04848e-13 0 0 2.35618e-13 -3.29562e-14 4.48699e-13 -1.92779e-13 0 0 2.66738e-13 3.58643e-14 2.45899e-13 5.67638e-14 0 0 1.05514e-13 4.67696e-13 -5.09298e-13 6.9374e-13 0 0 1.58163e-13 3.21146e-13 -4.47906e-13 7.15093e-13 0 0 5.26212e-13 -2.00534e-13 2.01099e-13 9.60622e-14 0 0 5.57712e-13 -2.58348e-13 5.49566e-13 -4.26366e-13 0 0 2.78074e-13 2.49561e-14 4.63131e-13 -4.62461e-13 0 0 4.47117e-13 -2.29389e-13 4.91055e-13 -3.94118e-13 0 0 4.4586e-13 -2.01074e-13 1.74972e-13 -6.83664e-14 0 0 3.93188e-13 -1.06051e-13 -1.10848e-13 2.20655e-13 0 0 5.2083e-13 -2.56887e-13 -1.04804e-13 2.59488e-13 0
				</DataArray>
				<DataArray Name="VitesseY" type="Float32" format="ascii">