<?xml version="1.0"?>
<VTKFile type="PolyData">
	<PolyData>
		<Piece NumberOfPoints="1206" NumberOfPolys="1000">
			<Points>
				<DataArray type="Float32" NumberOfComponents="3" format="ascii">
 0 0 0 0.02 0 0 0.04 0 0 0.06 0 0 0.08 0 0 0.1 0 0 0 0.005 0 0.02 0.005 0 0.04 0.005 0 0.06 0.005 0 0.08 0.005 0 0.1 0.005 0 0 0.01 0 0.02 0.01 0 0.04 0.01 0 0.06 0.01 0 0.08 0.01 0 0.1 0.01 0 0 0.015 0 0.02 0.015 0 0.04 0.015 0 0.06 0.015 0 0.08 0.015 0 0.1 0.015 0 0 0.02 0 0.02 0.02 0 0.04 0.02 0 0.06 0.02 0 0.08 0.02 0 0.1 0.02 0 0 0.025 0 0.02 0.025 0 0.04 0.025 0 0.06 0.025 0 0.08 0.025 0 0.1 0.025 0 0 0.03 0 0.02 0.03 0 0.04 0.03 0 0.06 0.03 0 0.08 0.03 0 0.1 0.03 0 0 0.035 0 0.02 0.035 0 0.04 0.035 0 0.06 0.035 0 0.08 0.035 0 0.1 0.035 0 0 0.04 0 0.02 0.04 0 0.04 0.04 0 0.06 0.04 0 0.08 0.04 0 0.1 0.04 0 0 0.045 0 0.02 0.045 0 0.04 0.045 0 0.06 0.045 0 0.08 0.045 0 0.1 0.045 0 0 0.05 0 0.02 0.05 0 0.04 0.05 0 0.06 0.05 0 0.08 0.05 0 0.1 0.05 0 0 0.055 0 0.02 0.055 0 0.04 0.055 0 0.06 0.055 0 0.08 0.055 0 0.1 0.055 0 0 0.06 0 0.02 0.06 0 0.04 0.06 0 0.06 0.06 0 0.08 0.06 0 0.1 0.06 0 0 0.065 0 0.02 0.065 0 0.04 0.065 0 0.06 0.065 0 0.08 0.065 0 0.1 0.065 0 0 0.07 0 0.02 0.07 0 0.04 0.07 0 0.06 0.07 0 0.08 0.07 0 0.1 0.07 0 0 0.075 0 0.02 0.075 0 0.04 0.075 0 0.06 0.075 0 0.08 0.075 0 0.1 0.075 0 0 0.08 0 0.02 0.08 0 0.04 0.08 0 0.06 0.08 0 0.08 0.08 0 0.1 0.08 0 0 0.085 0 0.02 0.085 0 0.04 0.085 0 0.06 0.085 0 0.08 0.085 0 0.1 0.085 0 0 0.09 0 0.02 0.09 0 0.04 0.09 0 0.06 0.09 0 0.08 0.09 0 0.1 0.09 0 0 0.095 0 0.02 0.095 0 0.04 0.095 0 0.06 0.095 0 0.08 0.095 0 0.1 0.095 0 0 0.1 0 0.02 0.1 0 0.04 0.1 0 0.06 0.1 0 0.08 0.1 0 0.1 0.1 0 0 0.105 0 0.02 0.105 0 0.04 0.105 0 0.06 0.105 0 0.08 0.105 0 0.1 0.105 0 0 0.11 0 0.02 0.11 0 0.04 0.11 0 0.06 0.11 0 0.08 0.11 0 0.1 0.11 0 0 0.115 0 0.02 0.115 0 0.04 0.115 0 0.06 0.115 0 0.08 0.115 0 0.1 0.115 0 0 0.12 0 0.02 0.12 0 0.04 0.12 0 0.06 0.12 0 0.08 0.12 0 0.1 0.12 0 0 0.125 0 0.02 0.125 0 0.04 0.125 0 0.06 0.125 0 0.08 0.125 0 0.1 0.125 0 0 0.13 0 0.02 0.13 0 0.04 0.13 0 0.06 0.13 0 0.08 0.13 0 0.1 0.13 0 0 0.135 0 0.02 0.135 0 0.04 0.135 0 0.06 0.135 0 0.08 0.135 0 0.1 0.135 0 0 0.14 0 0.02 0.14 0 0.04 0.14 0 0.06 0.14 0 0.08 0.14 0 0.1 0.14 0 0 0.145 0 0.02 0.145 0 0.04 0.145 0 0.06 0.145 0 0.08 0.145 0 0.1 0.145 0 0 0.15 0 0.02 0.15 0 0.04 0.15 0 0.06 0.15 0 0.08 0.15 0 0.1 0.15 0 0 0.155 0 0.02 0.155 0 0.04 0.155 0 0.06 0.155 0 0.08 0.155 0 0.1 0.155 0 0 0.16 0 0.02 0.16 0 0.04 0.16 0 0.06 0.16 0 0.08 0.16 0 0.1 0.16 0 0 0.165 0 0.02 0.165 0 0.04 0.165 0 0.06 0.165 0 0.08 0.165 0 0.1 0.165 0 0 0.17 0 0.02 0.17 0 0.04 0.17 0 0.06 0.17 0 0.08 0.17 0 0.1 0.17 0 0 0.175 0 0.02 0.175 0 0.04 0.175 0 0.06 0.175 0 0.08 0.175 0 0.1 0.175 0 0 0.18 0 0.02 0.18 0 0.04 0.18 0 0.06 0.18 0 0.08 0.18 0 0.1 0.18 0 0 0.185 0 0.02 0.185 0 0.04 0.185 0 0.06 0.185 0 0.08 0.185 0 0.1 0.185 0 0 0.19 0 0.02 0.19 0 0.04 0.19 0 0.06 0.19 0 0.08 0.19 0 0.1 0.19 0 0 0.195 0 0.02 0.195 0 0.04 0.195 0 0.06 0.195 0 0.08 0.195 0 0.1 0.195 0 0 0.2 0 0.02 0.2 0 0.04 0.2 0 0.06 0.2 0 0.08 0.2 0 0.1 0.2 0 0 0.205 0 0.02 0.205 0 0.04 0.205 0 0.06 0.205 0 0.08 0.205 0 0.1 0.205 0 0 0.21 0 0.02 0.21 0 0.04 0.21 0 0.06 0.21 0 0.08 0.21 0 0.1 0.21 0 0 0.215 0 0.02 0.215 0 0.04 0.215 0 0.06 0.215 0 0.08 0.215 0 0.1 0.215 0 0 0.22 0 0.02 0.22 0 0.04 0.22 0 0.06 0.22 0 0.08 0.22 0 0.1 0.22 0 0 0.225 0 0.02 0.225 0 0.04 0.225 0 0.06 0.225 0 0.08 0.225 0 0.1 0.225 0 0 0.23 0 0.02 0.23 0 0.04 0.23 0 0.06 0.23 0 0.08 0.23 0 0.1 0.23 0 0 0.235 0 0.02 0.235 0 0.04 0.235 0 0.06 0.235 0 0.08 0.235 0 0.1 0.235 0 0 0.24 0 0.02 0.24 0 0.04 0.24 0 0.06 0.24 0 0.08 0.24 0 0.1 0.24 0 0 0.245 0 0.02 0.245 0 0.04 0.245 0 0.06 0.245 0 0.08 0.245 0 0.1 0.245 0 0 0.25 0 0.02 0.25 0 0.04 0.25 0 0.06 0.25 0 0.08 0.25 0 0.1 0.25 0 0 0.255 0 0.02 0.255 0 0.04 0.255 0 0.06 0.255 0 0.08 0.255 0 0.1 0.255 0 0 0.26 0 0.02 0.26 0 0.04 0.26 0 0.06 0.26 0 0.08 0.26 0 0.1 0.26 0 0 0.265 0 0.02 0.265 0 0.04 0.265 0 0.06 0.265 0 0.08 0.265 0 0.1 0.265 0 0 0.27 0 0.02 0.27 0 0.04 0.27 0 0.06 0.27 0 0.08 0.27 0 0.1 0.27 0 0 0.275 0 0.02 0.275 0 0.04 0.275 0 0.06 0.275 0 0.08 0.275 0 0.1 0.275 0 0 0.28 0 0.02 0.28 0 0.04 0.28 0 0.06 0.28 0 0.08 0.28 0 0.1 0.28 0 0 0.285 0 0.02 0.285 0 0.04 0.285 0 0.06 0.285 0 0.08 0.285 0 0.1 0.285 0 0 0.29 0 0.02 0.29 0 0.04 0.29 0 0.06 0.29 0 0.08 0.29 0 0.1 0.29 0 0 0.295 0 0.02 0.295 0 0.04 0.295 0 0.06 0.295 0 0.08 0.295 0 0.1 0.295 0 0 0.3 0 0.02 0.3 0 0.04 0.3 0 0.06 0.3 0 0.08 0.3 0 0.1 0.3 0 0 0.305 0 0.02 0.305 0 0.04 0.305 0 0.06 0.305 0 0.08 0.305 0 0.1 0.305 0 0 0.31 0 0.02 0.31 0 0.04 0.31 0 0.06 0.31 0 0.08 0.31 0 0.1 0.31 0 0 0.315 0 0.02 0.315 0 0.04 0.315 0 0.06 0.315 0 0.08 0.315 0 0.1 0.315 0 0 0.32 0 0.02 0.32 0 0.04 0.32 0 0.06 0.32 0 0.08 0.32 0 0.1 0.32 0 0 0.325 0 0.02 0.325 0 0.04 0.325 0 0.06 0.325 0 0.08 0.325 0 0.1 0.325 0 0 0.33 0 0.02 0.33 0 0.04 0.33 0 0.06 0.33 0 0.08 0.33 0 0.1 0.33 0 0 0.335 0 0.02 0.335 0 0.04 0.335 0 0.06 0.335 0 0.08 0.335 0 0.1 0.335 0 0 0.34 0 0.02 0.34 0 0.04 0.34 0 0.06 0.34 0 0.08 0.34 0 0.1 0.34 0 0 0.345 0 0.02 0.345 0 0.04 0.345 0 0.06 0.345 0 0.08 0.345 0 0.1 0.345 0 0 0.35 0 0.02 0.35 0 0.04 0.35 0 0.06 0.35 0 0.08 0.35 0 0.1 0.35 0 0 0.355 0 0.02 0.355 0 0.04 0.355 0 0.06 0.355 0 0.08 0.355 0 0.1 0.355 0 0 0.36 0 0.02 0.36 0 0.04 0.36 0 0.06 0.36 0 0.08 0.36 0 0.1 0.36 0 0 0.365 0 0.02 0.365 0 0.04 0.365 0 0.06 0.365 0 0.08 0.365 0 0.1 0.365 0 0 0.37 0 0.02 0.37 0 0.04 0.37 0 0.06 0.37 0 0.08 0.37 0 0.1 0.37 0 0 0.375 0 0.02 0.375 0 0.04 0.375 0 0.06 0.375 0 0.08 0.375 0 0.1 0.375 0 0 0.38 0 0.02 0.38 0 0.04 0.38 0 0.06 0.38 0 0.08 0.38 0 0.1 0.38 0 0 0.385 0 0.02 0.385 0 0.04 0.385 0 0.06 0.385 0 0.08 0.385 0 0.1 0.385 0 0 0.39 0 0.02 0.39 0 0.04 0.39 0 0.06 0.39 0 0.08 0.39 0 0.1 0.39 0 0 0.395 0 0.02 0.395 0 0.04 0.395 0 0.06 0.395 0 0.08 0.395 0 0.1 0.395 0 0 0.4 0 0.02 0.4 0 0.04 0.4 0 0.06 0.4 0 0.08 0.4 0 0.1 0.4 0 0 0.405 0 0.02 0.405 0 0.04 0.405 0 0.06 0.405 0 0.08 0.405 0 0.1 0.405 0 0 0.41 0 0.02 0.41 0 0.04 0.41 0 0.06 0.41 0 0.08 0.41 0 0.1 0.41 0 0 0.415 0 0.02 0.415 0 0.04 0.415 0 0.06 0.415 0 0.08 0.415 0 0.1 0.415 0 0 0.42 0 0.02 0.42 0 0.04 0.42 0 0.06 0.42 0 0.08 0.42 0 0.1 0.42 0 0 0.425 0 0.02 0.425 0 0.04 0.425 0 0.06 0.425 0 0.08 0.425 0 0.1 0.425 0 0 0.43 0 0.02 0.43 0 0.04 0.43 0 0.06 0.43 0 0.08 0.43 0 0.1 0.43 0 0 0.435 0 0.02 0.435 0 0.04 0.435 0 0.06 0.435 0 0.08 0.435 0 0.1 0.435 0 0 0.44 0 0.02 0.44 0 0.04 0.44 0 0.06 0.44 0 0.08 0.44 0 0.1 0.44 0 0 0.445 0 0.02 0.445 0 0.04 0.445 0 0.06 0.445 0 0.08 0.445 0 0.1 0.445 0 0 0.45 0 0.02 0.45 0 0.04 0.45 0 0.06 0.45 0 0.08 0.45 0 0.1 0.45 0 0 0.455 0 0.02 0.455 0 0.04 0.455 0 0.06 0.455 0 0.08 0.455 0 0.1 0.455 0 0 0.46 0 0.02 0.46 0 0.04 0.46 0 0.06 0.46 0 0.08 0.46 0 0.1 0.46 0 0 0.465 0 0.02 0.465 0 0.04 0.465 0 0.06 0.465 0 0.08 0.465 0 0.1 0.465 0 0 0.47 0 0.02 0.47 0 0.04 0.47 0 0.06 0.47 0 0.08 0.47 0 0.1 0.47 0 0 0.475 0 0.02 0.475 0 0.04 0.475 0 0.06 0.475 0 0.08 0.475 0 0.1 0.475 0 0 0.48 0 0.02 0.48 0 0.04 0.48 0 0.06 0.48 0 0.08 0.48 0 0.1 0.48 0 0 0.485 0 0.02 0.485 0 0.04 0.485 0 0.06 0.485 0 0.08 0.485 0 0.1 0.485 0 0 0.49 0 0.02 0.49 0 0.04 0.49 0 0.06 0.49 0 0.08 0.49 0 0.1 0.49 0 0 0.495 0 0.02 0.495 0 0.04 0.495 0 0.06 0.495 0 0.08 0.495 0 0.1 0.495 0 0 0.5 0 0.02 0.5 0 0.04 0.5 0 0.06 0.5 0 0.08 0.5 0 0.1 0.5 0 0 0.505 0 0.02 0.505 0 0.04 0.505 0 0.06 0.505 0 0.08 0.505 0 0.1 0.505 0 0 0.51 0 0.02 0.51 0 0.04 0.51 0 0.06 0.51 0 0.08 0.51 0 0.1 0.51 0 0 0.515 0 0.02 0.515 0 0.04 0.515 0 0.06 0.515 0 0.08 0.515 0 0.1 0.515 0 0 0.52 0 0.02 0.52 0 0.04 0.52 0 0.06 0.52 0 0.08 0.52 0 0.1 0.52 0 0 0.525 0 0.02 0.525 0 0.04 0.525 0 0.06 0.525 0 0.08 0.525 0 0.1 0.525 0 0 0.53 0 0.02 0.53 0 0.04 0.53 0 0.06 0.53 0 0.08 0.53 0 0.1 0.53 0 0 0.535 0 0.02 0.535 0 0.04 0.535 0 0.06 0.535 0 0.08 0.535 0 0.1 0.535 0 0 0.54 0 0.02 0.54 0 0.04 0.54 0 0.06 0.54 0 0.08 0.54 0 0.1 0.54 0 0 0.545 0 0.02 0.545 0 0.04 0.545 0 0.06 0.545 0 0.08 0.545 0 0.1 0.545 0 0 0.55 0 0.02 0.55 0 0.04 0.55 0 0.06 0.55 0 0.08 0.55 0 0.1 0.55 0 0 0.555 0 0.02 0.555 0 0.04 0.555 0 0.06 0.555 0 0.08 0.555 0 0.1 0.555 0 0 0.56 0 0.02 0.56 0 0.04 0.56 0 0.06 0.56 0 0.08 0.56 0 0.1 0.56 0 0 0.565 0 0.02 0.565 0 0.04 0.565 0 0.06 0.565 0 0.08 0.565 0 0.1 0.565 0 0 0.57 0 0.02 0.57 0 0.04 0.57 0 0.06 0.57 0 0.08 0.57 0 0.1 0.57 0 0 0.575 0 0.02 0.575 0 0.04 0.575 0 0.06 0.575 0 0.08 0.575 0 0.1 0.575 0 0 0.58 0 0.02 0.58 0 0.04 0.58 0 0.06 0.58 0 0.08 0.58 0 0.1 0.58 0 0 0.585 0 0.02 0.585 0 0.04 0.585 0 0.06 0.585 0 0.08 0.585 0 0.1 0.585 0 0 0.59 0 0.02 0.59 0 0.04 0.59 0 0.06 0.59 0 0.08 0.59 0 0.1 0.59 0 0 0.595 0 0.02 0.595 0 0.04 0.595 0 0.06 0.595 0 0.08 0.595 0 0.1 0.595 0 0 0.6 0 0.02 0.6 0 0.04 0.6 0 0.06 0.6 0 0.08 0.6 0 0.1 0.6 0 0 0.605 0 0.02 0.605 0 0.04 0.605 0 0.06 0.605 0 0.08 0.605 0 0.1 0.605 0 0 0.61 0 0.02 0.61 0 0.04 0.61 0 0.06 0.61 0 0.08 0.61 0 0.1 0.61 0 0 0.615 0 0.02 0.615 0 0.04 0.615 0 0.06 0.615 0 0.08 0.615 0 0.1 0.615 0 0 0.62 0 0.02 0.62 0 0.04 0.62 0 0.06 0.62 0 0.08 0.62 0 0.1 0.62 0 0 0.625 0 0.02 0.625 0 0.04 0.625 0 0.06 0.625 0 0.08 0.625 0 0.1 0.625 0 0 0.63 0 0.02 0.63 0 0.04 0.63 0 0.06 0.63 0 0.08 0.63 0 0.1 0.63 0 0 0.635 0 0.02 0.635 0 0.04 0.635 0 0.06 0.635 0 0.08 0.635 0 0.1 0.635 0 0 0.64 0 0.02 0.64 0 0.04 0.64 0 0.06 0.64 0 0.08 0.64 0 0.1 0.64 0 0 0.645 0 0.02 0.645 0 0.04 0.645 0 0.06 0.645 0 0.08 0.645 0 0.1 0.645 0 0 0.65 0 0.02 0.65 0 0.04 0.65 0 0.06 0.65 0 0.08 0.65 0 0.1 0.65 0 0 0.655 0 0.02 0.655 0 0.04 0.655 0 0.06 0.655 0 0.08 0.655 0 0.1 0.655 0 0 0.66 0 0.02 0.66 0 0.04 0.66 0 0.06 0.66 0 0.08 0.66 0 0.1 0.66 0 0 0.665 0 0.02 0.665 0 0.04 0.665 0 0.06 0.665 0 0.08 0.665 0 0.1 0.665 0 0 0.67 0 0.02 0.67 0 0.04 0.67 0 0.06 0.67 0 0.08 0.67 0 0.1 0.67 0 0 0.675 0 0.02 0.675 0 0.04 0.675 0 0.06 0.675 0 0.08 0.675 0 0.1 0.675 0 0 0.68 0 0.02 0.68 0 0.04 0.68 0 0.06 0.68 0 0.08 0.68 0 0.1 0.68 0 0 0.685 0 0.02 0.685 0 0.04 0.685 0 0.06 0.685 0 0.08 0.685 0 0.1 0.685 0 0 0.69 0 0.02 0.69 0 0.04 0.69 0 0.06 0.69 0 0.08 0.69 0 0.1 
[...]
			<PointData Scalars="VitesseX">
				<DataArray Name="VitesseX" type="Float32" format="ascii">
 0 -4.18255e-15 -1.16765e-14 3.45469e-15 2.21635e-14 0 0 -4.46224e-15 -1.27662e-14 9.00793e-15 1.80002e-14 0 0 -6.7899e-15 -9.45963e-15 1.21199e-14 1.5935e-14 0 0 -1.45428e-14 2.80049e-15 5.08158e-15 2.33326e-14 0 0 -1.8165e-14 1.06153e-14 1.6887e-15 2.68435e-14 0 0 -5.96433e-15 -4.41812e-15 2.05089e-14 1.38764e-14 0 0 6.59212e-17 -1.46038e-14 4.13203e-14 -4.09529e-15 0 0 -3.79669e-15 -3.36701e-15 3.70888e-14 -7.08734e-17 0 0 6.17116e-15 -7.78952e-15 4.32325e-14 4.31004e-15 0 0 7.90425e-15 4.22714e-15 3.22317e-14 1.52953e-14 0 0 -1.42979e-14 4.83689e-14 -1.00734e-14 3.97349e-14 0 0 -1.85369e-15 2.23474e-14 3.03438e-14 8.62177e-15 0 0 4.23142e-15 5.8423e-15 5.50758e-14 -8.11437e-15 0 0 -7.09976e-15 2.24532e-14 3.81128e-14 -5.70547e-15 0 0 7.76492e-15 1.13982e-14 3.35263e-14 -8.11169e-15 0 0 4.08162e-16 2.33566e-14 1.57125e-14 7.93155e-15 0 0 2.35534e-15 1.10346e-14 3.25455e-14 -9.10058e-15 0 0 5.37384e-15 1.64076e-14 6.54191e-15 7.79685e-15 0 0 5.43771e-16 1.50466e-14 1.67905e-14 -4.34987e-15 0 0 6.95122e-15 -9.09219e-15 3.16964e-14 -1.33674e-14 0 0 2.8816e-14 -4.6832e-14 5.59719e-14 -2.85093e-14 0 0 5.1013e-14 -9.79723e-14 1.0281e-13 -5.07492e-14 0 0 2.95257e-14 -7.69061e-14 4.85796e-14 2.9639e-14 0 0 -3.69697e-14 4.28436e-14 -8.12246e-14 1.29232e-13 0 0 -2.29969e-14 2.41611e-14 -3.66347e-14 9.24559e-14 0 0 -6.8809e-15 -3.14913e-14 8.11952e-14 1.93101e-16 0 0 -5.65636e-14 4.81885e-14 4.18377e-14 6.88111e-15 0 0 -5.17137e-14 8.45961e-14 -3.26084e-14 7.9931e-14 0 0 -1.60375e-14 5.37709e-14 -3.45297e-14 1.12061e-13 0 0 -5.50925e-15 3.13291e-14 2.70802e-14 5.25528e-14 0 0 1.66082e-14 -1.84883e-15 1.0102e-13 -2.31073e-14 0 0 8.54518e-15 3.87636e-14 6.03123e-14 -4.12734e-15 0 0 4.44836e-15 7.54513e-14 1.51067e-14 2.67744e-14 0 0 3.27279e-14 5.06769e-14 3.17713e-14 3.27563e-14 0 0 4.01589e-14 1.63069e-14 7.48037e-14 1.79511e-14 0 0 2.71805e-14 2.35377e-14 6.06359e-14 2.9891e-14 0 0 2.2936e-14 2.32803e-14 3.6026e-14 8.8184e-14 0 0 1.64783e-15 4.10792e-14 1.12597e-14 1.53052e-13 0 0 -7.31008e-14 1.44072e-13 -6.9519e-14 2.03432e-13 0 0 -1.32686e-14 1.52501e-14 9.82658e-14 4.6611e-14 0 0 7.4619e-14 -9.35651e-14 2.11925e-13 -8.63334e-14 0 0 4.57671e-14 2.3527e-14 3.12769e-14 3.07982e-14 0 0 6.22118e-14 2.97469e-14 -2.42561e-14 1.00834e-13 0 0 8.58294e-14 3.82759e-15 2.9315e-14 3.12226e-14 0 0 5.20255e-14 5.31438e-14 3.47316e-14 -5.01851e-14 0 0 7.24058e-14 1.17424e-14 1.39575e-13 -1.79808e-13 0 0 1.64108e-14 1.22017e-13 -4.34282e-14 -2.48029e-14 0 0 4.05771e-14 7.92322e-14 -1.04799e-13 1.10595e-13 0 0 1.61338e-13 -1.44559e-13 1.31331e-13 -1.98596e-14 0 0 1.28594e-13 -1.48424e-13 1.92731e-13 -8.00916e-14 0 0 1.47948e-13 -1.94669e-13 2.49977e-13 -1.29977e-13 0 0 1.77479e-13 -1.54353e-13 1.79011e-13 -9.4216e-14 0 0 1.36707e-13 -2.29242e-14 1.74585e-14 3.02906e-14 0 0 2.77222e-14 1.56888e-13 -1.40923e-13 1.14664e-13 0 0 1.27745e-13 -3.19935e-14 1.24194e-13 -7.17248e-14 0 0 1.49038e-13 -6.81629e-14 2.15499e-13 -1.13553e-13 0 0 1.4596e-14 2.46813e-13 -6.60715e-14 4.47817e-14 0 0 8.00988e-14 1.48575e-13 9.1321e-14 -1.53886e-14 0 0 1.60658e-13 2.24724e-14 1.92451e-13 5.65855e-14 0 0 1.07072e-13 1.14606e-13 5.61154e-14 2.51914e-13 0 0 -1.91928e-14 2.13959e-13 8.61e-14 2.35407e-13 0 0 1.83056e-15 2.07837e-13 1.59643e-13 1.94302e-13 0 0 7.29743e-14 1.03535e-13 2.34412e-13 1.91236e-13 0 0 1.47682e-13 -3.55468e-14 3.46786e-13 1.10202e-13 0 0 1.4342e-13 9.34521e-16 3.04635e-13 8.29222e-14 0 0 2.55517e-14 1.36901e-13 2.08725e-13 1.42142e-13 0 0 -7.72429e-14 2.13359e-13 1.63437e-13 2.36183e-13 0 0 -4.19369e-15 7.29997e-14 3.08615e-13 1.90393e-13 0 0 9.00104e-14 -2.94005e-14 3.53574e-13 1.44055e-13 0 0 1.62815e-13 -2.23201e-14 1.95946e-13 1.80336e-13 0 0 2.55697e-13 -1.29446e-14 5.76871e-14 1.56174e-13 0 0 2.77389e-13 9.95935e-14 -1.17263e-13 2.17367e-13 0 0 3.07094e-13 4.69924e-14 -3.0198e-16 1.36689e-13 0 0 1.61193e-13 1.11508e-13 5.18264e-14 1.22495e-13 0 0 2.72556e-13 -2.51327e-14 7.98296e-14 2.27884e-13 0 0 4.93182e-13 -2.07788e-13 1.60357e-13 2.58558e-13 0 0 2.87572e-13 1.45004e-13 -8.28182e-15 1.7098e-13 0 0 2.69147e-13 1.52028e-13 8.23491e-14 -5.13417e-14 0 0 3.81014e-13 -7.05633e-14 1.80798e-13 -1.73356e-13 0 0 5.30219e-13 -3.12723e-13 2.79565e-13 -1.51814e-13 0 0 6.47576e-13 -5.21024e-13 3.87407e-13 -1.16168e-13 0 0 4.36005e-13 -2.81607e-13 1.26043e-13 1.09993e-13 0 0 1.21647e-13 1.40526e-13 -3.01353e-13 3.20539e-13 0 0 -5.94767e-14 1.1965e-13 -2.27466e-13 2.59148e-13 0 0 -8.67336e-14 2.19986e-14 -2.39312e-14 1.42549e-13 0 0 -1.2863e-13 -1.16227e-13 1.87852e-13 6.98556e-14 0 0 -1.78953e-13 -2.14686e-13 3.4239e-13 1.09223e-13 0 0 -1.68518e-13 -2.65881e-13 2.74828e-13 2.01607e-13 0 0 -1.05156e-13 -3.32035e-13 2.26151e-13 3.29258e-13 0 0 -5.70326e-14 -3.60823e-13 1.60265e-13 4.26709e-13 0 0 -5.22288e-14 -3.27697e-13 8.42525e-15 4.99529e-13 0 0 -8.83841e-14 -2.81981e-13 1.41839e-14 4.7474e-13 0 0 -1.33553e-13 -2.49162e-13 3.45852e-14 4.17585e-13 0 0 -1.01446e-13 -2.74456e-13 9.13725e-14 3.01486e-13 0 0 -6.79199e-14 -3.64852e-13 2.41982e-13 1.56545e-13 0 0 -8.4758e-14 -3.63561e-13 3.63732e-13 3.45414e-15 0 0 -1.2313e-13 -3.26683e-13 3.61161e-13 -1.43839e-13 0 0 -2.02975e-13 -1.87003e-13 3.10733e-13 -1.62322e-13 0 0 -2.80018e-13 -7.63521e-15 1.85325e-13 -1.38203e-13 0 0 -3.42699e-13 1.59944e-13 7.85089e-14 -1.00798e-13 0 0 -3.20901e-13 3.12966e-13 5.60106e-14 -7.93875e-14 0 0 -2.57815e-13 3.35421e-13 5.77707e-14 -5.33946e-14 0 0 -1.28327e-13 3.22366e-13 1.00882e-13 -2.296e-14 0 0 -7.13111e-15 2.86736e-13 1.69085e-13 -1.21056e-14 0 0 1.51854e-13 1.69192e-13 3.56282e-13 -9.09677e-14 0 0 3.49273e-13 -3.84829e-15 5.71319e-13 -1.02102e-13 0 0 3.76028e-13 1.35148e-14 5.00414e-13 1.65082e-14 0 0 3.34099e-13 1.08822e-13 3.89006e-13 1.74977e-13 0 0 1.82957e-13 3.12895e-13 2.8502e-13 3.04985e-13 0 0 2.2084e-14 5.02702e-13 1.86523e-13 3.24057e-13 0 0 -1.09702e-14 5.1695e-13 1.21377e-13 2.49268e-13 0 0 7.11531e-15 5.04623e-13 -2.36553e-14 2.67641e-13 0 0 8.654e-14 4.71617e-13 -4.04858e-14 2.74208e-13 0 0 1.89436e-13 3.7033e-13 1.34483e-14 2.20688e-13 0 0 2.78925e-13 1.98954e-13 1.29435e-13 1.74727e-13 0 0 3.42554e-13 1.64825e-13 2.16295e-13 9.34819e-14 0 0 4.02304e-13 1.13199e-13 3.22684e-13 -2.33215e-15 0 0 4.14228e-13 9.82782e-14 3.94781e-13 -3.60325e-14 0 0 3.8198e-13 1.89951e-13 3.52329e-13 -1.28231e-14 0 0 2.43744e-13 4.70723e-13 1.71837e-13 6.57962e-14 0 0 1.20191e-13 6.06808e-13 7.13681e-14 8.81566e-14 0 0 1.15946e-13 5.80239e-13 9.85269e-14 8.09155e-14 0 0 1.28874e-13 4.50843e-13 2.55316e-13 -5.53865e-14 0 0 1.46468e-13 2.63918e-13 4.26149e-13 -1.923e-13 0 0 2.10667e-13 1.89652e-14 5.49572e-13 -2.31004e-13 0 0 2.45226e-13 -5.76765e-14 5.37349e-13 -2.17639e-13 0 0 1.65825e-13 3.74498e-14 3.89978e-13 -5.26915e-14 0 0 6.98143e-14 2.32641e-13 1.62478e-13 9.56263e-14 0 0 7.25363e-14 2.84018e-13 2.09609e-14 1.51889e-13 0 0 1.12579e-13 2.56682e-13 2.86488e-14 2.00338e-13 0 0 1.37635e-13 2.53946e-13 1.92718e-14 2.45851e-13 0 0 1.51429e-13 2.13568e-13 7.80396e-14 2.04176e-13 0 0 1.30847e-13 1.79392e-13 2.19764e-13 9.77855e-14 0 0 1.13608e-13 1.73465e-13 2.77805e-13 -3.76285e-14 0 0 1.22528e-13 1.6272e-13 2.12244e-13 -2.88035e-14 0 0 9.82975e-14 1.59987e-13 2.08423e-13 4.01023e-14 0 0 6.9515e-14 1.27221e-13 2.65567e-13 1.14824e-14 0 0 3.98409e-14 1.13935e-13 2.45602e-13 7.14016e-15 0 0 1.69509e-14 8.27473e-14 2.39501e-13 3.45653e-14 0 0 2.22016e-14 1.58551e-14 2.13393e-13 1.46199e-13 0 0 -1.17296e-14 2.68959e-14 1.8802e-13 1.43667e-13 0 0 -4.71426e-14 6.72312e-14 1.77254e-13 6.50108e-14 0 0 -6.12514e-14 1.8252e-13 -2.30672e-14 2.52697e-13 0 0 -3.86831e-14 1.73156e-13 1.16095e-14 2.38973e-13 0 0 -1.65855e-14 1.12133e-13 2.69157e-13 1.23596e-13 0 0 -3.95732e-14 2.68396e-13 1.83191e-13 3.32896e-13 0 0 4.2537e-14 2.73937e-13 3.12004e-13 2.53717e-13 0 0 9.37533e-14 2.27513e-13 4.54742e-13 2.08089e-13 0 0 1.34205e-13 2.33711e-13 4.90412e-13 2.44831e-13 0 0 8.01784e-14 3.88751e-13 4.13094e-13 2.86679e-13 0 0 5.58761e-14 4.46108e-13 4.1136e-13 4.10547e-13 0 0 2.07612e-13 1.93872e-13 7.42751e-13 2.18786e-13 0 0 1.87765e-13 2.39023e-13 7.71308e-13 1.45978e-13 0 0 1.55596e-13 3.38029e-13 6.47154e-13 3.33039e-13 0 0 1.90354e-13 3.79791e-13 5.64016e-13 4.48483e-13 0 0 1.9765e-13 4.65652e-13 4.77543e-13 4.14252e-13 0 0 2.76787e-13 3.63958e-13 5.79275e-13 3.43241e-13 0 0 3.12962e-13 2.9723e-13 6.89305e-13 2.96714e-13 0 0 2.08659e-13 4.51205e-13 6.36648e-13 2.68212e-13 0 0 1.61672e-13 5.542e-13 5.28124e-13 3.20127e-13 0 0 3.30812e-13 3.55671e-13 6.82479e-13 2.92208e-13 0 0 4.54763e-13 2.36214e-13 7.96428e-13 2.12464e-13 0 0 4.58448e-13 3.76855e-13 5.51228e-13 3.93344e-13 0 0 3.36702e-13 6.65057e-13 1.53406e-13 7.86827e-13 0 0 2.95235e-13 6.91455e-13 1.85767e-13 8.11719e-13 0 0 3.79117e-13 5.26372e-13 4.776e-13 5.17944e-13 0 0 3.452e-13 6.50077e-13 3.61629e-13 5.2359e-13 0 0 4.86778e-13 4.77141e-13 4.5208e-13 5.56878e-13 0 0 4.46023e-13 5.36506e-13 4.47318e-13 4.14956e-13 0 0 4.04525e-13 6.5348e-13 3.09808e-13 2.96222e-13 0 0 4.34229e-13 5.52832e-13 4.13139e-13 2.06696e-13 0 0 3.68696e-13 5.2261e-13 5.37725e-13 2.35505e-14 0 0 3.95207e-13 4.6851e-13 5.49447e-13 -6.61559e-15 0 0 3.96955e-13 5.63702e-13 3.46781e-13 2.12195e-13 0 0 3.5858e-13 6.79687e-13 8.03969e-14 4.62447e-13 0 0 2.71767e-13 7.02676e-13 2.44781e-13 3.50151e-13 0 0 1.2573e-13 8.29807e-13 3.58267e-13 2.51435e-13 0 0 2.0195e-13 8.02142e-13 3.00333e-13 2.60347e-13 0 0 4.6326e-13 5.00172e-13 5.03411e-13 8.91707e-14 0 0 4.67611e-13 3.64492e-13 6.54032e-13 2.29057e-14 0 0 2.55508e-13 6.57691e-13 3.45542e-13 2.47211e-13 0 0 2.83986e-13 6.57479e-13 3.47979e-13 2.71312e-13 0 0 3.88886e-13 4.31798e-13 5.87982e-13 1.6884e-13 0 0 2.07159e-13 6.23071e-13 3.52585e-13 3.95822e-13 0 0 2.12899e-13 5.56589e-13 2.89681e-13 5.50991e-13 0 0 4.04131e-13 2.31296e-13 4.60231e-13 5.62248e-13 0 0 3.47915e-13 1.75987e-13 6.18444e-13 4.37479e-13 0 0 2.58914e-13 2.38142e-13 6.10846e-13 4.24212e-13 0 0 2.19826e-13 2.65243e-13 5.33669e-13 5.20282e-13 0 0 1.27647e-13 3.98798e-13 4.09761e-13 5.24785e-13 0 0 9.02852e-14 4.74053e-13 3.61414e-13 4.1473e-13 0 0 2.06132e-14 5.9446e-13 2.94219e-13 4.87954e-13 0 0 1.01771e-13 5.16704e-13 3.46603e-13 6.1949e-13 0 0 1.37418e-13 4.86244e-13 3.68713e-13 6.55484e-13 0 0 8.50825e-14 7.05644e-13 1.55903e-13 7.50745e-13 0 0 2.08354e-13 5.42317e-13 4.20848e-13 4.74425e-13 0 0 -3.09896e-14 6.8324e-13 5.88918e-13 2.07916e-13 0 0 5.08713e-14 4.77929e-13 9.39213e-13 -8.21162e-14 0 0 2.05501e-13 2.89082e-13 1.12827e-12 -2.00422e-13 0 0 -1.2847e-13 9.14006e-13 3.33156e-13 2.74033e-13 0 0 -1.84343e-13 1.1024e-12 -6.51315e-14 5.05624e-13 0
				</DataArray>
				<DataArray Name="VitesseY" type="Float32" format="ascii">