<?xml version="1.0"?>
<VTKFile type="PolyData">
	<PolyData>
		<Piece NumberOfPoints="1206" NumberOfPolys="1000">
			<Points>
				<DataArray type="Float32" NumberOfComponents="3" format="ascii">
 0 0 0 0.02 0 0 0.04 0 0 0.06 0 0 0.08 0 0 0.1 0 0 0 0.005 0 0.02 0.005 0 0.04 0.005 0 0.06 0.005 0 0.08 0.005 0 0.1 0.005 0 0 0.01 0 0.02 0.01 0 0.04 0.01 0 0.06 0.01 0 0.08 0.01 0 0.1 0.01 0 0 0.015 0 0.02 0.015 0 0.04 0.015 0 0.06 0.015 0 0.08 0.015 0 0.1 0.015 0 0 0.02 0 0.02 0.02 0 0.04 0.02 0 0.06 0.02 0 0.08 0.02 0 0.1 0.02 0 0 0.025 0 0.02 0.025 0 0.04 0.025 0 0.06 0.025 0 0.08 0.025 0 0.1 0.025 0 0 0.03 0 0.02 0.03 0 0.04 0.03 0 0.06 0.03 0 0.08 0.03 0 0.1 0.03 0 0 0.035 0 0.02 0.035 0 0.04 0.035 0 0.06 0.035 0 0.08 0.035 0 0.1 0.035 0 0 0.04 0 0.02 0.04 0 0.04 0.04 0 0.06 0.04 0 0.08 0.04 0 0.1 0.04 0 0 0.045 0 0.02 0.045 0 0.04 0.045 0 0.06 0.045 0 0.08 0.045 0 0.1 0.045 0 0 0.05 0 0.02 0.05 0 0.04 0.05 0 0.06 0.05 0 0.08 0.05 0 0.1 0.05 0 0 0.055 0 0.02 0.055 0 0.04 0.055 0 0.06 0.055 0 0.08 0.055 0 0.1 0.055 0 0 0.06 0 0.02 0.06 0 0.04 0.06 0 0.06 0.06 0 0.08 0.06 0 0.1 0.06 0 0 0.065 0 0.02 0.065 0 0.04 0.065 0 0.06 0.065 0 0.08 0.065 0 0.1 0.065 0 0 0.07 0 0.02 0.07 0 0.04 0.07 0 0.06 0.07 0 0.08 0.07 0 0.1 0.07 0 0 0.075 0 0.02 0.075 0 0.04 0.075 0 0.06 0.075 0 0.08 0.075 0 0.1 0.075 0 0 0.08 0 0.02 0.08 0 0.04 0.08 0 0.06 0.08 0 0.08 0.08 0 0.1 0.08 0 0 0.085 0 0.02 0.085 0 0.04 0.085 0 0.06 0.085 0 0.08 0.085 0 0.1 0.085 0 0 0.09 0 0.02 0.09 0 0.04 0.09 0 0.06 0.09 0 0.08 0.09 0 0.1 0.09 0 0 0.095 0 0.02 0.095 0 0.04 0.095 0 0.06 0.095 0 0.08 0.095 0 0.1 0.095 0 0 0.1 0 0.02 0.1 0 0.04 0.1 0 0.06 0.1 0 0.08 0.1 0 0.1 0.1 0 0 0.105 0 0.02 0.105 0 0.04 0.105 0 0.06 0.105 0 0.08 0.105 0 0.1 0.105 0 0 0.11 0 0.02 0.11 0 0.04 0.11 0 0.06 0.11 0 0.08 0.11 0 0.1 0.11 0 0 0.115 0 0.02 0.115 0 0.04 0.115 0 0.06 0.115 0 0.08 0.115 0 0.1 0.115 0 0 0.12 0 0.02 0.12 0 0.04 0.12 0 0.06 0.12 0 0.08 0.12 0 0.1 0.12 0 0 0.125 0 0.02 0.125 0 0.04 0.125 0 0.06 0.125 0 0.08 0.125 0 0.1 0.125 0 0 0.13 0 0.02 0.13 0 0.04 0.13 0 0.06 0.13 0 0.08 0.13 0 0.1 0.13 0 0 0.135 0 0.02 0.135 0 0.04 0.135 0 0.06 0.135 0 0.08 0.135 0 0.1 0.135 0 0 0.14 0 0.02 0.14 0 0.04 0.14 0 0.06 0.14 0 0.08 0.14 0 0.1 0.14 0 0 0.145 0 0.02 0.145 0 0.04 0.145 0 0.06 0.145 0 0.08 0.145 0 0.1 0.145 0 0 0.15 0 0.02 0.15 0 0.04 0.15 0 0.06 0.15 0 0.08 0.15 0 0.1 0.15 0 0 0.155 0 0.02 0.155 0 0.04 0.155 0 0.06 0.155 0 0.08 0.155 0 0.1 0.155 0 0 0.16 0 0.02 0.16 0 0.04 0.16 0 0.06 0.16 0 0.08 0.16 0 0.1 0.16 0 0 0.165 0 0.02 0.165 0 0.04 0.165 0 0.06 0.165 0 0.08 0.165 0 0.1 0.165 0 0 0.17 0 0.02 0.17 0 0.04 0.17 0 0.06 0.17 0 0.08 0.17 0 0.1 0.17 0 0 0.175 0 0.02 0.175 0 0.04 0.175 0 0.06 0.175 0 0.08 0.175 0 0.1 0.175 0 0 0.18 0 0.02 0.18 0 0.04 0.18 0 0.06 0.18 0 0.08 0.18 0 0.1 0.18 0 0 0.185 0 0.02 0.185 0 0.04 0.185 0 0.06 0.185 0 0.08 0.185 0 0.1 0.185 0 0 0.19 0 0.02 0.19 0 0.04 0.19 0 0.06 0.19 0 0.08 0.19 0 0.1 0.19 0 0 0.195 0 0.02 0.195 0 0.04 0.195 0 0.06 0.195 0 0.08 0.195 0 0.1 0.195 0 0 0.2 0 0.02 0.2 0 0.04 0.2 0 0.06 0.2 0 0.08 0.2 0 0.1 0.2 0 0 0.205 0 0.02 0.205 0 0.04 0.205 0 0.06 0.205 0 0.08 0.205 0 0.1 0.205 0 0 0.21 0 0.02 0.21 0 0.04 0.21 0 0.06 0.21 0 0.08 0.21 0 0.1 0.21 0 0 0.215 0 0.02 0.215 0 0.04 0.215 0 0.06 0.215 0 0.08 0.215 0 0.1 0.215 0 0 0.22 0 0.02 0.22 0 0.04 0.22 0 0.06 0.22 0 0.08 0.22 0 0.1 0.22 0 0 0.225 0 0.02 0.225 0 0.04 0.225 0 0.06 0.225 0 0.08 0.225 0 0.1 0.225 0 0 0.23 0 0.02 0.23 0 0.04 0.23 0 0.06 0.23 0 0.08 0.23 0 0.1 0.23 0 0 0.235 0 0.02 0.235 0 0.04 0.235 0 0.06 0.235 0 0.08 0.235 0 0.1 0.235 0 0 0.24 0 0.02 0.24 0 0.04 0.24 0 0.06 0.24 0 0.08 0.24 0 0.1 0.24 0 0 0.245 0 0.02 0.245 0 0.04 0.245 0 0.06 0.245 0 0.08 0.245 0 0.1 0.245 0 0 0.25 0 0.02 0.25 0 0.04 0.25 0 0.06 0.25 0 0.08 0.25 0 0.1 0.25 0 0 0.255 0 0.02 0.255 0 0.04 0.255 0 0.06 0.255 0 0.08 0.255 0 0.1 0.255 0 0 0.26 0 0.02 0.26 0 0.04 0.26 0 0.06 0.26 0 0.08 0.26 0 0.1 0.26 0 0 0.265 0 0.02 0.265 0 0.04 0.265 0 0.06 0.265 0 0.08 0.265 0 0.1 0.265 0 0 0.27 0 0.02 0.27 0 0.04 0.27 0 0.06 0.27 0 0.08 0.27 0 0.1 0.27 0 0 0.275 0 0.02 0.275 0 0.04 0.275 0 0.06 0.275 0 0.08 0.275 0 0.1 0.275 0 0 0.28 0 0.02 0.28 0 0.04 0.28 0 0.06 0.28 0 0.08 0.28 0 0.1 0.28 0 0 0.285 0 0.02 0.285 0 0.04 0.285 0 0.06 0.285 0 0.08 0.285 0 0.1 0.285 0 0 0.29 0 0.02 0.29 0 0.04 0.29 0 0.06 0.29 0 0.08 0.29 0 0.1 0.29 0 0 0.295 0 0.02 0.295 0 0.04 0.295 0 0.06 0.295 0 0.08 0.295 0 0.1 0.295 0 0 0.3 0 0.02 0.3 0 0.04 0.3 0 0.06 0.3 0 0.08 0.3 0 0.1 0.3 0 0 0.305 0 0.02 0.305 0 0.04 0.305 0 0.06 0.305 0 0.08 0.305 0 0.1 0.305 0 0 0.31 0 0.02 0.31 0 0.04 0.31 0 0.06 0.31 0 0.08 0.31 0 0.1 0.31 0 0 0.315 0 0.02 0.315 0 0.04 0.315 0 0.06 0.315 0 0.08 0.315 0 0.1 0.315 0 0 0.32 0 0.02 0.32 0 0.04 0.32 0 0.06 0.32 0 0.08 0.32 0 0.1 0.32 0 0 0.325 0 0.02 0.325 0 0.04 0.325 0 0.06 0.325 0 0.08 0.325 0 0.1 0.325 0 0 0.33 0 0.02 0.33 0 0.04 0.33 0 0.06 0.33 0 0.08 0.33 0 0.1 0.33 0 0 0.335 0 0.02 0.335 0 0.04 0.335 0 0.06 0.335 0 0.08 0.335 0 0.1 0.335 0 0 0.34 0 0.02 0.34 0 0.04 0.34 0 0.06 0.34 0 0.08 0.34 0 0.1 0.34 0 0 0.345 0 0.02 0.345 0 0.04 0.345 0 0.06 0.345 0 0.08 0.345 0 0.1 0.345 0 0 0.35 0 0.02 0.35 0 0.04 0.35 0 0.06 0.35 0 0.08 0.35 0 0.1 0.35 0 0 0.355 0 0.02 0.355 0 0.04 0.355 0 0.06 0.355 0 0.08 0.355 0 0.1 0.355 0 0 0.36 0 0.02 0.36 0 0.04 0.36 0 0.06 0.36 0 0.08 0.36 0 0.1 0.36 0 0 0.365 0 0.02 0.365 0 0.04 0.365 0 0.06 0.365 0 0.08 0.365 0 0.1 0.365 0 0 0.37 0 0.02 0.37 0 0.04 0.37 0 0.06 0.37 0 0.08 0.37 0 0.1 0.37 0 0 0.375 0 0.02 0.375 0 0.04 0.375 0 0.06 0.375 0 0.08 0.375 0 0.1 0.375 0 0 0.38 0 0.02 0.38 0 0.04 0.38 0 0.06 0.38 0 0.08 0.38 0 0.1 0.38 0 0 0.385 0 0.02 0.385 0 0.04 0.385 0 0.06 0.385 0 0.08 0.385 0 0.1 0.385 0 0 0.39 0 0.02 0.39 0 0.04 0.39 0 0.06 0.39 0 0.08 0.39 0 0.1 0.39 0 0 0.395 0 0.02 0.395 0 0.04 0.395 0 0.06 0.395 0 0.08 0.395 0 0.1 0.395 0 0 0.4 0 0.02 0.4 0 0.04 0.4 0 0.06 0.4 0 0.08 0.4 0 0.1 0.4 0 0 0.405 0 0.02 0.405 0 0.04 0.405 0 0.06 0.405 0 0.08 0.405 0 0.1 0.405 0 0 0.41 0 0.02 0.41 0 0.04 0.41 0 0.06 0.41 0 0.08 0.41 0 0.1 0.41 0 0 0.415 0 0.02 0.415 0 0.04 0.415 0 0.06 0.415 0 0.08 0.415 0 0.1 0.415 0 0 0.42 0 0.02 0.42 0 0.04 0.42 0 0.06 0.42 0 0.08 0.42 0 0.1 0.42 0 0 0.425 0 0.02 0.425 0 0.04 0.425 0 0.06 0.425 0 0.08 0.425 0 0.1 0.425 0 0 0.43 0 0.02 0.43 0 0.04 0.43 0 0.06 0.43 0 0.08 0.43 0 0.1 0.43 0 0 0.435 0 0.02 0.435 0 0.04 0.435 0 0.06 0.435 0 0.08 0.435 0 0.1 0.435 0 0 0.44 0 0.02 0.44 0 0.04 0.44 0 0.06 0.44 0 0.08 0.44 0 0.1 0.44 0 0 0.445 0 0.02 0.445 0 0.04 0.445 0 0.06 0.445 0 0.08 0.445 0 0.1 0.445 0 0 0.45 0 0.02 0.45 0 0.04 0.45 0 0.06 0.45 0 0.08 0.45 0 0.1 0.45 0 0 0.455 0 0.02 0.455 0 0.04 0.455 0 0.06 0.455 0 0.08 0.455 0 0.1 0.455 0 0 0.46 0 0.02 0.46 0 0.04 0.46 0 0.06 0.46 0 0.08 0.46 0 0.1 0.46 0 0 0.465 0 0.02 0.465 0 0.04 0.465 0 0.06 0.465 0 0.08 0.465 0 0.1 0.465 0 0 0.47 0 0.02 0.47 0 0.04 0.47 0 0.06 0.47 0 0.08 0.47 0 0.1 0.47 0 0 0.475 0 0.02 0.475 0 0.04 0.475 0 0.06 0.475 0 0.08 0.475 0 0.1 0.475 0 0 0.48 0 0.02 0.48 0 0.04 0.48 0 0.06 0.48 0 0.08 0.48 0 0.1 0.48 0 0 0.485 0 0.02 0.485 0 0.04 0.485 0 0.06 0.485 0 0.08 0.485 0 0.1 0.485 0 0 0.49 0 0.02 0.49 0 0.04 0.49 0 0.06 0.49 0 0.08 0.49 0 0.1 0.49 0 0 0.495 0 0.02 0.495 0 0.04 0.495 0 0.06 0.495 0 0.08 0.495 0 0.1 0.495 0 0 0.5 0 0.02 0.5 0 0.04 0.5 0 0.06 0.5 0 0.08 0.5 0 0.1 0.5 0 0 0.505 0 0.02 0.505 0 0.04 0.505 0 0.06 0.505 0 0.08 0.505 0 0.1 0.505 0 0 0.51 0 0.02 0.51 0 0.04 0.51 0 0.06 0.51 0 0.08 0.51 0 0.1 0.51 0 0 0.515 0 0.02 0.515 0 0.04 0.515 0 0.06 0.515 0 0.08 0.515 0 0.1 0.515 0 0 0.52 0 0.02 0.52 0 0.04 0.52 0 0.06 0.52 0 0.08 0.52 0 0.1 0.52 0 0 0.525 0 0.02 0.525 0 0.04 0.525 0 0.06 0.525 0 0.08 0.525 0 0.1 0.525 0 0 0.53 0 0.02 0.53 0 0.04 0.53 0 0.06 0.53 0 0.08 0.53 0 0.1 0.53 0 0 0.535 0 0.02 0.535 0 0.04 0.535 0 0.06 0.535 0 0.08 0.535 0 0.1 0.535 0 0 0.54 0 0.02 0.54 0 0.04 0.54 0 0.06 0.54 0 0.08 0.54 0 0.1 0.54 0 0 0.545 0 0.02 0.545 0 0.04 0.545 0 0.06 0.545 0 0.08 0.545 0 0.1 0.545 0 0 0.55 0 0.02 0.55 0 0.04 0.55 0 0.06 0.55 0 0.08 0.55 0 0.1 0.55 0 0 0.555 0 0.02 0.555 0 0.04 0.555 0 0.06 0.555 0 0.08 0.555 0 0.1 0.555 0 0 0.56 0 0.02 0.56 0 0.04 0.56 0 0.06 0.56 0 0.08 0.56 0 0.1 0.56 0 0 0.565 0 0.02 0.565 0 0.04 0.565 0 0.06 0.565 0 0.08 0.565 0 0.1 0.565 0 0 0.57 0 0.02 0.57 0 0.04 0.57 0 0.06 0.57 0 0.08 0.57 0 0.1 0.57 0 0 0.575 0 0.02 0.575 0 0.04 0.575 0 0.06 0.575 0 0.08 0.575 0 0.1 0.575 0 0 0.58 0 0.02 0.58 0 0.04 0.58 0 0.06 0.58 0 0.08 0.58 0 0.1 0.58 0 0 0.585 0 0.02 0.585 0 0.04 0.585 0 0.06 0.585 0 0.08 0.585 0 0.1 0.585 0 0 0.59 0 0.02 0.59 0 0.04 0.59 0 0.06 0.59 0 0.08 0.59 0 0.1 0.59 0 0 0.595 0 0.02 0.595 0 0.04 0.595 0 0.06 0.595 0 0.08 0.595 0 0.1 0.595 0 0 0.6 0 0.02 0.6 0 0.04 0.6 0 0.06 0.6 0 0.08 0.6 0 0.1 0.6 0 0 0.605 0 0.02 0.605 0 0.04 0.605 0 0.06 0.605 0 0.08 0.605 0 0.1 0.605 0 0 0.61 0 0.02 0.61 0 0.04 0.61 0 0.06 0.61 0 0.08 0.61 0 0.1 0.61 0 0 0.615 0 0.02 0.615 0 0.04 0.615 0 0.06 0.615 0 0.08 0.615 0 0.1 0.615 0 0 0.62 0 0.02 0.62 0 0.04 0.62 0 0.06 0.62 0 0.08 0.62 0 0.1 0.62 0 0 0.625 0 0.02 0.625 0 0.04 0.625 0 0.06 0.625 0 0.08 0.625 0 0.1 0.625 0 0 0.63 0 0.02 0.63 0 0.04 0.63 0 0.06 0.63 0 0.08 0.63 0 0.1 0.63 0 0 0.635 0 0.02 0.635 0 0.04 0.635 0 0.06 0.635 0 0.08 0.635 0 0.1 0.635 0 0 0.64 0 0.02 0.64 0 0.04 0.64 0 0.06 0.64 0 0.08 0.64 0 0.1 0.64 0 0 0.645 0 0.02 0.645 0 0.04 0.645 0 0.06 0.645 0 0.08 0.645 0 0.1 0.645 0 0 0.65 0 0.02 0.65 0 0.04 0.65 0 0.06 0.65 0 0.08 0.65 0 0.1 0.65 0 0 0.655 0 0.02 0.655 0 0.04 0.655 0 0.06 0.655 0 0.08 0.655 0 0.1 0.655 0 0 0.66 0 0.02 0.66 0 0.04 0.66 0 0.06 0.66 0 0.08 0.66 0 0.1 0.66 0 0 0.665 0 0.02 0.665 0 0.04 0.665 0 0.06 0.665 0 0.08 0.665 0 0.1 0.665 0 0 0.67 0 0.02 0.67 0 0.04 0.67 0 0.06 0.67 0 0.08 0.67 0 0.1 0.67 0 0 0.675 0 0.02 0.675 0 0.04 0.675 0 0.06 0.675 0 0.08 0.675 0 0.1 0.675 0 0 0.68 0 0.02 0.68 0 0.04 0.68 0 0.06 0.68 0 0.08 0.68 0 0.1 0.68 0 0 0.685 0 0.02 0.685 0 0.04 0.685 0 0.06 0.685 0 0.08 0.685 0 0.1 0.685 0 0 0.69 0 0.02 0.69 0 0.04 0.69 0 0.06 0.69 0 0.08 0.69 0 0.1 
[...]
			<PointData Scalars="VitesseX">
				<DataArray Name="VitesseX" type="Float32" format="ascii">
 0 2.46556e-15 5.98163e-14 4.8094e-14 -9.2982e-16 0 0 1.35274e-14 4.92836e-14 4.68987e-14 2.71286e-15 0 0 2.67551e-14 4.23981e-14 2.77942e-14 2.11933e-14 0 0 4.28277e-14 1.9522e-14 3.13973e-14 2.10942e-14 0 0 3.83341e-14 8.29759e-15 3.92908e-14 1.1164e-14 0 0 9.39294e-15 3.64125e-14 8.55336e-15 2.6885e-14 0 0 -2.8194e-15 5.2464e-14 -1.28041e-14 4.33612e-14 0 0 3.50308e-15 3.84273e-14 5.78093e-15 3.37995e-14 0 0 1.08411e-14 2.51552e-14 1.89109e-14 2.66206e-14 0 0 1.15215e-14 2.5984e-14 2.27246e-14 1.39447e-14 0 0 1.88257e-14 1.32227e-14 3.90016e-14 5.89326e-15 0 0 4.77187e-15 2.73874e-14 3.08671e-14 2.33282e-14 0 0 -6.4916e-15 2.19828e-14 5.63464e-14 5.55171e-15 0 0 -7.41417e-15 2.35314e-14 5.36929e-14 3.67846e-15 0 0 -2.35889e-15 4.7143e-14 1.38349e-14 3.8271e-14 0 0 1.80759e-14 3.56056e-14 2.11901e-14 5.04698e-14 0 0 3.5806e-14 1.50599e-14 5.06502e-14 3.89667e-14 0 0 4.89671e-14 3.9916e-15 7.19325e-14 3.6985e-14 0 0 4.15946e-14 2.65057e-14 5.50601e-14 6.29052e-14 0 0 2.28285e-14 6.84473e-14 1.58619e-14 9.09964e-14 0 0 1.09432e-14 9.06997e-14 2.63472e-14 5.82781e-14 0 0 3.77742e-14 3.63433e-14 1.17411e-13 -1.60333e-14 0 0 5.81186e-14 1.14832e-14 1.38965e-13 -3.04094e-14 0 0 5.1095e-14 3.04972e-14 1.09296e-13 -1.67737e-14 0 0 5.49562e-15 9.57351e-14 6.56048e-14 -2.42683e-14 0 0 -2.52955e-14 1.55039e-13 1.12459e-14 -2.3913e-14 0 0 4.37343e-14 6.39555e-14 5.97522e-14 -3.38912e-14 0 0 7.44393e-14 5.83776e-15 1.25193e-13 -6.21708e-14 0 0 4.66494e-14 3.16101e-14 1.40757e-13 -1.01987e-13 0 0 2.37557e-15 1.2507e-13 2.6552e-14 -4.79953e-14 0 0 1.72351e-15 1.38892e-13 -2.36333e-14 -3.79294e-15 0 0 4.0887e-14 7.81813e-14 3.91087e-14 -4.36073e-14 0 0 5.34126e-14 8.60263e-14 4.68078e-14 -5.09052e-14 0 0 2.37515e-14 1.38833e-13 3.28871e-14 -4.70489e-14 0 0 2.70079e-14 1.16555e-13 8.58615e-14 -5.15743e-14 0 0 3.86205e-14 1.03761e-13 8.17225e-14 2.23617e-15 0 0 1.7909e-14 1.44535e-13 1.43205e-14 8.52501e-14 0 0 5.3483e-14 7.55967e-14 9.73631e-14 8.45971e-14 0 0 9.63967e-14 6.49468e-15 1.70109e-13 7.43229e-14 0 0 8.40129e-14 4.01194e-14 1.0764e-13 9.69184e-14 0 0 3.192e-14 8.42737e-14 7.46218e-14 8.9716e-14 0 0 2.45843e-14 3.34986e-14 1.4461e-13 2.98478e-14 0 0 -8.12573e-14 1.78116e-13 3.12901e-14 3.17802e-14 0 0 -1.44665e-13 2.28204e-13 7.98251e-15 8.64831e-15 0 0 -8.08701e-14 8.60333e-14 1.34804e-13 -3.63172e-14 0 0 -8.38811e-14 9.74419e-14 1.10798e-13 9.03941e-15 0 0 -4.38136e-14 2.39361e-14 2.01805e-13 -2.78578e-14 0 0 -3.4723e-14 -1.01839e-14 2.77159e-13 -4.66605e-14 0 0 -1.12938e-13 1.23232e-13 1.36719e-13 9.61696e-14 0 0 -2.18799e-13 3.01386e-13 -5.30894e-14 2.42141e-13 0 0 -2.55857e-13 3.36741e-13 -7.92898e-14 2.50332e-13 0 0 -1.74821e-13 2.53964e-13 -7.83753e-15 1.93269e-13 0 0 -8.66518e-14 1.58233e-13 6.67052e-14 1.40414e-13 0 0 3.21566e-14 -3.4109e-14 2.80091e-13 2.22065e-15 0 0 -4.81817e-14 8.53591e-14 2.72934e-13 -3.47807e-14 0 0 -2.28952e-13 3.60206e-13 1.13882e-13 -2.55119e-15 0 0 -1.34729e-13 2.73315e-13 1.45383e-13 -6.11482e-15 0 0 -8.5549e-14 2.45541e-13 6.94902e-14 9.1374e-14 0 0 -2.0084e-14 1.86509e-13 5.73574e-14 1.54189e-13 0 0 -9.19966e-15 1.79299e-13 8.46836e-14 1.66839e-13 0 0 -3.26612e-14 1.64794e-13 1.93944e-13 2.65515e-14 0 0 6.14391e-14 4.64607e-14 2.93963e-13 -6.69791e-14 0 0 -4.76727e-14 2.82064e-13 4.73728e-14 9.19552e-14 0 0 3.82546e-16 2.70887e-13 4.44917e-14 9.06474e-14 0 0 1.23551e-13 1.81515e-13 1.76506e-14 1.61838e-13 0 0 8.63077e-14 2.43349e-13 -6.13723e-14 2.60713e-13 0 0 1.89477e-13 2.33296e-14 2.19599e-13 6.55426e-14 0 0 7.22139e-14 2.2414e-13 2.79279e-14 1.60786e-13 0 0 8.67582e-15 4.00389e-13 -8.68953e-14 2.33803e-13 0 0 8.32701e-14 2.6059e-13 1.93738e-13 3.56692e-14 0 0 -7.6244e-14 3.23951e-13 2.64197e-13 -2.4895e-14 0 0 -7.88261e-14 2.28319e-13 3.81202e-13 -3.8599e-14 0 0 -2.37377e-13 3.98205e-13 2.38893e-13 1.55233e-13 0 0 -2.86573e-13 3.50995e-13 3.60791e-13 1.43596e-13 0 0 -2.54282e-13 3.25515e-13 3.40284e-13 2.14722e-13 0 0 -1.47917e-13 2.04052e-13 3.33407e-13 2.17823e-13 0 0 -3.98678e-14 2.79149e-14 5.40633e-13 -5.40987e-14 0 0 -4.06659e-13 6.70796e-13 -3.13244e-14 2.29311e-13 0 0 -1.70447e-13 3.63695e-13 1.85281e-13 2.37058e-13 0 0 -2.94232e-13 4.02376e-13 2.98959e-13 2.58698e-13 0 0 -4.49823e-13 6.07862e-13 4.01682e-13 8.20997e-14 0 0 1.95324e-13 -6.22582e-14 1.02997e-12 -4.03716e-13 0 0 2.77143e-13 2.37182e-13 5.43794e-13 -1.18912e-13 0 0 2.5013e-13 3.50155e-13 1.55623e-13 2.8175e-13 0 0 5.03885e-13 1.38556e-13 3.59101e-13 1.10159e-13 0 0 2.94388e-13 4.46722e-13 3.20367e-13 -1.157e-13 0 0 1.5878e-13 6.89411e-13 1.43702e-13 -1.26925e-13 0 0 2.76919e-13 5.28147e-13 3.13731e-13 -2.96051e-13 0 0 4.29997e-13 3.59774e-13 3.60736e-13 -2.312e-13 0 0 4.36822e-13 4.04419e-13 2.62715e-13 -5.18313e-15 0 0 3.30169e-13 6.64999e-13 -7.86167e-14 3.93998e-13 0 0 3.61662e-13 6.69554e-13 -2.14955e-13 6.43567e-13 0 0 4.48539e-13 6.16464e-13 -1.80545e-13 6.32633e-13 0 0 5.03646e-13 4.81073e-13 9.80322e-15 4.84712e-13 0 0 6.47791e-13 1.88291e-13 3.21859e-13 2.09533e-13 0 0 6.62339e-13 4.12483e-14 5.21867e-13 7.215e-14 0 0 6.30498e-13 6.91104e-14 5.20162e-13 9.18405e-14 0 0 5.56438e-13 1.63872e-13 4.14944e-13 1.95706e-13 0 0 3.87006e-13 4.05653e-13 1.82471e-13 2.79342e-13 0 0 1.82696e-13 6.75457e-13 1.23036e-14 2.81889e-13 0 0 7.30695e-14 7.98565e-13 7.16536e-15 2.26043e-13 0 0 7.83056e-14 7.8993e-13 5.64378e-14 8.42583e-14 0 0 1.27402e-13 6.87714e-13 2.58322e-13 -7.08775e-14 0 0 2.27171e-13 4.40818e-13 5.01153e-13 -2.17693e-13 0 0 2.42162e-13 2.01237e-13 6.89592e-13 -3.51776e-13 0 0 2.39283e-13 1.23271e-13 6.75269e-13 -3.39828e-13 0 0 2.16539e-13 1.28213e-13 5.74665e-13 -2.34906e-13 0 0 1.18051e-13 1.90581e-13 4.43785e-13 -1.39545e-13 0 0 -1.28196e-14 2.69988e-13 4.22816e-13 -1.22216e-13 0 0 -3.88548e-14 2.28623e-13 4.90341e-13 -1.23997e-13 0 0 -1.08268e-14 1.60138e-13 4.93837e-13 -7.93477e-14 0 0 3.54642e-14 1.98352e-13 3.86768e-13 1.04603e-13 0 0 2.91824e-14 2.64439e-13 2.66423e-13 2.38928e-13 0 0 9.3746e-16 4.01073e-13 1.51355e-13 2.56801e-13 0 0 -2.50941e-14 5.27727e-13 -1.32506e-14 3.32584e-13 0 0 6.51638e-15 5.04933e-13 -2.27116e-14 3.99971e-13 0 0 1.07452e-13 3.52565e-13 7.06128e-14 3.5713e-13 0 0 1.58539e-13 1.53337e-13 3.10147e-13 2.62851e-13 0 0 1.68229e-13 1.21454e-13 3.00923e-13 3.12908e-13 0 0 1.71749e-13 8.95512e-14 3.00861e-13 4.10134e-13 0 0 1.65553e-13 3.62202e-15 3.74226e-13 3.50454e-13 0 0 1.42804e-13 2.74294e-14 3.58779e-13 3.46914e-13 0 0 1.31934e-13 1.26681e-13 2.86589e-13 3.52065e-13 0 0 1.2706e-13 2.39389e-13 1.87605e-13 3.43068e-13 0 0 1.29867e-13 2.33676e-13 2.09324e-13 2.9607e-13 0 0 1.41395e-13 2.51418e-13 2.08764e-13 1.6961e-13 0 0 1.42704e-13 2.54211e-13 2.21644e-13 1.43599e-13 0 0 1.55902e-13 1.969e-13 2.80679e-13 5.25691e-14 0 0 1.38975e-13 2.41446e-13 1.94712e-13 7.56378e-14 0 0 9.99117e-14 2.72496e-13 1.45683e-13 2.38502e-13 0 0 9.86264e-14 2.09966e-13 2.73779e-13 2.31998e-13 0 0 1.04575e-13 2.33269e-13 2.91018e-13 1.93414e-13 0 0 5.82397e-14 3.26592e-13 2.2651e-13 3.32757e-13 0 0 4.83881e-14 3.42882e-13 3.43448e-13 3.16162e-13 0 0 9.71575e-14 3.10917e-13 5.3697e-13 9.31468e-14 0 0 1.39526e-13 3.94319e-13 4.12632e-13 1.92271e-13 0 0 2.23717e-13 4.07613e-13 3.63901e-13 3.10926e-13 0 0 2.12097e-13 5.43445e-13 2.47451e-13 3.67673e-13 0 0 2.93571e-13 4.7243e-13 3.91204e-13 2.50687e-13 0 0 3.09315e-13 4.76774e-13 4.33693e-13 1.48551e-13 0 0 3.60931e-13 4.11853e-13 4.63649e-13 1.21419e-13 0 0 4.35208e-13 2.97956e-13 5.76039e-13 2.6157e-14 0 0 2.79958e-13 5.49838e-13 2.9872e-13 1.59419e-13 0 0 2.68751e-13 5.86196e-13 2.25643e-13 2.15374e-13 0 0 4.22244e-13 3.63891e-13 4.20749e-13 1.19246e-13 0 0 4.46292e-13 3.16511e-13 4.35305e-13 1.49302e-13 0 0 3.73297e-13 3.95264e-13 3.6509e-13 2.00241e-13 0 0 2.19398e-13 6.51945e-13 7.27326e-14 3.77528e-13 0 0 2.12328e-13 6.99375e-13 -4.93167e-14 5.05658e-13 0 0 4.16388e-13 3.06976e-13 3.80908e-13 2.62391e-13 0 0 3.08441e-13 3.71013e-13 3.97297e-13 2.17485e-13 0 0 1.30412e-13 6.04399e-13 2.43969e-13 3.06649e-13 0 0 1.54613e-13 6.04732e-13 2.91159e-13 2.54397e-13 0 0 3.13546e-13 4.23024e-13 4.8832e-13 1.95158e-13 0 0 4.61193e-13 2.8532e-13 6.83778e-13 1.61465e-13 0 0 3.84607e-13 4.66031e-13 6.52195e-13 1.21003e-13 0 0 2.56777e-13 6.93121e-13 5.12824e-13 1.89335e-13 0 0 1.77682e-13 9.11611e-13 2.66132e-13 3.37666e-13 0 0 3.035e-13 8.1147e-13 3.89105e-13 2.20138e-13 0 0 5.70519e-13 4.99003e-13 5.88361e-13 1.48146e-13 0 0 6.99307e-13 3.78682e-13 5.7068e-13 3.44367e-13 0 0 4.03086e-13 8.14923e-13 2.15544e-13 6.43914e-13 0 0 1.23147e-13 1.22758e-12 -1.23878e-13 6.84619e-13 0 0 3.56025e-13 8.90832e-13 2.98466e-13 1.93517e-13 0 0 6.28032e-13 5.15875e-13 6.30657e-13 5.17334e-14 0 0 7.12873e-13 3.55257e-13 6.16343e-13 2.66103e-13 0 0 6.78948e-13 3.13559e-13 6.47895e-13 2.96404e-13 0 0 4.77111e-13 5.47096e-13 4.10984e-13 4.59296e-13 0 0 3.59023e-13 6.54236e-13 4.01923e-13 3.50704e-13 0 0 3.37132e-13 7.29103e-13 3.7557e-13 3.14485e-13 0 0 4.62786e-13 5.88572e-13 3.626e-13 4.42087e-13 0 0 5.42491e-13 4.05313e-13 5.08031e-13 4.46973e-13 0 0 2.72332e-13 7.86902e-13 2.23257e-13 6.42476e-13 0 0 1.64603e-13 8.9773e-13 2.35701e-13 6.30258e-13 0 0 3.16161e-13 5.70111e-13 6.35558e-13 4.33492e-13 0 0 2.86787e-13 5.86569e-13 6.14162e-13 5.30152e-13 0 0 2.18671e-13 7.48597e-13 5.23203e-13 4.07477e-13 0 0 1.63623e-13 7.81149e-13 6.10539e-13 1.35599e-13 0 0 1.4296e-13 6.53926e-13 8.61425e-13 -8.73414e-14 0 0 1.8381e-13 5.97975e-13 8.22892e-13 1.26752e-14 0 0 2.98617e-13 4.0169e-13 8.43542e-13 1.52032e-13 0 0 5.55294e-13 5.13793e-15 1.08402e-12 6.37825e-14 0 0 4.04694e-13 2.72424e-13 7.75588e-13 2.15134e-13 0 0 3.19336e-13 6.44268e-13 3.03736e-13 4.39658e-13 0 0 3.98016e-13 7.60207e-13 2.35079e-14 5.69968e-13 0 0 4.27459e-13 7.85329e-13 -1.65645e-13 7.95814e-13 0 0 5.41132e-13 6.58972e-13 -2.10561e-13 9.2304e-13 0 0 5.78221e-13 5.29856e-13 8.82623e-14 5.72154e-13 0 0 6.33641e-13 4.97481e-13 1.91586e-13 4.53059e-13 0 0 4.67625e-13 7.68648e-13 -1.09631e-13 7.43963e-13 0 0 4.18701e-13 5.84703e-13 3.23402e-13 4.69837e-13 0 0 7.41116e-13 -1.16481e-14 9.664e-13 1.21209e-13 0 0 5.17406e-13 5.27857e-13 2.71244e-13 5.51037e-13 0 0 1.3714e-15 1.4775e-12 -6.55205e-13 9.67224e-13 0 0 5.33507e-13 6.6768e-13 1.81169e-13 5.21511e-13 0 0 1.04942e-12 -1.78828e-13 1.02492e-12 1.86688e-13 0 0 5.99086e-13 4.13872e-13 6.13019e-13 4.09626e-13 0 0 -1.16924e-14 1.15989e-12 -1.3078e-13 8.82019e-13 0 0 3.71835e-14 9.74157e-13 -5.49882e-14 8.71957e-13 0 0 8.21849e-13 -1.86993e-13 1.066e-12 1.74791e-13 0 0 1.27573e-12 -8.14439e-13 1.55552e-12 -5.215e-14 0
				</DataArray>
				<DataArray Name="VitesseY" type="Float32" format="ascii">