<?xml version="1.0"?>
<VTKFile type="PolyData">
	<PolyData>
		<Piece NumberOfPoints="1206" NumberOfPolys="1000">
			<Points>
				<DataArray type="Float32" NumberOfComponents="3" format="ascii">
 0 0 0 0.02 0 0 0.04 0 0 0.06 0 0 0.08 0 0 0.1 0 0 0 0.005 0 0.02 0.005 0 0.04 0.005 0 0.06 0.005 0 0.08 0.005 0 0.1 0.005 0 0 0.01 0 0.02 0.01 0 0.04 0.01 0 0.06 0.01 0 0.08 0.01 0 0.1 0.01 0 0 0.015 0 0.02 0.015 0 0.04 0.015 0 0.06 0.015 0 0.08 0.015 0 0.1 0.015 0 0 0.02 0 0.02 0.02 0 0.04 0.02 0 0.06 0.02 0 0.08 0.02 0 0.1 0.02 0 0 0.025 0 0.02 0.025 0 0.04 0.025 0 0.06 0.025 0 0.08 0.025 0 0.1 0.025 0 0 0.03 0 0.02 0.03 0 0.04 0.03 0 0.06 0.03 0 0.08 0.03 0 0.1 0.03 0 0 0.035 0 0.02 0.035 0 0.04 0.035 0 0.06 0.035 0 0.08 0.035 0 0.1 0.035 0 0 0.04 0 0.02 0.04 0 0.04 0.04 0 0.06 0.04 0 0.08 0.04 0 0.1 0.04 0 0 0.045 0 0.02 0.045 0 0.04 0.045 0 0.06 0.045 0 0.08 0.045 0 0.1 0.045 0 0 0.05 0 0.02 0.05 0 0.04 0.05 0 0.06 0.05 0 0.08 0.05 0 0.1 0.05 0 0 0.055 0 0.02 0.055 0 0.04 0.055 0 0.06 0.055 0 0.08 0.055 0 0.1 0.055 0 0 0.06 0 0.02 0.06 0 0.04 0.06 0 0.06 0.06 0 0.08 0.06 0 0.1 0.06 0 0 0.065 0 0.02 0.065 0 0.04 0.065 0 0.06 0.065 0 0.08 0.065 0 0.1 0.065 0 0 0.07 0 0.02 0.07 0 0.04 0.07 0 0.06 0.07 0 0.08 0.07 0 0.1 0.07 0 0 0.075 0 0.02 0.075 0 0.04 0.075 0 0.06 0.075 0 0.08 0.075 0 0.1 0.075 0 0 0.08 0 0.02 0.08 0 0.04 0.08 0 0.06 0.08 0 0.08 0.08 0 0.1 0.08 0 0 0.085 0 0.02 0.085 0 0.04 0.085 0 0.06 0.085 0 0.08 0.085 0 0.1 0.085 0 0 0.09 0 0.02 0.09 0 0.04 0.09 0 0.06 0.09 0 0.08 0.09 0 0.1 0.09 0 0 0.095 0 0.02 0.095 0 0.04 0.095 0 0.06 0.095 0 0.08 0.095 0 0.1 0.095 0 0 0.1 0 0.02 0.1 0 0.04 0.1 0 0.06 0.1 0 0.08 0.1 0 0.1 0.1 0 0 0.105 0 0.02 0.105 0 0.04 0.105 0 0.06 0.105 0 0.08 0.105 0 0.1 0.105 0 0 0.11 0 0.02 0.11 0 0.04 0.11 0 0.06 0.11 0 0.08 0.11 0 0.1 0.11 0 0 0.115 0 0.02 0.115 0 0.04 0.115 0 0.06 0.115 0 0.08 0.115 0 0.1 0.115 0 0 0.12 0 0.02 0.12 0 0.04 0.12 0 0.06 0.12 0 0.08 0.12 0 0.1 0.12 0 0 0.125 0 0.02 0.125 0 0.04 0.125 0 0.06 0.125 0 0.08 0.125 0 0.1 0.125 0 0 0.13 0 0.02 0.13 0 0.04 0.13 0 0.06 0.13 0 0.08 0.13 0 0.1 0.13 0 0 0.135 0 0.02 0.135 0 0.04 0.135 0 0.06 0.135 0 0.08 0.135 0 0.1 0.135 0 0 0.14 0 0.02 0.14 0 0.04 0.14 0 0.06 0.14 0 0.08 0.14 0 0.1 0.14 0 0 0.145 0 0.02 0.145 0 0.04 0.145 0 0.06 0.145 0 0.08 0.145 0 0.1 0.145 0 0 0.15 0 0.02 0.15 0 0.04 0.15 0 0.06 0.15 0 0.08 0.15 0 0.1 0.15 0 0 0.155 0 0.02 0.155 0 0.04 0.155 0 0.06 0.155 0 0.08 0.155 0 0.1 0.155 0 0 0.16 0 0.02 0.16 0 0.04 0.16 0 0.06 0.16 0 0.08 0.16 0 0.1 0.16 0 0 0.165 0 0.02 0.165 0 0.04 0.165 0 0.06 0.165 0 0.08 0.165 0 0.1 0.165 0 0 0.17 0 0.02 0.17 0 0.04 0.17 0 0.06 0.17 0 0.08 0.17 0 0.1 0.17 0 0 0.175 0 0.02 0.175 0 0.04 0.175 0 0.06 0.175 0 0.08 0.175 0 0.1 0.175 0 0 0.18 0 0.02 0.18 0 0.04 0.18 0 0.06 0.18 0 0.08 0.18 0 0.1 0.18 0 0 0.185 0 0.02 0.185 0 0.04 0.185 0 0.06 0.185 0 0.08 0.185 0 0.1 0.185 0 0 0.19 0 0.02 0.19 0 0.04 0.19 0 0.06 0.19 0 0.08 0.19 0 0.1 0.19 0 0 0.195 0 0.02 0.195 0 0.04 0.195 0 0.06 0.195 0 0.08 0.195 0 0.1 0.195 0 0 0.2 0 0.02 0.2 0 0.04 0.2 0 0.06 0.2 0 0.08 0.2 0 0.1 0.2 0 0 0.205 0 0.02 0.205 0 0.04 0.205 0 0.06 0.205 0 0.08 0.205 0 0.1 0.205 0 0 0.21 0 0.02 0.21 0 0.04 0.21 0 0.06 0.21 0 0.08 0.21 0 0.1 0.21 0 0 0.215 0 0.02 0.215 0 0.04 0.215 0 0.06 0.215 0 0.08 0.215 0 0.1 0.215 0 0 0.22 0 0.02 0.22 0 0.04 0.22 0 0.06 0.22 0 0.08 0.22 0 0.1 0.22 0 0 0.225 0 0.02 0.225 0 0.04 0.225 0 0.06 0.225 0 0.08 0.225 0 0.1 0.225 0 0 0.23 0 0.02 0.23 0 0.04 0.23 0 0.06 0.23 0 0.08 0.23 0 0.1 0.23 0 0 0.235 0 0.02 0.235 0 0.04 0.235 0 0.06 0.235 0 0.08 0.235 0 0.1 0.235 0 0 0.24 0 0.02 0.24 0 0.04 0.24 0 0.06 0.24 0 0.08 0.24 0 0.1 0.24 0 0 0.245 0 0.02 0.245 0 0.04 0.245 0 0.06 0.245 0 0.08 0.245 0 0.1 0.245 0 0 0.25 0 0.02 0.25 0 0.04 0.25 0 0.06 0.25 0 0.08 0.25 0 0.1 0.25 0 0 0.255 0 0.02 0.255 0 0.04 0.255 0 0.06 0.255 0 0.08 0.255 0 0.1 0.255 0 0 0.26 0 0.02 0.26 0 0.04 0.26 0 0.06 0.26 0 0.08 0.26 0 0.1 0.26 0 0 0.265 0 0.02 0.265 0 0.04 0.265 0 0.06 0.265 0 0.08 0.265 0 0.1 0.265 0 0 0.27 0 0.02 0.27 0 0.04 0.27 0 0.06 0.27 0 0.08 0.27 0 0.1 0.27 0 0 0.275 0 0.02 0.275 0 0.04 0.275 0 0.06 0.275 0 0.08 0.275 0 0.1 0.275 0 0 0.28 0 0.02 0.28 0 0.04 0.28 0 0.06 0.28 0 0.08 0.28 0 0.1 0.28 0 0 0.285 0 0.02 0.285 0 0.04 0.285 0 0.06 0.285 0 0.08 0.285 0 0.1 0.285 0 0 0.29 0 0.02 0.29 0 0.04 0.29 0 0.06 0.29 0 0.08 0.29 0 0.1 0.29 0 0 0.295 0 0.02 0.295 0 0.04 0.295 0 0.06 0.295 0 0.08 0.295 0 0.1 0.295 0 0 0.3 0 0.02 0.3 0 0.04 0.3 0 0.06 0.3 0 0.08 0.3 0 0.1 0.3 0 0 0.305 0 0.02 0.305 0 0.04 0.305 0 0.06 0.305 0 0.08 0.305 0 0.1 0.305 0 0 0.31 0 0.02 0.31 0 0.04 0.31 0 0.06 0.31 0 0.08 0.31 0 0.1 0.31 0 0 0.315 0 0.02 0.315 0 0.04 0.315 0 0.06 0.315 0 0.08 0.315 0 0.1 0.315 0 0 0.32 0 0.02 0.32 0 0.04 0.32 0 0.06 0.32 0 0.08 0.32 0 0.1 0.32 0 0 0.325 0 0.02 0.325 0 0.04 0.325 0 0.06 0.325 0 0.08 0.325 0 0.1 0.325 0 0 0.33 0 0.02 0.33 0 0.04 0.33 0 0.06 0.33 0 0.08 0.33 0 0.1 0.33 0 0 0.335 0 0.02 0.335 0 0.04 0.335 0 0.06 0.335 0 0.08 0.335 0 0.1 0.335 0 0 0.34 0 0.02 0.34 0 0.04 0.34 0 0.06 0.34 0 0.08 0.34 0 0.1 0.34 0 0 0.345 0 0.02 0.345 0 0.04 0.345 0 0.06 0.345 0 0.08 0.345 0 0.1 0.345 0 0 0.35 0 0.02 0.35 0 0.04 0.35 0 0.06 0.35 0 0.08 0.35 0 0.1 0.35 0 0 0.355 0 0.02 0.355 0 0.04 0.355 0 0.06 0.355 0 0.08 0.355 0 0.1 0.355 0 0 0.36 0 0.02 0.36 0 0.04 0.36 0 0.06 0.36 0 0.08 0.36 0 0.1 0.36 0 0 0.365 0 0.02 0.365 0 0.04 0.365 0 0.06 0.365 0 0.08 0.365 0 0.1 0.365 0 0 0.37 0 0.02 0.37 0 0.04 0.37 0 0.06 0.37 0 0.08 0.37 0 0.1 0.37 0 0 0.375 0 0.02 0.375 0 0.04 0.375 0 0.06 0.375 0 0.08 0.375 0 0.1 0.375 0 0 0.38 0 0.02 0.38 0 0.04 0.38 0 0.06 0.38 0 0.08 0.38 0 0.1 0.38 0 0 0.385 0 0.02 0.385 0 0.04 0.385 0 0.06 0.385 0 0.08 0.385 0 0.1 0.385 0 0 0.39 0 0.02 0.39 0 0.04 0.39 0 0.06 0.39 0 0.08 0.39 0 0.1 0.39 0 0 0.395 0 0.02 0.395 0 0.04 0.395 0 0.06 0.395 0 0.08 0.395 0 0.1 0.395 0 0 0.4 0 0.02 0.4 0 0.04 0.4 0 0.06 0.4 0 0.08 0.4 0 0.1 0.4 0 0 0.405 0 0.02 0.405 0 0.04 0.405 0 0.06 0.405 0 0.08 0.405 0 0.1 0.405 0 0 0.41 0 0.02 0.41 0 0.04 0.41 0 0.06 0.41 0 0.08 0.41 0 0.1 0.41 0 0 0.415 0 0.02 0.415 0 0.04 0.415 0 0.06 0.415 0 0.08 0.415 0 0.1 0.415 0 0 0.42 0 0.02 0.42 0 0.04 0.42 0 0.06 0.42 0 0.08 0.42 0 0.1 0.42 0 0 0.425 0 0.02 0.425 0 0.04 0.425 0 0.06 0.425 0 0.08 0.425 0 0.1 0.425 0 0 0.43 0 0.02 0.43 0 0.04 0.43 0 0.06 0.43 0 0.08 0.43 0 0.1 0.43 0 0 0.435 0 0.02 0.435 0 0.04 0.435 0 0.06 0.435 0 0.08 0.435 0 0.1 0.435 0 0 0.44 0 0.02 0.44 0 0.04 0.44 0 0.06 0.44 0 0.08 0.44 0 0.1 0.44 0 0 0.445 0 0.02 0.445 0 0.04 0.445 0 0.06 0.445 0 0.08 0.445 0 0.1 0.445 0 0 0.45 0 0.02 0.45 0 0.04 0.45 0 0.06 0.45 0 0.08 0.45 0 0.1 0.45 0 0 0.455 0 0.02 0.455 0 0.04 0.455 0 0.06 0.455 0 0.08 0.455 0 0.1 0.455 0 0 0.46 0 0.02 0.46 0 0.04 0.46 0 0.06 0.46 0 0.08 0.46 0 0.1 0.46 0 0 0.465 0 0.02 0.465 0 0.04 0.465 0 0.06 0.465 0 0.08 0.465 0 0.1 0.465 0 0 0.47 0 0.02 0.47 0 0.04 0.47 0 0.06 0.47 0 0.08 0.47 0 0.1 0.47 0 0 0.475 0 0.02 0.475 0 0.04 0.475 0 0.06 0.475 0 0.08 0.475 0 0.1 0.475 0 0 0.48 0 0.02 0.48 0 0.04 0.48 0 0.06 0.48 0 0.08 0.48 0 0.1 0.48 0 0 0.485 0 0.02 0.485 0 0.04 0.485 0 0.06 0.485 0 0.08 0.485 0 0.1 0.485 0 0 0.49 0 0.02 0.49 0 0.04 0.49 0 0.06 0.49 0 0.08 0.49 0 0.1 0.49 0 0 0.495 0 0.02 0.495 0 0.04 0.495 0 0.06 0.495 0 0.08 0.495 0 0.1 0.495 0 0 0.5 0 0.02 0.5 0 0.04 0.5 0 0.06 0.5 0 0.08 0.5 0 0.1 0.5 0 0 0.505 0 0.02 0.505 0 0.04 0.505 0 0.06 0.505 0 0.08 0.505 0 0.1 0.505 0 0 0.51 0 0.02 0.51 0 0.04 0.51 0 0.06 0.51 0 0.08 0.51 0 0.1 0.51 0 0 0.515 0 0.02 0.515 0 0.04 0.515 0 0.06 0.515 0 0.08 0.515 0 0.1 0.515 0 0 0.52 0 0.02 0.52 0 0.04 0.52 0 0.06 0.52 0 0.08 0.52 0 0.1 0.52 0 0 0.525 0 0.02 0.525 0 0.04 0.525 0 0.06 0.525 0 0.08 0.525 0 0.1 0.525 0 0 0.53 0 0.02 0.53 0 0.04 0.53 0 0.06 0.53 0 0.08 0.53 0 0.1 0.53 0 0 0.535 0 0.02 0.535 0 0.04 0.535 0 0.06 0.535 0 0.08 0.535 0 0.1 0.535 0 0 0.54 0 0.02 0.54 0 0.04 0.54 0 0.06 0.54 0 0.08 0.54 0 0.1 0.54 0 0 0.545 0 0.02 0.545 0 0.04 0.545 0 0.06 0.545 0 0.08 0.545 0 0.1 0.545 0 0 0.55 0 0.02 0.55 0 0.04 0.55 0 0.06 0.55 0 0.08 0.55 0 0.1 0.55 0 0 0.555 0 0.02 0.555 0 0.04 0.555 0 0.06 0.555 0 0.08 0.555 0 0.1 0.555 0 0 0.56 0 0.02 0.56 0 0.04 0.56 0 0.06 0.56 0 0.08 0.56 0 0.1 0.56 0 0 0.565 0 0.02 0.565 0 0.04 0.565 0 0.06 0.565 0 0.08 0.565 0 0.1 0.565 0 0 0.57 0 0.02 0.57 0 0.04 0.57 0 0.06 0.57 0 0.08 0.57 0 0.1 0.57 0 0 0.575 0 0.02 0.575 0 0.04 0.575 0 0.06 0.575 0 0.08 0.575 0 0.1 0.575 0 0 0.58 0 0.02 0.58 0 0.04 0.58 0 0.06 0.58 0 0.08 0.58 0 0.1 0.58 0 0 0.585 0 0.02 0.585 0 0.04 0.585 0 0.06 0.585 0 0.08 0.585 0 0.1 0.585 0 0 0.59 0 0.02 0.59 0 0.04 0.59 0 0.06 0.59 0 0.08 0.59 0 0.1 0.59 0 0 0.595 0 0.02 0.595 0 0.04 0.595 0 0.06 0.595 0 0.08 0.595 0 0.1 0.595 0 0 0.6 0 0.02 0.6 0 0.04 0.6 0 0.06 0.6 0 0.08 0.6 0 0.1 0.6 0 0 0.605 0 0.02 0.605 0 0.04 0.605 0 0.06 0.605 0 0.08 0.605 0 0.1 0.605 0 0 0.61 0 0.02 0.61 0 0.04 0.61 0 0.06 0.61 0 0.08 0.61 0 0.1 0.61 0 0 0.615 0 0.02 0.615 0 0.04 0.615 0 0.06 0.615 0 0.08 0.615 0 0.1 0.615 0 0 0.62 0 0.02 0.62 0 0.04 0.62 0 0.06 0.62 0 0.08 0.62 0 0.1 0.62 0 0 0.625 0 0.02 0.625 0 0.04 0.625 0 0.06 0.625 0 0.08 0.625 0 0.1 0.625 0 0 0.63 0 0.02 0.63 0 0.04 0.63 0 0.06 0.63 0 0.08 0.63 0 0.1 0.63 0 0 0.635 0 0.02 0.635 0 0.04 0.635 0 0.06 0.635 0 0.08 0.635 0 0.1 0.635 0 0 0.64 0 0.02 0.64 0 0.04 0.64 0 0.06 0.64 0 0.08 0.64 0 0.1 0.64 0 0 0.645 0 0.02 0.645 0 0.04 0.645 0 0.06 0.645 0 0.08 0.645 0 0.1 0.645 0 0 0.65 0 0.02 0.65 0 0.04 0.65 0 0.06 0.65 0 0.08 0.65 0 0.1 0.65 0 0 0.655 0 0.02 0.655 0 0.04 0.655 0 0.06 0.655 0 0.08 0.655 0 0.1 0.655 0 0 0.66 0 0.02 0.66 0 0.04 0.66 0 0.06 0.66 0 0.08 0.66 0 0.1 0.66 0 0 0.665 0 0.02 0.665 0 0.04 0.665 0 0.06 0.665 0 0.08 0.665 0 0.1 0.665 0 0 0.67 0 0.02 0.67 0 0.04 0.67 0 0.06 0.67 0 0.08 0.67 0 0.1 0.67 0 0 0.675 0 0.02 0.675 0 0.04 0.675 0 0.06 0.675 0 0.08 0.675 0 0.1 0.675 0 0 0.68 0 0.02 0.68 0 0.04 0.68 0 0.06 0.68 0 0.08 0.68 0 0.1 0.68 0 0 0.685 0 0.02 0.685 0 0.04 0.685 0 0.06 0.685 0 0.08 0.685 0 0.1 0.685 0 0 0.69 0 0.02 0.69 0 0.04 0.69 0 0.06 0.69 0 0.08 0.69 0 0.1 
[...]
			<PointData Scalars="VitesseX">
				<DataArray Name="VitesseX" type="Float32" format="ascii">
 0 -2.73911e-14 4.77148e-15 1.01093e-14 -2.41177e-14 0 0 -1.94565e-14 -7.51364e-15 2.08659e-14 -3.15566e-14 0 0 -1.90441e-14 -9.74961e-16 7.09774e-15 -2.46484e-14 0 0 -7.76697e-15 -6.59989e-15 -4.8567e-15 -1.0742e-14 0 0 1.59071e-14 -4.09991e-14 1.45688e-14 -6.99938e-15 0 0 7.72002e-15 -3.15545e-14 8.57167e-15 1.09457e-14 0 0 -3.25155e-14 2.37059e-14 -1.89656e-14 3.30702e-14 0 0 -5.68296e-14 5.27423e-14 -1.29287e-14 2.71273e-14 0 0 -3.465e-14 2.82797e-14 1.65006e-14 1.59178e-14 0 0 9.1181e-15 -2.44477e-14 6.29905e-14 -7.96633e-15 0 0 3.79952e-14 -5.86598e-14 9.35073e-14 -2.78053e-14 0 0 9.2862e-15 4.39046e-15 2.15848e-14 1.45132e-14 0 0 2.10139e-15 2.56109e-14 6.05903e-16 2.35006e-14 0 0 1.12023e-14 -1.63175e-15 2.43358e-14 1.19876e-14 0 0 2.43533e-14 -3.54998e-14 3.52758e-14 3.40244e-15 0 0 3.46692e-14 -4.73667e-14 2.83623e-14 -8.81553e-15 0 0 5.35448e-15 -1.12174e-15 -1.69418e-14 -4.24205e-15 0 0 4.89783e-14 -6.85947e-14 3.84359e-14 -3.03627e-14 0 0 8.01822e-14 -1.03429e-13 4.90939e-14 -7.81136e-15 0 0 1.11484e-14 -1.37235e-14 -1.71186e-15 7.25689e-15 0 0 -5.56162e-14 6.10747e-14 -1.39799e-14 -3.88107e-14 0 0 -4.5276e-14 5.02145e-14 -2.16107e-14 -4.73684e-14 0 0 1.32701e-14 -5.38178e-14 3.74523e-14 -4.92488e-14 0 0 -7.1371e-15 -4.04009e-14 6.4708e-15 -1.41147e-14 0 0 -7.94748e-14 2.77731e-14 -3.09812e-14 -3.24356e-15 0 0 -1.0851e-13 2.73639e-14 -8.62353e-15 -2.01578e-14 0 0 -6.86595e-14 -2.95625e-14 6.45949e-15 -4.0896e-15 0 0 -1.31022e-14 -1.00948e-13 3.72442e-14 9.12148e-15 0 0 -6.29279e-14 -1.83915e-14 -5.82436e-14 7.38946e-14 0 0 -9.21767e-14 2.98337e-14 -5.96246e-14 2.87067e-14 0 0 -1.22065e-13 9.35737e-14 -7.48232e-14 -6.71978e-15 0 0 -7.78016e-14 3.52405e-14 -2.62043e-14 -1.96359e-14 0 0 1.16499e-14 -1.00546e-13 1.08401e-13 -6.74639e-14 0 0 -8.74886e-15 -6.62348e-14 1.16707e-13 -8.2313e-14 0 0 -1.01336e-13 8.24129e-14 -1.08016e-14 -1.9136e-14 0 0 -1.50927e-13 1.66619e-13 -1.03051e-13 5.29521e-15 0 0 -2.50558e-14 2.88335e-15 1.32546e-14 -6.58452e-14 0 0 3.00834e-14 -9.43858e-14 8.31462e-14 -5.40489e-14 0 0 4.31474e-14 -1.59118e-13 1.77187e-13 -1.17257e-13 0 0 -4.65888e-14 -4.23251e-14 1.09803e-13 -1.33295e-13 0 0 -1.24483e-13 1.02425e-13 -5.02084e-14 -5.564e-14 0 0 -3.34581e-14 -2.11505e-14 4.08207e-14 -1.00334e-13 0 0 -7.61289e-14 -1.0631e-14 4.71968e-14 -8.92504e-14 0 0 -2.36844e-13 2.00462e-13 -1.59014e-13 3.84529e-14 0 0 -2.70219e-13 2.20828e-13 -1.64702e-13 3.18656e-14 0 0 -1.70191e-13 5.94721e-14 -1.18195e-14 -8.60011e-14 0 0 3.81121e-14 -1.99904e-13 1.64893e-13 -1.97353e-13 0 0 5.90029e-14 -1.59511e-13 7.09667e-14 -1.39219e-13 0 0 -1.1033e-13 1.03373e-13 -7.24286e-14 -1.64662e-13 0 0 -2.78803e-13 3.37216e-13 -1.38128e-13 -2.42191e-13 0 0 -3.78264e-13 5.44945e-13 -3.31531e-13 -1.06298e-13 0 0 -1.10939e-13 2.53541e-13 -2.03617e-13 -9.05486e-14 0 0 1.17316e-13 -3.58543e-14 -3.80849e-15 -2.28892e-13 0 0 1.1357e-13 -6.86517e-14 1.13476e-13 -3.93901e-13 0 0 -1.05239e-13 1.1824e-13 2.56036e-14 -3.8277e-13 0 0 -3.08924e-13 3.09148e-13 -1.47463e-13 -2.73457e-13 0 0 -7.3704e-14 1.19979e-14 5.27114e-14 -3.67817e-13 0 0 -3.69592e-14 9.60918e-14 -1.55763e-13 -2.21147e-13 0 0 -6.58452e-14 1.93223e-13 -3.51126e-13 -7.15584e-14 0 0 -6.31697e-14 7.86308e-14 -1.99017e-13 -1.4184e-13 0 0 -1.27394e-13 1.98374e-14 -1.83114e-14 -3.06511e-13 0 0 -1.26615e-14 -1.91071e-13 1.0804e-13 -3.69692e-13 0 0 -5.62134e-14 -1.50903e-14 -1.8758e-13 -1.66558e-13 0 0 -1.06817e-13 1.29361e-13 -3.31256e-13 -9.28822e-14 0 0 -8.60705e-14 5.97744e-14 -2.54871e-13 -7.01135e-14 0 0 -6.25359e-14 -4.56029e-14 -9.33902e-14 -1.22847e-13 0 0 4.47562e-14 -2.39598e-13 1.96554e-13 -2.57463e-13 0 0 -1.21768e-13 3.89085e-14 6.74852e-14 -1.88518e-13 0 0 -2.56225e-13 3.48497e-13 -2.95897e-13 9.70441e-14 0 0 -5.6278e-14 1.05355e-13 -1.5109e-13 1.1643e-13 0 0 -8.82369e-15 1.48248e-14 2.16919e-14 -1.68181e-14 0 0 -4.04956e-14 7.52201e-14 7.21443e-14 -1.84693e-13 0 0 -1.88206e-13 3.24886e-13 -6.59287e-14 -3.07507e-13 0 0 -1.35311e-13 3.10567e-13 -9.36688e-14 -3.93688e-13 0 0 3.26207e-14 1.12622e-13 3.53996e-16 -3.7259e-13 0 0 1.31549e-13 -4.45637e-14 7.46135e-14 -2.72391e-13 0 0 6.72885e-14 1.12147e-14 6.97569e-14 -2.20616e-13 0 0 -1.84028e-13 4.25231e-13 -2.59342e-13 9.47101e-15 0 0 -4.89771e-14 3.55467e-13 -2.19036e-13 1.04228e-13 0 0 2.99702e-14 2.58895e-13 -9.26779e-14 1.0623e-13 0 0 6.38153e-14 1.90597e-13 -1.0851e-13 1.69615e-13 0 0 2.44992e-13 -1.76961e-13 1.59119e-13 4.9694e-14 0 0 3.12239e-14 -1.60374e-13 3.52162e-13 -1.36818e-13 0 0 -9.48931e-14 -1.13884e-13 3.12267e-13 2.74833e-14 0 0 -7.09264e-14 -6.37322e-14 2.81639e-14 4.36088e-13 0 0 -1.01176e-13 -1.13808e-14 -4.78723e-14 4.22771e-13 0 0 3.27032e-13 -4.88657e-13 1.72231e-13 2.16193e-13 0 0 8.59302e-14 -3.60345e-13 5.46964e-15 3.24902e-13 0 0 -7.6743e-13 3.07333e-13 -2.03062e-13 3.03792e-13 0 0 -4.06357e-13 -8.49202e-15 -5.71428e-14 4.54449e-13 0 0 1.6008e-13 -5.47989e-13 1.45216e-13 6.01761e-13 0 0 2.00451e-13 -5.24009e-13 2.02382e-13 4.16736e-13 0 0 -1.31945e-13 -2.70715e-13 2.28907e-13 1.12534e-13 0 0 -9.32418e-13 5.48698e-13 2.3459e-14 -1.1651e-13 0 0 -7.12472e-13 4.42735e-13 1.14637e-13 -1.12612e-13 0 0 -1.32085e-14 -2.93682e-14 4.64987e-13 -2.23361e-13 0 0 -4.81223e-14 -1.30849e-13 3.26851e-13 -1.94457e-13 0 0 -1.6082e-14 -1.59238e-13 9.21445e-14 -8.44733e-14 0 0 6.82993e-14 -2.99034e-13 -1.31228e-13 1.32003e-13 0 0 4.61432e-15 -2.80843e-13 -2.62037e-13 1.93704e-13 0 0 -1.83947e-13 -1.13784e-13 -2.52674e-13 1.65893e-13 0 0 -3.14543e-13 9.39727e-14 -2.60048e-13 5.66561e-14 0 0 -3.13922e-13 2.68302e-13 -2.6061e-13 -8.42299e-14 0 0 -2.7866e-13 4.72869e-13 -3.4721e-13 -8.37942e-14 0 0 -2.63739e-13 6.78629e-13 -6.07025e-13 -8.62324e-14 0 0 -2.29046e-13 7.194e-13 -6.70355e-13 -1.28946e-13 0 0 -1.52283e-13 6.53695e-13 -6.4557e-13 -1.66819e-13 0 0 3.03054e-14 2.03058e-13 -3.85154e-13 -2.8087e-13 0 0 9.01533e-14 -3.33577e-13 -4.43921e-14 -4.38233e-13 0 0 2.46505e-14 -3.96103e-13 -5.71379e-14 -4.06255e-13 0 0 -1.05141e-13 -4.22881e-13 -1.77521e-13 -2.63899e-13 0 0 -1.76759e-13 -4.03042e-13 -2.06749e-13 -2.14485e-13 0 0 -2.13511e-13 -3.85557e-13 -2.10865e-13 -2.30468e-13 0 0 -2.16904e-13 -2.73837e-13 -2.67701e-13 -1.16003e-13 0 0 -1.86693e-13 -2.31207e-13 -2.51494e-13 -7.69969e-14 0 0 -2.46746e-14 -4.069e-13 1.90392e-14 -2.26308e-13 0 0 -8.76857e-14 -2.04026e-13 -1.90049e-13 -6.33533e-14 0 0 -3.06872e-13 2.331e-13 -5.37531e-13 1.46846e-13 0 0 -1.60334e-13 1.99747e-14 -2.21932e-13 -3.32195e-14 0 0 -3.73372e-14 -1.27467e-13 -5.14732e-14 -1.06454e-13 0 0 -1.47521e-14 -1.31332e-13 -1.24334e-14 -1.6724e-13 0 0 -1.39413e-13 9.98448e-14 -2.20414e-13 -6.61695e-14 0 0 -2.72608e-13 3.40688e-13 -4.56867e-13 6.54092e-14 0 0 2.57563e-14 -8.97613e-14 -4.8753e-14 -1.89621e-13 0 0 1.79835e-13 -2.70261e-13 7.45014e-14 -2.35956e-13 0 0 7.92268e-14 -1.27371e-13 -6.62857e-14 -1.60415e-13 0 0 -8.85996e-14 6.68539e-14 -1.98852e-13 -6.58686e-14 0 0 -2.72638e-13 2.79869e-13 -3.24638e-13 -6.82585e-15 0 0 -9.77292e-14 6.93018e-14 -2.07858e-13 -6.66446e-14 0 0 1.24862e-13 -1.62817e-13 -2.09086e-13 1.09063e-13 0 0 1.315e-13 -2.29966e-13 -1.75009e-13 1.24115e-13 0 0 -8.77988e-14 -1.02811e-14 -2.34215e-13 1.37374e-14 0 0 -2.90388e-13 2.18158e-13 -3.75482e-13 1.32085e-14 0 0 -7.96062e-14 -1.68557e-13 -6.52154e-14 -1.59073e-13 0 0 7.29256e-14 -3.73201e-13 -7.94238e-14 -4.6905e-14 0 0 1.06885e-14 -4.0956e-13 -9.69836e-14 5.85055e-15 0 0 -2.73193e-13 -1.4521e-13 -2.03043e-13 -7.52929e-14 0 0 -4.75662e-13 2.22474e-13 -5.62111e-13 4.15e-15 0 0 -2.4795e-13 -1.0204e-13 -2.36549e-13 -2.22854e-13 0 0 -2.46394e-13 -1.53259e-13 -1.70583e-13 -1.85968e-13 0 0 -3.60706e-13 -7.45247e-14 -1.79354e-13 -1.08835e-13 0 0 -1.80188e-13 -4.22622e-13 3.33949e-13 -3.91979e-13 0 0 -5.11097e-13 3.18535e-14 3.48044e-14 -1.91693e-13 0 0 -7.45284e-13 3.20825e-13 -1.43393e-13 -6.50001e-15 0 0 -2.21952e-13 -4.79386e-13 5.90566e-13 -2.34797e-13 0 0 6.34378e-14 -6.43078e-13 5.41475e-13 -8.50094e-14 0 0 -2.09253e-13 1.27276e-14 4.28366e-14 -3.26868e-14 0 0 -5.42176e-13 5.95172e-13 -3.0581e-13 -2.71831e-14 0 0 -3.86703e-13 3.66364e-13 -9.82827e-14 7.56081e-14 0 0 1.56597e-13 -7.08965e-13 1.02704e-12 -3.6523e-13 0 0 -2.1408e-14 -5.68564e-13 9.7104e-13 -3.99648e-13 0 0 -4.41221e-13 1.41486e-13 6.41873e-14 1.00511e-13 0 0 -4.25985e-13 2.0616e-13 -4.52019e-13 6.07108e-13 0 0 -3.51724e-13 4.66154e-14 -4.67191e-13 6.39911e-13 0 0 7.17565e-15 -5.30103e-13 -5.92093e-14 3.4693e-13 0 0 7.94954e-14 -6.01585e-13 -1.56236e-14 2.02082e-13 0 0 -4.13462e-13 2.1979e-14 -3.22973e-13 8.48773e-14 0 0 -7.83445e-13 3.76017e-13 -4.15022e-13 -1.03596e-13 0 0 -3.57329e-13 -3.37118e-13 9.61329e-14 -4.4512e-13 0 0 4.08405e-13 -1.35957e-12 6.21618e-13 -7.45529e-13 0 0 3.32581e-13 -1.32459e-12 4.83055e-13 -7.496e-13 0 0 -7.33716e-13 1.65454e-13 -7.81858e-13 -1.60817e-13 0 0 -1.18919e-12 8.66086e-13 -1.37403e-12 2.72078e-13 0 0 -3.9993e-13 -3.13913e-13 -3.07542e-13 3.54805e-15 0 0 3.70369e-13 -1.41889e-12 7.65588e-13 -5.16765e-13 0 0 2.02122e-13 -1.23628e-12 7.10027e-13 -5.22877e-13 0 0 -4.92596e-13 -2.23098e-13 -3.3056e-13 3.94441e-14 0 0 -6.61455e-13 2.19883e-13 -1.14544e-12 4.75664e-13 0 0 -2.93895e-13 -1.18222e-13 -1.23625e-12 6.09459e-13 0 0 -2.82709e-13 -1.79513e-13 -1.1991e-12 6.37109e-13 0 0 -3.90818e-13 -2.98919e-13 -6.79954e-13 1.98369e-13 0 0 -1.03908e-13 -7.7464e-13 -1.08106e-13 -2.72403e-13 0 0 -9.88835e-14 -6.87967e-13 -3.59663e-13 -2.48338e-13 0 0 -4.26955e-13 -2.53279e-13 -5.61969e-13 -4.37361e-13 0 0 -8.0833e-13 3.26639e-13 -9.36427e-13 -3.05741e-13 0 0 -5.60088e-13 -9.34382e-14 -6.29808e-13 -2.61654e-13 0 0 2.92196e-14 -1.00599e-12 7.05552e-14 -5.1357e-13 0 0 -2.42721e-14 -7.68821e-13 -2.72612e-13 -1.54053e-13 0 0 -4.32293e-13 -2.27504e-13 -5.65083e-13 4.32925e-14 0 0 -8.42792e-13 2.75682e-13 -7.69106e-13 1.56576e-14 0 0 -6.11189e-13 -8.60141e-15 -5.01019e-13 -1.3734e-13 0 0 -8.77856e-15 -8.74668e-13 1.52246e-13 -4.88619e-13 0 0 -2.43067e-14 -8.3056e-13 -6.06484e-14 -4.64056e-13 0 0 -4.40917e-13 -3.78987e-13 -2.06799e-13 -5.87919e-13 0 0 -7.91821e-13 1.06913e-13 -4.17038e-13 -6.14706e-13 0 0 -4.93717e-13 -1.93441e-13 -3.10054e-13 -5.93325e-13 0 0 1.37752e-13 -1.05164e-12 3.08322e-13 -8.31549e-13 0 0 3.45798e-14 -8.75474e-13 -4.6982e-15 -4.69094e-13 0 0 -7.84193e-13 -1.0131e-13 -2.6811e-13 -3.03308e-13 0 0 -1.38446e-12 7.21624e-13 -7.5857e-13 -1.4347e-13 0 0 -6.25167e-13 -7.87874e-14 -3.03814e-13 -4.34444e-13 0 0 4.80008e-15 -1.0173e-12 6.47906e-13 -1.19584e-12 0 0 -9.40663e-13 3.51369e-13 -3.97549e-13 -7.48986e-13 0 0 -1.52242e-12 1.01445e-12 -7.38711e-13 -4.96853e-13 0 0 -5.44539e-13 -4.80869e-13 6.48627e-13 -1.17138e-12 0 0 4.57353e-13 -1.6133e-12 1.31995e-12 -1.42819e-12 0 0 1.82647e-14 -7.63998e-13 5.39326e-13 -1.10015e-12 0 0 -1.25631e-12 1.07542e-12 -8.69905e-13 -5.70207e-13 0 0 -1.24414e-12 1.01569e-12 -7.40041e-13 -9.04327e-13 0 0 3.53905e-14 -8.03077e-13 6.97104e-13 -1.76873e-12 0 0 6.71144e-13 -1.65406e-12 1.26389e-12 -1.99118e-12 0
				</DataArray>
				<DataArray Name="VitesseY" type="Float32" format="ascii">