<?xml version="1.0"?>
<VTKFile type="PolyData">
	<PolyData>
		<Piece NumberOfPoints="1206" NumberOfPolys="1000">
			<Points>
				<DataArray type="Float32" NumberOfComponents="3" format="ascii">
 0 0 0 0.005 0 0 0.01 0 0 0.015 0 0 0.02 0 0 0.025 0 0 0.03 0 0 0.035 0 0 0.04 0 0 0.045 0 0 0.05 0 0 0.055 0 0 0.06 0 0 0.065 0 0 0.07 0 0 0.075 0 0 0.08 0 0 0.085 0 0 0.09 0 0 0.095 0 0 0.1 0 0 0.105 0 0 0.11 0 0 0.115 0 0 0.12 0 0 0.125 0 0 0.13 0 0 0.135 0 0 0.14 0 0 0.145 0 0 0.15 0 0 0.155 0 0 0.16 0 0 0.165 0 0 0.17 0 0 0.175 0 0 0.18 0 0 0.185 0 0 0.19 0 0 0.195 0 0 0.2 0 0 0.205 0 0 0.21 0 0 0.215 0 0 0.22 0 0 0.225 0 0 0.23 0 0 0.235 0 0 0.24 0 0 0.245 0 0 0.25 0 0 0.255 0 0 0.26 0 0 0.265 0 0 0.27 0 0 0.275 0 0 0.28 0 0 0.285 0 0 0.29 0 0 0.295 0 0 0.3 0 0 0.305 0 0 0.31 0 0 0.315 0 0 0.32 0 0 0.325 0 0 0.33 0 0 0.335 0 0 0.34 0 0 0.345 0 0 0.35 0 0 0.355 0 0 0.36 0 0 0.365 0 0 0.37 0 0 0.375 0 0 0.38 0 0 0.385 0 0 0.39 0 0 0.395 0 0 0.4 0 0 0.405 0 0 0.41 0 0 0.415 0 0 0.42 0 0 0.425 0 0 0.43 0 0 0.435 0 0 0.44 0 0 0.445 0 0 0.45 0 0 0.455 0 0 0.46 0 0 0.465 0 0 0.47 0 0 0.475 0 0 0.48 0 0 0.485 0 0 0.49 0 0 0.495 0 0 0.5 0 0 0.505 0 0 0.51 0 0 0.515 0 0 0.52 0 0 0.525 0 0 0.53 0 0 0.535 0 0 0.54 0 0 0.545 0 0 0.55 0 0 0.555 0 0 0.56 0 0 0.565 0 0 0.57 0 0 0.575 0 0 0.58 0 0 0.585 0 0 0.59 0 0 0.595 0 0 0.6 0 0 0.605 0 0 0.61 0 0 0.615 0 0 0.62 0 0 0.625 0 0 0.63 0 0 0.635 0 0 0.64 0 0 0.645 0 0 0.65 0 0 0.655 0 0 0.66 0 0 0.665 0 0 0.67 0 0 0.675 0 0 0.68 0 0 0.685 0 0 0.69 0 0 0.695 0 0 0.7 0 0 0.705 0 0 0.71 0 0 0.715 0 0 0.72 0 0 0.725 0 0 0.73 0 0 0.735 0 0 0.74 0 0 0.745 0 0 0.75 0 0 0.755 0 0 0.76 0 0 0.765 0 0 0.77 0 0 0.775 0 0 0.78 0 0 0.785 0 0 0.79 0 0 0.795 0 0 0.8 0 0 0.805 0 0 0.81 0 0 0.815 0 0 0.82 0 0 0.825 0 0 0.83 0 0 0.835 0 0 0.84 0 0 0.845 0 0 0.85 0 0 0.855 0 0 0.86 0 0 0.865 0 0 0.87 0 0 0.875 0 0 0.88 0 0 0.885 0 0 0.89 0 0 0.895 0 0 0.9 0 0 0.905 0 0 0.91 0 0 0.915 0 0 0.92 0 0 0.925 0 0 0.93 0 0 0.935 0 0 0.94 0 0 0.945 0 0 0.95 0 0 0.955 0 0 0.96 0 0 0.965 0 0 0.97 0 0 0.975 0 0 0.98 0 0 0.985 0 0 0.99 0 0 0.995 0 0 1 0 0 0 0.02 0 0.005 0.02 0 0.01 0.02 0 0.015 0.02 0 0.02 0.02 0 0.025 0.02 0 0.03 0.02 0 0.035 0.02 0 0.04 0.02 0 0.045 0.02 0 0.05 0.02 0 0.055 0.02 0 0.06 0.02 0 0.065 0.02 0 0.07 0.02 0 0.075 0.02 0 0.08 0.02 0 0.085 0.02 0 0.09 0.02 0 0.095 0.02 0 0.1 0.02 0 0.105 0.02 0 0.11 0.02 0 0.115 0.02 0 0.12 0.02 0 0.125 0.02 0 0.13 0.02 0 0.135 0.02 0 0.14 0.02 0 0.145 0.02 0 0.15 0.02 0 0.155 0.02 0 0.16 0.02 0 0.165 0.02 0 0.17 0.02 0 0.175 0.02 0 0.18 0.02 0 0.185 0.02 0 0.19 0.02 0 0.195 0.02 0 0.2 0.02 0 0.205 0.02 0 0.21 0.02 0 0.215 0.02 0 0.22 0.02 0 0.225 0.02 0 0.23 0.02 0 0.235 0.02 0 0.24 0.02 0 0.245 0.02 0 0.25 0.02 0 0.255 0.02 0 0.26 0.02 0 0.265 0.02 0 0.27 0.02 0 0.275 0.02 0 0.28 0.02 0 0.285 0.02 0 0.29 0.02 0 0.295 0.02 0 0.3 0.02 0 0.305 0.02 0 0.31 0.02 0 0.315 0.02 0 0.32 0.02 0 0.325 0.02 0 0.33 0.02 0 0.335 0.02 0 0.34 0.02 0 0.345 0.02 0 0.35 0.02 0 0.355 0.02 0 0.36 0.02 0 0.365 0.02 0 0.37 0.02 0 0.375 0.02 0 0.38 0.02 0 0.385 0.02 0 0.39 0.02 0 0.395 0.02 0 0.4 0.02 0 0.405 0.02 0 0.41 0.02 0 0.415 0.02 0 0.42 0.02 0 0.425 0.02 0 0.43 0.02 0 0.435 0.02 0 0.44 0.02 0 0.445 0.02 0 0.45 0.02 0 0.455 0.02 0 0.46 0.02 0 0.465 0.02 0 0.47 0.02 0 0.475 0.02 0 0.48 0.02 0 0.485 0.02 0 0.49 0.02 0 0.495 0.02 0 0.5 0.02 0 0.505 0.02 0 0.51 0.02 0 0.515 0.02 0 0.52 0.02 0 0.525 0.02 0 0.53 0.02 0 0.535 0.02 0 0.54 0.02 0 0.545 0.02 0 0.55 0.02 0 0.555 0.02 0 0.56 0.02 0 0.565 0.02 0 0.57 0.02 0 0.575 0.02 0 0.58 0.02 0 0.585 0.02 0 0.59 0.02 0 0.595 0.02 0 0.6 0.02 0 0.605 0.02 0 0.61 0.02 0 0.615 0.02 0 0.62 0.02 0 0.625 0.02 0 0.63 0.02 0 0.635 0.02 0 0.64 0.02 0 0.645 0.02 0 0.65 0.02 0 0.655 0.02 0 0.66 0.02 0 0.665 0.02 0 0.67 0.02 0 0.675 0.02 0 0.68 0.02 0 0.685 0.02 0 0.69 0.02 0 0.695 0.02 0 0.7 0.02 0 0.705 0.02 0 0.71 0.02 0 0.715 0.02 0 0.72 0.02 0 0.725 0.02 0 0.73 0.02 0 0.735 0.02 0 0.74 0.02 0 0.745 0.02 0 0.75 0.02 0 0.755 0.02 0 0.76 0.02 0 0.765 0.02 0 0.77 0.02 0 0.775 0.02 0 0.78 0.02 0 0.785 0.02 0 0.79 0.02 0 0.795 0.02 0 0.8 0.02 0 0.805 0.02 0 0.81 0.02 0 0.815 0.02 0 0.82 0.02 0 0.825 0.02 0 0.83 0.02 0 0.835 0.02 0 0.84 0.02 0 0.845 0.02 0 0.85 0.02 0 0.855 0.02 0 0.86 0.02 0 0.865 0.02 0 0.87 0.02 0 0.875 0.02 0 0.88 0.02 0 0.885 0.02 0 0.89 0.02 0 0.895 0.02 0 0.9 0.02 0 0.905 0.02 0 0.91 0.02 0 0.915 0.02 0 0.92 0.02 0 0.925 0.02 0 0.93 0.02 0 0.935 0.02 0 0.94 0.02 0 0.945 0.02 0 0.95 0.02 0 0.955 0.02 0 0.96 0.02 0 0.965 0.02 0 0.97 0.02 0 0.975 0.02 0 0.98 0.02 0 0.985 0.02 0 0.99 0.02 0 0.995 0.02 0 1 0.02 0 0 0.04 0 0.005 0.04 0 0.01 0.04 0 0.015 0.04 0 0.02 0.04 0 0.025 0.04 0 0.03 0.04 0 0.035 0.04 0 0.04 0.04 0 0.045 0.04 0 0.05 0.04 0 0.055 0.04 0 0.06 0.04 0 0.065 0.04 0 0.07 0.04 0 0.075 0.04 0 0.08 0.04 0 0.085 0.04 0 0.09 0.04 0 0.095 0.04 0 0.1 0.04 0 0.105 0.04 0 0.11 0.04 0 0.115 0.04 0 0.12 0.04 0 0.125 0.04 0 0.13 0.04 0 0.135 0.04 0 0.14 0.04 0 0.145 0.04 0 0.15 0.04 0 0.155 0.04 0 0.16 0.04 0 0.165 0.04 0 0.17 0.04 0 0.175 0.04 0 0.18 0.04 0 0.185 0.04 0 0.19 0.04 0 0.195 0.04 0 0.2 0.04 0 0.205 0.04 0 0.21 0.04 0 0.215 0.04 0 0.22 0.04 0 0.225 0.04 0 0.23 0.04 0 0.235 0.04 0 0.24 0.04 0 0.245 0.04 0 0.25 0.04 0 0.255 0.04 0 0.26 0.04 0 0.265 0.04 0 0.27 0.04 0 0.275 0.04 0 0.28 0.04 0 0.285 0.04 0 0.29 0.04 0 0.295 0.04 0 0.3 0.04 0 0.305 0.04 0 0.31 0.04 0 0.315 0.04 0 0.32 0.04 0 0.325 0.04 0 0.33 0.04 0 0.335 0.04 0 0.34 0.04 0 0.345 0.04 0 0.35 0.04 0 0.355 0.04 0 0.36 0.04 0 0.365 0.04 0 0.37 0.04 0 0.375 0.04 0 0.38 0.04 0 0.385 0.04 0 0.39 0.04 0 0.395 0.04 0 0.4 0.04 0 0.405 0.04 0 0.41 0.04 0 0.415 0.04 0 0.42 0.04 0 0.425 0.04 0 0.43 0.04 0 0.435 0.04 0 0.44 0.04 0 0.445 0.04 0 0.45 0.04 0 0.455 0.04 0 0.46 0.04 0 0.465 0.04 0 0.47 0.04 0 0.475 0.04 0 0.48 0.04 0 0.485 0.04 0 0.49 0.04 0 0.495 0.04 0 0.5 0.04 0 0.505 0.04 0 0.51 0.04 0 0.515 0.04 0 0.52 0.04 0 0.525 0.04 0 0.53 0.04 0 0.535 0.04 0 0.54 0.04 0 0.545 0.04 0 0.55 0.04 0 0.555 0.04 0 0.56 0.04 0 0.565 0.04 0 0.57 0.04 0 0.575 0.04 0 0.58 0.04 0 0.585 0.04 0 0.59 0.04 0 0.595 0.04 0 0.6 0.04 0 0.605 0.04 0 0.61 0.04 0 0.615 0.04 0 0.62 0.04 0 0.625 0.04 0 0.63 0.04 0 0.635 0.04 0 0.64 0.04 0 0.645 0.04 0 0.65 0.04 0 0.655 0.04 0 0.66 0.04 0 0.665 0.04 0 0.67 0.04 0 0.675 0.04 0 0.68 0.04 0 0.685 0.04 0 0.69 0.04 0 0.695 0.04 0 0.7 0.04 0 0.705 0.04 0 0.71 0.04 0 0.715 0.04 0 0.72 0.04 0 0.725 0.04 0 0.73 0.04 0 0.735 0.04 0 0.74 0.04 0 0.745 0.04 0 0.75 0.04 0 0.755 0.04 0 0.76 0.04 0 0.765 0.04 0 0.77 0.04 0 0.775 0.04 0 0.78 0.04 0 0.785 0.04 0 0.79 0.04 0 0.795 0.04 0 0.8 0.04 0 0.805 0.04 0 0.81 0.04 0 0.815 0.04 0 0.82 0.04 0 0.825 0.04 0 0.83 0.04 0 0.835 0.04 0 0.84 0.04 0 0.845 0.04 0 0.85 0.04 0 0.855 0.04 0 0.86 0.04 0 0.865 0.04 0 0.87 0.04 0 0.875 0.04 0 0.88 0.04 0 0.885 0.04 0 0.89 0.04 0 0.895 0.04 0 0.9 0.04 0 0.905 0.04 0 0.91 0.04 0 0.915 0.04 0 0.92 0.04 0 0.925 0.04 0 0.93 0.04 0 0.935 0.04 0 0.94 0.04 0 0.945 0.04 0 0.95 0.04 0 0.955 0.04 0 0.96 0.04 0 0.965 0.04 0 0.97 0.04 0 0.975 0.04 0 0.98 0.04 0 0.985 0.04 0 0.99 0.04 0 0.995 0.04 0 1 0.04 0 0 0.06 0 0.005 0.06 0 0.01 0.06 0 0.015 0.06 0 0.02 0.06 0 0.025 0.06 0 0.03 0.06 0 0.035 0.06 0 0.04 0.06 0 0.045 0.06 0 0.05 0.06 0 0.055 0.06 0 0.06 0.06 0 0.065 0.06 0 0.07 0.06 0 0.075 0.06 0 0.08 0.06 0 0.085 0.06 0 0.09 0.06 0 0.095 0.06 0 0.1 0.06 0 0.105 0.06 0 0.11 0.06 0 0.115 0.06 0 0.12 0.06 0 0.125 0.06 0 0.13 0.06 0 0.135 0.06 0 0.14 0.06 0 0.145 0.06 0 0.15 0.06 0 0.155 0.06 0 0.16 0.06 0 0.165 0.06 0 0.17 0.06 0 0.175 0.06 0 0.18 0.06 0 0.185 0.06 0 0.19 0.06 0 0.195 0.06 0 0.2 0.06 0 0.205 0.06 0 0.21 0.06 0 0.215 0.06 0 0.22 0.06 0 0.225 0.06 0 0.23 0.06 0 0.235 0.06 0 0.24 0.06 0 0.245 0.06 0 0.25 0.06 0 0.255 0.06 0 0.26 0.06 0 0.265 0.06 0 0.27 0.06 0 0.275 0.06 0 0.28 0.06 0 0.285 0.06 0 0.29 0.06 0 0.295 0.06 0 0.3 0.06 0 0.305 0.06 0 0.31 0.06 0 0.315 0.06 0 0.32 0.06 0 0.325 0.06 0 0.33 0.06 0 0.335 0.06 0 0.34 0.06 0 0.345 0.06 0 0.35 0.06 0 0.355 0.06 0 0.36 0.06 0 0.365 0.06 0 0.37 0.06 0 0.375 0.06 0 0.38 0.06 0 0.385 0.06 0 0.39 0.06 0 0.395 0.06 0 0.4 0.06 0 0.405 0.06 0 0.41 0.06 0 0.415 0.06 0 0.42 0.06 0 0.425 0.06 0 0.43 0.06 0 0.435 0.06 0 0.44 0.06 0 0.445 0.06 0 0.45 0.06 0 0.455 0.06 0 0.46 0.06 0 0.465 0.06 0 0.47 0.06 0 0.475 0.06 0 0.48 0.06 0 0.485 0.06 0 0.49 0.06 0 0.495 0.06 0 0.5 0.06 0 0.505 0.06 0 0.51 0.06 0 0.515 0.06 0 0.52 0.06 0 0.525 0.06 0 0.53 0.06 0 0.535 0.06 0 0.54 0.06 0 0.545 0.06 0 0.55 0.06 0 0.555 0.06 0 0.56 0.06 0 0.565 0.06 0 0.57 0.06 0 0.575 0.06 0 0.58 0.06 0 0.585 0.06 0 0.59 0.06 0 0.595 0.06 0 0.6 0.06 0 0.605 0.06 0 0.61 0.06 0 0.615 0.06 0 0.62 0.06 0 0.625 0.06 0 0.63 0.06 0 0.635 0.06 0 0.64 0.06 0 0.645 0.06 0 0.65 0.06 0 0.655 0.06 0 0.66 0.06 0 0.665 0.06 0 0.67 0.06 0 0.675 0.06 0 0.68 0.06 0 0.685 0.06 0 0.69 0.06 0 0.695 0.06 0 0.7 0.06 0 0.705 0.06 0 0.71 0.06 0 0.715 0.06 0 0.72 0.06 0 0.725 0.06 0 0.73 0.06 0 0.735 0.06 0 0.74 0.06 0 0.745 0.06 0 0.75 0.06 0 0.755 0.06 0 0.76 0.06 0 0.765 0.06 0 0.77 0.06 0 0.775 0.06 0 0.78 0.06 0 0.785 0.06 0 0.79 0.06 0 0.795 0.06 0 0.8 0.06 0 0.805 0.06 0 0.81 0.06 0 0.815 0.06 0 0.82 0.06 0 0.825 0.06 0 0.83 0.06 0 0.835 0.06 0 0.84 0.06 0 0.845 0.06 0 0.85 0.06 0 0.855 0.06 0 0.86 0.06 0 0.865 0.06 0 0.87 0.06 0 0.875 0.06 0 0.88 0.06 0 0.885 0.06 0 0.89 0.06 0 0.895 0.06 0 0.9 0.06 0 0.905 0.06 0 0.91 0.06 0 0.915 0.06 0 0.92 0.06 0 0.925 0.06 0 0.93 0.06 0 0.935 0.06 0 0.94 0.06 0 0.945 0.06 0 0.95 0.06 0 0.955 0.06 0 0.96 0.06 0 0.965 0.06 0 0.97 0.06 0 0.975 0.06 0 0.98 0.06 0 0.985 0.06 0 0.99 0.06 0 0.995 0.06 0 1 0.06 0 0 0.08 0 0.005 0.08 0 0.01 0.08 0 0.015 0.08 0 0.02 0.08 0 0.025 0.08 0 0.03 0.08 0 0.035 0.08 0 0.04 0.08 0 0.045 0.08 0 0.05 0.08 0 0.055 0.08 0 0.06 0.08 0 0.065 0.08 0 0.07 0.08 0 0.075 0.08 0 0.08 0.08 0 0.085 0.08 0 0.09 0.08 0 0.095 0.08 0 0.1 0.08 0 0.105 0.08 0 0.11 0.08 0 0.115 0.08 0 0.12 0.08 0 0.125 0.08 0 0.13 0.08 0 0.135 0.08 0 0.14 0.08 0 0.145 0.08 0 0.15 0.08 0 0.155 0.08 0 0.16 0.08 0 0.165 0.08 0
[...]
			<PointData Scalars="VitesseX">
				<DataArray Name="VitesseX" type="Float32" format="ascii">
 0 -9.97769e-15 3.87084e-15 -4.37806e-15 1.29433e-14 7.27603e-15 -3.00696e-15 -4.50222e-14 6.17989e-15 -2.81115e-14 -7.67631e-15 -5.66238e-15 -6.89867e-14 -4.68608e-14 -8.65362e-14 -9.20464e-14 2.91681e-16 -1.55777e-13 -6.92818e-14 -1.09726e-13 -1.04076e-13 7.6257e-14 -1.04255e-13 2.85886e-14 4.1972e-15 1.40727e-14 1.87737e-13 -1.17054e-13 -1.63113e-13 1.5165e-13 -1.33559e-13 -3.4401e-14 -1.05274e-13 -3.43526e-14 -2.11803e-13 -4.40751e-14 -1.83243e-13 3.92738e-14 -6.17321e-14 2.53334e-14 -4.03304e-14 1.59108e-14 1.01502e-14 1.66196e-13 2.00966e-12 1.14189e-11 7.0769e-11 4.18261e-10 2.33452e-09 1.23223e-08 6.13267e-08 2.87008e-07 1.25908e-06 5.15912e-06 1.96633e-05 6.93718e-05 0.00022525 0.000668627 0.00180076 0.00436663 0.00947697 0.0183517 0.0317601 0.0495359 0.0706467 0.0937892 0.117951 0.14256 0.167347 0.192186 0.217011 0.241804 0.266548 0.291231 0.315841 0.340372 0.364814 0.389163 0.413412 0.437556 0.461588 0.485503 0.509294 0.532953 0.556473 0.579843 0.60305 0.626079 0.648912 0.671524 0.693888 0.715966 0.737712 0.75907 0.779969 0.800322 0.820021 0.838935 0.856904 0.873739 0.889214 0.903074 0.915043 0.924861 0.932339 0.937436 0.940369 0.940231 0.939756 0.938998 0.938087 0.937086 0.936054 0.935035 0.934062 0.933163 0.932358 0.931655 0.931055 0.930553 0.930137 0.929796 0.929515 0.929283 0.92909 0.928924 0.928769 0.928622 0.928648 0.926379 0.945036 0.947927 0.938518 0.930621 0.928449 0.927949 0.927808 0.927757 0.927733 0.927719 0.927711 0.927706 0.927703 0.927693 0.927661 0.927573 0.927362 0.926895 0.925916 0.923937 0.920109 0.912961 0.900091 0.877914 0.8417 0.786229 0.707283 0.603906 0.48087 0.350018 0.227247 0.12867 0.0631002 0.0273859 0.0110048 0.00425021 0.00161147 0.000605723 0.000226587 8.44658e-05 3.13867e-05 1.1625e-05 4.29064e-06 1.5776e-06 5.7766e-07 2.10573e-07 7.63889e-08 2.75683e-08 9.89435e-09 3.53025e-09 1.25189e-09 4.40714e-10 1.5396e-10 5.30283e-11 1.82362e-11 5.93772e-12 1.62367e-12 7.94491e-13 2.20742e-13 -2.73974e-13 -5.94644e-13 6.98137e-13 -5.88667e-13 3.45088e-13 2.51165e-13 1.94678e-13 -2.9484e-13 -6.0704e-14 5.88e-13 -4.2525e-13 0 0 -5.40321e-15 -1.41492e-14 5.80575e-15 -1.33466e-14 -7.37764e-15 1.74323e-14 -1.18879e-14 -2.41494e-14 -1.4826e-14 -4.82948e-14 -5.98804e-14 -1.78343e-14 -3.54672e-14 -5.10215e-14 -4.87337e-14 -1.47477e-13 -3.66199e-14 -9.37687e-14 -6.0355e-14 -3.16129e-14 -8.8817e-14 -1.056e-14 -2.86593e-14 9.17316e-14 -8.40556e-16 -1.61259e-13 8.81651e-14 8.3349e-15 -1.32711e-13 6.00282e-14 -6.64281e-14 -5.68314e-14 -1.22e-13 -8.25885e-14 -1.22613e-13 -9.30697e-15 -1.05587e-13 -8.0282e-14 -3.60861e-14 -7.85211e-14 -5.51596e-14 1.06907e-13 2.63601e-13 1.6529e-12 1.15998e-11 7.09941e-11 4.18102e-10 2.33444e-09 1.23222e-08 6.13269e-08 2.87007e-07 1.25908e-06 5.15912e-06 1.96633e-05 6.93718e-05 0.00022525 0.000668627 0.00180076 0.00436663 0.00947697 0.0183517 0.0317601 0.0495359 0.0706467 0.0937892 0.117951 0.14256 0.167347 0.192186 0.217011 0.241804 0.266548 0.291231 0.315841 0.340372 0.364814 0.389163 0.413412 0.437556 0.461588 0.485503 0.509294 0.532953 0.556473 0.579843 0.60305 0.626079 0.648912 0.671524 0.693888 0.715966 0.737712 0.75907 0.779969 0.800322 0.820021 0.838935 0.856904 0.873739 0.889214 0.903074 0.915043 0.924861 0.932339 0.937436 0.940369 0.940231 0.939756 0.938998 0.938087 0.937086 0.936054 0.935035 0.934062 0.933163 0.932358 0.931655 0.931055 0.930553 0.930137 0.929796 0.929515 0.929283 0.92909 0.928924 0.928769 0.928622 0.928648 0.926379 0.945036 0.947927 0.938518 0.930621 0.928449 0.927949 0.927808 0.927757 0.927733 0.927719 0.927711 0.927706 0.927703 0.927693 0.927661 0.927573 0.927362 0.926895 0.925916 0.923937 0.920109 0.912961 0.900091 0.877914 0.8417 0.786229 0.707283 0.603906 0.48087 0.350018 0.227247 0.12867 0.0631002 0.0273859 0.0110048 0.00425021 0.00161147 0.000605723 0.000226587 8.44658e-05 3.13867e-05 1.1625e-05 4.29064e-06 1.5776e-06 5.77661e-07 2.10572e-07 7.6389e-08 2.75683e-08 9.89437e-09 3.53038e-09 1.25152e-09 4.40865e-10 1.5404e-10 5.32843e-11 1.81074e-11 5.70614e-12 2.00959e-12 5.14927e-13 -1.7424e-13 1.71762e-13 2.18187e-13 -6.76532e-13 7.03056e-13 -1.5499e-13 -4.31726e-15 2.49455e-13 6.11133e-13 -6.33594e-14 -3.67304e-13 2.60851e-13 0 0 2.6063e-15 -1.35697e-15 -2.15646e-14 -1.27198e-14 -8.37696e-15 -2.59338e-14 -4.43105e-14 5.32265e-15 -3.46923e-14 -3.28856e-14 -5.93613e-14 -3.89165e-14 -3.65036e-14 -6.30308e-14 -6.78498e-14 -4.96826e-14 -3.0681e-14 -5.95213e-14 -7.85556e-14 -8.40481e-14 3.59002e-14 1.33239e-14 9.82183e-15 -9.02757e-14 -5.51896e-14 -3.76111e-14 -3.53733e-14 -4.20994e-14 1.1128e-14 -9.64001e-14 -6.59802e-14 -4.35682e-14 -6.74887e-14 -8.05748e-14 -7.33495e-14 -5.13758e-14 -5.70101e-14 -6.52385e-14 -6.72329e-14 -1.26548e-13 -4.52068e-14 -3.59618e-14 3.26997e-13 1.77644e-12 1.13482e-11 7.11752e-11 4.17987e-10 2.33471e-09 1.23222e-08 6.13268e-08 2.87007e-07 1.25908e-06 5.15912e-06 1.96633e-05 6.93718e-05 0.00022525 0.000668627 0.00180076 0.00436663 0.00947697 0.0183517 0.0317601 0.0495359 0.0706467 0.0937892 0.117951 0.14256 0.167347 0.192186 0.217011 0.241804 0.266548 0.291231 0.315841 0.340372 0.364814 0.389163 0.413412 0.437556 0.461588 0.485503 0.509294 0.532953 0.556473 0.579843 0.60305 0.626079 0.648912 0.671524 0.693888 0.715966 0.737712 0.75907 0.779969 0.800322 0.820021 0.838935 0.856904 0.873739 0.889214 0.903074 0.915043 0.924861 0.932339 0.937436 0.940369 0.940231 0.939756 0.938998 0.938087 0.937086 0.936054 0.935035 0.934062 0.933163 0.932358 0.931655 0.931055 0.930553 0.930137 0.929796 0.929515 0.929283 0.92909 0.928924 0.928769 0.928622 0.928648 0.926379 0.945036 0.947927 0.938518 0.930621 0.928449 0.927949 0.927808 0.927757 0.927733 0.927719 0.927711 0.927706 0.927703 0.927693 0.927661 0.927573 0.927362 0.926895 0.925916 0.923937 0.920109 0.912961 0.900091 0.877914 0.8417 0.786229 0.707283 0.603906 0.48087 0.350018 0.227247 0.12867 0.0631002 0.0273859 0.0110048 0.00425021 0.00161147 0.000605723 0.000226587 8.44658e-05 3.13867e-05 1.1625e-05 4.29064e-06 1.5776e-06 5.77661e-07 2.10572e-07 7.6389e-08 2.75681e-08 9.89439e-09 3.53022e-09 1.25195e-09 4.40818e-10 1.54012e-10 5.35998e-11 1.82172e-11 5.95103e-12 1.61808e-12 -7.8868e-15 -3.01084e-13 2.96121e-13 4.32092e-13 -1.32694e-13 -4.51514e-14 2.42083e-13 1.69239e-13 1.55325e-13 -9.78472e-14 -1.31926e-13 3.47364e-13 -2.4759e-13 0 0 -6.42405e-15 -6.03797e-15 -1.96997e-14 -2.09346e-14 -2.31796e-14 -2.86369e-14 -1.62251e-14 -3.76927e-14 -5.6824e-14 -4.91091e-14 -1.124e-14 -7.33351e-14 -3.1502e-14 -8.87358e-14 -3.3575e-14 -4.30432e-14 -8.52012e-14 5.86007e-15 -3.7001e-14 -9.60437e-15 4.31743e-14 -9.7507e-14 -3.70809e-14 -3.05507e-14 -9.02078e-15 1.19825e-13 -1.13486e-13 -1.80649e-13 -4.13663e-14 -1.28529e-13 -6.24701e-14 -1.07946e-13 -2.85597e-14 -1.39635e-13 -6.49515e-14 -6.17131e-14 1.71615e-14 -4.47158e-14 -1.90239e-13 -8.57834e-14 -8.12479e-15 4.39458e-14 2.7744e-13 2.01018e-12 1.1525e-11 7.09388e-11 4.18233e-10 2.3347e-09 1.23223e-08 6.13267e-08 2.87007e-07 1.25908e-06 5.15912e-06 1.96633e-05 6.93718e-05 0.00022525 0.000668627 0.00180076 0.00436663 0.00947697 0.0183517 0.0317601 0.0495359 0.0706467 0.0937892 0.117951 0.14256 0.167347 0.192186 0.217011 0.241804 0.266548 0.291231 0.315841 0.340372 0.364814 0.389163 0.413412 0.437556 0.461588 0.485503 0.509294 0.532953 0.556473 0.579843 0.60305 0.626079 0.648912 0.671524 0.693888 0.715966 0.737712 0.75907 0.779969 0.800322 0.820021 0.838935 0.856904 0.873739 0.889214 0.903074 0.915043 0.924861 0.932339 0.937436 0.940369 0.940231 0.939756 0.938998 0.938087 0.937086 0.936054 0.935035 0.934062 0.933163 0.932358 0.931655 0.931055 0.930553 0.930137 0.929796 0.929515 0.929283 0.92909 0.928924 0.928769 0.928622 0.928648 0.926379 0.945036 0.947927 0.938518 0.930621 0.928449 0.927949 0.927808 0.927757 0.927733 0.927719 0.927711 0.927706 0.927703 0.927693 0.927661 0.927573 0.927362 0.926895 0.925916 0.923937 0.920109 0.912961 0.900091 0.877914 0.8417 0.786229 0.707283 0.603906 0.48087 0.350018 0.227247 0.12867 0.0631002 0.0273859 0.0110048 0.00425021 0.00161147 0.000605723 0.000226587 8.44658e-05 3.13867e-05 1.1625e-05 4.29064e-06 1.5776e-06 5.7766e-07 2.10573e-07 7.63889e-08 2.75683e-08 9.89433e-09 3.53054e-09 1.25186e-09 4.40915e-10 1.54124e-10 5.32586e-11 1.80206e-11 6.01483e-12 1.58889e-12 2.76636e-13 4.56919e-13 -5.62244e-13 -4.37869e-13 4.90635e-13 -2.88366e-13 1.12907e-13 2.7281e-14 2.42146e-13 -5.46867e-13 2.69337e-13 7.93762e-14 4.26022e-13 0 0 -6.63411e-15 -1.67196e-14 -6.84516e-15 -2.83418e-14 -3.42083e-14 -8.09881e-15 -1.26416e-14 -4.83574e-14 -2.33118e-14 -7.61579e-14 -4.00465e-14 -3.11077e-14 -4.50695e-14 -4.77967e-14 -5.78272e-15 -9.24103e-14 -2.47192e-14 -5.77811e-14 -3.54034e-14 3.70154e-14 -1.03226e-13 -8.31462e-14 -6.88604e-14 1.04575e-13 -2.88597e-15 -6.77678e-14 -2.16192e-14 -3.71546e-14 -2.30453e-13 -1.38174e-14 -1.01142e-13 -7.91394e-14 -5.15688e-14 -6.37345e-14 -5.77789e-14 -5.03683e-14 -1.5795e-13 -6.46878e-14 -1.77996e-13 -5.74009e-14 -1.25405e-13 2.10813e-13 2.67541e-13 1.85851e-12 1.17606e-11 7.10094e-11 4.18267e-10 2.33458e-09 1.23224e-08 6.13268e-08 2.87007e-07 1.25908e-06 5.15912e-06 1.96633e-05 6.93718e-05 0.00022525 0.000668627 0.00180076 0.00436663 0.00947697 0.0183517 0.0317601 0.0495359 0.0706467 0.0937892 0.117951 0.14256 0.167347 0.192186 0.217011 0.241804 0.266548 0.291231 0.315841 0.340372 0.364814 0.389163 0.413412 0.437556 0.461588 0.485503 0.509294 0.532953 0.556473 0.579843 0.60305 0.626079 0.648912 0.671524 0.693888 0.715966 0.737712 0.75907 0.779969 0.800322 0.820021 0.838935 0.856904 0.873739 0.889214 0.903074 0.915043 0.924861 0.932339 0.937436 0.940369 0.940231 0.939756 0.938998 0.938087 0.937086 0.936054 0.935035 0.934062 0.933163 0.932358 0.931655 0.931055 0.930553 0.930137 0.929796 0.929515 0.929283 0.92909 0.928924 0.928769 0.928622 0.928648 0.926379 0.945036 0.947927 0.938518 0.930621 0.928449 0.927949 0.927808 0.927757 0.927733 0.927719 0.927711 0.927706 0.927703 0.927693 0.927661 0.927573 0.927362 0.926895 0.925916 0.923937 0.920109 0.912961 0.900091 0.877914 0.8417 0.786229 0.707283 0.603906 0.48087 0.350018 0.227247 0.12867 0.0631002 0.0273859 0.0110048 0.00425021 0.00161147 0.000605723 0.000226587 8.44658e-05 3.13867e-05 1.1625e-05 4.29064e-06 1.5776e-06 5.7766e-07 2.10573e-07 7.63891e-08 2.75685e-08 9.89462e-09 3.53049e-09 1.25149e-09 4.40838e-10 1.54179e-10 5.30737e-11 1.828e-11 6.13863e-12 9.87096e-13 9.40692e-13 2.75067e-13 -5.67609e-13 -2.22025e-13 -6.37452e-13 3.63123e-13 -2.59179e-13 -2.38244e-13 7.28453e-15 4.00337e-13 2.53759e-13 -5.51516e-13 7.66324e-13 0 0 5.6212e-15 8.09208e-15 -3.34097e-14 -6.17648e-16 -1.67801e-14 -4.86632e-14 -1.027e-13 4.37946e-14 -8.19581e-16 -3.09556e-14 -6.22373e-14 -2.66965e-14 -7.60685e-14 -2.86767e-14 -7.46941e-14 9.71454e-14 -2.29353e-14 -1.28069e-13 -1.42932e-13 -1.15707e-13 3.28915e-14 -2.77658e-14 4.19921e-14 -8.95664e-14 -8.23557e-14 5.9848e-14 -1.80398e-13 2.30071e-14 6.11548e-14 -2.16993e-13 -1.10849e-13 -2.1134e-14 2.86517e-14 -5.59746e-14 6.87969e-14 -2.44691e-13 -2.13795e-13 -7.1589e-14 -1.2474e-14 -7.96182e-14 -1.98745e-13 5.81467e-14 2.7319e-13 1.9534e-12 1.13869e-11 7.12725e-11 4.18098e-10 2.33482e-09 1.23224e-08 6.13268e-08 2.87007e-07 1.25908e-06 5.15912e-06 1.96633e-05 6.93718e-05 0.00022525 0.000668627 0.00180076 0.00436663 0.00947697 0.0183517 0.0317601 0.0495359 0.0706467 0.0937892 0.117951 0.14256 0.167347 0.192186 0.217011 0.241804 0.266548 0.291231 0.315841 0.340372 0.364814 0.389163 0.413412 0.437556 0.461588 0.485503 0.509294 0.532953 0.556473 0.579843 0.60305 0.626079 0.648912 0.671524 0.693888 0.715966 0.737712 0.75907 0.779969 0.800322 0.820021 0.838935 0.856904 0.873739 0.889214 0.903074 0.915043 0.924861 0.932339 0.937436 0.940369 0.940231 0.939756 0.938998 0.938087 0.937086 0.936054 0.935035 0.934062 0.933163 0.932358 0.931655 0.931055 0.930553 0.930137 0.929796 0.929515 0.929283 0.92909 0.928924 0.928769 0.928622 0.928648 0.926379 0.945036 0.947927 0.938518 0.930621 0.928449 0.927949 0.927808 0.927757 0.927733 0.927719 0.927711 0.927706 0.927703 0.927693 0.927661 0.927573 0.927362 0.926895 0.925916 0.923937 0.920109 0.912961 0.900091 0.877914 0.8417 0.786229 0.707283 0.603906 0.48087 0.350018 0.227247 0.12867 0.0631002 0.0273859 0.0110048 0.00425021 0.00161147 0.000605723 0.000226587 8.44658e-05 3.13867e-05 1.1625e-05 4.29064e-06 1.5776e-06 5.7766e-07 2.10573e-07 7.63889e-08 2.75683e-08 9.89496e-09 3.52985e-09 1.25201e-09 4.40465e-10 1.54014e-10 5.32895e-11 1.89748e-11 6.6751e-12 -3.62947e-13 1.07697e-12 -3.96648e-13 -3.59864e-14 2.64854e-13 -4.70363e-13 -7.82104e-13 3.95061e-13 6.72278e-14 -4.63305e-13 1.81606e-13 -2.28991e-13 7.55551e-13 -7.61527e-13 0
				</DataArray>
				<DataArray Name="VitesseY" type="Float32" format="ascii">