<?xml version="1.0"?>
<VTKFile type="PolyData">
	<PolyData>
		<Piece NumberOfPoints="1206" NumberOfPolys="1000">
			<Points>
				<DataArray type="Float32" NumberOfComponents="3" format="ascii">
 0 0 0 0.005 0 0 0.01 0 0 0.015 0 0 0.02 0 0 0.025 0 0 0.03 0 0 0.035 0 0 0.04 0 0 0.045 0 0 0.05 0 0 0.055 0 0 0.06 0 0 0.065 0 0 0.07 0 0 0.075 0 0 0.08 0 0 0.085 0 0 0.09 0 0 0.095 0 0 0.1 0 0 0.105 0 0 0.11 0 0 0.115 0 0 0.12 0 0 0.125 0 0 0.13 0 0 0.135 0 0 0.14 0 0 0.145 0 0 0.15 0 0 0.155 0 0 0.16 0 0 0.165 0 0 0.17 0 0 0.175 0 0 0.18 0 0 0.185 0 0 0.19 0 0 0.195 0 0 0.2 0 0 0.205 0 0 0.21 0 0 0.215 0 0 0.22 0 0 0.225 0 0 0.23 0 0 0.235 0 0 0.24 0 0 0.245 0 0 0.25 0 0 0.255 0 0 0.26 0 0 0.265 0 0 0.27 0 0 0.275 0 0 0.28 0 0 0.285 0 0 0.29 0 0 0.295 0 0 0.3 0 0 0.305 0 0 0.31 0 0 0.315 0 0 0.32 0 0 0.325 0 0 0.33 0 0 0.335 0 0 0.34 0 0 0.345 0 0 0.35 0 0 0.355 0 0 0.36 0 0 0.365 0 0 0.37 0 0 0.375 0 0 0.38 0 0 0.385 0 0 0.39 0 0 0.395 0 0 0.4 0 0 0.405 0 0 0.41 0 0 0.415 0 0 0.42 0 0 0.425 0 0 0.43 0 0 0.435 0 0 0.44 0 0 0.445 0 0 0.45 0 0 0.455 0 0 0.46 0 0 0.465 0 0 0.47 0 0 0.475 0 0 0.48 0 0 0.485 0 0 0.49 0 0 0.495 0 0 0.5 0 0 0.505 0 0 0.51 0 0 0.515 0 0 0.52 0 0 0.525 0 0 0.53 0 0 0.535 0 0 0.54 0 0 0.545 0 0 0.55 0 0 0.555 0 0 0.56 0 0 0.565 0 0 0.57 0 0 0.575 0 0 0.58 0 0 0.585 0 0 0.59 0 0 0.595 0 0 0.6 0 0 0.605 0 0 0.61 0 0 0.615 0 0 0.62 0 0 0.625 0 0 0.63 0 0 0.635 0 0 0.64 0 0 0.645 0 0 0.65 0 0 0.655 0 0 0.66 0 0 0.665 0 0 0.67 0 0 0.675 0 0 0.68 0 0 0.685 0 0 0.69 0 0 0.695 0 0 0.7 0 0 0.705 0 0 0.71 0 0 0.715 0 0 0.72 0 0 0.725 0 0 0.73 0 0 0.735 0 0 0.74 0 0 0.745 0 0 0.75 0 0 0.755 0 0 0.76 0 0 0.765 0 0 0.77 0 0 0.775 0 0 0.78 0 0 0.785 0 0 0.79 0 0 0.795 0 0 0.8 0 0 0.805 0 0 0.81 0 0 0.815 0 0 0.82 0 0 0.825 0 0 0.83 0 0 0.835 0 0 0.84 0 0 0.845 0 0 0.85 0 0 0.855 0 0 0.86 0 0 0.865 0 0 0.87 0 0 0.875 0 0 0.88 0 0 0.885 0 0 0.89 0 0 0.895 0 0 0.9 0 0 0.905 0 0 0.91 0 0 0.915 0 0 0.92 0 0 0.925 0 0 0.93 0 0 0.935 0 0 0.94 0 0 0.945 0 0 0.95 0 0 0.955 0 0 0.96 0 0 0.965 0 0 0.97 0 0 0.975 0 0 0.98 0 0 0.985 0 0 0.99 0 0 0.995 0 0 1 0 0 0 0.02 0 0.005 0.02 0 0.01 0.02 0 0.015 0.02 0 0.02 0.02 0 0.025 0.02 0 0.03 0.02 0 0.035 0.02 0 0.04 0.02 0 0.045 0.02 0 0.05 0.02 0 0.055 0.02 0 0.06 0.02 0 0.065 0.02 0 0.07 0.02 0 0.075 0.02 0 0.08 0.02 0 0.085 0.02 0 0.09 0.02 0 0.095 0.02 0 0.1 0.02 0 0.105 0.02 0 0.11 0.02 0 0.115 0.02 0 0.12 0.02 0 0.125 0.02 0 0.13 0.02 0 0.135 0.02 0 0.14 0.02 0 0.145 0.02 0 0.15 0.02 0 0.155 0.02 0 0.16 0.02 0 0.165 0.02 0 0.17 0.02 0 0.175 0.02 0 0.18 0.02 0 0.185 0.02 0 0.19 0.02 0 0.195 0.02 0 0.2 0.02 0 0.205 0.02 0 0.21 0.02 0 0.215 0.02 0 0.22 0.02 0 0.225 0.02 0 0.23 0.02 0 0.235 0.02 0 0.24 0.02 0 0.245 0.02 0 0.25 0.02 0 0.255 0.02 0 0.26 0.02 0 0.265 0.02 0 0.27 0.02 0 0.275 0.02 0 0.28 0.02 0 0.285 0.02 0 0.29 0.02 0 0.295 0.02 0 0.3 0.02 0 0.305 0.02 0 0.31 0.02 0 0.315 0.02 0 0.32 0.02 0 0.325 0.02 0 0.33 0.02 0 0.335 0.02 0 0.34 0.02 0 0.345 0.02 0 0.35 0.02 0 0.355 0.02 0 0.36 0.02 0 0.365 0.02 0 0.37 0.02 0 0.375 0.02 0 0.38 0.02 0 0.385 0.02 0 0.39 0.02 0 0.395 0.02 0 0.4 0.02 0 0.405 0.02 0 0.41 0.02 0 0.415 0.02 0 0.42 0.02 0 0.425 0.02 0 0.43 0.02 0 0.435 0.02 0 0.44 0.02 0 0.445 0.02 0 0.45 0.02 0 0.455 0.02 0 0.46 0.02 0 0.465 0.02 0 0.47 0.02 0 0.475 0.02 0 0.48 0.02 0 0.485 0.02 0 0.49 0.02 0 0.495 0.02 0 0.5 0.02 0 0.505 0.02 0 0.51 0.02 0 0.515 0.02 0 0.52 0.02 0 0.525 0.02 0 0.53 0.02 0 0.535 0.02 0 0.54 0.02 0 0.545 0.02 0 0.55 0.02 0 0.555 0.02 0 0.56 0.02 0 0.565 0.02 0 0.57 0.02 0 0.575 0.02 0 0.58 0.02 0 0.585 0.02 0 0.59 0.02 0 0.595 0.02 0 0.6 0.02 0 0.605 0.02 0 0.61 0.02 0 0.615 0.02 0 0.62 0.02 0 0.625 0.02 0 0.63 0.02 0 0.635 0.02 0 0.64 0.02 0 0.645 0.02 0 0.65 0.02 0 0.655 0.02 0 0.66 0.02 0 0.665 0.02 0 0.67 0.02 0 0.675 0.02 0 0.68 0.02 0 0.685 0.02 0 0.69 0.02 0 0.695 0.02 0 0.7 0.02 0 0.705 0.02 0 0.71 0.02 0 0.715 0.02 0 0.72 0.02 0 0.725 0.02 0 0.73 0.02 0 0.735 0.02 0 0.74 0.02 0 0.745 0.02 0 0.75 0.02 0 0.755 0.02 0 0.76 0.02 0 0.765 0.02 0 0.77 0.02 0 0.775 0.02 0 0.78 0.02 0 0.785 0.02 0 0.79 0.02 0 0.795 0.02 0 0.8 0.02 0 0.805 0.02 0 0.81 0.02 0 0.815 0.02 0 0.82 0.02 0 0.825 0.02 0 0.83 0.02 0 0.835 0.02 0 0.84 0.02 0 0.845 0.02 0 0.85 0.02 0 0.855 0.02 0 0.86 0.02 0 0.865 0.02 0 0.87 0.02 0 0.875 0.02 0 0.88 0.02 0 0.885 0.02 0 0.89 0.02 0 0.895 0.02 0 0.9 0.02 0 0.905 0.02 0 0.91 0.02 0 0.915 0.02 0 0.92 0.02 0 0.925 0.02 0 0.93 0.02 0 0.935 0.02 0 0.94 0.02 0 0.945 0.02 0 0.95 0.02 0 0.955 0.02 0 0.96 0.02 0 0.965 0.02 0 0.97 0.02 0 0.975 0.02 0 0.98 0.02 0 0.985 0.02 0 0.99 0.02 0 0.995 0.02 0 1 0.02 0 0 0.04 0 0.005 0.04 0 0.01 0.04 0 0.015 0.04 0 0.02 0.04 0 0.025 0.04 0 0.03 0.04 0 0.035 0.04 0 0.04 0.04 0 0.045 0.04 0 0.05 0.04 0 0.055 0.04 0 0.06 0.04 0 0.065 0.04 0 0.07 0.04 0 0.075 0.04 0 0.08 0.04 0 0.085 0.04 0 0.09 0.04 0 0.095 0.04 0 0.1 0.04 0 0.105 0.04 0 0.11 0.04 0 0.115 0.04 0 0.12 0.04 0 0.125 0.04 0 0.13 0.04 0 0.135 0.04 0 0.14 0.04 0 0.145 0.04 0 0.15 0.04 0 0.155 0.04 0 0.16 0.04 0 0.165 0.04 0 0.17 0.04 0 0.175 0.04 0 0.18 0.04 0 0.185 0.04 0 0.19 0.04 0 0.195 0.04 0 0.2 0.04 0 0.205 0.04 0 0.21 0.04 0 0.215 0.04 0 0.22 0.04 0 0.225 0.04 0 0.23 0.04 0 0.235 0.04 0 0.24 0.04 0 0.245 0.04 0 0.25 0.04 0 0.255 0.04 0 0.26 0.04 0 0.265 0.04 0 0.27 0.04 0 0.275 0.04 0 0.28 0.04 0 0.285 0.04 0 0.29 0.04 0 0.295 0.04 0 0.3 0.04 0 0.305 0.04 0 0.31 0.04 0 0.315 0.04 0 0.32 0.04 0 0.325 0.04 0 0.33 0.04 0 0.335 0.04 0 0.34 0.04 0 0.345 0.04 0 0.35 0.04 0 0.355 0.04 0 0.36 0.04 0 0.365 0.04 0 0.37 0.04 0 0.375 0.04 0 0.38 0.04 0 0.385 0.04 0 0.39 0.04 0 0.395 0.04 0 0.4 0.04 0 0.405 0.04 0 0.41 0.04 0 0.415 0.04 0 0.42 0.04 0 0.425 0.04 0 0.43 0.04 0 0.435 0.04 0 0.44 0.04 0 0.445 0.04 0 0.45 0.04 0 0.455 0.04 0 0.46 0.04 0 0.465 0.04 0 0.47 0.04 0 0.475 0.04 0 0.48 0.04 0 0.485 0.04 0 0.49 0.04 0 0.495 0.04 0 0.5 0.04 0 0.505 0.04 0 0.51 0.04 0 0.515 0.04 0 0.52 0.04 0 0.525 0.04 0 0.53 0.04 0 0.535 0.04 0 0.54 0.04 0 0.545 0.04 0 0.55 0.04 0 0.555 0.04 0 0.56 0.04 0 0.565 0.04 0 0.57 0.04 0 0.575 0.04 0 0.58 0.04 0 0.585 0.04 0 0.59 0.04 0 0.595 0.04 0 0.6 0.04 0 0.605 0.04 0 0.61 0.04 0 0.615 0.04 0 0.62 0.04 0 0.625 0.04 0 0.63 0.04 0 0.635 0.04 0 0.64 0.04 0 0.645 0.04 0 0.65 0.04 0 0.655 0.04 0 0.66 0.04 0 0.665 0.04 0 0.67 0.04 0 0.675 0.04 0 0.68 0.04 0 0.685 0.04 0 0.69 0.04 0 0.695 0.04 0 0.7 0.04 0 0.705 0.04 0 0.71 0.04 0 0.715 0.04 0 0.72 0.04 0 0.725 0.04 0 0.73 0.04 0 0.735 0.04 0 0.74 0.04 0 0.745 0.04 0 0.75 0.04 0 0.755 0.04 0 0.76 0.04 0 0.765 0.04 0 0.77 0.04 0 0.775 0.04 0 0.78 0.04 0 0.785 0.04 0 0.79 0.04 0 0.795 0.04 0 0.8 0.04 0 0.805 0.04 0 0.81 0.04 0 0.815 0.04 0 0.82 0.04 0 0.825 0.04 0 0.83 0.04 0 0.835 0.04 0 0.84 0.04 0 0.845 0.04 0 0.85 0.04 0 0.855 0.04 0 0.86 0.04 0 0.865 0.04 0 0.87 0.04 0 0.875 0.04 0 0.88 0.04 0 0.885 0.04 0 0.89 0.04 0 0.895 0.04 0 0.9 0.04 0 0.905 0.04 0 0.91 0.04 0 0.915 0.04 0 0.92 0.04 0 0.925 0.04 0 0.93 0.04 0 0.935 0.04 0 0.94 0.04 0 0.945 0.04 0 0.95 0.04 0 0.955 0.04 0 0.96 0.04 0 0.965 0.04 0 0.97 0.04 0 0.975 0.04 0 0.98 0.04 0 0.985 0.04 0 0.99 0.04 0 0.995 0.04 0 1 0.04 0 0 0.06 0 0.005 0.06 0 0.01 0.06 0 0.015 0.06 0 0.02 0.06 0 0.025 0.06 0 0.03 0.06 0 0.035 0.06 0 0.04 0.06 0 0.045 0.06 0 0.05 0.06 0 0.055 0.06 0 0.06 0.06 0 0.065 0.06 0 0.07 0.06 0 0.075 0.06 0 0.08 0.06 0 0.085 0.06 0 0.09 0.06 0 0.095 0.06 0 0.1 0.06 0 0.105 0.06 0 0.11 0.06 0 0.115 0.06 0 0.12 0.06 0 0.125 0.06 0 0.13 0.06 0 0.135 0.06 0 0.14 0.06 0 0.145 0.06 0 0.15 0.06 0 0.155 0.06 0 0.16 0.06 0 0.165 0.06 0 0.17 0.06 0 0.175 0.06 0 0.18 0.06 0 0.185 0.06 0 0.19 0.06 0 0.195 0.06 0 0.2 0.06 0 0.205 0.06 0 0.21 0.06 0 0.215 0.06 0 0.22 0.06 0 0.225 0.06 0 0.23 0.06 0 0.235 0.06 0 0.24 0.06 0 0.245 0.06 0 0.25 0.06 0 0.255 0.06 0 0.26 0.06 0 0.265 0.06 0 0.27 0.06 0 0.275 0.06 0 0.28 0.06 0 0.285 0.06 0 0.29 0.06 0 0.295 0.06 0 0.3 0.06 0 0.305 0.06 0 0.31 0.06 0 0.315 0.06 0 0.32 0.06 0 0.325 0.06 0 0.33 0.06 0 0.335 0.06 0 0.34 0.06 0 0.345 0.06 0 0.35 0.06 0 0.355 0.06 0 0.36 0.06 0 0.365 0.06 0 0.37 0.06 0 0.375 0.06 0 0.38 0.06 0 0.385 0.06 0 0.39 0.06 0 0.395 0.06 0 0.4 0.06 0 0.405 0.06 0 0.41 0.06 0 0.415 0.06 0 0.42 0.06 0 0.425 0.06 0 0.43 0.06 0 0.435 0.06 0 0.44 0.06 0 0.445 0.06 0 0.45 0.06 0 0.455 0.06 0 0.46 0.06 0 0.465 0.06 0 0.47 0.06 0 0.475 0.06 0 0.48 0.06 0 0.485 0.06 0 0.49 0.06 0 0.495 0.06 0 0.5 0.06 0 0.505 0.06 0 0.51 0.06 0 0.515 0.06 0 0.52 0.06 0 0.525 0.06 0 0.53 0.06 0 0.535 0.06 0 0.54 0.06 0 0.545 0.06 0 0.55 0.06 0 0.555 0.06 0 0.56 0.06 0 0.565 0.06 0 0.57 0.06 0 0.575 0.06 0 0.58 0.06 0 0.585 0.06 0 0.59 0.06 0 0.595 0.06 0 0.6 0.06 0 0.605 0.06 0 0.61 0.06 0 0.615 0.06 0 0.62 0.06 0 0.625 0.06 0 0.63 0.06 0 0.635 0.06 0 0.64 0.06 0 0.645 0.06 0 0.65 0.06 0 0.655 0.06 0 0.66 0.06 0 0.665 0.06 0 0.67 0.06 0 0.675 0.06 0 0.68 0.06 0 0.685 0.06 0 0.69 0.06 0 0.695 0.06 0 0.7 0.06 0 0.705 0.06 0 0.71 0.06 0 0.715 0.06 0 0.72 0.06 0 0.725 0.06 0 0.73 0.06 0 0.735 0.06 0 0.74 0.06 0 0.745 0.06 0 0.75 0.06 0 0.755 0.06 0 0.76 0.06 0 0.765 0.06 0 0.77 0.06 0 0.775 0.06 0 0.78 0.06 0 0.785 0.06 0 0.79 0.06 0 0.795 0.06 0 0.8 0.06 0 0.805 0.06 0 0.81 0.06 0 0.815 0.06 0 0.82 0.06 0 0.825 0.06 0 0.83 0.06 0 0.835 0.06 0 0.84 0.06 0 0.845 0.06 0 0.85 0.06 0 0.855 0.06 0 0.86 0.06 0 0.865 0.06 0 0.87 0.06 0 0.875 0.06 0 0.88 0.06 0 0.885 0.06 0 0.89 0.06 0 0.895 0.06 0 0.9 0.06 0 0.905 0.06 0 0.91 0.06 0 0.915 0.06 0 0.92 0.06 0 0.925 0.06 0 0.93 0.06 0 0.935 0.06 0 0.94 0.06 0 0.945 0.06 0 0.95 0.06 0 0.955 0.06 0 0.96 0.06 0 0.965 0.06 0 0.97 0.06 0 0.975 0.06 0 0.98 0.06 0 0.985 0.06 0 0.99 0.06 0 0.995 0.06 0 1 0.06 0 0 0.08 0 0.005 0.08 0 0.01 0.08 0 0.015 0.08 0 0.02 0.08 0 0.025 0.08 0 0.03 0.08 0 0.035 0.08 0 0.04 0.08 0 0.045 0.08 0 0.05 0.08 0 0.055 0.08 0 0.06 0.08 0 0.065 0.08 0 0.07 0.08 0 0.075 0.08 0 0.08 0.08 0 0.085 0.08 0 0.09 0.08 0 0.095 0.08 0 0.1 0.08 0 0.105 0.08 0 0.11 0.08 0 0.115 0.08 0 0.12 0.08 0 0.125 0.08 0 0.13 0.08 0 0.135 0.08 0 0.14 0.08 0 0.145 0.08 0 0.15 0.08 0 0.155 0.08 0 0.16 0.08 0 0.165 0.08 0
[...]
			<PointData Scalars="VitesseX">
				<DataArray Name="VitesseX" type="Float32" format="ascii">
 0 9.21461e-15 -1.74831e-15 -3.58812e-14 -2.84861e-15 -1.62848e-14 -4.32434e-14 4.72325e-14 1.18663e-14 4.94275e-14 -4.73696e-14 3.81343e-14 -1.31902e-13 9.52306e-14 -8.34932e-14 -2.62045e-14 -1.60022e-14 -7.88724e-14 1.65316e-14 2.86171e-15 -1.16852e-13 -9.5789e-17 4.55933e-14 -6.88144e-14 -1.46188e-13 -3.08722e-14 -4.29231e-14 -1.32788e-13 -1.78883e-13 -4.76724e-14 -2.13615e-13 -1.94487e-13 -8.89648e-14 -2.53922e-13 -1.36079e-13 -9.13665e-14 -3.30996e-14 8.09542e-14 -1.13052e-13 2.93311e-13 -7.96109e-14 1.67437e-13 -6.1938e-14 6.12176e-14 -2.1987e-13 -1.04401e-13 -2.69017e-13 -3.53367e-15 -7.12302e-14 -7.968e-14 -2.96202e-13 7.30221e-14 1.51735e-13 -5.41969e-13 -1.27092e-13 4.7435e-14 -3.16674e-13 -1.19135e-13 -1.87445e-13 2.28177e-13 3.51784e-13 3.20233e-12 2.98099e-11 2.37822e-10 1.79602e-09 1.25908e-08 8.17126e-08 4.88614e-07 2.67846e-06 1.338e-05 6.04773e-05 0.000245219 0.000882708 0.00278678 0.00762027 0.0178914 0.0360397 0.0627325 0.0961602 0.133363 0.172039 0.211025 0.249887 0.288551 0.326945 0.365025 0.402755 0.440104 0.477046 0.513553 0.549597 0.585141 0.62014 0.654531 0.688229 0.72112 0.753045 0.783796 0.813103 0.840623 0.865945 0.888601 0.908093 0.92395 0.935773 0.943409 0.944351 0.943916 0.942846 0.941388 0.939744 0.938057 0.936425 0.934927 0.933621 0.932508 0.931409 0.929849 0.934059 0.957967 0.953877 0.937644 0.930986 0.929506 0.92919 0.929092 0.928901 0.92834 0.926913 0.923707 0.917031 0.90416 0.881123 0.842711 0.783424 0.69921 0.589927 0.461804 0.328401 0.206505 0.112271 0.0525567 0.0217902 0.00839642 0.00311186 0.00112994 0.000405071 0.000143738 5.0515e-05 1.75793e-05 6.05513e-06 2.06335e-06 6.95244e-07 2.31535e-07 7.61773e-08 2.47518e-08 7.93946e-09 2.513e-09 7.8473e-10 2.41319e-10 7.35751e-11 2.19749e-11 6.00004e-12 1.75288e-12 -3.54583e-13 -2.5406e-13 -3.96445e-13 2.33355e-13 -1.18801e-13 -9.39457e-13 3.50109e-14 -5.20165e-13 -1.72005e-13 6.19925e-13 -4.32613e-13 -8.71807e-14 4.33449e-13 -4.81466e-13 6.8893e-13 -2.72237e-13 4.90852e-13 -8.77306e-13 -4.67014e-13 1.88188e-13 2.15138e-13 -3.42531e-13 -2.32463e-13 -1.29588e-13 8.93194e-13 -1.03207e-12 1.59563e-14 4.4716e-13 3.4166e-13 2.64404e-13 -1.99226e-13 5.76724e-13 2.45288e-14 2.72872e-13 -5.65546e-13 -4.50881e-13 0 0 -1.38747e-14 -2.10479e-14 3.65082e-15 -4.94859e-14 -3.13052e-14 2.8154e-14 -1.22657e-14 1.8291e-14 -1.15689e-14 5.85659e-14 -4.54414e-14 7.29759e-14 -1.3505e-13 2.30031e-14 -1.12779e-14 -5.91873e-14 -2.84311e-14 -3.84625e-14 -3.01787e-14 3.10603e-14 -3.51146e-14 -9.92543e-14 -8.94422e-14 4.26625e-14 -7.47825e-14 -1.8972e-13 -4.16011e-14 -1.53225e-13 -7.15659e-14 -1.71798e-13 -1.60882e-13 -2.18945e-13 -8.93611e-14 -2.07637e-13 -2.7767e-15 -6.56499e-14 -1.20461e-13 1.46587e-13 -8.75691e-14 1.1917e-13 -1.34455e-13 7.02872e-14 -1.01865e-13 6.09261e-14 -2.32088e-13 -8.72167e-14 -2.08552e-13 -1.86307e-13 -1.54995e-13 1.21646e-13 -1.5834e-13 -2.92419e-13 1.13288e-13 -1.50593e-14 -2.95577e-13 -1.0356e-13 -1.69623e-13 -1.25196e-14 2.55987e-14 3.80495e-13 3.4856e-12 2.93097e-11 2.38144e-10 1.7957e-09 1.25913e-08 8.17126e-08 4.88614e-07 2.67846e-06 1.338e-05 6.04773e-05 0.000245219 0.000882708 0.00278678 0.00762027 0.0178914 0.0360397 0.0627325 0.0961602 0.133363 0.172039 0.211025 0.249887 0.288551 0.326945 0.365025 0.402755 0.440104 0.477046 0.513553 0.549597 0.585141 0.62014 0.654531 0.688229 0.72112 0.753045 0.783796 0.813103 0.840623 0.865945 0.888601 0.908093 0.92395 0.935773 0.943409 0.944351 0.943916 0.942846 0.941388 0.939744 0.938057 0.936425 0.934927 0.933621 0.932508 0.931409 0.929849 0.934059 0.957967 0.953877 0.937644 0.930986 0.929506 0.92919 0.929092 0.928901 0.92834 0.926913 0.923707 0.917031 0.90416 0.881123 0.842711 0.783424 0.69921 0.589927 0.461804 0.328401 0.206505 0.112271 0.0525567 0.0217902 0.00839642 0.00311186 0.00112994 0.000405071 0.000143738 5.0515e-05 1.75793e-05 6.05513e-06 2.06335e-06 6.95245e-07 2.31535e-07 7.61776e-08 2.47513e-08 7.9396e-09 2.51344e-09 7.84987e-10 2.4191e-10 7.29913e-11 2.16402e-11 6.44971e-12 1.37051e-12 7.2087e-13 -4.79937e-13 -4.60025e-13 -2.65296e-13 -4.14678e-13 8.16655e-14 -6.62774e-13 -8.65623e-14 -9.21991e-14 -6.55962e-13 4.02558e-13 3.35066e-14 1.48222e-13 2.27445e-13 -5.89249e-13 6.68691e-13 -5.8875e-13 2.43895e-13 -2.19358e-13 -2.88953e-13 -2.03142e-13 -2.42791e-13 1.22932e-13 -8.6832e-14 -7.45749e-13 2.42145e-13 -3.83322e-14 -1.83996e-13 2.20482e-13 2.07624e-13 1.09586e-12 -2.27869e-13 -1.59302e-13 -2.61329e-13 3.35191e-13 3.04334e-13 0 0 -1.23785e-14 -1.4089e-14 -3.93702e-14 -7.90507e-15 -1.47043e-14 -4.53463e-14 -1.63463e-14 -7.95549e-15 3.76701e-15 -5.46675e-15 5.90869e-14 -1.64484e-14 3.67031e-14 -7.32219e-14 -2.67701e-14 -7.3141e-15 6.38927e-15 1.05535e-14 -2.11902e-14 -5.48742e-14 -1.03771e-13 1.55511e-14 -1.25606e-14 -1.46415e-13 -7.40702e-14 -5.21314e-14 -5.63162e-14 -1.14332e-13 -1.18886e-13 -1.7958e-13 -1.13943e-13 -7.44871e-14 -1.88489e-13 -1.47729e-13 -1.64527e-13 -3.14329e-14 -3.10252e-14 4.7742e-14 -1.11468e-14 -1.72295e-13 -2.31813e-14 7.93266e-14 -1.09633e-13 -6.66325e-14 -1.46998e-13 -2.1987e-13 -2.11599e-13 2.63573e-14 -5.41246e-14 -2.28392e-14 -1.03393e-13 -1.83513e-13 1.58936e-13 -1.31191e-13 -1.47483e-13 -1.13854e-13 -1.22537e-13 -4.57979e-15 -7.58244e-14 2.90737e-13 3.63291e-12 2.94119e-11 2.37986e-10 1.79563e-09 1.25914e-08 8.17127e-08 4.88614e-07 2.67846e-06 1.338e-05 6.04773e-05 0.000245219 0.000882708 0.00278678 0.00762027 0.0178914 0.0360397 0.0627325 0.0961602 0.133363 0.172039 0.211025 0.249887 0.288551 0.326945 0.365025 0.402755 0.440104 0.477046 0.513553 0.549597 0.585141 0.62014 0.654531 0.688229 0.72112 0.753045 0.783796 0.813103 0.840623 0.865945 0.888601 0.908093 0.92395 0.935773 0.943409 0.944351 0.943916 0.942846 0.941388 0.939744 0.938057 0.936425 0.934927 0.933621 0.932508 0.931409 0.929849 0.934059 0.957967 0.953877 0.937644 0.930986 0.929506 0.92919 0.929092 0.928901 0.92834 0.926913 0.923707 0.917031 0.90416 0.881123 0.842711 0.783424 0.69921 0.589927 0.461804 0.328401 0.206505 0.112271 0.0525567 0.0217902 0.00839642 0.00311186 0.00112994 0.000405071 0.000143738 5.0515e-05 1.75793e-05 6.05513e-06 2.06335e-06 6.95244e-07 2.31535e-07 7.61773e-08 2.47518e-08 7.93975e-09 2.51379e-09 7.85251e-10 2.41776e-10 7.35572e-11 2.16072e-11 6.29488e-12 1.43956e-12 4.80346e-13 -7.13798e-14 -1.59102e-13 -7.46781e-13 -5.0126e-13 -1.50027e-14 -2.85543e-13 -2.40926e-13 -3.84535e-13 1.34384e-13 -1.24602e-13 1.54891e-13 -2.53098e-13 2.12313e-13 -1.04616e-13 -7.50712e-13 2.48532e-13 -8.7679e-15 -1.90678e-13 3.07647e-13 -6.58867e-13 -1.24013e-13 -2.28614e-13 -2.10001e-13 -2.55224e-13 -2.22053e-13 -2.43151e-13 3.74512e-13 1.75035e-13 2.04124e-13 -1.25277e-13 -3.06251e-14 -2.5783e-13 7.02192e-13 -2.89687e-13 -6.69638e-13 0 0 -9.9517e-15 -1.15162e-14 -2.60579e-14 -2.05956e-14 -3.27403e-14 -3.53826e-14 -1.39774e-14 -1.32254e-14 2.66565e-14 -2.5646e-14 6.24229e-14 -4.82727e-14 3.24235e-14 -2.55894e-14 -2.94121e-14 -2.03448e-14 2.54113e-14 1.54813e-14 1.86022e-14 -7.37761e-14 2.10768e-14 -9.21407e-14 -4.1816e-14 -9.50618e-14 -1.4924e-13 4.36572e-14 -1.80297e-13 -1.43235e-13 -7.11659e-14 -5.31926e-14 -1.20579e-13 -1.46977e-13 -5.91585e-14 -6.80943e-16 -1.33189e-13 -1.35986e-13 4.57288e-14 -1.08238e-13 -5.66067e-14 4.77941e-15 -4.08205e-14 -1.02594e-13 5.96709e-14 -1.94212e-13 5.48947e-14 -2.02995e-13 1.99072e-14 -7.15751e-14 -1.14499e-13 -5.76835e-14 3.58911e-15 2.61442e-14 1.24383e-13 -2.32277e-13 -5.47347e-14 -2.20085e-13 -2.55865e-13 -1.90138e-13 1.53303e-13 4.41731e-13 3.25024e-12 2.97883e-11 2.3798e-10 1.79581e-09 1.25912e-08 8.17126e-08 4.88615e-07 2.67846e-06 1.338e-05 6.04773e-05 0.000245219 0.000882708 0.00278678 0.00762027 0.0178914 0.0360397 0.0627325 0.0961602 0.133363 0.172039 0.211025 0.249887 0.288551 0.326945 0.365025 0.402755 0.440104 0.477046 0.513553 0.549597 0.585141 0.62014 0.654531 0.688229 0.72112 0.753045 0.783796 0.813103 0.840623 0.865945 0.888601 0.908093 0.92395 0.935773 0.943409 0.944351 0.943916 0.942846 0.941388 0.939744 0.938057 0.936425 0.934927 0.933621 0.932508 0.931409 0.929849 0.934059 0.957967 0.953877 0.937644 0.930986 0.929506 0.92919 0.929092 0.928901 0.92834 0.926913 0.923707 0.917031 0.90416 0.881123 0.842711 0.783424 0.69921 0.589927 0.461804 0.328401 0.206505 0.112271 0.0525567 0.0217902 0.00839642 0.00311186 0.00112994 0.000405071 0.000143738 5.0515e-05 1.75793e-05 6.05513e-06 2.06335e-06 6.95245e-07 2.31535e-07 7.61774e-08 2.47519e-08 7.93954e-09 2.51383e-09 7.85057e-10 2.42042e-10 7.36848e-11 2.19321e-11 6.24691e-12 1.923e-12 -1.94224e-13 4.24928e-14 -5.18705e-13 -7.53897e-14 -7.41448e-13 -6.06248e-13 2.26994e-13 -1.39578e-13 1.88514e-13 7.08457e-14 -2.41876e-13 -4.67849e-13 3.04412e-13 -5.8013e-13 5.04867e-13 -7.1279e-13 -1.48582e-13 -2.53195e-13 -1.19489e-13 -1.57272e-13 -1.81029e-13 -2.89249e-13 -4.01318e-14 -5.57249e-13 2.19165e-13 -5.30728e-13 3.8488e-13 -9.06823e-14 2.33118e-13 2.96326e-13 -2.62299e-13 3.21674e-13 8.16195e-14 -4.44817e-13 6.41048e-14 -1.04019e-13 0 0 -1.17176e-14 -1.14658e-14 7.08286e-15 -4.13501e-14 -3.96097e-14 2.77127e-14 -5.6752e-14 1.02673e-14 -2.1136e-14 4.5272e-14 -3.11649e-14 8.54672e-14 -1.05957e-13 4.29373e-14 1.12095e-14 -4.8074e-14 9.85349e-15 -2.4309e-14 -7.09561e-15 2.47351e-14 1.93593e-14 -2.16259e-13 -1.38756e-13 7.31843e-14 -1.29589e-13 -8.33661e-14 -9.77706e-14 -8.79051e-14 -7.81349e-14 -5.36725e-14 -1.74842e-13 -1.78732e-13 7.9459e-14 -1.40023e-14 4.13789e-14 -6.38157e-14 7.05573e-15 -3.40171e-14 -1.71718e-13 1.83587e-13 -1.88263e-13 -1.76358e-13 -8.10348e-14 3.40087e-14 -1.53271e-13 -2.79259e-14 -1.20535e-13 -2.19321e-13 -1.33915e-13 2.51576e-13 1.09407e-14 -9.56785e-14 1.21315e-13 -1.02598e-13 -2.42249e-13 -1.03922e-13 -2.57562e-13 -6.02426e-14 1.3672e-13 6.85852e-13 3.40259e-12 2.96557e-11 2.383e-10 1.79572e-09 1.25913e-08 8.17126e-08 4.88614e-07 2.67846e-06 1.338e-05 6.04773e-05 0.000245219 0.000882708 0.00278678 0.00762027 0.0178914 0.0360397 0.0627325 0.0961602 0.133363 0.172039 0.211025 0.249887 0.288551 0.326945 0.365025 0.402755 0.440104 0.477046 0.513553 0.549597 0.585141 0.62014 0.654531 0.688229 0.72112 0.753045 0.783796 0.813103 0.840623 0.865945 0.888601 0.908093 0.92395 0.935773 0.943409 0.944351 0.943916 0.942846 0.941388 0.939744 0.938057 0.936425 0.934927 0.933621 0.932508 0.931409 0.929849 0.934059 0.957967 0.953877 0.937644 0.930986 0.929506 0.92919 0.929092 0.928901 0.92834 0.926913 0.923707 0.917031 0.90416 0.881123 0.842711 0.783424 0.69921 0.589927 0.461804 0.328401 0.206505 0.112271 0.0525567 0.0217902 0.00839642 0.00311186 0.00112994 0.000405071 0.000143738 5.0515e-05 1.75793e-05 6.05513e-06 2.06335e-06 6.95245e-07 2.31535e-07 7.61777e-08 2.47514e-08 7.93974e-09 2.51353e-09 7.84878e-10 2.42251e-10 7.31319e-11 2.21806e-11 6.43189e-12 1.69099e-12 7.19114e-14 -5.81328e-14 -4.72164e-13 1.23258e-13 -6.80034e-13 -3.3952e-13 -2.74686e-13 3.09349e-15 2.7854e-13 -8.76041e-13 2.74342e-13 -3.64281e-13 2.87273e-13 3.62375e-13 -2.4925e-13 2.89354e-13 -7.02343e-13 1.54433e-13 -1.88405e-13 -5.84311e-13 -2.34445e-13 -3.57837e-13 4.59895e-14 -1.56356e-13 -5.59884e-13 -1.62162e-13 4.03016e-13 -3.55413e-13 2.29167e-13 3.51539e-15 8.83181e-13 -7.4373e-14 2.17469e-13 -1.17624e-12 7.08271e-13 7.74138e-13 0 0 8.67519e-15 1.22705e-14 -5.56416e-14 3.88041e-14 3.17818e-15 -6.40534e-14 -4.64779e-14 6.35855e-15 -1.54855e-14 -3.3599e-14 6.00153e-14 -4.32711e-14 1.61976e-13 -1.3889e-13 2.40543e-14 3.22858e-14 -4.03472e-14 3.4983e-14 -3.05568e-14 -9.16981e-14 -1.40844e-13 2.69674e-14 -1.08932e-13 -1.8785e-13 9.85566e-15 -2.1792e-14 2.83396e-15 9.56422e-15 -1.56251e-13 -2.30139e-13 -2.09136e-13 1.3644e-13 -1.74941e-13 -4.29042e-14 -6.57308e-14 1.79675e-13 1.8248e-13 -1.62299e-13 2.15933e-13 -3.04926e-13 9.50986e-14 -1.91387e-13 -2.35729e-13 -1.85464e-14 -3.50551e-13 -1.84186e-13 -2.90513e-13 5.86056e-14 8.32294e-14 3.33475e-14 1.97619e-13 1.25901e-13 -4.56809e-13 -9.99982e-14 -3.14064e-14 -1.04937e-13 -2.83571e-14 8.82244e-14 -7.83487e-15 6.60511e-13 3.80164e-12 2.9749e-11 2.38147e-10 1.79571e-09 1.25913e-08 8.17126e-08 4.88614e-07 2.67846e-06 1.338e-05 6.04773e-05 0.000245219 0.000882708 0.00278678 0.00762027 0.0178914 0.0360397 0.0627325 0.0961602 0.133363 0.172039 0.211025 0.249887 0.288551 0.326945 0.365025 0.402755 0.440104 0.477046 0.513553 0.549597 0.585141 0.62014 0.654531 0.688229 0.72112 0.753045 0.783796 0.813103 0.840623 0.865945 0.888601 0.908093 0.92395 0.935773 0.943409 0.944351 0.943916 0.942846 0.941388 0.939744 0.938057 0.936425 0.934927 0.933621 0.932508 0.931409 0.929849 0.934059 0.957967 0.953877 0.937644 0.930986 0.929506 0.92919 0.929092 0.928901 0.92834 0.926913 0.923707 0.917031 0.90416 0.881123 0.842711 0.783424 0.69921 0.589927 0.461804 0.328401 0.206505 0.112271 0.0525567 0.0217902 0.00839642 0.00311186 0.00112994 0.000405071 0.000143738 5.0515e-05 1.75793e-05 6.05513e-06 2.06335e-06 6.95244e-07 2.31535e-07 7.61772e-08 2.47518e-08 7.94017e-09 2.5131e-09 7.84901e-10 2.4147e-10 7.36012e-11 2.24057e-11 6.06033e-12 1.42695e-12 -3.0336e-13 3.61802e-13 2.98483e-13 -3.32318e-13 -1.69136e-13 -5.99337e-13 -2.13886e-13 -5.4355e-13 -5.76624e-13 3.06843e-13 -4.54496e-13 3.62723e-13 -4.03468e-13 1.37328e-12 1.49963e-13 -1.10675e-12 1.05789e-12 -5.67376e-13 -5.47486e-13 5.27309e-13 -8.03142e-13 -2.42151e-13 -7.63313e-13 4.25862e-13 3.16147e-13 -1.22334e-12 -3.5741e-13 1.03472e-12 2.42862e-13 -3.28218e-13 -3.50544e-13 1.79116e-13 9.9171e-14 7.37065e-13 -5.2697e-13 -6.42511e-13 0
				</DataArray>
				<DataArray Name="VitesseY" type="Float32" format="ascii">