<?xml version="1.0"?>
<VTKFile type="PolyData">
	<PolyData>
		<Piece NumberOfPoints="1206" NumberOfPolys="1000">
			<Points>
				<DataArray type="Float32" NumberOfComponents="3" format="ascii">
 0 0 0 0.005 0 0 0.01 0 0 0.015 0 0 0.02 0 0 0.025 0 0 0.03 0 0 0.035 0 0 0.04 0 0 0.045 0 0 0.05 0 0 0.055 0 0 0.06 0 0 0.065 0 0 0.07 0 0 0.075 0 0 0.08 0 0 0.085 0 0 0.09 0 0 0.095 0 0 0.1 0 0 0.105 0 0 0.11 0 0 0.115 0 0 0.12 0 0 0.125 0 0 0.13 0 0 0.135 0 0 0.14 0 0 0.145 0 0 0.15 0 0 0.155 0 0 0.16 0 0 0.165 0 0 0.17 0 0 0.175 0 0 0.18 0 0 0.185 0 0 0.19 0 0 0.195 0 0 0.2 0 0 0.205 0 0 0.21 0 0 0.215 0 0 0.22 0 0 0.225 0 0 0.23 0 0 0.235 0 0 0.24 0 0 0.245 0 0 0.25 0 0 0.255 0 0 0.26 0 0 0.265 0 0 0.27 0 0 0.275 0 0 0.28 0 0 0.285 0 0 0.29 0 0 0.295 0 0 0.3 0 0 0.305 0 0 0.31 0 0 0.315 0 0 0.32 0 0 0.325 0 0 0.33 0 0 0.335 0 0 0.34 0 0 0.345 0 0 0.35 0 0 0.355 0 0 0.36 0 0 0.365 0 0 0.37 0 0 0.375 0 0 0.38 0 0 0.385 0 0 0.39 0 0 0.395 0 0 0.4 0 0 0.405 0 0 0.41 0 0 0.415 0 0 0.42 0 0 0.425 0 0 0.43 0 0 0.435 0 0 0.44 0 0 0.445 0 0 0.45 0 0 0.455 0 0 0.46 0 0 0.465 0 0 0.47 0 0 0.475 0 0 0.48 0 0 0.485 0 0 0.49 0 0 0.495 0 0 0.5 0 0 0.505 0 0 0.51 0 0 0.515 0 0 0.52 0 0 0.525 0 0 0.53 0 0 0.535 0 0 0.54 0 0 0.545 0 0 0.55 0 0 0.555 0 0 0.56 0 0 0.565 0 0 0.57 0 0 0.575 0 0 0.58 0 0 0.585 0 0 0.59 0 0 0.595 0 0 0.6 0 0 0.605 0 0 0.61 0 0 0.615 0 0 0.62 0 0 0.625 0 0 0.63 0 0 0.635 0 0 0.64 0 0 0.645 0 0 0.65 0 0 0.655 0 0 0.66 0 0 0.665 0 0 0.67 0 0 0.675 0 0 0.68 0 0 0.685 0 0 0.69 0 0 0.695 0 0 0.7 0 0 0.705 0 0 0.71 0 0 0.715 0 0 0.72 0 0 0.725 0 0 0.73 0 0 0.735 0 0 0.74 0 0 0.745 0 0 0.75 0 0 0.755 0 0 0.76 0 0 0.765 0 0 0.77 0 0 0.775 0 0 0.78 0 0 0.785 0 0 0.79 0 0 0.795 0 0 0.8 0 0 0.805 0 0 0.81 0 0 0.815 0 0 0.82 0 0 0.825 0 0 0.83 0 0 0.835 0 0 0.84 0 0 0.845 0 0 0.85 0 0 0.855 0 0 0.86 0 0 0.865 0 0 0.87 0 0 0.875 0 0 0.88 0 0 0.885 0 0 0.89 0 0 0.895 0 0 0.9 0 0 0.905 0 0 0.91 0 0 0.915 0 0 0.92 0 0 0.925 0 0 0.93 0 0 0.935 0 0 0.94 0 0 0.945 0 0 0.95 0 0 0.955 0 0 0.96 0 0 0.965 0 0 0.97 0 0 0.975 0 0 0.98 0 0 0.985 0 0 0.99 0 0 0.995 0 0 1 0 0 0 0.02 0 0.005 0.02 0 0.01 0.02 0 0.015 0.02 0 0.02 0.02 0 0.025 0.02 0 0.03 0.02 0 0.035 0.02 0 0.04 0.02 0 0.045 0.02 0 0.05 0.02 0 0.055 0.02 0 0.06 0.02 0 0.065 0.02 0 0.07 0.02 0 0.075 0.02 0 0.08 0.02 0 0.085 0.02 0 0.09 0.02 0 0.095 0.02 0 0.1 0.02 0 0.105 0.02 0 0.11 0.02 0 0.115 0.02 0 0.12 0.02 0 0.125 0.02 0 0.13 0.02 0 0.135 0.02 0 0.14 0.02 0 0.145 0.02 0 0.15 0.02 0 0.155 0.02 0 0.16 0.02 0 0.165 0.02 0 0.17 0.02 0 0.175 0.02 0 0.18 0.02 0 0.185 0.02 0 0.19 0.02 0 0.195 0.02 0 0.2 0.02 0 0.205 0.02 0 0.21 0.02 0 0.215 0.02 0 0.22 0.02 0 0.225 0.02 0 0.23 0.02 0 0.235 0.02 0 0.24 0.02 0 0.245 0.02 0 0.25 0.02 0 0.255 0.02 0 0.26 0.02 0 0.265 0.02 0 0.27 0.02 0 0.275 0.02 0 0.28 0.02 0 0.285 0.02 0 0.29 0.02 0 0.295 0.02 0 0.3 0.02 0 0.305 0.02 0 0.31 0.02 0 0.315 0.02 0 0.32 0.02 0 0.325 0.02 0 0.33 0.02 0 0.335 0.02 0 0.34 0.02 0 0.345 0.02 0 0.35 0.02 0 0.355 0.02 0 0.36 0.02 0 0.365 0.02 0 0.37 0.02 0 0.375 0.02 0 0.38 0.02 0 0.385 0.02 0 0.39 0.02 0 0.395 0.02 0 0.4 0.02 0 0.405 0.02 0 0.41 0.02 0 0.415 0.02 0 0.42 0.02 0 0.425 0.02 0 0.43 0.02 0 0.435 0.02 0 0.44 0.02 0 0.445 0.02 0 0.45 0.02 0 0.455 0.02 0 0.46 0.02 0 0.465 0.02 0 0.47 0.02 0 0.475 0.02 0 0.48 0.02 0 0.485 0.02 0 0.49 0.02 0 0.495 0.02 0 0.5 0.02 0 0.505 0.02 0 0.51 0.02 0 0.515 0.02 0 0.52 0.02 0 0.525 0.02 0 0.53 0.02 0 0.535 0.02 0 0.54 0.02 0 0.545 0.02 0 0.55 0.02 0 0.555 0.02 0 0.56 0.02 0 0.565 0.02 0 0.57 0.02 0 0.575 0.02 0 0.58 0.02 0 0.585 0.02 0 0.59 0.02 0 0.595 0.02 0 0.6 0.02 0 0.605 0.02 0 0.61 0.02 0 0.615 0.02 0 0.62 0.02 0 0.625 0.02 0 0.63 0.02 0 0.635 0.02 0 0.64 0.02 0 0.645 0.02 0 0.65 0.02 0 0.655 0.02 0 0.66 0.02 0 0.665 0.02 0 0.67 0.02 0 0.675 0.02 0 0.68 0.02 0 0.685 0.02 0 0.69 0.02 0 0.695 0.02 0 0.7 0.02 0 0.705 0.02 0 0.71 0.02 0 0.715 0.02 0 0.72 0.02 0 0.725 0.02 0 0.73 0.02 0 0.735 0.02 0 0.74 0.02 0 0.745 0.02 0 0.75 0.02 0 0.755 0.02 0 0.76 0.02 0 0.765 0.02 0 0.77 0.02 0 0.775 0.02 0 0.78 0.02 0 0.785 0.02 0 0.79 0.02 0 0.795 0.02 0 0.8 0.02 0 0.805 0.02 0 0.81 0.02 0 0.815 0.02 0 0.82 0.02 0 0.825 0.02 0 0.83 0.02 0 0.835 0.02 0 0.84 0.02 0 0.845 0.02 0 0.85 0.02 0 0.855 0.02 0 0.86 0.02 0 0.865 0.02 0 0.87 0.02 0 0.875 0.02 0 0.88 0.02 0 0.885 0.02 0 0.89 0.02 0 0.895 0.02 0 0.9 0.02 0 0.905 0.02 0 0.91 0.02 0 0.915 0.02 0 0.92 0.02 0 0.925 0.02 0 0.93 0.02 0 0.935 0.02 0 0.94 0.02 0 0.945 0.02 0 0.95 0.02 0 0.955 0.02 0 0.96 0.02 0 0.965 0.02 0 0.97 0.02 0 0.975 0.02 0 0.98 0.02 0 0.985 0.02 0 0.99 0.02 0 0.995 0.02 0 1 0.02 0 0 0.04 0 0.005 0.04 0 0.01 0.04 0 0.015 0.04 0 0.02 0.04 0 0.025 0.04 0 0.03 0.04 0 0.035 0.04 0 0.04 0.04 0 0.045 0.04 0 0.05 0.04 0 0.055 0.04 0 0.06 0.04 0 0.065 0.04 0 0.07 0.04 0 0.075 0.04 0 0.08 0.04 0 0.085 0.04 0 0.09 0.04 0 0.095 0.04 0 0.1 0.04 0 0.105 0.04 0 0.11 0.04 0 0.115 0.04 0 0.12 0.04 0 0.125 0.04 0 0.13 0.04 0 0.135 0.04 0 0.14 0.04 0 0.145 0.04 0 0.15 0.04 0 0.155 0.04 0 0.16 0.04 0 0.165 0.04 0 0.17 0.04 0 0.175 0.04 0 0.18 0.04 0 0.185 0.04 0 0.19 0.04 0 0.195 0.04 0 0.2 0.04 0 0.205 0.04 0 0.21 0.04 0 0.215 0.04 0 0.22 0.04 0 0.225 0.04 0 0.23 0.04 0 0.235 0.04 0 0.24 0.04 0 0.245 0.04 0 0.25 0.04 0 0.255 0.04 0 0.26 0.04 0 0.265 0.04 0 0.27 0.04 0 0.275 0.04 0 0.28 0.04 0 0.285 0.04 0 0.29 0.04 0 0.295 0.04 0 0.3 0.04 0 0.305 0.04 0 0.31 0.04 0 0.315 0.04 0 0.32 0.04 0 0.325 0.04 0 0.33 0.04 0 0.335 0.04 0 0.34 0.04 0 0.345 0.04 0 0.35 0.04 0 0.355 0.04 0 0.36 0.04 0 0.365 0.04 0 0.37 0.04 0 0.375 0.04 0 0.38 0.04 0 0.385 0.04 0 0.39 0.04 0 0.395 0.04 0 0.4 0.04 0 0.405 0.04 0 0.41 0.04 0 0.415 0.04 0 0.42 0.04 0 0.425 0.04 0 0.43 0.04 0 0.435 0.04 0 0.44 0.04 0 0.445 0.04 0 0.45 0.04 0 0.455 0.04 0 0.46 0.04 0 0.465 0.04 0 0.47 0.04 0 0.475 0.04 0 0.48 0.04 0 0.485 0.04 0 0.49 0.04 0 0.495 0.04 0 0.5 0.04 0 0.505 0.04 0 0.51 0.04 0 0.515 0.04 0 0.52 0.04 0 0.525 0.04 0 0.53 0.04 0 0.535 0.04 0 0.54 0.04 0 0.545 0.04 0 0.55 0.04 0 0.555 0.04 0 0.56 0.04 0 0.565 0.04 0 0.57 0.04 0 0.575 0.04 0 0.58 0.04 0 0.585 0.04 0 0.59 0.04 0 0.595 0.04 0 0.6 0.04 0 0.605 0.04 0 0.61 0.04 0 0.615 0.04 0 0.62 0.04 0 0.625 0.04 0 0.63 0.04 0 0.635 0.04 0 0.64 0.04 0 0.645 0.04 0 0.65 0.04 0 0.655 0.04 0 0.66 0.04 0 0.665 0.04 0 0.67 0.04 0 0.675 0.04 0 0.68 0.04 0 0.685 0.04 0 0.69 0.04 0 0.695 0.04 0 0.7 0.04 0 0.705 0.04 0 0.71 0.04 0 0.715 0.04 0 0.72 0.04 0 0.725 0.04 0 0.73 0.04 0 0.735 0.04 0 0.74 0.04 0 0.745 0.04 0 0.75 0.04 0 0.755 0.04 0 0.76 0.04 0 0.765 0.04 0 0.77 0.04 0 0.775 0.04 0 0.78 0.04 0 0.785 0.04 0 0.79 0.04 0 0.795 0.04 0 0.8 0.04 0 0.805 0.04 0 0.81 0.04 0 0.815 0.04 0 0.82 0.04 0 0.825 0.04 0 0.83 0.04 0 0.835 0.04 0 0.84 0.04 0 0.845 0.04 0 0.85 0.04 0 0.855 0.04 0 0.86 0.04 0 0.865 0.04 0 0.87 0.04 0 0.875 0.04 0 0.88 0.04 0 0.885 0.04 0 0.89 0.04 0 0.895 0.04 0 0.9 0.04 0 0.905 0.04 0 0.91 0.04 0 0.915 0.04 0 0.92 0.04 0 0.925 0.04 0 0.93 0.04 0 0.935 0.04 0 0.94 0.04 0 0.945 0.04 0 0.95 0.04 0 0.955 0.04 0 0.96 0.04 0 0.965 0.04 0 0.97 0.04 0 0.975 0.04 0 0.98 0.04 0 0.985 0.04 0 0.99 0.04 0 0.995 0.04 0 1 0.04 0 0 0.06 0 0.005 0.06 0 0.01 0.06 0 0.015 0.06 0 0.02 0.06 0 0.025 0.06 0 0.03 0.06 0 0.035 0.06 0 0.04 0.06 0 0.045 0.06 0 0.05 0.06 0 0.055 0.06 0 0.06 0.06 0 0.065 0.06 0 0.07 0.06 0 0.075 0.06 0 0.08 0.06 0 0.085 0.06 0 0.09 0.06 0 0.095 0.06 0 0.1 0.06 0 0.105 0.06 0 0.11 0.06 0 0.115 0.06 0 0.12 0.06 0 0.125 0.06 0 0.13 0.06 0 0.135 0.06 0 0.14 0.06 0 0.145 0.06 0 0.15 0.06 0 0.155 0.06 0 0.16 0.06 0 0.165 0.06 0 0.17 0.06 0 0.175 0.06 0 0.18 0.06 0 0.185 0.06 0 0.19 0.06 0 0.195 0.06 0 0.2 0.06 0 0.205 0.06 0 0.21 0.06 0 0.215 0.06 0 0.22 0.06 0 0.225 0.06 0 0.23 0.06 0 0.235 0.06 0 0.24 0.06 0 0.245 0.06 0 0.25 0.06 0 0.255 0.06 0 0.26 0.06 0 0.265 0.06 0 0.27 0.06 0 0.275 0.06 0 0.28 0.06 0 0.285 0.06 0 0.29 0.06 0 0.295 0.06 0 0.3 0.06 0 0.305 0.06 0 0.31 0.06 0 0.315 0.06 0 0.32 0.06 0 0.325 0.06 0 0.33 0.06 0 0.335 0.06 0 0.34 0.06 0 0.345 0.06 0 0.35 0.06 0 0.355 0.06 0 0.36 0.06 0 0.365 0.06 0 0.37 0.06 0 0.375 0.06 0 0.38 0.06 0 0.385 0.06 0 0.39 0.06 0 0.395 0.06 0 0.4 0.06 0 0.405 0.06 0 0.41 0.06 0 0.415 0.06 0 0.42 0.06 0 0.425 0.06 0 0.43 0.06 0 0.435 0.06 0 0.44 0.06 0 0.445 0.06 0 0.45 0.06 0 0.455 0.06 0 0.46 0.06 0 0.465 0.06 0 0.47 0.06 0 0.475 0.06 0 0.48 0.06 0 0.485 0.06 0 0.49 0.06 0 0.495 0.06 0 0.5 0.06 0 0.505 0.06 0 0.51 0.06 0 0.515 0.06 0 0.52 0.06 0 0.525 0.06 0 0.53 0.06 0 0.535 0.06 0 0.54 0.06 0 0.545 0.06 0 0.55 0.06 0 0.555 0.06 0 0.56 0.06 0 0.565 0.06 0 0.57 0.06 0 0.575 0.06 0 0.58 0.06 0 0.585 0.06 0 0.59 0.06 0 0.595 0.06 0 0.6 0.06 0 0.605 0.06 0 0.61 0.06 0 0.615 0.06 0 0.62 0.06 0 0.625 0.06 0 0.63 0.06 0 0.635 0.06 0 0.64 0.06 0 0.645 0.06 0 0.65 0.06 0 0.655 0.06 0 0.66 0.06 0 0.665 0.06 0 0.67 0.06 0 0.675 0.06 0 0.68 0.06 0 0.685 0.06 0 0.69 0.06 0 0.695 0.06 0 0.7 0.06 0 0.705 0.06 0 0.71 0.06 0 0.715 0.06 0 0.72 0.06 0 0.725 0.06 0 0.73 0.06 0 0.735 0.06 0 0.74 0.06 0 0.745 0.06 0 0.75 0.06 0 0.755 0.06 0 0.76 0.06 0 0.765 0.06 0 0.77 0.06 0 0.775 0.06 0 0.78 0.06 0 0.785 0.06 0 0.79 0.06 0 0.795 0.06 0 0.8 0.06 0 0.805 0.06 0 0.81 0.06 0 0.815 0.06 0 0.82 0.06 0 0.825 0.06 0 0.83 0.06 0 0.835 0.06 0 0.84 0.06 0 0.845 0.06 0 0.85 0.06 0 0.855 0.06 0 0.86 0.06 0 0.865 0.06 0 0.87 0.06 0 0.875 0.06 0 0.88 0.06 0 0.885 0.06 0 0.89 0.06 0 0.895 0.06 0 0.9 0.06 0 0.905 0.06 0 0.91 0.06 0 0.915 0.06 0 0.92 0.06 0 0.925 0.06 0 0.93 0.06 0 0.935 0.06 0 0.94 0.06 0 0.945 0.06 0 0.95 0.06 0 0.955 0.06 0 0.96 0.06 0 0.965 0.06 0 0.97 0.06 0 0.975 0.06 0 0.98 0.06 0 0.985 0.06 0 0.99 0.06 0 0.995 0.06 0 1 0.06 0 0 0.08 0 0.005 0.08 0 0.01 0.08 0 0.015 0.08 0 0.02 0.08 0 0.025 0.08 0 0.03 0.08 0 0.035 0.08 0 0.04 0.08 0 0.045 0.08 0 0.05 0.08 0 0.055 0.08 0 0.06 0.08 0 0.065 0.08 0 0.07 0.08 0 0.075 0.08 0 0.08 0.08 0 0.085 0.08 0 0.09 0.08 0 0.095 0.08 0 0.1 0.08 0 0.105 0.08 0 0.11 0.08 0 0.115 0.08 0 0.12 0.08 0 0.125 0.08 0 0.13 0.08 0 0.135 0.08 0 0.14 0.08 0 0.145 0.08 0 0.15 0.08 0 0.155 0.08 0 0.16 0.08 0 0.165 0.08 0
[...]
			<PointData Scalars="VitesseX">
				<DataArray Name="VitesseX" type="Float32" format="ascii">
 0 1.54574e-15 3.79966e-15 1.25783e-14 -7.75418e-15 -6.66751e-15 7.45618e-15 -4.55442e-14 -3.72398e-14 -5.23673e-14 -6.5141e-15 -5.27995e-14 -1.40284e-14 -7.93498e-14 -8.32617e-14 -7.40615e-14 -1.32602e-13 1.19636e-14 -5.02616e-14 -1.08499e-13 -3.00813e-14 3.03005e-14 3.26048e-14 2.92842e-14 -1.16293e-13 1.05713e-13 4.3903e-14 -1.38254e-13 -6.57307e-15 8.18256e-15 -1.27373e-13 -5.97345e-14 -8.3325e-14 -8.12985e-14 -4.26588e-15 -6.82083e-14 6.66252e-14 -8.03095e-14 7.1406e-14 3.28718e-14 1.9504e-13 1.16569e-12 6.4707e-12 4.0569e-11 2.33649e-10 1.2835e-09 6.68776e-09 3.29515e-08 1.53174e-07 6.6984e-07 2.74696e-06 1.05253e-05 3.75207e-05 0.000123818 0.000376033 0.0010439 0.00262978 0.00597165 0.0121678 0.0222156 0.0364953 0.0545094 0.0751634 0.0973361 0.120251 0.143496 0.166878 0.190301 0.213716 0.237106 0.260457 0.283759 0.307002 0.330181 0.353288 0.376319 0.399268 0.422131 0.444903 0.46758 0.490157 0.512627 0.534985 0.557223 0.579333 0.601305 0.623126 0.64478 0.66625 0.687511 0.708534 0.729284 0.749716 0.769776 0.789396 0.808492 0.826964 0.844688 0.861513 0.877262 0.891726 0.90467 0.91585 0.92504 0.932086 0.936956 0.939834 0.939744 0.939352 0.938671 0.937836 0.936906 0.935937 0.934972 0.934043 0.933177 0.932396 0.931707 0.931114 0.930613 0.930193 0.929846 0.929558 0.92932 0.929121 0.928954 0.928811 0.928686 0.928562 0.9284 0.928491 0.926987 0.945509 0.946785 0.937102 0.929979 0.928286 0.92787 0.927747 0.9277 0.927674 0.927657 0.927645 0.927636 0.92763 0.927625 0.927615 0.927589 0.927524 0.927369 0.927029 0.926319 0.92488 0.922086 0.916823 0.907222 0.890351 0.862064 0.817289 0.751066 0.660433 0.546883 0.418456 0.289647 0.176726 0.0935244 0.043156 0.0179891 0.00708549 0.00271472 0.00102726 0.000386397 0.000144824 5.41304e-05 2.01786e-05 7.50126e-06 2.78016e-06 1.02702e-06 3.78032e-07 1.38606e-07 5.06063e-08 1.83924e-08 6.6523e-09 2.39318e-09 8.56444e-10 3.04277e-10 1.07619e-10 3.75223e-11 1.2541e-11 4.39749e-12 1.00328e-12 9.57911e-13 -3.48946e-13 1.90234e-13 8.16561e-13 -5.15761e-13 -5.57869e-13 2.50265e-13 2.80865e-13 1.76361e-13 0 0 -1.6346e-15 -3.12429e-15 -2.03175e-15 -7.41172e-15 -8.53993e-15 -3.73325e-14 -2.81711e-15 -4.52655e-14 -2.53925e-14 -6.69909e-14 -1.74893e-14 -6.46388e-14 -5.87393e-14 -4.49901e-14 -5.34244e-14 -4.02604e-14 -1.41585e-13 -5.24404e-14 -1.70671e-14 8.56525e-15 -2.53287e-14 5.76998e-15 -8.67766e-14 8.59447e-14 -2.62976e-14 -4.2574e-14 -4.83868e-14 -8.02077e-14 -5.82729e-14 5.07668e-14 -1.37541e-13 -7.8898e-16 -6.13684e-14 -7.29646e-14 -2.06836e-14 -7.87435e-14 2.19991e-14 -4.15165e-14 7.29156e-14 2.32624e-13 9.78093e-13 6.78731e-12 4.03247e-11 2.3356e-10 1.28372e-09 6.6876e-09 3.29518e-08 1.53174e-07 6.6984e-07 2.74696e-06 1.05253e-05 3.75207e-05 0.000123818 0.000376033 0.0010439 0.00262978 0.00597165 0.0121678 0.0222156 0.0364953 0.0545094 0.0751634 0.0973361 0.120251 0.143496 0.166878 0.190301 0.213716 0.237106 0.260457 0.283759 0.307002 0.330181 0.353288 0.376319 0.399268 0.422131 0.444903 0.46758 0.490157 0.512627 0.534985 0.557223 0.579333 0.601305 0.623126 0.64478 0.66625 0.687511 0.708534 0.729284 0.749716 0.769776 0.789396 0.808492 0.826964 0.844688 0.861513 0.877262 0.891726 0.90467 0.91585 0.92504 0.932086 0.936956 0.939834 0.939744 0.939352 0.938671 0.937836 0.936906 0.935937 0.934972 0.934043 0.933177 0.932396 0.931707 0.931114 0.930613 0.930193 0.929846 0.929558 0.92932 0.929121 0.928954 0.928811 0.928686 0.928562 0.9284 0.928491 0.926987 0.945509 0.946785 0.937102 0.929979 0.928286 0.92787 0.927747 0.9277 0.927674 0.927657 0.927645 0.927636 0.92763 0.927625 0.927615 0.927589 0.927524 0.927369 0.927029 0.926319 0.92488 0.922086 0.916823 0.907222 0.890351 0.862064 0.817289 0.751066 0.660433 0.546883 0.418456 0.289647 0.176726 0.0935244 0.043156 0.0179891 0.00708549 0.00271472 0.00102726 0.000386397 0.000144824 5.41304e-05 2.01786e-05 7.50125e-06 2.78016e-06 1.02702e-06 3.78032e-07 1.38606e-07 5.06059e-08 1.8393e-08 6.65203e-09 2.3935e-09 8.55992e-10 3.04488e-10 1.07237e-10 3.76025e-11 1.32157e-11 4.2679e-12 1.22336e-12 -1.59392e-13 7.90553e-13 1.72094e-13 -7.3092e-13 5.02918e-13 3.13901e-13 -1.73827e-13 -1.32532e-13 1.30389e-13 0 0 -8.07488e-15 -1.27654e-14 -2.58119e-14 -7.89513e-15 -3.02015e-14 -2.42291e-14 -5.07523e-14 -4.47445e-14 -1.72259e-14 -4.62043e-14 -6.72535e-14 -4.80286e-14 -3.52539e-14 -8.54555e-14 -3.09003e-14 2.02404e-14 -8.85856e-14 -2.98072e-14 -3.02769e-14 -4.56535e-14 3.06278e-14 -1.1176e-15 -1.2157e-14 -3.10473e-14 -5.46592e-14 -6.6727e-14 -5.90679e-14 -1.39676e-13 -1.14161e-14 -6.91972e-14 3.21573e-14 -6.04959e-14 -1.16018e-13 5.98153e-14 -1.36972e-13 3.72968e-15 -1.6628e-13 -3.26373e-14 6.91624e-14 2.25677e-13 1.04742e-12 6.74867e-12 4.0304e-11 2.33638e-10 1.28381e-09 6.68756e-09 3.29518e-08 1.53174e-07 6.6984e-07 2.74696e-06 1.05253e-05 3.75207e-05 0.000123818 0.000376033 0.0010439 0.00262978 0.00597165 0.0121678 0.0222156 0.0364953 0.0545094 0.0751634 0.0973361 0.120251 0.143496 0.166878 0.190301 0.213716 0.237106 0.260457 0.283759 0.307002 0.330181 0.353288 0.376319 0.399268 0.422131 0.444903 0.46758 0.490157 0.512627 0.534985 0.557223 0.579333 0.601305 0.623126 0.64478 0.66625 0.687511 0.708534 0.729284 0.749716 0.769776 0.789396 0.808492 0.826964 0.844688 0.861513 0.877262 0.891726 0.90467 0.91585 0.92504 0.932086 0.936956 0.939834 0.939744 0.939352 0.938671 0.937836 0.936906 0.935937 0.934972 0.934043 0.933177 0.932396 0.931707 0.931114 0.930613 0.930193 0.929846 0.929558 0.92932 0.929121 0.928954 0.928811 0.928686 0.928562 0.9284 0.928491 0.926987 0.945509 0.946785 0.937102 0.929979 0.928286 0.92787 0.927747 0.9277 0.927674 0.927657 0.927645 0.927636 0.92763 0.927625 0.927615 0.927589 0.927524 0.927369 0.927029 0.926319 0.92488 0.922086 0.916823 0.907222 0.890351 0.862064 0.817289 0.751066 0.660433 0.546883 0.418456 0.289647 0.176726 0.0935244 0.043156 0.0179891 0.00708549 0.00271472 0.00102726 0.000386397 0.000144824 5.41304e-05 2.01786e-05 7.50125e-06 2.78016e-06 1.02702e-06 3.78032e-07 1.38606e-07 5.06062e-08 1.83927e-08 6.65253e-09 2.39337e-09 8.56373e-10 3.04083e-10 1.07509e-10 3.75408e-11 1.29831e-11 3.917e-12 1.55e-12 2.88484e-13 -4.75466e-14 -1.88534e-13 2.35733e-13 2.14716e-13 -7.25297e-14 -4.23653e-13 5.01002e-13 -2.40216e-13 0 0 -9.58768e-15 -1.59557e-14 -1.34753e-14 -8.79814e-15 -2.98238e-14 -9.16851e-15 -7.70676e-14 -5.97788e-14 -5.78121e-14 -5.34193e-14 -6.28844e-14 -1.89028e-14 -4.78654e-14 -7.98941e-14 -3.17701e-16 -9.41103e-14 7.0952e-14 -3.19695e-14 -6.20374e-15 2.96382e-14 -4.59485e-14 -2.04677e-14 1.52529e-14 -1.11502e-13 -3.93384e-14 -8.24921e-14 -8.17406e-14 -3.39565e-14 -5.09429e-14 -8.343e-14 -5.98295e-14 -6.21185e-14 -3.89043e-14 -1.37107e-13 -7.50315e-14 -8.5499e-14 1.63914e-14 -6.97472e-15 1.53517e-14 2.28758e-13 1.07806e-12 6.76401e-12 4.05408e-11 2.33622e-10 1.28369e-09 6.68781e-09 3.29517e-08 1.53174e-07 6.6984e-07 2.74696e-06 1.05253e-05 3.75207e-05 0.000123818 0.000376033 0.0010439 0.00262978 0.00597165 0.0121678 0.0222156 0.0364953 0.0545094 0.0751634 0.0973361 0.120251 0.143496 0.166878 0.190301 0.213716 0.237106 0.260457 0.283759 0.307002 0.330181 0.353288 0.376319 0.399268 0.422131 0.444903 0.46758 0.490157 0.512627 0.534985 0.557223 0.579333 0.601305 0.623126 0.64478 0.66625 0.687511 0.708534 0.729284 0.749716 0.769776 0.789396 0.808492 0.826964 0.844688 0.861513 0.877262 0.891726 0.90467 0.91585 0.92504 0.932086 0.936956 0.939834 0.939744 0.939352 0.938671 0.937836 0.936906 0.935937 0.934972 0.934043 0.933177 0.932396 0.931707 0.931114 0.930613 0.930193 0.929846 0.929558 0.92932 0.929121 0.928954 0.928811 0.928686 0.928562 0.9284 0.928491 0.926987 0.945509 0.946785 0.937102 0.929979 0.928286 0.92787 0.927747 0.9277 0.927674 0.927657 0.927645 0.927636 0.92763 0.927625 0.927615 0.927589 0.927524 0.927369 0.927029 0.926319 0.92488 0.922086 0.916823 0.907222 0.890351 0.862064 0.817289 0.751066 0.660433 0.546883 0.418456 0.289647 0.176726 0.0935244 0.043156 0.0179891 0.00708549 0.00271472 0.00102726 0.000386397 0.000144824 5.41304e-05 2.01786e-05 7.50125e-06 2.78016e-06 1.02702e-06 3.78032e-07 1.38606e-07 5.0606e-08 1.83929e-08 6.65218e-09 2.39361e-09 8.56384e-10 3.04465e-10 1.07525e-10 3.73704e-11 1.23313e-11 4.19812e-12 1.33991e-12 6.62864e-13 -3.83437e-13 -1.46189e-13 1.78617e-13 -2.96566e-13 -3.24733e-13 2.45162e-13 1.34382e-13 7.97423e-13 0 0 -5.10767e-15 -1.1409e-14 -1.27168e-14 -8.32913e-15 -1.61008e-14 -3.61831e-14 -1.53394e-14 -4.85392e-14 -6.9842e-14 -8.82542e-14 -3.05489e-14 -4.40179e-14 -3.06836e-14 -1.38525e-14 -3.30484e-14 -7.51303e-14 -1.17642e-16 7.22568e-15 -1.47695e-14 2.8561e-14 -1.04426e-13 -2.85447e-14 -1.19789e-13 2.44017e-14 -8.68724e-14 -6.20761e-14 -5.35871e-14 -4.41603e-14 -8.98974e-14 -4.67469e-14 -1.63442e-13 9.12965e-15 3.7084e-16 -2.24475e-13 5.43174e-14 -3.91269e-14 1.3549e-13 -8.33455e-14 2.98781e-14 1.46621e-13 1.09162e-12 6.82596e-12 4.04827e-11 2.33611e-10 1.28371e-09 6.68782e-09 3.29517e-08 1.53174e-07 6.6984e-07 2.74696e-06 1.05253e-05 3.75207e-05 0.000123818 0.000376033 0.0010439 0.00262978 0.00597165 0.0121678 0.0222156 0.0364953 0.0545094 0.0751634 0.0973361 0.120251 0.143496 0.166878 0.190301 0.213716 0.237106 0.260457 0.283759 0.307002 0.330181 0.353288 0.376319 0.399268 0.422131 0.444903 0.46758 0.490157 0.512627 0.534985 0.557223 0.579333 0.601305 0.623126 0.64478 0.66625 0.687511 0.708534 0.729284 0.749716 0.769776 0.789396 0.808492 0.826964 0.844688 0.861513 0.877262 0.891726 0.90467 0.91585 0.92504 0.932086 0.936956 0.939834 0.939744 0.939352 0.938671 0.937836 0.936906 0.935937 0.934972 0.934043 0.933177 0.932396 0.931707 0.931114 0.930613 0.930193 0.929846 0.929558 0.92932 0.929121 0.928954 0.928811 0.928686 0.928562 0.9284 0.928491 0.926987 0.945509 0.946785 0.937102 0.929979 0.928286 0.92787 0.927747 0.9277 0.927674 0.927657 0.927645 0.927636 0.92763 0.927625 0.927615 0.927589 0.927524 0.927369 0.927029 0.926319 0.92488 0.922086 0.916823 0.907222 0.890351 0.862064 0.817289 0.751066 0.660433 0.546883 0.418456 0.289647 0.176726 0.0935244 0.043156 0.0179891 0.00708549 0.00271472 0.00102726 0.000386397 0.000144824 5.41304e-05 2.01786e-05 7.50125e-06 2.78017e-06 1.02702e-06 3.78032e-07 1.38606e-07 5.06059e-08 1.83932e-08 6.65213e-09 2.39368e-09 8.56033e-10 3.04807e-10 1.07191e-10 3.73026e-11 1.2798e-11 4.15859e-12 7.9626e-13 -2.39678e-13 6.3208e-13 3.47551e-14 -1.1189e-12 -8.82789e-14 3.45807e-13 2.2693e-13 -2.79433e-13 7.25693e-13 0 0 -2.37481e-15 -6.38899e-15 -3.3465e-14 -7.78298e-15 -2.25446e-14 -2.03664e-14 -1.79581e-14 -1.37185e-14 -6.00938e-14 -3.46105e-14 -8.7657e-14 -3.10383e-14 1.98457e-15 -3.21092e-14 -9.44748e-14 2.636e-14 -2.4177e-14 7.33952e-14 -1.5205e-13 -1.40673e-13 2.52584e-14 2.67553e-15 -9.15595e-14 -7.84696e-14 -4.60782e-14 3.64291e-14 -1.0331e-13 -1.45917e-13 2.39873e-14 -2.93935e-13 7.2437e-14 -6.02426e-14 -1.12048e-13 8.65591e-14 -4.20879e-14 3.24316e-13 -2.18671e-13 -6.35772e-14 5.44183e-14 1.68717e-14 1.33146e-12 6.51731e-12 4.04115e-11 2.33781e-10 1.28373e-09 6.68769e-09 3.29517e-08 1.53174e-07 6.69839e-07 2.74696e-06 1.05253e-05 3.75207e-05 0.000123818 0.000376033 0.0010439 0.00262978 0.00597165 0.0121678 0.0222156 0.0364953 0.0545094 0.0751634 0.0973361 0.120251 0.143496 0.166878 0.190301 0.213716 0.237106 0.260457 0.283759 0.307002 0.330181 0.353288 0.376319 0.399268 0.422131 0.444903 0.46758 0.490157 0.512627 0.534985 0.557223 0.579333 0.601305 0.623126 0.64478 0.66625 0.687511 0.708534 0.729284 0.749716 0.769776 0.789396 0.808492 0.826964 0.844688 0.861513 0.877262 0.891726 0.90467 0.91585 0.92504 0.932086 0.936956 0.939834 0.939744 0.939352 0.938671 0.937836 0.936906 0.935937 0.934972 0.934043 0.933177 0.932396 0.931707 0.931114 0.930613 0.930193 0.929846 0.929558 0.92932 0.929121 0.928954 0.928811 0.928686 0.928562 0.9284 0.928491 0.926987 0.945509 0.946785 0.937102 0.929979 0.928286 0.92787 0.927747 0.9277 0.927674 0.927657 0.927645 0.927636 0.92763 0.927625 0.927615 0.927589 0.927524 0.927369 0.927029 0.926319 0.92488 0.922086 0.916823 0.907222 0.890351 0.862064 0.817289 0.751066 0.660433 0.546883 0.418456 0.289647 0.176726 0.0935244 0.043156 0.0179891 0.00708549 0.00271472 0.00102726 0.000386397 0.000144824 5.41304e-05 2.01786e-05 7.50126e-06 2.78017e-06 1.02702e-06 3.78032e-07 1.38606e-07 5.06068e-08 1.83924e-08 6.65319e-09 2.39304e-09 8.56504e-10 3.04151e-10 1.07497e-10 3.72632e-11 1.30094e-11 3.61662e-12 5.69251e-13 4.85787e-14 5.88756e-15 -1.69134e-13 1.54827e-13 -6.75591e-13 1.03489e-14 -2.85849e-13 7.20304e-13 -7.0831e-13 0
				</DataArray>
				<DataArray Name="VitesseY" type="Float32" format="ascii">