<?xml version="1.0"?>
<VTKFile type="PolyData">
	<PolyData>
		<Piece NumberOfPoints="1206" NumberOfPolys="1000">
			<Points>
				<DataArray type="Float32" NumberOfComponents="3" format="ascii">
 0 0 0 0.005 0 0 0.01 0 0 0.015 0 0 0.02 0 0 0.025 0 0 0.03 0 0 0.035 0 0 0.04 0 0 0.045 0 0 0.05 0 0 0.055 0 0 0.06 0 0 0.065 0 0 0.07 0 0 0.075 0 0 0.08 0 0 0.085 0 0 0.09 0 0 0.095 0 0 0.1 0 0 0.105 0 0 0.11 0 0 0.115 0 0 0.12 0 0 0.125 0 0 0.13 0 0 0.135 0 0 0.14 0 0 0.145 0 0 0.15 0 0 0.155 0 0 0.16 0 0 0.165 0 0 0.17 0 0 0.175 0 0 0.18 0 0 0.185 0 0 0.19 0 0 0.195 0 0 0.2 0 0 0.205 0 0 0.21 0 0 0.215 0 0 0.22 0 0 0.225 0 0 0.23 0 0 0.235 0 0 0.24 0 0 0.245 0 0 0.25 0 0 0.255 0 0 0.26 0 0 0.265 0 0 0.27 0 0 0.275 0 0 0.28 0 0 0.285 0 0 0.29 0 0 0.295 0 0 0.3 0 0 0.305 0 0 0.31 0 0 0.315 0 0 0.32 0 0 0.325 0 0 0.33 0 0 0.335 0 0 0.34 0 0 0.345 0 0 0.35 0 0 0.355 0 0 0.36 0 0 0.365 0 0 0.37 0 0 0.375 0 0 0.38 0 0 0.385 0 0 0.39 0 0 0.395 0 0 0.4 0 0 0.405 0 0 0.41 0 0 0.415 0 0 0.42 0 0 0.425 0 0 0.43 0 0 0.435 0 0 0.44 0 0 0.445 0 0 0.45 0 0 0.455 0 0 0.46 0 0 0.465 0 0 0.47 0 0 0.475 0 0 0.48 0 0 0.485 0 0 0.49 0 0 0.495 0 0 0.5 0 0 0.505 0 0 0.51 0 0 0.515 0 0 0.52 0 0 0.525 0 0 0.53 0 0 0.535 0 0 0.54 0 0 0.545 0 0 0.55 0 0 0.555 0 0 0.56 0 0 0.565 0 0 0.57 0 0 0.575 0 0 0.58 0 0 0.585 0 0 0.59 0 0 0.595 0 0 0.6 0 0 0.605 0 0 0.61 0 0 0.615 0 0 0.62 0 0 0.625 0 0 0.63 0 0 0.635 0 0 0.64 0 0 0.645 0 0 0.65 0 0 0.655 0 0 0.66 0 0 0.665 0 0 0.67 0 0 0.675 0 0 0.68 0 0 0.685 0 0 0.69 0 0 0.695 0 0 0.7 0 0 0.705 0 0 0.71 0 0 0.715 0 0 0.72 0 0 0.725 0 0 0.73 0 0 0.735 0 0 0.74 0 0 0.745 0 0 0.75 0 0 0.755 0 0 0.76 0 0 0.765 0 0 0.77 0 0 0.775 0 0 0.78 0 0 0.785 0 0 0.79 0 0 0.795 0 0 0.8 0 0 0.805 0 0 0.81 0 0 0.815 0 0 0.82 0 0 0.825 0 0 0.83 0 0 0.835 0 0 0.84 0 0 0.845 0 0 0.85 0 0 0.855 0 0 0.86 0 0 0.865 0 0 0.87 0 0 0.875 0 0 0.88 0 0 0.885 0 0 0.89 0 0 0.895 0 0 0.9 0 0 0.905 0 0 0.91 0 0 0.915 0 0 0.92 0 0 0.925 0 0 0.93 0 0 0.935 0 0 0.94 0 0 0.945 0 0 0.95 0 0 0.955 0 0 0.96 0 0 0.965 0 0 0.97 0 0 0.975 0 0 0.98 0 0 0.985 0 0 0.99 0 0 0.995 0 0 1 0 0 0 0.02 0 0.005 0.02 0 0.01 0.02 0 0.015 0.02 0 0.02 0.02 0 0.025 0.02 0 0.03 0.02 0 0.035 0.02 0 0.04 0.02 0 0.045 0.02 0 0.05 0.02 0 0.055 0.02 0 0.06 0.02 0 0.065 0.02 0 0.07 0.02 0 0.075 0.02 0 0.08 0.02 0 0.085 0.02 0 0.09 0.02 0 0.095 0.02 0 0.1 0.02 0 0.105 0.02 0 0.11 0.02 0 0.115 0.02 0 0.12 0.02 0 0.125 0.02 0 0.13 0.02 0 0.135 0.02 0 0.14 0.02 0 0.145 0.02 0 0.15 0.02 0 0.155 0.02 0 0.16 0.02 0 0.165 0.02 0 0.17 0.02 0 0.175 0.02 0 0.18 0.02 0 0.185 0.02 0 0.19 0.02 0 0.195 0.02 0 0.2 0.02 0 0.205 0.02 0 0.21 0.02 0 0.215 0.02 0 0.22 0.02 0 0.225 0.02 0 0.23 0.02 0 0.235 0.02 0 0.24 0.02 0 0.245 0.02 0 0.25 0.02 0 0.255 0.02 0 0.26 0.02 0 0.265 0.02 0 0.27 0.02 0 0.275 0.02 0 0.28 0.02 0 0.285 0.02 0 0.29 0.02 0 0.295 0.02 0 0.3 0.02 0 0.305 0.02 0 0.31 0.02 0 0.315 0.02 0 0.32 0.02 0 0.325 0.02 0 0.33 0.02 0 0.335 0.02 0 0.34 0.02 0 0.345 0.02 0 0.35 0.02 0 0.355 0.02 0 0.36 0.02 0 0.365 0.02 0 0.37 0.02 0 0.375 0.02 0 0.38 0.02 0 0.385 0.02 0 0.39 0.02 0 0.395 0.02 0 0.4 0.02 0 0.405 0.02 0 0.41 0.02 0 0.415 0.02 0 0.42 0.02 0 0.425 0.02 0 0.43 0.02 0 0.435 0.02 0 0.44 0.02 0 0.445 0.02 0 0.45 0.02 0 0.455 0.02 0 0.46 0.02 0 0.465 0.02 0 0.47 0.02 0 0.475 0.02 0 0.48 0.02 0 0.485 0.02 0 0.49 0.02 0 0.495 0.02 0 0.5 0.02 0 0.505 0.02 0 0.51 0.02 0 0.515 0.02 0 0.52 0.02 0 0.525 0.02 0 0.53 0.02 0 0.535 0.02 0 0.54 0.02 0 0.545 0.02 0 0.55 0.02 0 0.555 0.02 0 0.56 0.02 0 0.565 0.02 0 0.57 0.02 0 0.575 0.02 0 0.58 0.02 0 0.585 0.02 0 0.59 0.02 0 0.595 0.02 0 0.6 0.02 0 0.605 0.02 0 0.61 0.02 0 0.615 0.02 0 0.62 0.02 0 0.625 0.02 0 0.63 0.02 0 0.635 0.02 0 0.64 0.02 0 0.645 0.02 0 0.65 0.02 0 0.655 0.02 0 0.66 0.02 0 0.665 0.02 0 0.67 0.02 0 0.675 0.02 0 0.68 0.02 0 0.685 0.02 0 0.69 0.02 0 0.695 0.02 0 0.7 0.02 0 0.705 0.02 0 0.71 0.02 0 0.715 0.02 0 0.72 0.02 0 0.725 0.02 0 0.73 0.02 0 0.735 0.02 0 0.74 0.02 0 0.745 0.02 0 0.75 0.02 0 0.755 0.02 0 0.76 0.02 0 0.765 0.02 0 0.77 0.02 0 0.775 0.02 0 0.78 0.02 0 0.785 0.02 0 0.79 0.02 0 0.795 0.02 0 0.8 0.02 0 0.805 0.02 0 0.81 0.02 0 0.815 0.02 0 0.82 0.02 0 0.825 0.02 0 0.83 0.02 0 0.835 0.02 0 0.84 0.02 0 0.845 0.02 0 0.85 0.02 0 0.855 0.02 0 0.86 0.02 0 0.865 0.02 0 0.87 0.02 0 0.875 0.02 0 0.88 0.02 0 0.885 0.02 0 0.89 0.02 0 0.895 0.02 0 0.9 0.02 0 0.905 0.02 0 0.91 0.02 0 0.915 0.02 0 0.92 0.02 0 0.925 0.02 0 0.93 0.02 0 0.935 0.02 0 0.94 0.02 0 0.945 0.02 0 0.95 0.02 0 0.955 0.02 0 0.96 0.02 0 0.965 0.02 0 0.97 0.02 0 0.975 0.02 0 0.98 0.02 0 0.985 0.02 0 0.99 0.02 0 0.995 0.02 0 1 0.02 0 0 0.04 0 0.005 0.04 0 0.01 0.04 0 0.015 0.04 0 0.02 0.04 0 0.025 0.04 0 0.03 0.04 0 0.035 0.04 0 0.04 0.04 0 0.045 0.04 0 0.05 0.04 0 0.055 0.04 0 0.06 0.04 0 0.065 0.04 0 0.07 0.04 0 0.075 0.04 0 0.08 0.04 0 0.085 0.04 0 0.09 0.04 0 0.095 0.04 0 0.1 0.04 0 0.105 0.04 0 0.11 0.04 0 0.115 0.04 0 0.12 0.04 0 0.125 0.04 0 0.13 0.04 0 0.135 0.04 0 0.14 0.04 0 0.145 0.04 0 0.15 0.04 0 0.155 0.04 0 0.16 0.04 0 0.165 0.04 0 0.17 0.04 0 0.175 0.04 0 0.18 0.04 0 0.185 0.04 0 0.19 0.04 0 0.195 0.04 0 0.2 0.04 0 0.205 0.04 0 0.21 0.04 0 0.215 0.04 0 0.22 0.04 0 0.225 0.04 0 0.23 0.04 0 0.235 0.04 0 0.24 0.04 0 0.245 0.04 0 0.25 0.04 0 0.255 0.04 0 0.26 0.04 0 0.265 0.04 0 0.27 0.04 0 0.275 0.04 0 0.28 0.04 0 0.285 0.04 0 0.29 0.04 0 0.295 0.04 0 0.3 0.04 0 0.305 0.04 0 0.31 0.04 0 0.315 0.04 0 0.32 0.04 0 0.325 0.04 0 0.33 0.04 0 0.335 0.04 0 0.34 0.04 0 0.345 0.04 0 0.35 0.04 0 0.355 0.04 0 0.36 0.04 0 0.365 0.04 0 0.37 0.04 0 0.375 0.04 0 0.38 0.04 0 0.385 0.04 0 0.39 0.04 0 0.395 0.04 0 0.4 0.04 0 0.405 0.04 0 0.41 0.04 0 0.415 0.04 0 0.42 0.04 0 0.425 0.04 0 0.43 0.04 0 0.435 0.04 0 0.44 0.04 0 0.445 0.04 0 0.45 0.04 0 0.455 0.04 0 0.46 0.04 0 0.465 0.04 0 0.47 0.04 0 0.475 0.04 0 0.48 0.04 0 0.485 0.04 0 0.49 0.04 0 0.495 0.04 0 0.5 0.04 0 0.505 0.04 0 0.51 0.04 0 0.515 0.04 0 0.52 0.04 0 0.525 0.04 0 0.53 0.04 0 0.535 0.04 0 0.54 0.04 0 0.545 0.04 0 0.55 0.04 0 0.555 0.04 0 0.56 0.04 0 0.565 0.04 0 0.57 0.04 0 0.575 0.04 0 0.58 0.04 0 0.585 0.04 0 0.59 0.04 0 0.595 0.04 0 0.6 0.04 0 0.605 0.04 0 0.61 0.04 0 0.615 0.04 0 0.62 0.04 0 0.625 0.04 0 0.63 0.04 0 0.635 0.04 0 0.64 0.04 0 0.645 0.04 0 0.65 0.04 0 0.655 0.04 0 0.66 0.04 0 0.665 0.04 0 0.67 0.04 0 0.675 0.04 0 0.68 0.04 0 0.685 0.04 0 0.69 0.04 0 0.695 0.04 0 0.7 0.04 0 0.705 0.04 0 0.71 0.04 0 0.715 0.04 0 0.72 0.04 0 0.725 0.04 0 0.73 0.04 0 0.735 0.04 0 0.74 0.04 0 0.745 0.04 0 0.75 0.04 0 0.755 0.04 0 0.76 0.04 0 0.765 0.04 0 0.77 0.04 0 0.775 0.04 0 0.78 0.04 0 0.785 0.04 0 0.79 0.04 0 0.795 0.04 0 0.8 0.04 0 0.805 0.04 0 0.81 0.04 0 0.815 0.04 0 0.82 0.04 0 0.825 0.04 0 0.83 0.04 0 0.835 0.04 0 0.84 0.04 0 0.845 0.04 0 0.85 0.04 0 0.855 0.04 0 0.86 0.04 0 0.865 0.04 0 0.87 0.04 0 0.875 0.04 0 0.88 0.04 0 0.885 0.04 0 0.89 0.04 0 0.895 0.04 0 0.9 0.04 0 0.905 0.04 0 0.91 0.04 0 0.915 0.04 0 0.92 0.04 0 0.925 0.04 0 0.93 0.04 0 0.935 0.04 0 0.94 0.04 0 0.945 0.04 0 0.95 0.04 0 0.955 0.04 0 0.96 0.04 0 0.965 0.04 0 0.97 0.04 0 0.975 0.04 0 0.98 0.04 0 0.985 0.04 0 0.99 0.04 0 0.995 0.04 0 1 0.04 0 0 0.06 0 0.005 0.06 0 0.01 0.06 0 0.015 0.06 0 0.02 0.06 0 0.025 0.06 0 0.03 0.06 0 0.035 0.06 0 0.04 0.06 0 0.045 0.06 0 0.05 0.06 0 0.055 0.06 0 0.06 0.06 0 0.065 0.06 0 0.07 0.06 0 0.075 0.06 0 0.08 0.06 0 0.085 0.06 0 0.09 0.06 0 0.095 0.06 0 0.1 0.06 0 0.105 0.06 0 0.11 0.06 0 0.115 0.06 0 0.12 0.06 0 0.125 0.06 0 0.13 0.06 0 0.135 0.06 0 0.14 0.06 0 0.145 0.06 0 0.15 0.06 0 0.155 0.06 0 0.16 0.06 0 0.165 0.06 0 0.17 0.06 0 0.175 0.06 0 0.18 0.06 0 0.185 0.06 0 0.19 0.06 0 0.195 0.06 0 0.2 0.06 0 0.205 0.06 0 0.21 0.06 0 0.215 0.06 0 0.22 0.06 0 0.225 0.06 0 0.23 0.06 0 0.235 0.06 0 0.24 0.06 0 0.245 0.06 0 0.25 0.06 0 0.255 0.06 0 0.26 0.06 0 0.265 0.06 0 0.27 0.06 0 0.275 0.06 0 0.28 0.06 0 0.285 0.06 0 0.29 0.06 0 0.295 0.06 0 0.3 0.06 0 0.305 0.06 0 0.31 0.06 0 0.315 0.06 0 0.32 0.06 0 0.325 0.06 0 0.33 0.06 0 0.335 0.06 0 0.34 0.06 0 0.345 0.06 0 0.35 0.06 0 0.355 0.06 0 0.36 0.06 0 0.365 0.06 0 0.37 0.06 0 0.375 0.06 0 0.38 0.06 0 0.385 0.06 0 0.39 0.06 0 0.395 0.06 0 0.4 0.06 0 0.405 0.06 0 0.41 0.06 0 0.415 0.06 0 0.42 0.06 0 0.425 0.06 0 0.43 0.06 0 0.435 0.06 0 0.44 0.06 0 0.445 0.06 0 0.45 0.06 0 0.455 0.06 0 0.46 0.06 0 0.465 0.06 0 0.47 0.06 0 0.475 0.06 0 0.48 0.06 0 0.485 0.06 0 0.49 0.06 0 0.495 0.06 0 0.5 0.06 0 0.505 0.06 0 0.51 0.06 0 0.515 0.06 0 0.52 0.06 0 0.525 0.06 0 0.53 0.06 0 0.535 0.06 0 0.54 0.06 0 0.545 0.06 0 0.55 0.06 0 0.555 0.06 0 0.56 0.06 0 0.565 0.06 0 0.57 0.06 0 0.575 0.06 0 0.58 0.06 0 0.585 0.06 0 0.59 0.06 0 0.595 0.06 0 0.6 0.06 0 0.605 0.06 0 0.61 0.06 0 0.615 0.06 0 0.62 0.06 0 0.625 0.06 0 0.63 0.06 0 0.635 0.06 0 0.64 0.06 0 0.645 0.06 0 0.65 0.06 0 0.655 0.06 0 0.66 0.06 0 0.665 0.06 0 0.67 0.06 0 0.675 0.06 0 0.68 0.06 0 0.685 0.06 0 0.69 0.06 0 0.695 0.06 0 0.7 0.06 0 0.705 0.06 0 0.71 0.06 0 0.715 0.06 0 0.72 0.06 0 0.725 0.06 0 0.73 0.06 0 0.735 0.06 0 0.74 0.06 0 0.745 0.06 0 0.75 0.06 0 0.755 0.06 0 0.76 0.06 0 0.765 0.06 0 0.77 0.06 0 0.775 0.06 0 0.78 0.06 0 0.785 0.06 0 0.79 0.06 0 0.795 0.06 0 0.8 0.06 0 0.805 0.06 0 0.81 0.06 0 0.815 0.06 0 0.82 0.06 0 0.825 0.06 0 0.83 0.06 0 0.835 0.06 0 0.84 0.06 0 0.845 0.06 0 0.85 0.06 0 0.855 0.06 0 0.86 0.06 0 0.865 0.06 0 0.87 0.06 0 0.875 0.06 0 0.88 0.06 0 0.885 0.06 0 0.89 0.06 0 0.895 0.06 0 0.9 0.06 0 0.905 0.06 0 0.91 0.06 0 0.915 0.06 0 0.92 0.06 0 0.925 0.06 0 0.93 0.06 0 0.935 0.06 0 0.94 0.06 0 0.945 0.06 0 0.95 0.06 0 0.955 0.06 0 0.96 0.06 0 0.965 0.06 0 0.97 0.06 0 0.975 0.06 0 0.98 0.06 0 0.985 0.06 0 0.99 0.06 0 0.995 0.06 0 1 0.06 0 0 0.08 0 0.005 0.08 0 0.01 0.08 0 0.015 0.08 0 0.02 0.08 0 0.025 0.08 0 0.03 0.08 0 0.035 0.08 0 0.04 0.08 0 0.045 0.08 0 0.05 0.08 0 0.055 0.08 0 0.06 0.08 0 0.065 0.08 0 0.07 0.08 0 0.075 0.08 0 0.08 0.08 0 0.085 0.08 0 0.09 0.08 0 0.095 0.08 0 0.1 0.08 0 0.105 0.08 0 0.11 0.08 0 0.115 0.08 0 0.12 0.08 0 0.125 0.08 0 0.13 0.08 0 0.135 0.08 0 0.14 0.08 0 0.145 0.08 0 0.15 0.08 0 0.155 0.08 0 0.16 0.08 0 0.165 0.08 0
[...]
			<PointData Scalars="VitesseX">
				<DataArray Name="VitesseX" type="Float32" format="ascii">
 0 8.09019e-15 -1.1563e-14 -4.59762e-14 4.25589e-16 -1.41774e-15 -3.00553e-14 -1.50081e-14 8.40862e-15 7.30239e-14 -7.09022e-14 2.11393e-14 -1.23814e-13 8.91024e-14 -9.08331e-14 -3.51589e-14 -3.07445e-14 -6.84953e-14 -3.05193e-14 -3.34249e-14 -1.66296e-13 4.12305e-14 3.3406e-14 -7.52079e-14 -1.33577e-13 -4.19254e-14 -6.75544e-14 -1.24063e-13 -6.69344e-14 -2.57157e-13 -8.4406e-14 -2.3917e-13 -1.90523e-13 -1.68836e-13 -1.67323e-13 -1.46781e-13 -1.30367e-13 1.78486e-14 3.51454e-15 1.38142e-13 -4.6021e-14 5.55713e-14 1.77121e-13 -2.85733e-13 -1.49984e-13 -1.13657e-13 -1.82473e-13 -1.25381e-13 -9.10671e-14 -1.3729e-14 -3.62151e-13 -1.53117e-14 1.28002e-13 -6.14797e-13 1.73786e-13 -1.27781e-13 -2.26151e-13 -3.63719e-14 -8.55985e-14 5.057e-14 2.90577e-13 3.18987e-12 2.84625e-11 2.29092e-10 1.7316e-09 1.21613e-08 7.90716e-08 4.73723e-07 2.60194e-06 1.30244e-05 5.89958e-05 0.000239752 0.000865105 0.0027382 0.00750763 0.0176747 0.0356959 0.0622789 0.0956459 0.132836 0.171525 0.210536 0.249424 0.288116 0.326537 0.364645 0.402403 0.43978 0.47675 0.513287 0.549359 0.584932 0.61996 0.65438 0.688107 0.721025 0.752976 0.783752 0.813078 0.840615 0.865949 0.888609 0.9081 0.923948 0.935761 0.943388 0.944302 0.943866 0.942796 0.94134 0.9397 0.938019 0.936393 0.9349 0.933599 0.932491 0.931392 0.929766 0.934356 0.958114 0.953708 0.937483 0.930956 0.929497 0.929189 0.929094 0.928901 0.928333 0.926887 0.923641 0.916885 0.903873 0.880599 0.841818 0.781998 0.697086 0.587018 0.458214 0.324532 0.202958 0.109648 0.0510285 0.0210724 0.00810208 0.00299929 0.00108832 0.000389945 0.000138304 4.85819e-05 1.6898e-05 5.81739e-06 1.98123e-06 6.67186e-07 2.22056e-07 7.30128e-08 2.37083e-08 7.59964e-09 2.40392e-09 7.50173e-10 2.30576e-10 7.02013e-11 2.06668e-11 5.89884e-12 1.15383e-12 -1.10022e-14 -2.36041e-13 -4.32111e-13 2.42689e-13 -2.99449e-13 -8.00839e-13 -2.78704e-13 -4.28433e-14 -2.19819e-13 3.97813e-13 -5.81875e-13 1.76564e-13 -5.08875e-13 6.69384e-13 5.49348e-13 -6.72691e-13 1.59736e-13 -3.79883e-13 1.44501e-14 -2.36501e-13 -3.46944e-13 3.59187e-14 -1.24523e-13 -1.20577e-13 5.43076e-13 -2.9318e-13 1.55219e-13 1.48445e-13 -5.84453e-14 9.58371e-13 -7.7475e-13 2.48304e-13 4.29924e-13 2.77511e-13 -8.03388e-13 -5.78807e-13 0 0 -1.84939e-14 -1.98747e-14 -5.35571e-15 -5.57292e-14 -3.80194e-14 2.39875e-14 -1.3478e-14 1.61641e-14 -3.70193e-14 4.38893e-14 -4.34443e-14 7.67172e-14 -1.37192e-13 -2.46656e-14 -1.48862e-16 -5.18655e-14 -1.99778e-14 -7.59953e-14 -6.39239e-14 3.90607e-14 -1.15187e-13 -5.8644e-14 -9.13026e-14 8.95637e-15 -1.23503e-13 -7.35454e-14 -1.40089e-13 -1.27953e-13 -1.20384e-13 -2.0914e-13 -1.78381e-13 -1.64797e-13 -1.79967e-13 -8.60345e-14 -1.49953e-13 5.87893e-15 -2.97492e-14 -9.39296e-15 -8.50376e-14 -2.27362e-14 -5.59368e-14 -1.91988e-13 1.50958e-13 -7.99106e-14 -2.49776e-13 -1.74924e-13 -1.19125e-13 -1.17428e-13 -2.07001e-13 6.88267e-14 -2.45095e-13 -3.74941e-13 3.05426e-13 -1.96819e-13 -1.08e-13 -5.59559e-14 -1.5038e-13 -1.23637e-13 1.08859e-13 3.64782e-13 3.3208e-12 2.82277e-11 2.29168e-10 1.73125e-09 1.21618e-08 7.90717e-08 4.73723e-07 2.60194e-06 1.30244e-05 5.89958e-05 0.000239752 0.000865105 0.0027382 0.00750763 0.0176747 0.0356959 0.0622789 0.0956459 0.132836 0.171525 0.210536 0.249424 0.288116 0.326537 0.364645 0.402403 0.43978 0.47675 0.513287 0.549359 0.584932 0.61996 0.65438 0.688107 0.721025 0.752976 0.783752 0.813078 0.840615 0.865949 0.888609 0.9081 0.923948 0.935761 0.943388 0.944302 0.943866 0.942796 0.94134 0.9397 0.938019 0.936393 0.9349 0.933599 0.932491 0.931392 0.929766 0.934356 0.958114 0.953708 0.937483 0.930956 0.929497 0.929189 0.929094 0.928901 0.928333 0.926887 0.923641 0.916885 0.903873 0.880599 0.841818 0.781998 0.697086 0.587018 0.458214 0.324532 0.202958 0.109648 0.0510285 0.0210724 0.00810208 0.00299929 0.00108832 0.000389945 0.000138304 4.85819e-05 1.6898e-05 5.81739e-06 1.98123e-06 6.67187e-07 2.22056e-07 7.30133e-08 2.37078e-08 7.59974e-09 2.40435e-09 7.50296e-10 2.30863e-10 6.96094e-11 2.0812e-11 5.96111e-12 1.58769e-12 -8.15557e-15 -2.2942e-13 -2.35187e-13 -5.98894e-13 -2.93783e-13 -8.53501e-15 -4.18691e-13 -3.91138e-13 -2.85357e-13 -3.83514e-13 4.23043e-13 -5.49488e-13 9.19692e-13 -3.89818e-13 3.65404e-14 2.18654e-13 -9.673e-14 1.42428e-13 -3.1263e-13 -2.86906e-13 -3.24537e-14 -2.04245e-13 1.24219e-13 -5.96106e-13 -2.68388e-13 1.99371e-13 2.45262e-13 2.60911e-13 -9.41492e-14 -4.14008e-13 7.32537e-13 1.43998e-15 -3.91056e-13 2.41071e-14 5.20568e-13 2.69839e-13 0 0 -1.35107e-14 -2.24442e-14 -4.28047e-14 -8.15385e-15 -3.6363e-14 -4.60466e-14 -4.3319e-16 -1.56347e-14 -1.00701e-14 -2.69861e-14 1.91461e-14 -1.39159e-14 3.84368e-14 -8.19279e-14 -5.06557e-15 -1.92378e-14 -1.56402e-14 -1.51743e-15 4.86089e-16 -8.58375e-14 -4.39289e-14 -1.4341e-13 -3.14133e-14 -1.23408e-13 -1.2325e-14 -1.20738e-13 -1.83592e-13 -1.91488e-13 -1.22804e-13 -6.77075e-14 -5.38252e-14 -1.80689e-13 -1.26604e-13 -1.4365e-13 2.12134e-15 4.23035e-16 -7.17296e-14 -1.26287e-13 -1.19097e-13 -6.06497e-14 -8.84208e-14 -5.30718e-15 -1.60956e-13 1.92907e-14 -1.24993e-13 -2.90849e-13 -1.4465e-13 2.39751e-14 -1.47491e-13 -1.32897e-13 -1.2309e-13 2.90602e-14 -4.31466e-14 -2.7583e-13 -1.53893e-13 -6.6719e-14 -1.17443e-13 2.20554e-14 -1.79142e-14 4.32287e-13 3.48077e-12 2.82853e-11 2.29036e-10 1.73132e-09 1.2162e-08 7.90717e-08 4.73723e-07 2.60194e-06 1.30244e-05 5.89958e-05 0.000239752 0.000865105 0.0027382 0.00750763 0.0176747 0.0356959 0.0622789 0.0956459 0.132836 0.171525 0.210536 0.249424 0.288116 0.326537 0.364645 0.402403 0.43978 0.47675 0.513287 0.549359 0.584932 0.61996 0.65438 0.688107 0.721025 0.752976 0.783752 0.813078 0.840615 0.865949 0.888609 0.9081 0.923948 0.935761 0.943388 0.944302 0.943866 0.942796 0.94134 0.9397 0.938019 0.936393 0.9349 0.933599 0.932491 0.931392 0.929766 0.934356 0.958114 0.953708 0.937483 0.930956 0.929497 0.929189 0.929094 0.928901 0.928333 0.926887 0.923641 0.916885 0.903873 0.880599 0.841818 0.781998 0.697086 0.587018 0.458214 0.324532 0.202958 0.109648 0.0510285 0.0210724 0.00810208 0.00299929 0.00108832 0.000389945 0.000138304 4.85819e-05 1.6898e-05 5.81739e-06 1.98123e-06 6.67186e-07 2.22056e-07 7.30129e-08 2.37083e-08 7.59996e-09 2.40433e-09 7.50331e-10 2.30696e-10 6.99896e-11 2.10268e-11 5.81551e-12 1.00832e-12 5.1123e-13 6.24859e-14 -5.86704e-13 -2.48875e-13 -5.96423e-13 -1.49398e-13 -2.61973e-13 -6.18699e-13 -2.29102e-13 -1.75714e-13 -1.04936e-13 4.10862e-13 -1.19371e-13 2.18892e-13 -9.8052e-14 -1.36431e-13 -1.10881e-13 -2.31661e-13 2.43198e-13 -2.66022e-13 -2.60934e-13 -3.62316e-13 -2.51805e-13 -6.05541e-14 2.23304e-13 -3.09096e-13 -2.10051e-13 2.08982e-14 5.26248e-13 -5.44895e-14 -1.61093e-14 2.03754e-13 -3.26708e-14 -1.61987e-13 2.44725e-13 -5.61308e-13 0 0 -1.11077e-14 -3.3907e-14 -2.64195e-14 -2.46895e-14 -3.08157e-14 -3.03349e-14 -3.8225e-14 8.04497e-19 3.5673e-14 -3.71958e-14 -3.77582e-14 -4.58948e-14 2.83794e-14 2.08168e-14 -2.709e-14 1.42643e-14 -2.65895e-14 1.75671e-14 6.19847e-15 -7.35268e-14 -3.85723e-14 -4.41294e-14 -7.05429e-14 -1.11141e-13 -1.4175e-13 -9.63226e-14 -1.19397e-13 -2.20628e-13 -5.567e-14 9.00262e-15 -7.95263e-14 -1.72657e-13 -7.11757e-14 -1.28804e-13 -4.38099e-14 -1.5388e-13 7.36215e-14 -3.42631e-14 -4.35197e-14 -3.20892e-14 -6.35365e-14 -2.20414e-15 -1.98169e-13 -1.74358e-13 -1.70909e-14 -5.50277e-14 -2.55766e-13 -9.6891e-15 -1.06004e-13 -5.92113e-14 -8.72918e-14 7.93484e-14 -2.61594e-13 8.60526e-14 -2.63551e-13 -3.14039e-13 -2.09189e-13 7.55417e-14 1.00544e-13 4.54294e-13 3.41907e-12 2.84998e-11 2.29049e-10 1.73156e-09 1.21616e-08 7.90718e-08 4.73723e-07 2.60194e-06 1.30244e-05 5.89958e-05 0.000239752 0.000865105 0.0027382 0.00750763 0.0176747 0.0356959 0.0622789 0.0956459 0.132836 0.171525 0.210536 0.249424 0.288116 0.326537 0.364645 0.402403 0.43978 0.47675 0.513287 0.549359 0.584932 0.61996 0.65438 0.688107 0.721025 0.752976 0.783752 0.813078 0.840615 0.865949 0.888609 0.9081 0.923948 0.935761 0.943388 0.944302 0.943866 0.942796 0.94134 0.9397 0.938019 0.936393 0.9349 0.933599 0.932491 0.931392 0.929766 0.934356 0.958114 0.953708 0.937483 0.930956 0.929497 0.929189 0.929094 0.928901 0.928333 0.926887 0.923641 0.916885 0.903873 0.880599 0.841818 0.781998 0.697086 0.587018 0.458214 0.324532 0.202958 0.109648 0.0510285 0.0210724 0.00810208 0.00299929 0.00108832 0.000389945 0.000138304 4.85819e-05 1.6898e-05 5.81739e-06 1.98123e-06 6.67186e-07 2.22056e-07 7.30132e-08 2.37083e-08 7.59979e-09 2.40443e-09 7.50475e-10 2.3108e-10 6.9963e-11 2.06682e-11 5.84312e-12 1.16282e-12 8.36092e-15 7.94659e-14 8.98098e-15 -4.74437e-13 -4.92769e-13 -7.47556e-13 -1.92306e-13 -3.71086e-13 -9.93856e-14 1.95193e-13 -1.67326e-13 -1.96286e-13 -2.7944e-13 3.84476e-13 1.87634e-13 -6.87352e-13 2.72657e-13 -8.00925e-13 1.639e-13 -9.98137e-14 -1.14837e-13 -3.35457e-13 -3.79313e-13 -2.45135e-13 -9.18886e-14 1.22832e-13 4.5202e-13 -5.79774e-13 2.45508e-13 8.42913e-13 -2.09155e-13 1.29474e-13 6.309e-13 1.20417e-13 -5.17055e-13 2.54588e-13 0 0 -1.90066e-14 -2.62176e-14 2.65942e-15 -6.67708e-14 -3.68406e-14 2.13381e-14 -4.62583e-14 2.11147e-14 -3.63924e-15 3.41374e-14 -6.30197e-14 5.08311e-14 -1.08631e-13 4.71216e-14 7.94815e-15 -1.42511e-14 -1.56152e-14 -3.08661e-14 -7.69188e-14 4.9386e-14 -1.34846e-13 -6.16025e-14 -1.45774e-13 3.65861e-14 -2.02093e-13 -8.93184e-14 -6.1256e-14 -3.17072e-14 -5.37956e-14 -1.76765e-13 -1.75969e-13 -6.13787e-14 -5.80807e-14 -1.54256e-14 -1.61337e-13 -4.02203e-14 1.44612e-13 5.51948e-14 -4.46972e-14 -1.36543e-14 -1.62592e-13 -3.08803e-13 9.45067e-14 -2.76665e-13 -2.10933e-13 5.5603e-14 -1.70289e-13 -1.39313e-13 -1.29007e-13 2.53905e-13 -6.96667e-14 -3.22983e-13 1.05659e-13 9.50303e-14 -1.86424e-13 -1.22377e-13 -1.63681e-13 -1.54024e-13 1.63532e-13 6.37707e-13 3.46265e-12 2.84264e-11 2.29403e-10 1.73143e-09 1.21618e-08 7.90718e-08 4.73723e-07 2.60194e-06 1.30244e-05 5.89958e-05 0.000239752 0.000865105 0.0027382 0.00750763 0.0176747 0.0356959 0.0622789 0.0956459 0.132836 0.171525 0.210536 0.249424 0.288116 0.326537 0.364645 0.402403 0.43978 0.47675 0.513287 0.549359 0.584932 0.61996 0.65438 0.688107 0.721025 0.752976 0.783752 0.813078 0.840615 0.865949 0.888609 0.9081 0.923948 0.935761 0.943388 0.944302 0.943866 0.942796 0.94134 0.9397 0.938019 0.936393 0.9349 0.933599 0.932491 0.931392 0.929766 0.934356 0.958114 0.953708 0.937483 0.930956 0.929497 0.929189 0.929094 0.928901 0.928333 0.926887 0.923641 0.916885 0.903873 0.880599 0.841818 0.781998 0.697086 0.587018 0.458214 0.324532 0.202958 0.109648 0.0510285 0.0210724 0.00810208 0.00299929 0.00108832 0.000389945 0.000138304 4.85819e-05 1.6898e-05 5.81739e-06 1.98123e-06 6.67187e-07 2.22056e-07 7.30138e-08 2.3708e-08 7.59989e-09 2.40456e-09 7.50475e-10 2.31027e-10 6.9494e-11 2.0663e-11 6.17415e-12 1.38451e-12 -3.00229e-13 -3.17925e-13 2.28295e-13 -1.00267e-12 -1.03865e-13 -1.20377e-13 -2.28539e-13 -1.94714e-13 -1.79917e-13 -2.45073e-13 3.34867e-13 -7.04375e-13 7.23422e-13 -6.30527e-13 -1.20044e-13 -2.87632e-13 -1.66841e-14 -1.81296e-13 -2.97553e-13 -7.95672e-14 -7.69301e-14 -2.911e-13 1.54675e-13 -5.17494e-13 -8.57415e-13 7.06399e-13 5.26628e-13 1.26018e-13 -9.26929e-14 -1.95689e-13 7.46019e-13 1.67719e-13 -1.53352e-13 4.53082e-14 2.69373e-13 1.01785e-12 0 0 2.25893e-15 -1.32314e-15 -6.27163e-14 1.14136e-14 -1.01546e-14 -6.67776e-14 -4.9849e-15 -1.29613e-14 4.82979e-14 -6.99865e-14 9.57974e-14 -1.11629e-13 1.66339e-13 -1.52748e-13 2.5084e-14 -2.25198e-14 -3.78716e-14 2.157e-14 -7.08394e-14 -1.70267e-13 -8.80083e-15 -1.71072e-13 -1.05891e-13 -1.02852e-13 5.97455e-14 -1.47932e-13 -9.47871e-14 1.83837e-13 -2.58247e-13 -1.73077e-13 -1.82944e-13 2.51056e-16 -3.59192e-14 -5.57961e-14 -7.76859e-14 8.60413e-14 7.58689e-14 -5.13574e-14 6.76682e-14 -8.49781e-14 -2.07508e-13 -6.27141e-14 -3.24211e-13 -1.56195e-13 -2.51777e-13 -1.93062e-13 -5.47864e-15 -6.75097e-14 5.92845e-14 -1.39367e-13 2.63948e-13 1.31342e-13 -5.77436e-13 3.37205e-14 -6.5315e-14 1.35648e-13 1.20517e-13 -2.53345e-13 -7.70003e-14 7.92412e-13 3.59698e-12 2.84308e-11 2.29537e-10 1.73147e-09 1.21619e-08 7.90717e-08 4.73723e-07 2.60194e-06 1.30244e-05 5.89958e-05 0.000239752 0.000865105 0.0027382 0.00750763 0.0176747 0.0356959 0.0622789 0.0956459 0.132836 0.171525 0.210536 0.249424 0.288116 0.326537 0.364645 0.402403 0.43978 0.47675 0.513287 0.549359 0.584932 0.61996 0.65438 0.688107 0.721025 0.752976 0.783752 0.813078 0.840615 0.865949 0.888609 0.9081 0.923948 0.935761 0.943388 0.944302 0.943866 0.942796 0.94134 0.9397 0.938019 0.936393 0.9349 0.933599 0.932491 0.931392 0.929766 0.934356 0.958114 0.953708 0.937483 0.930956 0.929497 0.929189 0.929094 0.928901 0.928333 0.926887 0.923641 0.916885 0.903873 0.880599 0.841818 0.781998 0.697086 0.587018 0.458214 0.324532 0.202958 0.109648 0.0510285 0.0210724 0.00810208 0.00299929 0.00108832 0.000389945 0.000138304 4.85819e-05 1.6898e-05 5.81738e-06 1.98124e-06 6.67187e-07 2.22056e-07 7.30132e-08 2.37088e-08 7.60027e-09 2.40414e-09 7.50242e-10 2.30138e-10 7.00236e-11 2.10859e-11 6.26971e-12 4.38445e-13 4.1059e-13 -4.47011e-13 -6.96518e-13 -1.13735e-13 -1.26921e-13 1.71792e-13 -3.77332e-14 -1.45221e-13 -2.68372e-13 -6.7119e-14 -6.33446e-13 1.08109e-12 -5.81277e-13 -1.43203e-13 -3.35193e-13 -5.83424e-13 -4.47247e-13 1.11197e-13 2.03201e-13 -1.5424e-13 -7.2809e-13 -1.91507e-13 1.91405e-13 4.05809e-13 -4.59476e-15 -1.42982e-13 -6.06192e-13 1.08e-12 5.05948e-13 -3.99795e-13 -3.61694e-13 7.29422e-13 -4.21811e-13 -2.44895e-13 2.17783e-13 -7.14576e-13 0
				</DataArray>
				<DataArray Name="VitesseY" type="Float32" format="ascii">