<?xml version="1.0"?>
<VTKFile type="PolyData">
	<PolyData>
		<Piece NumberOfPoints="1206" NumberOfPolys="1000">
			<Points>
				<DataArray type="Float32" NumberOfComponents="3" format="ascii">
 0 0 0 0.005 0 0 0.01 0 0 0.015 0 0 0.02 0 0 0.025 0 0 0.03 0 0 0.035 0 0 0.04 0 0 0.045 0 0 0.05 0 0 0.055 0 0 0.06 0 0 0.065 0 0 0.07 0 0 0.075 0 0 0.08 0 0 0.085 0 0 0.09 0 0 0.095 0 0 0.1 0 0 0.105 0 0 0.11 0 0 0.115 0 0 0.12 0 0 0.125 0 0 0.13 0 0 0.135 0 0 0.14 0 0 0.145 0 0 0.15 0 0 0.155 0 0 0.16 0 0 0.165 0 0 0.17 0 0 0.175 0 0 0.18 0 0 0.185 0 0 0.19 0 0 0.195 0 0 0.2 0 0 0.205 0 0 0.21 0 0 0.215 0 0 0.22 0 0 0.225 0 0 0.23 0 0 0.235 0 0 0.24 0 0 0.245 0 0 0.25 0 0 0.255 0 0 0.26 0 0 0.265 0 0 0.27 0 0 0.275 0 0 0.28 0 0 0.285 0 0 0.29 0 0 0.295 0 0 0.3 0 0 0.305 0 0 0.31 0 0 0.315 0 0 0.32 0 0 0.325 0 0 0.33 0 0 0.335 0 0 0.34 0 0 0.345 0 0 0.35 0 0 0.355 0 0 0.36 0 0 0.365 0 0 0.37 0 0 0.375 0 0 0.38 0 0 0.385 0 0 0.39 0 0 0.395 0 0 0.4 0 0 0.405 0 0 0.41 0 0 0.415 0 0 0.42 0 0 0.425 0 0 0.43 0 0 0.435 0 0 0.44 0 0 0.445 0 0 0.45 0 0 0.455 0 0 0.46 0 0 0.465 0 0 0.47 0 0 0.475 0 0 0.48 0 0 0.485 0 0 0.49 0 0 0.495 0 0 0.5 0 0 0.505 0 0 0.51 0 0 0.515 0 0 0.52 0 0 0.525 0 0 0.53 0 0 0.535 0 0 0.54 0 0 0.545 0 0 0.55 0 0 0.555 0 0 0.56 0 0 0.565 0 0 0.57 0 0 0.575 0 0 0.58 0 0 0.585 0 0 0.59 0 0 0.595 0 0 0.6 0 0 0.605 0 0 0.61 0 0 0.615 0 0 0.62 0 0 0.625 0 0 0.63 0 0 0.635 0 0 0.64 0 0 0.645 0 0 0.65 0 0 0.655 0 0 0.66 0 0 0.665 0 0 0.67 0 0 0.675 0 0 0.68 0 0 0.685 0 0 0.69 0 0 0.695 0 0 0.7 0 0 0.705 0 0 0.71 0 0 0.715 0 0 0.72 0 0 0.725 0 0 0.73 0 0 0.735 0 0 0.74 0 0 0.745 0 0 0.75 0 0 0.755 0 0 0.76 0 0 0.765 0 0 0.77 0 0 0.775 0 0 0.78 0 0 0.785 0 0 0.79 0 0 0.795 0 0 0.8 0 0 0.805 0 0 0.81 0 0 0.815 0 0 0.82 0 0 0.825 0 0 0.83 0 0 0.835 0 0 0.84 0 0 0.845 0 0 0.85 0 0 0.855 0 0 0.86 0 0 0.865 0 0 0.87 0 0 0.875 0 0 0.88 0 0 0.885 0 0 0.89 0 0 0.895 0 0 0.9 0 0 0.905 0 0 0.91 0 0 0.915 0 0 0.92 0 0 0.925 0 0 0.93 0 0 0.935 0 0 0.94 0 0 0.945 0 0 0.95 0 0 0.955 0 0 0.96 0 0 0.965 0 0 0.97 0 0 0.975 0 0 0.98 0 0 0.985 0 0 0.99 0 0 0.995 0 0 1 0 0 0 0.02 0 0.005 0.02 0 0.01 0.02 0 0.015 0.02 0 0.02 0.02 0 0.025 0.02 0 0.03 0.02 0 0.035 0.02 0 0.04 0.02 0 0.045 0.02 0 0.05 0.02 0 0.055 0.02 0 0.06 0.02 0 0.065 0.02 0 0.07 0.02 0 0.075 0.02 0 0.08 0.02 0 0.085 0.02 0 0.09 0.02 0 0.095 0.02 0 0.1 0.02 0 0.105 0.02 0 0.11 0.02 0 0.115 0.02 0 0.12 0.02 0 0.125 0.02 0 0.13 0.02 0 0.135 0.02 0 0.14 0.02 0 0.145 0.02 0 0.15 0.02 0 0.155 0.02 0 0.16 0.02 0 0.165 0.02 0 0.17 0.02 0 0.175 0.02 0 0.18 0.02 0 0.185 0.02 0 0.19 0.02 0 0.195 0.02 0 0.2 0.02 0 0.205 0.02 0 0.21 0.02 0 0.215 0.02 0 0.22 0.02 0 0.225 0.02 0 0.23 0.02 0 0.235 0.02 0 0.24 0.02 0 0.245 0.02 0 0.25 0.02 0 0.255 0.02 0 0.26 0.02 0 0.265 0.02 0 0.27 0.02 0 0.275 0.02 0 0.28 0.02 0 0.285 0.02 0 0.29 0.02 0 0.295 0.02 0 0.3 0.02 0 0.305 0.02 0 0.31 0.02 0 0.315 0.02 0 0.32 0.02 0 0.325 0.02 0 0.33 0.02 0 0.335 0.02 0 0.34 0.02 0 0.345 0.02 0 0.35 0.02 0 0.355 0.02 0 0.36 0.02 0 0.365 0.02 0 0.37 0.02 0 0.375 0.02 0 0.38 0.02 0 0.385 0.02 0 0.39 0.02 0 0.395 0.02 0 0.4 0.02 0 0.405 0.02 0 0.41 0.02 0 0.415 0.02 0 0.42 0.02 0 0.425 0.02 0 0.43 0.02 0 0.435 0.02 0 0.44 0.02 0 0.445 0.02 0 0.45 0.02 0 0.455 0.02 0 0.46 0.02 0 0.465 0.02 0 0.47 0.02 0 0.475 0.02 0 0.48 0.02 0 0.485 0.02 0 0.49 0.02 0 0.495 0.02 0 0.5 0.02 0 0.505 0.02 0 0.51 0.02 0 0.515 0.02 0 0.52 0.02 0 0.525 0.02 0 0.53 0.02 0 0.535 0.02 0 0.54 0.02 0 0.545 0.02 0 0.55 0.02 0 0.555 0.02 0 0.56 0.02 0 0.565 0.02 0 0.57 0.02 0 0.575 0.02 0 0.58 0.02 0 0.585 0.02 0 0.59 0.02 0 0.595 0.02 0 0.6 0.02 0 0.605 0.02 0 0.61 0.02 0 0.615 0.02 0 0.62 0.02 0 0.625 0.02 0 0.63 0.02 0 0.635 0.02 0 0.64 0.02 0 0.645 0.02 0 0.65 0.02 0 0.655 0.02 0 0.66 0.02 0 0.665 0.02 0 0.67 0.02 0 0.675 0.02 0 0.68 0.02 0 0.685 0.02 0 0.69 0.02 0 0.695 0.02 0 0.7 0.02 0 0.705 0.02 0 0.71 0.02 0 0.715 0.02 0 0.72 0.02 0 0.725 0.02 0 0.73 0.02 0 0.735 0.02 0 0.74 0.02 0 0.745 0.02 0 0.75 0.02 0 0.755 0.02 0 0.76 0.02 0 0.765 0.02 0 0.77 0.02 0 0.775 0.02 0 0.78 0.02 0 0.785 0.02 0 0.79 0.02 0 0.795 0.02 0 0.8 0.02 0 0.805 0.02 0 0.81 0.02 0 0.815 0.02 0 0.82 0.02 0 0.825 0.02 0 0.83 0.02 0 0.835 0.02 0 0.84 0.02 0 0.845 0.02 0 0.85 0.02 0 0.855 0.02 0 0.86 0.02 0 0.865 0.02 0 0.87 0.02 0 0.875 0.02 0 0.88 0.02 0 0.885 0.02 0 0.89 0.02 0 0.895 0.02 0 0.9 0.02 0 0.905 0.02 0 0.91 0.02 0 0.915 0.02 0 0.92 0.02 0 0.925 0.02 0 0.93 0.02 0 0.935 0.02 0 0.94 0.02 0 0.945 0.02 0 0.95 0.02 0 0.955 0.02 0 0.96 0.02 0 0.965 0.02 0 0.97 0.02 0 0.975 0.02 0 0.98 0.02 0 0.985 0.02 0 0.99 0.02 0 0.995 0.02 0 1 0.02 0 0 0.04 0 0.005 0.04 0 0.01 0.04 0 0.015 0.04 0 0.02 0.04 0 0.025 0.04 0 0.03 0.04 0 0.035 0.04 0 0.04 0.04 0 0.045 0.04 0 0.05 0.04 0 0.055 0.04 0 0.06 0.04 0 0.065 0.04 0 0.07 0.04 0 0.075 0.04 0 0.08 0.04 0 0.085 0.04 0 0.09 0.04 0 0.095 0.04 0 0.1 0.04 0 0.105 0.04 0 0.11 0.04 0 0.115 0.04 0 0.12 0.04 0 0.125 0.04 0 0.13 0.04 0 0.135 0.04 0 0.14 0.04 0 0.145 0.04 0 0.15 0.04 0 0.155 0.04 0 0.16 0.04 0 0.165 0.04 0 0.17 0.04 0 0.175 0.04 0 0.18 0.04 0 0.185 0.04 0 0.19 0.04 0 0.195 0.04 0 0.2 0.04 0 0.205 0.04 0 0.21 0.04 0 0.215 0.04 0 0.22 0.04 0 0.225 0.04 0 0.23 0.04 0 0.235 0.04 0 0.24 0.04 0 0.245 0.04 0 0.25 0.04 0 0.255 0.04 0 0.26 0.04 0 0.265 0.04 0 0.27 0.04 0 0.275 0.04 0 0.28 0.04 0 0.285 0.04 0 0.29 0.04 0 0.295 0.04 0 0.3 0.04 0 0.305 0.04 0 0.31 0.04 0 0.315 0.04 0 0.32 0.04 0 0.325 0.04 0 0.33 0.04 0 0.335 0.04 0 0.34 0.04 0 0.345 0.04 0 0.35 0.04 0 0.355 0.04 0 0.36 0.04 0 0.365 0.04 0 0.37 0.04 0 0.375 0.04 0 0.38 0.04 0 0.385 0.04 0 0.39 0.04 0 0.395 0.04 0 0.4 0.04 0 0.405 0.04 0 0.41 0.04 0 0.415 0.04 0 0.42 0.04 0 0.425 0.04 0 0.43 0.04 0 0.435 0.04 0 0.44 0.04 0 0.445 0.04 0 0.45 0.04 0 0.455 0.04 0 0.46 0.04 0 0.465 0.04 0 0.47 0.04 0 0.475 0.04 0 0.48 0.04 0 0.485 0.04 0 0.49 0.04 0 0.495 0.04 0 0.5 0.04 0 0.505 0.04 0 0.51 0.04 0 0.515 0.04 0 0.52 0.04 0 0.525 0.04 0 0.53 0.04 0 0.535 0.04 0 0.54 0.04 0 0.545 0.04 0 0.55 0.04 0 0.555 0.04 0 0.56 0.04 0 0.565 0.04 0 0.57 0.04 0 0.575 0.04 0 0.58 0.04 0 0.585 0.04 0 0.59 0.04 0 0.595 0.04 0 0.6 0.04 0 0.605 0.04 0 0.61 0.04 0 0.615 0.04 0 0.62 0.04 0 0.625 0.04 0 0.63 0.04 0 0.635 0.04 0 0.64 0.04 0 0.645 0.04 0 0.65 0.04 0 0.655 0.04 0 0.66 0.04 0 0.665 0.04 0 0.67 0.04 0 0.675 0.04 0 0.68 0.04 0 0.685 0.04 0 0.69 0.04 0 0.695 0.04 0 0.7 0.04 0 0.705 0.04 0 0.71 0.04 0 0.715 0.04 0 0.72 0.04 0 0.725 0.04 0 0.73 0.04 0 0.735 0.04 0 0.74 0.04 0 0.745 0.04 0 0.75 0.04 0 0.755 0.04 0 0.76 0.04 0 0.765 0.04 0 0.77 0.04 0 0.775 0.04 0 0.78 0.04 0 0.785 0.04 0 0.79 0.04 0 0.795 0.04 0 0.8 0.04 0 0.805 0.04 0 0.81 0.04 0 0.815 0.04 0 0.82 0.04 0 0.825 0.04 0 0.83 0.04 0 0.835 0.04 0 0.84 0.04 0 0.845 0.04 0 0.85 0.04 0 0.855 0.04 0 0.86 0.04 0 0.865 0.04 0 0.87 0.04 0 0.875 0.04 0 0.88 0.04 0 0.885 0.04 0 0.89 0.04 0 0.895 0.04 0 0.9 0.04 0 0.905 0.04 0 0.91 0.04 0 0.915 0.04 0 0.92 0.04 0 0.925 0.04 0 0.93 0.04 0 0.935 0.04 0 0.94 0.04 0 0.945 0.04 0 0.95 0.04 0 0.955 0.04 0 0.96 0.04 0 0.965 0.04 0 0.97 0.04 0 0.975 0.04 0 0.98 0.04 0 0.985 0.04 0 0.99 0.04 0 0.995 0.04 0 1 0.04 0 0 0.06 0 0.005 0.06 0 0.01 0.06 0 0.015 0.06 0 0.02 0.06 0 0.025 0.06 0 0.03 0.06 0 0.035 0.06 0 0.04 0.06 0 0.045 0.06 0 0.05 0.06 0 0.055 0.06 0 0.06 0.06 0 0.065 0.06 0 0.07 0.06 0 0.075 0.06 0 0.08 0.06 0 0.085 0.06 0 0.09 0.06 0 0.095 0.06 0 0.1 0.06 0 0.105 0.06 0 0.11 0.06 0 0.115 0.06 0 0.12 0.06 0 0.125 0.06 0 0.13 0.06 0 0.135 0.06 0 0.14 0.06 0 0.145 0.06 0 0.15 0.06 0 0.155 0.06 0 0.16 0.06 0 0.165 0.06 0 0.17 0.06 0 0.175 0.06 0 0.18 0.06 0 0.185 0.06 0 0.19 0.06 0 0.195 0.06 0 0.2 0.06 0 0.205 0.06 0 0.21 0.06 0 0.215 0.06 0 0.22 0.06 0 0.225 0.06 0 0.23 0.06 0 0.235 0.06 0 0.24 0.06 0 0.245 0.06 0 0.25 0.06 0 0.255 0.06 0 0.26 0.06 0 0.265 0.06 0 0.27 0.06 0 0.275 0.06 0 0.28 0.06 0 0.285 0.06 0 0.29 0.06 0 0.295 0.06 0 0.3 0.06 0 0.305 0.06 0 0.31 0.06 0 0.315 0.06 0 0.32 0.06 0 0.325 0.06 0 0.33 0.06 0 0.335 0.06 0 0.34 0.06 0 0.345 0.06 0 0.35 0.06 0 0.355 0.06 0 0.36 0.06 0 0.365 0.06 0 0.37 0.06 0 0.375 0.06 0 0.38 0.06 0 0.385 0.06 0 0.39 0.06 0 0.395 0.06 0 0.4 0.06 0 0.405 0.06 0 0.41 0.06 0 0.415 0.06 0 0.42 0.06 0 0.425 0.06 0 0.43 0.06 0 0.435 0.06 0 0.44 0.06 0 0.445 0.06 0 0.45 0.06 0 0.455 0.06 0 0.46 0.06 0 0.465 0.06 0 0.47 0.06 0 0.475 0.06 0 0.48 0.06 0 0.485 0.06 0 0.49 0.06 0 0.495 0.06 0 0.5 0.06 0 0.505 0.06 0 0.51 0.06 0 0.515 0.06 0 0.52 0.06 0 0.525 0.06 0 0.53 0.06 0 0.535 0.06 0 0.54 0.06 0 0.545 0.06 0 0.55 0.06 0 0.555 0.06 0 0.56 0.06 0 0.565 0.06 0 0.57 0.06 0 0.575 0.06 0 0.58 0.06 0 0.585 0.06 0 0.59 0.06 0 0.595 0.06 0 0.6 0.06 0 0.605 0.06 0 0.61 0.06 0 0.615 0.06 0 0.62 0.06 0 0.625 0.06 0 0.63 0.06 0 0.635 0.06 0 0.64 0.06 0 0.645 0.06 0 0.65 0.06 0 0.655 0.06 0 0.66 0.06 0 0.665 0.06 0 0.67 0.06 0 0.675 0.06 0 0.68 0.06 0 0.685 0.06 0 0.69 0.06 0 0.695 0.06 0 0.7 0.06 0 0.705 0.06 0 0.71 0.06 0 0.715 0.06 0 0.72 0.06 0 0.725 0.06 0 0.73 0.06 0 0.735 0.06 0 0.74 0.06 0 0.745 0.06 0 0.75 0.06 0 0.755 0.06 0 0.76 0.06 0 0.765 0.06 0 0.77 0.06 0 0.775 0.06 0 0.78 0.06 0 0.785 0.06 0 0.79 0.06 0 0.795 0.06 0 0.8 0.06 0 0.805 0.06 0 0.81 0.06 0 0.815 0.06 0 0.82 0.06 0 0.825 0.06 0 0.83 0.06 0 0.835 0.06 0 0.84 0.06 0 0.845 0.06 0 0.85 0.06 0 0.855 0.06 0 0.86 0.06 0 0.865 0.06 0 0.87 0.06 0 0.875 0.06 0 0.88 0.06 0 0.885 0.06 0 0.89 0.06 0 0.895 0.06 0 0.9 0.06 0 0.905 0.06 0 0.91 0.06 0 0.915 0.06 0 0.92 0.06 0 0.925 0.06 0 0.93 0.06 0 0.935 0.06 0 0.94 0.06 0 0.945 0.06 0 0.95 0.06 0 0.955 0.06 0 0.96 0.06 0 0.965 0.06 0 0.97 0.06 0 0.975 0.06 0 0.98 0.06 0 0.985 0.06 0 0.99 0.06 0 0.995 0.06 0 1 0.06 0 0 0.08 0 0.005 0.08 0 0.01 0.08 0 0.015 0.08 0 0.02 0.08 0 0.025 0.08 0 0.03 0.08 0 0.035 0.08 0 0.04 0.08 0 0.045 0.08 0 0.05 0.08 0 0.055 0.08 0 0.06 0.08 0 0.065 0.08 0 0.07 0.08 0 0.075 0.08 0 0.08 0.08 0 0.085 0.08 0 0.09 0.08 0 0.095 0.08 0 0.1 0.08 0 0.105 0.08 0 0.11 0.08 0 0.115 0.08 0 0.12 0.08 0 0.125 0.08 0 0.13 0.08 0 0.135 0.08 0 0.14 0.08 0 0.145 0.08 0 0.15 0.08 0 0.155 0.08 0 0.16 0.08 0 0.165 0.08 0
[...]
			<PointData Scalars="VitesseX">
				<DataArray Name="VitesseX" type="Float32" format="ascii">
 0 1.75483e-14 1.11664e-14 9.73705e-15 -3.15162e-15 -1.49444e-14 1.74078e-14 -3.50901e-14 -2.73284e-14 -5.71814e-14 -1.66442e-14 -6.78071e-14 -4.9136e-14 -7.50792e-14 -7.92334e-14 -8.18546e-14 5.78021e-14 -1.40465e-13 5.43333e-15 -9.82134e-14 -5.14593e-14 1.13709e-13 -6.50986e-15 -7.79329e-16 -3.5729e-14 6.17099e-14 -5.80437e-14 8.16876e-14 -1.97376e-13 7.17008e-15 -5.9197e-14 3.95066e-15 -1.40767e-13 5.42943e-14 -5.35164e-14 -3.70739e-14 5.95276e-14 -2.90737e-14 8.93402e-14 -1.13336e-13 3.85794e-13 9.21996e-13 6.8856e-12 4.18449e-11 2.40983e-10 1.32195e-09 6.88063e-09 3.3861e-08 1.57206e-07 6.86595e-07 2.81197e-06 1.07597e-05 3.83013e-05 0.000126205 0.000382673 0.00106055 0.00266697 0.00604493 0.0122941 0.0224052 0.0367448 0.0548029 0.0754805 0.097661 0.120575 0.143814 0.167188 0.190603 0.214008 0.237389 0.260731 0.284023 0.307257 0.330426 0.353523 0.376544 0.399483 0.422337 0.445099 0.467766 0.490332 0.512792 0.535139 0.557367 0.579466 0.601427 0.623237 0.644881 0.666339 0.68759 0.708602 0.729342 0.749765 0.769815 0.789426 0.808515 0.82698 0.844698 0.861519 0.877265 0.891728 0.904674 0.915856 0.925052 0.932106 0.936984 0.93987 0.93978 0.939388 0.938707 0.93787 0.936938 0.935965 0.934997 0.934064 0.933196 0.93241 0.931719 0.931124 0.930619 0.930198 0.929849 0.929561 0.929323 0.929124 0.928957 0.928814 0.92869 0.928564 0.928408 0.928504 0.926877 0.945397 0.946815 0.937224 0.930032 0.928293 0.927871 0.927749 0.927703 0.927678 0.927661 0.927649 0.927639 0.927632 0.927626 0.927615 0.927589 0.927523 0.92737 0.927034 0.926332 0.924909 0.922145 0.916937 0.907433 0.890728 0.862706 0.818331 0.752666 0.662731 0.54992 0.422052 0.293377 0.17998 0.0958152 0.0444406 0.0185839 0.00733173 0.00281119 0.00106414 0.000400349 0.000150075 5.61004e-05 2.09158e-05 7.77645e-06 2.88262e-06 1.06505e-06 3.92105e-07 1.43796e-07 5.25123e-08 1.90903e-08 6.90627e-09 2.4856e-09 8.89708e-10 3.16504e-10 1.11795e-10 3.87249e-11 1.36992e-11 4.61353e-12 1.57641e-12 -1.58709e-13 6.17654e-13 -4.0626e-13 3.78855e-13 -1.27897e-13 3.18071e-13 -2.07592e-13 -4.21497e-13 1.51868e-13 0 0 -4.86027e-16 1.96174e-15 5.22285e-15 -8.42416e-16 -7.60839e-15 -2.98521e-14 -1.69999e-14 -2.80833e-14 -2.48002e-14 -7.5541e-14 -4.52537e-14 -4.51201e-14 -8.71816e-14 -2.99908e-14 -9.17139e-15 -1.44478e-13 -7.09202e-14 -3.74964e-14 2.37898e-14 6.94104e-15 -2.32025e-14 -6.52447e-15 1.5913e-14 9.35291e-14 -2.93555e-14 -4.95314e-14 -8.5786e-14 5.15606e-14 -6.15971e-14 -3.76377e-14 -6.23971e-14 -4.72798e-14 -4.43217e-14 -6.16059e-14 2.67078e-14 1.85573e-14 8.91271e-14 -1.55937e-13 1.86572e-13 1.18128e-13 1.01695e-12 6.89659e-12 4.15756e-11 2.4077e-10 1.32243e-09 6.88036e-09 3.3861e-08 1.57206e-07 6.86596e-07 2.81197e-06 1.07597e-05 3.83013e-05 0.000126205 0.000382673 0.00106055 0.00266697 0.00604493 0.0122941 0.0224052 0.0367448 0.0548029 0.0754805 0.097661 0.120575 0.143814 0.167188 0.190603 0.214008 0.237389 0.260731 0.284023 0.307257 0.330426 0.353523 0.376544 0.399483 0.422337 0.445099 0.467766 0.490332 0.512792 0.535139 0.557367 0.579466 0.601427 0.623237 0.644881 0.666339 0.68759 0.708602 0.729342 0.749765 0.769815 0.789426 0.808515 0.82698 0.844698 0.861519 0.877265 0.891728 0.904674 0.915856 0.925052 0.932106 0.936984 0.93987 0.93978 0.939388 0.938707 0.93787 0.936938 0.935965 0.934997 0.934064 0.933196 0.93241 0.931719 0.931124 0.930619 0.930198 0.929849 0.929561 0.929323 0.929124 0.928957 0.928814 0.92869 0.928564 0.928408 0.928504 0.926877 0.945397 0.946815 0.937224 0.930032 0.928293 0.927871 0.927749 0.927703 0.927678 0.927661 0.927649 0.927639 0.927632 0.927626 0.927615 0.927589 0.927523 0.92737 0.927034 0.926332 0.924909 0.922145 0.916937 0.907433 0.890728 0.862706 0.818331 0.752666 0.662731 0.54992 0.422052 0.293377 0.17998 0.0958152 0.0444406 0.0185839 0.00733173 0.00281119 0.00106414 0.000400349 0.000150075 5.61004e-05 2.09158e-05 7.77645e-06 2.88262e-06 1.06505e-06 3.92105e-07 1.43796e-07 5.25127e-08 1.90901e-08 6.90641e-09 2.48575e-09 8.89372e-10 3.16522e-10 1.11791e-10 3.9272e-11 1.34762e-11 4.49824e-12 1.14436e-12 8.80549e-13 -3.89818e-13 4.01019e-13 -2.60232e-13 -7.97515e-14 -3.42617e-13 2.38884e-13 7.90748e-14 -2.25998e-13 0 0 -6.3922e-15 -6.67008e-15 -1.3468e-14 -3.8332e-15 -1.48358e-14 -2.31105e-14 -6.26822e-14 -5.18916e-14 -3.70312e-14 -3.72407e-14 -6.35424e-14 -3.83539e-14 -3.11668e-14 -4.7856e-14 -7.68698e-14 -2.89873e-14 1.62678e-14 -9.14012e-14 -4.93892e-15 -5.40606e-14 4.26957e-14 8.09384e-14 -3.81374e-14 -2.58005e-14 -2.85848e-14 1.20665e-14 -7.00553e-15 -6.29104e-14 -5.32576e-14 -9.95935e-14 4.25265e-14 -3.67284e-14 1.76391e-14 1.89659e-14 -7.72481e-14 -8.09647e-14 -6.14727e-14 1.26846e-13 -2.00752e-14 1.8845e-13 1.00112e-12 6.87138e-12 4.15576e-11 2.40843e-10 1.3223e-09 6.88043e-09 3.38608e-08 1.57206e-07 6.86595e-07 2.81197e-06 1.07597e-05 3.83013e-05 0.000126205 0.000382673 0.00106055 0.00266697 0.00604493 0.0122941 0.0224052 0.0367448 0.0548029 0.0754805 0.097661 0.120575 0.143814 0.167188 0.190603 0.214008 0.237389 0.260731 0.284023 0.307257 0.330426 0.353523 0.376544 0.399483 0.422337 0.445099 0.467766 0.490332 0.512792 0.535139 0.557367 0.579466 0.601427 0.623237 0.644881 0.666339 0.68759 0.708602 0.729342 0.749765 0.769815 0.789426 0.808515 0.82698 0.844698 0.861519 0.877265 0.891728 0.904674 0.915856 0.925052 0.932106 0.936984 0.93987 0.93978 0.939388 0.938707 0.93787 0.936938 0.935965 0.934997 0.934064 0.933196 0.93241 0.931719 0.931124 0.930619 0.930198 0.929849 0.929561 0.929323 0.929124 0.928957 0.928814 0.92869 0.928564 0.928408 0.928504 0.926877 0.945397 0.946815 0.937224 0.930032 0.928293 0.927871 0.927749 0.927703 0.927678 0.927661 0.927649 0.927639 0.927632 0.927626 0.927615 0.927589 0.927523 0.92737 0.927034 0.926332 0.924909 0.922145 0.916937 0.907433 0.890728 0.862706 0.818331 0.752666 0.662731 0.54992 0.422052 0.293377 0.17998 0.0958152 0.0444406 0.0185839 0.00733173 0.00281119 0.00106414 0.000400349 0.000150075 5.61004e-05 2.09158e-05 7.77645e-06 2.88262e-06 1.06505e-06 3.92105e-07 1.43796e-07 5.25124e-08 1.90904e-08 6.90634e-09 2.48572e-09 8.89688e-10 3.16506e-10 1.11965e-10 3.89872e-11 1.34572e-11 4.30772e-12 1.40348e-12 3.07192e-13 5.23171e-13 -2.63854e-13 2.27869e-13 -6.35517e-15 -5.81554e-13 -9.54667e-14 4.24335e-13 -1.33225e-13 0 0 2.24234e-15 1.35146e-15 -4.9213e-15 -2.98009e-14 -2.50217e-14 -1.64854e-14 -5.40141e-14 -8.16594e-14 -5.53086e-14 -2.03078e-14 -2.56593e-14 -4.23786e-14 -3.01918e-14 -9.14555e-14 -8.24802e-14 2.91903e-14 7.98558e-15 1.88308e-14 -9.24704e-14 1.33454e-14 -6.51069e-14 -6.50124e-15 1.95502e-14 -3.21608e-14 -1.79481e-14 3.34502e-14 3.18882e-14 -1.87288e-13 -3.94298e-14 5.87834e-14 -5.39933e-14 1.60172e-14 -7.49627e-14 -9.29138e-14 -7.02925e-14 -2.43499e-14 -5.02302e-14 9.48804e-15 1.47588e-15 3.27418e-13 1.09568e-12 6.83941e-12 4.17148e-11 2.40974e-10 1.32211e-09 6.88052e-09 3.3861e-08 1.57205e-07 6.86595e-07 2.81197e-06 1.07597e-05 3.83013e-05 0.000126205 0.000382673 0.00106055 0.00266697 0.00604493 0.0122941 0.0224052 0.0367448 0.0548029 0.0754805 0.097661 0.120575 0.143814 0.167188 0.190603 0.214008 0.237389 0.260731 0.284023 0.307257 0.330426 0.353523 0.376544 0.399483 0.422337 0.445099 0.467766 0.490332 0.512792 0.535139 0.557367 0.579466 0.601427 0.623237 0.644881 0.666339 0.68759 0.708602 0.729342 0.749765 0.769815 0.789426 0.808515 0.82698 0.844698 0.861519 0.877265 0.891728 0.904674 0.915856 0.925052 0.932106 0.936984 0.93987 0.93978 0.939388 0.938707 0.93787 0.936938 0.935965 0.934997 0.934064 0.933196 0.93241 0.931719 0.931124 0.930619 0.930198 0.929849 0.929561 0.929323 0.929124 0.928957 0.928814 0.92869 0.928564 0.928408 0.928504 0.926877 0.945397 0.946815 0.937224 0.930032 0.928293 0.927871 0.927749 0.927703 0.927678 0.927661 0.927649 0.927639 0.927632 0.927626 0.927615 0.927589 0.927523 0.92737 0.927034 0.926332 0.924909 0.922145 0.916937 0.907433 0.890728 0.862706 0.818331 0.752666 0.662731 0.54992 0.422052 0.293377 0.17998 0.0958152 0.0444406 0.0185839 0.00733173 0.00281119 0.00106414 0.000400349 0.000150075 5.61004e-05 2.09158e-05 7.77645e-06 2.88262e-06 1.06505e-06 3.92105e-07 1.43796e-07 5.25122e-08 1.90906e-08 6.90643e-09 2.48586e-09 8.89899e-10 3.16592e-10 1.11957e-10 3.91374e-11 1.40299e-11 4.58205e-12 7.42186e-13 9.03728e-14 6.42331e-13 -6.96335e-13 1.31388e-13 2.74501e-14 2.0887e-13 3.23762e-13 -2.8955e-13 -4.14769e-14 0 0 -8.30631e-17 2.56764e-15 5.31602e-15 -2.14566e-14 -3.41884e-14 -4.32671e-14 -2.58872e-14 -3.81885e-14 -3.95084e-14 -5.8953e-14 8.72134e-15 -3.28484e-14 -8.69515e-14 -4.94087e-14 -2.00953e-14 -7.11473e-14 -1.5619e-14 8.17761e-14 -6.11705e-14 2.959e-14 -1.1017e-13 -6.1786e-14 2.82451e-14 5.02605e-14 -7.83615e-14 -9.1435e-14 -8.65028e-14 -3.12905e-15 -1.21184e-13 3.97789e-16 -1.27815e-13 6.17965e-14 -8.13723e-14 -1.13316e-13 1.57223e-14 7.57675e-14 5.05239e-14 -1.50672e-13 1.10774e-13 1.31963e-13 1.17425e-12 6.82403e-12 4.16895e-11 2.40977e-10 1.32238e-09 6.88035e-09 3.38612e-08 1.57206e-07 6.86595e-07 2.81197e-06 1.07597e-05 3.83013e-05 0.000126205 0.000382673 0.00106055 0.00266697 0.00604493 0.0122941 0.0224052 0.0367448 0.0548029 0.0754805 0.097661 0.120575 0.143814 0.167188 0.190603 0.214008 0.237389 0.260731 0.284023 0.307257 0.330426 0.353523 0.376544 0.399483 0.422337 0.445099 0.467766 0.490332 0.512792 0.535139 0.557367 0.579466 0.601427 0.623237 0.644881 0.666339 0.68759 0.708602 0.729342 0.749765 0.769815 0.789426 0.808515 0.82698 0.844698 0.861519 0.877265 0.891728 0.904674 0.915856 0.925052 0.932106 0.936984 0.93987 0.93978 0.939388 0.938707 0.93787 0.936938 0.935965 0.934997 0.934064 0.933196 0.93241 0.931719 0.931124 0.930619 0.930198 0.929849 0.929561 0.929323 0.929124 0.928957 0.928814 0.92869 0.928564 0.928408 0.928504 0.926877 0.945397 0.946815 0.937224 0.930032 0.928293 0.927871 0.927749 0.927703 0.927678 0.927661 0.927649 0.927639 0.927632 0.927626 0.927615 0.927589 0.927523 0.92737 0.927034 0.926332 0.924909 0.922145 0.916937 0.907433 0.890728 0.862706 0.818331 0.752666 0.662731 0.54992 0.422052 0.293377 0.17998 0.0958152 0.0444406 0.0185839 0.00733173 0.00281119 0.00106414 0.000400349 0.000150075 5.61004e-05 2.09158e-05 7.77645e-06 2.88262e-06 1.06505e-06 3.92105e-07 1.43795e-07 5.25132e-08 1.90902e-08 6.90664e-09 2.48574e-09 8.89378e-10 3.16729e-10 1.11843e-10 3.98254e-11 1.38358e-11 4.52236e-12 6.99055e-13 8.02814e-13 -1.35391e-13 3.43927e-13 -6.8006e-13 -2.65107e-13 2.81547e-13 4.45867e-13 -2.38644e-13 -1.9877e-13 0 0 1.08514e-15 -3.66488e-15 -7.16993e-15 7.55548e-15 -4.77327e-14 -2.26723e-14 -7.0201e-14 1.19969e-14 -5.00429e-14 -1.73341e-14 -3.56231e-14 -1.65432e-14 -7.65692e-14 -3.08702e-14 -9.24818e-14 8.81076e-14 -1.32982e-14 2.35143e-14 -9.3071e-14 -1.40973e-13 1.5538e-13 5.78463e-14 -9.14903e-14 -1.09546e-13 -5.75756e-14 -1.84618e-13 2.46661e-15 -5.79999e-14 -1.39658e-13 -2.9988e-13 6.61543e-14 -2.81052e-14 1.65397e-13 6.68233e-14 -7.2956e-14 6.07185e-14 -1.28765e-13 3.34584e-13 -3.08035e-13 1.35527e-13 1.04748e-12 6.80441e-12 4.17582e-11 2.41132e-10 1.32221e-09 6.88043e-09 3.38611e-08 1.57206e-07 6.86595e-07 2.81197e-06 1.07597e-05 3.83013e-05 0.000126205 0.000382673 0.00106055 0.00266697 0.00604493 0.0122941 0.0224052 0.0367448 0.0548029 0.0754805 0.097661 0.120575 0.143814 0.167188 0.190603 0.214008 0.237389 0.260731 0.284023 0.307257 0.330426 0.353523 0.376544 0.399483 0.422337 0.445099 0.467766 0.490332 0.512792 0.535139 0.557367 0.579466 0.601427 0.623237 0.644881 0.666339 0.68759 0.708602 0.729342 0.749765 0.769815 0.789426 0.808515 0.82698 0.844698 0.861519 0.877265 0.891728 0.904674 0.915856 0.925052 0.932106 0.936984 0.93987 0.93978 0.939388 0.938707 0.93787 0.936938 0.935965 0.934997 0.934064 0.933196 0.93241 0.931719 0.931124 0.930619 0.930198 0.929849 0.929561 0.929323 0.929124 0.928957 0.928814 0.92869 0.928564 0.928408 0.928504 0.926877 0.945397 0.946815 0.937224 0.930032 0.928293 0.927871 0.927749 0.927703 0.927678 0.927661 0.927649 0.927639 0.927632 0.927626 0.927615 0.927589 0.927523 0.92737 0.927034 0.926332 0.924909 0.922145 0.916937 0.907433 0.890728 0.862706 0.818331 0.752666 0.662731 0.54992 0.422052 0.293377 0.17998 0.0958152 0.0444406 0.0185839 0.00733173 0.00281119 0.00106414 0.000400349 0.000150075 5.61004e-05 2.09158e-05 7.77645e-06 2.88262e-06 1.06505e-06 3.92105e-07 1.43796e-07 5.25136e-08 1.90901e-08 6.90654e-09 2.48531e-09 8.893e-10 3.16745e-10 1.11915e-10 3.95315e-11 1.32728e-11 4.11309e-12 2.00839e-12 1.19458e-13 8.88189e-13 3.44519e-13 -2.67842e-13 -5.66218e-13 -1.44497e-14 -6.32084e-13 3.70837e-13 2.28259e-14 0
				</DataArray>
				<DataArray Name="VitesseY" type="Float32" format="ascii">