<?xml version="1.0"?>
<VTKFile type="PolyData">
	<PolyData>
		<Piece NumberOfPoints="1206" NumberOfPolys="1000">
			<Points>
				<DataArray type="Float32" NumberOfComponents="3" format="ascii">
 0 0 0 0.005 0 0 0.01 0 0 0.015 0 0 0.02 0 0 0.025 0 0 0.03 0 0 0.035 0 0 0.04 0 0 0.045 0 0 0.05 0 0 0.055 0 0 0.06 0 0 0.065 0 0 0.07 0 0 0.075 0 0 0.08 0 0 0.085 0 0 0.09 0 0 0.095 0 0 0.1 0 0 0.105 0 0 0.11 0 0 0.115 0 0 0.12 0 0 0.125 0 0 0.13 0 0 0.135 0 0 0.14 0 0 0.145 0 0 0.15 0 0 0.155 0 0 0.16 0 0 0.165 0 0 0.17 0 0 0.175 0 0 0.18 0 0 0.185 0 0 0.19 0 0 0.195 0 0 0.2 0 0 0.205 0 0 0.21 0 0 0.215 0 0 0.22 0 0 0.225 0 0 0.23 0 0 0.235 0 0 0.24 0 0 0.245 0 0 0.25 0 0 0.255 0 0 0.26 0 0 0.265 0 0 0.27 0 0 0.275 0 0 0.28 0 0 0.285 0 0 0.29 0 0 0.295 0 0 0.3 0 0 0.305 0 0 0.31 0 0 0.315 0 0 0.32 0 0 0.325 0 0 0.33 0 0 0.335 0 0 0.34 0 0 0.345 0 0 0.35 0 0 0.355 0 0 0.36 0 0 0.365 0 0 0.37 0 0 0.375 0 0 0.38 0 0 0.385 0 0 0.39 0 0 0.395 0 0 0.4 0 0 0.405 0 0 0.41 0 0 0.415 0 0 0.42 0 0 0.425 0 0 0.43 0 0 0.435 0 0 0.44 0 0 0.445 0 0 0.45 0 0 0.455 0 0 0.46 0 0 0.465 0 0 0.47 0 0 0.475 0 0 0.48 0 0 0.485 0 0 0.49 0 0 0.495 0 0 0.5 0 0 0.505 0 0 0.51 0 0 0.515 0 0 0.52 0 0 0.525 0 0 0.53 0 0 0.535 0 0 0.54 0 0 0.545 0 0 0.55 0 0 0.555 0 0 0.56 0 0 0.565 0 0 0.57 0 0 0.575 0 0 0.58 0 0 0.585 0 0 0.59 0 0 0.595 0 0 0.6 0 0 0.605 0 0 0.61 0 0 0.615 0 0 0.62 0 0 0.625 0 0 0.63 0 0 0.635 0 0 0.64 0 0 0.645 0 0 0.65 0 0 0.655 0 0 0.66 0 0 0.665 0 0 0.67 0 0 0.675 0 0 0.68 0 0 0.685 0 0 0.69 0 0 0.695 0 0 0.7 0 0 0.705 0 0 0.71 0 0 0.715 0 0 0.72 0 0 0.725 0 0 0.73 0 0 0.735 0 0 0.74 0 0 0.745 0 0 0.75 0 0 0.755 0 0 0.76 0 0 0.765 0 0 0.77 0 0 0.775 0 0 0.78 0 0 0.785 0 0 0.79 0 0 0.795 0 0 0.8 0 0 0.805 0 0 0.81 0 0 0.815 0 0 0.82 0 0 0.825 0 0 0.83 0 0 0.835 0 0 0.84 0 0 0.845 0 0 0.85 0 0 0.855 0 0 0.86 0 0 0.865 0 0 0.87 0 0 0.875 0 0 0.88 0 0 0.885 0 0 0.89 0 0 0.895 0 0 0.9 0 0 0.905 0 0 0.91 0 0 0.915 0 0 0.92 0 0 0.925 0 0 0.93 0 0 0.935 0 0 0.94 0 0 0.945 0 0 0.95 0 0 0.955 0 0 0.96 0 0 0.965 0 0 0.97 0 0 0.975 0 0 0.98 0 0 0.985 0 0 0.99 0 0 0.995 0 0 1 0 0 0 0.02 0 0.005 0.02 0 0.01 0.02 0 0.015 0.02 0 0.02 0.02 0 0.025 0.02 0 0.03 0.02 0 0.035 0.02 0 0.04 0.02 0 0.045 0.02 0 0.05 0.02 0 0.055 0.02 0 0.06 0.02 0 0.065 0.02 0 0.07 0.02 0 0.075 0.02 0 0.08 0.02 0 0.085 0.02 0 0.09 0.02 0 0.095 0.02 0 0.1 0.02 0 0.105 0.02 0 0.11 0.02 0 0.115 0.02 0 0.12 0.02 0 0.125 0.02 0 0.13 0.02 0 0.135 0.02 0 0.14 0.02 0 0.145 0.02 0 0.15 0.02 0 0.155 0.02 0 0.16 0.02 0 0.165 0.02 0 0.17 0.02 0 0.175 0.02 0 0.18 0.02 0 0.185 0.02 0 0.19 0.02 0 0.195 0.02 0 0.2 0.02 0 0.205 0.02 0 0.21 0.02 0 0.215 0.02 0 0.22 0.02 0 0.225 0.02 0 0.23 0.02 0 0.235 0.02 0 0.24 0.02 0 0.245 0.02 0 0.25 0.02 0 0.255 0.02 0 0.26 0.02 0 0.265 0.02 0 0.27 0.02 0 0.275 0.02 0 0.28 0.02 0 0.285 0.02 0 0.29 0.02 0 0.295 0.02 0 0.3 0.02 0 0.305 0.02 0 0.31 0.02 0 0.315 0.02 0 0.32 0.02 0 0.325 0.02 0 0.33 0.02 0 0.335 0.02 0 0.34 0.02 0 0.345 0.02 0 0.35 0.02 0 0.355 0.02 0 0.36 0.02 0 0.365 0.02 0 0.37 0.02 0 0.375 0.02 0 0.38 0.02 0 0.385 0.02 0 0.39 0.02 0 0.395 0.02 0 0.4 0.02 0 0.405 0.02 0 0.41 0.02 0 0.415 0.02 0 0.42 0.02 0 0.425 0.02 0 0.43 0.02 0 0.435 0.02 0 0.44 0.02 0 0.445 0.02 0 0.45 0.02 0 0.455 0.02 0 0.46 0.02 0 0.465 0.02 0 0.47 0.02 0 0.475 0.02 0 0.48 0.02 0 0.485 0.02 0 0.49 0.02 0 0.495 0.02 0 0.5 0.02 0 0.505 0.02 0 0.51 0.02 0 0.515 0.02 0 0.52 0.02 0 0.525 0.02 0 0.53 0.02 0 0.535 0.02 0 0.54 0.02 0 0.545 0.02 0 0.55 0.02 0 0.555 0.02 0 0.56 0.02 0 0.565 0.02 0 0.57 0.02 0 0.575 0.02 0 0.58 0.02 0 0.585 0.02 0 0.59 0.02 0 0.595 0.02 0 0.6 0.02 0 0.605 0.02 0 0.61 0.02 0 0.615 0.02 0 0.62 0.02 0 0.625 0.02 0 0.63 0.02 0 0.635 0.02 0 0.64 0.02 0 0.645 0.02 0 0.65 0.02 0 0.655 0.02 0 0.66 0.02 0 0.665 0.02 0 0.67 0.02 0 0.675 0.02 0 0.68 0.02 0 0.685 0.02 0 0.69 0.02 0 0.695 0.02 0 0.7 0.02 0 0.705 0.02 0 0.71 0.02 0 0.715 0.02 0 0.72 0.02 0 0.725 0.02 0 0.73 0.02 0 0.735 0.02 0 0.74 0.02 0 0.745 0.02 0 0.75 0.02 0 0.755 0.02 0 0.76 0.02 0 0.765 0.02 0 0.77 0.02 0 0.775 0.02 0 0.78 0.02 0 0.785 0.02 0 0.79 0.02 0 0.795 0.02 0 0.8 0.02 0 0.805 0.02 0 0.81 0.02 0 0.815 0.02 0 0.82 0.02 0 0.825 0.02 0 0.83 0.02 0 0.835 0.02 0 0.84 0.02 0 0.845 0.02 0 0.85 0.02 0 0.855 0.02 0 0.86 0.02 0 0.865 0.02 0 0.87 0.02 0 0.875 0.02 0 0.88 0.02 0 0.885 0.02 0 0.89 0.02 0 0.895 0.02 0 0.9 0.02 0 0.905 0.02 0 0.91 0.02 0 0.915 0.02 0 0.92 0.02 0 0.925 0.02 0 0.93 0.02 0 0.935 0.02 0 0.94 0.02 0 0.945 0.02 0 0.95 0.02 0 0.955 0.02 0 0.96 0.02 0 0.965 0.02 0 0.97 0.02 0 0.975 0.02 0 0.98 0.02 0 0.985 0.02 0 0.99 0.02 0 0.995 0.02 0 1 0.02 0 0 0.04 0 0.005 0.04 0 0.01 0.04 0 0.015 0.04 0 0.02 0.04 0 0.025 0.04 0 0.03 0.04 0 0.035 0.04 0 0.04 0.04 0 0.045 0.04 0 0.05 0.04 0 0.055 0.04 0 0.06 0.04 0 0.065 0.04 0 0.07 0.04 0 0.075 0.04 0 0.08 0.04 0 0.085 0.04 0 0.09 0.04 0 0.095 0.04 0 0.1 0.04 0 0.105 0.04 0 0.11 0.04 0 0.115 0.04 0 0.12 0.04 0 0.125 0.04 0 0.13 0.04 0 0.135 0.04 0 0.14 0.04 0 0.145 0.04 0 0.15 0.04 0 0.155 0.04 0 0.16 0.04 0 0.165 0.04 0 0.17 0.04 0 0.175 0.04 0 0.18 0.04 0 0.185 0.04 0 0.19 0.04 0 0.195 0.04 0 0.2 0.04 0 0.205 0.04 0 0.21 0.04 0 0.215 0.04 0 0.22 0.04 0 0.225 0.04 0 0.23 0.04 0 0.235 0.04 0 0.24 0.04 0 0.245 0.04 0 0.25 0.04 0 0.255 0.04 0 0.26 0.04 0 0.265 0.04 0 0.27 0.04 0 0.275 0.04 0 0.28 0.04 0 0.285 0.04 0 0.29 0.04 0 0.295 0.04 0 0.3 0.04 0 0.305 0.04 0 0.31 0.04 0 0.315 0.04 0 0.32 0.04 0 0.325 0.04 0 0.33 0.04 0 0.335 0.04 0 0.34 0.04 0 0.345 0.04 0 0.35 0.04 0 0.355 0.04 0 0.36 0.04 0 0.365 0.04 0 0.37 0.04 0 0.375 0.04 0 0.38 0.04 0 0.385 0.04 0 0.39 0.04 0 0.395 0.04 0 0.4 0.04 0 0.405 0.04 0 0.41 0.04 0 0.415 0.04 0 0.42 0.04 0 0.425 0.04 0 0.43 0.04 0 0.435 0.04 0 0.44 0.04 0 0.445 0.04 0 0.45 0.04 0 0.455 0.04 0 0.46 0.04 0 0.465 0.04 0 0.47 0.04 0 0.475 0.04 0 0.48 0.04 0 0.485 0.04 0 0.49 0.04 0 0.495 0.04 0 0.5 0.04 0 0.505 0.04 0 0.51 0.04 0 0.515 0.04 0 0.52 0.04 0 0.525 0.04 0 0.53 0.04 0 0.535 0.04 0 0.54 0.04 0 0.545 0.04 0 0.55 0.04 0 0.555 0.04 0 0.56 0.04 0 0.565 0.04 0 0.57 0.04 0 0.575 0.04 0 0.58 0.04 0 0.585 0.04 0 0.59 0.04 0 0.595 0.04 0 0.6 0.04 0 0.605 0.04 0 0.61 0.04 0 0.615 0.04 0 0.62 0.04 0 0.625 0.04 0 0.63 0.04 0 0.635 0.04 0 0.64 0.04 0 0.645 0.04 0 0.65 0.04 0 0.655 0.04 0 0.66 0.04 0 0.665 0.04 0 0.67 0.04 0 0.675 0.04 0 0.68 0.04 0 0.685 0.04 0 0.69 0.04 0 0.695 0.04 0 0.7 0.04 0 0.705 0.04 0 0.71 0.04 0 0.715 0.04 0 0.72 0.04 0 0.725 0.04 0 0.73 0.04 0 0.735 0.04 0 0.74 0.04 0 0.745 0.04 0 0.75 0.04 0 0.755 0.04 0 0.76 0.04 0 0.765 0.04 0 0.77 0.04 0 0.775 0.04 0 0.78 0.04 0 0.785 0.04 0 0.79 0.04 0 0.795 0.04 0 0.8 0.04 0 0.805 0.04 0 0.81 0.04 0 0.815 0.04 0 0.82 0.04 0 0.825 0.04 0 0.83 0.04 0 0.835 0.04 0 0.84 0.04 0 0.845 0.04 0 0.85 0.04 0 0.855 0.04 0 0.86 0.04 0 0.865 0.04 0 0.87 0.04 0 0.875 0.04 0 0.88 0.04 0 0.885 0.04 0 0.89 0.04 0 0.895 0.04 0 0.9 0.04 0 0.905 0.04 0 0.91 0.04 0 0.915 0.04 0 0.92 0.04 0 0.925 0.04 0 0.93 0.04 0 0.935 0.04 0 0.94 0.04 0 0.945 0.04 0 0.95 0.04 0 0.955 0.04 0 0.96 0.04 0 0.965 0.04 0 0.97 0.04 0 0.975 0.04 0 0.98 0.04 0 0.985 0.04 0 0.99 0.04 0 0.995 0.04 0 1 0.04 0 0 0.06 0 0.005 0.06 0 0.01 0.06 0 0.015 0.06 0 0.02 0.06 0 0.025 0.06 0 0.03 0.06 0 0.035 0.06 0 0.04 0.06 0 0.045 0.06 0 0.05 0.06 0 0.055 0.06 0 0.06 0.06 0 0.065 0.06 0 0.07 0.06 0 0.075 0.06 0 0.08 0.06 0 0.085 0.06 0 0.09 0.06 0 0.095 0.06 0 0.1 0.06 0 0.105 0.06 0 0.11 0.06 0 0.115 0.06 0 0.12 0.06 0 0.125 0.06 0 0.13 0.06 0 0.135 0.06 0 0.14 0.06 0 0.145 0.06 0 0.15 0.06 0 0.155 0.06 0 0.16 0.06 0 0.165 0.06 0 0.17 0.06 0 0.175 0.06 0 0.18 0.06 0 0.185 0.06 0 0.19 0.06 0 0.195 0.06 0 0.2 0.06 0 0.205 0.06 0 0.21 0.06 0 0.215 0.06 0 0.22 0.06 0 0.225 0.06 0 0.23 0.06 0 0.235 0.06 0 0.24 0.06 0 0.245 0.06 0 0.25 0.06 0 0.255 0.06 0 0.26 0.06 0 0.265 0.06 0 0.27 0.06 0 0.275 0.06 0 0.28 0.06 0 0.285 0.06 0 0.29 0.06 0 0.295 0.06 0 0.3 0.06 0 0.305 0.06 0 0.31 0.06 0 0.315 0.06 0 0.32 0.06 0 0.325 0.06 0 0.33 0.06 0 0.335 0.06 0 0.34 0.06 0 0.345 0.06 0 0.35 0.06 0 0.355 0.06 0 0.36 0.06 0 0.365 0.06 0 0.37 0.06 0 0.375 0.06 0 0.38 0.06 0 0.385 0.06 0 0.39 0.06 0 0.395 0.06 0 0.4 0.06 0 0.405 0.06 0 0.41 0.06 0 0.415 0.06 0 0.42 0.06 0 0.425 0.06 0 0.43 0.06 0 0.435 0.06 0 0.44 0.06 0 0.445 0.06 0 0.45 0.06 0 0.455 0.06 0 0.46 0.06 0 0.465 0.06 0 0.47 0.06 0 0.475 0.06 0 0.48 0.06 0 0.485 0.06 0 0.49 0.06 0 0.495 0.06 0 0.5 0.06 0 0.505 0.06 0 0.51 0.06 0 0.515 0.06 0 0.52 0.06 0 0.525 0.06 0 0.53 0.06 0 0.535 0.06 0 0.54 0.06 0 0.545 0.06 0 0.55 0.06 0 0.555 0.06 0 0.56 0.06 0 0.565 0.06 0 0.57 0.06 0 0.575 0.06 0 0.58 0.06 0 0.585 0.06 0 0.59 0.06 0 0.595 0.06 0 0.6 0.06 0 0.605 0.06 0 0.61 0.06 0 0.615 0.06 0 0.62 0.06 0 0.625 0.06 0 0.63 0.06 0 0.635 0.06 0 0.64 0.06 0 0.645 0.06 0 0.65 0.06 0 0.655 0.06 0 0.66 0.06 0 0.665 0.06 0 0.67 0.06 0 0.675 0.06 0 0.68 0.06 0 0.685 0.06 0 0.69 0.06 0 0.695 0.06 0 0.7 0.06 0 0.705 0.06 0 0.71 0.06 0 0.715 0.06 0 0.72 0.06 0 0.725 0.06 0 0.73 0.06 0 0.735 0.06 0 0.74 0.06 0 0.745 0.06 0 0.75 0.06 0 0.755 0.06 0 0.76 0.06 0 0.765 0.06 0 0.77 0.06 0 0.775 0.06 0 0.78 0.06 0 0.785 0.06 0 0.79 0.06 0 0.795 0.06 0 0.8 0.06 0 0.805 0.06 0 0.81 0.06 0 0.815 0.06 0 0.82 0.06 0 0.825 0.06 0 0.83 0.06 0 0.835 0.06 0 0.84 0.06 0 0.845 0.06 0 0.85 0.06 0 0.855 0.06 0 0.86 0.06 0 0.865 0.06 0 0.87 0.06 0 0.875 0.06 0 0.88 0.06 0 0.885 0.06 0 0.89 0.06 0 0.895 0.06 0 0.9 0.06 0 0.905 0.06 0 0.91 0.06 0 0.915 0.06 0 0.92 0.06 0 0.925 0.06 0 0.93 0.06 0 0.935 0.06 0 0.94 0.06 0 0.945 0.06 0 0.95 0.06 0 0.955 0.06 0 0.96 0.06 0 0.965 0.06 0 0.97 0.06 0 0.975 0.06 0 0.98 0.06 0 0.985 0.06 0 0.99 0.06 0 0.995 0.06 0 1 0.06 0 0 0.08 0 0.005 0.08 0 0.01 0.08 0 0.015 0.08 0 0.02 0.08 0 0.025 0.08 0 0.03 0.08 0 0.035 0.08 0 0.04 0.08 0 0.045 0.08 0 0.05 0.08 0 0.055 0.08 0 0.06 0.08 0 0.065 0.08 0 0.07 0.08 0 0.075 0.08 0 0.08 0.08 0 0.085 0.08 0 0.09 0.08 0 0.095 0.08 0 0.1 0.08 0 0.105 0.08 0 0.11 0.08 0 0.115 0.08 0 0.12 0.08 0 0.125 0.08 0 0.13 0.08 0 0.135 0.08 0 0.14 0.08 0 0.145 0.08 0 0.15 0.08 0 0.155 0.08 0 0.16 0.08 0 0.165 0.08 0
[...]
			<PointData Scalars="VitesseX">
				<DataArray Name="VitesseX" type="Float32" format="ascii">
 0 -8.87474e-15 -1.05276e-15 -3.17417e-14 -1.58389e-15 -9.04596e-16 -2.01122e-14 -4.43848e-14 2.00382e-14 1.80907e-14 -6.68211e-14 4.31783e-14 -6.07351e-14 4.79294e-14 -2.9061e-14 -4.46633e-14 -3.36252e-14 -5.14426e-14 -3.10044e-14 -8.52039e-14 -1.47309e-14 -9.26828e-14 -3.4435e-14 -5.4509e-14 -2.65457e-14 -1.1502e-13 -7.4854e-14 6.03706e-14 -7.19901e-14 5.91361e-14 1.10243e-14 -1.2601e-14 -6.12638e-14 -8.08223e-14 -2.03501e-14 -1.34883e-13 -7.13457e-14 -1.81333e-13 -1.80689e-13 -1.07974e-13 -2.06886e-13 5.8182e-14 -7.57843e-14 -1.23568e-13 -2.21587e-13 -1.14507e-13 1.25187e-13 -5.64183e-14 1.20137e-13 7.65647e-13 5.00786e-12 3.40823e-11 2.22285e-10 1.36686e-09 7.91547e-09 4.30378e-08 2.19098e-07 1.04065e-06 4.5932e-06 1.87525e-05 7.04316e-05 0.000241782 0.000752843 0.00210784 0.00526026 0.011625 0.0226911 0.0392374 0.0607742 0.0858263 0.11281 0.140652 0.168814 0.197056 0.22527 0.253428 0.281505 0.309482 0.337345 0.365081 0.39268 0.420133 0.44743 0.474562 0.50152 0.528293 0.554869 0.581231 0.607364 0.633242 0.658837 0.684112 0.709019 0.733497 0.757469 0.780839 0.803484 0.825255 0.845967 0.865399 0.883289 0.899336 0.913209 0.92457 0.933118 0.938675 0.941597 0.941338 0.940679 0.939752 0.938664 0.937489 0.936299 0.93514 0.934056 0.933078 0.932224 0.931498 0.930896 0.930402 0.930002 0.929675 0.929403 0.929213 0.928888 0.926479 0.941514 0.951476 0.942168 0.932292 0.928961 0.928201 0.928006 0.92795 0.927934 0.927935 0.927935 0.927924 0.927872 0.927714 0.927322 0.926447 0.924607 0.920906 0.913856 0.900996 0.878662 0.84205 0.785909 0.706086 0.601799 0.478061 0.346934 0.224355 0.126383 0.0615856 0.0265421 0.0105909 0.00406059 0.0015275 0.00056916 0.000210823 7.77202e-05 2.85206e-05 1.04161e-05 3.78465e-06 1.36756e-06 4.9124e-07 1.75343e-07 6.21669e-08 2.18846e-08 7.64642e-09 2.65088e-09 9.11028e-10 3.1039e-10 1.04722e-10 3.49044e-11 1.12543e-11 3.32946e-12 1.10657e-12 -1.3318e-13 -1.66535e-14 -2.01929e-13 3.39842e-13 -6.10525e-13 5.08405e-13 -2.52775e-13 3.31538e-13 -3.5506e-13 2.62503e-13 5.7618e-14 -1.65034e-13 -3.24109e-14 6.35146e-13 -3.32246e-13 3.92462e-13 6.00265e-14 -9.14333e-14 2.67528e-13 -2.30977e-13 0 0 -3.37674e-15 -1.07913e-14 1.1778e-14 -2.4038e-14 -2.15493e-14 -1.5845e-15 1.41815e-14 -2.28053e-14 -2.75274e-14 2.59411e-14 -4.55652e-14 2.62104e-14 -5.84925e-14 -3.57055e-14 2.33666e-14 -2.8577e-14 -5.18412e-14 -5.96097e-14 -6.66992e-14 -1.06121e-13 -3.83576e-14 1.91944e-14 -1.21881e-13 -1.1578e-13 3.51201e-15 -1.20365e-14 -7.91094e-14 3.42199e-14 3.29129e-14 -1.55326e-14 -4.07856e-14 2.74953e-15 3.67419e-14 -1.7979e-13 -9.3798e-14 -1.51401e-13 -1.01959e-13 -6.31476e-14 -1.82851e-13 -3.74356e-14 -1.88446e-13 9.31819e-14 -1.95453e-14 -2.7137e-14 -9.18096e-14 -1.84483e-13 -3.15846e-14 7.69468e-14 6.19776e-13 4.94374e-12 3.42699e-11 2.22414e-10 1.36712e-09 7.91461e-09 4.30379e-08 2.19099e-07 1.04065e-06 4.5932e-06 1.87525e-05 7.04316e-05 0.000241782 0.000752843 0.00210784 0.00526026 0.011625 0.0226911 0.0392374 0.0607742 0.0858263 0.11281 0.140652 0.168814 0.197056 0.22527 0.253428 0.281505 0.309482 0.337345 0.365081 0.39268 0.420133 0.44743 0.474562 0.50152 0.528293 0.554869 0.581231 0.607364 0.633242 0.658837 0.684112 0.709019 0.733497 0.757469 0.780839 0.803484 0.825255 0.845967 0.865399 0.883289 0.899336 0.913209 0.92457 0.933118 0.938675 0.941597 0.941338 0.940679 0.939752 0.938664 0.937489 0.936299 0.93514 0.934056 0.933078 0.932224 0.931498 0.930896 0.930402 0.930002 0.929675 0.929403 0.929213 0.928888 0.926479 0.941514 0.951476 0.942168 0.932292 0.928961 0.928201 0.928006 0.92795 0.927934 0.927935 0.927935 0.927924 0.927872 0.927714 0.927322 0.926447 0.924607 0.920906 0.913856 0.900996 0.878662 0.84205 0.785909 0.706086 0.601799 0.478061 0.346934 0.224355 0.126383 0.0615856 0.0265421 0.0105909 0.00406059 0.0015275 0.00056916 0.000210823 7.77202e-05 2.85206e-05 1.04161e-05 3.78465e-06 1.36756e-06 4.9124e-07 1.75343e-07 6.21667e-08 2.18846e-08 7.64668e-09 2.65059e-09 9.1147e-10 3.10578e-10 1.04639e-10 3.48137e-11 1.13817e-11 3.21621e-12 5.28647e-13 1.97765e-13 2.91966e-14 -2.33429e-13 -2.61056e-13 3.39813e-13 -1.57228e-13 5.43217e-13 -4.23763e-13 1.99992e-13 -1.21151e-13 8.48537e-14 -8.95915e-14 2.21071e-13 -3.85407e-14 2.959e-13 -1.91072e-13 7.00117e-13 2.97047e-13 -1.47369e-13 5.13913e-14 0 0 -3.29163e-15 -3.46194e-15 -3.5006e-15 2.55761e-14 9.6909e-15 -1.2694e-14 -3.55344e-14 1.90566e-14 4.35572e-14 -2.84013e-14 -4.64033e-15 -5.2616e-14 -2.66102e-14 -6.54936e-14 -3.46703e-14 -8.79357e-14 -3.07604e-14 -5.47839e-14 -1.05581e-14 -6.66495e-14 -1.26589e-13 -6.43213e-14 -3.7372e-14 -2.72302e-14 -5.27933e-14 -4.70535e-14 1.81445e-14 8.89394e-15 8.5934e-15 6.03637e-14 -8.10323e-14 -6.64869e-14 -8.67068e-14 -4.64919e-14 -1.83717e-13 -3.86968e-14 -6.17802e-14 -4.92956e-14 -3.89697e-14 -1.85252e-13 2.70632e-14 -9.67109e-14 -2.49765e-14 3.83325e-14 4.06985e-14 -1.02753e-13 -1.60594e-13 3.48445e-14 6.31674e-13 5.15217e-12 3.40499e-11 2.22335e-10 1.367e-09 7.91502e-09 4.30378e-08 2.19099e-07 1.04065e-06 4.5932e-06 1.87525e-05 7.04316e-05 0.000241782 0.000752843 0.00210784 0.00526026 0.011625 0.0226911 0.0392374 0.0607742 0.0858263 0.11281 0.140652 0.168814 0.197056 0.22527 0.253428 0.281505 0.309482 0.337345 0.365081 0.39268 0.420133 0.44743 0.474562 0.50152 0.528293 0.554869 0.581231 0.607364 0.633242 0.658837 0.684112 0.709019 0.733497 0.757469 0.780839 0.803484 0.825255 0.845967 0.865399 0.883289 0.899336 0.913209 0.92457 0.933118 0.938675 0.941597 0.941338 0.940679 0.939752 0.938664 0.937489 0.936299 0.93514 0.934056 0.933078 0.932224 0.931498 0.930896 0.930402 0.930002 0.929675 0.929403 0.929213 0.928888 0.926479 0.941514 0.951476 0.942168 0.932292 0.928961 0.928201 0.928006 0.92795 0.927934 0.927935 0.927935 0.927924 0.927872 0.927714 0.927322 0.926447 0.924607 0.920906 0.913856 0.900996 0.878662 0.84205 0.785909 0.706086 0.601799 0.478061 0.346934 0.224355 0.126383 0.0615856 0.0265421 0.0105909 0.00406059 0.0015275 0.00056916 0.000210823 7.77202e-05 2.85206e-05 1.04161e-05 3.78465e-06 1.36756e-06 4.9124e-07 1.75343e-07 6.21668e-08 2.18847e-08 7.64659e-09 2.65107e-09 9.11207e-10 3.10619e-10 1.04606e-10 3.49124e-11 1.1432e-11 3.02424e-12 9.12134e-13 6.32366e-18 -1.63189e-13 -1.47656e-13 -8.30085e-14 1.24743e-13 1.14923e-13 -2.33339e-13 1.17725e-13 -1.93047e-14 2.03024e-13 -2.59114e-13 1.80605e-13 5.95937e-13 1.27227e-14 2.18013e-13 7.73346e-14 5.73673e-13 -2.07164e-13 6.38906e-13 2.42201e-13 0 0 -3.60713e-15 -4.59275e-15 -3.85415e-15 -1.6344e-15 3.45182e-15 -4.10514e-15 -4.65839e-15 1.75302e-14 4.22913e-14 4.77135e-16 -2.93189e-14 -1.69673e-14 -4.5561e-14 -6.81709e-14 -8.63892e-14 -3.42279e-14 -9.30884e-14 -1.41224e-13 -5.7696e-14 3.75938e-14 -2.35993e-14 -3.30697e-14 -4.97741e-14 -4.22333e-14 -3.24912e-14 -9.41354e-14 1.54495e-13 -9.87716e-14 3.8969e-14 -5.99762e-15 -6.69693e-14 -4.60321e-14 -1.77141e-13 -1.32091e-14 7.06139e-15 -6.31601e-14 -1.29412e-13 -1.76564e-13 -5.99736e-14 -7.13901e-14 -1.08825e-13 -1.30808e-13 -1.66491e-14 -8.31919e-14 -1.19147e-13 1.2361e-13 -1.74909e-14 2.75754e-14 7.5206e-13 5.06139e-12 3.4134e-11 2.22207e-10 1.36694e-09 7.91518e-09 4.30379e-08 2.19099e-07 1.04065e-06 4.5932e-06 1.87525e-05 7.04316e-05 0.000241782 0.000752843 0.00210784 0.00526026 0.011625 0.0226911 0.0392374 0.0607742 0.0858263 0.11281 0.140652 0.168814 0.197056 0.22527 0.253428 0.281505 0.309482 0.337345 0.365081 0.39268 0.420133 0.44743 0.474562 0.50152 0.528293 0.554869 0.581231 0.607364 0.633242 0.658837 0.684112 0.709019 0.733497 0.757469 0.780839 0.803484 0.825255 0.845967 0.865399 0.883289 0.899336 0.913209 0.92457 0.933118 0.938675 0.941597 0.941338 0.940679 0.939752 0.938664 0.937489 0.936299 0.93514 0.934056 0.933078 0.932224 0.931498 0.930896 0.930402 0.930002 0.929675 0.929403 0.929213 0.928888 0.926479 0.941514 0.951476 0.942168 0.932292 0.928961 0.928201 0.928006 0.92795 0.927934 0.927935 0.927935 0.927924 0.927872 0.927714 0.927322 0.926447 0.924607 0.920906 0.913856 0.900996 0.878662 0.84205 0.785909 0.706086 0.601799 0.478061 0.346934 0.224355 0.126383 0.0615856 0.0265421 0.0105909 0.00406059 0.0015275 0.00056916 0.000210823 7.77202e-05 2.85206e-05 1.04161e-05 3.78465e-06 1.36756e-06 4.9124e-07 1.75343e-07 6.21669e-08 2.18846e-08 7.64656e-09 2.65093e-09 9.11682e-10 3.10399e-10 1.04869e-10 3.4685e-11 1.12998e-11 3.88808e-12 8.74334e-13 -3.92048e-13 5.37672e-14 4.51678e-14 -1.37132e-13 -1.84114e-13 2.19952e-13 -1.79988e-13 2.79592e-13 -2.24401e-13 2.39621e-13 -5.60154e-13 2.29631e-13 7.38509e-13 2.57106e-13 -7.32625e-13 5.03392e-13 5.63555e-14 -1.31649e-13 3.27986e-13 -1.48463e-13 0 0 1.22854e-15 -5.46196e-15 2.251e-14 -3.18996e-14 -3.44942e-14 4.78116e-15 3.09426e-14 -1.6261e-14 -1.77775e-14 5.02945e-14 -8.38552e-14 4.62042e-14 -8.61404e-14 -3.77764e-14 -2.83337e-14 -6.56413e-14 -7.58828e-14 -9.82852e-14 -1.02731e-13 -6.89667e-14 6.82392e-14 -1.78912e-14 -6.7293e-14 -1.21385e-13 3.21497e-14 -5.14822e-14 1.1538e-14 -7.72168e-15 4.11339e-14 -3.95007e-14 3.13347e-14 2.88537e-14 -4.86815e-15 -1.39834e-13 -8.69553e-14 -5.76444e-14 -1.52225e-13 -1.67891e-13 -2.39712e-13 9.64612e-14 -2.44682e-13 6.23619e-14 -4.83071e-14 -1.10755e-13 -1.54737e-13 -5.65648e-14 7.05388e-14 1.32376e-13 7.34309e-13 4.93797e-12 3.424e-11 2.22396e-10 1.36723e-09 7.91482e-09 4.30379e-08 2.19099e-07 1.04065e-06 4.5932e-06 1.87525e-05 7.04316e-05 0.000241782 0.000752843 0.00210784 0.00526026 0.011625 0.0226911 0.0392374 0.0607742 0.0858263 0.11281 0.140652 0.168814 0.197056 0.22527 0.253428 0.281505 0.309482 0.337345 0.365081 0.39268 0.420133 0.44743 0.474562 0.50152 0.528293 0.554869 0.581231 0.607364 0.633242 0.658837 0.684112 0.709019 0.733497 0.757469 0.780839 0.803484 0.825255 0.845967 0.865399 0.883289 0.899336 0.913209 0.92457 0.933118 0.938675 0.941597 0.941338 0.940679 0.939752 0.938664 0.937489 0.936299 0.93514 0.934056 0.933078 0.932224 0.931498 0.930896 0.930402 0.930002 0.929675 0.929403 0.929213 0.928888 0.926479 0.941514 0.951476 0.942168 0.932292 0.928961 0.928201 0.928006 0.92795 0.927934 0.927935 0.927935 0.927924 0.927872 0.927714 0.927322 0.926447 0.924607 0.920906 0.913856 0.900996 0.878662 0.84205 0.785909 0.706086 0.601799 0.478061 0.346934 0.224355 0.126383 0.0615856 0.0265421 0.0105909 0.00406059 0.0015275 0.00056916 0.000210823 7.77202e-05 2.85206e-05 1.04161e-05 3.78465e-06 1.36756e-06 4.9124e-07 1.75343e-07 6.2167e-08 2.18847e-08 7.64678e-09 2.65061e-09 9.1174e-10 3.10739e-10 1.0479e-10 3.45508e-11 1.16167e-11 3.70286e-12 3.65858e-13 -9.51571e-14 1.41749e-13 -1.77301e-14 2.11423e-13 1.06193e-14 -2.6408e-13 4.71422e-13 -1.90937e-13 7.80077e-14 -4.7207e-13 -3.76938e-13 -8.81934e-14 2.38031e-13 1.84597e-14 -8.89056e-14 2.32252e-13 3.13348e-13 3.33597e-13 -2.37651e-13 -8.87598e-14 0 0 9.66816e-16 1.18675e-14 -9.57053e-15 3.7114e-14 -1.43161e-14 -2.45586e-14 -7.26148e-14 3.61797e-14 4.01222e-14 -7.58712e-14 1.59555e-14 -9.20448e-14 3.0535e-14 -2.78482e-14 -4.46263e-14 -2.15169e-13 2.51303e-14 6.45244e-14 -6.29925e-14 -1.4891e-13 -8.54687e-14 -1.71109e-13 7.94709e-14 -7.74957e-15 -9.83492e-14 -5.95814e-14 -3.10354e-14 5.94579e-14 1.48269e-14 9.58107e-14 1.03514e-13 -4.9965e-14 1.68256e-14 -7.00296e-15 -5.02755e-13 1.65093e-13 -1.46602e-13 -1.35639e-13 -1.79689e-13 -1.66816e-13 2.17484e-13 -6.92306e-14 -1.97746e-13 -1.45774e-13 7.93301e-14 -7.17035e-14 -1.38377e-13 2.45532e-13 7.5394e-13 5.17787e-12 3.38543e-11 2.22504e-10 1.36719e-09 7.91557e-09 4.30377e-08 2.19099e-07 1.04065e-06 4.5932e-06 1.87525e-05 7.04316e-05 0.000241782 0.000752843 0.00210784 0.00526026 0.011625 0.0226911 0.0392374 0.0607742 0.0858263 0.11281 0.140652 0.168814 0.197056 0.22527 0.253428 0.281505 0.309482 0.337345 0.365081 0.39268 0.420133 0.44743 0.474562 0.50152 0.528293 0.554869 0.581231 0.607364 0.633242 0.658837 0.684112 0.709019 0.733497 0.757469 0.780839 0.803484 0.825255 0.845967 0.865399 0.883289 0.899336 0.913209 0.92457 0.933118 0.938675 0.941597 0.941338 0.940679 0.939752 0.938664 0.937489 0.936299 0.93514 0.934056 0.933078 0.932224 0.931498 0.930896 0.930402 0.930002 0.929675 0.929403 0.929213 0.928888 0.926479 0.941514 0.951476 0.942168 0.932292 0.928961 0.928201 0.928006 0.92795 0.927934 0.927935 0.927935 0.927924 0.927872 0.927714 0.927322 0.926447 0.924607 0.920906 0.913856 0.900996 0.878662 0.84205 0.785909 0.706086 0.601799 0.478061 0.346934 0.224355 0.126383 0.0615856 0.0265421 0.0105909 0.00406059 0.0015275 0.00056916 0.000210823 7.77202e-05 2.85206e-05 1.04161e-05 3.78464e-06 1.36756e-06 4.91239e-07 1.75343e-07 6.21673e-08 2.18849e-08 7.64669e-09 2.6512e-09 9.10618e-10 3.11153e-10 1.04498e-10 3.48334e-11 1.19888e-11 2.57508e-12 8.56595e-13 6.50848e-14 -2.25462e-13 -1.56179e-13 1.39305e-12 -6.512e-13 8.46448e-14 -5.03068e-13 4.73455e-13 -1.88836e-13 -5.12529e-13 -2.63888e-13 -2.60288e-13 -2.83635e-13 2.6038e-13 7.9942e-13 3.86996e-13 3.21124e-13 -1.69364e-13 7.08803e-13 2.7005e-13 0
				</DataArray>
				<DataArray Name="VitesseY" type="Float32" format="ascii">