<?xml version="1.0"?>
<VTKFile type="PolyData">
	<PolyData>
		<Piece NumberOfPoints="1206" NumberOfPolys="1000">
			<Points>
				<DataArray type="Float32" NumberOfComponents="3" format="ascii">
 0 0 0 0.005 0 0 0.01 0 0 0.015 0 0 0.02 0 0 0.025 0 0 0.03 0 0 0.035 0 0 0.04 0 0 0.045 0 0 0.05 0 0 0.055 0 0 0.06 0 0 0.065 0 0 0.07 0 0 0.075 0 0 0.08 0 0 0.085 0 0 0.09 0 0 0.095 0 0 0.1 0 0 0.105 0 0 0.11 0 0 0.115 0 0 0.12 0 0 0.125 0 0 0.13 0 0 0.135 0 0 0.14 0 0 0.145 0 0 0.15 0 0 0.155 0 0 0.16 0 0 0.165 0 0 0.17 0 0 0.175 0 0 0.18 0 0 0.185 0 0 0.19 0 0 0.195 0 0 0.2 0 0 0.205 0 0 0.21 0 0 0.215 0 0 0.22 0 0 0.225 0 0 0.23 0 0 0.235 0 0 0.24 0 0 0.245 0 0 0.25 0 0 0.255 0 0 0.26 0 0 0.265 0 0 0.27 0 0 0.275 0 0 0.28 0 0 0.285 0 0 0.29 0 0 0.295 0 0 0.3 0 0 0.305 0 0 0.31 0 0 0.315 0 0 0.32 0 0 0.325 0 0 0.33 0 0 0.335 0 0 0.34 0 0 0.345 0 0 0.35 0 0 0.355 0 0 0.36 0 0 0.365 0 0 0.37 0 0 0.375 0 0 0.38 0 0 0.385 0 0 0.39 0 0 0.395 0 0 0.4 0 0 0.405 0 0 0.41 0 0 0.415 0 0 0.42 0 0 0.425 0 0 0.43 0 0 0.435 0 0 0.44 0 0 0.445 0 0 0.45 0 0 0.455 0 0 0.46 0 0 0.465 0 0 0.47 0 0 0.475 0 0 0.48 0 0 0.485 0 0 0.49 0 0 0.495 0 0 0.5 0 0 0.505 0 0 0.51 0 0 0.515 0 0 0.52 0 0 0.525 0 0 0.53 0 0 0.535 0 0 0.54 0 0 0.545 0 0 0.55 0 0 0.555 0 0 0.56 0 0 0.565 0 0 0.57 0 0 0.575 0 0 0.58 0 0 0.585 0 0 0.59 0 0 0.595 0 0 0.6 0 0 0.605 0 0 0.61 0 0 0.615 0 0 0.62 0 0 0.625 0 0 0.63 0 0 0.635 0 0 0.64 0 0 0.645 0 0 0.65 0 0 0.655 0 0 0.66 0 0 0.665 0 0 0.67 0 0 0.675 0 0 0.68 0 0 0.685 0 0 0.69 0 0 0.695 0 0 0.7 0 0 0.705 0 0 0.71 0 0 0.715 0 0 0.72 0 0 0.725 0 0 0.73 0 0 0.735 0 0 0.74 0 0 0.745 0 0 0.75 0 0 0.755 0 0 0.76 0 0 0.765 0 0 0.77 0 0 0.775 0 0 0.78 0 0 0.785 0 0 0.79 0 0 0.795 0 0 0.8 0 0 0.805 0 0 0.81 0 0 0.815 0 0 0.82 0 0 0.825 0 0 0.83 0 0 0.835 0 0 0.84 0 0 0.845 0 0 0.85 0 0 0.855 0 0 0.86 0 0 0.865 0 0 0.87 0 0 0.875 0 0 0.88 0 0 0.885 0 0 0.89 0 0 0.895 0 0 0.9 0 0 0.905 0 0 0.91 0 0 0.915 0 0 0.92 0 0 0.925 0 0 0.93 0 0 0.935 0 0 0.94 0 0 0.945 0 0 0.95 0 0 0.955 0 0 0.96 0 0 0.965 0 0 0.97 0 0 0.975 0 0 0.98 0 0 0.985 0 0 0.99 0 0 0.995 0 0 1 0 0 0 0.02 0 0.005 0.02 0 0.01 0.02 0 0.015 0.02 0 0.02 0.02 0 0.025 0.02 0 0.03 0.02 0 0.035 0.02 0 0.04 0.02 0 0.045 0.02 0 0.05 0.02 0 0.055 0.02 0 0.06 0.02 0 0.065 0.02 0 0.07 0.02 0 0.075 0.02 0 0.08 0.02 0 0.085 0.02 0 0.09 0.02 0 0.095 0.02 0 0.1 0.02 0 0.105 0.02 0 0.11 0.02 0 0.115 0.02 0 0.12 0.02 0 0.125 0.02 0 0.13 0.02 0 0.135 0.02 0 0.14 0.02 0 0.145 0.02 0 0.15 0.02 0 0.155 0.02 0 0.16 0.02 0 0.165 0.02 0 0.17 0.02 0 0.175 0.02 0 0.18 0.02 0 0.185 0.02 0 0.19 0.02 0 0.195 0.02 0 0.2 0.02 0 0.205 0.02 0 0.21 0.02 0 0.215 0.02 0 0.22 0.02 0 0.225 0.02 0 0.23 0.02 0 0.235 0.02 0 0.24 0.02 0 0.245 0.02 0 0.25 0.02 0 0.255 0.02 0 0.26 0.02 0 0.265 0.02 0 0.27 0.02 0 0.275 0.02 0 0.28 0.02 0 0.285 0.02 0 0.29 0.02 0 0.295 0.02 0 0.3 0.02 0 0.305 0.02 0 0.31 0.02 0 0.315 0.02 0 0.32 0.02 0 0.325 0.02 0 0.33 0.02 0 0.335 0.02 0 0.34 0.02 0 0.345 0.02 0 0.35 0.02 0 0.355 0.02 0 0.36 0.02 0 0.365 0.02 0 0.37 0.02 0 0.375 0.02 0 0.38 0.02 0 0.385 0.02 0 0.39 0.02 0 0.395 0.02 0 0.4 0.02 0 0.405 0.02 0 0.41 0.02 0 0.415 0.02 0 0.42 0.02 0 0.425 0.02 0 0.43 0.02 0 0.435 0.02 0 0.44 0.02 0 0.445 0.02 0 0.45 0.02 0 0.455 0.02 0 0.46 0.02 0 0.465 0.02 0 0.47 0.02 0 0.475 0.02 0 0.48 0.02 0 0.485 0.02 0 0.49 0.02 0 0.495 0.02 0 0.5 0.02 0 0.505 0.02 0 0.51 0.02 0 0.515 0.02 0 0.52 0.02 0 0.525 0.02 0 0.53 0.02 0 0.535 0.02 0 0.54 0.02 0 0.545 0.02 0 0.55 0.02 0 0.555 0.02 0 0.56 0.02 0 0.565 0.02 0 0.57 0.02 0 0.575 0.02 0 0.58 0.02 0 0.585 0.02 0 0.59 0.02 0 0.595 0.02 0 0.6 0.02 0 0.605 0.02 0 0.61 0.02 0 0.615 0.02 0 0.62 0.02 0 0.625 0.02 0 0.63 0.02 0 0.635 0.02 0 0.64 0.02 0 0.645 0.02 0 0.65 0.02 0 0.655 0.02 0 0.66 0.02 0 0.665 0.02 0 0.67 0.02 0 0.675 0.02 0 0.68 0.02 0 0.685 0.02 0 0.69 0.02 0 0.695 0.02 0 0.7 0.02 0 0.705 0.02 0 0.71 0.02 0 0.715 0.02 0 0.72 0.02 0 0.725 0.02 0 0.73 0.02 0 0.735 0.02 0 0.74 0.02 0 0.745 0.02 0 0.75 0.02 0 0.755 0.02 0 0.76 0.02 0 0.765 0.02 0 0.77 0.02 0 0.775 0.02 0 0.78 0.02 0 0.785 0.02 0 0.79 0.02 0 0.795 0.02 0 0.8 0.02 0 0.805 0.02 0 0.81 0.02 0 0.815 0.02 0 0.82 0.02 0 0.825 0.02 0 0.83 0.02 0 0.835 0.02 0 0.84 0.02 0 0.845 0.02 0 0.85 0.02 0 0.855 0.02 0 0.86 0.02 0 0.865 0.02 0 0.87 0.02 0 0.875 0.02 0 0.88 0.02 0 0.885 0.02 0 0.89 0.02 0 0.895 0.02 0 0.9 0.02 0 0.905 0.02 0 0.91 0.02 0 0.915 0.02 0 0.92 0.02 0 0.925 0.02 0 0.93 0.02 0 0.935 0.02 0 0.94 0.02 0 0.945 0.02 0 0.95 0.02 0 0.955 0.02 0 0.96 0.02 0 0.965 0.02 0 0.97 0.02 0 0.975 0.02 0 0.98 0.02 0 0.985 0.02 0 0.99 0.02 0 0.995 0.02 0 1 0.02 0 0 0.04 0 0.005 0.04 0 0.01 0.04 0 0.015 0.04 0 0.02 0.04 0 0.025 0.04 0 0.03 0.04 0 0.035 0.04 0 0.04 0.04 0 0.045 0.04 0 0.05 0.04 0 0.055 0.04 0 0.06 0.04 0 0.065 0.04 0 0.07 0.04 0 0.075 0.04 0 0.08 0.04 0 0.085 0.04 0 0.09 0.04 0 0.095 0.04 0 0.1 0.04 0 0.105 0.04 0 0.11 0.04 0 0.115 0.04 0 0.12 0.04 0 0.125 0.04 0 0.13 0.04 0 0.135 0.04 0 0.14 0.04 0 0.145 0.04 0 0.15 0.04 0 0.155 0.04 0 0.16 0.04 0 0.165 0.04 0 0.17 0.04 0 0.175 0.04 0 0.18 0.04 0 0.185 0.04 0 0.19 0.04 0 0.195 0.04 0 0.2 0.04 0 0.205 0.04 0 0.21 0.04 0 0.215 0.04 0 0.22 0.04 0 0.225 0.04 0 0.23 0.04 0 0.235 0.04 0 0.24 0.04 0 0.245 0.04 0 0.25 0.04 0 0.255 0.04 0 0.26 0.04 0 0.265 0.04 0 0.27 0.04 0 0.275 0.04 0 0.28 0.04 0 0.285 0.04 0 0.29 0.04 0 0.295 0.04 0 0.3 0.04 0 0.305 0.04 0 0.31 0.04 0 0.315 0.04 0 0.32 0.04 0 0.325 0.04 0 0.33 0.04 0 0.335 0.04 0 0.34 0.04 0 0.345 0.04 0 0.35 0.04 0 0.355 0.04 0 0.36 0.04 0 0.365 0.04 0 0.37 0.04 0 0.375 0.04 0 0.38 0.04 0 0.385 0.04 0 0.39 0.04 0 0.395 0.04 0 0.4 0.04 0 0.405 0.04 0 0.41 0.04 0 0.415 0.04 0 0.42 0.04 0 0.425 0.04 0 0.43 0.04 0 0.435 0.04 0 0.44 0.04 0 0.445 0.04 0 0.45 0.04 0 0.455 0.04 0 0.46 0.04 0 0.465 0.04 0 0.47 0.04 0 0.475 0.04 0 0.48 0.04 0 0.485 0.04 0 0.49 0.04 0 0.495 0.04 0 0.5 0.04 0 0.505 0.04 0 0.51 0.04 0 0.515 0.04 0 0.52 0.04 0 0.525 0.04 0 0.53 0.04 0 0.535 0.04 0 0.54 0.04 0 0.545 0.04 0 0.55 0.04 0 0.555 0.04 0 0.56 0.04 0 0.565 0.04 0 0.57 0.04 0 0.575 0.04 0 0.58 0.04 0 0.585 0.04 0 0.59 0.04 0 0.595 0.04 0 0.6 0.04 0 0.605 0.04 0 0.61 0.04 0 0.615 0.04 0 0.62 0.04 0 0.625 0.04 0 0.63 0.04 0 0.635 0.04 0 0.64 0.04 0 0.645 0.04 0 0.65 0.04 0 0.655 0.04 0 0.66 0.04 0 0.665 0.04 0 0.67 0.04 0 0.675 0.04 0 0.68 0.04 0 0.685 0.04 0 0.69 0.04 0 0.695 0.04 0 0.7 0.04 0 0.705 0.04 0 0.71 0.04 0 0.715 0.04 0 0.72 0.04 0 0.725 0.04 0 0.73 0.04 0 0.735 0.04 0 0.74 0.04 0 0.745 0.04 0 0.75 0.04 0 0.755 0.04 0 0.76 0.04 0 0.765 0.04 0 0.77 0.04 0 0.775 0.04 0 0.78 0.04 0 0.785 0.04 0 0.79 0.04 0 0.795 0.04 0 0.8 0.04 0 0.805 0.04 0 0.81 0.04 0 0.815 0.04 0 0.82 0.04 0 0.825 0.04 0 0.83 0.04 0 0.835 0.04 0 0.84 0.04 0 0.845 0.04 0 0.85 0.04 0 0.855 0.04 0 0.86 0.04 0 0.865 0.04 0 0.87 0.04 0 0.875 0.04 0 0.88 0.04 0 0.885 0.04 0 0.89 0.04 0 0.895 0.04 0 0.9 0.04 0 0.905 0.04 0 0.91 0.04 0 0.915 0.04 0 0.92 0.04 0 0.925 0.04 0 0.93 0.04 0 0.935 0.04 0 0.94 0.04 0 0.945 0.04 0 0.95 0.04 0 0.955 0.04 0 0.96 0.04 0 0.965 0.04 0 0.97 0.04 0 0.975 0.04 0 0.98 0.04 0 0.985 0.04 0 0.99 0.04 0 0.995 0.04 0 1 0.04 0 0 0.06 0 0.005 0.06 0 0.01 0.06 0 0.015 0.06 0 0.02 0.06 0 0.025 0.06 0 0.03 0.06 0 0.035 0.06 0 0.04 0.06 0 0.045 0.06 0 0.05 0.06 0 0.055 0.06 0 0.06 0.06 0 0.065 0.06 0 0.07 0.06 0 0.075 0.06 0 0.08 0.06 0 0.085 0.06 0 0.09 0.06 0 0.095 0.06 0 0.1 0.06 0 0.105 0.06 0 0.11 0.06 0 0.115 0.06 0 0.12 0.06 0 0.125 0.06 0 0.13 0.06 0 0.135 0.06 0 0.14 0.06 0 0.145 0.06 0 0.15 0.06 0 0.155 0.06 0 0.16 0.06 0 0.165 0.06 0 0.17 0.06 0 0.175 0.06 0 0.18 0.06 0 0.185 0.06 0 0.19 0.06 0 0.195 0.06 0 0.2 0.06 0 0.205 0.06 0 0.21 0.06 0 0.215 0.06 0 0.22 0.06 0 0.225 0.06 0 0.23 0.06 0 0.235 0.06 0 0.24 0.06 0 0.245 0.06 0 0.25 0.06 0 0.255 0.06 0 0.26 0.06 0 0.265 0.06 0 0.27 0.06 0 0.275 0.06 0 0.28 0.06 0 0.285 0.06 0 0.29 0.06 0 0.295 0.06 0 0.3 0.06 0 0.305 0.06 0 0.31 0.06 0 0.315 0.06 0 0.32 0.06 0 0.325 0.06 0 0.33 0.06 0 0.335 0.06 0 0.34 0.06 0 0.345 0.06 0 0.35 0.06 0 0.355 0.06 0 0.36 0.06 0 0.365 0.06 0 0.37 0.06 0 0.375 0.06 0 0.38 0.06 0 0.385 0.06 0 0.39 0.06 0 0.395 0.06 0 0.4 0.06 0 0.405 0.06 0 0.41 0.06 0 0.415 0.06 0 0.42 0.06 0 0.425 0.06 0 0.43 0.06 0 0.435 0.06 0 0.44 0.06 0 0.445 0.06 0 0.45 0.06 0 0.455 0.06 0 0.46 0.06 0 0.465 0.06 0 0.47 0.06 0 0.475 0.06 0 0.48 0.06 0 0.485 0.06 0 0.49 0.06 0 0.495 0.06 0 0.5 0.06 0 0.505 0.06 0 0.51 0.06 0 0.515 0.06 0 0.52 0.06 0 0.525 0.06 0 0.53 0.06 0 0.535 0.06 0 0.54 0.06 0 0.545 0.06 0 0.55 0.06 0 0.555 0.06 0 0.56 0.06 0 0.565 0.06 0 0.57 0.06 0 0.575 0.06 0 0.58 0.06 0 0.585 0.06 0 0.59 0.06 0 0.595 0.06 0 0.6 0.06 0 0.605 0.06 0 0.61 0.06 0 0.615 0.06 0 0.62 0.06 0 0.625 0.06 0 0.63 0.06 0 0.635 0.06 0 0.64 0.06 0 0.645 0.06 0 0.65 0.06 0 0.655 0.06 0 0.66 0.06 0 0.665 0.06 0 0.67 0.06 0 0.675 0.06 0 0.68 0.06 0 0.685 0.06 0 0.69 0.06 0 0.695 0.06 0 0.7 0.06 0 0.705 0.06 0 0.71 0.06 0 0.715 0.06 0 0.72 0.06 0 0.725 0.06 0 0.73 0.06 0 0.735 0.06 0 0.74 0.06 0 0.745 0.06 0 0.75 0.06 0 0.755 0.06 0 0.76 0.06 0 0.765 0.06 0 0.77 0.06 0 0.775 0.06 0 0.78 0.06 0 0.785 0.06 0 0.79 0.06 0 0.795 0.06 0 0.8 0.06 0 0.805 0.06 0 0.81 0.06 0 0.815 0.06 0 0.82 0.06 0 0.825 0.06 0 0.83 0.06 0 0.835 0.06 0 0.84 0.06 0 0.845 0.06 0 0.85 0.06 0 0.855 0.06 0 0.86 0.06 0 0.865 0.06 0 0.87 0.06 0 0.875 0.06 0 0.88 0.06 0 0.885 0.06 0 0.89 0.06 0 0.895 0.06 0 0.9 0.06 0 0.905 0.06 0 0.91 0.06 0 0.915 0.06 0 0.92 0.06 0 0.925 0.06 0 0.93 0.06 0 0.935 0.06 0 0.94 0.06 0 0.945 0.06 0 0.95 0.06 0 0.955 0.06 0 0.96 0.06 0 0.965 0.06 0 0.97 0.06 0 0.975 0.06 0 0.98 0.06 0 0.985 0.06 0 0.99 0.06 0 0.995 0.06 0 1 0.06 0 0 0.08 0 0.005 0.08 0 0.01 0.08 0 0.015 0.08 0 0.02 0.08 0 0.025 0.08 0 0.03 0.08 0 0.035 0.08 0 0.04 0.08 0 0.045 0.08 0 0.05 0.08 0 0.055 0.08 0 0.06 0.08 0 0.065 0.08 0 0.07 0.08 0 0.075 0.08 0 0.08 0.08 0 0.085 0.08 0 0.09 0.08 0 0.095 0.08 0 0.1 0.08 0 0.105 0.08 0 0.11 0.08 0 0.115 0.08 0 0.12 0.08 0 0.125 0.08 0 0.13 0.08 0 0.135 0.08 0 0.14 0.08 0 0.145 0.08 0 0.15 0.08 0 0.155 0.08 0 0.16 0.08 0 0.165 0.08 0
[...]
			<PointData Scalars="VitesseX">
				<DataArray Name="VitesseX" type="Float32" format="ascii">
 0 2.14756e-14 2.42274e-15 6.52952e-14 -4.46911e-14 -3.72026e-14 3.51091e-14 -7.65687e-15 1.25789e-14 3.83012e-15 -8.26752e-15 -1.33262e-13 5.41513e-14 -1.62752e-13 2.3424e-14 2.26204e-14 -9.48025e-14 3.18249e-15 -3.01987e-14 -9.10156e-14 -1.1631e-13 -6.61453e-14 -1.95121e-13 -4.25229e-14 -6.99365e-14 -8.08138e-14 -1.13814e-13 -6.35789e-15 -9.03324e-14 -2.37165e-14 -7.73287e-14 5.14589e-14 -1.61604e-13 1.75144e-14 -5.71813e-14 -1.94807e-13 7.19135e-14 -3.05311e-13 1.29607e-13 -4.3859e-13 -2.32527e-13 -1.47797e-13 -4.42238e-13 1.0785e-13 1.28026e-13 5.17616e-14 1.66945e-13 -1.80374e-13 7.96539e-14 -8.62775e-14 6.88183e-15 6.41963e-15 -3.6834e-13 2.38433e-13 -3.20577e-13 -1.76755e-13 1.30219e-13 -3.72343e-13 1.48873e-13 -3.83318e-14 1.15687e-13 -3.08928e-13 -2.89111e-13 2.87332e-13 -1.01198e-13 -2.22962e-13 7.30106e-14 -3.4077e-13 -9.15466e-14 6.93428e-13 6.23025e-12 7.14321e-11 7.12258e-10 6.56115e-09 5.5033e-08 4.18049e-07 2.85583e-06 1.73992e-05 9.35876e-05 0.000438873 0.00176657 0.00599385 0.016852 0.0390287 0.0750698 0.122483 0.175729 0.230385 0.28456 0.338066 0.390691 0.442339 0.492926 0.542382 0.590634 0.637581 0.68307 0.726864 0.76861 0.807799 0.843754 0.875638 0.902558 0.923748 0.938815 0.948082 0.947942 0.946918 0.945019 0.942751 0.940197 0.938133 0.935561 0.967396 0.96798 0.948267 0.935532 0.931982 0.929666 0.925611 0.917125 0.90006 0.869092 0.817967 0.741317 0.637169 0.50979 0.371479 0.239922 0.133465 0.063077 0.0258211 0.00962699 0.00340472 0.00116835 0.000392691 0.000129672 4.20947e-05 1.34311e-05 4.21027e-06 1.29605e-06 3.9162e-07 1.16115e-07 3.37736e-08 9.63443e-09 2.69511e-09 7.38782e-10 1.98881e-10 5.22215e-11 1.37394e-11 2.63314e-12 -2.49598e-13 3.85589e-13 1.64298e-13 -2.21897e-13 -5.69581e-13 4.08683e-13 -1.79837e-13 4.10501e-13 4.59788e-13 -7.90272e-13 -4.43947e-13 -3.68449e-13 4.50073e-13 7.6754e-13 -2.38793e-13 -1.00736e-12 4.19178e-13 -2.50213e-13 4.40513e-13 -1.49589e-13 1.33773e-13 -2.81024e-14 -6.11524e-13 -3.74152e-13 8.62077e-14 1.53645e-13 -5.28441e-13 -9.97177e-13 4.5127e-13 2.86736e-14 6.1532e-13 1.64686e-14 -5.18341e-13 4.34072e-13 -5.06646e-13 -3.50696e-14 2.42986e-14 -1.18736e-12 -1.10808e-14 1.26431e-13 -8.21362e-13 -3.5522e-13 -6.63725e-13 7.55333e-13 -3.48128e-13 -9.03064e-13 -1.36271e-13 3.39648e-13 1.06266e-12 0 0 -6.44747e-15 1.56376e-14 -2.68516e-14 5.51309e-14 3.22819e-14 -5.21616e-16 -1.52851e-14 -1.91781e-14 -2.17442e-14 -6.17622e-14 1.24101e-14 -1.22634e-13 5.02485e-14 -8.91439e-14 3.1222e-15 3.06585e-14 -6.46264e-14 -7.42744e-14 -7.62075e-14 -4.38321e-14 -1.46991e-13 -3.1789e-14 -1.12936e-13 -1.20282e-13 -2.71148e-14 -7.3977e-14 -1.66727e-13 3.46907e-14 -5.75746e-14 4.00734e-14 -1.34147e-13 -3.31825e-14 -5.52008e-14 -6.13263e-14 -9.47758e-16 -2.22937e-13 5.12562e-14 -3.26141e-13 7.5174e-15 -1.9798e-13 -2.07125e-13 4.01101e-14 -1.76776e-13 -2.86131e-14 6.36049e-14 -9.7528e-14 1.74808e-13 4.85565e-14 1.35052e-13 -7.18399e-14 -3.41162e-13 -5.06382e-15 -3.69333e-13 3.81037e-14 -1.13558e-13 -2.55099e-13 1.39519e-13 -1.14893e-13 -6.23112e-15 -1.42077e-13 7.08781e-14 -8.32425e-14 -8.92811e-14 -1.23932e-13 -1.42198e-13 -2.62894e-13 1.20927e-13 -1.35716e-13 5.78813e-13 6.82487e-12 7.06945e-11 7.12939e-10 6.56066e-09 5.50341e-08 4.18048e-07 2.85583e-06 1.73992e-05 9.35875e-05 0.000438873 0.00176657 0.00599385 0.016852 0.0390287 0.0750698 0.122483 0.175729 0.230385 0.28456 0.338066 0.390691 0.442339 0.492926 0.542382 0.590634 0.637581 0.68307 0.726864 0.76861 0.807799 0.843754 0.875638 0.902558 0.923748 0.938815 0.948082 0.947942 0.946918 0.945019 0.942751 0.940197 0.938133 0.935561 0.967396 0.96798 0.948267 0.935532 0.931982 0.929666 0.925611 0.917125 0.90006 0.869092 0.817967 0.741317 0.637169 0.50979 0.371479 0.239922 0.133465 0.063077 0.0258211 0.00962699 0.00340472 0.00116835 0.000392691 0.000129672 4.20947e-05 1.34311e-05 4.21027e-06 1.29605e-06 3.91621e-07 1.16116e-07 3.37732e-08 9.63412e-09 2.69497e-09 7.39537e-10 1.98668e-10 5.23601e-11 1.29176e-11 3.23568e-12 8.59844e-13 -4.6248e-13 -2.6016e-13 -4.00906e-13 2.8638e-13 1.43668e-13 -1.05166e-13 -3.9494e-13 -6.92439e-13 2.77613e-13 5.3567e-13 -1.84069e-13 -7.55075e-13 -4.5876e-13 4.22113e-15 3.02113e-13 1.79658e-13 1.96263e-13 -4.81647e-13 9.55468e-14 -3.34899e-13 2.26201e-13 2.50421e-13 -3.63974e-13 -4.64355e-13 -8.62952e-13 3.37295e-14 2.80388e-13 -1.17799e-13 -7.14737e-14 -3.07444e-14 -7.62084e-14 5.99755e-13 -7.14726e-14 -1.30376e-13 1.76141e-14 -1.42842e-13 -4.49755e-14 -3.77241e-13 -3.66541e-13 -2.35327e-13 -3.94194e-13 1.2793e-13 -1.4544e-12 -2.18006e-13 7.70537e-13 6.50417e-13 -5.38734e-13 -1.13846e-12 0 0 -1.00108e-15 -1.10268e-14 2.31765e-14 3.88307e-14 3.84393e-14 2.23043e-14 -1.56102e-14 1.34713e-14 -4.75023e-14 1.60856e-14 -7.89239e-14 -4.61415e-14 -3.85345e-14 -2.73476e-14 -2.31968e-14 -1.85871e-14 2.52968e-14 -1.17363e-13 -6.34538e-14 -7.94906e-14 4.72306e-15 -8.53112e-14 -9.24752e-14 -9.77481e-14 -2.65804e-14 -3.42735e-14 -4.55983e-14 -1.63945e-13 -4.95618e-14 -3.84183e-14 4.74084e-14 -6.69665e-14 -7.01075e-14 -5.5093e-14 -4.51385e-14 -1.64517e-14 -2.18385e-13 -4.81563e-14 -1.95106e-13 -6.47662e-14 -7.22091e-14 -9.61086e-14 -7.06179e-14 6.90852e-15 8.57058e-14 5.93236e-14 -1.74731e-13 -4.31755e-14 -1.90237e-13 -6.09817e-14 -1.48536e-14 -1.97542e-13 -9.58433e-14 -6.13001e-14 -1.93974e-13 -1.29715e-13 -1.05366e-13 1.0937e-13 -1.12681e-13 2.13486e-13 1.16508e-13 -6.4932e-14 -2.33595e-13 -8.66178e-14 -8.57373e-14 -1.5593e-13 -3.04849e-13 1.54257e-13 6.68765e-13 6.55607e-12 7.11745e-11 7.12805e-10 6.56133e-09 5.50334e-08 4.18048e-07 2.85583e-06 1.73992e-05 9.35875e-05 0.000438873 0.00176657 0.00599385 0.016852 0.0390287 0.0750698 0.122483 0.175729 0.230385 0.28456 0.338066 0.390691 0.442339 0.492926 0.542382 0.590634 0.637581 0.68307 0.726864 0.76861 0.807799 0.843754 0.875638 0.902558 0.923748 0.938815 0.948082 0.947942 0.946918 0.945019 0.942751 0.940197 0.938133 0.935561 0.967396 0.96798 0.948267 0.935532 0.931982 0.929666 0.925611 0.917125 0.90006 0.869092 0.817967 0.741317 0.637169 0.50979 0.371479 0.239922 0.133465 0.063077 0.0258211 0.00962699 0.00340472 0.00116835 0.000392691 0.000129672 4.20947e-05 1.34311e-05 4.21027e-06 1.29605e-06 3.91621e-07 1.16116e-07 3.37734e-08 9.63425e-09 2.69504e-09 7.38873e-10 1.9873e-10 5.23666e-11 1.34437e-11 3.46797e-12 3.2915e-14 2.09194e-13 -6.86e-13 1.1521e-13 -3.23084e-13 -5.235e-14 -2.18874e-13 -2.61255e-13 -4.2327e-13 -2.95982e-13 -2.3577e-13 -2.74017e-13 1.43632e-13 -2.39133e-13 -2.38787e-13 -4.39235e-14 -7.31996e-16 -2.76376e-13 3.82113e-14 2.10539e-13 2.78375e-13 -1.57431e-13 -3.48606e-13 -1.91661e-13 -4.77367e-13 -4.91812e-13 -7.72636e-14 -9.8638e-14 6.87381e-13 -2.18638e-13 -8.9357e-14 -1.25181e-13 1.47406e-13 -1.24873e-14 7.19227e-13 2.22962e-13 -3.10765e-13 -6.85713e-13 4.44145e-13 -2.78272e-13 -4.84561e-13 -6.15026e-13 -2.69006e-13 2.71562e-13 -1.90097e-13 2.78929e-13 2.31589e-13 -2.14383e-14 -6.71907e-14 0 0 4.0634e-14 3.74008e-14 4.61012e-14 -8.7785e-15 -7.00811e-15 4.99163e-14 -4.39872e-16 -1.46882e-14 -5.75661e-14 2.11693e-14 -1.28982e-14 1.5707e-14 -9.68937e-14 -3.36229e-14 1.41564e-14 -7.28308e-14 -9.07143e-14 -6.42034e-14 -1.81163e-14 -8.7658e-14 4.51421e-14 -1.5817e-13 7.53429e-14 -3.41075e-14 -1.38055e-13 -4.0588e-14 1.16283e-14 -7.25421e-14 -5.20719e-14 -7.33513e-14 -6.37389e-14 -5.35388e-14 -9.56153e-14 -1.20655e-13 -1.77434e-13 6.44933e-14 -6.16298e-14 -1.09825e-13 -1.22334e-13 -1.18622e-13 -1.32827e-13 -1.64023e-13 1.38169e-13 9.80824e-15 -6.1149e-14 1.49902e-13 -3.48159e-13 -8.46901e-14 -1.18893e-13 -5.46401e-14 -1.50751e-13 -3.2109e-13 1.49236e-13 -4.05258e-13 -1.66224e-13 9.64051e-14 -5.1263e-14 9.78055e-14 1.75691e-13 9.1752e-14 -3.65369e-14 3.62373e-14 1.25002e-13 -8.38961e-14 -2.55418e-13 -3.32072e-13 -9.42777e-15 -5.53013e-14 7.88789e-13 6.30001e-12 7.14365e-11 7.12823e-10 6.56115e-09 5.50332e-08 4.18049e-07 2.85583e-06 1.73992e-05 9.35876e-05 0.000438873 0.00176657 0.00599385 0.016852 0.0390287 0.0750698 0.122483 0.175729 0.230385 0.28456 0.338066 0.390691 0.442339 0.492926 0.542382 0.590634 0.637581 0.68307 0.726864 0.76861 0.807799 0.843754 0.875638 0.902558 0.923748 0.938815 0.948082 0.947942 0.946918 0.945019 0.942751 0.940197 0.938133 0.935561 0.967396 0.96798 0.948267 0.935532 0.931982 0.929666 0.925611 0.917125 0.90006 0.869092 0.817967 0.741317 0.637169 0.50979 0.371479 0.239922 0.133465 0.063077 0.0258211 0.00962699 0.00340472 0.00116835 0.000392691 0.000129672 4.20947e-05 1.34311e-05 4.21027e-06 1.29605e-06 3.91621e-07 1.16116e-07 3.37735e-08 9.63439e-09 2.69481e-09 7.38708e-10 1.9868e-10 5.1975e-11 1.34938e-11 3.14709e-12 5.27997e-13 3.28125e-13 -1.93047e-13 -5.7752e-13 -2.82488e-13 1.9878e-13 9.27241e-14 -5.17597e-13 2.30529e-14 9.92571e-14 -3.30715e-13 -6.63524e-13 -1.90739e-13 8.06566e-13 -2.38033e-13 -6.09618e-13 -3.17361e-13 -1.38427e-13 9.21647e-13 -2.26332e-13 -1.84168e-13 -1.93228e-13 -5.62519e-13 -8.34578e-13 -5.0027e-15 2.56559e-13 -3.69305e-13 -4.4646e-13 2.40934e-13 2.45501e-13 1.4118e-13 -1.02913e-13 -4.90028e-13 8.31237e-14 3.30124e-13 2.14599e-14 -1.17974e-13 -8.13783e-14 -2.60989e-13 -2.42569e-13 -4.30295e-13 -1.48621e-13 -7.80714e-13 2.46524e-13 -6.88849e-13 4.31273e-13 -1.73713e-13 1.81731e-13 9.53029e-13 0 0 8.92313e-15 3.56614e-14 -2.16739e-14 2.66098e-14 2.46821e-14 -2.26946e-15 -3.44355e-14 -4.68753e-14 -7.24304e-15 -5.82832e-14 7.9203e-14 -7.98374e-14 8.3803e-14 -9.07674e-14 -2.51457e-14 1.15176e-14 -1.41359e-13 8.37811e-15 -4.65414e-16 -3.07318e-14 -7.93892e-14 1.12707e-14 2.14735e-14 -4.5627e-14 -1.4314e-13 -8.72239e-14 -1.34479e-13 4.33986e-14 -9.01468e-14 -4.21757e-14 -1.85157e-13 4.02048e-14 -6.94345e-14 -1.43544e-13 -7.96249e-14 -2.08092e-13 1.23613e-13 -3.76446e-13 1.56999e-13 -1.88551e-13 -1.72969e-13 1.84412e-14 -5.51806e-14 1.28914e-13 -4.87073e-14 -4.70424e-14 6.77513e-14 3.90719e-14 1.66114e-13 -8.3785e-14 -4.4685e-13 -1.00304e-13 -2.95572e-13 -1.09694e-13 -1.36128e-13 -1.24179e-13 1.70007e-13 -3.92864e-14 1.28085e-13 -1.78616e-13 -8.7656e-14 -1.16979e-13 8.72777e-14 -1.23262e-13 -1.56689e-13 -3.54837e-13 3.12508e-13 -3.29619e-14 8.13777e-13 6.89416e-12 7.10132e-11 7.13056e-10 6.56075e-09 5.5034e-08 4.18048e-07 2.85583e-06 1.73992e-05 9.35875e-05 0.000438873 0.00176657 0.00599385 0.016852 0.0390287 0.0750698 0.122483 0.175729 0.230385 0.28456 0.338066 0.390691 0.442339 0.492926 0.542382 0.590634 0.637581 0.68307 0.726864 0.76861 0.807799 0.843754 0.875638 0.902558 0.923748 0.938815 0.948082 0.947942 0.946918 0.945019 0.942751 0.940197 0.938133 0.935561 0.967396 0.96798 0.948267 0.935532 0.931982 0.929666 0.925611 0.917125 0.90006 0.869092 0.817967 0.741317 0.637169 0.50979 0.371479 0.239922 0.133465 0.063077 0.0258211 0.00962699 0.00340472 0.00116835 0.000392691 0.000129672 4.20947e-05 1.34311e-05 4.21027e-06 1.29605e-06 3.91621e-07 1.16116e-07 3.37732e-08 9.63424e-09 2.69434e-09 7.39422e-10 1.98588e-10 5.18998e-11 1.31142e-11 3.0329e-12 1.15423e-12 -6.55069e-13 2.51792e-14 -9.78791e-13 1.01974e-12 7.78288e-13 1.77164e-13 -1.15049e-13 -5.84396e-13 7.13637e-13 3.04606e-13 -3.70168e-13 -1.4621e-12 -1.44908e-13 -2.46587e-13 4.11952e-13 -2.14117e-13 2.48664e-13 1.48336e-13 2.28356e-13 -5.93439e-13 6.24939e-14 -4.5125e-16 -1.03797e-12 -3.37113e-13 -6.9442e-13 -5.35143e-13 7.32846e-14 -6.378e-13 -2.21013e-14 7.45122e-13 1.19195e-13 1.45012e-13 -1.49978e-13 -3.54472e-13 -1.73441e-13 -4.786e-13 7.23565e-13 -4.93775e-13 -3.51039e-13 -3.31851e-13 -5.83761e-14 -1.94852e-13 -1.17091e-12 -3.07663e-13 1.00523e-12 2.36714e-13 -1.0317e-13 -1.7415e-13 0 0 -3.10534e-14 -5.4385e-14 2.98012e-14 -6.51466e-15 3.84924e-14 -2.36106e-14 -7.62984e-14 1.35037e-14 5.296e-14 -1.14769e-14 -1.31728e-13 1.60475e-14 2.10758e-14 3.27275e-14 -1.08622e-13 -2.45972e-14 8.17398e-14 2.8788e-14 -3.02064e-14 -7.37742e-14 -1.17795e-14 3.6716e-14 -1.09339e-13 -4.79072e-14 -8.99158e-14 -1.27678e-13 -5.63146e-14 -2.55722e-13 -8.38405e-14 -1.71961e-13 1.71733e-13 -4.16845e-14 4.00628e-14 -9.0492e-14 -8.75695e-14 -6.02857e-14 -4.74109e-13 1.52334e-13 -2.8517e-13 -1.05959e-13 4.17521e-14 -3.49748e-13 -6.65312e-14 4.3728e-13 1.20847e-13 8.6759e-14 -4.76337e-14 1.43714e-13 -1.6684e-13 -2.96914e-14 6.68397e-14 -3.11726e-13 -1.04205e-13 7.17431e-14 -2.77392e-13 -6.01836e-14 -4.19574e-13 3.23215e-13 -3.46443e-13 2.86077e-13 -3.19906e-13 -5.58923e-13 -7.67457e-14 -1.05301e-13 8.74197e-14 2.41407e-13 -5.48451e-13 5.33078e-13 9.23306e-13 6.88094e-12 7.15455e-11 7.12456e-10 6.56169e-09 5.50331e-08 4.18049e-07 2.85583e-06 1.73992e-05 9.35876e-05 0.000438873 0.00176657 0.00599385 0.016852 0.0390287 0.0750698 0.122483 0.175729 0.230385 0.28456 0.338066 0.390691 0.442339 0.492926 0.542382 0.590634 0.637581 0.68307 0.726864 0.76861 0.807799 0.843754 0.875638 0.902558 0.923748 0.938815 0.948082 0.947942 0.946918 0.945019 0.942751 0.940197 0.938133 0.935561 0.967396 0.96798 0.948267 0.935532 0.931982 0.929666 0.925611 0.917125 0.90006 0.869092 0.817967 0.741317 0.637169 0.50979 0.371479 0.239922 0.133465 0.063077 0.0258211 0.00962699 0.00340472 0.00116835 0.000392691 0.000129672 4.20947e-05 1.34311e-05 4.21027e-06 1.29605e-06 3.9162e-07 1.16116e-07 3.37731e-08 9.6344e-09 2.69431e-09 7.38881e-10 1.98819e-10 5.20841e-11 1.40324e-11 2.86934e-12 -6.50985e-13 -2.37452e-13 -2.50928e-13 7.79037e-15 8.15955e-13 1.17566e-12 -2.38372e-13 1.48297e-12 -2.1677e-13 -7.08701e-13 -7.16184e-13 3.83678e-14 -2.95227e-13 -6.96155e-13 -7.41918e-13 3.43709e-13 2.64884e-13 -4.21309e-13 -6.63932e-14 9.89771e-13 5.41776e-13 -2.83924e-13 -6.85442e-13 -4.36303e-13 -6.04038e-13 -1.00603e-12 -1.0821e-12 -7.1574e-13 3.04162e-13 -8.0086e-13 1.70598e-12 3.6274e-13 -1.5296e-13 8.58386e-14 -1.76633e-13 -1.41749e-14 -1.0328e-12 -8.58951e-13 1.16612e-12 8.60273e-14 -1.12294e-12 -6.16393e-13 -2.85874e-13 1.37238e-12 4.70064e-13 -7.38364e-13 -1.53072e-13 8.04437e-13 9.50837e-13 0
				</DataArray>
				<DataArray Name="VitesseY" type="Float32" format="ascii">