<?xml version="1.0"?>
<VTKFile type="PolyData">
	<PolyData>
		<Piece NumberOfPoints="1206" NumberOfPolys="1000">
			<Points>
				<DataArray type="Float32" NumberOfComponents="3" format="ascii">
 0 0 0 0.005 0 0 0.01 0 0 0.015 0 0 0.02 0 0 0.025 0 0 0.03 0 0 0.035 0 0 0.04 0 0 0.045 0 0 0.05 0 0 0.055 0 0 0.06 0 0 0.065 0 0 0.07 0 0 0.075 0 0 0.08 0 0 0.085 0 0 0.09 0 0 0.095 0 0 0.1 0 0 0.105 0 0 0.11 0 0 0.115 0 0 0.12 0 0 0.125 0 0 0.13 0 0 0.135 0 0 0.14 0 0 0.145 0 0 0.15 0 0 0.155 0 0 0.16 0 0 0.165 0 0 0.17 0 0 0.175 0 0 0.18 0 0 0.185 0 0 0.19 0 0 0.195 0 0 0.2 0 0 0.205 0 0 0.21 0 0 0.215 0 0 0.22 0 0 0.225 0 0 0.23 0 0 0.235 0 0 0.24 0 0 0.245 0 0 0.25 0 0 0.255 0 0 0.26 0 0 0.265 0 0 0.27 0 0 0.275 0 0 0.28 0 0 0.285 0 0 0.29 0 0 0.295 0 0 0.3 0 0 0.305 0 0 0.31 0 0 0.315 0 0 0.32 0 0 0.325 0 0 0.33 0 0 0.335 0 0 0.34 0 0 0.345 0 0 0.35 0 0 0.355 0 0 0.36 0 0 0.365 0 0 0.37 0 0 0.375 0 0 0.38 0 0 0.385 0 0 0.39 0 0 0.395 0 0 0.4 0 0 0.405 0 0 0.41 0 0 0.415 0 0 0.42 0 0 0.425 0 0 0.43 0 0 0.435 0 0 0.44 0 0 0.445 0 0 0.45 0 0 0.455 0 0 0.46 0 0 0.465 0 0 0.47 0 0 0.475 0 0 0.48 0 0 0.485 0 0 0.49 0 0 0.495 0 0 0.5 0 0 0.505 0 0 0.51 0 0 0.515 0 0 0.52 0 0 0.525 0 0 0.53 0 0 0.535 0 0 0.54 0 0 0.545 0 0 0.55 0 0 0.555 0 0 0.56 0 0 0.565 0 0 0.57 0 0 0.575 0 0 0.58 0 0 0.585 0 0 0.59 0 0 0.595 0 0 0.6 0 0 0.605 0 0 0.61 0 0 0.615 0 0 0.62 0 0 0.625 0 0 0.63 0 0 0.635 0 0 0.64 0 0 0.645 0 0 0.65 0 0 0.655 0 0 0.66 0 0 0.665 0 0 0.67 0 0 0.675 0 0 0.68 0 0 0.685 0 0 0.69 0 0 0.695 0 0 0.7 0 0 0.705 0 0 0.71 0 0 0.715 0 0 0.72 0 0 0.725 0 0 0.73 0 0 0.735 0 0 0.74 0 0 0.745 0 0 0.75 0 0 0.755 0 0 0.76 0 0 0.765 0 0 0.77 0 0 0.775 0 0 0.78 0 0 0.785 0 0 0.79 0 0 0.795 0 0 0.8 0 0 0.805 0 0 0.81 0 0 0.815 0 0 0.82 0 0 0.825 0 0 0.83 0 0 0.835 0 0 0.84 0 0 0.845 0 0 0.85 0 0 0.855 0 0 0.86 0 0 0.865 0 0 0.87 0 0 0.875 0 0 0.88 0 0 0.885 0 0 0.89 0 0 0.895 0 0 0.9 0 0 0.905 0 0 0.91 0 0 0.915 0 0 0.92 0 0 0.925 0 0 0.93 0 0 0.935 0 0 0.94 0 0 0.945 0 0 0.95 0 0 0.955 0 0 0.96 0 0 0.965 0 0 0.97 0 0 0.975 0 0 0.98 0 0 0.985 0 0 0.99 0 0 0.995 0 0 1 0 0 0 0.02 0 0.005 0.02 0 0.01 0.02 0 0.015 0.02 0 0.02 0.02 0 0.025 0.02 0 0.03 0.02 0 0.035 0.02 0 0.04 0.02 0 0.045 0.02 0 0.05 0.02 0 0.055 0.02 0 0.06 0.02 0 0.065 0.02 0 0.07 0.02 0 0.075 0.02 0 0.08 0.02 0 0.085 0.02 0 0.09 0.02 0 0.095 0.02 0 0.1 0.02 0 0.105 0.02 0 0.11 0.02 0 0.115 0.02 0 0.12 0.02 0 0.125 0.02 0 0.13 0.02 0 0.135 0.02 0 0.14 0.02 0 0.145 0.02 0 0.15 0.02 0 0.155 0.02 0 0.16 0.02 0 0.165 0.02 0 0.17 0.02 0 0.175 0.02 0 0.18 0.02 0 0.185 0.02 0 0.19 0.02 0 0.195 0.02 0 0.2 0.02 0 0.205 0.02 0 0.21 0.02 0 0.215 0.02 0 0.22 0.02 0 0.225 0.02 0 0.23 0.02 0 0.235 0.02 0 0.24 0.02 0 0.245 0.02 0 0.25 0.02 0 0.255 0.02 0 0.26 0.02 0 0.265 0.02 0 0.27 0.02 0 0.275 0.02 0 0.28 0.02 0 0.285 0.02 0 0.29 0.02 0 0.295 0.02 0 0.3 0.02 0 0.305 0.02 0 0.31 0.02 0 0.315 0.02 0 0.32 0.02 0 0.325 0.02 0 0.33 0.02 0 0.335 0.02 0 0.34 0.02 0 0.345 0.02 0 0.35 0.02 0 0.355 0.02 0 0.36 0.02 0 0.365 0.02 0 0.37 0.02 0 0.375 0.02 0 0.38 0.02 0 0.385 0.02 0 0.39 0.02 0 0.395 0.02 0 0.4 0.02 0 0.405 0.02 0 0.41 0.02 0 0.415 0.02 0 0.42 0.02 0 0.425 0.02 0 0.43 0.02 0 0.435 0.02 0 0.44 0.02 0 0.445 0.02 0 0.45 0.02 0 0.455 0.02 0 0.46 0.02 0 0.465 0.02 0 0.47 0.02 0 0.475 0.02 0 0.48 0.02 0 0.485 0.02 0 0.49 0.02 0 0.495 0.02 0 0.5 0.02 0 0.505 0.02 0 0.51 0.02 0 0.515 0.02 0 0.52 0.02 0 0.525 0.02 0 0.53 0.02 0 0.535 0.02 0 0.54 0.02 0 0.545 0.02 0 0.55 0.02 0 0.555 0.02 0 0.56 0.02 0 0.565 0.02 0 0.57 0.02 0 0.575 0.02 0 0.58 0.02 0 0.585 0.02 0 0.59 0.02 0 0.595 0.02 0 0.6 0.02 0 0.605 0.02 0 0.61 0.02 0 0.615 0.02 0 0.62 0.02 0 0.625 0.02 0 0.63 0.02 0 0.635 0.02 0 0.64 0.02 0 0.645 0.02 0 0.65 0.02 0 0.655 0.02 0 0.66 0.02 0 0.665 0.02 0 0.67 0.02 0 0.675 0.02 0 0.68 0.02 0 0.685 0.02 0 0.69 0.02 0 0.695 0.02 0 0.7 0.02 0 0.705 0.02 0 0.71 0.02 0 0.715 0.02 0 0.72 0.02 0 0.725 0.02 0 0.73 0.02 0 0.735 0.02 0 0.74 0.02 0 0.745 0.02 0 0.75 0.02 0 0.755 0.02 0 0.76 0.02 0 0.765 0.02 0 0.77 0.02 0 0.775 0.02 0 0.78 0.02 0 0.785 0.02 0 0.79 0.02 0 0.795 0.02 0 0.8 0.02 0 0.805 0.02 0 0.81 0.02 0 0.815 0.02 0 0.82 0.02 0 0.825 0.02 0 0.83 0.02 0 0.835 0.02 0 0.84 0.02 0 0.845 0.02 0 0.85 0.02 0 0.855 0.02 0 0.86 0.02 0 0.865 0.02 0 0.87 0.02 0 0.875 0.02 0 0.88 0.02 0 0.885 0.02 0 0.89 0.02 0 0.895 0.02 0 0.9 0.02 0 0.905 0.02 0 0.91 0.02 0 0.915 0.02 0 0.92 0.02 0 0.925 0.02 0 0.93 0.02 0 0.935 0.02 0 0.94 0.02 0 0.945 0.02 0 0.95 0.02 0 0.955 0.02 0 0.96 0.02 0 0.965 0.02 0 0.97 0.02 0 0.975 0.02 0 0.98 0.02 0 0.985 0.02 0 0.99 0.02 0 0.995 0.02 0 1 0.02 0 0 0.04 0 0.005 0.04 0 0.01 0.04 0 0.015 0.04 0 0.02 0.04 0 0.025 0.04 0 0.03 0.04 0 0.035 0.04 0 0.04 0.04 0 0.045 0.04 0 0.05 0.04 0 0.055 0.04 0 0.06 0.04 0 0.065 0.04 0 0.07 0.04 0 0.075 0.04 0 0.08 0.04 0 0.085 0.04 0 0.09 0.04 0 0.095 0.04 0 0.1 0.04 0 0.105 0.04 0 0.11 0.04 0 0.115 0.04 0 0.12 0.04 0 0.125 0.04 0 0.13 0.04 0 0.135 0.04 0 0.14 0.04 0 0.145 0.04 0 0.15 0.04 0 0.155 0.04 0 0.16 0.04 0 0.165 0.04 0 0.17 0.04 0 0.175 0.04 0 0.18 0.04 0 0.185 0.04 0 0.19 0.04 0 0.195 0.04 0 0.2 0.04 0 0.205 0.04 0 0.21 0.04 0 0.215 0.04 0 0.22 0.04 0 0.225 0.04 0 0.23 0.04 0 0.235 0.04 0 0.24 0.04 0 0.245 0.04 0 0.25 0.04 0 0.255 0.04 0 0.26 0.04 0 0.265 0.04 0 0.27 0.04 0 0.275 0.04 0 0.28 0.04 0 0.285 0.04 0 0.29 0.04 0 0.295 0.04 0 0.3 0.04 0 0.305 0.04 0 0.31 0.04 0 0.315 0.04 0 0.32 0.04 0 0.325 0.04 0 0.33 0.04 0 0.335 0.04 0 0.34 0.04 0 0.345 0.04 0 0.35 0.04 0 0.355 0.04 0 0.36 0.04 0 0.365 0.04 0 0.37 0.04 0 0.375 0.04 0 0.38 0.04 0 0.385 0.04 0 0.39 0.04 0 0.395 0.04 0 0.4 0.04 0 0.405 0.04 0 0.41 0.04 0 0.415 0.04 0 0.42 0.04 0 0.425 0.04 0 0.43 0.04 0 0.435 0.04 0 0.44 0.04 0 0.445 0.04 0 0.45 0.04 0 0.455 0.04 0 0.46 0.04 0 0.465 0.04 0 0.47 0.04 0 0.475 0.04 0 0.48 0.04 0 0.485 0.04 0 0.49 0.04 0 0.495 0.04 0 0.5 0.04 0 0.505 0.04 0 0.51 0.04 0 0.515 0.04 0 0.52 0.04 0 0.525 0.04 0 0.53 0.04 0 0.535 0.04 0 0.54 0.04 0 0.545 0.04 0 0.55 0.04 0 0.555 0.04 0 0.56 0.04 0 0.565 0.04 0 0.57 0.04 0 0.575 0.04 0 0.58 0.04 0 0.585 0.04 0 0.59 0.04 0 0.595 0.04 0 0.6 0.04 0 0.605 0.04 0 0.61 0.04 0 0.615 0.04 0 0.62 0.04 0 0.625 0.04 0 0.63 0.04 0 0.635 0.04 0 0.64 0.04 0 0.645 0.04 0 0.65 0.04 0 0.655 0.04 0 0.66 0.04 0 0.665 0.04 0 0.67 0.04 0 0.675 0.04 0 0.68 0.04 0 0.685 0.04 0 0.69 0.04 0 0.695 0.04 0 0.7 0.04 0 0.705 0.04 0 0.71 0.04 0 0.715 0.04 0 0.72 0.04 0 0.725 0.04 0 0.73 0.04 0 0.735 0.04 0 0.74 0.04 0 0.745 0.04 0 0.75 0.04 0 0.755 0.04 0 0.76 0.04 0 0.765 0.04 0 0.77 0.04 0 0.775 0.04 0 0.78 0.04 0 0.785 0.04 0 0.79 0.04 0 0.795 0.04 0 0.8 0.04 0 0.805 0.04 0 0.81 0.04 0 0.815 0.04 0 0.82 0.04 0 0.825 0.04 0 0.83 0.04 0 0.835 0.04 0 0.84 0.04 0 0.845 0.04 0 0.85 0.04 0 0.855 0.04 0 0.86 0.04 0 0.865 0.04 0 0.87 0.04 0 0.875 0.04 0 0.88 0.04 0 0.885 0.04 0 0.89 0.04 0 0.895 0.04 0 0.9 0.04 0 0.905 0.04 0 0.91 0.04 0 0.915 0.04 0 0.92 0.04 0 0.925 0.04 0 0.93 0.04 0 0.935 0.04 0 0.94 0.04 0 0.945 0.04 0 0.95 0.04 0 0.955 0.04 0 0.96 0.04 0 0.965 0.04 0 0.97 0.04 0 0.975 0.04 0 0.98 0.04 0 0.985 0.04 0 0.99 0.04 0 0.995 0.04 0 1 0.04 0 0 0.06 0 0.005 0.06 0 0.01 0.06 0 0.015 0.06 0 0.02 0.06 0 0.025 0.06 0 0.03 0.06 0 0.035 0.06 0 0.04 0.06 0 0.045 0.06 0 0.05 0.06 0 0.055 0.06 0 0.06 0.06 0 0.065 0.06 0 0.07 0.06 0 0.075 0.06 0 0.08 0.06 0 0.085 0.06 0 0.09 0.06 0 0.095 0.06 0 0.1 0.06 0 0.105 0.06 0 0.11 0.06 0 0.115 0.06 0 0.12 0.06 0 0.125 0.06 0 0.13 0.06 0 0.135 0.06 0 0.14 0.06 0 0.145 0.06 0 0.15 0.06 0 0.155 0.06 0 0.16 0.06 0 0.165 0.06 0 0.17 0.06 0 0.175 0.06 0 0.18 0.06 0 0.185 0.06 0 0.19 0.06 0 0.195 0.06 0 0.2 0.06 0 0.205 0.06 0 0.21 0.06 0 0.215 0.06 0 0.22 0.06 0 0.225 0.06 0 0.23 0.06 0 0.235 0.06 0 0.24 0.06 0 0.245 0.06 0 0.25 0.06 0 0.255 0.06 0 0.26 0.06 0 0.265 0.06 0 0.27 0.06 0 0.275 0.06 0 0.28 0.06 0 0.285 0.06 0 0.29 0.06 0 0.295 0.06 0 0.3 0.06 0 0.305 0.06 0 0.31 0.06 0 0.315 0.06 0 0.32 0.06 0 0.325 0.06 0 0.33 0.06 0 0.335 0.06 0 0.34 0.06 0 0.345 0.06 0 0.35 0.06 0 0.355 0.06 0 0.36 0.06 0 0.365 0.06 0 0.37 0.06 0 0.375 0.06 0 0.38 0.06 0 0.385 0.06 0 0.39 0.06 0 0.395 0.06 0 0.4 0.06 0 0.405 0.06 0 0.41 0.06 0 0.415 0.06 0 0.42 0.06 0 0.425 0.06 0 0.43 0.06 0 0.435 0.06 0 0.44 0.06 0 0.445 0.06 0 0.45 0.06 0 0.455 0.06 0 0.46 0.06 0 0.465 0.06 0 0.47 0.06 0 0.475 0.06 0 0.48 0.06 0 0.485 0.06 0 0.49 0.06 0 0.495 0.06 0 0.5 0.06 0 0.505 0.06 0 0.51 0.06 0 0.515 0.06 0 0.52 0.06 0 0.525 0.06 0 0.53 0.06 0 0.535 0.06 0 0.54 0.06 0 0.545 0.06 0 0.55 0.06 0 0.555 0.06 0 0.56 0.06 0 0.565 0.06 0 0.57 0.06 0 0.575 0.06 0 0.58 0.06 0 0.585 0.06 0 0.59 0.06 0 0.595 0.06 0 0.6 0.06 0 0.605 0.06 0 0.61 0.06 0 0.615 0.06 0 0.62 0.06 0 0.625 0.06 0 0.63 0.06 0 0.635 0.06 0 0.64 0.06 0 0.645 0.06 0 0.65 0.06 0 0.655 0.06 0 0.66 0.06 0 0.665 0.06 0 0.67 0.06 0 0.675 0.06 0 0.68 0.06 0 0.685 0.06 0 0.69 0.06 0 0.695 0.06 0 0.7 0.06 0 0.705 0.06 0 0.71 0.06 0 0.715 0.06 0 0.72 0.06 0 0.725 0.06 0 0.73 0.06 0 0.735 0.06 0 0.74 0.06 0 0.745 0.06 0 0.75 0.06 0 0.755 0.06 0 0.76 0.06 0 0.765 0.06 0 0.77 0.06 0 0.775 0.06 0 0.78 0.06 0 0.785 0.06 0 0.79 0.06 0 0.795 0.06 0 0.8 0.06 0 0.805 0.06 0 0.81 0.06 0 0.815 0.06 0 0.82 0.06 0 0.825 0.06 0 0.83 0.06 0 0.835 0.06 0 0.84 0.06 0 0.845 0.06 0 0.85 0.06 0 0.855 0.06 0 0.86 0.06 0 0.865 0.06 0 0.87 0.06 0 0.875 0.06 0 0.88 0.06 0 0.885 0.06 0 0.89 0.06 0 0.895 0.06 0 0.9 0.06 0 0.905 0.06 0 0.91 0.06 0 0.915 0.06 0 0.92 0.06 0 0.925 0.06 0 0.93 0.06 0 0.935 0.06 0 0.94 0.06 0 0.945 0.06 0 0.95 0.06 0 0.955 0.06 0 0.96 0.06 0 0.965 0.06 0 0.97 0.06 0 0.975 0.06 0 0.98 0.06 0 0.985 0.06 0 0.99 0.06 0 0.995 0.06 0 1 0.06 0 0 0.08 0 0.005 0.08 0 0.01 0.08 0 0.015 0.08 0 0.02 0.08 0 0.025 0.08 0 0.03 0.08 0 0.035 0.08 0 0.04 0.08 0 0.045 0.08 0 0.05 0.08 0 0.055 0.08 0 0.06 0.08 0 0.065 0.08 0 0.07 0.08 0 0.075 0.08 0 0.08 0.08 0 0.085 0.08 0 0.09 0.08 0 0.095 0.08 0 0.1 0.08 0 0.105 0.08 0 0.11 0.08 0 0.115 0.08 0 0.12 0.08 0 0.125 0.08 0 0.13 0.08 0 0.135 0.08 0 0.14 0.08 0 0.145 0.08 0 0.15 0.08 0 0.155 0.08 0 0.16 0.08 0 0.165 0.08 0
[...]
			<PointData Scalars="VitesseX">
				<DataArray Name="VitesseX" type="Float32" format="ascii">
 0 -6.74466e-15 -5.96438e-15 7.26238e-14 -1.47517e-13 -5.39387e-14 4.28033e-14 -2.26228e-14 -1.24036e-13 -1.54482e-14 7.10111e-14 -2.01298e-13 1.70636e-13 -3.87127e-13 1.88618e-13 -9.22374e-14 -2.62036e-13 2.9998e-13 -2.57891e-13 1.39476e-13 -1.62157e-14 -1.43563e-13 -3.38792e-13 1.93594e-13 4.15768e-13 9.21539e-14 -3.60233e-13 3.26849e-15 -1.11752e-14 7.74851e-14 -3.11327e-13 4.007e-13 -4.32654e-13 -3.79381e-13 4.02444e-13 -2.7233e-13 2.4384e-13 -6.23873e-13 6.67804e-13 -4.1885e-13 6.67127e-14 -4.32609e-13 -2.32792e-15 5.86368e-13 1.50552e-13 -5.53059e-13 3.25647e-13 -6.61148e-13 2.04538e-13 -2.05088e-13 6.07263e-14 -3.35791e-13 -1.12459e-12 1.57961e-12 -2.30079e-13 -9.06403e-14 5.84846e-13 -7.99626e-13 1.09135e-12 -6.29137e-13 -4.16084e-13 -4.01786e-13 4.70482e-15 5.2631e-14 -4.35059e-13 5.62085e-14 1.65683e-13 4.22952e-13 8.24209e-13 -7.40484e-13 -5.40937e-13 8.6643e-13 -4.05129e-13 2.18769e-13 -1.89509e-12 5.62874e-13 3.59398e-13 -6.04002e-13 6.00417e-13 -1.01393e-12 2.04705e-12 -7.94553e-13 -2.64355e-13 2.03855e-11 3.80855e-10 7.03722e-09 1.12338e-07 1.52543e-06 1.73338e-05 0.000161307 0.00119459 0.00677547 0.0281259 0.0830463 0.179816 0.298985 0.411165 0.514831 0.609063 0.694979 0.772784 0.838789 0.898027 0.924002 0.939541 1.04498 1.04433 0.977124 0.909792 0.836304 0.731646 0.593078 0.432853 0.274702 0.144747 0.0611807 0.0210787 0.00633094 0.00174992 0.000457399 0.000114128 2.72614e-05 6.23989e-06 1.36935e-06 2.88265e-07 5.82418e-08 1.13034e-08 2.10783e-09 3.76734e-10 6.65533e-11 8.83666e-12 3.21707e-12 -2.08551e-13 -1.73033e-12 1.22402e-12 -2.16946e-12 1.86455e-12 3.89621e-13 -1.8634e-12 1.38002e-12 -7.15028e-13 -5.62837e-13 2.89575e-12 -2.23743e-12 -1.54064e-12 1.80301e-12 -1.75265e-12 3.21219e-12 -1.2472e-12 -5.22759e-13 1.62049e-12 -1.73971e-12 2.67158e-12 -1.85632e-12 1.05554e-12 -1.89909e-12 1.83291e-12 1.17776e-13 -1.00135e-12 -4.16262e-13 -1.30681e-12 1.74446e-12 -7.65601e-13 -5.85599e-13 4.23255e-13 -1.08891e-13 8.80152e-13 -5.64887e-13 -1.62382e-12 2.22884e-12 -1.30348e-12 3.35631e-13 1.7773e-12 -1.9464e-12 2.16455e-12 -1.91424e-12 8.47196e-13 1.29644e-12 -2.07556e-12 1.89596e-12 -1.34859e-12 -4.66621e-13 1.63991e-12 -3.03749e-12 1.60285e-12 -2.20894e-12 -1.30026e-14 1.31003e-12 -1.66266e-12 3.17688e-12 -1.98061e-12 -1.64312e-12 4.59655e-12 -2.93142e-12 -1.1475e-12 -1.58634e-13 -1.38972e-12 4.14041e-12 -3.23939e-12 1.23521e-12 0 0 9.83353e-15 9.46736e-15 -8.56471e-14 6.20216e-14 -3.88297e-14 -9.75809e-14 -7.18368e-14 1.51974e-14 -5.39316e-14 -1.32225e-13 7.38405e-14 -2.38541e-13 1.93583e-13 -2.60185e-13 3.11028e-14 1.40336e-13 -2.18673e-13 1.88094e-13 -2.5131e-13 -1.61805e-13 -3.1206e-14 1.08401e-13 -2.75996e-14 -1.01285e-13 6.87346e-14 2.45951e-13 -1.67392e-13 -1.90372e-13 -1.4106e-13 2.49777e-13 -3.10194e-13 1.75192e-13 -5.21767e-14 -5.72072e-13 1.88185e-13 -1.13664e-13 4.52949e-13 -5.32721e-13 1.85436e-13 -4.12025e-13 2.05693e-13 7.11271e-14 -1.92724e-13 -3.59408e-14 3.1067e-13 -4.63746e-13 1.69346e-13 -4.33212e-13 -2.35096e-13 -3.75143e-13 -9.02467e-14 8.52828e-13 -9.603e-13 5.4624e-13 1.769e-13 -2.58501e-13 6.51172e-13 -8.38845e-13 4.03684e-13 8.34866e-14 -2.29619e-13 -4.38118e-13 -4.15735e-13 2.84764e-13 1.83764e-13 2.5116e-13 9.38918e-14 -5.91914e-13 6.74275e-13 1.29585e-13 -7.54076e-13 1.06342e-13 -8.21573e-13 6.35497e-13 -7.76523e-13 -6.34687e-13 5.90133e-13 -1.82315e-13 9.32757e-13 -1.13206e-12 1.0805e-12 1.85702e-12 1.66038e-11 3.80802e-10 7.0416e-09 1.12336e-07 1.52543e-06 1.73338e-05 0.000161307 0.00119459 0.00677547 0.0281259 0.0830463 0.179816 0.298985 0.411165 0.514831 0.609063 0.694979 0.772784 0.838789 0.898027 0.924002 0.939541 1.04498 1.04433 0.977124 0.909792 0.836304 0.731646 0.593078 0.432853 0.274702 0.144747 0.0611807 0.0210787 0.00633094 0.00174992 0.000457399 0.000114128 2.72614e-05 6.23989e-06 1.36936e-06 2.88263e-07 5.82445e-08 1.13009e-08 2.10733e-09 3.78814e-10 6.43214e-11 1.19016e-11 2.22752e-13 -2.33927e-13 6.59042e-13 -1.36736e-12 7.88194e-13 -7.65082e-13 -8.73574e-14 1.3124e-12 -1.18946e-12 6.72577e-13 4.11675e-13 -2.28746e-12 1.66573e-12 5.6631e-14 -1.48879e-12 1.53674e-12 -1.58818e-12 2.06782e-12 4.94096e-13 -1.25036e-12 1.66547e-12 -1.90277e-12 1.60787e-12 -1.16202e-12 1.52065e-12 -1.21584e-12 -2.61294e-13 3.16554e-13 -9.85356e-14 -1.46447e-14 -1.45501e-12 3.48195e-13 9.10697e-13 2.24211e-13 -5.65913e-13 -1.05098e-12 3.55778e-13 1.30445e-12 -1.72126e-12 1.45976e-12 1.25022e-13 -1.20735e-12 1.56273e-12 -1.20454e-12 1.52771e-12 -3.8845e-13 -7.95373e-13 1.33087e-12 -1.28009e-12 1.08134e-12 8.72145e-14 -1.97955e-12 1.01441e-12 -1.96971e-12 5.54891e-13 -1.81986e-13 -1.3218e-12 1.38393e-12 -1.78805e-12 1.86962e-12 8.88208e-13 -3.96911e-12 2.44637e-12 9.32727e-14 -4.4653e-13 5.65893e-13 -3.2757e-12 3.2626e-12 1.01546e-13 0 0 -1.29188e-14 -4.25697e-14 -9.06131e-15 -3.8518e-14 -2.02596e-16 -1.4769e-14 -5.23745e-14 -1.07365e-13 -1.08869e-13 -4.34267e-14 -8.42509e-14 7.70951e-14 -9.83825e-14 2.03129e-14 3.36043e-14 -4.60727e-14 -4.12284e-14 -1.38956e-13 3.74565e-15 -1.16748e-13 -8.60972e-14 -1.79399e-13 1.8597e-14 1.1532e-13 4.09563e-14 -5.74539e-14 3.67007e-14 -1.78751e-13 -5.77292e-14 -1.31244e-13 -5.87855e-14 -1.53143e-14 -4.52381e-14 -2.21822e-14 -2.67875e-13 9.07249e-14 -8.87092e-14 -8.22923e-15 -1.30864e-13 3.04774e-14 -7.80654e-14 5.50058e-16 8.8896e-14 -1.91373e-13 -3.86721e-13 -5.62481e-14 -2.11947e-13 2.46117e-13 -1.61505e-14 -2.81643e-13 -1.61426e-13 -2.94547e-13 7.01909e-13 -6.57992e-14 -2.62119e-14 -8.26746e-14 -4.75719e-13 2.05813e-13 6.72535e-14 1.2553e-13 -3.24752e-15 -4.59287e-13 -7.95368e-14 -1.4172e-13 1.58946e-13 3.70533e-13 -7.74656e-14 -1.04429e-13 -5.2668e-15 -1.20257e-13 2.27863e-13 -4.67379e-13 1.7438e-13 -4.86655e-13 -2.66615e-13 -4.27523e-13 -2.57101e-13 3.53631e-13 -6.24195e-14 1.40229e-13 2.4989e-13 1.04877e-12 1.81735e-11 3.80761e-10 7.04032e-09 1.12336e-07 1.52543e-06 1.73338e-05 0.000161307 0.00119459 0.00677547 0.0281259 0.0830463 0.179816 0.298985 0.411165 0.514831 0.609063 0.694979 0.772784 0.838789 0.898027 0.924002 0.939541 1.04498 1.04433 0.977124 0.909792 0.836304 0.731646 0.593078 0.432853 0.274702 0.144747 0.0611807 0.0210787 0.00633094 0.00174992 0.000457399 0.000114128 2.72614e-05 6.23989e-06 1.36935e-06 2.88264e-07 5.82435e-08 1.13019e-08 2.10735e-09 3.77552e-10 6.54395e-11 1.0595e-11 1.45592e-12 -2.05916e-13 -6.95132e-13 -2.46484e-13 6.99574e-14 -2.26595e-13 -2.77902e-13 1.04554e-13 2.43935e-13 -9.52594e-14 -4.78139e-13 -5.74692e-14 9.65847e-14 3.39717e-13 -2.46062e-13 -1.03501e-13 1.13242e-13 3.03614e-13 5.15642e-13 4.11153e-13 -2.7062e-13 -1.54951e-13 -4.40188e-13 5.16076e-13 4.47814e-13 -8.0235e-15 -5.70552e-13 -1.13608e-12 -6.3949e-14 6.19597e-13 5.39641e-13 -2.63496e-13 -1.28595e-12 2.1627e-13 4.26148e-13 -2.66131e-13 -2.48988e-13 1.13983e-13 3.93302e-13 6.18875e-14 -7.27302e-13 4.57833e-13 3.98212e-13 8.06113e-13 -1.07562e-13 -1.22655e-12 8.67293e-14 8.64001e-13 6.75011e-13 -5.19907e-13 -1.2338e-12 -9.45188e-14 -8.69187e-14 -2.73025e-13 -1.02352e-12 -1.01351e-12 6.89681e-13 7.67927e-13 -5.91758e-13 -7.45874e-13 -4.63475e-13 1.17862e-12 2.33903e-13 -1.27811e-13 -7.40904e-13 -1.3688e-13 1.14575e-12 -6.08861e-13 -2.33782e-13 0 0 -3.09383e-14 -2.06052e-14 2.42724e-14 -9.17886e-14 -8.70368e-14 -5.82049e-14 -2.49584e-14 -4.31148e-14 7.1724e-15 -7.71519e-16 -8.66156e-14 7.80272e-15 -9.13068e-14 9.12093e-14 -1.20545e-13 -1.49065e-13 2.04566e-14 -2.42458e-13 -5.3752e-14 3.34829e-14 -6.52506e-14 -1.77314e-13 2.51932e-14 1.52732e-13 1.99613e-14 -1.88752e-13 1.63452e-14 -6.36515e-14 -1.63863e-13 -1.74629e-13 2.22641e-13 -1.01129e-13 -1.11625e-13 1.48301e-13 -8.75953e-14 8.60249e-14 -1.73596e-13 2.4297e-13 -3.54082e-13 -1.76437e-13 -3.02892e-13 -1.1355e-13 2.30724e-13 1.53336e-13 -3.33748e-13 9.98663e-14 -3.0073e-13 -2.60601e-14 -1.26681e-13 3.07835e-14 -1.59833e-13 -3.4698e-13 7.77312e-13 1.80997e-14 -1.1195e-13 -1.31434e-14 -5.25042e-13 3.12467e-13 -1.10405e-13 -2.48997e-13 -3.64846e-13 -3.72064e-13 -2.55656e-13 -1.31088e-13 4.21153e-13 2.27279e-13 1.91331e-13 5.91792e-13 -2.10043e-13 9.96068e-15 3.32756e-13 -2.19184e-13 1.38412e-13 -8.74462e-13 -6.53402e-14 -2.85305e-13 -8.9095e-13 1.22806e-13 2.62534e-14 1.29794e-12 -5.34491e-13 2.46312e-13 1.88006e-11 3.80262e-10 7.03894e-09 1.12337e-07 1.52543e-06 1.73338e-05 0.000161307 0.00119459 0.00677547 0.0281259 0.0830463 0.179816 0.298985 0.411165 0.514831 0.609063 0.694979 0.772784 0.838789 0.898027 0.924002 0.939541 1.04498 1.04433 0.977124 0.909792 0.836304 0.731646 0.593078 0.432853 0.274702 0.144747 0.0611807 0.0210787 0.00633094 0.00174992 0.000457399 0.000114128 2.72614e-05 6.23989e-06 1.36935e-06 2.88264e-07 5.82427e-08 1.13025e-08 2.10753e-09 3.77518e-10 6.56779e-11 9.83004e-12 1.69321e-12 -3.32473e-13 -9.29466e-13 6.47504e-13 -7.33458e-13 -1.52515e-13 -2.14743e-13 -6.18884e-13 1.45869e-12 -6.81043e-13 -8.87381e-13 1.30862e-12 -2.18104e-14 2.62962e-13 8.74504e-13 -1.64798e-12 6.75672e-13 -9.08418e-15 8.88513e-13 7.14413e-13 -1.51966e-12 2.34036e-13 -3.76803e-13 8.295e-13 -1.33198e-12 3.35343e-13 -3.9776e-14 -6.96401e-13 1.68391e-13 -7.90777e-13 -7.89638e-14 -2.15559e-13 -6.00245e-13 5.4411e-13 -6.36848e-14 -6.67127e-13 -1.27995e-12 -2.74622e-13 1.90598e-12 2.51562e-13 1.87173e-13 6.27144e-13 -1.08579e-12 9.90415e-13 -5.10446e-13 5.18829e-13 -4.65953e-14 -1.02313e-12 1.09518e-12 -3.40751e-13 1.77466e-13 4.13928e-14 -1.66179e-12 -3.30397e-14 -9.12274e-13 -4.27782e-13 9.31474e-13 -2.16585e-14 1.07828e-12 -1.49642e-12 -1.00645e-12 2.35359e-12 -8.32664e-14 -9.76968e-14 -6.17618e-13 -1.5693e-12 1.13023e-12 2.06293e-13 1.23437e-12 0 0 -1.36252e-14 1.59444e-14 -8.73036e-14 2.33488e-14 -7.67306e-14 -1.19197e-13 -3.47335e-14 8.73447e-14 1.14534e-14 -9.61953e-14 7.60544e-14 -2.4997e-13 2.44821e-13 -2.23397e-13 -1.25855e-13 -4.60428e-14 -2.66347e-13 7.65786e-14 -3.21384e-13 -5.06665e-14 3.86737e-14 1.39727e-13 -6.70997e-14 -2.03787e-13 -3.8178e-14 7.22581e-14 -2.71736e-13 -1.00492e-13 -1.63403e-13 2.86124e-13 -1.2339e-13 3.93526e-13 1.90517e-13 -4.52978e-13 2.79551e-13 -2.38102e-13 2.73417e-13 -4.59597e-13 6.23775e-14 -4.26733e-13 -3.95944e-15 -5.35213e-14 -4.00716e-13 -3.21454e-14 3.09876e-13 -4.26658e-13 2.61699e-13 -5.84153e-13 -2.12419e-13 -4.37839e-13 -2.45946e-13 8.60862e-13 -9.69781e-13 6.39288e-13 2.09846e-13 -1.8023e-13 5.72712e-13 -9.25262e-13 1.20627e-13 -2.4719e-14 -4.02716e-13 -3.80383e-13 -4.51792e-13 2.58939e-13 3.42577e-13 3.32072e-13 3.62233e-13 1.57806e-13 6.36654e-13 3.78732e-13 -6.18363e-13 4.24127e-14 -1.16547e-12 5.59401e-13 -9.2893e-13 -1.86147e-13 9.82977e-14 -2.98508e-13 8.30596e-13 -8.06851e-13 3.78191e-13 1.74661e-12 1.63666e-11 3.80321e-10 7.04118e-09 1.12336e-07 1.52543e-06 1.73338e-05 0.000161307 0.00119459 0.00677547 0.0281259 0.0830463 0.179816 0.298985 0.411165 0.514831 0.609063 0.694979 0.772784 0.838789 0.898027 0.924002 0.939541 1.04498 1.04433 0.977124 0.909792 0.836304 0.731646 0.593078 0.432853 0.274702 0.144747 0.0611807 0.0210787 0.00633094 0.00174992 0.000457399 0.000114128 2.72614e-05 6.23989e-06 1.36936e-06 2.88262e-07 5.82439e-08 1.13014e-08 2.10745e-09 3.78868e-10 6.41393e-11 1.13722e-11 4.65292e-13 -9.65224e-14 2.3515e-13 -1.02506e-12 -2.96202e-14 -1.00479e-12 9.19845e-14 9.17248e-13 -6.22175e-13 1.85667e-13 -2.58626e-13 -8.07195e-13 2.01422e-12 8.48404e-13 -7.92705e-13 8.82591e-13 -1.19823e-12 1.76044e-12 7.91757e-13 -8.94339e-13 1.38343e-12 -2.0853e-12 1.16701e-12 -1.86443e-12 -1.99066e-13 -1.66218e-12 -2.05504e-13 6.23221e-13 -2.80074e-13 -1.06433e-12 -1.47238e-12 1.97784e-13 1.18809e-12 -6.70444e-14 -1.24061e-12 -7.14296e-13 3.61411e-13 1.12727e-12 -1.50875e-12 1.17833e-12 4.57625e-13 -1.32407e-12 7.84308e-13 -1.29196e-12 2.14377e-12 8.72483e-13 -5.35011e-13 -1.38006e-13 -1.66404e-12 1.31995e-12 1.6884e-12 -1.84763e-12 2.11665e-13 -3.15817e-12 5.08015e-13 4.0102e-13 -5.49586e-13 1.00942e-12 -1.10658e-12 1.44069e-12 8.83419e-13 -3.65863e-12 2.19738e-12 2.98339e-13 -3.59467e-13 -2.79464e-13 -3.2844e-12 4.08516e-12 1.05444e-12 0 0 -1.76231e-14 -3.69391e-14 2.64332e-15 -1.18322e-13 4.3928e-14 8.64426e-14 -3.24828e-15 -1.08241e-13 -1.16761e-13 5.77598e-14 -1.92141e-13 2.86364e-13 -2.98802e-13 1.20402e-13 -9.78555e-14 -4.28809e-13 8.12608e-14 -2.73917e-13 1.14324e-13 -9.44e-14 -4.54964e-14 -2.8031e-13 1.01402e-13 1.3594e-13 -7.96814e-14 -4.45023e-13 -1.6471e-13 -6.16138e-14 2.45067e-13 -1.51862e-13 2.11455e-13 1.75645e-13 2.3878e-13 2.99665e-13 -4.50159e-13 4.36396e-15 -8.13162e-13 3.11655e-13 -2.18531e-13 4.51125e-13 -4.02261e-13 -2.34243e-14 -1.13272e-13 -5.31275e-13 -6.60592e-13 8.75939e-14 -2.98874e-13 4.47009e-13 6.1327e-14 -6.89519e-13 -6.50377e-13 -1.00366e-12 1.40985e-12 -2.11781e-13 1.46727e-13 6.02326e-13 -8.57898e-13 7.05207e-13 -8.39934e-13 1.1656e-13 -2.47831e-14 -5.42709e-14 3.32755e-13 -5.07971e-13 -1.50578e-13 6.14015e-13 4.22041e-13 9.3121e-13 -4.06172e-13 -3.03076e-13 9.28071e-13 -1.02938e-12 -3.97084e-13 -1.27166e-12 -1.44491e-13 9.72043e-13 -3.19974e-13 8.2968e-13 -1.3956e-12 3.8204e-13 -6.30414e-13 1.11973e-12 1.86567e-11 3.80891e-10 7.03913e-09 1.12337e-07 1.52543e-06 1.73338e-05 0.000161307 0.00119459 0.00677547 0.0281259 0.0830463 0.179816 0.298985 0.411165 0.514831 0.609063 0.694979 0.772784 0.838789 0.898027 0.924002 0.939541 1.04498 1.04433 0.977124 0.909792 0.836304 0.731646 0.593078 0.432853 0.274702 0.144747 0.0611807 0.0210787 0.00633094 0.00174992 0.000457399 0.000114128 2.72614e-05 6.23989e-06 1.36935e-06 2.88264e-07 5.82422e-08 1.13031e-08 2.1077e-09 3.76908e-10 6.57123e-11 9.30784e-12 3.22757e-12 3.19372e-13 -2.10944e-12 1.20657e-13 -2.19826e-12 1.23697e-12 6.21987e-13 -1.20683e-12 8.50729e-14 -5.1728e-13 -1.08495e-12 3.1241e-12 -1.30364e-12 1.96421e-13 9.54053e-13 2.80173e-14 2.86724e-12 -1.23655e-12 -6.73178e-13 1.72602e-12 1.94294e-13 1.52854e-12 -2.86482e-12 -9.76126e-13 -1.77895e-12 2.53492e-13 -8.32197e-13 -1.26737e-12 -1.24402e-12 -5.8543e-13 2.94692e-12 -1.1623e-12 -1.40222e-12 -8.14937e-13 -4.78619e-13 2.35551e-12 1.50829e-12 -1.20097e-12 -3.71513e-13 -2.24569e-12 -8.28112e-13 1.20524e-12 -5.35241e-13 1.62111e-12 1.23648e-13 -1.21689e-13 2.08381e-12 -1.23904e-12 2.87721e-13 -1.2297e-12 -8.67774e-14 1.63192e-12 -1.49325e-12 -1.25403e-12 -2.52518e-12 -1.8452e-14 2.37088e-12 -8.32501e-13 1.19973e-12 -1.33736e-12 -5.66748e-13 2.86757e-12 -2.79506e-12 -7.97601e-13 -2.3108e-13 -2.15596e-13 4.15404e-12 -3.22457e-12 2.04708e-13 0
				</DataArray>
				<DataArray Name="VitesseY" type="Float32" format="ascii">