<?xml version="1.0"?>
<VTKFile type="PolyData">
	<PolyData>
		<Piece NumberOfPoints="1206" NumberOfPolys="1000">
			<Points>
				<DataArray type="Float32" NumberOfComponents="3" format="ascii">
 0 0 0 0.005 0 0 0.01 0 0 0.015 0 0 0.02 0 0 0.025 0 0 0.03 0 0 0.035 0 0 0.04 0 0 0.045 0 0 0.05 0 0 0.055 0 0 0.06 0 0 0.065 0 0 0.07 0 0 0.075 0 0 0.08 0 0 0.085 0 0 0.09 0 0 0.095 0 0 0.1 0 0 0.105 0 0 0.11 0 0 0.115 0 0 0.12 0 0 0.125 0 0 0.13 0 0 0.135 0 0 0.14 0 0 0.145 0 0 0.15 0 0 0.155 0 0 0.16 0 0 0.165 0 0 0.17 0 0 0.175 0 0 0.18 0 0 0.185 0 0 0.19 0 0 0.195 0 0 0.2 0 0 0.205 0 0 0.21 0 0 0.215 0 0 0.22 0 0 0.225 0 0 0.23 0 0 0.235 0 0 0.24 0 0 0.245 0 0 0.25 0 0 0.255 0 0 0.26 0 0 0.265 0 0 0.27 0 0 0.275 0 0 0.28 0 0 0.285 0 0 0.29 0 0 0.295 0 0 0.3 0 0 0.305 0 0 0.31 0 0 0.315 0 0 0.32 0 0 0.325 0 0 0.33 0 0 0.335 0 0 0.34 0 0 0.345 0 0 0.35 0 0 0.355 0 0 0.36 0 0 0.365 0 0 0.37 0 0 0.375 0 0 0.38 0 0 0.385 0 0 0.39 0 0 0.395 0 0 0.4 0 0 0.405 0 0 0.41 0 0 0.415 0 0 0.42 0 0 0.425 0 0 0.43 0 0 0.435 0 0 0.44 0 0 0.445 0 0 0.45 0 0 0.455 0 0 0.46 0 0 0.465 0 0 0.47 0 0 0.475 0 0 0.48 0 0 0.485 0 0 0.49 0 0 0.495 0 0 0.5 0 0 0.505 0 0 0.51 0 0 0.515 0 0 0.52 0 0 0.525 0 0 0.53 0 0 0.535 0 0 0.54 0 0 0.545 0 0 0.55 0 0 0.555 0 0 0.56 0 0 0.565 0 0 0.57 0 0 0.575 0 0 0.58 0 0 0.585 0 0 0.59 0 0 0.595 0 0 0.6 0 0 0.605 0 0 0.61 0 0 0.615 0 0 0.62 0 0 0.625 0 0 0.63 0 0 0.635 0 0 0.64 0 0 0.645 0 0 0.65 0 0 0.655 0 0 0.66 0 0 0.665 0 0 0.67 0 0 0.675 0 0 0.68 0 0 0.685 0 0 0.69 0 0 0.695 0 0 0.7 0 0 0.705 0 0 0.71 0 0 0.715 0 0 0.72 0 0 0.725 0 0 0.73 0 0 0.735 0 0 0.74 0 0 0.745 0 0 0.75 0 0 0.755 0 0 0.76 0 0 0.765 0 0 0.77 0 0 0.775 0 0 0.78 0 0 0.785 0 0 0.79 0 0 0.795 0 0 0.8 0 0 0.805 0 0 0.81 0 0 0.815 0 0 0.82 0 0 0.825 0 0 0.83 0 0 0.835 0 0 0.84 0 0 0.845 0 0 0.85 0 0 0.855 0 0 0.86 0 0 0.865 0 0 0.87 0 0 0.875 0 0 0.88 0 0 0.885 0 0 0.89 0 0 0.895 0 0 0.9 0 0 0.905 0 0 0.91 0 0 0.915 0 0 0.92 0 0 0.925 0 0 0.93 0 0 0.935 0 0 0.94 0 0 0.945 0 0 0.95 0 0 0.955 0 0 0.96 0 0 0.965 0 0 0.97 0 0 0.975 0 0 0.98 0 0 0.985 0 0 0.99 0 0 0.995 0 0 1 0 0 0 0.02 0 0.005 0.02 0 0.01 0.02 0 0.015 0.02 0 0.02 0.02 0 0.025 0.02 0 0.03 0.02 0 0.035 0.02 0 0.04 0.02 0 0.045 0.02 0 0.05 0.02 0 0.055 0.02 0 0.06 0.02 0 0.065 0.02 0 0.07 0.02 0 0.075 0.02 0 0.08 0.02 0 0.085 0.02 0 0.09 0.02 0 0.095 0.02 0 0.1 0.02 0 0.105 0.02 0 0.11 0.02 0 0.115 0.02 0 0.12 0.02 0 0.125 0.02 0 0.13 0.02 0 0.135 0.02 0 0.14 0.02 0 0.145 0.02 0 0.15 0.02 0 0.155 0.02 0 0.16 0.02 0 0.165 0.02 0 0.17 0.02 0 0.175 0.02 0 0.18 0.02 0 0.185 0.02 0 0.19 0.02 0 0.195 0.02 0 0.2 0.02 0 0.205 0.02 0 0.21 0.02 0 0.215 0.02 0 0.22 0.02 0 0.225 0.02 0 0.23 0.02 0 0.235 0.02 0 0.24 0.02 0 0.245 0.02 0 0.25 0.02 0 0.255 0.02 0 0.26 0.02 0 0.265 0.02 0 0.27 0.02 0 0.275 0.02 0 0.28 0.02 0 0.285 0.02 0 0.29 0.02 0 0.295 0.02 0 0.3 0.02 0 0.305 0.02 0 0.31 0.02 0 0.315 0.02 0 0.32 0.02 0 0.325 0.02 0 0.33 0.02 0 0.335 0.02 0 0.34 0.02 0 0.345 0.02 0 0.35 0.02 0 0.355 0.02 0 0.36 0.02 0 0.365 0.02 0 0.37 0.02 0 0.375 0.02 0 0.38 0.02 0 0.385 0.02 0 0.39 0.02 0 0.395 0.02 0 0.4 0.02 0 0.405 0.02 0 0.41 0.02 0 0.415 0.02 0 0.42 0.02 0 0.425 0.02 0 0.43 0.02 0 0.435 0.02 0 0.44 0.02 0 0.445 0.02 0 0.45 0.02 0 0.455 0.02 0 0.46 0.02 0 0.465 0.02 0 0.47 0.02 0 0.475 0.02 0 0.48 0.02 0 0.485 0.02 0 0.49 0.02 0 0.495 0.02 0 0.5 0.02 0 0.505 0.02 0 0.51 0.02 0 0.515 0.02 0 0.52 0.02 0 0.525 0.02 0 0.53 0.02 0 0.535 0.02 0 0.54 0.02 0 0.545 0.02 0 0.55 0.02 0 0.555 0.02 0 0.56 0.02 0 0.565 0.02 0 0.57 0.02 0 0.575 0.02 0 0.58 0.02 0 0.585 0.02 0 0.59 0.02 0 0.595 0.02 0 0.6 0.02 0 0.605 0.02 0 0.61 0.02 0 0.615 0.02 0 0.62 0.02 0 0.625 0.02 0 0.63 0.02 0 0.635 0.02 0 0.64 0.02 0 0.645 0.02 0 0.65 0.02 0 0.655 0.02 0 0.66 0.02 0 0.665 0.02 0 0.67 0.02 0 0.675 0.02 0 0.68 0.02 0 0.685 0.02 0 0.69 0.02 0 0.695 0.02 0 0.7 0.02 0 0.705 0.02 0 0.71 0.02 0 0.715 0.02 0 0.72 0.02 0 0.725 0.02 0 0.73 0.02 0 0.735 0.02 0 0.74 0.02 0 0.745 0.02 0 0.75 0.02 0 0.755 0.02 0 0.76 0.02 0 0.765 0.02 0 0.77 0.02 0 0.775 0.02 0 0.78 0.02 0 0.785 0.02 0 0.79 0.02 0 0.795 0.02 0 0.8 0.02 0 0.805 0.02 0 0.81 0.02 0 0.815 0.02 0 0.82 0.02 0 0.825 0.02 0 0.83 0.02 0 0.835 0.02 0 0.84 0.02 0 0.845 0.02 0 0.85 0.02 0 0.855 0.02 0 0.86 0.02 0 0.865 0.02 0 0.87 0.02 0 0.875 0.02 0 0.88 0.02 0 0.885 0.02 0 0.89 0.02 0 0.895 0.02 0 0.9 0.02 0 0.905 0.02 0 0.91 0.02 0 0.915 0.02 0 0.92 0.02 0 0.925 0.02 0 0.93 0.02 0 0.935 0.02 0 0.94 0.02 0 0.945 0.02 0 0.95 0.02 0 0.955 0.02 0 0.96 0.02 0 0.965 0.02 0 0.97 0.02 0 0.975 0.02 0 0.98 0.02 0 0.985 0.02 0 0.99 0.02 0 0.995 0.02 0 1 0.02 0 0 0.04 0 0.005 0.04 0 0.01 0.04 0 0.015 0.04 0 0.02 0.04 0 0.025 0.04 0 0.03 0.04 0 0.035 0.04 0 0.04 0.04 0 0.045 0.04 0 0.05 0.04 0 0.055 0.04 0 0.06 0.04 0 0.065 0.04 0 0.07 0.04 0 0.075 0.04 0 0.08 0.04 0 0.085 0.04 0 0.09 0.04 0 0.095 0.04 0 0.1 0.04 0 0.105 0.04 0 0.11 0.04 0 0.115 0.04 0 0.12 0.04 0 0.125 0.04 0 0.13 0.04 0 0.135 0.04 0 0.14 0.04 0 0.145 0.04 0 0.15 0.04 0 0.155 0.04 0 0.16 0.04 0 0.165 0.04 0 0.17 0.04 0 0.175 0.04 0 0.18 0.04 0 0.185 0.04 0 0.19 0.04 0 0.195 0.04 0 0.2 0.04 0 0.205 0.04 0 0.21 0.04 0 0.215 0.04 0 0.22 0.04 0 0.225 0.04 0 0.23 0.04 0 0.235 0.04 0 0.24 0.04 0 0.245 0.04 0 0.25 0.04 0 0.255 0.04 0 0.26 0.04 0 0.265 0.04 0 0.27 0.04 0 0.275 0.04 0 0.28 0.04 0 0.285 0.04 0 0.29 0.04 0 0.295 0.04 0 0.3 0.04 0 0.305 0.04 0 0.31 0.04 0 0.315 0.04 0 0.32 0.04 0 0.325 0.04 0 0.33 0.04 0 0.335 0.04 0 0.34 0.04 0 0.345 0.04 0 0.35 0.04 0 0.355 0.04 0 0.36 0.04 0 0.365 0.04 0 0.37 0.04 0 0.375 0.04 0 0.38 0.04 0 0.385 0.04 0 0.39 0.04 0 0.395 0.04 0 0.4 0.04 0 0.405 0.04 0 0.41 0.04 0 0.415 0.04 0 0.42 0.04 0 0.425 0.04 0 0.43 0.04 0 0.435 0.04 0 0.44 0.04 0 0.445 0.04 0 0.45 0.04 0 0.455 0.04 0 0.46 0.04 0 0.465 0.04 0 0.47 0.04 0 0.475 0.04 0 0.48 0.04 0 0.485 0.04 0 0.49 0.04 0 0.495 0.04 0 0.5 0.04 0 0.505 0.04 0 0.51 0.04 0 0.515 0.04 0 0.52 0.04 0 0.525 0.04 0 0.53 0.04 0 0.535 0.04 0 0.54 0.04 0 0.545 0.04 0 0.55 0.04 0 0.555 0.04 0 0.56 0.04 0 0.565 0.04 0 0.57 0.04 0 0.575 0.04 0 0.58 0.04 0 0.585 0.04 0 0.59 0.04 0 0.595 0.04 0 0.6 0.04 0 0.605 0.04 0 0.61 0.04 0 0.615 0.04 0 0.62 0.04 0 0.625 0.04 0 0.63 0.04 0 0.635 0.04 0 0.64 0.04 0 0.645 0.04 0 0.65 0.04 0 0.655 0.04 0 0.66 0.04 0 0.665 0.04 0 0.67 0.04 0 0.675 0.04 0 0.68 0.04 0 0.685 0.04 0 0.69 0.04 0 0.695 0.04 0 0.7 0.04 0 0.705 0.04 0 0.71 0.04 0 0.715 0.04 0 0.72 0.04 0 0.725 0.04 0 0.73 0.04 0 0.735 0.04 0 0.74 0.04 0 0.745 0.04 0 0.75 0.04 0 0.755 0.04 0 0.76 0.04 0 0.765 0.04 0 0.77 0.04 0 0.775 0.04 0 0.78 0.04 0 0.785 0.04 0 0.79 0.04 0 0.795 0.04 0 0.8 0.04 0 0.805 0.04 0 0.81 0.04 0 0.815 0.04 0 0.82 0.04 0 0.825 0.04 0 0.83 0.04 0 0.835 0.04 0 0.84 0.04 0 0.845 0.04 0 0.85 0.04 0 0.855 0.04 0 0.86 0.04 0 0.865 0.04 0 0.87 0.04 0 0.875 0.04 0 0.88 0.04 0 0.885 0.04 0 0.89 0.04 0 0.895 0.04 0 0.9 0.04 0 0.905 0.04 0 0.91 0.04 0 0.915 0.04 0 0.92 0.04 0 0.925 0.04 0 0.93 0.04 0 0.935 0.04 0 0.94 0.04 0 0.945 0.04 0 0.95 0.04 0 0.955 0.04 0 0.96 0.04 0 0.965 0.04 0 0.97 0.04 0 0.975 0.04 0 0.98 0.04 0 0.985 0.04 0 0.99 0.04 0 0.995 0.04 0 1 0.04 0 0 0.06 0 0.005 0.06 0 0.01 0.06 0 0.015 0.06 0 0.02 0.06 0 0.025 0.06 0 0.03 0.06 0 0.035 0.06 0 0.04 0.06 0 0.045 0.06 0 0.05 0.06 0 0.055 0.06 0 0.06 0.06 0 0.065 0.06 0 0.07 0.06 0 0.075 0.06 0 0.08 0.06 0 0.085 0.06 0 0.09 0.06 0 0.095 0.06 0 0.1 0.06 0 0.105 0.06 0 0.11 0.06 0 0.115 0.06 0 0.12 0.06 0 0.125 0.06 0 0.13 0.06 0 0.135 0.06 0 0.14 0.06 0 0.145 0.06 0 0.15 0.06 0 0.155 0.06 0 0.16 0.06 0 0.165 0.06 0 0.17 0.06 0 0.175 0.06 0 0.18 0.06 0 0.185 0.06 0 0.19 0.06 0 0.195 0.06 0 0.2 0.06 0 0.205 0.06 0 0.21 0.06 0 0.215 0.06 0 0.22 0.06 0 0.225 0.06 0 0.23 0.06 0 0.235 0.06 0 0.24 0.06 0 0.245 0.06 0 0.25 0.06 0 0.255 0.06 0 0.26 0.06 0 0.265 0.06 0 0.27 0.06 0 0.275 0.06 0 0.28 0.06 0 0.285 0.06 0 0.29 0.06 0 0.295 0.06 0 0.3 0.06 0 0.305 0.06 0 0.31 0.06 0 0.315 0.06 0 0.32 0.06 0 0.325 0.06 0 0.33 0.06 0 0.335 0.06 0 0.34 0.06 0 0.345 0.06 0 0.35 0.06 0 0.355 0.06 0 0.36 0.06 0 0.365 0.06 0 0.37 0.06 0 0.375 0.06 0 0.38 0.06 0 0.385 0.06 0 0.39 0.06 0 0.395 0.06 0 0.4 0.06 0 0.405 0.06 0 0.41 0.06 0 0.415 0.06 0 0.42 0.06 0 0.425 0.06 0 0.43 0.06 0 0.435 0.06 0 0.44 0.06 0 0.445 0.06 0 0.45 0.06 0 0.455 0.06 0 0.46 0.06 0 0.465 0.06 0 0.47 0.06 0 0.475 0.06 0 0.48 0.06 0 0.485 0.06 0 0.49 0.06 0 0.495 0.06 0 0.5 0.06 0 0.505 0.06 0 0.51 0.06 0 0.515 0.06 0 0.52 0.06 0 0.525 0.06 0 0.53 0.06 0 0.535 0.06 0 0.54 0.06 0 0.545 0.06 0 0.55 0.06 0 0.555 0.06 0 0.56 0.06 0 0.565 0.06 0 0.57 0.06 0 0.575 0.06 0 0.58 0.06 0 0.585 0.06 0 0.59 0.06 0 0.595 0.06 0 0.6 0.06 0 0.605 0.06 0 0.61 0.06 0 0.615 0.06 0 0.62 0.06 0 0.625 0.06 0 0.63 0.06 0 0.635 0.06 0 0.64 0.06 0 0.645 0.06 0 0.65 0.06 0 0.655 0.06 0 0.66 0.06 0 0.665 0.06 0 0.67 0.06 0 0.675 0.06 0 0.68 0.06 0 0.685 0.06 0 0.69 0.06 0 0.695 0.06 0 0.7 0.06 0 0.705 0.06 0 0.71 0.06 0 0.715 0.06 0 0.72 0.06 0 0.725 0.06 0 0.73 0.06 0 0.735 0.06 0 0.74 0.06 0 0.745 0.06 0 0.75 0.06 0 0.755 0.06 0 0.76 0.06 0 0.765 0.06 0 0.77 0.06 0 0.775 0.06 0 0.78 0.06 0 0.785 0.06 0 0.79 0.06 0 0.795 0.06 0 0.8 0.06 0 0.805 0.06 0 0.81 0.06 0 0.815 0.06 0 0.82 0.06 0 0.825 0.06 0 0.83 0.06 0 0.835 0.06 0 0.84 0.06 0 0.845 0.06 0 0.85 0.06 0 0.855 0.06 0 0.86 0.06 0 0.865 0.06 0 0.87 0.06 0 0.875 0.06 0 0.88 0.06 0 0.885 0.06 0 0.89 0.06 0 0.895 0.06 0 0.9 0.06 0 0.905 0.06 0 0.91 0.06 0 0.915 0.06 0 0.92 0.06 0 0.925 0.06 0 0.93 0.06 0 0.935 0.06 0 0.94 0.06 0 0.945 0.06 0 0.95 0.06 0 0.955 0.06 0 0.96 0.06 0 0.965 0.06 0 0.97 0.06 0 0.975 0.06 0 0.98 0.06 0 0.985 0.06 0 0.99 0.06 0 0.995 0.06 0 1 0.06 0 0 0.08 0 0.005 0.08 0 0.01 0.08 0 0.015 0.08 0 0.02 0.08 0 0.025 0.08 0 0.03 0.08 0 0.035 0.08 0 0.04 0.08 0 0.045 0.08 0 0.05 0.08 0 0.055 0.08 0 0.06 0.08 0 0.065 0.08 0 0.07 0.08 0 0.075 0.08 0 0.08 0.08 0 0.085 0.08 0 0.09 0.08 0 0.095 0.08 0 0.1 0.08 0 0.105 0.08 0 0.11 0.08 0 0.115 0.08 0 0.12 0.08 0 0.125 0.08 0 0.13 0.08 0 0.135 0.08 0 0.14 0.08 0 0.145 0.08 0 0.15 0.08 0 0.155 0.08 0 0.16 0.08 0 0.165 0.08 0
[...]
			<PointData Scalars="VitesseX">
				<DataArray Name="VitesseX" type="Float32" format="ascii">
 0 3.90982e-15 -5.80427e-15 -1.04149e-14 -1.91283e-14 2.74585e-15 -4.50931e-14 2.51499e-14 1.0467e-14 4.78942e-16 -3.35259e-14 -2.02068e-14 -1.484e-14 -3.32732e-14 -2.55937e-14 1.71221e-14 -2.49122e-14 4.78842e-14 -1.05291e-15 7.37112e-15 -1.23976e-13 -3.34473e-14 -2.6671e-15 2.07573e-14 -2.71387e-13 -1.00679e-13 9.08563e-14 -2.41614e-13 -3.75713e-14 -1.53689e-13 -2.1334e-13 -9.44311e-14 -1.1421e-13 -8.40852e-14 -8.19492e-14 -1.68006e-13 1.81595e-13 -5.00266e-14 2.11766e-13 -1.39996e-13 -1.0866e-13 -9.43362e-14 -3.9336e-14 -8.21637e-14 -1.95424e-13 -4.15297e-14 5.76621e-14 -2.11506e-13 -1.62428e-13 -1.9443e-13 -1.6332e-13 6.80783e-14 -1.33342e-13 7.14987e-15 -6.16962e-13 -5.85046e-14 1.12072e-13 1.45493e-13 2.59605e-12 1.94162e-11 1.51355e-10 1.09169e-09 7.34723e-09 4.60248e-08 2.67182e-07 1.43108e-06 7.03603e-06 3.15623e-05 0.000128244 0.000467879 0.00151688 0.00432029 0.0106994 0.0229343 0.0426195 0.0694336 0.101271 0.135692 0.171081 0.206676 0.242187 0.27756 0.312737 0.347686 0.382378 0.41679 0.450901 0.484692 0.51814 0.551224 0.583915 0.616177 0.647962 0.679208 0.709829 0.739713 0.768712 0.796633 0.823233 0.84821 0.871207 0.891815 0.909598 0.924117 0.934981 0.942001 0.943524 0.943149 0.942224 0.940947 0.939487 0.93796 0.936459 0.935051 0.933791 0.932709 0.931816 0.931092 0.930279 0.928598 0.935402 0.956404 0.950491 0.935754 0.930279 0.928998 0.92871 0.928674 0.928646 0.928521 0.928118 0.92709 0.924776 0.919935 0.910455 0.893134 0.863429 0.815947 0.745681 0.650097 0.531707 0.400014 0.270511 0.160125 0.0816925 0.0362661 0.0145943 0.00556246 0.00206226 0.000753374 0.00027254 9.77864e-05 3.48053e-05 1.2286e-05 4.29911e-06 1.49053e-06 5.11784e-07 1.73949e-07 5.85013e-08 1.94599e-08 6.40093e-09 2.08012e-09 6.68208e-10 2.11571e-10 6.59217e-11 2.03586e-11 5.55913e-12 1.65265e-12 5.82962e-14 -1.12366e-13 -2.75394e-13 -1.27599e-14 -2.98623e-13 9.72214e-13 -7.58798e-13 5.30801e-13 -4.83649e-13 1.16283e-13 6.69906e-14 -9.23664e-13 5.64548e-13 -3.47496e-13 -2.68966e-13 3.19989e-13 -2.31527e-13 -2.59428e-13 2.79526e-14 -2.87785e-13 4.75464e-13 -4.0551e-14 5.24375e-14 8.79704e-13 -3.85291e-13 1.77962e-13 3.62549e-13 7.32251e-13 -5.25655e-13 5.71855e-13 -1.72118e-13 3.53753e-14 0 0 -2.02354e-14 -1.85932e-14 -2.49272e-14 -1.992e-14 1.09888e-15 3.60222e-14 -4.56153e-14 5.48631e-15 1.51232e-15 -1.59366e-14 6.67732e-15 -1.62554e-14 -2.80009e-14 -9.11726e-15 -3.00363e-14 3.43108e-14 -4.62166e-14 -9.47343e-15 -1.71292e-14 3.43022e-14 -3.03259e-14 -1.08012e-13 -1.67646e-13 1.3541e-13 -9.38677e-14 -2.77941e-13 5.10587e-14 -2.1186e-13 -1.86225e-13 -7.20732e-14 -1.21083e-13 -2.58216e-13 -4.86213e-14 -8.39764e-15 2.08635e-14 -1.46725e-13 1.65609e-13 -1.75493e-13 2.30114e-14 -6.29052e-14 -1.47256e-14 -1.86814e-13 -1.1574e-13 -8.30279e-14 -1.22341e-13 -9.67742e-14 -6.84833e-15 -6.09237e-14 5.72694e-14 2.31753e-15 -3.63264e-13 -1.48701e-13 -1.87507e-13 1.54873e-13 -2.56368e-13 -1.05306e-13 2.89525e-13 2.25744e-12 1.97033e-11 1.51499e-10 1.0912e-09 7.3476e-09 4.60245e-08 2.67182e-07 1.43108e-06 7.03603e-06 3.15623e-05 0.000128244 0.000467879 0.00151688 0.00432029 0.0106994 0.0229343 0.0426195 0.0694336 0.101271 0.135692 0.171081 0.206676 0.242187 0.27756 0.312737 0.347686 0.382378 0.41679 0.450901 0.484692 0.51814 0.551224 0.583915 0.616177 0.647962 0.679208 0.709829 0.739713 0.768712 0.796633 0.823233 0.84821 0.871207 0.891815 0.909598 0.924117 0.934981 0.942001 0.943524 0.943149 0.942224 0.940947 0.939487 0.93796 0.936459 0.935051 0.933791 0.932709 0.931816 0.931092 0.930279 0.928598 0.935402 0.956404 0.950491 0.935754 0.930279 0.928998 0.92871 0.928674 0.928646 0.928521 0.928118 0.92709 0.924776 0.919935 0.910455 0.893134 0.863429 0.815947 0.745681 0.650097 0.531707 0.400014 0.270511 0.160125 0.0816925 0.0362661 0.0145943 0.00556246 0.00206226 0.000753374 0.00027254 9.77864e-05 3.48053e-05 1.2286e-05 4.29911e-06 1.49053e-06 5.11784e-07 1.73949e-07 5.85014e-08 1.94604e-08 6.40019e-09 2.08079e-09 6.68127e-10 2.11829e-10 6.60434e-11 1.99613e-11 5.92118e-12 1.32861e-12 2.67186e-13 -4.07634e-13 1.72771e-13 -2.38799e-13 1.07142e-14 -5.14701e-13 7.70184e-13 -5.38263e-13 2.38806e-13 -2.27024e-13 -1.15619e-13 1.03142e-13 -4.22438e-13 -7.45318e-14 2.88852e-13 -7.25775e-13 5.66713e-14 -1.78775e-13 -3.81078e-13 -1.92434e-13 -1.9819e-13 3.20226e-13 1.40311e-13 -2.41683e-13 8.19816e-13 2.43395e-13 2.15317e-13 -2.69581e-13 6.73075e-13 -3.9288e-13 1.15835e-13 -2.54368e-14 0 0 -9.74564e-15 -2.49488e-14 -2.37313e-14 -6.03923e-15 -1.35892e-14 -9.297e-15 -8.92589e-15 -1.96375e-14 3.87409e-14 -2.40148e-14 -1.76224e-14 -3.38814e-14 1.66813e-14 -1.17305e-14 4.72413e-14 -3.03493e-14 -2.87665e-14 1.10712e-14 -4.09849e-14 -2.86876e-14 -3.10367e-15 4.01033e-15 -8.72255e-14 -1.40474e-13 -3.98221e-14 -6.14598e-14 -2.1211e-13 -1.44054e-13 -1.09647e-13 -9.97263e-14 -9.57634e-14 -4.80203e-14 -1.96558e-13 -6.77834e-14 -6.36003e-14 4.813e-14 -6.39718e-14 -1.77556e-13 -4.05298e-14 9.31873e-14 -1.83375e-13 4.05914e-14 -2.48807e-13 -2.39083e-14 -1.14344e-13 -1.32787e-13 1.11543e-14 3.01853e-14 -8.70668e-14 -1.76471e-13 1.6216e-13 1.22674e-13 -2.97221e-13 -2.56204e-13 2.24578e-14 -2.28387e-14 2.24183e-13 2.23443e-12 1.95882e-11 1.51522e-10 1.09114e-09 7.3475e-09 4.60245e-08 2.67183e-07 1.43108e-06 7.03603e-06 3.15623e-05 0.000128244 0.000467879 0.00151688 0.00432029 0.0106994 0.0229343 0.0426195 0.0694336 0.101271 0.135692 0.171081 0.206676 0.242187 0.27756 0.312737 0.347686 0.382378 0.41679 0.450901 0.484692 0.51814 0.551224 0.583915 0.616177 0.647962 0.679208 0.709829 0.739713 0.768712 0.796633 0.823233 0.84821 0.871207 0.891815 0.909598 0.924117 0.934981 0.942001 0.943524 0.943149 0.942224 0.940947 0.939487 0.93796 0.936459 0.935051 0.933791 0.932709 0.931816 0.931092 0.930279 0.928598 0.935402 0.956404 0.950491 0.935754 0.930279 0.928998 0.92871 0.928674 0.928646 0.928521 0.928118 0.92709 0.924776 0.919935 0.910455 0.893134 0.863429 0.815947 0.745681 0.650097 0.531707 0.400014 0.270511 0.160125 0.0816925 0.0362661 0.0145943 0.00556246 0.00206226 0.000753374 0.00027254 9.77864e-05 3.48053e-05 1.2286e-05 4.29911e-06 1.49053e-06 5.11785e-07 1.7395e-07 5.85015e-08 1.94604e-08 6.40062e-09 2.08097e-09 6.68279e-10 2.11721e-10 6.61361e-11 2.00098e-11 5.66707e-12 1.76012e-12 1.84879e-13 -5.13656e-13 1.28876e-13 -1.68426e-13 -2.60586e-13 2.58664e-13 -7.78495e-14 -2.7239e-14 -3.20736e-13 -2.80141e-13 5.21615e-14 -2.86138e-13 1.67605e-13 -2.60737e-13 -2.99311e-13 -8.89839e-14 -3.72715e-13 -3.34527e-13 -2.4875e-13 -4.80787e-13 5.18831e-14 -9.14402e-14 1.15832e-13 3.24531e-13 -1.52259e-14 1.16457e-13 1.28987e-13 8.63603e-14 6.52463e-14 -1.93535e-13 2.5446e-13 -2.50228e-13 0 0 9.83832e-15 1.99569e-15 2.08548e-15 -7.97729e-15 -5.75901e-15 -9.14977e-15 -9.09072e-15 1.5048e-14 -3.71764e-14 -1.52241e-14 -5.44714e-14 -1.15511e-14 -2.86639e-15 3.97619e-14 6.14159e-14 1.05418e-15 -3.10844e-14 -1.69639e-14 -4.83748e-14 -6.00563e-14 -6.71727e-14 -6.71217e-15 -5.87678e-14 -1.29072e-13 -1.49346e-13 -1.59552e-15 -1.51803e-13 -8.70059e-14 -4.0054e-14 -1.55389e-13 -2.04755e-14 -2.04343e-14 -2.99403e-14 -1.39534e-13 -1.53953e-13 6.66315e-14 -1.20464e-13 8.90375e-14 -7.3495e-14 -2.17921e-13 -1.54608e-13 9.05488e-14 -7.0253e-14 -9.27702e-14 -1.09911e-13 1.32719e-13 -2.99412e-13 -4.35971e-14 4.29067e-14 -1.26033e-13 1.29231e-13 5.04787e-14 -1.00567e-13 -1.77498e-13 -8.58693e-14 5.66165e-14 1.53814e-13 2.44183e-12 1.94514e-11 1.51337e-10 1.09162e-09 7.34743e-09 4.60247e-08 2.67182e-07 1.43108e-06 7.03603e-06 3.15623e-05 0.000128244 0.000467879 0.00151688 0.00432029 0.0106994 0.0229343 0.0426195 0.0694336 0.101271 0.135692 0.171081 0.206676 0.242187 0.27756 0.312737 0.347686 0.382378 0.41679 0.450901 0.484692 0.51814 0.551224 0.583915 0.616177 0.647962 0.679208 0.709829 0.739713 0.768712 0.796633 0.823233 0.84821 0.871207 0.891815 0.909598 0.924117 0.934981 0.942001 0.943524 0.943149 0.942224 0.940947 0.939487 0.93796 0.936459 0.935051 0.933791 0.932709 0.931816 0.931092 0.930279 0.928598 0.935402 0.956404 0.950491 0.935754 0.930279 0.928998 0.92871 0.928674 0.928646 0.928521 0.928118 0.92709 0.924776 0.919935 0.910455 0.893134 0.863429 0.815947 0.745681 0.650097 0.531707 0.400014 0.270511 0.160125 0.0816925 0.0362661 0.0145943 0.00556246 0.00206226 0.000753374 0.00027254 9.77864e-05 3.48053e-05 1.2286e-05 4.29911e-06 1.49053e-06 5.11785e-07 1.7395e-07 5.85017e-08 1.94605e-08 6.40078e-09 2.08046e-09 6.68313e-10 2.11867e-10 6.62512e-11 2.0234e-11 5.84346e-12 1.38589e-12 -1.95984e-13 4.03869e-13 -2.30114e-13 2.0184e-13 -3.20949e-14 5.2047e-13 -1.1636e-12 4.22198e-13 -4.43116e-13 -3.74221e-13 2.93886e-14 -2.31805e-13 1.99142e-13 -5.69526e-13 -4.07977e-14 -4.2196e-13 -1.83412e-13 -2.0091e-13 -2.77553e-13 -2.10996e-13 -4.06789e-13 4.434e-13 -9.34e-15 2.36405e-13 -7.38327e-14 3.16276e-14 6.56673e-13 5.694e-13 -2.41196e-13 2.27062e-13 -5.5684e-13 8.45202e-13 0 0 1.8301e-15 1.0174e-14 2.58914e-15 -2.75546e-15 4.91907e-15 3.26425e-14 -2.05401e-14 2.75937e-14 -3.77823e-14 -1.80773e-14 -2.85494e-14 -9.51303e-15 -3.31979e-14 3.60349e-14 -2.76305e-14 5.98213e-14 -5.68815e-14 -1.08691e-14 -8.78809e-14 -4.82019e-15 -1.07507e-13 -1.15919e-13 -1.14346e-13 1.63948e-13 -1.40163e-13 -2.30357e-13 7.59329e-14 -1.60699e-13 -3.09884e-14 -5.92251e-14 -7.92609e-14 -1.45893e-13 4.43239e-14 -1.73723e-14 3.8682e-14 -5.55935e-14 1.41451e-13 -3.05415e-14 -5.32062e-14 -3.45411e-13 -7.57619e-14 -1.71293e-13 -1.86223e-14 -1.69455e-13 -1.29909e-13 5.04909e-14 -1.6199e-13 -3.63117e-14 2.02296e-13 8.02777e-14 -4.46126e-13 -8.5794e-14 3.91492e-14 2.75791e-13 -2.36563e-13 -6.31062e-14 3.46711e-13 2.43866e-12 1.99113e-11 1.51465e-10 1.09156e-09 7.34766e-09 4.60245e-08 2.67182e-07 1.43108e-06 7.03603e-06 3.15623e-05 0.000128244 0.000467879 0.00151688 0.00432029 0.0106994 0.0229343 0.0426195 0.0694336 0.101271 0.135692 0.171081 0.206676 0.242187 0.27756 0.312737 0.347686 0.382378 0.41679 0.450901 0.484692 0.51814 0.551224 0.583915 0.616177 0.647962 0.679208 0.709829 0.739713 0.768712 0.796633 0.823233 0.84821 0.871207 0.891815 0.909598 0.924117 0.934981 0.942001 0.943524 0.943149 0.942224 0.940947 0.939487 0.93796 0.936459 0.935051 0.933791 0.932709 0.931816 0.931092 0.930279 0.928598 0.935402 0.956404 0.950491 0.935754 0.930279 0.928998 0.92871 0.928674 0.928646 0.928521 0.928118 0.92709 0.924776 0.919935 0.910455 0.893134 0.863429 0.815947 0.745681 0.650097 0.531707 0.400014 0.270511 0.160125 0.0816925 0.0362661 0.0145943 0.00556246 0.00206226 0.000753374 0.00027254 9.77864e-05 3.48053e-05 1.2286e-05 4.29911e-06 1.49053e-06 5.11785e-07 1.7395e-07 5.85016e-08 1.94604e-08 6.40043e-09 2.08072e-09 6.68357e-10 2.12394e-10 6.61306e-11 2.00289e-11 5.76018e-12 1.38103e-12 2.30508e-13 2.20928e-13 -1.76478e-13 2.24765e-13 2.04203e-13 -7.30886e-13 -1.45039e-13 -1.30418e-13 1.6442e-13 -2.52125e-13 6.73029e-14 7.52823e-13 -8.15776e-13 -2.75447e-13 5.33128e-13 -1.20957e-12 9.58871e-15 -1.48939e-13 -5.46739e-13 -8.17321e-14 -8.94836e-13 8.63477e-13 -1.25039e-13 -1.72405e-13 7.28676e-13 1.21377e-13 3.77042e-13 -3.24304e-13 3.73081e-13 -6.85135e-14 -2.68044e-13 8.2251e-13 0 0 8.87285e-15 -2.1587e-15 -7.01579e-15 1.90768e-14 -5.27423e-15 -5.2147e-14 7.56299e-14 -1.46893e-14 7.37242e-14 -5.53886e-14 -1.69624e-14 -4.60157e-14 -4.57178e-15 -3.82741e-14 -6.41551e-15 -3.66981e-14 3.11902e-14 5.2226e-14 -1.19353e-13 -1.39483e-13 -5.96714e-14 2.96401e-15 7.04423e-14 -2.37116e-13 2.57786e-14 6.62967e-14 -3.12478e-13 -4.93468e-14 1.75976e-14 -7.63192e-14 -1.61363e-13 5.52629e-14 -2.3143e-13 4.36033e-14 4.83369e-14 3.26856e-13 1.46423e-14 -3.15177e-14 -2.265e-13 -5.14566e-14 -2.73942e-13 -1.08207e-13 -2.45035e-13 -2.30554e-13 -6.55335e-14 -1.78818e-13 9.93429e-14 3.43608e-14 -1.64323e-13 -1.08275e-13 -3.17856e-14 1.36863e-13 6.71551e-14 -5.32539e-13 1.9776e-13 3.7561e-14 4.00601e-13 2.5437e-12 2.01058e-11 1.51656e-10 1.09145e-09 7.34748e-09 4.60245e-08 2.67183e-07 1.43108e-06 7.03603e-06 3.15623e-05 0.000128244 0.000467879 0.00151688 0.00432029 0.0106994 0.0229343 0.0426195 0.0694336 0.101271 0.135692 0.171081 0.206676 0.242187 0.27756 0.312737 0.347686 0.382378 0.41679 0.450901 0.484692 0.51814 0.551224 0.583915 0.616177 0.647962 0.679208 0.709829 0.739713 0.768712 0.796633 0.823233 0.84821 0.871207 0.891815 0.909598 0.924117 0.934981 0.942001 0.943524 0.943149 0.942224 0.940947 0.939487 0.93796 0.936459 0.935051 0.933791 0.932709 0.931816 0.931092 0.930279 0.928598 0.935402 0.956404 0.950491 0.935754 0.930279 0.928998 0.92871 0.928674 0.928646 0.928521 0.928118 0.92709 0.924776 0.919935 0.910455 0.893134 0.863429 0.815947 0.745681 0.650097 0.531707 0.400014 0.270511 0.160125 0.0816925 0.0362661 0.0145943 0.00556246 0.00206226 0.000753374 0.00027254 9.77864e-05 3.48053e-05 1.2286e-05 4.29911e-06 1.49053e-06 5.11784e-07 1.7395e-07 5.85013e-08 1.94597e-08 6.40107e-09 2.08102e-09 6.68601e-10 2.12407e-10 6.58658e-11 2.00453e-11 4.88433e-12 2.50594e-12 7.46666e-13 -6.90291e-13 -2.55912e-13 1.73836e-13 -3.68628e-13 1.62329e-14 -4.17738e-13 4.47617e-13 -3.87662e-13 2.54241e-13 4.78381e-13 2.67032e-13 -2.85202e-13 -1.31748e-13 -2.97442e-13 1.83447e-14 -7.04297e-13 -4.6699e-13 -2.45763e-13 -6.05961e-13 -4.83594e-16 -2.37273e-14 -2.27918e-13 1.19451e-12 -4.50357e-13 1.03584e-13 -3.69372e-13 -3.43274e-13 -5.12758e-13 3.79394e-13 6.82723e-13 -4.59593e-13 0
				</DataArray>
				<DataArray Name="VitesseY" type="Float32" format="ascii">