<?xml version="1.0"?>
<VTKFile type="PolyData">
	<PolyData>
		<Piece NumberOfPoints="1206" NumberOfPolys="1000">
			<Points>
				<DataArray type="Float32" NumberOfComponents="3" format="ascii">
 0 0 0 0.005 0 0 0.01 0 0 0.015 0 0 0.02 0 0 0.025 0 0 0.03 0 0 0.035 0 0 0.04 0 0 0.045 0 0 0.05 0 0 0.055 0 0 0.06 0 0 0.065 0 0 0.07 0 0 0.075 0 0 0.08 0 0 0.085 0 0 0.09 0 0 0.095 0 0 0.1 0 0 0.105 0 0 0.11 0 0 0.115 0 0 0.12 0 0 0.125 0 0 0.13 0 0 0.135 0 0 0.14 0 0 0.145 0 0 0.15 0 0 0.155 0 0 0.16 0 0 0.165 0 0 0.17 0 0 0.175 0 0 0.18 0 0 0.185 0 0 0.19 0 0 0.195 0 0 0.2 0 0 0.205 0 0 0.21 0 0 0.215 0 0 0.22 0 0 0.225 0 0 0.23 0 0 0.235 0 0 0.24 0 0 0.245 0 0 0.25 0 0 0.255 0 0 0.26 0 0 0.265 0 0 0.27 0 0 0.275 0 0 0.28 0 0 0.285 0 0 0.29 0 0 0.295 0 0 0.3 0 0 0.305 0 0 0.31 0 0 0.315 0 0 0.32 0 0 0.325 0 0 0.33 0 0 0.335 0 0 0.34 0 0 0.345 0 0 0.35 0 0 0.355 0 0 0.36 0 0 0.365 0 0 0.37 0 0 0.375 0 0 0.38 0 0 0.385 0 0 0.39 0 0 0.395 0 0 0.4 0 0 0.405 0 0 0.41 0 0 0.415 0 0 0.42 0 0 0.425 0 0 0.43 0 0 0.435 0 0 0.44 0 0 0.445 0 0 0.45 0 0 0.455 0 0 0.46 0 0 0.465 0 0 0.47 0 0 0.475 0 0 0.48 0 0 0.485 0 0 0.49 0 0 0.495 0 0 0.5 0 0 0.505 0 0 0.51 0 0 0.515 0 0 0.52 0 0 0.525 0 0 0.53 0 0 0.535 0 0 0.54 0 0 0.545 0 0 0.55 0 0 0.555 0 0 0.56 0 0 0.565 0 0 0.57 0 0 0.575 0 0 0.58 0 0 0.585 0 0 0.59 0 0 0.595 0 0 0.6 0 0 0.605 0 0 0.61 0 0 0.615 0 0 0.62 0 0 0.625 0 0 0.63 0 0 0.635 0 0 0.64 0 0 0.645 0 0 0.65 0 0 0.655 0 0 0.66 0 0 0.665 0 0 0.67 0 0 0.675 0 0 0.68 0 0 0.685 0 0 0.69 0 0 0.695 0 0 0.7 0 0 0.705 0 0 0.71 0 0 0.715 0 0 0.72 0 0 0.725 0 0 0.73 0 0 0.735 0 0 0.74 0 0 0.745 0 0 0.75 0 0 0.755 0 0 0.76 0 0 0.765 0 0 0.77 0 0 0.775 0 0 0.78 0 0 0.785 0 0 0.79 0 0 0.795 0 0 0.8 0 0 0.805 0 0 0.81 0 0 0.815 0 0 0.82 0 0 0.825 0 0 0.83 0 0 0.835 0 0 0.84 0 0 0.845 0 0 0.85 0 0 0.855 0 0 0.86 0 0 0.865 0 0 0.87 0 0 0.875 0 0 0.88 0 0 0.885 0 0 0.89 0 0 0.895 0 0 0.9 0 0 0.905 0 0 0.91 0 0 0.915 0 0 0.92 0 0 0.925 0 0 0.93 0 0 0.935 0 0 0.94 0 0 0.945 0 0 0.95 0 0 0.955 0 0 0.96 0 0 0.965 0 0 0.97 0 0 0.975 0 0 0.98 0 0 0.985 0 0 0.99 0 0 0.995 0 0 1 0 0 0 0.02 0 0.005 0.02 0 0.01 0.02 0 0.015 0.02 0 0.02 0.02 0 0.025 0.02 0 0.03 0.02 0 0.035 0.02 0 0.04 0.02 0 0.045 0.02 0 0.05 0.02 0 0.055 0.02 0 0.06 0.02 0 0.065 0.02 0 0.07 0.02 0 0.075 0.02 0 0.08 0.02 0 0.085 0.02 0 0.09 0.02 0 0.095 0.02 0 0.1 0.02 0 0.105 0.02 0 0.11 0.02 0 0.115 0.02 0 0.12 0.02 0 0.125 0.02 0 0.13 0.02 0 0.135 0.02 0 0.14 0.02 0 0.145 0.02 0 0.15 0.02 0 0.155 0.02 0 0.16 0.02 0 0.165 0.02 0 0.17 0.02 0 0.175 0.02 0 0.18 0.02 0 0.185 0.02 0 0.19 0.02 0 0.195 0.02 0 0.2 0.02 0 0.205 0.02 0 0.21 0.02 0 0.215 0.02 0 0.22 0.02 0 0.225 0.02 0 0.23 0.02 0 0.235 0.02 0 0.24 0.02 0 0.245 0.02 0 0.25 0.02 0 0.255 0.02 0 0.26 0.02 0 0.265 0.02 0 0.27 0.02 0 0.275 0.02 0 0.28 0.02 0 0.285 0.02 0 0.29 0.02 0 0.295 0.02 0 0.3 0.02 0 0.305 0.02 0 0.31 0.02 0 0.315 0.02 0 0.32 0.02 0 0.325 0.02 0 0.33 0.02 0 0.335 0.02 0 0.34 0.02 0 0.345 0.02 0 0.35 0.02 0 0.355 0.02 0 0.36 0.02 0 0.365 0.02 0 0.37 0.02 0 0.375 0.02 0 0.38 0.02 0 0.385 0.02 0 0.39 0.02 0 0.395 0.02 0 0.4 0.02 0 0.405 0.02 0 0.41 0.02 0 0.415 0.02 0 0.42 0.02 0 0.425 0.02 0 0.43 0.02 0 0.435 0.02 0 0.44 0.02 0 0.445 0.02 0 0.45 0.02 0 0.455 0.02 0 0.46 0.02 0 0.465 0.02 0 0.47 0.02 0 0.475 0.02 0 0.48 0.02 0 0.485 0.02 0 0.49 0.02 0 0.495 0.02 0 0.5 0.02 0 0.505 0.02 0 0.51 0.02 0 0.515 0.02 0 0.52 0.02 0 0.525 0.02 0 0.53 0.02 0 0.535 0.02 0 0.54 0.02 0 0.545 0.02 0 0.55 0.02 0 0.555 0.02 0 0.56 0.02 0 0.565 0.02 0 0.57 0.02 0 0.575 0.02 0 0.58 0.02 0 0.585 0.02 0 0.59 0.02 0 0.595 0.02 0 0.6 0.02 0 0.605 0.02 0 0.61 0.02 0 0.615 0.02 0 0.62 0.02 0 0.625 0.02 0 0.63 0.02 0 0.635 0.02 0 0.64 0.02 0 0.645 0.02 0 0.65 0.02 0 0.655 0.02 0 0.66 0.02 0 0.665 0.02 0 0.67 0.02 0 0.675 0.02 0 0.68 0.02 0 0.685 0.02 0 0.69 0.02 0 0.695 0.02 0 0.7 0.02 0 0.705 0.02 0 0.71 0.02 0 0.715 0.02 0 0.72 0.02 0 0.725 0.02 0 0.73 0.02 0 0.735 0.02 0 0.74 0.02 0 0.745 0.02 0 0.75 0.02 0 0.755 0.02 0 0.76 0.02 0 0.765 0.02 0 0.77 0.02 0 0.775 0.02 0 0.78 0.02 0 0.785 0.02 0 0.79 0.02 0 0.795 0.02 0 0.8 0.02 0 0.805 0.02 0 0.81 0.02 0 0.815 0.02 0 0.82 0.02 0 0.825 0.02 0 0.83 0.02 0 0.835 0.02 0 0.84 0.02 0 0.845 0.02 0 0.85 0.02 0 0.855 0.02 0 0.86 0.02 0 0.865 0.02 0 0.87 0.02 0 0.875 0.02 0 0.88 0.02 0 0.885 0.02 0 0.89 0.02 0 0.895 0.02 0 0.9 0.02 0 0.905 0.02 0 0.91 0.02 0 0.915 0.02 0 0.92 0.02 0 0.925 0.02 0 0.93 0.02 0 0.935 0.02 0 0.94 0.02 0 0.945 0.02 0 0.95 0.02 0 0.955 0.02 0 0.96 0.02 0 0.965 0.02 0 0.97 0.02 0 0.975 0.02 0 0.98 0.02 0 0.985 0.02 0 0.99 0.02 0 0.995 0.02 0 1 0.02 0 0 0.04 0 0.005 0.04 0 0.01 0.04 0 0.015 0.04 0 0.02 0.04 0 0.025 0.04 0 0.03 0.04 0 0.035 0.04 0 0.04 0.04 0 0.045 0.04 0 0.05 0.04 0 0.055 0.04 0 0.06 0.04 0 0.065 0.04 0 0.07 0.04 0 0.075 0.04 0 0.08 0.04 0 0.085 0.04 0 0.09 0.04 0 0.095 0.04 0 0.1 0.04 0 0.105 0.04 0 0.11 0.04 0 0.115 0.04 0 0.12 0.04 0 0.125 0.04 0 0.13 0.04 0 0.135 0.04 0 0.14 0.04 0 0.145 0.04 0 0.15 0.04 0 0.155 0.04 0 0.16 0.04 0 0.165 0.04 0 0.17 0.04 0 0.175 0.04 0 0.18 0.04 0 0.185 0.04 0 0.19 0.04 0 0.195 0.04 0 0.2 0.04 0 0.205 0.04 0 0.21 0.04 0 0.215 0.04 0 0.22 0.04 0 0.225 0.04 0 0.23 0.04 0 0.235 0.04 0 0.24 0.04 0 0.245 0.04 0 0.25 0.04 0 0.255 0.04 0 0.26 0.04 0 0.265 0.04 0 0.27 0.04 0 0.275 0.04 0 0.28 0.04 0 0.285 0.04 0 0.29 0.04 0 0.295 0.04 0 0.3 0.04 0 0.305 0.04 0 0.31 0.04 0 0.315 0.04 0 0.32 0.04 0 0.325 0.04 0 0.33 0.04 0 0.335 0.04 0 0.34 0.04 0 0.345 0.04 0 0.35 0.04 0 0.355 0.04 0 0.36 0.04 0 0.365 0.04 0 0.37 0.04 0 0.375 0.04 0 0.38 0.04 0 0.385 0.04 0 0.39 0.04 0 0.395 0.04 0 0.4 0.04 0 0.405 0.04 0 0.41 0.04 0 0.415 0.04 0 0.42 0.04 0 0.425 0.04 0 0.43 0.04 0 0.435 0.04 0 0.44 0.04 0 0.445 0.04 0 0.45 0.04 0 0.455 0.04 0 0.46 0.04 0 0.465 0.04 0 0.47 0.04 0 0.475 0.04 0 0.48 0.04 0 0.485 0.04 0 0.49 0.04 0 0.495 0.04 0 0.5 0.04 0 0.505 0.04 0 0.51 0.04 0 0.515 0.04 0 0.52 0.04 0 0.525 0.04 0 0.53 0.04 0 0.535 0.04 0 0.54 0.04 0 0.545 0.04 0 0.55 0.04 0 0.555 0.04 0 0.56 0.04 0 0.565 0.04 0 0.57 0.04 0 0.575 0.04 0 0.58 0.04 0 0.585 0.04 0 0.59 0.04 0 0.595 0.04 0 0.6 0.04 0 0.605 0.04 0 0.61 0.04 0 0.615 0.04 0 0.62 0.04 0 0.625 0.04 0 0.63 0.04 0 0.635 0.04 0 0.64 0.04 0 0.645 0.04 0 0.65 0.04 0 0.655 0.04 0 0.66 0.04 0 0.665 0.04 0 0.67 0.04 0 0.675 0.04 0 0.68 0.04 0 0.685 0.04 0 0.69 0.04 0 0.695 0.04 0 0.7 0.04 0 0.705 0.04 0 0.71 0.04 0 0.715 0.04 0 0.72 0.04 0 0.725 0.04 0 0.73 0.04 0 0.735 0.04 0 0.74 0.04 0 0.745 0.04 0 0.75 0.04 0 0.755 0.04 0 0.76 0.04 0 0.765 0.04 0 0.77 0.04 0 0.775 0.04 0 0.78 0.04 0 0.785 0.04 0 0.79 0.04 0 0.795 0.04 0 0.8 0.04 0 0.805 0.04 0 0.81 0.04 0 0.815 0.04 0 0.82 0.04 0 0.825 0.04 0 0.83 0.04 0 0.835 0.04 0 0.84 0.04 0 0.845 0.04 0 0.85 0.04 0 0.855 0.04 0 0.86 0.04 0 0.865 0.04 0 0.87 0.04 0 0.875 0.04 0 0.88 0.04 0 0.885 0.04 0 0.89 0.04 0 0.895 0.04 0 0.9 0.04 0 0.905 0.04 0 0.91 0.04 0 0.915 0.04 0 0.92 0.04 0 0.925 0.04 0 0.93 0.04 0 0.935 0.04 0 0.94 0.04 0 0.945 0.04 0 0.95 0.04 0 0.955 0.04 0 0.96 0.04 0 0.965 0.04 0 0.97 0.04 0 0.975 0.04 0 0.98 0.04 0 0.985 0.04 0 0.99 0.04 0 0.995 0.04 0 1 0.04 0 0 0.06 0 0.005 0.06 0 0.01 0.06 0 0.015 0.06 0 0.02 0.06 0 0.025 0.06 0 0.03 0.06 0 0.035 0.06 0 0.04 0.06 0 0.045 0.06 0 0.05 0.06 0 0.055 0.06 0 0.06 0.06 0 0.065 0.06 0 0.07 0.06 0 0.075 0.06 0 0.08 0.06 0 0.085 0.06 0 0.09 0.06 0 0.095 0.06 0 0.1 0.06 0 0.105 0.06 0 0.11 0.06 0 0.115 0.06 0 0.12 0.06 0 0.125 0.06 0 0.13 0.06 0 0.135 0.06 0 0.14 0.06 0 0.145 0.06 0 0.15 0.06 0 0.155 0.06 0 0.16 0.06 0 0.165 0.06 0 0.17 0.06 0 0.175 0.06 0 0.18 0.06 0 0.185 0.06 0 0.19 0.06 0 0.195 0.06 0 0.2 0.06 0 0.205 0.06 0 0.21 0.06 0 0.215 0.06 0 0.22 0.06 0 0.225 0.06 0 0.23 0.06 0 0.235 0.06 0 0.24 0.06 0 0.245 0.06 0 0.25 0.06 0 0.255 0.06 0 0.26 0.06 0 0.265 0.06 0 0.27 0.06 0 0.275 0.06 0 0.28 0.06 0 0.285 0.06 0 0.29 0.06 0 0.295 0.06 0 0.3 0.06 0 0.305 0.06 0 0.31 0.06 0 0.315 0.06 0 0.32 0.06 0 0.325 0.06 0 0.33 0.06 0 0.335 0.06 0 0.34 0.06 0 0.345 0.06 0 0.35 0.06 0 0.355 0.06 0 0.36 0.06 0 0.365 0.06 0 0.37 0.06 0 0.375 0.06 0 0.38 0.06 0 0.385 0.06 0 0.39 0.06 0 0.395 0.06 0 0.4 0.06 0 0.405 0.06 0 0.41 0.06 0 0.415 0.06 0 0.42 0.06 0 0.425 0.06 0 0.43 0.06 0 0.435 0.06 0 0.44 0.06 0 0.445 0.06 0 0.45 0.06 0 0.455 0.06 0 0.46 0.06 0 0.465 0.06 0 0.47 0.06 0 0.475 0.06 0 0.48 0.06 0 0.485 0.06 0 0.49 0.06 0 0.495 0.06 0 0.5 0.06 0 0.505 0.06 0 0.51 0.06 0 0.515 0.06 0 0.52 0.06 0 0.525 0.06 0 0.53 0.06 0 0.535 0.06 0 0.54 0.06 0 0.545 0.06 0 0.55 0.06 0 0.555 0.06 0 0.56 0.06 0 0.565 0.06 0 0.57 0.06 0 0.575 0.06 0 0.58 0.06 0 0.585 0.06 0 0.59 0.06 0 0.595 0.06 0 0.6 0.06 0 0.605 0.06 0 0.61 0.06 0 0.615 0.06 0 0.62 0.06 0 0.625 0.06 0 0.63 0.06 0 0.635 0.06 0 0.64 0.06 0 0.645 0.06 0 0.65 0.06 0 0.655 0.06 0 0.66 0.06 0 0.665 0.06 0 0.67 0.06 0 0.675 0.06 0 0.68 0.06 0 0.685 0.06 0 0.69 0.06 0 0.695 0.06 0 0.7 0.06 0 0.705 0.06 0 0.71 0.06 0 0.715 0.06 0 0.72 0.06 0 0.725 0.06 0 0.73 0.06 0 0.735 0.06 0 0.74 0.06 0 0.745 0.06 0 0.75 0.06 0 0.755 0.06 0 0.76 0.06 0 0.765 0.06 0 0.77 0.06 0 0.775 0.06 0 0.78 0.06 0 0.785 0.06 0 0.79 0.06 0 0.795 0.06 0 0.8 0.06 0 0.805 0.06 0 0.81 0.06 0 0.815 0.06 0 0.82 0.06 0 0.825 0.06 0 0.83 0.06 0 0.835 0.06 0 0.84 0.06 0 0.845 0.06 0 0.85 0.06 0 0.855 0.06 0 0.86 0.06 0 0.865 0.06 0 0.87 0.06 0 0.875 0.06 0 0.88 0.06 0 0.885 0.06 0 0.89 0.06 0 0.895 0.06 0 0.9 0.06 0 0.905 0.06 0 0.91 0.06 0 0.915 0.06 0 0.92 0.06 0 0.925 0.06 0 0.93 0.06 0 0.935 0.06 0 0.94 0.06 0 0.945 0.06 0 0.95 0.06 0 0.955 0.06 0 0.96 0.06 0 0.965 0.06 0 0.97 0.06 0 0.975 0.06 0 0.98 0.06 0 0.985 0.06 0 0.99 0.06 0 0.995 0.06 0 1 0.06 0 0 0.08 0 0.005 0.08 0 0.01 0.08 0 0.015 0.08 0 0.02 0.08 0 0.025 0.08 0 0.03 0.08 0 0.035 0.08 0 0.04 0.08 0 0.045 0.08 0 0.05 0.08 0 0.055 0.08 0 0.06 0.08 0 0.065 0.08 0 0.07 0.08 0 0.075 0.08 0 0.08 0.08 0 0.085 0.08 0 0.09 0.08 0 0.095 0.08 0 0.1 0.08 0 0.105 0.08 0 0.11 0.08 0 0.115 0.08 0 0.12 0.08 0 0.125 0.08 0 0.13 0.08 0 0.135 0.08 0 0.14 0.08 0 0.145 0.08 0 0.15 0.08 0 0.155 0.08 0 0.16 0.08 0 0.165 0.08 0
[...]
			<PointData Scalars="VitesseX">
				<DataArray Name="VitesseX" type="Float32" format="ascii">
 0 1.29165e-14 -5.11419e-14 6.68916e-14 -3.29954e-14 -4.72533e-14 -9.95023e-14 1.66906e-14 -4.52484e-14 3.12355e-14 -3.26334e-14 -1.62481e-13 1.72892e-13 -2.66046e-13 5.02172e-14 -4.67694e-14 -1.04241e-13 1.673e-13 -1.12017e-13 -3.11244e-14 1.04039e-14 8.05132e-14 3.21187e-14 -2.12324e-13 -2.35667e-13 1.17665e-14 2.60043e-13 2.46827e-13 -1.89454e-13 2.46539e-14 -4.6723e-13 -5.20839e-14 -1.9009e-15 2.14604e-13 -1.20666e-14 -1.45684e-13 2.74912e-13 -3.01827e-13 -6.52883e-15 -3.65758e-13 3.02634e-13 -7.19389e-14 9.58519e-14 -3.73345e-13 1.17906e-13 2.28274e-14 8.04814e-13 -6.85746e-13 -2.8539e-15 -5.20891e-13 -7.33079e-14 5.8189e-13 -4.81706e-13 1.99536e-13 -9.42903e-13 3.42506e-13 8.65085e-13 -8.02105e-13 8.05278e-13 -6.15807e-13 -2.1954e-14 1.13377e-13 -1.72481e-13 3.62244e-13 -2.94368e-13 -1.76277e-14 1.19117e-13 -6.53179e-13 6.38427e-13 -2.51989e-15 -2.64284e-13 4.80055e-13 -1.34599e-12 9.94889e-13 -1.81953e-13 1.21461e-13 -2.18182e-13 -4.79136e-13 1.08195e-12 -6.08941e-13 1.40829e-13 2.28205e-13 -6.24903e-13 1.62141e-13 -7.27974e-13 1.02259e-12 3.11027e-12 8.6176e-11 2.51261e-09 6.09179e-08 1.21612e-06 1.95316e-05 0.000244682 0.00229045 0.0150892 0.06531 0.182723 0.35181 0.497343 0.620054 0.73234 0.81106 0.889427 1.07874 1.0627 0.935922 0.803411 0.653972 0.479034 0.301879 0.154004 0.0601671 0.0181988 0.00463202 0.00106254 0.000226625 4.54023e-05 8.57487e-06 1.52969e-06 2.58155e-07 4.12728e-08 6.2594e-09 9.02127e-10 1.23419e-10 1.66318e-11 1.75883e-12 -8.17102e-13 7.44092e-13 6.7003e-14 6.50741e-13 -3.19744e-13 -9.83471e-13 5.52436e-13 5.94588e-14 2.3089e-13 -9.30488e-13 -1.41577e-12 3.10778e-13 6.10876e-13 1.99787e-13 -3.09818e-13 -3.69444e-13 -4.54717e-13 -3.14504e-13 1.31177e-12 2.98768e-13 -2.90292e-13 6.29658e-13 -1.19143e-13 1.12395e-12 -5.85485e-13 -4.66955e-13 3.20656e-13 -3.97986e-13 1.01304e-12 -1.57208e-13 -1.05358e-12 1.6829e-13 4.91999e-13 8.99573e-13 -1.16422e-12 -1.62708e-12 3.43818e-13 8.62518e-13 7.48722e-13 -8.61851e-13 -1.07162e-12 6.99521e-13 -5.85349e-14 -2.19898e-13 8.24813e-13 5.19638e-13 1.40428e-14 -9.44287e-13 1.54593e-13 9.95398e-13 -4.68538e-14 2.29866e-13 -1.01874e-12 -4.99216e-14 7.86662e-13 2.34107e-13 -6.62134e-14 -1.30604e-12 -3.24906e-14 4.31532e-13 -9.90614e-13 -6.85627e-13 -1.20494e-12 1.08493e-13 2.16127e-12 -1.25474e-12 1.5589e-13 -1.93246e-12 2.25438e-12 1.44354e-13 -1.17393e-12 5.91909e-13 4.69019e-13 1.91159e-12 0 0 -2.4883e-14 1.36426e-14 -5.90468e-14 -7.65824e-15 -1.01018e-14 -1.14475e-14 -8.00632e-14 -3.25621e-14 -8.10152e-14 -9.29554e-14 7.54971e-14 -1.6397e-13 9.74875e-14 -1.90448e-13 1.56464e-14 7.13905e-14 -2.48813e-13 9.4337e-14 5.8167e-14 6.88824e-14 -4.96466e-14 -7.89005e-14 -9.86508e-14 -9.4066e-14 -4.11272e-15 1.55062e-13 4.2124e-15 1.25474e-13 -2.00694e-13 -7.21317e-14 -3.78132e-13 -2.85748e-14 1.47638e-13 1.1701e-13 6.23941e-14 -3.06168e-13 5.39654e-14 -3.05885e-13 1.96922e-13 8.29231e-15 4.43904e-14 -1.34201e-13 8.9431e-14 -2.0481e-13 2.63563e-13 -3.96906e-13 3.39875e-13 -3.96945e-13 1.159e-13 -1.6313e-13 -4.38191e-13 2.46142e-13 -6.36504e-13 4.56202e-13 1.22243e-13 -4.13403e-13 6.4695e-13 -6.30472e-13 5.20679e-13 -2.36438e-13 -1.33578e-13 3.65453e-13 -1.02979e-13 1.58149e-13 -1.19554e-13 -4.52282e-13 2.87865e-13 -1.02216e-13 -1.36486e-13 2.07169e-13 -5.37426e-13 3.76145e-13 -5.42555e-13 7.8404e-14 -1.6568e-13 2.77399e-13 2.3159e-13 -5.92966e-13 5.89252e-13 -5.70983e-13 7.68896e-14 4.97159e-13 -6.49127e-13 1.45537e-13 3.50826e-13 2.28136e-12 8.76775e-11 2.51333e-09 6.0916e-08 1.21612e-06 1.95316e-05 0.000244682 0.00229045 0.0150892 0.06531 0.182723 0.35181 0.497343 0.620054 0.73234 0.81106 0.889427 1.07874 1.0627 0.935922 0.803411 0.653972 0.479034 0.301879 0.154004 0.0601671 0.0181988 0.00463202 0.00106254 0.000226625 4.54023e-05 8.57487e-06 1.52969e-06 2.58154e-07 4.12737e-08 6.2594e-09 9.01522e-10 1.23783e-10 1.56892e-11 2.21074e-12 1.21277e-13 1.17553e-14 3.11141e-13 -4.2641e-13 1.98718e-13 -1.64685e-13 1.75599e-13 6.301e-14 -6.94209e-13 -1.33106e-13 -7.77404e-13 -3.49098e-13 5.96968e-13 3.10899e-13 -9.15099e-14 -2.08743e-13 -4.01276e-13 -2.1556e-13 7.34304e-14 5.13384e-13 9.64194e-13 -3.07995e-13 2.753e-13 -3.97949e-13 5.68888e-13 3.5043e-13 -6.35383e-13 3.37198e-13 -3.09027e-13 2.59037e-13 -1.09844e-13 2.5907e-13 -7.43802e-14 -7.69948e-13 5.67707e-13 -6.5e-14 -1.49737e-13 -4.92002e-13 -6.61539e-13 6.46385e-13 -2.66654e-13 2.47754e-14 3.00298e-13 -1.61932e-13 2.13696e-13 2.33493e-13 9.88249e-14 4.8606e-13 -3.04944e-13 -1.92912e-13 4.78408e-14 -9.77318e-14 9.77431e-13 -4.01924e-13 -3.68018e-13 1.43649e-14 -2.66134e-13 7.87862e-13 -9.91206e-13 -5.02098e-13 -7.41745e-13 -8.37964e-13 5.99972e-13 -1.39936e-13 -7.98446e-13 1.01611e-12 -7.87979e-13 2.59448e-13 -1.31802e-12 1.69844e-13 1.63483e-12 4.68417e-14 1.26862e-12 -1.10008e-12 0 0 -2.87992e-14 -1.61419e-14 -1.87359e-14 -8.17866e-14 -1.63263e-14 -2.22288e-15 -5.02691e-14 -1.2497e-13 -4.55792e-14 -3.50366e-14 -1.20103e-13 1.01088e-14 2.55973e-14 9.2654e-15 -7.54589e-14 -6.3664e-14 -2.61659e-14 -8.64558e-15 3.08343e-14 2.3757e-14 -7.4266e-14 -2.76516e-13 1.67762e-14 1.52141e-13 -2.36336e-14 -7.14108e-15 -7.2463e-15 2.71495e-14 -5.43601e-14 -2.8324e-13 -1.50615e-13 -2.05177e-13 6.96011e-14 2.2388e-13 -1.76884e-14 -8.14072e-14 -1.74243e-13 1.01845e-14 -3.08324e-14 -8.79217e-14 -7.33825e-14 -3.78882e-14 1.71084e-13 3.75446e-14 -1.58245e-13 -2.16547e-13 -1.89171e-13 -6.05193e-14 -4.03787e-14 -5.8782e-14 -2.69768e-13 -3.58446e-13 2.2951e-13 4.40987e-13 -5.25622e-14 -5.48076e-13 -3.51083e-13 5.38053e-13 2.25493e-13 5.03971e-14 -2.5745e-13 3.36327e-13 2.86728e-13 -1.08895e-13 -1.34815e-13 -3.63806e-13 1.29962e-13 1.09983e-13 -5.1809e-13 -3.99673e-13 3.68394e-13 3.12378e-13 -3.25734e-13 -7.61377e-13 1.59411e-13 4.94666e-13 -2.03326e-13 -5.90727e-13 -3.20571e-13 6.76833e-13 -6.12975e-13 3.30972e-13 7.09e-13 -9.39836e-14 -7.8985e-13 2.39368e-12 8.79175e-11 2.51341e-09 6.09169e-08 1.21612e-06 1.95316e-05 0.000244682 0.00229045 0.0150892 0.06531 0.182723 0.35181 0.497343 0.620054 0.73234 0.81106 0.889427 1.07874 1.0627 0.935922 0.803411 0.653972 0.479034 0.301879 0.154004 0.0601671 0.0181988 0.00463202 0.00106254 0.000226625 4.54023e-05 8.57487e-06 1.52969e-06 2.58154e-07 4.12731e-08 6.26027e-09 9.01561e-10 1.22889e-10 1.5967e-11 1.6561e-12 1.17332e-12 7.09306e-15 -6.15759e-13 -1.05178e-14 -7.53051e-13 1.14548e-12 8.52332e-14 -4.45663e-13 -2.15568e-13 -8.57204e-13 7.46235e-13 -4.40501e-13 -9.95817e-13 3.7938e-13 -7.9314e-14 4.22993e-13 8.1936e-13 -9.88271e-13 -7.81681e-13 9.40998e-13 2.4246e-13 8.02557e-13 -5.52817e-13 -3.71818e-13 5.785e-13 -2.00886e-13 6.13812e-13 -2.27179e-13 -2.14581e-13 -1.00891e-12 1.2814e-12 5.64882e-13 -1.78443e-13 -9.25453e-13 -2.35117e-13 8.10499e-13 -4.96816e-13 -7.31918e-13 -4.06806e-13 2.16656e-13 8.4894e-13 -7.32681e-13 -4.95944e-13 4.849e-13 7.48525e-14 6.29183e-13 6.02538e-13 -4.23656e-13 -1.2216e-13 -7.52613e-13 9.08635e-13 7.41619e-13 -5.59835e-13 1.20264e-13 -1.03935e-12 2.73318e-13 7.36998e-13 -6.43372e-13 -2.70748e-13 -1.01128e-12 -2.37979e-13 2.94124e-13 -1.08091e-12 7.07446e-13 -1.52046e-12 -1.7693e-14 1.65273e-12 -8.32676e-13 -1.63911e-12 4.78168e-13 1.50012e-12 1.3379e-12 -1.42871e-12 -2.15874e-14 0 0 3.51942e-14 -2.12989e-14 -4.40599e-15 -2.18518e-14 -7.1876e-14 -1.32474e-13 -8.2338e-14 -6.79985e-14 -6.32365e-14 2.73525e-14 -6.23573e-14 1.09746e-13 -1.02502e-13 -4.00429e-14 -4.73406e-14 -1.47394e-13 1.87616e-15 1.73074e-14 -1.05811e-13 -2.02696e-13 9.77407e-15 1.12387e-13 1.29859e-15 -1.50962e-13 9.0371e-14 1.62106e-13 -1.08625e-13 -2.25675e-13 6.05094e-14 -1.77863e-13 -2.05253e-13 1.0524e-14 5.87613e-14 -4.37268e-14 8.56184e-14 2.7706e-13 -1.00617e-13 -7.26007e-14 -3.75912e-13 -1.55796e-13 -1.19135e-13 6.26968e-14 -1.71802e-13 3.07911e-13 2.18522e-13 1.40135e-13 -6.55442e-13 -4.01879e-13 -4.73553e-13 1.60022e-13 5.08129e-13 -9.13358e-14 -3.11755e-13 -2.0133e-13 2.59114e-13 -1.79469e-14 -6.99962e-14 1.49948e-13 -3.54587e-13 -8.80467e-14 2.52064e-14 2.17078e-13 3.53459e-13 -1.75778e-13 -1.44291e-13 -3.11584e-13 -1.42998e-13 1.86386e-13 5.25986e-13 -1.84447e-13 -2.10967e-14 -4.64554e-13 4.62914e-15 -8.09098e-15 -1.58429e-14 -5.59292e-13 -1.68891e-13 -1.08506e-13 -4.43563e-13 -1.59439e-14 3.54719e-13 -5.08661e-14 -3.69034e-13 1.18949e-13 4.34828e-13 2.18311e-12 8.64803e-11 2.5127e-09 6.09187e-08 1.21612e-06 1.95316e-05 0.000244682 0.00229045 0.0150892 0.06531 0.182723 0.35181 0.497343 0.620054 0.73234 0.81106 0.889427 1.07874 1.0627 0.935922 0.803411 0.653972 0.479034 0.301879 0.154004 0.0601671 0.0181988 0.00463202 0.00106254 0.000226625 4.54023e-05 8.57487e-06 1.52969e-06 2.58154e-07 4.12728e-08 6.25976e-09 9.01747e-10 1.23482e-10 1.59588e-11 1.53566e-12 4.55768e-13 2.27465e-13 2.25223e-13 -1.49574e-13 -3.34786e-13 -2.86369e-14 6.13141e-14 4.22869e-14 7.92387e-14 -8.03791e-13 -2.70697e-13 -5.24295e-13 -4.21669e-13 -8.7714e-13 5.73479e-13 1.03646e-12 -2.3584e-13 -1.25268e-14 -2.28311e-13 1.68857e-13 3.28618e-13 3.92941e-13 -2.03876e-13 -2.7331e-13 -4.84815e-13 7.7044e-13 1.06993e-12 -2.48137e-13 -4.13888e-13 -7.51418e-13 -4.17833e-13 -1.68379e-13 1.19546e-12 9.30073e-13 -1.24971e-12 -9.17316e-13 -9.23488e-13 6.99366e-13 -1.7712e-13 -1.11631e-12 2.26394e-13 1.21957e-12 1.13808e-13 -1.26967e-12 5.4295e-13 1.17904e-12 1.39717e-13 -7.48216e-13 -7.45248e-13 6.97122e-13 9.76035e-13 3.17789e-13 -1.03608e-12 -5.94942e-13 6.86025e-13 7.4015e-13 -6.01263e-13 -1.38928e-12 -1.80222e-13 -2.31313e-13 5.06044e-13 -1.2476e-12 -1.51441e-12 1.08635e-14 3.09658e-12 8.38263e-14 -2.05963e-12 -1.82197e-12 7.9289e-13 6.15424e-13 -2.11049e-13 9.43534e-14 3.32345e-13 1.00023e-12 0 0 1.79583e-14 2.06525e-14 -5.06521e-14 2.09552e-14 -7.80367e-14 -1.15641e-13 -1.54022e-13 -4.52413e-14 -7.97641e-14 -2.61086e-14 1.42896e-13 -1.5534e-13 -1.91232e-16 -1.5641e-13 4.36325e-14 2.68611e-14 -2.73386e-13 4.12439e-14 -1.13585e-14 -1.42434e-13 -5.31666e-14 1.19236e-13 -1.36613e-13 -2.54482e-13 4.89294e-14 1.05457e-14 -1.96953e-13 -3.67248e-14 -1.27743e-13 1.55537e-13 -1.9728e-13 1.28968e-13 1.83206e-13 9.88556e-14 2.56547e-13 4.55857e-15 6.61306e-14 -3.05873e-13 -1.32622e-13 -3.70123e-13 -1.21354e-13 -2.27919e-13 -1.18913e-14 -2.95059e-14 2.96263e-13 -2.8154e-13 -6.18574e-14 -4.90301e-13 -8.83083e-14 -5.61772e-14 -1.05479e-13 1.42242e-13 -6.85921e-13 2.32262e-13 3.2822e-13 -3.79482e-13 7.18756e-13 -7.204e-13 2.07946e-13 -2.79448e-13 7.10325e-14 4.46147e-13 -5.90352e-14 1.68097e-13 -2.24218e-13 -5.45439e-13 1.75787e-13 -7.62229e-14 6.16802e-13 4.65618e-13 -2.936e-13 3.60868e-13 -5.3469e-13 2.22196e-13 -4.72571e-13 -6.84607e-13 5.79357e-14 -9.54276e-13 1.25886e-13 -7.96485e-13 6.93767e-13 -1.29624e-13 -1.43677e-12 4.34895e-13 8.99444e-13 2.02895e-12 8.70671e-11 2.51307e-09 6.09166e-08 1.21612e-06 1.95316e-05 0.000244682 0.00229045 0.0150892 0.06531 0.182723 0.35181 0.497343 0.620054 0.73234 0.81106 0.889427 1.07874 1.0627 0.935922 0.803411 0.653972 0.479034 0.301879 0.154004 0.0601671 0.0181988 0.00463202 0.00106254 0.000226625 4.54023e-05 8.57487e-06 1.52969e-06 2.58154e-07 4.12734e-08 6.25891e-09 9.01542e-10 1.24033e-10 1.6065e-11 2.28244e-12 -1.239e-13 -6.16411e-13 6.03993e-13 -2.77226e-13 7.06677e-13 -7.25123e-13 1.27451e-13 -4.45527e-13 -3.98636e-13 3.58361e-13 -1.11434e-12 -1.06779e-12 3.67812e-13 -5.37555e-13 4.98329e-13 7.58719e-13 -1.43825e-12 -2.52631e-15 7.33935e-13 5.16966e-13 1.57909e-12 -5.97752e-13 7.43002e-13 -3.12609e-13 2.4292e-13 3.59824e-13 -6.47433e-13 7.48987e-14 -4.5441e-13 7.97558e-14 -1.75379e-12 -1.1741e-12 3.35895e-13 1.64508e-12 9.17991e-13 -1.17045e-12 -1.43019e-12 -1.53947e-12 -1.45375e-12 3.5577e-13 7.46155e-13 1.5638e-12 3.04088e-13 -1.29343e-12 -4.68556e-13 -2.4425e-14 5.29843e-13 1.21444e-12 -7.37036e-14 2.89054e-13 -1.21348e-12 -5.73049e-13 1.88429e-12 -3.55893e-13 2.72963e-13 -6.05538e-13 -7.85002e-13 9.08178e-13 -2.3844e-13 -4.81664e-13 -1.36684e-12 -2.52973e-12 5.7155e-13 1.20021e-12 2.15839e-12 7.25079e-13 -3.58645e-12 -7.45265e-13 -2.6667e-14 5.76124e-13 1.39446e-12 -1.00352e-13 2.05925e-12 -9.51815e-13 0 0 -2.93877e-14 -2.68082e-14 5.50211e-14 -9.56381e-14 -7.20236e-14 -4.7386e-14 -6.70893e-14 -1.84549e-13 6.90523e-14 -2.37179e-14 -1.43173e-13 -9.12264e-15 -2.05205e-13 2.1691e-13 -4.70336e-14 -2.58401e-14 6.20702e-14 -2.70109e-13 1.03115e-13 4.06771e-14 -9.46069e-14 -3.49414e-13 -2.57293e-13 4.97068e-14 -1.10158e-13 -3.67483e-13 4.72539e-14 -8.20326e-15 -5.91846e-14 -2.22646e-13 4.18896e-13 -1.18217e-13 3.07419e-13 4.86837e-13 3.60094e-14 1.79431e-13 -4.24749e-13 1.59066e-13 -3.34689e-13 -3.18449e-13 -3.11921e-13 -2.92752e-13 1.09782e-13 -7.22187e-14 -6.65306e-13 3.22181e-13 -5.56669e-13 4.93154e-13 -6.2959e-14 -2.97011e-13 -3.0848e-13 -1.22373e-12 1.18323e-12 -1.06148e-13 1.31109e-13 -1.27331e-13 -1.22067e-12 1.40163e-12 -8.11133e-14 1.68914e-13 -4.27157e-14 2.27406e-13 3.16669e-13 -1.40706e-13 -2.08005e-13 -1.71641e-13 -3.31415e-13 5.37609e-13 -5.84095e-13 -1.7784e-13 1.74669e-12 1.77323e-13 3.49893e-13 -1.40094e-12 -1.41815e-13 -3.42798e-14 -8.95314e-13 -6.05114e-13 -1.28969e-12 1.07538e-12 -4.73426e-13 -1.11479e-12 7.42922e-13 -5.75122e-13 -3.29532e-13 3.02658e-12 8.78296e-11 2.5135e-09 6.09154e-08 1.21612e-06 1.95316e-05 0.000244682 0.00229045 0.0150892 0.06531 0.182723 0.35181 0.497343 0.620054 0.73234 0.81106 0.889427 1.07874 1.0627 0.935922 0.803411 0.653972 0.479034 0.301879 0.154004 0.0601671 0.0181988 0.00463202 0.00106254 0.000226625 4.54023e-05 8.57487e-06 1.52969e-06 2.58156e-07 4.12729e-08 6.25946e-09 9.01794e-10 1.22734e-10 1.73995e-11 2.14311e-12 1.27648e-13 -9.52986e-13 -1.02926e-12 1.22722e-12 -1.40354e-13 2.4389e-13 5.0398e-13 -1.93352e-12 2.32423e-13 -5.43795e-14 -5.5773e-14 -9.59018e-13 -9.95731e-13 1.01592e-12 -4.35725e-13 3.38541e-13 -4.1826e-13 -1.83992e-12 1.52604e-12 1.85021e-12 7.67184e-13 8.69376e-13 1.18381e-13 1.09762e-12 8.8921e-13 -2.39082e-12 -6.15675e-13 -8.8067e-13 1.12089e-12 -1.03075e-12 -9.43008e-13 -1.23153e-12 -1.43526e-12 2.01858e-12 1.56553e-12 -3.82342e-13 -1.36374e-12 -4.09499e-12 -1.29508e-12 1.22284e-12 2.19909e-12 -1.26941e-13 -1.27046e-12 1.02625e-12 -1.47589e-12 -1.09591e-12 1.80172e-12 1.16159e-12 1.86325e-12 -9.40142e-13 -2.7043e-12 1.26892e-13 1.74747e-12 1.47255e-12 -1.38212e-12 -1.93936e-12 1.57257e-12 4.2641e-13 1.29199e-12 -1.08753e-12 -3.72886e-12 -9.85714e-13 -3.94788e-13 4.18195e-12 -1.15914e-12 -2.03984e-12 1.98367e-12 -1.9633e-12 -2.69313e-14 6.82401e-13 1.76768e-12 2.78463e-12 -1.47181e-12 1.64492e-13 0
				</DataArray>
				<DataArray Name="VitesseY" type="Float32" format="ascii">