<?xml version="1.0"?>
<VTKFile type="PolyData">
	<PolyData>
		<Piece NumberOfPoints="1206" NumberOfPolys="1000">
			<Points>
				<DataArray type="Float32" NumberOfComponents="3" format="ascii">
 0 0 0 0.005 0 0 0.01 0 0 0.015 0 0 0.02 0 0 0.025 0 0 0.03 0 0 0.035 0 0 0.04 0 0 0.045 0 0 0.05 0 0 0.055 0 0 0.06 0 0 0.065 0 0 0.07 0 0 0.075 0 0 0.08 0 0 0.085 0 0 0.09 0 0 0.095 0 0 0.1 0 0 0.105 0 0 0.11 0 0 0.115 0 0 0.12 0 0 0.125 0 0 0.13 0 0 0.135 0 0 0.14 0 0 0.145 0 0 0.15 0 0 0.155 0 0 0.16 0 0 0.165 0 0 0.17 0 0 0.175 0 0 0.18 0 0 0.185 0 0 0.19 0 0 0.195 0 0 0.2 0 0 0.205 0 0 0.21 0 0 0.215 0 0 0.22 0 0 0.225 0 0 0.23 0 0 0.235 0 0 0.24 0 0 0.245 0 0 0.25 0 0 0.255 0 0 0.26 0 0 0.265 0 0 0.27 0 0 0.275 0 0 0.28 0 0 0.285 0 0 0.29 0 0 0.295 0 0 0.3 0 0 0.305 0 0 0.31 0 0 0.315 0 0 0.32 0 0 0.325 0 0 0.33 0 0 0.335 0 0 0.34 0 0 0.345 0 0 0.35 0 0 0.355 0 0 0.36 0 0 0.365 0 0 0.37 0 0 0.375 0 0 0.38 0 0 0.385 0 0 0.39 0 0 0.395 0 0 0.4 0 0 0.405 0 0 0.41 0 0 0.415 0 0 0.42 0 0 0.425 0 0 0.43 0 0 0.435 0 0 0.44 0 0 0.445 0 0 0.45 0 0 0.455 0 0 0.46 0 0 0.465 0 0 0.47 0 0 0.475 0 0 0.48 0 0 0.485 0 0 0.49 0 0 0.495 0 0 0.5 0 0 0.505 0 0 0.51 0 0 0.515 0 0 0.52 0 0 0.525 0 0 0.53 0 0 0.535 0 0 0.54 0 0 0.545 0 0 0.55 0 0 0.555 0 0 0.56 0 0 0.565 0 0 0.57 0 0 0.575 0 0 0.58 0 0 0.585 0 0 0.59 0 0 0.595 0 0 0.6 0 0 0.605 0 0 0.61 0 0 0.615 0 0 0.62 0 0 0.625 0 0 0.63 0 0 0.635 0 0 0.64 0 0 0.645 0 0 0.65 0 0 0.655 0 0 0.66 0 0 0.665 0 0 0.67 0 0 0.675 0 0 0.68 0 0 0.685 0 0 0.69 0 0 0.695 0 0 0.7 0 0 0.705 0 0 0.71 0 0 0.715 0 0 0.72 0 0 0.725 0 0 0.73 0 0 0.735 0 0 0.74 0 0 0.745 0 0 0.75 0 0 0.755 0 0 0.76 0 0 0.765 0 0 0.77 0 0 0.775 0 0 0.78 0 0 0.785 0 0 0.79 0 0 0.795 0 0 0.8 0 0 0.805 0 0 0.81 0 0 0.815 0 0 0.82 0 0 0.825 0 0 0.83 0 0 0.835 0 0 0.84 0 0 0.845 0 0 0.85 0 0 0.855 0 0 0.86 0 0 0.865 0 0 0.87 0 0 0.875 0 0 0.88 0 0 0.885 0 0 0.89 0 0 0.895 0 0 0.9 0 0 0.905 0 0 0.91 0 0 0.915 0 0 0.92 0 0 0.925 0 0 0.93 0 0 0.935 0 0 0.94 0 0 0.945 0 0 0.95 0 0 0.955 0 0 0.96 0 0 0.965 0 0 0.97 0 0 0.975 0 0 0.98 0 0 0.985 0 0 0.99 0 0 0.995 0 0 1 0 0 0 0.02 0 0.005 0.02 0 0.01 0.02 0 0.015 0.02 0 0.02 0.02 0 0.025 0.02 0 0.03 0.02 0 0.035 0.02 0 0.04 0.02 0 0.045 0.02 0 0.05 0.02 0 0.055 0.02 0 0.06 0.02 0 0.065 0.02 0 0.07 0.02 0 0.075 0.02 0 0.08 0.02 0 0.085 0.02 0 0.09 0.02 0 0.095 0.02 0 0.1 0.02 0 0.105 0.02 0 0.11 0.02 0 0.115 0.02 0 0.12 0.02 0 0.125 0.02 0 0.13 0.02 0 0.135 0.02 0 0.14 0.02 0 0.145 0.02 0 0.15 0.02 0 0.155 0.02 0 0.16 0.02 0 0.165 0.02 0 0.17 0.02 0 0.175 0.02 0 0.18 0.02 0 0.185 0.02 0 0.19 0.02 0 0.195 0.02 0 0.2 0.02 0 0.205 0.02 0 0.21 0.02 0 0.215 0.02 0 0.22 0.02 0 0.225 0.02 0 0.23 0.02 0 0.235 0.02 0 0.24 0.02 0 0.245 0.02 0 0.25 0.02 0 0.255 0.02 0 0.26 0.02 0 0.265 0.02 0 0.27 0.02 0 0.275 0.02 0 0.28 0.02 0 0.285 0.02 0 0.29 0.02 0 0.295 0.02 0 0.3 0.02 0 0.305 0.02 0 0.31 0.02 0 0.315 0.02 0 0.32 0.02 0 0.325 0.02 0 0.33 0.02 0 0.335 0.02 0 0.34 0.02 0 0.345 0.02 0 0.35 0.02 0 0.355 0.02 0 0.36 0.02 0 0.365 0.02 0 0.37 0.02 0 0.375 0.02 0 0.38 0.02 0 0.385 0.02 0 0.39 0.02 0 0.395 0.02 0 0.4 0.02 0 0.405 0.02 0 0.41 0.02 0 0.415 0.02 0 0.42 0.02 0 0.425 0.02 0 0.43 0.02 0 0.435 0.02 0 0.44 0.02 0 0.445 0.02 0 0.45 0.02 0 0.455 0.02 0 0.46 0.02 0 0.465 0.02 0 0.47 0.02 0 0.475 0.02 0 0.48 0.02 0 0.485 0.02 0 0.49 0.02 0 0.495 0.02 0 0.5 0.02 0 0.505 0.02 0 0.51 0.02 0 0.515 0.02 0 0.52 0.02 0 0.525 0.02 0 0.53 0.02 0 0.535 0.02 0 0.54 0.02 0 0.545 0.02 0 0.55 0.02 0 0.555 0.02 0 0.56 0.02 0 0.565 0.02 0 0.57 0.02 0 0.575 0.02 0 0.58 0.02 0 0.585 0.02 0 0.59 0.02 0 0.595 0.02 0 0.6 0.02 0 0.605 0.02 0 0.61 0.02 0 0.615 0.02 0 0.62 0.02 0 0.625 0.02 0 0.63 0.02 0 0.635 0.02 0 0.64 0.02 0 0.645 0.02 0 0.65 0.02 0 0.655 0.02 0 0.66 0.02 0 0.665 0.02 0 0.67 0.02 0 0.675 0.02 0 0.68 0.02 0 0.685 0.02 0 0.69 0.02 0 0.695 0.02 0 0.7 0.02 0 0.705 0.02 0 0.71 0.02 0 0.715 0.02 0 0.72 0.02 0 0.725 0.02 0 0.73 0.02 0 0.735 0.02 0 0.74 0.02 0 0.745 0.02 0 0.75 0.02 0 0.755 0.02 0 0.76 0.02 0 0.765 0.02 0 0.77 0.02 0 0.775 0.02 0 0.78 0.02 0 0.785 0.02 0 0.79 0.02 0 0.795 0.02 0 0.8 0.02 0 0.805 0.02 0 0.81 0.02 0 0.815 0.02 0 0.82 0.02 0 0.825 0.02 0 0.83 0.02 0 0.835 0.02 0 0.84 0.02 0 0.845 0.02 0 0.85 0.02 0 0.855 0.02 0 0.86 0.02 0 0.865 0.02 0 0.87 0.02 0 0.875 0.02 0 0.88 0.02 0 0.885 0.02 0 0.89 0.02 0 0.895 0.02 0 0.9 0.02 0 0.905 0.02 0 0.91 0.02 0 0.915 0.02 0 0.92 0.02 0 0.925 0.02 0 0.93 0.02 0 0.935 0.02 0 0.94 0.02 0 0.945 0.02 0 0.95 0.02 0 0.955 0.02 0 0.96 0.02 0 0.965 0.02 0 0.97 0.02 0 0.975 0.02 0 0.98 0.02 0 0.985 0.02 0 0.99 0.02 0 0.995 0.02 0 1 0.02 0 0 0.04 0 0.005 0.04 0 0.01 0.04 0 0.015 0.04 0 0.02 0.04 0 0.025 0.04 0 0.03 0.04 0 0.035 0.04 0 0.04 0.04 0 0.045 0.04 0 0.05 0.04 0 0.055 0.04 0 0.06 0.04 0 0.065 0.04 0 0.07 0.04 0 0.075 0.04 0 0.08 0.04 0 0.085 0.04 0 0.09 0.04 0 0.095 0.04 0 0.1 0.04 0 0.105 0.04 0 0.11 0.04 0 0.115 0.04 0 0.12 0.04 0 0.125 0.04 0 0.13 0.04 0 0.135 0.04 0 0.14 0.04 0 0.145 0.04 0 0.15 0.04 0 0.155 0.04 0 0.16 0.04 0 0.165 0.04 0 0.17 0.04 0 0.175 0.04 0 0.18 0.04 0 0.185 0.04 0 0.19 0.04 0 0.195 0.04 0 0.2 0.04 0 0.205 0.04 0 0.21 0.04 0 0.215 0.04 0 0.22 0.04 0 0.225 0.04 0 0.23 0.04 0 0.235 0.04 0 0.24 0.04 0 0.245 0.04 0 0.25 0.04 0 0.255 0.04 0 0.26 0.04 0 0.265 0.04 0 0.27 0.04 0 0.275 0.04 0 0.28 0.04 0 0.285 0.04 0 0.29 0.04 0 0.295 0.04 0 0.3 0.04 0 0.305 0.04 0 0.31 0.04 0 0.315 0.04 0 0.32 0.04 0 0.325 0.04 0 0.33 0.04 0 0.335 0.04 0 0.34 0.04 0 0.345 0.04 0 0.35 0.04 0 0.355 0.04 0 0.36 0.04 0 0.365 0.04 0 0.37 0.04 0 0.375 0.04 0 0.38 0.04 0 0.385 0.04 0 0.39 0.04 0 0.395 0.04 0 0.4 0.04 0 0.405 0.04 0 0.41 0.04 0 0.415 0.04 0 0.42 0.04 0 0.425 0.04 0 0.43 0.04 0 0.435 0.04 0 0.44 0.04 0 0.445 0.04 0 0.45 0.04 0 0.455 0.04 0 0.46 0.04 0 0.465 0.04 0 0.47 0.04 0 0.475 0.04 0 0.48 0.04 0 0.485 0.04 0 0.49 0.04 0 0.495 0.04 0 0.5 0.04 0 0.505 0.04 0 0.51 0.04 0 0.515 0.04 0 0.52 0.04 0 0.525 0.04 0 0.53 0.04 0 0.535 0.04 0 0.54 0.04 0 0.545 0.04 0 0.55 0.04 0 0.555 0.04 0 0.56 0.04 0 0.565 0.04 0 0.57 0.04 0 0.575 0.04 0 0.58 0.04 0 0.585 0.04 0 0.59 0.04 0 0.595 0.04 0 0.6 0.04 0 0.605 0.04 0 0.61 0.04 0 0.615 0.04 0 0.62 0.04 0 0.625 0.04 0 0.63 0.04 0 0.635 0.04 0 0.64 0.04 0 0.645 0.04 0 0.65 0.04 0 0.655 0.04 0 0.66 0.04 0 0.665 0.04 0 0.67 0.04 0 0.675 0.04 0 0.68 0.04 0 0.685 0.04 0 0.69 0.04 0 0.695 0.04 0 0.7 0.04 0 0.705 0.04 0 0.71 0.04 0 0.715 0.04 0 0.72 0.04 0 0.725 0.04 0 0.73 0.04 0 0.735 0.04 0 0.74 0.04 0 0.745 0.04 0 0.75 0.04 0 0.755 0.04 0 0.76 0.04 0 0.765 0.04 0 0.77 0.04 0 0.775 0.04 0 0.78 0.04 0 0.785 0.04 0 0.79 0.04 0 0.795 0.04 0 0.8 0.04 0 0.805 0.04 0 0.81 0.04 0 0.815 0.04 0 0.82 0.04 0 0.825 0.04 0 0.83 0.04 0 0.835 0.04 0 0.84 0.04 0 0.845 0.04 0 0.85 0.04 0 0.855 0.04 0 0.86 0.04 0 0.865 0.04 0 0.87 0.04 0 0.875 0.04 0 0.88 0.04 0 0.885 0.04 0 0.89 0.04 0 0.895 0.04 0 0.9 0.04 0 0.905 0.04 0 0.91 0.04 0 0.915 0.04 0 0.92 0.04 0 0.925 0.04 0 0.93 0.04 0 0.935 0.04 0 0.94 0.04 0 0.945 0.04 0 0.95 0.04 0 0.955 0.04 0 0.96 0.04 0 0.965 0.04 0 0.97 0.04 0 0.975 0.04 0 0.98 0.04 0 0.985 0.04 0 0.99 0.04 0 0.995 0.04 0 1 0.04 0 0 0.06 0 0.005 0.06 0 0.01 0.06 0 0.015 0.06 0 0.02 0.06 0 0.025 0.06 0 0.03 0.06 0 0.035 0.06 0 0.04 0.06 0 0.045 0.06 0 0.05 0.06 0 0.055 0.06 0 0.06 0.06 0 0.065 0.06 0 0.07 0.06 0 0.075 0.06 0 0.08 0.06 0 0.085 0.06 0 0.09 0.06 0 0.095 0.06 0 0.1 0.06 0 0.105 0.06 0 0.11 0.06 0 0.115 0.06 0 0.12 0.06 0 0.125 0.06 0 0.13 0.06 0 0.135 0.06 0 0.14 0.06 0 0.145 0.06 0 0.15 0.06 0 0.155 0.06 0 0.16 0.06 0 0.165 0.06 0 0.17 0.06 0 0.175 0.06 0 0.18 0.06 0 0.185 0.06 0 0.19 0.06 0 0.195 0.06 0 0.2 0.06 0 0.205 0.06 0 0.21 0.06 0 0.215 0.06 0 0.22 0.06 0 0.225 0.06 0 0.23 0.06 0 0.235 0.06 0 0.24 0.06 0 0.245 0.06 0 0.25 0.06 0 0.255 0.06 0 0.26 0.06 0 0.265 0.06 0 0.27 0.06 0 0.275 0.06 0 0.28 0.06 0 0.285 0.06 0 0.29 0.06 0 0.295 0.06 0 0.3 0.06 0 0.305 0.06 0 0.31 0.06 0 0.315 0.06 0 0.32 0.06 0 0.325 0.06 0 0.33 0.06 0 0.335 0.06 0 0.34 0.06 0 0.345 0.06 0 0.35 0.06 0 0.355 0.06 0 0.36 0.06 0 0.365 0.06 0 0.37 0.06 0 0.375 0.06 0 0.38 0.06 0 0.385 0.06 0 0.39 0.06 0 0.395 0.06 0 0.4 0.06 0 0.405 0.06 0 0.41 0.06 0 0.415 0.06 0 0.42 0.06 0 0.425 0.06 0 0.43 0.06 0 0.435 0.06 0 0.44 0.06 0 0.445 0.06 0 0.45 0.06 0 0.455 0.06 0 0.46 0.06 0 0.465 0.06 0 0.47 0.06 0 0.475 0.06 0 0.48 0.06 0 0.485 0.06 0 0.49 0.06 0 0.495 0.06 0 0.5 0.06 0 0.505 0.06 0 0.51 0.06 0 0.515 0.06 0 0.52 0.06 0 0.525 0.06 0 0.53 0.06 0 0.535 0.06 0 0.54 0.06 0 0.545 0.06 0 0.55 0.06 0 0.555 0.06 0 0.56 0.06 0 0.565 0.06 0 0.57 0.06 0 0.575 0.06 0 0.58 0.06 0 0.585 0.06 0 0.59 0.06 0 0.595 0.06 0 0.6 0.06 0 0.605 0.06 0 0.61 0.06 0 0.615 0.06 0 0.62 0.06 0 0.625 0.06 0 0.63 0.06 0 0.635 0.06 0 0.64 0.06 0 0.645 0.06 0 0.65 0.06 0 0.655 0.06 0 0.66 0.06 0 0.665 0.06 0 0.67 0.06 0 0.675 0.06 0 0.68 0.06 0 0.685 0.06 0 0.69 0.06 0 0.695 0.06 0 0.7 0.06 0 0.705 0.06 0 0.71 0.06 0 0.715 0.06 0 0.72 0.06 0 0.725 0.06 0 0.73 0.06 0 0.735 0.06 0 0.74 0.06 0 0.745 0.06 0 0.75 0.06 0 0.755 0.06 0 0.76 0.06 0 0.765 0.06 0 0.77 0.06 0 0.775 0.06 0 0.78 0.06 0 0.785 0.06 0 0.79 0.06 0 0.795 0.06 0 0.8 0.06 0 0.805 0.06 0 0.81 0.06 0 0.815 0.06 0 0.82 0.06 0 0.825 0.06 0 0.83 0.06 0 0.835 0.06 0 0.84 0.06 0 0.845 0.06 0 0.85 0.06 0 0.855 0.06 0 0.86 0.06 0 0.865 0.06 0 0.87 0.06 0 0.875 0.06 0 0.88 0.06 0 0.885 0.06 0 0.89 0.06 0 0.895 0.06 0 0.9 0.06 0 0.905 0.06 0 0.91 0.06 0 0.915 0.06 0 0.92 0.06 0 0.925 0.06 0 0.93 0.06 0 0.935 0.06 0 0.94 0.06 0 0.945 0.06 0 0.95 0.06 0 0.955 0.06 0 0.96 0.06 0 0.965 0.06 0 0.97 0.06 0 0.975 0.06 0 0.98 0.06 0 0.985 0.06 0 0.99 0.06 0 0.995 0.06 0 1 0.06 0 0 0.08 0 0.005 0.08 0 0.01 0.08 0 0.015 0.08 0 0.02 0.08 0 0.025 0.08 0 0.03 0.08 0 0.035 0.08 0 0.04 0.08 0 0.045 0.08 0 0.05 0.08 0 0.055 0.08 0 0.06 0.08 0 0.065 0.08 0 0.07 0.08 0 0.075 0.08 0 0.08 0.08 0 0.085 0.08 0 0.09 0.08 0 0.095 0.08 0 0.1 0.08 0 0.105 0.08 0 0.11 0.08 0 0.115 0.08 0 0.12 0.08 0 0.125 0.08 0 0.13 0.08 0 0.135 0.08 0 0.14 0.08 0 0.145 0.08 0 0.15 0.08 0 0.155 0.08 0 0.16 0.08 0 0.165 0.08 0
[...]
			<PointData Scalars="VitesseX">
				<DataArray Name="VitesseX" type="Float32" format="ascii">
 0 -6.28933e-15 6.12868e-15 6.32084e-15 7.78754e-16 1.44135e-14 -2.05783e-14 -8.91905e-16 1.60444e-14 -5.37346e-14 -4.75596e-15 -3.40288e-14 -4.4185e-14 -3.75676e-14 -5.06748e-14 -7.84441e-14 -1.1954e-13 -8.89403e-14 7.27754e-15 -1.04415e-13 -2.0141e-14 -8.27642e-14 7.79446e-14 -1.00015e-14 -3.66715e-14 5.33982e-14 1.62956e-13 -1.87982e-13 8.69552e-14 -5.32771e-14 -6.09595e-14 -1.58731e-13 6.23993e-14 -9.64482e-14 -8.7066e-14 -1.83509e-13 -4.77477e-14 7.01927e-14 7.26368e-14 -1.00787e-13 -4.69277e-14 -8.09773e-14 7.20453e-14 2.37808e-13 1.91525e-12 1.19355e-11 7.31235e-11 4.31327e-10 2.40547e-09 1.26804e-08 6.30288e-08 2.94587e-07 1.29059e-06 5.28081e-06 2.00977e-05 7.07962e-05 0.000229505 0.000680094 0.00182833 0.00442506 0.00958511 0.0185252 0.0320019 0.0498328 0.0709765 0.0941318 0.118294 0.142897 0.167676 0.192504 0.217319 0.242102 0.266836 0.291508 0.316107 0.340627 0.365058 0.389396 0.413634 0.437766 0.461787 0.48569 0.50947 0.533117 0.556625 0.579983 0.603178 0.626195 0.649015 0.671616 0.693968 0.716034 0.737769 0.759116 0.780005 0.800348 0.820039 0.838946 0.856911 0.873742 0.889215 0.903076 0.915048 0.924872 0.932357 0.937464 0.940406 0.940269 0.939795 0.939035 0.938121 0.937117 0.936082 0.93506 0.934083 0.933181 0.932373 0.931667 0.931065 0.93056 0.930142 0.929799 0.929518 0.929286 0.929093 0.928928 0.928773 0.928631 0.928652 0.926323 0.944851 0.947972 0.93863 0.930683 0.928463 0.927956 0.927815 0.927763 0.927737 0.927722 0.927712 0.927707 0.927702 0.927692 0.927659 0.927572 0.927364 0.926902 0.925935 0.923977 0.920191 0.913117 0.900376 0.878413 0.842532 0.787543 0.709237 0.606602 0.484251 0.353757 0.230813 0.131459 0.0648383 0.0282587 0.0113815 0.00440056 0.00166934 0.000627646 0.000234831 8.75528e-05 3.2539e-05 1.20539e-05 4.44973e-06 1.63642e-06 5.9933e-07 2.18523e-07 7.92931e-08 2.86243e-08 1.02765e-08 3.66731e-09 1.30119e-09 4.58236e-10 1.60095e-10 5.54121e-11 1.93826e-11 6.21571e-12 2.13278e-12 1.63262e-13 2.70917e-13 -1.88993e-13 3.18011e-13 -3.16998e-13 2.76328e-13 3.26432e-13 -7.20655e-13 2.22294e-13 1.549e-14 -3.47109e-13 2.44164e-13 -8.31297e-14 0 0 -5.81083e-16 -6.63112e-15 3.12695e-15 -1.60513e-15 -1.00245e-14 2.47271e-14 -1.65213e-14 -4.04494e-14 2.4979e-14 -4.66936e-14 -3.63526e-14 -3.97264e-14 -3.80434e-14 -8.96989e-14 -7.63928e-14 -5.24307e-14 -6.71623e-14 -1.23259e-13 -2.01155e-14 -4.83218e-14 1.47259e-15 -1.37957e-14 5.4541e-15 1.05591e-13 4.90711e-14 -1.45037e-13 9.81183e-14 -6.28918e-14 -4.61665e-14 -1.17264e-14 -5.89272e-15 -1.39002e-13 -6.0821e-14 -1.14415e-13 4.88772e-14 -7.76877e-14 -6.01187e-14 -8.51524e-14 -3.11991e-14 -7.44715e-14 1.23458e-13 -1.48974e-14 2.71818e-13 1.71048e-12 1.18594e-11 7.33433e-11 4.31262e-10 2.4053e-09 1.26804e-08 6.30291e-08 2.94587e-07 1.29059e-06 5.28081e-06 2.00977e-05 7.07962e-05 0.000229505 0.000680094 0.00182833 0.00442506 0.00958511 0.0185252 0.0320019 0.0498328 0.0709765 0.0941318 0.118294 0.142897 0.167676 0.192504 0.217319 0.242102 0.266836 0.291508 0.316107 0.340627 0.365058 0.389396 0.413634 0.437766 0.461787 0.48569 0.50947 0.533117 0.556625 0.579983 0.603178 0.626195 0.649015 0.671616 0.693968 0.716034 0.737769 0.759116 0.780005 0.800348 0.820039 0.838946 0.856911 0.873742 0.889215 0.903076 0.915048 0.924872 0.932357 0.937464 0.940406 0.940269 0.939795 0.939035 0.938121 0.937117 0.936082 0.93506 0.934083 0.933181 0.932373 0.931667 0.931065 0.93056 0.930142 0.929799 0.929518 0.929286 0.929093 0.928928 0.928773 0.928631 0.928652 0.926323 0.944851 0.947972 0.93863 0.930683 0.928463 0.927956 0.927815 0.927763 0.927737 0.927722 0.927712 0.927707 0.927702 0.927692 0.927659 0.927572 0.927364 0.926902 0.925935 0.923977 0.920191 0.913117 0.900376 0.878413 0.842532 0.787543 0.709237 0.606602 0.484251 0.353757 0.230813 0.131459 0.0648383 0.0282587 0.0113815 0.00440056 0.00166934 0.000627646 0.000234831 8.75528e-05 3.2539e-05 1.20539e-05 4.44973e-06 1.63642e-06 5.9933e-07 2.18523e-07 7.92933e-08 2.86242e-08 1.02761e-08 3.66813e-09 1.30069e-09 4.58526e-10 1.60239e-10 5.5663e-11 1.87908e-11 6.35707e-12 1.97697e-12 9.5025e-13 -1.62091e-13 1.76079e-13 -2.22486e-13 1.20282e-13 2.37029e-14 2.19453e-14 1.87886e-13 -3.72154e-13 -1.54289e-13 6.08385e-13 -1.41078e-13 1.67893e-13 0 0 7.59085e-15 1.02501e-15 -1.18111e-14 -6.22133e-15 -1.13675e-14 -1.28173e-14 -1.36113e-14 -1.78205e-14 -3.22187e-14 -1.82161e-14 -6.27357e-14 -4.5998e-14 -4.82731e-14 -6.10412e-14 -7.27222e-14 -2.57624e-14 -9.8862e-14 -2.65711e-14 -6.98256e-14 -2.91946e-14 3.11091e-14 -2.71757e-14 3.24425e-14 -3.2472e-14 -2.04669e-14 5.43005e-14 -1.17018e-14 -5.8359e-14 -6.46995e-14 5.59261e-14 -5.77954e-14 1.75314e-15 -5.53759e-14 -2.0738e-14 -2.83079e-14 -7.43317e-14 -1.06097e-13 -5.15099e-14 -1.19279e-13 1.03952e-13 -9.08029e-14 -1.36672e-14 2.48802e-13 1.77379e-12 1.17075e-11 7.32373e-11 4.31452e-10 2.40544e-09 1.26803e-08 6.3029e-08 2.94587e-07 1.29059e-06 5.28081e-06 2.00977e-05 7.07962e-05 0.000229505 0.000680094 0.00182833 0.00442506 0.00958511 0.0185252 0.0320019 0.0498328 0.0709765 0.0941318 0.118294 0.142897 0.167676 0.192504 0.217319 0.242102 0.266836 0.291508 0.316107 0.340627 0.365058 0.389396 0.413634 0.437766 0.461787 0.48569 0.50947 0.533117 0.556625 0.579983 0.603178 0.626195 0.649015 0.671616 0.693968 0.716034 0.737769 0.759116 0.780005 0.800348 0.820039 0.838946 0.856911 0.873742 0.889215 0.903076 0.915048 0.924872 0.932357 0.937464 0.940406 0.940269 0.939795 0.939035 0.938121 0.937117 0.936082 0.93506 0.934083 0.933181 0.932373 0.931667 0.931065 0.93056 0.930142 0.929799 0.929518 0.929286 0.929093 0.928928 0.928773 0.928631 0.928652 0.926323 0.944851 0.947972 0.93863 0.930683 0.928463 0.927956 0.927815 0.927763 0.927737 0.927722 0.927712 0.927707 0.927702 0.927692 0.927659 0.927572 0.927364 0.926902 0.925935 0.923977 0.920191 0.913117 0.900376 0.878413 0.842532 0.787543 0.709237 0.606602 0.484251 0.353757 0.230813 0.131459 0.0648383 0.0282587 0.0113815 0.00440056 0.00166934 0.000627646 0.000234831 8.75528e-05 3.2539e-05 1.20539e-05 4.44973e-06 1.63642e-06 5.9933e-07 2.18523e-07 7.92935e-08 2.86241e-08 1.02765e-08 3.66768e-09 1.30125e-09 4.58353e-10 1.6061e-10 5.55312e-11 1.89334e-11 6.38638e-12 1.73246e-12 3.35067e-13 3.8925e-13 4.53721e-13 -2.05298e-13 -5.24842e-14 -4.85459e-14 2.41139e-13 1.13354e-13 2.29569e-13 4.25992e-14 -2.2633e-13 -1.60019e-13 5.11661e-14 0 0 -4.57116e-15 -3.99864e-15 -1.67858e-15 -6.09029e-15 -1.45145e-14 -2.12188e-14 -1.18238e-14 -2.89746e-14 -6.77589e-14 -3.9925e-14 -1.30965e-14 -4.99752e-14 -4.26913e-14 -4.51026e-14 -1.73741e-14 -1.44741e-13 -6.80586e-14 3.56294e-14 1.84505e-14 -7.42326e-14 -1.2501e-13 1.19598e-14 -4.12093e-14 7.64369e-15 3.15947e-14 8.10666e-14 -1.18605e-13 1.47446e-14 3.88985e-14 -4.20129e-14 -5.42024e-14 5.6872e-14 -1.15336e-13 -5.38228e-14 -1.87902e-13 2.0765e-14 4.69838e-14 -1.89369e-13 -6.54032e-14 -2.25179e-14 -8.41486e-14 1.0658e-13 2.84344e-13 1.86004e-12 1.18594e-11 7.32737e-11 4.31364e-10 2.40548e-09 1.26804e-08 6.30289e-08 2.94587e-07 1.29059e-06 5.28081e-06 2.00977e-05 7.07962e-05 0.000229505 0.000680094 0.00182833 0.00442506 0.00958511 0.0185252 0.0320019 0.0498328 0.0709765 0.0941318 0.118294 0.142897 0.167676 0.192504 0.217319 0.242102 0.266836 0.291508 0.316107 0.340627 0.365058 0.389396 0.413634 0.437766 0.461787 0.48569 0.50947 0.533117 0.556625 0.579983 0.603178 0.626195 0.649015 0.671616 0.693968 0.716034 0.737769 0.759116 0.780005 0.800348 0.820039 0.838946 0.856911 0.873742 0.889215 0.903076 0.915048 0.924872 0.932357 0.937464 0.940406 0.940269 0.939795 0.939035 0.938121 0.937117 0.936082 0.93506 0.934083 0.933181 0.932373 0.931667 0.931065 0.93056 0.930142 0.929799 0.929518 0.929286 0.929093 0.928928 0.928773 0.928631 0.928652 0.926323 0.944851 0.947972 0.93863 0.930683 0.928463 0.927956 0.927815 0.927763 0.927737 0.927722 0.927712 0.927707 0.927702 0.927692 0.927659 0.927572 0.927364 0.926902 0.925935 0.923977 0.920191 0.913117 0.900376 0.878413 0.842532 0.787543 0.709237 0.606602 0.484251 0.353757 0.230813 0.131459 0.0648383 0.0282587 0.0113815 0.00440056 0.00166934 0.000627646 0.000234831 8.75528e-05 3.2539e-05 1.20539e-05 4.44973e-06 1.63642e-06 5.9933e-07 2.18523e-07 7.92932e-08 2.86243e-08 1.02767e-08 3.66784e-09 1.3012e-09 4.58311e-10 1.60437e-10 5.57811e-11 1.9211e-11 6.07438e-12 2.22767e-12 5.90466e-13 5.83107e-13 -3.94897e-14 2.07376e-13 -3.95706e-13 -2.95457e-13 -1.16281e-13 5.72543e-14 7.06108e-14 3.5388e-13 -4.38776e-13 -5.21919e-13 -4.36775e-13 0 0 -7.15376e-15 -9.74619e-15 -3.37985e-15 -5.97502e-15 -2.39184e-14 1.11068e-14 -4.32791e-14 -4.27962e-14 -2.07207e-14 -7.89428e-14 1.38143e-14 -3.08475e-14 -3.16681e-14 -6.2727e-14 -3.00523e-14 -7.92233e-14 -8.9027e-15 -9.38301e-14 4.30951e-14 -8.98315e-14 -9.50038e-14 -7.18754e-14 -4.68891e-14 1.07778e-13 3.55262e-14 -6.82025e-14 7.11611e-16 -6.9363e-14 4.018e-14 -6.82256e-14 -3.6408e-14 -1.71034e-13 -1.15372e-13 -7.43346e-14 6.07765e-15 -5.1256e-14 5.06126e-14 -1.77248e-13 6.09938e-14 -1.91381e-13 1.97337e-14 8.5467e-14 3.67178e-13 1.77093e-12 1.19758e-11 7.34898e-11 4.31226e-10 2.40531e-09 1.26805e-08 6.30292e-08 2.94587e-07 1.29059e-06 5.28081e-06 2.00977e-05 7.07962e-05 0.000229505 0.000680094 0.00182833 0.00442506 0.00958511 0.0185252 0.0320019 0.0498328 0.0709765 0.0941318 0.118294 0.142897 0.167676 0.192504 0.217319 0.242102 0.266836 0.291508 0.316107 0.340627 0.365058 0.389396 0.413634 0.437766 0.461787 0.48569 0.50947 0.533117 0.556625 0.579983 0.603178 0.626195 0.649015 0.671616 0.693968 0.716034 0.737769 0.759116 0.780005 0.800348 0.820039 0.838946 0.856911 0.873742 0.889215 0.903076 0.915048 0.924872 0.932357 0.937464 0.940406 0.940269 0.939795 0.939035 0.938121 0.937117 0.936082 0.93506 0.934083 0.933181 0.932373 0.931667 0.931065 0.93056 0.930142 0.929799 0.929518 0.929286 0.929093 0.928928 0.928773 0.928631 0.928652 0.926323 0.944851 0.947972 0.93863 0.930683 0.928463 0.927956 0.927815 0.927763 0.927737 0.927722 0.927712 0.927707 0.927702 0.927692 0.927659 0.927572 0.927364 0.926902 0.925935 0.923977 0.920191 0.913117 0.900376 0.878413 0.842532 0.787543 0.709237 0.606602 0.484251 0.353757 0.230813 0.131459 0.0648383 0.0282587 0.0113815 0.00440056 0.00166934 0.000627646 0.000234831 8.75528e-05 3.2539e-05 1.20539e-05 4.44973e-06 1.63642e-06 5.99331e-07 2.18523e-07 7.92933e-08 2.86243e-08 1.02763e-08 3.66832e-09 1.30081e-09 4.58619e-10 1.60624e-10 5.55614e-11 1.90948e-11 6.62692e-12 1.6605e-12 9.36761e-13 1.67935e-13 2.17075e-13 -6.37058e-14 -2.00845e-13 -6.62816e-14 -2.18192e-13 3.30144e-13 -2.70784e-13 -1.91181e-13 1.98738e-13 -4.3065e-13 -2.47611e-13 0 0 4.88934e-15 9.94584e-15 -2.69578e-14 -8.22312e-15 -7.08044e-15 -3.10158e-14 -5.79823e-14 3.36591e-14 -7.40537e-14 -2.58368e-14 -3.29733e-14 -1.84728e-14 -3.59806e-14 -2.86083e-14 -9.64593e-14 6.48323e-14 -3.40279e-14 -5.82656e-14 -1.54546e-13 -1.30843e-14 3.65222e-14 -1.16486e-13 3.26157e-14 -1.12528e-13 -7.78149e-14 2.63093e-13 -1.6899e-13 -7.21945e-14 -8.77801e-14 2.192e-14 -2.26948e-13 -1.11902e-13 -8.56299e-14 5.92635e-14 5.00794e-14 -1.85078e-13 -1.45051e-14 1.64164e-13 -2.4153e-14 -2.78052e-14 -3.01735e-13 3.2279e-14 3.57445e-13 1.86366e-12 1.18645e-11 7.33436e-11 4.3143e-10 2.40542e-09 1.26805e-08 6.30291e-08 2.94587e-07 1.29059e-06 5.28081e-06 2.00977e-05 7.07962e-05 0.000229505 0.000680094 0.00182833 0.00442506 0.00958511 0.0185252 0.0320019 0.0498328 0.0709765 0.0941318 0.118294 0.142897 0.167676 0.192504 0.217319 0.242102 0.266836 0.291508 0.316107 0.340627 0.365058 0.389396 0.413634 0.437766 0.461787 0.48569 0.50947 0.533117 0.556625 0.579983 0.603178 0.626195 0.649015 0.671616 0.693968 0.716034 0.737769 0.759116 0.780005 0.800348 0.820039 0.838946 0.856911 0.873742 0.889215 0.903076 0.915048 0.924872 0.932357 0.937464 0.940406 0.940269 0.939795 0.939035 0.938121 0.937117 0.936082 0.93506 0.934083 0.933181 0.932373 0.931667 0.931065 0.93056 0.930142 0.929799 0.929518 0.929286 0.929093 0.928928 0.928773 0.928631 0.928652 0.926323 0.944851 0.947972 0.93863 0.930683 0.928463 0.927956 0.927815 0.927763 0.927737 0.927722 0.927712 0.927707 0.927702 0.927692 0.927659 0.927572 0.927364 0.926902 0.925935 0.923977 0.920191 0.913117 0.900376 0.878413 0.842532 0.787543 0.709237 0.606602 0.484251 0.353757 0.230813 0.131459 0.0648383 0.0282587 0.0113815 0.00440056 0.00166934 0.000627646 0.000234831 8.75528e-05 3.2539e-05 1.20539e-05 4.44973e-06 1.63642e-06 5.99331e-07 2.18523e-07 7.92936e-08 2.8624e-08 1.02765e-08 3.66736e-09 1.30154e-09 4.58505e-10 1.61211e-10 5.47092e-11 1.94355e-11 7.37941e-12 5.09417e-13 -3.74515e-13 5.43256e-13 8.7942e-13 -1.89777e-13 -2.72808e-13 5.90182e-13 5.60997e-13 -3.2394e-13 7.42949e-13 -6.80855e-13 -7.41512e-13 3.8882e-13 6.17454e-14 0
				</DataArray>
				<DataArray Name="VitesseY" type="Float32" format="ascii">