<?xml version="1.0"?>
<VTKFile type="PolyData">
	<PolyData>
		<Piece NumberOfPoints="1206" NumberOfPolys="1000">
			<Points>
				<DataArray type="Float32" NumberOfComponents="3" format="ascii">
 0 0 0 0.005 0 0 0.01 0 0 0.015 0 0 0.02 0 0 0.025 0 0 0.03 0 0 0.035 0 0 0.04 0 0 0.045 0 0 0.05 0 0 0.055 0 0 0.06 0 0 0.065 0 0 0.07 0 0 0.075 0 0 0.08 0 0 0.085 0 0 0.09 0 0 0.095 0 0 0.1 0 0 0.105 0 0 0.11 0 0 0.115 0 0 0.12 0 0 0.125 0 0 0.13 0 0 0.135 0 0 0.14 0 0 0.145 0 0 0.15 0 0 0.155 0 0 0.16 0 0 0.165 0 0 0.17 0 0 0.175 0 0 0.18 0 0 0.185 0 0 0.19 0 0 0.195 0 0 0.2 0 0 0.205 0 0 0.21 0 0 0.215 0 0 0.22 0 0 0.225 0 0 0.23 0 0 0.235 0 0 0.24 0 0 0.245 0 0 0.25 0 0 0.255 0 0 0.26 0 0 0.265 0 0 0.27 0 0 0.275 0 0 0.28 0 0 0.285 0 0 0.29 0 0 0.295 0 0 0.3 0 0 0.305 0 0 0.31 0 0 0.315 0 0 0.32 0 0 0.325 0 0 0.33 0 0 0.335 0 0 0.34 0 0 0.345 0 0 0.35 0 0 0.355 0 0 0.36 0 0 0.365 0 0 0.37 0 0 0.375 0 0 0.38 0 0 0.385 0 0 0.39 0 0 0.395 0 0 0.4 0 0 0.405 0 0 0.41 0 0 0.415 0 0 0.42 0 0 0.425 0 0 0.43 0 0 0.435 0 0 0.44 0 0 0.445 0 0 0.45 0 0 0.455 0 0 0.46 0 0 0.465 0 0 0.47 0 0 0.475 0 0 0.48 0 0 0.485 0 0 0.49 0 0 0.495 0 0 0.5 0 0 0.505 0 0 0.51 0 0 0.515 0 0 0.52 0 0 0.525 0 0 0.53 0 0 0.535 0 0 0.54 0 0 0.545 0 0 0.55 0 0 0.555 0 0 0.56 0 0 0.565 0 0 0.57 0 0 0.575 0 0 0.58 0 0 0.585 0 0 0.59 0 0 0.595 0 0 0.6 0 0 0.605 0 0 0.61 0 0 0.615 0 0 0.62 0 0 0.625 0 0 0.63 0 0 0.635 0 0 0.64 0 0 0.645 0 0 0.65 0 0 0.655 0 0 0.66 0 0 0.665 0 0 0.67 0 0 0.675 0 0 0.68 0 0 0.685 0 0 0.69 0 0 0.695 0 0 0.7 0 0 0.705 0 0 0.71 0 0 0.715 0 0 0.72 0 0 0.725 0 0 0.73 0 0 0.735 0 0 0.74 0 0 0.745 0 0 0.75 0 0 0.755 0 0 0.76 0 0 0.765 0 0 0.77 0 0 0.775 0 0 0.78 0 0 0.785 0 0 0.79 0 0 0.795 0 0 0.8 0 0 0.805 0 0 0.81 0 0 0.815 0 0 0.82 0 0 0.825 0 0 0.83 0 0 0.835 0 0 0.84 0 0 0.845 0 0 0.85 0 0 0.855 0 0 0.86 0 0 0.865 0 0 0.87 0 0 0.875 0 0 0.88 0 0 0.885 0 0 0.89 0 0 0.895 0 0 0.9 0 0 0.905 0 0 0.91 0 0 0.915 0 0 0.92 0 0 0.925 0 0 0.93 0 0 0.935 0 0 0.94 0 0 0.945 0 0 0.95 0 0 0.955 0 0 0.96 0 0 0.965 0 0 0.97 0 0 0.975 0 0 0.98 0 0 0.985 0 0 0.99 0 0 0.995 0 0 1 0 0 0 0.02 0 0.005 0.02 0 0.01 0.02 0 0.015 0.02 0 0.02 0.02 0 0.025 0.02 0 0.03 0.02 0 0.035 0.02 0 0.04 0.02 0 0.045 0.02 0 0.05 0.02 0 0.055 0.02 0 0.06 0.02 0 0.065 0.02 0 0.07 0.02 0 0.075 0.02 0 0.08 0.02 0 0.085 0.02 0 0.09 0.02 0 0.095 0.02 0 0.1 0.02 0 0.105 0.02 0 0.11 0.02 0 0.115 0.02 0 0.12 0.02 0 0.125 0.02 0 0.13 0.02 0 0.135 0.02 0 0.14 0.02 0 0.145 0.02 0 0.15 0.02 0 0.155 0.02 0 0.16 0.02 0 0.165 0.02 0 0.17 0.02 0 0.175 0.02 0 0.18 0.02 0 0.185 0.02 0 0.19 0.02 0 0.195 0.02 0 0.2 0.02 0 0.205 0.02 0 0.21 0.02 0 0.215 0.02 0 0.22 0.02 0 0.225 0.02 0 0.23 0.02 0 0.235 0.02 0 0.24 0.02 0 0.245 0.02 0 0.25 0.02 0 0.255 0.02 0 0.26 0.02 0 0.265 0.02 0 0.27 0.02 0 0.275 0.02 0 0.28 0.02 0 0.285 0.02 0 0.29 0.02 0 0.295 0.02 0 0.3 0.02 0 0.305 0.02 0 0.31 0.02 0 0.315 0.02 0 0.32 0.02 0 0.325 0.02 0 0.33 0.02 0 0.335 0.02 0 0.34 0.02 0 0.345 0.02 0 0.35 0.02 0 0.355 0.02 0 0.36 0.02 0 0.365 0.02 0 0.37 0.02 0 0.375 0.02 0 0.38 0.02 0 0.385 0.02 0 0.39 0.02 0 0.395 0.02 0 0.4 0.02 0 0.405 0.02 0 0.41 0.02 0 0.415 0.02 0 0.42 0.02 0 0.425 0.02 0 0.43 0.02 0 0.435 0.02 0 0.44 0.02 0 0.445 0.02 0 0.45 0.02 0 0.455 0.02 0 0.46 0.02 0 0.465 0.02 0 0.47 0.02 0 0.475 0.02 0 0.48 0.02 0 0.485 0.02 0 0.49 0.02 0 0.495 0.02 0 0.5 0.02 0 0.505 0.02 0 0.51 0.02 0 0.515 0.02 0 0.52 0.02 0 0.525 0.02 0 0.53 0.02 0 0.535 0.02 0 0.54 0.02 0 0.545 0.02 0 0.55 0.02 0 0.555 0.02 0 0.56 0.02 0 0.565 0.02 0 0.57 0.02 0 0.575 0.02 0 0.58 0.02 0 0.585 0.02 0 0.59 0.02 0 0.595 0.02 0 0.6 0.02 0 0.605 0.02 0 0.61 0.02 0 0.615 0.02 0 0.62 0.02 0 0.625 0.02 0 0.63 0.02 0 0.635 0.02 0 0.64 0.02 0 0.645 0.02 0 0.65 0.02 0 0.655 0.02 0 0.66 0.02 0 0.665 0.02 0 0.67 0.02 0 0.675 0.02 0 0.68 0.02 0 0.685 0.02 0 0.69 0.02 0 0.695 0.02 0 0.7 0.02 0 0.705 0.02 0 0.71 0.02 0 0.715 0.02 0 0.72 0.02 0 0.725 0.02 0 0.73 0.02 0 0.735 0.02 0 0.74 0.02 0 0.745 0.02 0 0.75 0.02 0 0.755 0.02 0 0.76 0.02 0 0.765 0.02 0 0.77 0.02 0 0.775 0.02 0 0.78 0.02 0 0.785 0.02 0 0.79 0.02 0 0.795 0.02 0 0.8 0.02 0 0.805 0.02 0 0.81 0.02 0 0.815 0.02 0 0.82 0.02 0 0.825 0.02 0 0.83 0.02 0 0.835 0.02 0 0.84 0.02 0 0.845 0.02 0 0.85 0.02 0 0.855 0.02 0 0.86 0.02 0 0.865 0.02 0 0.87 0.02 0 0.875 0.02 0 0.88 0.02 0 0.885 0.02 0 0.89 0.02 0 0.895 0.02 0 0.9 0.02 0 0.905 0.02 0 0.91 0.02 0 0.915 0.02 0 0.92 0.02 0 0.925 0.02 0 0.93 0.02 0 0.935 0.02 0 0.94 0.02 0 0.945 0.02 0 0.95 0.02 0 0.955 0.02 0 0.96 0.02 0 0.965 0.02 0 0.97 0.02 0 0.975 0.02 0 0.98 0.02 0 0.985 0.02 0 0.99 0.02 0 0.995 0.02 0 1 0.02 0 0 0.04 0 0.005 0.04 0 0.01 0.04 0 0.015 0.04 0 0.02 0.04 0 0.025 0.04 0 0.03 0.04 0 0.035 0.04 0 0.04 0.04 0 0.045 0.04 0 0.05 0.04 0 0.055 0.04 0 0.06 0.04 0 0.065 0.04 0 0.07 0.04 0 0.075 0.04 0 0.08 0.04 0 0.085 0.04 0 0.09 0.04 0 0.095 0.04 0 0.1 0.04 0 0.105 0.04 0 0.11 0.04 0 0.115 0.04 0 0.12 0.04 0 0.125 0.04 0 0.13 0.04 0 0.135 0.04 0 0.14 0.04 0 0.145 0.04 0 0.15 0.04 0 0.155 0.04 0 0.16 0.04 0 0.165 0.04 0 0.17 0.04 0 0.175 0.04 0 0.18 0.04 0 0.185 0.04 0 0.19 0.04 0 0.195 0.04 0 0.2 0.04 0 0.205 0.04 0 0.21 0.04 0 0.215 0.04 0 0.22 0.04 0 0.225 0.04 0 0.23 0.04 0 0.235 0.04 0 0.24 0.04 0 0.245 0.04 0 0.25 0.04 0 0.255 0.04 0 0.26 0.04 0 0.265 0.04 0 0.27 0.04 0 0.275 0.04 0 0.28 0.04 0 0.285 0.04 0 0.29 0.04 0 0.295 0.04 0 0.3 0.04 0 0.305 0.04 0 0.31 0.04 0 0.315 0.04 0 0.32 0.04 0 0.325 0.04 0 0.33 0.04 0 0.335 0.04 0 0.34 0.04 0 0.345 0.04 0 0.35 0.04 0 0.355 0.04 0 0.36 0.04 0 0.365 0.04 0 0.37 0.04 0 0.375 0.04 0 0.38 0.04 0 0.385 0.04 0 0.39 0.04 0 0.395 0.04 0 0.4 0.04 0 0.405 0.04 0 0.41 0.04 0 0.415 0.04 0 0.42 0.04 0 0.425 0.04 0 0.43 0.04 0 0.435 0.04 0 0.44 0.04 0 0.445 0.04 0 0.45 0.04 0 0.455 0.04 0 0.46 0.04 0 0.465 0.04 0 0.47 0.04 0 0.475 0.04 0 0.48 0.04 0 0.485 0.04 0 0.49 0.04 0 0.495 0.04 0 0.5 0.04 0 0.505 0.04 0 0.51 0.04 0 0.515 0.04 0 0.52 0.04 0 0.525 0.04 0 0.53 0.04 0 0.535 0.04 0 0.54 0.04 0 0.545 0.04 0 0.55 0.04 0 0.555 0.04 0 0.56 0.04 0 0.565 0.04 0 0.57 0.04 0 0.575 0.04 0 0.58 0.04 0 0.585 0.04 0 0.59 0.04 0 0.595 0.04 0 0.6 0.04 0 0.605 0.04 0 0.61 0.04 0 0.615 0.04 0 0.62 0.04 0 0.625 0.04 0 0.63 0.04 0 0.635 0.04 0 0.64 0.04 0 0.645 0.04 0 0.65 0.04 0 0.655 0.04 0 0.66 0.04 0 0.665 0.04 0 0.67 0.04 0 0.675 0.04 0 0.68 0.04 0 0.685 0.04 0 0.69 0.04 0 0.695 0.04 0 0.7 0.04 0 0.705 0.04 0 0.71 0.04 0 0.715 0.04 0 0.72 0.04 0 0.725 0.04 0 0.73 0.04 0 0.735 0.04 0 0.74 0.04 0 0.745 0.04 0 0.75 0.04 0 0.755 0.04 0 0.76 0.04 0 0.765 0.04 0 0.77 0.04 0 0.775 0.04 0 0.78 0.04 0 0.785 0.04 0 0.79 0.04 0 0.795 0.04 0 0.8 0.04 0 0.805 0.04 0 0.81 0.04 0 0.815 0.04 0 0.82 0.04 0 0.825 0.04 0 0.83 0.04 0 0.835 0.04 0 0.84 0.04 0 0.845 0.04 0 0.85 0.04 0 0.855 0.04 0 0.86 0.04 0 0.865 0.04 0 0.87 0.04 0 0.875 0.04 0 0.88 0.04 0 0.885 0.04 0 0.89 0.04 0 0.895 0.04 0 0.9 0.04 0 0.905 0.04 0 0.91 0.04 0 0.915 0.04 0 0.92 0.04 0 0.925 0.04 0 0.93 0.04 0 0.935 0.04 0 0.94 0.04 0 0.945 0.04 0 0.95 0.04 0 0.955 0.04 0 0.96 0.04 0 0.965 0.04 0 0.97 0.04 0 0.975 0.04 0 0.98 0.04 0 0.985 0.04 0 0.99 0.04 0 0.995 0.04 0 1 0.04 0 0 0.06 0 0.005 0.06 0 0.01 0.06 0 0.015 0.06 0 0.02 0.06 0 0.025 0.06 0 0.03 0.06 0 0.035 0.06 0 0.04 0.06 0 0.045 0.06 0 0.05 0.06 0 0.055 0.06 0 0.06 0.06 0 0.065 0.06 0 0.07 0.06 0 0.075 0.06 0 0.08 0.06 0 0.085 0.06 0 0.09 0.06 0 0.095 0.06 0 0.1 0.06 0 0.105 0.06 0 0.11 0.06 0 0.115 0.06 0 0.12 0.06 0 0.125 0.06 0 0.13 0.06 0 0.135 0.06 0 0.14 0.06 0 0.145 0.06 0 0.15 0.06 0 0.155 0.06 0 0.16 0.06 0 0.165 0.06 0 0.17 0.06 0 0.175 0.06 0 0.18 0.06 0 0.185 0.06 0 0.19 0.06 0 0.195 0.06 0 0.2 0.06 0 0.205 0.06 0 0.21 0.06 0 0.215 0.06 0 0.22 0.06 0 0.225 0.06 0 0.23 0.06 0 0.235 0.06 0 0.24 0.06 0 0.245 0.06 0 0.25 0.06 0 0.255 0.06 0 0.26 0.06 0 0.265 0.06 0 0.27 0.06 0 0.275 0.06 0 0.28 0.06 0 0.285 0.06 0 0.29 0.06 0 0.295 0.06 0 0.3 0.06 0 0.305 0.06 0 0.31 0.06 0 0.315 0.06 0 0.32 0.06 0 0.325 0.06 0 0.33 0.06 0 0.335 0.06 0 0.34 0.06 0 0.345 0.06 0 0.35 0.06 0 0.355 0.06 0 0.36 0.06 0 0.365 0.06 0 0.37 0.06 0 0.375 0.06 0 0.38 0.06 0 0.385 0.06 0 0.39 0.06 0 0.395 0.06 0 0.4 0.06 0 0.405 0.06 0 0.41 0.06 0 0.415 0.06 0 0.42 0.06 0 0.425 0.06 0 0.43 0.06 0 0.435 0.06 0 0.44 0.06 0 0.445 0.06 0 0.45 0.06 0 0.455 0.06 0 0.46 0.06 0 0.465 0.06 0 0.47 0.06 0 0.475 0.06 0 0.48 0.06 0 0.485 0.06 0 0.49 0.06 0 0.495 0.06 0 0.5 0.06 0 0.505 0.06 0 0.51 0.06 0 0.515 0.06 0 0.52 0.06 0 0.525 0.06 0 0.53 0.06 0 0.535 0.06 0 0.54 0.06 0 0.545 0.06 0 0.55 0.06 0 0.555 0.06 0 0.56 0.06 0 0.565 0.06 0 0.57 0.06 0 0.575 0.06 0 0.58 0.06 0 0.585 0.06 0 0.59 0.06 0 0.595 0.06 0 0.6 0.06 0 0.605 0.06 0 0.61 0.06 0 0.615 0.06 0 0.62 0.06 0 0.625 0.06 0 0.63 0.06 0 0.635 0.06 0 0.64 0.06 0 0.645 0.06 0 0.65 0.06 0 0.655 0.06 0 0.66 0.06 0 0.665 0.06 0 0.67 0.06 0 0.675 0.06 0 0.68 0.06 0 0.685 0.06 0 0.69 0.06 0 0.695 0.06 0 0.7 0.06 0 0.705 0.06 0 0.71 0.06 0 0.715 0.06 0 0.72 0.06 0 0.725 0.06 0 0.73 0.06 0 0.735 0.06 0 0.74 0.06 0 0.745 0.06 0 0.75 0.06 0 0.755 0.06 0 0.76 0.06 0 0.765 0.06 0 0.77 0.06 0 0.775 0.06 0 0.78 0.06 0 0.785 0.06 0 0.79 0.06 0 0.795 0.06 0 0.8 0.06 0 0.805 0.06 0 0.81 0.06 0 0.815 0.06 0 0.82 0.06 0 0.825 0.06 0 0.83 0.06 0 0.835 0.06 0 0.84 0.06 0 0.845 0.06 0 0.85 0.06 0 0.855 0.06 0 0.86 0.06 0 0.865 0.06 0 0.87 0.06 0 0.875 0.06 0 0.88 0.06 0 0.885 0.06 0 0.89 0.06 0 0.895 0.06 0 0.9 0.06 0 0.905 0.06 0 0.91 0.06 0 0.915 0.06 0 0.92 0.06 0 0.925 0.06 0 0.93 0.06 0 0.935 0.06 0 0.94 0.06 0 0.945 0.06 0 0.95 0.06 0 0.955 0.06 0 0.96 0.06 0 0.965 0.06 0 0.97 0.06 0 0.975 0.06 0 0.98 0.06 0 0.985 0.06 0 0.99 0.06 0 0.995 0.06 0 1 0.06 0 0 0.08 0 0.005 0.08 0 0.01 0.08 0 0.015 0.08 0 0.02 0.08 0 0.025 0.08 0 0.03 0.08 0 0.035 0.08 0 0.04 0.08 0 0.045 0.08 0 0.05 0.08 0 0.055 0.08 0 0.06 0.08 0 0.065 0.08 0 0.07 0.08 0 0.075 0.08 0 0.08 0.08 0 0.085 0.08 0 0.09 0.08 0 0.095 0.08 0 0.1 0.08 0 0.105 0.08 0 0.11 0.08 0 0.115 0.08 0 0.12 0.08 0 0.125 0.08 0 0.13 0.08 0 0.135 0.08 0 0.14 0.08 0 0.145 0.08 0 0.15 0.08 0 0.155 0.08 0 0.16 0.08 0 0.165 0.08 0
[...]
			<PointData Scalars="VitesseX">
				<DataArray Name="VitesseX" type="Float32" format="ascii">
 0 -9.50911e-15 -1.86371e-16 -3.82824e-15 -6.75299e-15 -1.97989e-14 1.16636e-14 -4.77458e-14 -2.50906e-14 -6.58676e-14 2.21491e-14 -4.58356e-14 8.19667e-15 -3.0861e-14 1.2867e-14 -6.51498e-14 -4.50124e-15 -3.4426e-14 1.92175e-14 -1.20375e-13 8.20132e-14 -1.24768e-13 -1.12798e-13 -6.85261e-14 -8.86799e-14 -1.37286e-13 -1.6272e-13 -6.91601e-14 -5.87019e-14 -8.40596e-14 -6.51987e-14 -6.31179e-14 6.07882e-14 -5.41656e-16 -3.36853e-14 -1.90688e-13 -1.71056e-14 -1.81645e-13 -1.97944e-13 -1.81163e-13 -1.92153e-13 -2.71694e-13 -9.28387e-14 -1.60009e-14 -2.43249e-13 4.89779e-14 -1.58339e-13 -3.54128e-14 -8.29882e-14 -6.56793e-14 1.52173e-13 4.34857e-14 9.99633e-13 7.48117e-12 5.53894e-11 3.69749e-10 2.33677e-09 1.38606e-08 7.69108e-08 3.97876e-07 1.91147e-06 8.4895e-06 3.46722e-05 0.000129397 0.000437967 0.00133259 0.00360997 0.0086316 0.0181319 0.0334666 0.0547128 0.0805391 0.109072 0.138848 0.169083 0.199426 0.22973 0.25996 0.290084 0.320078 0.349926 0.379611 0.409121 0.438445 0.46757 0.496486 0.525178 0.553631 0.581827 0.609744 0.637352 0.664614 0.691482 0.717893 0.743767 0.769001 0.793465 0.816995 0.839392 0.860411 0.879766 0.897129 0.912137 0.924421 0.933647 0.939623 0.942124 0.941832 0.941104 0.940084 0.938895 0.937623 0.936347 0.935117 0.933981 0.93297 0.932102 0.931375 0.930779 0.930295 0.929905 0.92962 0.92915 0.926927 0.939795 0.953135 0.944308 0.933193 0.929282 0.928383 0.928162 0.928111 0.92811 0.928114 0.928101 0.928031 0.927813 0.927268 0.926044 0.923475 0.918341 0.908671 0.891335 0.861952 0.815261 0.746282 0.652332 0.535574 0.405035 0.275909 0.16493 0.0852109 0.0383796 0.0156722 0.00606305 0.00228361 0.000848806 0.000313055 0.000114778 4.18508e-05 1.51735e-05 5.46837e-06 1.95809e-06 6.96343e-07 2.45832e-07 8.61181e-08 2.99246e-08 1.03098e-08 3.52085e-09 1.19127e-09 3.99369e-10 1.32247e-10 4.31966e-11 1.37843e-11 4.39347e-12 7.9914e-13 -4.25867e-14 -1.38053e-13 -3.70711e-13 -2.32708e-13 -3.75064e-13 -2.67145e-13 1.68366e-13 -2.68379e-14 5.10381e-13 -3.0125e-13 3.01386e-13 2.76926e-14 -2.94531e-13 -9.55863e-14 2.31238e-13 6.39671e-14 6.07256e-13 -5.19162e-13 7.11853e-13 -1.67722e-13 1.13682e-13 6.34704e-13 -2.38062e-13 7.34501e-13 0 0 1.32415e-14 2.74516e-15 1.0654e-14 -7.16927e-15 -1.21545e-15 -4.42422e-14 2.35824e-15 -5.17203e-14 1.60284e-14 -7.62714e-14 1.0209e-14 -2.17446e-14 -8.81266e-15 -5.45474e-14 2.77116e-14 -2.98777e-14 -6.8832e-14 -3.63651e-14 -1.32041e-15 -1.49053e-13 8.89834e-15 -5.24592e-14 -1.1754e-13 -9.90464e-14 -1.02708e-13 -6.47575e-14 -1.3946e-13 -1.23595e-13 6.07159e-15 -6.46078e-14 -3.33827e-14 -6.2437e-14 4.81793e-14 -1.29271e-13 -6.40823e-14 -1.82438e-13 -6.76468e-14 -9.8108e-14 -1.91158e-13 -1.05175e-13 -1.51605e-13 -1.09335e-13 -1.77426e-13 -2.47552e-14 -1.55164e-13 1.03921e-14 -7.56263e-14 4.52996e-14 -2.06712e-14 -1.16802e-13 2.5849e-13 1.01333e-12 7.77189e-12 5.48058e-11 3.69702e-10 2.33704e-09 1.38607e-08 7.69108e-08 3.97876e-07 1.91147e-06 8.4895e-06 3.46722e-05 0.000129397 0.000437967 0.00133259 0.00360997 0.0086316 0.0181319 0.0334666 0.0547128 0.0805391 0.109072 0.138848 0.169083 0.199426 0.22973 0.25996 0.290084 0.320078 0.349926 0.379611 0.409121 0.438445 0.46757 0.496486 0.525178 0.553631 0.581827 0.609744 0.637352 0.664614 0.691482 0.717893 0.743767 0.769001 0.793465 0.816995 0.839392 0.860411 0.879766 0.897129 0.912137 0.924421 0.933647 0.939623 0.942124 0.941832 0.941104 0.940084 0.938895 0.937623 0.936347 0.935117 0.933981 0.93297 0.932102 0.931375 0.930779 0.930295 0.929905 0.92962 0.92915 0.926927 0.939795 0.953135 0.944308 0.933193 0.929282 0.928383 0.928162 0.928111 0.92811 0.928114 0.928101 0.928031 0.927813 0.927268 0.926044 0.923475 0.918341 0.908671 0.891335 0.861952 0.815261 0.746282 0.652332 0.535574 0.405035 0.275909 0.16493 0.0852109 0.0383796 0.0156722 0.00606305 0.00228361 0.000848806 0.000313055 0.000114778 4.18508e-05 1.51735e-05 5.46837e-06 1.95809e-06 6.96343e-07 2.45832e-07 8.61185e-08 2.99241e-08 1.03103e-08 3.52069e-09 1.19142e-09 3.99109e-10 1.32333e-10 4.33755e-11 1.38702e-11 3.99264e-12 1.09807e-12 -2.25447e-13 -2.7745e-13 -2.76667e-13 -7.15148e-14 -2.31574e-13 -4.38256e-14 -2.26045e-13 -2.44672e-13 -2.21525e-13 6.83052e-13 -8.81147e-14 -2.62631e-13 2.58795e-13 -1.40937e-13 3.1587e-14 2.43948e-13 -5.06244e-14 6.87421e-13 -4.77134e-13 4.39309e-13 2.98685e-13 -8.30143e-14 2.59823e-13 -4.4411e-13 0 0 1.33826e-14 2.21232e-14 1.02981e-14 5.98546e-15 -1.56753e-14 2.2372e-14 -2.57019e-14 2.09002e-14 -1.9261e-14 -1.84528e-14 -4.18774e-14 -1.35485e-14 -2.7742e-14 -4.07122e-14 -5.17531e-14 -2.25515e-14 -2.99222e-14 -5.61853e-14 -8.73268e-14 -1.71222e-14 -9.82241e-14 -9.32254e-14 -6.03119e-14 -5.99498e-14 -8.74143e-14 -1.71859e-13 -5.8138e-14 -6.53185e-14 -6.30697e-14 1.67041e-14 -9.85941e-15 5.35539e-14 -7.16727e-14 -6.60087e-14 -2.15394e-13 -1.49147e-13 -6.06305e-14 -9.94209e-14 -6.8921e-14 -6.03328e-14 -1.34082e-13 -1.48993e-13 1.00616e-14 -1.01051e-13 -7.54409e-14 2.09623e-14 -1.00229e-13 -1.17937e-13 -4.2751e-15 -6.4361e-14 1.52283e-13 1.08914e-12 7.86357e-12 5.51245e-11 3.69693e-10 2.33683e-09 1.3861e-08 7.69106e-08 3.97876e-07 1.91147e-06 8.48949e-06 3.46722e-05 0.000129397 0.000437967 0.00133259 0.00360997 0.0086316 0.0181319 0.0334666 0.0547128 0.0805391 0.109072 0.138848 0.169083 0.199426 0.22973 0.25996 0.290084 0.320078 0.349926 0.379611 0.409121 0.438445 0.46757 0.496486 0.525178 0.553631 0.581827 0.609744 0.637352 0.664614 0.691482 0.717893 0.743767 0.769001 0.793465 0.816995 0.839392 0.860411 0.879766 0.897129 0.912137 0.924421 0.933647 0.939623 0.942124 0.941832 0.941104 0.940084 0.938895 0.937623 0.936347 0.935117 0.933981 0.93297 0.932102 0.931375 0.930779 0.930295 0.929905 0.92962 0.92915 0.926927 0.939795 0.953135 0.944308 0.933193 0.929282 0.928383 0.928162 0.928111 0.92811 0.928114 0.928101 0.928031 0.927813 0.927268 0.926044 0.923475 0.918341 0.908671 0.891335 0.861952 0.815261 0.746282 0.652332 0.535574 0.405035 0.275909 0.16493 0.0852109 0.0383796 0.0156722 0.00606305 0.00228361 0.000848806 0.000313055 0.000114778 4.18508e-05 1.51735e-05 5.46837e-06 1.95809e-06 6.96343e-07 2.45832e-07 8.61185e-08 2.99243e-08 1.03102e-08 3.52079e-09 1.19117e-09 3.99307e-10 1.32443e-10 4.31854e-11 1.38698e-11 4.02669e-12 8.97798e-13 2.40802e-13 -2.20842e-13 -1.05324e-13 -2.62415e-13 -1.46344e-13 -2.24385e-13 -3.74385e-13 -6.60174e-14 -5.82308e-13 1.74367e-13 -9.06431e-14 -1.56301e-14 1.84275e-13 2.38788e-13 -1.12471e-13 -5.23857e-13 3.99285e-13 2.74889e-14 -7.90875e-14 4.00308e-13 6.04123e-13 2.85826e-13 4.09738e-13 5.05988e-14 0 0 3.03305e-15 1.76384e-14 1.19654e-14 1.37989e-14 7.31265e-15 3.2563e-14 -1.24299e-14 -6.82947e-15 -1.64398e-14 2.98912e-14 -2.139e-14 -3.73681e-14 -3.72577e-14 -4.65979e-14 -8.24211e-14 -8.05302e-14 -4.65573e-14 -5.62969e-14 -1.15384e-13 -5.30648e-15 -5.46612e-14 -1.16126e-13 -5.92176e-14 -7.15227e-14 -4.08944e-14 -1.46385e-13 2.05579e-14 -6.36897e-14 -5.28466e-14 2.36263e-15 4.01197e-15 4.68637e-14 -1.25002e-13 -4.28356e-14 -1.09328e-13 -1.18337e-13 -8.5815e-14 -1.25427e-13 -1.86198e-13 -5.1711e-14 -1.205e-13 -2.45925e-13 6.06623e-14 -3.59355e-14 -1.17378e-13 -2.60361e-13 -5.54083e-14 8.66312e-14 -1.6684e-13 4.45674e-14 7.39843e-14 1.18621e-12 7.64021e-12 5.55207e-11 3.69865e-10 2.33687e-09 1.38608e-08 7.69109e-08 3.97876e-07 1.91147e-06 8.4895e-06 3.46722e-05 0.000129397 0.000437967 0.00133259 0.00360997 0.0086316 0.0181319 0.0334666 0.0547128 0.0805391 0.109072 0.138848 0.169083 0.199426 0.22973 0.25996 0.290084 0.320078 0.349926 0.379611 0.409121 0.438445 0.46757 0.496486 0.525178 0.553631 0.581827 0.609744 0.637352 0.664614 0.691482 0.717893 0.743767 0.769001 0.793465 0.816995 0.839392 0.860411 0.879766 0.897129 0.912137 0.924421 0.933647 0.939623 0.942124 0.941832 0.941104 0.940084 0.938895 0.937623 0.936347 0.935117 0.933981 0.93297 0.932102 0.931375 0.930779 0.930295 0.929905 0.92962 0.92915 0.926927 0.939795 0.953135 0.944308 0.933193 0.929282 0.928383 0.928162 0.928111 0.92811 0.928114 0.928101 0.928031 0.927813 0.927268 0.926044 0.923475 0.918341 0.908671 0.891335 0.861952 0.815261 0.746282 0.652332 0.535574 0.405035 0.275909 0.16493 0.0852109 0.0383796 0.0156722 0.00606305 0.00228361 0.000848806 0.000313055 0.000114778 4.18508e-05 1.51735e-05 5.46837e-06 1.95809e-06 6.96343e-07 2.45832e-07 8.61185e-08 2.99245e-08 1.03098e-08 3.52091e-09 1.19132e-09 3.99276e-10 1.32347e-10 4.31803e-11 1.3543e-11 4.09682e-12 1.23673e-12 2.19654e-13 2.05884e-13 -9.60468e-14 -5.54191e-13 1.00915e-13 -5.59914e-13 -2.49109e-13 -2.16448e-13 1.96792e-13 -2.43077e-13 -1.64319e-13 -1.97289e-13 1.77574e-14 1.18436e-13 1.77792e-13 -5.55481e-15 1.63803e-13 -2.39063e-13 7.27133e-14 -2.61159e-13 4.93985e-13 7.66043e-13 -3.74304e-13 3.46117e-13 0 0 8.23824e-15 5.98146e-15 1.58071e-14 6.65187e-15 2.3215e-14 -8.82328e-15 2.81325e-14 -4.42583e-14 1.18634e-14 -5.24715e-14 1.12189e-14 -6.80762e-14 -3.09467e-14 -7.98768e-14 -1.85172e-14 -6.74338e-14 -5.335e-14 -3.09406e-14 -1.26737e-14 -1.89705e-13 6.20646e-14 -6.07035e-14 -1.33531e-13 -7.8436e-14 -3.1284e-14 -4.77502e-14 -6.19409e-14 -1.1414e-13 6.27863e-14 -2.04805e-14 -2.16027e-15 -7.01329e-14 -7.85493e-15 -1.2753e-13 -8.13578e-14 -6.48703e-14 -1.21246e-13 -1.26155e-13 -3.07336e-13 -4.78895e-14 -7.50652e-14 -1.79269e-13 -5.13562e-14 7.47445e-14 -2.18478e-13 -1.59957e-13 -4.75105e-14 7.37365e-14 -1.62123e-13 -7.22646e-14 2.40288e-13 1.22556e-12 7.81478e-12 5.51087e-11 3.69974e-10 2.33724e-09 1.38607e-08 7.6911e-08 3.97876e-07 1.91147e-06 8.4895e-06 3.46722e-05 0.000129397 0.000437967 0.00133259 0.00360997 0.0086316 0.0181319 0.0334666 0.0547128 0.0805391 0.109072 0.138848 0.169083 0.199426 0.22973 0.25996 0.290084 0.320078 0.349926 0.379611 0.409121 0.438445 0.46757 0.496486 0.525178 0.553631 0.581827 0.609744 0.637352 0.664614 0.691482 0.717893 0.743767 0.769001 0.793465 0.816995 0.839392 0.860411 0.879766 0.897129 0.912137 0.924421 0.933647 0.939623 0.942124 0.941832 0.941104 0.940084 0.938895 0.937623 0.936347 0.935117 0.933981 0.93297 0.932102 0.931375 0.930779 0.930295 0.929905 0.92962 0.92915 0.926927 0.939795 0.953135 0.944308 0.933193 0.929282 0.928383 0.928162 0.928111 0.92811 0.928114 0.928101 0.928031 0.927813 0.927268 0.926044 0.923475 0.918341 0.908671 0.891335 0.861952 0.815261 0.746282 0.652332 0.535574 0.405035 0.275909 0.16493 0.0852109 0.0383796 0.0156722 0.00606305 0.00228361 0.000848806 0.000313055 0.000114778 4.18508e-05 1.51735e-05 5.46837e-06 1.95809e-06 6.96343e-07 2.45832e-07 8.61188e-08 2.99243e-08 1.03102e-08 3.52062e-09 1.19161e-09 3.98914e-10 1.32399e-10 4.32904e-11 1.3488e-11 4.12812e-12 1.00658e-12 2.02568e-13 -1.57598e-13 -2.39692e-13 -2.57455e-13 3.71104e-15 -1.45394e-13 -2.21435e-13 -3.91622e-13 -1.6448e-13 6.28497e-13 -3.61311e-13 -3.47834e-13 1.65609e-13 -8.96936e-14 1.18952e-13 4.30016e-13 -4.06115e-13 4.65637e-13 -5.0275e-13 1.97102e-13 2.87566e-13 7.82145e-15 -2.801e-13 -6.24199e-13 0 0 1.18358e-15 1.52557e-14 3.14346e-15 5.26248e-15 -1.69137e-14 6.21195e-14 -2.27414e-14 4.52927e-14 -7.98399e-14 -2.6939e-14 -8.47906e-14 -3.68274e-14 -5.60976e-14 -2.60202e-14 -9.62716e-14 3.6344e-14 2.98083e-14 3.02898e-14 -8.69664e-14 -2.29238e-14 -1.05561e-13 -8.34859e-14 -1.02696e-13 -2.43134e-14 -8.74784e-14 -1.79654e-13 -7.1513e-14 -4.305e-14 8.92358e-15 5.17387e-14 -2.84158e-14 5.87766e-14 -5.95142e-15 -7.65502e-14 -4.3737e-13 1.5641e-13 -2.38475e-13 -2.02024e-13 -1.78966e-13 -9.48259e-14 -1.45778e-13 -3.88399e-14 1.34937e-13 -1.74481e-13 6.2233e-15 6.36095e-14 -6.8822e-14 -4.3525e-13 -2.34548e-14 2.33916e-14 1.63678e-13 1.22997e-12 8.01367e-12 5.52029e-11 3.6995e-10 2.33709e-09 1.38609e-08 7.69107e-08 3.97876e-07 1.91147e-06 8.48949e-06 3.46722e-05 0.000129397 0.000437967 0.00133259 0.00360997 0.0086316 0.0181319 0.0334666 0.0547128 0.0805391 0.109072 0.138848 0.169083 0.199426 0.22973 0.25996 0.290084 0.320078 0.349926 0.379611 0.409121 0.438445 0.46757 0.496486 0.525178 0.553631 0.581827 0.609744 0.637352 0.664614 0.691482 0.717893 0.743767 0.769001 0.793465 0.816995 0.839392 0.860411 0.879766 0.897129 0.912137 0.924421 0.933647 0.939623 0.942124 0.941832 0.941104 0.940084 0.938895 0.937623 0.936347 0.935117 0.933981 0.93297 0.932102 0.931375 0.930779 0.930295 0.929905 0.92962 0.92915 0.926927 0.939795 0.953135 0.944308 0.933193 0.929282 0.928383 0.928162 0.928111 0.92811 0.928114 0.928101 0.928031 0.927813 0.927268 0.926044 0.923475 0.918341 0.908671 0.891335 0.861952 0.815261 0.746282 0.652332 0.535574 0.405035 0.275909 0.16493 0.0852109 0.0383796 0.0156722 0.00606305 0.00228361 0.000848806 0.000313055 0.000114778 4.18508e-05 1.51735e-05 5.46837e-06 1.95809e-06 6.96343e-07 2.45832e-07 8.61186e-08 2.99245e-08 1.03105e-08 3.52045e-09 1.19133e-09 3.99041e-10 1.32571e-10 4.30366e-11 1.36735e-11 4.52417e-12 -6.16989e-14 8.55739e-13 -7.51802e-13 -3.15315e-13 -2.10361e-14 -3.99012e-13 2.00777e-13 -7.29652e-14 -1.98777e-14 -9.3373e-13 4.24529e-13 -9.76554e-14 2.20605e-13 -1.47867e-13 2.47606e-13 -1.74559e-13 -6.00501e-13 3.6724e-13 -4.29627e-13 3.5702e-13 6.70798e-13 3.11721e-13 -1.44058e-13 2.50174e-13 -2.16714e-13 0
				</DataArray>
				<DataArray Name="VitesseY" type="Float32" format="ascii">