<?xml version="1.0"?>
<VTKFile type="PolyData">
	<PolyData>
		<Piece NumberOfPoints="1206" NumberOfPolys="1000">
			<Points>
				<DataArray type="Float32" NumberOfComponents="3" format="ascii">
 0 0 0 0.005 0 0 0.01 0 0 0.015 0 0 0.02 0 0 0.025 0 0 0.03 0 0 0.035 0 0 0.04 0 0 0.045 0 0 0.05 0 0 0.055 0 0 0.06 0 0 0.065 0 0 0.07 0 0 0.075 0 0 0.08 0 0 0.085 0 0 0.09 0 0 0.095 0 0 0.1 0 0 0.105 0 0 0.11 0 0 0.115 0 0 0.12 0 0 0.125 0 0 0.13 0 0 0.135 0 0 0.14 0 0 0.145 0 0 0.15 0 0 0.155 0 0 0.16 0 0 0.165 0 0 0.17 0 0 0.175 0 0 0.18 0 0 0.185 0 0 0.19 0 0 0.195 0 0 0.2 0 0 0.205 0 0 0.21 0 0 0.215 0 0 0.22 0 0 0.225 0 0 0.23 0 0 0.235 0 0 0.24 0 0 0.245 0 0 0.25 0 0 0.255 0 0 0.26 0 0 0.265 0 0 0.27 0 0 0.275 0 0 0.28 0 0 0.285 0 0 0.29 0 0 0.295 0 0 0.3 0 0 0.305 0 0 0.31 0 0 0.315 0 0 0.32 0 0 0.325 0 0 0.33 0 0 0.335 0 0 0.34 0 0 0.345 0 0 0.35 0 0 0.355 0 0 0.36 0 0 0.365 0 0 0.37 0 0 0.375 0 0 0.38 0 0 0.385 0 0 0.39 0 0 0.395 0 0 0.4 0 0 0.405 0 0 0.41 0 0 0.415 0 0 0.42 0 0 0.425 0 0 0.43 0 0 0.435 0 0 0.44 0 0 0.445 0 0 0.45 0 0 0.455 0 0 0.46 0 0 0.465 0 0 0.47 0 0 0.475 0 0 0.48 0 0 0.485 0 0 0.49 0 0 0.495 0 0 0.5 0 0 0.505 0 0 0.51 0 0 0.515 0 0 0.52 0 0 0.525 0 0 0.53 0 0 0.535 0 0 0.54 0 0 0.545 0 0 0.55 0 0 0.555 0 0 0.56 0 0 0.565 0 0 0.57 0 0 0.575 0 0 0.58 0 0 0.585 0 0 0.59 0 0 0.595 0 0 0.6 0 0 0.605 0 0 0.61 0 0 0.615 0 0 0.62 0 0 0.625 0 0 0.63 0 0 0.635 0 0 0.64 0 0 0.645 0 0 0.65 0 0 0.655 0 0 0.66 0 0 0.665 0 0 0.67 0 0 0.675 0 0 0.68 0 0 0.685 0 0 0.69 0 0 0.695 0 0 0.7 0 0 0.705 0 0 0.71 0 0 0.715 0 0 0.72 0 0 0.725 0 0 0.73 0 0 0.735 0 0 0.74 0 0 0.745 0 0 0.75 0 0 0.755 0 0 0.76 0 0 0.765 0 0 0.77 0 0 0.775 0 0 0.78 0 0 0.785 0 0 0.79 0 0 0.795 0 0 0.8 0 0 0.805 0 0 0.81 0 0 0.815 0 0 0.82 0 0 0.825 0 0 0.83 0 0 0.835 0 0 0.84 0 0 0.845 0 0 0.85 0 0 0.855 0 0 0.86 0 0 0.865 0 0 0.87 0 0 0.875 0 0 0.88 0 0 0.885 0 0 0.89 0 0 0.895 0 0 0.9 0 0 0.905 0 0 0.91 0 0 0.915 0 0 0.92 0 0 0.925 0 0 0.93 0 0 0.935 0 0 0.94 0 0 0.945 0 0 0.95 0 0 0.955 0 0 0.96 0 0 0.965 0 0 0.97 0 0 0.975 0 0 0.98 0 0 0.985 0 0 0.99 0 0 0.995 0 0 1 0 0 0 0.02 0 0.005 0.02 0 0.01 0.02 0 0.015 0.02 0 0.02 0.02 0 0.025 0.02 0 0.03 0.02 0 0.035 0.02 0 0.04 0.02 0 0.045 0.02 0 0.05 0.02 0 0.055 0.02 0 0.06 0.02 0 0.065 0.02 0 0.07 0.02 0 0.075 0.02 0 0.08 0.02 0 0.085 0.02 0 0.09 0.02 0 0.095 0.02 0 0.1 0.02 0 0.105 0.02 0 0.11 0.02 0 0.115 0.02 0 0.12 0.02 0 0.125 0.02 0 0.13 0.02 0 0.135 0.02 0 0.14 0.02 0 0.145 0.02 0 0.15 0.02 0 0.155 0.02 0 0.16 0.02 0 0.165 0.02 0 0.17 0.02 0 0.175 0.02 0 0.18 0.02 0 0.185 0.02 0 0.19 0.02 0 0.195 0.02 0 0.2 0.02 0 0.205 0.02 0 0.21 0.02 0 0.215 0.02 0 0.22 0.02 0 0.225 0.02 0 0.23 0.02 0 0.235 0.02 0 0.24 0.02 0 0.245 0.02 0 0.25 0.02 0 0.255 0.02 0 0.26 0.02 0 0.265 0.02 0 0.27 0.02 0 0.275 0.02 0 0.28 0.02 0 0.285 0.02 0 0.29 0.02 0 0.295 0.02 0 0.3 0.02 0 0.305 0.02 0 0.31 0.02 0 0.315 0.02 0 0.32 0.02 0 0.325 0.02 0 0.33 0.02 0 0.335 0.02 0 0.34 0.02 0 0.345 0.02 0 0.35 0.02 0 0.355 0.02 0 0.36 0.02 0 0.365 0.02 0 0.37 0.02 0 0.375 0.02 0 0.38 0.02 0 0.385 0.02 0 0.39 0.02 0 0.395 0.02 0 0.4 0.02 0 0.405 0.02 0 0.41 0.02 0 0.415 0.02 0 0.42 0.02 0 0.425 0.02 0 0.43 0.02 0 0.435 0.02 0 0.44 0.02 0 0.445 0.02 0 0.45 0.02 0 0.455 0.02 0 0.46 0.02 0 0.465 0.02 0 0.47 0.02 0 0.475 0.02 0 0.48 0.02 0 0.485 0.02 0 0.49 0.02 0 0.495 0.02 0 0.5 0.02 0 0.505 0.02 0 0.51 0.02 0 0.515 0.02 0 0.52 0.02 0 0.525 0.02 0 0.53 0.02 0 0.535 0.02 0 0.54 0.02 0 0.545 0.02 0 0.55 0.02 0 0.555 0.02 0 0.56 0.02 0 0.565 0.02 0 0.57 0.02 0 0.575 0.02 0 0.58 0.02 0 0.585 0.02 0 0.59 0.02 0 0.595 0.02 0 0.6 0.02 0 0.605 0.02 0 0.61 0.02 0 0.615 0.02 0 0.62 0.02 0 0.625 0.02 0 0.63 0.02 0 0.635 0.02 0 0.64 0.02 0 0.645 0.02 0 0.65 0.02 0 0.655 0.02 0 0.66 0.02 0 0.665 0.02 0 0.67 0.02 0 0.675 0.02 0 0.68 0.02 0 0.685 0.02 0 0.69 0.02 0 0.695 0.02 0 0.7 0.02 0 0.705 0.02 0 0.71 0.02 0 0.715 0.02 0 0.72 0.02 0 0.725 0.02 0 0.73 0.02 0 0.735 0.02 0 0.74 0.02 0 0.745 0.02 0 0.75 0.02 0 0.755 0.02 0 0.76 0.02 0 0.765 0.02 0 0.77 0.02 0 0.775 0.02 0 0.78 0.02 0 0.785 0.02 0 0.79 0.02 0 0.795 0.02 0 0.8 0.02 0 0.805 0.02 0 0.81 0.02 0 0.815 0.02 0 0.82 0.02 0 0.825 0.02 0 0.83 0.02 0 0.835 0.02 0 0.84 0.02 0 0.845 0.02 0 0.85 0.02 0 0.855 0.02 0 0.86 0.02 0 0.865 0.02 0 0.87 0.02 0 0.875 0.02 0 0.88 0.02 0 0.885 0.02 0 0.89 0.02 0 0.895 0.02 0 0.9 0.02 0 0.905 0.02 0 0.91 0.02 0 0.915 0.02 0 0.92 0.02 0 0.925 0.02 0 0.93 0.02 0 0.935 0.02 0 0.94 0.02 0 0.945 0.02 0 0.95 0.02 0 0.955 0.02 0 0.96 0.02 0 0.965 0.02 0 0.97 0.02 0 0.975 0.02 0 0.98 0.02 0 0.985 0.02 0 0.99 0.02 0 0.995 0.02 0 1 0.02 0 0 0.04 0 0.005 0.04 0 0.01 0.04 0 0.015 0.04 0 0.02 0.04 0 0.025 0.04 0 0.03 0.04 0 0.035 0.04 0 0.04 0.04 0 0.045 0.04 0 0.05 0.04 0 0.055 0.04 0 0.06 0.04 0 0.065 0.04 0 0.07 0.04 0 0.075 0.04 0 0.08 0.04 0 0.085 0.04 0 0.09 0.04 0 0.095 0.04 0 0.1 0.04 0 0.105 0.04 0 0.11 0.04 0 0.115 0.04 0 0.12 0.04 0 0.125 0.04 0 0.13 0.04 0 0.135 0.04 0 0.14 0.04 0 0.145 0.04 0 0.15 0.04 0 0.155 0.04 0 0.16 0.04 0 0.165 0.04 0 0.17 0.04 0 0.175 0.04 0 0.18 0.04 0 0.185 0.04 0 0.19 0.04 0 0.195 0.04 0 0.2 0.04 0 0.205 0.04 0 0.21 0.04 0 0.215 0.04 0 0.22 0.04 0 0.225 0.04 0 0.23 0.04 0 0.235 0.04 0 0.24 0.04 0 0.245 0.04 0 0.25 0.04 0 0.255 0.04 0 0.26 0.04 0 0.265 0.04 0 0.27 0.04 0 0.275 0.04 0 0.28 0.04 0 0.285 0.04 0 0.29 0.04 0 0.295 0.04 0 0.3 0.04 0 0.305 0.04 0 0.31 0.04 0 0.315 0.04 0 0.32 0.04 0 0.325 0.04 0 0.33 0.04 0 0.335 0.04 0 0.34 0.04 0 0.345 0.04 0 0.35 0.04 0 0.355 0.04 0 0.36 0.04 0 0.365 0.04 0 0.37 0.04 0 0.375 0.04 0 0.38 0.04 0 0.385 0.04 0 0.39 0.04 0 0.395 0.04 0 0.4 0.04 0 0.405 0.04 0 0.41 0.04 0 0.415 0.04 0 0.42 0.04 0 0.425 0.04 0 0.43 0.04 0 0.435 0.04 0 0.44 0.04 0 0.445 0.04 0 0.45 0.04 0 0.455 0.04 0 0.46 0.04 0 0.465 0.04 0 0.47 0.04 0 0.475 0.04 0 0.48 0.04 0 0.485 0.04 0 0.49 0.04 0 0.495 0.04 0 0.5 0.04 0 0.505 0.04 0 0.51 0.04 0 0.515 0.04 0 0.52 0.04 0 0.525 0.04 0 0.53 0.04 0 0.535 0.04 0 0.54 0.04 0 0.545 0.04 0 0.55 0.04 0 0.555 0.04 0 0.56 0.04 0 0.565 0.04 0 0.57 0.04 0 0.575 0.04 0 0.58 0.04 0 0.585 0.04 0 0.59 0.04 0 0.595 0.04 0 0.6 0.04 0 0.605 0.04 0 0.61 0.04 0 0.615 0.04 0 0.62 0.04 0 0.625 0.04 0 0.63 0.04 0 0.635 0.04 0 0.64 0.04 0 0.645 0.04 0 0.65 0.04 0 0.655 0.04 0 0.66 0.04 0 0.665 0.04 0 0.67 0.04 0 0.675 0.04 0 0.68 0.04 0 0.685 0.04 0 0.69 0.04 0 0.695 0.04 0 0.7 0.04 0 0.705 0.04 0 0.71 0.04 0 0.715 0.04 0 0.72 0.04 0 0.725 0.04 0 0.73 0.04 0 0.735 0.04 0 0.74 0.04 0 0.745 0.04 0 0.75 0.04 0 0.755 0.04 0 0.76 0.04 0 0.765 0.04 0 0.77 0.04 0 0.775 0.04 0 0.78 0.04 0 0.785 0.04 0 0.79 0.04 0 0.795 0.04 0 0.8 0.04 0 0.805 0.04 0 0.81 0.04 0 0.815 0.04 0 0.82 0.04 0 0.825 0.04 0 0.83 0.04 0 0.835 0.04 0 0.84 0.04 0 0.845 0.04 0 0.85 0.04 0 0.855 0.04 0 0.86 0.04 0 0.865 0.04 0 0.87 0.04 0 0.875 0.04 0 0.88 0.04 0 0.885 0.04 0 0.89 0.04 0 0.895 0.04 0 0.9 0.04 0 0.905 0.04 0 0.91 0.04 0 0.915 0.04 0 0.92 0.04 0 0.925 0.04 0 0.93 0.04 0 0.935 0.04 0 0.94 0.04 0 0.945 0.04 0 0.95 0.04 0 0.955 0.04 0 0.96 0.04 0 0.965 0.04 0 0.97 0.04 0 0.975 0.04 0 0.98 0.04 0 0.985 0.04 0 0.99 0.04 0 0.995 0.04 0 1 0.04 0 0 0.06 0 0.005 0.06 0 0.01 0.06 0 0.015 0.06 0 0.02 0.06 0 0.025 0.06 0 0.03 0.06 0 0.035 0.06 0 0.04 0.06 0 0.045 0.06 0 0.05 0.06 0 0.055 0.06 0 0.06 0.06 0 0.065 0.06 0 0.07 0.06 0 0.075 0.06 0 0.08 0.06 0 0.085 0.06 0 0.09 0.06 0 0.095 0.06 0 0.1 0.06 0 0.105 0.06 0 0.11 0.06 0 0.115 0.06 0 0.12 0.06 0 0.125 0.06 0 0.13 0.06 0 0.135 0.06 0 0.14 0.06 0 0.145 0.06 0 0.15 0.06 0 0.155 0.06 0 0.16 0.06 0 0.165 0.06 0 0.17 0.06 0 0.175 0.06 0 0.18 0.06 0 0.185 0.06 0 0.19 0.06 0 0.195 0.06 0 0.2 0.06 0 0.205 0.06 0 0.21 0.06 0 0.215 0.06 0 0.22 0.06 0 0.225 0.06 0 0.23 0.06 0 0.235 0.06 0 0.24 0.06 0 0.245 0.06 0 0.25 0.06 0 0.255 0.06 0 0.26 0.06 0 0.265 0.06 0 0.27 0.06 0 0.275 0.06 0 0.28 0.06 0 0.285 0.06 0 0.29 0.06 0 0.295 0.06 0 0.3 0.06 0 0.305 0.06 0 0.31 0.06 0 0.315 0.06 0 0.32 0.06 0 0.325 0.06 0 0.33 0.06 0 0.335 0.06 0 0.34 0.06 0 0.345 0.06 0 0.35 0.06 0 0.355 0.06 0 0.36 0.06 0 0.365 0.06 0 0.37 0.06 0 0.375 0.06 0 0.38 0.06 0 0.385 0.06 0 0.39 0.06 0 0.395 0.06 0 0.4 0.06 0 0.405 0.06 0 0.41 0.06 0 0.415 0.06 0 0.42 0.06 0 0.425 0.06 0 0.43 0.06 0 0.435 0.06 0 0.44 0.06 0 0.445 0.06 0 0.45 0.06 0 0.455 0.06 0 0.46 0.06 0 0.465 0.06 0 0.47 0.06 0 0.475 0.06 0 0.48 0.06 0 0.485 0.06 0 0.49 0.06 0 0.495 0.06 0 0.5 0.06 0 0.505 0.06 0 0.51 0.06 0 0.515 0.06 0 0.52 0.06 0 0.525 0.06 0 0.53 0.06 0 0.535 0.06 0 0.54 0.06 0 0.545 0.06 0 0.55 0.06 0 0.555 0.06 0 0.56 0.06 0 0.565 0.06 0 0.57 0.06 0 0.575 0.06 0 0.58 0.06 0 0.585 0.06 0 0.59 0.06 0 0.595 0.06 0 0.6 0.06 0 0.605 0.06 0 0.61 0.06 0 0.615 0.06 0 0.62 0.06 0 0.625 0.06 0 0.63 0.06 0 0.635 0.06 0 0.64 0.06 0 0.645 0.06 0 0.65 0.06 0 0.655 0.06 0 0.66 0.06 0 0.665 0.06 0 0.67 0.06 0 0.675 0.06 0 0.68 0.06 0 0.685 0.06 0 0.69 0.06 0 0.695 0.06 0 0.7 0.06 0 0.705 0.06 0 0.71 0.06 0 0.715 0.06 0 0.72 0.06 0 0.725 0.06 0 0.73 0.06 0 0.735 0.06 0 0.74 0.06 0 0.745 0.06 0 0.75 0.06 0 0.755 0.06 0 0.76 0.06 0 0.765 0.06 0 0.77 0.06 0 0.775 0.06 0 0.78 0.06 0 0.785 0.06 0 0.79 0.06 0 0.795 0.06 0 0.8 0.06 0 0.805 0.06 0 0.81 0.06 0 0.815 0.06 0 0.82 0.06 0 0.825 0.06 0 0.83 0.06 0 0.835 0.06 0 0.84 0.06 0 0.845 0.06 0 0.85 0.06 0 0.855 0.06 0 0.86 0.06 0 0.865 0.06 0 0.87 0.06 0 0.875 0.06 0 0.88 0.06 0 0.885 0.06 0 0.89 0.06 0 0.895 0.06 0 0.9 0.06 0 0.905 0.06 0 0.91 0.06 0 0.915 0.06 0 0.92 0.06 0 0.925 0.06 0 0.93 0.06 0 0.935 0.06 0 0.94 0.06 0 0.945 0.06 0 0.95 0.06 0 0.955 0.06 0 0.96 0.06 0 0.965 0.06 0 0.97 0.06 0 0.975 0.06 0 0.98 0.06 0 0.985 0.06 0 0.99 0.06 0 0.995 0.06 0 1 0.06 0 0 0.08 0 0.005 0.08 0 0.01 0.08 0 0.015 0.08 0 0.02 0.08 0 0.025 0.08 0 0.03 0.08 0 0.035 0.08 0 0.04 0.08 0 0.045 0.08 0 0.05 0.08 0 0.055 0.08 0 0.06 0.08 0 0.065 0.08 0 0.07 0.08 0 0.075 0.08 0 0.08 0.08 0 0.085 0.08 0 0.09 0.08 0 0.095 0.08 0 0.1 0.08 0 0.105 0.08 0 0.11 0.08 0 0.115 0.08 0 0.12 0.08 0 0.125 0.08 0 0.13 0.08 0 0.135 0.08 0 0.14 0.08 0 0.145 0.08 0 0.15 0.08 0 0.155 0.08 0 0.16 0.08 0 0.165 0.08 0
[...]
			<PointData Scalars="VitesseX">
				<DataArray Name="VitesseX" type="Float32" format="ascii">
 0 5.26692e-15 9.0358e-15 1.02573e-14 -2.7353e-14 3.86128e-14 6.82818e-14 -5.97082e-14 -9.45502e-15 -8.32382e-14 4.36731e-14 -3.1709e-14 8.15578e-14 -8.68377e-14 1.10589e-14 1.2641e-14 -1.37237e-13 -2.96655e-14 -8.87594e-14 -3.80693e-14 -1.303e-13 -1.42966e-14 -1.40673e-13 -1.0701e-13 6.5994e-14 -1.10325e-13 -2.04455e-13 5.72454e-14 -1.44457e-13 -6.32439e-14 -1.35316e-13 -8.16887e-15 -9.08172e-14 -8.07741e-14 -1.02058e-13 -1.31074e-13 -9.82926e-14 -2.54803e-13 -4.27239e-14 -1.91187e-13 -1.35375e-13 -8.15998e-14 5.76227e-14 1.7401e-13 9.42689e-14 -1.83316e-13 4.74251e-14 -5.36497e-14 4.89554e-15 2.73421e-14 -2.02077e-13 -3.03898e-13 -2.83186e-13 2.19044e-13 1.98007e-13 -2.00855e-13 -4.00003e-14 -2.75904e-13 9.79451e-14 -1.31362e-13 -1.42511e-13 -1.5481e-13 -1.58186e-13 -3.17513e-13 -2.3915e-13 1.95788e-13 5.72939e-13 5.86178e-12 5.73374e-11 5.24401e-10 4.45859e-09 3.47883e-08 2.47905e-07 1.60401e-06 9.35772e-06 4.88142e-05 0.000225369 0.000909381 0.00315906 0.00929842 0.0229341 0.0474455 0.083229 0.126977 0.174353 0.222541 0.270432 0.317894 0.364785 0.41103 0.456567 0.501344 0.545309 0.588406 0.630556 0.671649 0.71152 0.749934 0.786559 0.82095 0.852536 0.880647 0.904575 0.923696 0.937615 0.946492 0.946523 0.945808 0.944233 0.94229 0.940205 0.93813 0.936044 0.934241 0.933901 0.962657 0.961961 0.943653 0.933441 0.931269 0.930276 0.929027 0.926205 0.920063 0.907498 0.884225 0.84464 0.782927 0.695062 0.581446 0.449395 0.313808 0.192322 0.101137 0.0455632 0.0181941 0.00676363 0.00241803 0.00084514 0.000290628 9.85202e-05 3.29306e-05 1.08498e-05 3.52197e-06 1.12585e-06 3.54252e-07 1.09676e-07 3.33994e-08 1.00005e-08 2.9441e-09 8.52294e-10 2.4142e-10 6.77402e-11 1.75873e-11 5.22575e-12 4.01795e-13 2.65609e-13 2.75063e-13 7.93438e-14 2.35799e-14 -3.23238e-13 -1.328e-13 -4.67487e-13 2.3809e-13 1.08935e-13 1.39024e-13 -2.39844e-13 -6.26667e-13 -6.86893e-13 8.97472e-13 -2.20598e-13 4.79588e-14 -2.68303e-13 -1.08787e-12 6.36723e-13 -6.90062e-13 -2.97917e-15 4.20374e-13 -6.43828e-13 7.42963e-13 -4.9742e-13 1.94695e-13 4.87492e-13 -2.34e-13 -6.33609e-14 -5.26387e-13 -6.64309e-13 1.43132e-13 -5.71807e-13 7.84048e-13 -1.26897e-12 -7.09391e-13 1.09296e-12 -4.91297e-13 -2.18528e-13 -5.07257e-13 -1.0035e-13 7.19164e-13 -2.52633e-13 1.02788e-13 0 0 2.1953e-14 1.5621e-14 1.34407e-14 3.22097e-14 7.02458e-15 -3.76404e-14 1.53606e-14 -3.79031e-14 7.33038e-15 -6.78242e-14 1.14533e-14 -3.56022e-14 3.58735e-14 -3.65709e-14 -3.26275e-14 3.65523e-14 -1.34734e-13 -3.32879e-14 -6.9251e-14 -1.1394e-13 -5.59546e-14 3.11244e-14 -8.69973e-14 -2.13482e-13 -9.10288e-14 6.41142e-14 -1.85394e-13 -4.58511e-14 -7.04825e-15 -7.74762e-14 -1.28223e-13 -5.55149e-14 -6.81865e-14 -1.32134e-13 -1.84107e-13 -1.09738e-13 -4.36768e-14 -1.82526e-13 -6.49696e-14 -4.00837e-14 -1.3178e-13 8.54908e-14 -4.77994e-16 -8.48067e-14 1.11201e-13 -1.00859e-13 1.37522e-14 -6.06395e-14 -2.54919e-13 -2.58236e-13 -3.57061e-14 1.35129e-13 -3.6063e-13 -1.33263e-13 8.79094e-14 -8.43161e-14 -2.60026e-14 -1.15235e-13 8.4041e-14 -1.20924e-13 -1.65586e-13 -1.12737e-13 -2.16506e-13 2.13624e-14 1.41494e-15 4.87337e-13 5.83368e-12 5.70036e-11 5.24954e-10 4.45868e-09 3.47879e-08 2.47905e-07 1.60401e-06 9.35772e-06 4.88142e-05 0.000225369 0.000909381 0.00315906 0.00929842 0.0229341 0.0474455 0.083229 0.126977 0.174353 0.222541 0.270432 0.317894 0.364785 0.41103 0.456567 0.501344 0.545309 0.588406 0.630556 0.671649 0.71152 0.749934 0.786559 0.82095 0.852536 0.880647 0.904575 0.923696 0.937615 0.946492 0.946523 0.945808 0.944233 0.94229 0.940205 0.93813 0.936044 0.934241 0.933901 0.962657 0.961961 0.943653 0.933441 0.931269 0.930276 0.929027 0.926205 0.920063 0.907498 0.884225 0.84464 0.782927 0.695062 0.581446 0.449395 0.313808 0.192322 0.101137 0.0455632 0.0181941 0.00676363 0.00241803 0.00084514 0.000290628 9.85202e-05 3.29306e-05 1.08498e-05 3.52197e-06 1.12585e-06 3.54252e-07 1.09676e-07 3.33984e-08 1.00016e-08 2.94412e-09 8.5121e-10 2.42433e-10 6.69539e-11 1.86465e-11 4.3739e-12 1.48284e-12 -3.40823e-13 -2.4618e-13 -7.26063e-15 -2.4858e-13 5.47782e-13 -4.48221e-13 -2.82026e-13 -1.57719e-13 -2.49481e-13 -1.47033e-13 6.93776e-14 -3.27149e-14 3.12012e-13 -5.33583e-13 -1.87554e-13 -3.95082e-13 -2.55966e-13 3.95506e-13 -7.6143e-13 7.341e-15 -9.38101e-14 -5.54734e-13 6.0206e-13 -3.8525e-13 4.9422e-13 -1.18279e-13 -2.43929e-13 6.1762e-13 -2.01044e-13 -1.08443e-13 -1.76197e-13 -4.46157e-13 7.44648e-13 -1.26025e-12 2.54505e-13 2.41662e-13 -1.21752e-12 -1.90063e-13 1.32976e-13 1.84436e-13 1.69615e-13 -4.421e-13 6.9272e-13 2.84165e-13 0 0 -9.58677e-16 8.47146e-15 3.00456e-14 1.36201e-14 -3.5256e-15 -3.41139e-15 -1.67387e-14 3.37479e-15 -7.82992e-15 -2.99107e-14 -4.60251e-14 1.41866e-14 -2.27745e-14 -1.89195e-14 -2.57083e-14 -6.05431e-14 2.87683e-15 1.31394e-15 -1.0123e-13 -5.95351e-15 -8.23549e-14 -7.44684e-14 -1.00863e-13 -1.35383e-14 -3.91529e-14 -9.2592e-14 1.14038e-14 -1.83402e-13 -6.60912e-14 -3.50131e-14 -5.2637e-14 -1.29117e-13 -1.18179e-13 -1.125e-13 -6.7225e-14 -1.45928e-13 -3.35445e-14 -9.89217e-14 -1.32309e-13 -5.22465e-14 3.81261e-14 -5.67939e-14 -9.90776e-14 -3.72684e-14 -5.50761e-14 9.16727e-14 -5.83382e-14 -1.83742e-13 -1.79815e-13 -2.21642e-13 -1.23095e-13 -2.16899e-13 -6.43765e-15 -1.58175e-13 -5.16671e-14 1.2214e-13 -1.88262e-13 1.18096e-13 3.62907e-14 2.24894e-15 -4.65272e-14 -9.04197e-14 -2.09372e-14 -1.23446e-13 2.15533e-14 4.21607e-13 5.97059e-12 5.70009e-11 5.24796e-10 4.45874e-09 3.47882e-08 2.47905e-07 1.60401e-06 9.35772e-06 4.88142e-05 0.000225369 0.000909381 0.00315906 0.00929842 0.0229341 0.0474455 0.083229 0.126977 0.174353 0.222541 0.270432 0.317894 0.364785 0.41103 0.456567 0.501344 0.545309 0.588406 0.630556 0.671649 0.71152 0.749934 0.786559 0.82095 0.852536 0.880647 0.904575 0.923696 0.937615 0.946492 0.946523 0.945808 0.944233 0.94229 0.940205 0.93813 0.936044 0.934241 0.933901 0.962657 0.961961 0.943653 0.933441 0.931269 0.930276 0.929027 0.926205 0.920063 0.907498 0.884225 0.84464 0.782927 0.695062 0.581446 0.449395 0.313808 0.192322 0.101137 0.0455632 0.0181941 0.00676363 0.00241803 0.00084514 0.000290628 9.85202e-05 3.29306e-05 1.08498e-05 3.52197e-06 1.12585e-06 3.54252e-07 1.09676e-07 3.33991e-08 1.00009e-08 2.944e-09 8.51667e-10 2.41722e-10 6.75884e-11 1.83855e-11 4.92758e-12 1.00529e-12 -1.97757e-13 -1.10632e-13 -6.00602e-14 -1.41847e-13 -5.01574e-13 8.70898e-14 2.05355e-13 -3.65754e-13 -2.33744e-13 -4.81752e-13 1.90248e-13 1.47804e-13 -1.71432e-13 -2.32704e-13 -2.23477e-13 -1.68352e-13 -8.24729e-14 -4.3246e-13 -1.37631e-13 -4.24843e-13 -1.9332e-13 -9.67336e-14 -5.49574e-14 2.11031e-13 2.26849e-13 -2.65487e-13 3.24013e-13 -3.8793e-13 2.08422e-13 2.37561e-13 2.05894e-13 1.84527e-13 -7.95283e-13 1.80195e-13 -2.02412e-13 -3.74073e-13 -4.06354e-13 -2.61629e-13 8.65954e-14 5.3297e-13 -2.51333e-13 8.67025e-14 1.59531e-14 6.99633e-13 0 0 -1.33532e-14 -1.17117e-14 -1.8885e-14 -2.07598e-14 5.06328e-16 1.55677e-14 -3.8031e-14 -1.4621e-14 2.00391e-14 9.27323e-15 1.31497e-14 2.22657e-14 -4.72676e-14 8.2791e-15 -2.65346e-14 -5.7848e-14 -6.55992e-14 -7.73725e-14 -1.47018e-14 2.6873e-14 -4.04852e-14 1.62709e-14 -8.99486e-14 3.84638e-14 -7.74141e-14 -6.27015e-14 -7.75102e-14 -1.13416e-13 -6.96491e-14 -2.29776e-14 -1.05983e-13 -2.09448e-13 -1.04258e-13 -6.08477e-14 -1.92886e-13 -4.27673e-14 -1.27063e-13 3.30219e-14 -1.17378e-13 -9.72923e-14 -3.95532e-14 6.07181e-15 6.39382e-14 -8.24107e-14 -3.32814e-14 -7.72606e-14 -5.5804e-14 -4.36579e-14 -1.29216e-13 -7.14244e-14 -3.57087e-13 -3.5532e-13 1.07978e-13 -1.20692e-13 -3.4629e-14 -4.47054e-14 4.31243e-14 1.98163e-13 5.47572e-14 -2.21294e-13 1.21578e-13 -4.45219e-14 -3.70431e-13 -1.60563e-13 1.05646e-13 9.38599e-13 5.69129e-12 5.72229e-11 5.24665e-10 4.45902e-09 3.47882e-08 2.47905e-07 1.60401e-06 9.35772e-06 4.88142e-05 0.000225369 0.000909381 0.00315906 0.00929842 0.0229341 0.0474455 0.083229 0.126977 0.174353 0.222541 0.270432 0.317894 0.364785 0.41103 0.456567 0.501344 0.545309 0.588406 0.630556 0.671649 0.71152 0.749934 0.786559 0.82095 0.852536 0.880647 0.904575 0.923696 0.937615 0.946492 0.946523 0.945808 0.944233 0.94229 0.940205 0.93813 0.936044 0.934241 0.933901 0.962657 0.961961 0.943653 0.933441 0.931269 0.930276 0.929027 0.926205 0.920063 0.907498 0.884225 0.84464 0.782927 0.695062 0.581446 0.449395 0.313808 0.192322 0.101137 0.0455632 0.0181941 0.00676363 0.00241803 0.00084514 0.000290628 9.85202e-05 3.29306e-05 1.08498e-05 3.52197e-06 1.12585e-06 3.54252e-07 1.09676e-07 3.33988e-08 1.00008e-08 2.94401e-09 8.51691e-10 2.42087e-10 6.76421e-11 1.84222e-11 5.09729e-12 7.66834e-13 5.19692e-13 1.39011e-13 -3.57115e-13 -4.28979e-13 -2.21463e-13 3.77126e-13 2.73996e-13 2.76251e-15 -5.87278e-13 -4.65985e-14 -5.13866e-13 2.67216e-14 -3.88135e-13 4.88077e-13 -3.43065e-13 -3.19355e-13 -2.65222e-13 -5.0415e-13 1.72952e-14 -4.04224e-13 -4.74817e-13 3.98302e-13 -4.03239e-13 2.42428e-13 -1.2277e-13 -3.6419e-13 1.6655e-13 -2.12096e-13 -2.28524e-13 2.02949e-13 4.65371e-13 2.05924e-13 -7.06196e-13 8.85326e-14 -7.22608e-13 -7.61682e-13 3.03975e-13 1.32848e-13 -7.19823e-13 -1.07512e-13 -5.72593e-13 8.42897e-13 1.53852e-13 -4.69612e-13 0 0 -8.39476e-15 -2.53092e-14 -4.67707e-14 -2.96717e-14 -3.56218e-14 -4.63029e-14 2.94727e-14 -1.71117e-14 3.52827e-14 -4.65251e-14 2.77638e-14 -6.1884e-14 3.66758e-14 1.76266e-14 -7.79932e-15 8.21504e-14 -1.15724e-13 1.65475e-14 -8.79229e-15 -5.39616e-14 -1.04802e-14 5.09507e-14 -4.74579e-14 -1.6977e-13 -9.4572e-14 -6.83483e-14 -2.75957e-13 6.37245e-14 -2.90637e-14 -5.99037e-14 -1.50267e-13 -7.78259e-14 -6.75309e-14 -6.72453e-14 -1.67547e-13 -9.71958e-14 -3.8508e-14 -1.2565e-13 -6.26423e-14 -1.48676e-13 -8.16939e-14 1.54406e-13 3.92836e-14 -3.61697e-14 1.70716e-13 -1.9397e-13 8.71087e-15 -1.68768e-14 -1.87278e-13 -1.00987e-13 -1.64141e-13 -7.45665e-14 -2.9319e-13 -8.70674e-14 1.20431e-13 -1.86445e-13 2.91474e-13 -1.29544e-13 1.84867e-14 -2.26229e-13 -1.46809e-13 -1.2034e-13 -3.4768e-13 7.97122e-14 4.7191e-14 1.11877e-12 5.79643e-12 5.73064e-11 5.25037e-10 4.4588e-09 3.47879e-08 2.47905e-07 1.60401e-06 9.35772e-06 4.88142e-05 0.000225369 0.000909381 0.00315906 0.00929842 0.0229341 0.0474455 0.083229 0.126977 0.174353 0.222541 0.270432 0.317894 0.364785 0.41103 0.456567 0.501344 0.545309 0.588406 0.630556 0.671649 0.71152 0.749934 0.786559 0.82095 0.852536 0.880647 0.904575 0.923696 0.937615 0.946492 0.946523 0.945808 0.944233 0.94229 0.940205 0.93813 0.936044 0.934241 0.933901 0.962657 0.961961 0.943653 0.933441 0.931269 0.930276 0.929027 0.926205 0.920063 0.907498 0.884225 0.84464 0.782927 0.695062 0.581446 0.449395 0.313808 0.192322 0.101137 0.0455632 0.0181941 0.00676363 0.00241803 0.00084514 0.000290628 9.85202e-05 3.29306e-05 1.08498e-05 3.52197e-06 1.12585e-06 3.54252e-07 1.09676e-07 3.3398e-08 1.00016e-08 2.94408e-09 8.51166e-10 2.42432e-10 6.72614e-11 1.89233e-11 4.41567e-12 1.79214e-12 6.39423e-13 4.86234e-13 -1.08154e-13 -4.02511e-13 5.35778e-13 -5.03182e-13 -1.61284e-13 -1.39047e-14 -4.66819e-13 -1.5356e-13 -2.82684e-13 7.75643e-15 3.1566e-13 -2.69907e-13 -2.73823e-13 -4.41178e-13 -2.71448e-13 2.96068e-13 -9.25169e-13 -1.9242e-13 -4.38114e-13 -6.65953e-13 6.57463e-13 -7.58689e-13 4.85542e-13 -2.03547e-13 -5.10475e-13 5.37769e-13 -1.43424e-13 1.43667e-13 5.7738e-14 -3.81444e-13 6.87527e-13 -1.5227e-12 -2.55911e-13 1.72568e-13 -8.02818e-13 6.04791e-13 -5.36062e-13 -1.82391e-14 1.47704e-13 -1.79533e-13 7.67304e-13 -1.07638e-12 0 0 -3.06396e-14 -3.24584e-14 -1.23043e-14 -8.2356e-14 -5.47439e-14 1.29985e-14 1.11007e-14 6.81192e-14 -8.30716e-14 7.90323e-15 -1.17437e-13 1.28362e-14 -3.6247e-14 6.50565e-14 6.39501e-14 -5.14313e-14 1.45307e-13 1.68284e-13 -9.02083e-14 -7.59957e-14 -7.08716e-15 -2.82499e-13 -4.97603e-14 4.94138e-14 -4.0889e-14 -5.29161e-13 5.39468e-14 -6.52777e-14 -1.00159e-13 -1.24241e-13 5.44349e-14 2.5223e-14 -1.07305e-13 -7.5587e-14 1.53368e-13 -2.79531e-13 -5.74292e-14 -1.92861e-13 -2.16394e-13 -2.62469e-13 1.73931e-13 6.97213e-14 -7.24989e-14 2.81828e-13 -1.07876e-13 1.9907e-13 -6.88007e-14 -1.87747e-13 6.1425e-14 -1.88015e-13 -9.27839e-14 -4.25735e-13 1.25093e-13 2.15431e-13 -1.69887e-13 8.9432e-14 -1.03724e-13 -9.08076e-14 -2.99403e-13 9.39637e-14 -4.53466e-13 -2.65189e-13 1.19126e-13 -4.82156e-14 1.19155e-13 8.01822e-13 6.34587e-12 5.74989e-11 5.2483e-10 4.45826e-09 3.47883e-08 2.47905e-07 1.60401e-06 9.35772e-06 4.88142e-05 0.000225369 0.000909381 0.00315906 0.00929842 0.0229341 0.0474455 0.083229 0.126977 0.174353 0.222541 0.270432 0.317894 0.364785 0.41103 0.456567 0.501344 0.545309 0.588406 0.630556 0.671649 0.71152 0.749934 0.786559 0.82095 0.852536 0.880647 0.904575 0.923696 0.937615 0.946492 0.946523 0.945808 0.944233 0.94229 0.940205 0.93813 0.936044 0.934241 0.933901 0.962657 0.961961 0.943653 0.933441 0.931269 0.930276 0.929027 0.926205 0.920063 0.907498 0.884225 0.84464 0.782927 0.695062 0.581446 0.449395 0.313808 0.192322 0.101137 0.0455632 0.0181941 0.00676363 0.00241803 0.00084514 0.000290628 9.85202e-05 3.29306e-05 1.08498e-05 3.52197e-06 1.12585e-06 3.54253e-07 1.09676e-07 3.33994e-08 1.00008e-08 2.944e-09 8.52159e-10 2.40686e-10 6.8248e-11 1.80676e-11 4.96989e-12 1.49732e-12 7.91202e-13 1.2406e-12 4.71665e-13 2.89981e-13 -9.07467e-13 -8.22794e-13 -3.63286e-13 -2.11314e-13 3.81326e-13 -7.44335e-13 4.64261e-13 -3.03559e-13 -2.46191e-13 -1.67373e-14 -1.5396e-13 2.57774e-13 6.623e-14 -1.14337e-12 -6.08497e-16 -1.13082e-12 -1.28593e-13 -7.92135e-13 1.63541e-13 -6.671e-14 1.84462e-13 2.21564e-13 2.69327e-13 -7.4537e-13 9.25771e-13 4.70589e-14 -7.15393e-13 2.29767e-13 -8.64222e-13 4.42485e-13 -1.24941e-12 -7.23605e-14 5.01697e-13 3.09459e-13 5.62319e-14 3.68357e-13 4.98349e-13 -2.68092e-13 -3.79264e-13 -2.79819e-13 0
				</DataArray>
				<DataArray Name="VitesseY" type="Float32" format="ascii">