<?xml version="1.0"?>
<VTKFile type="PolyData">
	<PolyData>
		<Piece NumberOfPoints="1206" NumberOfPolys="1000">
			<Points>
				<DataArray type="Float32" NumberOfComponents="3" format="ascii">
 0 0 0 0.005 0 0 0.01 0 0 0.015 0 0 0.02 0 0 0.025 0 0 0.03 0 0 0.035 0 0 0.04 0 0 0.045 0 0 0.05 0 0 0.055 0 0 0.06 0 0 0.065 0 0 0.07 0 0 0.075 0 0 0.08 0 0 0.085 0 0 0.09 0 0 0.095 0 0 0.1 0 0 0.105 0 0 0.11 0 0 0.115 0 0 0.12 0 0 0.125 0 0 0.13 0 0 0.135 0 0 0.14 0 0 0.145 0 0 0.15 0 0 0.155 0 0 0.16 0 0 0.165 0 0 0.17 0 0 0.175 0 0 0.18 0 0 0.185 0 0 0.19 0 0 0.195 0 0 0.2 0 0 0.205 0 0 0.21 0 0 0.215 0 0 0.22 0 0 0.225 0 0 0.23 0 0 0.235 0 0 0.24 0 0 0.245 0 0 0.25 0 0 0.255 0 0 0.26 0 0 0.265 0 0 0.27 0 0 0.275 0 0 0.28 0 0 0.285 0 0 0.29 0 0 0.295 0 0 0.3 0 0 0.305 0 0 0.31 0 0 0.315 0 0 0.32 0 0 0.325 0 0 0.33 0 0 0.335 0 0 0.34 0 0 0.345 0 0 0.35 0 0 0.355 0 0 0.36 0 0 0.365 0 0 0.37 0 0 0.375 0 0 0.38 0 0 0.385 0 0 0.39 0 0 0.395 0 0 0.4 0 0 0.405 0 0 0.41 0 0 0.415 0 0 0.42 0 0 0.425 0 0 0.43 0 0 0.435 0 0 0.44 0 0 0.445 0 0 0.45 0 0 0.455 0 0 0.46 0 0 0.465 0 0 0.47 0 0 0.475 0 0 0.48 0 0 0.485 0 0 0.49 0 0 0.495 0 0 0.5 0 0 0.505 0 0 0.51 0 0 0.515 0 0 0.52 0 0 0.525 0 0 0.53 0 0 0.535 0 0 0.54 0 0 0.545 0 0 0.55 0 0 0.555 0 0 0.56 0 0 0.565 0 0 0.57 0 0 0.575 0 0 0.58 0 0 0.585 0 0 0.59 0 0 0.595 0 0 0.6 0 0 0.605 0 0 0.61 0 0 0.615 0 0 0.62 0 0 0.625 0 0 0.63 0 0 0.635 0 0 0.64 0 0 0.645 0 0 0.65 0 0 0.655 0 0 0.66 0 0 0.665 0 0 0.67 0 0 0.675 0 0 0.68 0 0 0.685 0 0 0.69 0 0 0.695 0 0 0.7 0 0 0.705 0 0 0.71 0 0 0.715 0 0 0.72 0 0 0.725 0 0 0.73 0 0 0.735 0 0 0.74 0 0 0.745 0 0 0.75 0 0 0.755 0 0 0.76 0 0 0.765 0 0 0.77 0 0 0.775 0 0 0.78 0 0 0.785 0 0 0.79 0 0 0.795 0 0 0.8 0 0 0.805 0 0 0.81 0 0 0.815 0 0 0.82 0 0 0.825 0 0 0.83 0 0 0.835 0 0 0.84 0 0 0.845 0 0 0.85 0 0 0.855 0 0 0.86 0 0 0.865 0 0 0.87 0 0 0.875 0 0 0.88 0 0 0.885 0 0 0.89 0 0 0.895 0 0 0.9 0 0 0.905 0 0 0.91 0 0 0.915 0 0 0.92 0 0 0.925 0 0 0.93 0 0 0.935 0 0 0.94 0 0 0.945 0 0 0.95 0 0 0.955 0 0 0.96 0 0 0.965 0 0 0.97 0 0 0.975 0 0 0.98 0 0 0.985 0 0 0.99 0 0 0.995 0 0 1 0 0 0 0.02 0 0.005 0.02 0 0.01 0.02 0 0.015 0.02 0 0.02 0.02 0 0.025 0.02 0 0.03 0.02 0 0.035 0.02 0 0.04 0.02 0 0.045 0.02 0 0.05 0.02 0 0.055 0.02 0 0.06 0.02 0 0.065 0.02 0 0.07 0.02 0 0.075 0.02 0 0.08 0.02 0 0.085 0.02 0 0.09 0.02 0 0.095 0.02 0 0.1 0.02 0 0.105 0.02 0 0.11 0.02 0 0.115 0.02 0 0.12 0.02 0 0.125 0.02 0 0.13 0.02 0 0.135 0.02 0 0.14 0.02 0 0.145 0.02 0 0.15 0.02 0 0.155 0.02 0 0.16 0.02 0 0.165 0.02 0 0.17 0.02 0 0.175 0.02 0 0.18 0.02 0 0.185 0.02 0 0.19 0.02 0 0.195 0.02 0 0.2 0.02 0 0.205 0.02 0 0.21 0.02 0 0.215 0.02 0 0.22 0.02 0 0.225 0.02 0 0.23 0.02 0 0.235 0.02 0 0.24 0.02 0 0.245 0.02 0 0.25 0.02 0 0.255 0.02 0 0.26 0.02 0 0.265 0.02 0 0.27 0.02 0 0.275 0.02 0 0.28 0.02 0 0.285 0.02 0 0.29 0.02 0 0.295 0.02 0 0.3 0.02 0 0.305 0.02 0 0.31 0.02 0 0.315 0.02 0 0.32 0.02 0 0.325 0.02 0 0.33 0.02 0 0.335 0.02 0 0.34 0.02 0 0.345 0.02 0 0.35 0.02 0 0.355 0.02 0 0.36 0.02 0 0.365 0.02 0 0.37 0.02 0 0.375 0.02 0 0.38 0.02 0 0.385 0.02 0 0.39 0.02 0 0.395 0.02 0 0.4 0.02 0 0.405 0.02 0 0.41 0.02 0 0.415 0.02 0 0.42 0.02 0 0.425 0.02 0 0.43 0.02 0 0.435 0.02 0 0.44 0.02 0 0.445 0.02 0 0.45 0.02 0 0.455 0.02 0 0.46 0.02 0 0.465 0.02 0 0.47 0.02 0 0.475 0.02 0 0.48 0.02 0 0.485 0.02 0 0.49 0.02 0 0.495 0.02 0 0.5 0.02 0 0.505 0.02 0 0.51 0.02 0 0.515 0.02 0 0.52 0.02 0 0.525 0.02 0 0.53 0.02 0 0.535 0.02 0 0.54 0.02 0 0.545 0.02 0 0.55 0.02 0 0.555 0.02 0 0.56 0.02 0 0.565 0.02 0 0.57 0.02 0 0.575 0.02 0 0.58 0.02 0 0.585 0.02 0 0.59 0.02 0 0.595 0.02 0 0.6 0.02 0 0.605 0.02 0 0.61 0.02 0 0.615 0.02 0 0.62 0.02 0 0.625 0.02 0 0.63 0.02 0 0.635 0.02 0 0.64 0.02 0 0.645 0.02 0 0.65 0.02 0 0.655 0.02 0 0.66 0.02 0 0.665 0.02 0 0.67 0.02 0 0.675 0.02 0 0.68 0.02 0 0.685 0.02 0 0.69 0.02 0 0.695 0.02 0 0.7 0.02 0 0.705 0.02 0 0.71 0.02 0 0.715 0.02 0 0.72 0.02 0 0.725 0.02 0 0.73 0.02 0 0.735 0.02 0 0.74 0.02 0 0.745 0.02 0 0.75 0.02 0 0.755 0.02 0 0.76 0.02 0 0.765 0.02 0 0.77 0.02 0 0.775 0.02 0 0.78 0.02 0 0.785 0.02 0 0.79 0.02 0 0.795 0.02 0 0.8 0.02 0 0.805 0.02 0 0.81 0.02 0 0.815 0.02 0 0.82 0.02 0 0.825 0.02 0 0.83 0.02 0 0.835 0.02 0 0.84 0.02 0 0.845 0.02 0 0.85 0.02 0 0.855 0.02 0 0.86 0.02 0 0.865 0.02 0 0.87 0.02 0 0.875 0.02 0 0.88 0.02 0 0.885 0.02 0 0.89 0.02 0 0.895 0.02 0 0.9 0.02 0 0.905 0.02 0 0.91 0.02 0 0.915 0.02 0 0.92 0.02 0 0.925 0.02 0 0.93 0.02 0 0.935 0.02 0 0.94 0.02 0 0.945 0.02 0 0.95 0.02 0 0.955 0.02 0 0.96 0.02 0 0.965 0.02 0 0.97 0.02 0 0.975 0.02 0 0.98 0.02 0 0.985 0.02 0 0.99 0.02 0 0.995 0.02 0 1 0.02 0 0 0.04 0 0.005 0.04 0 0.01 0.04 0 0.015 0.04 0 0.02 0.04 0 0.025 0.04 0 0.03 0.04 0 0.035 0.04 0 0.04 0.04 0 0.045 0.04 0 0.05 0.04 0 0.055 0.04 0 0.06 0.04 0 0.065 0.04 0 0.07 0.04 0 0.075 0.04 0 0.08 0.04 0 0.085 0.04 0 0.09 0.04 0 0.095 0.04 0 0.1 0.04 0 0.105 0.04 0 0.11 0.04 0 0.115 0.04 0 0.12 0.04 0 0.125 0.04 0 0.13 0.04 0 0.135 0.04 0 0.14 0.04 0 0.145 0.04 0 0.15 0.04 0 0.155 0.04 0 0.16 0.04 0 0.165 0.04 0 0.17 0.04 0 0.175 0.04 0 0.18 0.04 0 0.185 0.04 0 0.19 0.04 0 0.195 0.04 0 0.2 0.04 0 0.205 0.04 0 0.21 0.04 0 0.215 0.04 0 0.22 0.04 0 0.225 0.04 0 0.23 0.04 0 0.235 0.04 0 0.24 0.04 0 0.245 0.04 0 0.25 0.04 0 0.255 0.04 0 0.26 0.04 0 0.265 0.04 0 0.27 0.04 0 0.275 0.04 0 0.28 0.04 0 0.285 0.04 0 0.29 0.04 0 0.295 0.04 0 0.3 0.04 0 0.305 0.04 0 0.31 0.04 0 0.315 0.04 0 0.32 0.04 0 0.325 0.04 0 0.33 0.04 0 0.335 0.04 0 0.34 0.04 0 0.345 0.04 0 0.35 0.04 0 0.355 0.04 0 0.36 0.04 0 0.365 0.04 0 0.37 0.04 0 0.375 0.04 0 0.38 0.04 0 0.385 0.04 0 0.39 0.04 0 0.395 0.04 0 0.4 0.04 0 0.405 0.04 0 0.41 0.04 0 0.415 0.04 0 0.42 0.04 0 0.425 0.04 0 0.43 0.04 0 0.435 0.04 0 0.44 0.04 0 0.445 0.04 0 0.45 0.04 0 0.455 0.04 0 0.46 0.04 0 0.465 0.04 0 0.47 0.04 0 0.475 0.04 0 0.48 0.04 0 0.485 0.04 0 0.49 0.04 0 0.495 0.04 0 0.5 0.04 0 0.505 0.04 0 0.51 0.04 0 0.515 0.04 0 0.52 0.04 0 0.525 0.04 0 0.53 0.04 0 0.535 0.04 0 0.54 0.04 0 0.545 0.04 0 0.55 0.04 0 0.555 0.04 0 0.56 0.04 0 0.565 0.04 0 0.57 0.04 0 0.575 0.04 0 0.58 0.04 0 0.585 0.04 0 0.59 0.04 0 0.595 0.04 0 0.6 0.04 0 0.605 0.04 0 0.61 0.04 0 0.615 0.04 0 0.62 0.04 0 0.625 0.04 0 0.63 0.04 0 0.635 0.04 0 0.64 0.04 0 0.645 0.04 0 0.65 0.04 0 0.655 0.04 0 0.66 0.04 0 0.665 0.04 0 0.67 0.04 0 0.675 0.04 0 0.68 0.04 0 0.685 0.04 0 0.69 0.04 0 0.695 0.04 0 0.7 0.04 0 0.705 0.04 0 0.71 0.04 0 0.715 0.04 0 0.72 0.04 0 0.725 0.04 0 0.73 0.04 0 0.735 0.04 0 0.74 0.04 0 0.745 0.04 0 0.75 0.04 0 0.755 0.04 0 0.76 0.04 0 0.765 0.04 0 0.77 0.04 0 0.775 0.04 0 0.78 0.04 0 0.785 0.04 0 0.79 0.04 0 0.795 0.04 0 0.8 0.04 0 0.805 0.04 0 0.81 0.04 0 0.815 0.04 0 0.82 0.04 0 0.825 0.04 0 0.83 0.04 0 0.835 0.04 0 0.84 0.04 0 0.845 0.04 0 0.85 0.04 0 0.855 0.04 0 0.86 0.04 0 0.865 0.04 0 0.87 0.04 0 0.875 0.04 0 0.88 0.04 0 0.885 0.04 0 0.89 0.04 0 0.895 0.04 0 0.9 0.04 0 0.905 0.04 0 0.91 0.04 0 0.915 0.04 0 0.92 0.04 0 0.925 0.04 0 0.93 0.04 0 0.935 0.04 0 0.94 0.04 0 0.945 0.04 0 0.95 0.04 0 0.955 0.04 0 0.96 0.04 0 0.965 0.04 0 0.97 0.04 0 0.975 0.04 0 0.98 0.04 0 0.985 0.04 0 0.99 0.04 0 0.995 0.04 0 1 0.04 0 0 0.06 0 0.005 0.06 0 0.01 0.06 0 0.015 0.06 0 0.02 0.06 0 0.025 0.06 0 0.03 0.06 0 0.035 0.06 0 0.04 0.06 0 0.045 0.06 0 0.05 0.06 0 0.055 0.06 0 0.06 0.06 0 0.065 0.06 0 0.07 0.06 0 0.075 0.06 0 0.08 0.06 0 0.085 0.06 0 0.09 0.06 0 0.095 0.06 0 0.1 0.06 0 0.105 0.06 0 0.11 0.06 0 0.115 0.06 0 0.12 0.06 0 0.125 0.06 0 0.13 0.06 0 0.135 0.06 0 0.14 0.06 0 0.145 0.06 0 0.15 0.06 0 0.155 0.06 0 0.16 0.06 0 0.165 0.06 0 0.17 0.06 0 0.175 0.06 0 0.18 0.06 0 0.185 0.06 0 0.19 0.06 0 0.195 0.06 0 0.2 0.06 0 0.205 0.06 0 0.21 0.06 0 0.215 0.06 0 0.22 0.06 0 0.225 0.06 0 0.23 0.06 0 0.235 0.06 0 0.24 0.06 0 0.245 0.06 0 0.25 0.06 0 0.255 0.06 0 0.26 0.06 0 0.265 0.06 0 0.27 0.06 0 0.275 0.06 0 0.28 0.06 0 0.285 0.06 0 0.29 0.06 0 0.295 0.06 0 0.3 0.06 0 0.305 0.06 0 0.31 0.06 0 0.315 0.06 0 0.32 0.06 0 0.325 0.06 0 0.33 0.06 0 0.335 0.06 0 0.34 0.06 0 0.345 0.06 0 0.35 0.06 0 0.355 0.06 0 0.36 0.06 0 0.365 0.06 0 0.37 0.06 0 0.375 0.06 0 0.38 0.06 0 0.385 0.06 0 0.39 0.06 0 0.395 0.06 0 0.4 0.06 0 0.405 0.06 0 0.41 0.06 0 0.415 0.06 0 0.42 0.06 0 0.425 0.06 0 0.43 0.06 0 0.435 0.06 0 0.44 0.06 0 0.445 0.06 0 0.45 0.06 0 0.455 0.06 0 0.46 0.06 0 0.465 0.06 0 0.47 0.06 0 0.475 0.06 0 0.48 0.06 0 0.485 0.06 0 0.49 0.06 0 0.495 0.06 0 0.5 0.06 0 0.505 0.06 0 0.51 0.06 0 0.515 0.06 0 0.52 0.06 0 0.525 0.06 0 0.53 0.06 0 0.535 0.06 0 0.54 0.06 0 0.545 0.06 0 0.55 0.06 0 0.555 0.06 0 0.56 0.06 0 0.565 0.06 0 0.57 0.06 0 0.575 0.06 0 0.58 0.06 0 0.585 0.06 0 0.59 0.06 0 0.595 0.06 0 0.6 0.06 0 0.605 0.06 0 0.61 0.06 0 0.615 0.06 0 0.62 0.06 0 0.625 0.06 0 0.63 0.06 0 0.635 0.06 0 0.64 0.06 0 0.645 0.06 0 0.65 0.06 0 0.655 0.06 0 0.66 0.06 0 0.665 0.06 0 0.67 0.06 0 0.675 0.06 0 0.68 0.06 0 0.685 0.06 0 0.69 0.06 0 0.695 0.06 0 0.7 0.06 0 0.705 0.06 0 0.71 0.06 0 0.715 0.06 0 0.72 0.06 0 0.725 0.06 0 0.73 0.06 0 0.735 0.06 0 0.74 0.06 0 0.745 0.06 0 0.75 0.06 0 0.755 0.06 0 0.76 0.06 0 0.765 0.06 0 0.77 0.06 0 0.775 0.06 0 0.78 0.06 0 0.785 0.06 0 0.79 0.06 0 0.795 0.06 0 0.8 0.06 0 0.805 0.06 0 0.81 0.06 0 0.815 0.06 0 0.82 0.06 0 0.825 0.06 0 0.83 0.06 0 0.835 0.06 0 0.84 0.06 0 0.845 0.06 0 0.85 0.06 0 0.855 0.06 0 0.86 0.06 0 0.865 0.06 0 0.87 0.06 0 0.875 0.06 0 0.88 0.06 0 0.885 0.06 0 0.89 0.06 0 0.895 0.06 0 0.9 0.06 0 0.905 0.06 0 0.91 0.06 0 0.915 0.06 0 0.92 0.06 0 0.925 0.06 0 0.93 0.06 0 0.935 0.06 0 0.94 0.06 0 0.945 0.06 0 0.95 0.06 0 0.955 0.06 0 0.96 0.06 0 0.965 0.06 0 0.97 0.06 0 0.975 0.06 0 0.98 0.06 0 0.985 0.06 0 0.99 0.06 0 0.995 0.06 0 1 0.06 0 0 0.08 0 0.005 0.08 0 0.01 0.08 0 0.015 0.08 0 0.02 0.08 0 0.025 0.08 0 0.03 0.08 0 0.035 0.08 0 0.04 0.08 0 0.045 0.08 0 0.05 0.08 0 0.055 0.08 0 0.06 0.08 0 0.065 0.08 0 0.07 0.08 0 0.075 0.08 0 0.08 0.08 0 0.085 0.08 0 0.09 0.08 0 0.095 0.08 0 0.1 0.08 0 0.105 0.08 0 0.11 0.08 0 0.115 0.08 0 0.12 0.08 0 0.125 0.08 0 0.13 0.08 0 0.135 0.08 0 0.14 0.08 0 0.145 0.08 0 0.15 0.08 0 0.155 0.08 0 0.16 0.08 0 0.165 0.08 0
[...]
			<PointData Scalars="VitesseX">
				<DataArray Name="VitesseX" type="Float32" format="ascii">
 0 1.19619e-14 -5.29668e-14 6.64795e-14 -2.84299e-14 -5.0334e-14 -1.02168e-13 1.80837e-14 -4.29597e-14 2.71889e-14 -4.31961e-14 -1.58624e-13 1.75915e-13 -2.71819e-13 4.98451e-14 -4.7262e-14 -1.01807e-13 1.60505e-13 -1.15661e-13 -2.96038e-14 -1.06755e-14 7.51132e-14 5.4251e-14 -2.08886e-13 -2.48698e-13 2.77405e-14 2.61808e-13 2.34792e-13 -1.61113e-13 -6.77899e-15 -4.75619e-13 -6.18402e-14 4.83037e-14 1.3188e-13 4.72432e-14 -1.79105e-13 2.98749e-13 -3.3496e-13 -5.14513e-15 -4.29515e-13 3.5483e-13 2.22586e-14 -1.87529e-13 -1.49144e-13 1.13056e-13 5.13078e-14 7.86339e-13 -6.81435e-13 -1.38891e-14 -5.3364e-13 -7.18617e-14 6.11412e-13 -4.91157e-13 2.55808e-13 -1.05228e-12 3.38906e-13 8.99793e-13 -7.82048e-13 7.4133e-13 -6.24384e-13 1.16185e-14 1.83244e-13 -3.42884e-13 4.56504e-13 -2.29423e-13 -1.22039e-13 1.38174e-13 -7.52559e-13 7.75611e-13 -1.37051e-13 -2.61571e-13 6.19569e-13 -1.40381e-12 9.41699e-13 -1.07559e-13 1.47554e-13 -2.89356e-13 -3.97107e-13 1.01463e-12 -6.00282e-13 1.77818e-13 1.26072e-13 -5.38681e-13 1.22271e-13 -7.61819e-13 1.03484e-12 3.00451e-12 7.91255e-11 2.32755e-09 5.68491e-08 1.14352e-06 1.85088e-05 0.000233749 0.00220687 0.0146721 0.064102 0.180724 0.350083 0.496314 0.619442 0.732281 0.810431 0.891247 1.07956 1.06189 0.933733 0.800628 0.649971 0.473839 0.296344 0.149523 0.0576683 0.01727 0.0043679 0.000997688 0.000212034 4.23369e-05 7.96974e-06 1.41714e-06 2.38393e-07 3.79909e-08 5.74303e-09 8.25152e-10 1.12606e-10 1.50847e-11 1.52079e-12 -7.01064e-13 5.91298e-13 1.89887e-13 4.73271e-13 -3.03509e-13 -9.99011e-13 6.09264e-13 3.00473e-14 2.28857e-13 -7.89398e-13 -1.61677e-12 3.18236e-13 6.83998e-13 2.73113e-13 -3.5206e-13 -2.92492e-13 -5.62092e-13 -3.46735e-13 1.34267e-12 2.12996e-13 -2.80384e-13 6.05451e-13 -6.29319e-14 1.25098e-12 -7.79368e-13 -4.30399e-13 4.30112e-13 -5.97147e-13 1.02245e-12 1.17321e-13 -1.24725e-12 2.0953e-13 4.52676e-13 7.57672e-13 -8.92127e-13 -1.90041e-12 4.07601e-13 1.03707e-12 6.92652e-13 -7.77136e-13 -1.33036e-12 6.63429e-13 7.44903e-16 -1.74497e-13 8.47626e-13 4.08945e-13 2.81435e-13 -1.22556e-12 2.61856e-13 9.27112e-13 1.16754e-13 -3.63483e-14 -9.50286e-13 9.49359e-14 6.52402e-13 3.08873e-13 5.92501e-14 -1.37799e-12 2.26687e-16 4.43224e-13 -9.88806e-13 -7.88542e-13 -1.21923e-12 1.29136e-13 2.26172e-12 -1.10968e-12 -4.05232e-14 -1.97697e-12 2.34715e-12 9.72355e-14 -1.15554e-12 5.97563e-13 5.67056e-13 1.91316e-12 0 0 -2.52056e-14 1.33341e-14 -6.00733e-14 -9.61199e-15 -6.81543e-15 -1.08817e-14 -8.44309e-14 -3.38454e-14 -8.26263e-14 -9.57044e-14 7.10554e-14 -1.60019e-13 9.20255e-14 -1.92955e-13 1.03413e-14 7.5843e-14 -2.47148e-13 9.24096e-14 4.54787e-14 6.2141e-14 -3.07131e-14 -9.13611e-14 -9.81768e-14 -8.21524e-14 -1.6443e-14 1.53426e-13 3.35926e-14 5.67431e-14 -1.63047e-13 -6.30622e-14 -3.54895e-13 -7.43681e-14 1.68252e-13 1.15702e-13 8.98812e-14 -3.57923e-13 5.2152e-14 -2.98973e-13 2.31016e-13 -1.40458e-13 9.61565e-14 -2.50241e-14 6.49324e-15 -1.34488e-13 2.50646e-13 -3.57123e-13 3.22231e-13 -4.4835e-13 1.08494e-13 -1.36823e-13 -4.50033e-13 2.40478e-13 -6.58815e-13 5.00195e-13 8.92503e-14 -4.35789e-13 6.64789e-13 -5.95824e-13 4.50772e-13 -2.37845e-13 -1.46599e-13 3.95012e-13 -1.44712e-13 1.31552e-13 -1.19426e-13 -3.72991e-13 3.28268e-13 -1.61243e-13 -1.65327e-13 2.73992e-13 -6.25742e-13 4.33956e-13 -6.3954e-13 1.60121e-13 -2.4052e-13 3.27267e-13 2.52816e-13 -5.65064e-13 5.70492e-13 -5.74814e-13 1.02018e-13 3.73037e-13 -6.5428e-13 1.48853e-13 3.60146e-13 2.11193e-12 8.06613e-11 2.32825e-09 5.68474e-08 1.14352e-06 1.85088e-05 0.000233749 0.00220687 0.0146721 0.064102 0.180724 0.350083 0.496314 0.619442 0.732281 0.810431 0.891247 1.07956 1.06189 0.933733 0.800628 0.649971 0.473839 0.296344 0.149523 0.0576683 0.01727 0.0043679 0.000997688 0.000212034 4.23369e-05 7.96974e-06 1.41714e-06 2.38392e-07 3.79919e-08 5.74326e-09 8.24405e-10 1.12817e-10 1.42023e-11 2.03685e-12 8.4972e-14 1.22497e-13 1.54333e-13 -3.53945e-13 2.08553e-13 -1.41387e-13 -7.31165e-14 1.74595e-13 -4.63305e-13 -3.86439e-13 -4.89893e-13 -5.02059e-13 4.73652e-13 3.4802e-13 -5.16169e-14 -2.36182e-13 -4.86462e-13 -2.07114e-13 4.07354e-14 4.71998e-13 1.07759e-12 -3.67497e-13 3.01351e-13 -3.40483e-13 4.62248e-13 3.03066e-13 -6.38252e-13 4.41085e-13 -3.24516e-13 1.00247e-13 2.05442e-13 3.64673e-14 -2.38283e-13 -6.69732e-13 5.79164e-13 6.20761e-14 -2.06755e-13 -6.2046e-13 -4.62447e-13 3.79619e-13 5.23125e-14 -1.78099e-13 2.87561e-13 1.82516e-14 4.64754e-15 1.75027e-13 -3.35338e-14 8.15583e-13 -4.38463e-13 6.24679e-14 4.52481e-14 -1.1592e-13 9.1232e-13 -4.50889e-13 -4.11448e-13 7.66472e-14 -3.26654e-13 9.16236e-13 -9.31263e-13 -5.93897e-13 -7.38746e-13 -9.41608e-13 5.91472e-13 -2.83695e-14 -7.72617e-13 9.89638e-13 -6.79935e-13 -1.85221e-14 -1.21858e-12 2.7448e-13 1.65517e-12 5.64842e-14 1.08018e-12 -8.58113e-13 0 0 -2.63874e-14 -1.9251e-14 -1.98115e-14 -8.35081e-14 -1.3794e-14 -2.28236e-15 -6.35624e-14 -1.23373e-13 -4.22771e-14 -3.97422e-14 -1.21447e-13 1.34648e-15 2.92778e-14 2.00517e-14 -8.52631e-14 -7.87706e-14 -5.86253e-15 -2.43195e-14 2.76358e-14 2.50755e-14 -7.35432e-14 -2.7426e-13 1.14942e-14 1.13006e-13 -2.89432e-14 2.36691e-14 -3.99317e-14 2.86495e-14 -6.6352e-14 -2.18459e-13 -1.82695e-13 -1.89977e-13 7.6442e-14 2.80346e-13 -5.95345e-14 -7.46868e-14 -2.15423e-13 7.88418e-15 -6.48382e-14 5.99398e-14 -2.71352e-13 8.57384e-14 7.38879e-14 6.54352e-14 -1.20457e-13 -2.36285e-13 -1.91342e-13 -5.90762e-14 -7.80159e-14 -3.35205e-14 -2.90217e-13 -3.12238e-13 1.86444e-13 4.53548e-13 -9.41089e-14 -5.36379e-13 -3.86264e-13 5.8869e-13 2.32799e-13 -8.61009e-14 -1.5701e-13 2.88999e-13 2.71626e-13 -9.85925e-14 -2.39528e-13 -2.31158e-13 1.36987e-13 1.12537e-13 -4.58447e-13 -4.50893e-13 2.74784e-13 3.35024e-13 -3.19641e-13 -7.50016e-13 1.84058e-13 5.34153e-13 -2.82989e-13 -4.70383e-13 -4.66165e-13 5.8385e-13 -3.63837e-13 1.88685e-13 8.16442e-13 -1.50003e-14 -1.03613e-12 2.31251e-12 8.09474e-11 2.32815e-09 5.68483e-08 1.14352e-06 1.85088e-05 0.000233749 0.00220687 0.0146721 0.064102 0.180724 0.350083 0.496314 0.619442 0.732281 0.810431 0.891247 1.07956 1.06189 0.933733 0.800628 0.649971 0.473839 0.296344 0.149523 0.0576683 0.01727 0.0043679 0.000997688 0.000212034 4.23369e-05 7.96974e-06 1.41714e-06 2.38392e-07 3.79914e-08 5.74406e-09 8.24487e-10 1.12068e-10 1.43773e-11 1.27991e-12 1.37744e-12 1.00008e-14 -4.27273e-13 -2.33453e-13 -7.26219e-13 1.30612e-12 -1.36342e-13 -6.0474e-13 -2.85702e-13 -7.30128e-13 7.05871e-13 -4.57422e-13 -8.40783e-13 2.15564e-13 -2.5964e-13 4.72205e-13 1.13702e-12 -1.24234e-12 -8.09341e-13 9.95658e-13 8.54783e-14 1.15658e-12 -6.996e-13 -3.80219e-13 6.32576e-13 -4.41542e-13 6.62179e-13 -8.57632e-14 -2.71658e-13 -1.08384e-12 1.46699e-12 2.22971e-13 -8.27216e-14 -8.18356e-13 -1.81511e-13 1.10238e-12 -7.43176e-13 -8.04928e-13 -5.94113e-13 2.59773e-13 1.06687e-12 -7.29616e-13 -5.85993e-13 5.30945e-13 -1.14221e-13 4.67959e-13 5.95976e-13 -9.30957e-14 -1.79049e-13 -8.23475e-13 8.97564e-13 7.73983e-13 -5.91257e-13 2.43468e-13 -9.23681e-13 2.96968e-13 6.51759e-13 -7.03017e-13 -2.0014e-13 -1.09483e-12 -2.03748e-13 2.1679e-13 -9.20847e-13 6.89953e-13 -1.37008e-12 -1.42879e-13 1.88058e-12 -1.02875e-12 -1.49487e-12 3.80832e-13 1.34945e-12 1.56289e-12 -1.42799e-12 -2.83952e-14 0 0 3.34648e-14 -2.21137e-14 -5.66172e-15 -2.69353e-14 -6.90012e-14 -1.35076e-13 -9.4236e-14 -6.39428e-14 -6.41531e-14 1.39062e-14 -5.47088e-14 1.09294e-13 -1.11125e-13 -3.17719e-14 -3.79057e-14 -1.62409e-13 8.65882e-15 5.97925e-16 -1.10367e-13 -1.78464e-13 -3.26893e-15 1.15658e-13 -1.45806e-14 -1.6196e-13 1.08996e-14 1.03412e-13 -5.13912e-14 -2.04262e-13 5.32954e-14 -1.26557e-13 -2.53349e-13 -3.16532e-14 1.39649e-13 -1.73643e-14 5.58435e-14 2.55481e-13 -1.08407e-13 -1.51518e-13 -3.43444e-13 -7.65935e-14 -2.11277e-13 8.0953e-14 -1.75317e-13 2.36086e-13 2.57758e-13 1.89616e-13 -6.63021e-13 -3.59297e-13 -5.17067e-13 1.53396e-13 4.65426e-13 -4.4696e-14 -3.76174e-13 -2.29413e-13 3.17689e-13 2.54786e-14 -1.18326e-13 1.55713e-13 -3.55316e-13 -1.65656e-13 1.43449e-13 2.1601e-13 3.21808e-13 -1.16827e-13 -3.52876e-13 -3.03018e-13 -2.05421e-13 2.84986e-13 5.92484e-13 -2.90517e-13 2.51409e-14 -5.11215e-13 7.57198e-14 -2.50916e-14 5.15572e-14 -4.61044e-13 -2.08506e-13 -1.88891e-13 -6.23413e-13 -1.28191e-14 2.80564e-13 2.30107e-13 -3.58992e-13 1.12292e-13 1.59884e-13 2.20045e-12 7.95132e-11 2.32747e-09 5.68501e-08 1.14352e-06 1.85088e-05 0.000233749 0.00220687 0.0146721 0.064102 0.180724 0.350083 0.496314 0.619442 0.732281 0.810431 0.891247 1.07956 1.06189 0.933733 0.800628 0.649971 0.473839 0.296344 0.149523 0.0576683 0.01727 0.0043679 0.000997688 0.000212034 4.23369e-05 7.96974e-06 1.41714e-06 2.38392e-07 3.79909e-08 5.74346e-09 8.24641e-10 1.12639e-10 1.43946e-11 1.64729e-12 5.98938e-14 2.38502e-13 2.72913e-13 -2.50462e-13 -2.53076e-13 -4.27771e-14 2.11116e-14 1.33755e-13 -3.08682e-13 -6.79088e-13 -3.04448e-13 -3.79711e-13 -1.5607e-13 -9.6979e-13 3.81154e-13 1.16214e-12 -2.67838e-13 -2.40193e-14 -2.44253e-13 -2.73676e-15 3.14979e-13 3.7666e-13 -8.25948e-14 -2.55794e-13 -3.70349e-13 6.38594e-13 7.39302e-13 -2.45747e-14 -3.58873e-13 -9.6004e-13 -4.31296e-13 -9.39839e-14 1.26928e-12 8.96306e-13 -1.06643e-12 -1.16102e-12 -5.80266e-13 5.72042e-13 -3.07926e-13 -1.0275e-12 -2.5043e-15 1.28237e-12 1.01994e-13 -1.28029e-12 3.65492e-13 1.63107e-12 -1.38585e-13 -8.20075e-13 -8.14853e-13 6.44821e-13 1.18392e-12 3.89885e-13 -1.28381e-12 -1.02804e-12 8.65275e-13 1.32357e-12 -4.52606e-13 -1.36397e-12 -8.1927e-13 2.30719e-13 3.16432e-13 -1.02066e-12 -1.54624e-12 -6.25594e-14 3.29979e-12 1.47892e-13 -2.17162e-12 -1.85256e-12 8.85656e-13 1.23451e-12 -2.46828e-13 -1.47718e-13 2.58237e-13 8.27713e-13 0 0 1.44774e-14 2.33634e-14 -5.29011e-14 1.51444e-14 -7.9759e-14 -1.16659e-13 -1.61733e-13 -4.44949e-14 -8.01534e-14 -3.23596e-14 1.42968e-13 -1.37703e-13 -1.35161e-14 -1.72835e-13 3.7177e-14 2.39633e-14 -2.76262e-13 4.38878e-14 -4.92035e-14 -1.44729e-13 -1.63708e-14 9.85409e-14 -1.51263e-13 -2.18862e-13 -3.33321e-14 -8.82343e-15 -1.3391e-13 -7.82811e-14 -1.03782e-13 1.58349e-13 -2.01457e-13 8.94596e-14 2.30464e-13 7.56579e-14 3.04802e-13 -5.43531e-14 4.87197e-14 -3.29977e-13 -1.33593e-13 -4.88235e-13 -3.63948e-14 -1.34203e-13 -1.06199e-13 -2.66904e-14 2.84279e-13 -2.714e-13 -2.9567e-14 -4.98329e-13 -7.4092e-14 -5.7722e-14 -1.64993e-13 1.46703e-13 -7.74135e-13 3.21922e-13 3.69688e-13 -3.79013e-13 6.88061e-13 -6.94259e-13 2.21477e-13 -2.58901e-13 6.79643e-14 4.5082e-13 -1.45892e-13 1.47468e-13 -2.30911e-13 -6.29363e-13 2.63712e-13 -1.58892e-13 6.03882e-13 5.48454e-13 -3.6975e-13 3.77133e-13 -5.79683e-13 3.10287e-13 -4.77482e-13 -5.92395e-13 -7.96434e-14 -1.0119e-12 2.50499e-13 -7.72153e-13 3.92433e-13 1.78986e-14 -1.51838e-12 4.38359e-13 7.24484e-13 1.92359e-12 8.01841e-11 2.32791e-09 5.68483e-08 1.14352e-06 1.85088e-05 0.000233749 0.00220687 0.0146721 0.064102 0.180724 0.350083 0.496314 0.619442 0.732281 0.810431 0.891247 1.07956 1.06189 0.933733 0.800628 0.649971 0.473839 0.296344 0.149523 0.0576683 0.01727 0.0043679 0.000997688 0.000212034 4.23369e-05 7.96974e-06 1.41714e-06 2.38392e-07 3.79918e-08 5.74274e-09 8.24397e-10 1.12975e-10 1.45386e-11 2.33146e-12 -5.26112e-13 -5.61735e-13 3.37744e-13 -2.0859e-13 8.83041e-13 -7.67232e-13 -6.17456e-14 3.28602e-14 -2.50527e-13 2.04337e-13 -1.26065e-12 -1.07912e-12 1.63452e-13 -5.24668e-13 7.73143e-13 5.79783e-13 -1.68989e-12 3.3954e-13 5.39362e-13 8.73226e-13 1.55203e-12 -1.11674e-12 9.65622e-13 -4.02103e-13 1.6957e-13 5.89277e-13 -7.93031e-13 -8.94964e-15 -5.6706e-13 -6.63737e-14 -1.66684e-12 -9.71091e-13 2.79992e-13 1.58652e-12 8.72191e-13 -1.31814e-12 -1.64082e-12 -1.56593e-12 -9.74492e-13 3.65576e-14 8.31744e-13 1.41852e-12 3.71389e-13 -1.19156e-12 -5.0009e-13 4.13679e-13 2.03757e-13 1.18745e-12 7.84359e-14 1.54347e-13 -1.04986e-12 -2.19845e-13 1.38664e-12 -7.62304e-14 -7.7585e-14 -1.76214e-13 -7.63912e-13 8.88076e-13 -3.44705e-13 -3.62173e-13 -1.98394e-12 -1.8704e-12 4.40283e-13 1.0736e-12 2.29952e-12 6.59954e-13 -3.51008e-12 -6.80721e-13 -5.16067e-13 1.18105e-12 1.29839e-12 -3.04088e-13 1.93276e-12 -7.37801e-13 0 0 -2.83764e-14 -2.71827e-14 5.25245e-14 -9.20627e-14 -8.58065e-14 -4.81335e-14 -7.51729e-14 -1.83119e-13 7.58865e-14 -2.38033e-14 -1.48276e-13 4.65187e-15 -2.02097e-13 1.93733e-13 -8.83054e-14 -3.82902e-14 7.32332e-14 -2.6254e-13 5.70371e-14 -1.73376e-14 -3.67506e-14 -3.45782e-13 -2.62909e-13 2.78145e-14 -8.57231e-14 -2.22176e-13 -7.72953e-14 3.46618e-14 -1.27544e-13 -2.16602e-13 3.86346e-13 5.93113e-14 1.29891e-13 5.62575e-13 1.99803e-14 2.45553e-13 -5.55857e-13 2.5165e-13 -6.01523e-13 -6.76579e-14 -3.62995e-13 -3.96316e-13 1.23883e-13 -1.26498e-14 -6.37858e-13 1.05985e-13 -4.41673e-13 4.86595e-13 -2.07111e-14 -2.87493e-13 -3.29793e-13 -1.21379e-12 1.1504e-12 -4.29003e-14 7.61874e-14 -1.10369e-13 -1.27138e-12 1.41041e-12 9.3255e-14 1.28617e-13 1.14517e-14 -8.52881e-14 3.53782e-13 -1.61121e-13 -1.18314e-13 -2.30851e-13 -1.96857e-13 4.35413e-13 -7.00496e-13 -3.3401e-14 1.63084e-12 1.75017e-13 2.70692e-13 -1.25707e-12 -6.13691e-14 -1.38284e-13 -1.21099e-12 -4.42021e-13 -9.25772e-13 9.76477e-13 -5.819e-13 -1.3318e-12 7.44948e-13 -4.37391e-13 -6.28516e-13 2.85196e-12 8.10393e-11 2.32822e-09 5.68472e-08 1.14352e-06 1.85088e-05 0.000233749 0.00220687 0.0146721 0.064102 0.180724 0.350083 0.496314 0.619442 0.732281 0.810431 0.891247 1.07956 1.06189 0.933733 0.800628 0.649971 0.473839 0.296344 0.149523 0.0576683 0.01727 0.0043679 0.000997688 0.000212034 4.23369e-05 7.96974e-06 1.41714e-06 2.38393e-07 3.79915e-08 5.74318e-09 8.2483e-10 1.1178e-10 1.57227e-11 1.37524e-12 7.11869e-13 -1.23417e-12 -8.43664e-13 7.98001e-13 9.91806e-14 4.47097e-13 3.17099e-13 -1.73041e-12 7.00373e-13 2.90074e-13 -1.13764e-12 -9.91299e-13 -1.30583e-12 8.98446e-13 1.58717e-14 -4.04309e-14 -1.59245e-13 -1.69008e-12 1.20975e-12 3.01224e-12 2.09496e-13 6.66798e-13 3.15983e-14 8.78888e-13 6.41125e-13 -2.01825e-12 -3.36931e-14 -1.61959e-12 7.11792e-13 -4.63519e-13 -1.19523e-12 -1.17168e-12 -1.21478e-12 1.84086e-12 1.46377e-12 -1.34031e-13 -2.78635e-12 -3.60781e-12 -9.03812e-13 1.1113e-12 2.36725e-12 -1.67315e-13 -1.20757e-12 1.02835e-12 -1.12127e-12 -1.43998e-12 2.22514e-12 9.72123e-13 2.56726e-12 -1.82572e-12 -2.64617e-12 5.23998e-13 1.38345e-12 3.38728e-12 -2.25778e-12 -2.25006e-12 1.39346e-12 -1.12402e-13 2.4116e-12 -1.74442e-12 -4.51955e-12 -1.71226e-13 -2.70829e-13 3.8381e-12 -9.33761e-13 -2.35059e-12 2.4036e-12 -1.65375e-12 -1.00889e-12 2.03021e-13 1.32346e-12 3.29763e-12 -1.10025e-12 4.41569e-13 0
				</DataArray>
				<DataArray Name="VitesseY" type="Float32" format="ascii">