<?xml version="1.0"?>
<VTKFile type="PolyData">
	<PolyData>
		<Piece NumberOfPoints="1206" NumberOfPolys="1000">
			<Points>
				<DataArray type="Float32" NumberOfComponents="3" format="ascii">
 0 0 0 0.005 0 0 0.01 0 0 0.015 0 0 0.02 0 0 0.025 0 0 0.03 0 0 0.035 0 0 0.04 0 0 0.045 0 0 0.05 0 0 0.055 0 0 0.06 0 0 0.065 0 0 0.07 0 0 0.075 0 0 0.08 0 0 0.085 0 0 0.09 0 0 0.095 0 0 0.1 0 0 0.105 0 0 0.11 0 0 0.115 0 0 0.12 0 0 0.125 0 0 0.13 0 0 0.135 0 0 0.14 0 0 0.145 0 0 0.15 0 0 0.155 0 0 0.16 0 0 0.165 0 0 0.17 0 0 0.175 0 0 0.18 0 0 0.185 0 0 0.19 0 0 0.195 0 0 0.2 0 0 0.205 0 0 0.21 0 0 0.215 0 0 0.22 0 0 0.225 0 0 0.23 0 0 0.235 0 0 0.24 0 0 0.245 0 0 0.25 0 0 0.255 0 0 0.26 0 0 0.265 0 0 0.27 0 0 0.275 0 0 0.28 0 0 0.285 0 0 0.29 0 0 0.295 0 0 0.3 0 0 0.305 0 0 0.31 0 0 0.315 0 0 0.32 0 0 0.325 0 0 0.33 0 0 0.335 0 0 0.34 0 0 0.345 0 0 0.35 0 0 0.355 0 0 0.36 0 0 0.365 0 0 0.37 0 0 0.375 0 0 0.38 0 0 0.385 0 0 0.39 0 0 0.395 0 0 0.4 0 0 0.405 0 0 0.41 0 0 0.415 0 0 0.42 0 0 0.425 0 0 0.43 0 0 0.435 0 0 0.44 0 0 0.445 0 0 0.45 0 0 0.455 0 0 0.46 0 0 0.465 0 0 0.47 0 0 0.475 0 0 0.48 0 0 0.485 0 0 0.49 0 0 0.495 0 0 0.5 0 0 0.505 0 0 0.51 0 0 0.515 0 0 0.52 0 0 0.525 0 0 0.53 0 0 0.535 0 0 0.54 0 0 0.545 0 0 0.55 0 0 0.555 0 0 0.56 0 0 0.565 0 0 0.57 0 0 0.575 0 0 0.58 0 0 0.585 0 0 0.59 0 0 0.595 0 0 0.6 0 0 0.605 0 0 0.61 0 0 0.615 0 0 0.62 0 0 0.625 0 0 0.63 0 0 0.635 0 0 0.64 0 0 0.645 0 0 0.65 0 0 0.655 0 0 0.66 0 0 0.665 0 0 0.67 0 0 0.675 0 0 0.68 0 0 0.685 0 0 0.69 0 0 0.695 0 0 0.7 0 0 0.705 0 0 0.71 0 0 0.715 0 0 0.72 0 0 0.725 0 0 0.73 0 0 0.735 0 0 0.74 0 0 0.745 0 0 0.75 0 0 0.755 0 0 0.76 0 0 0.765 0 0 0.77 0 0 0.775 0 0 0.78 0 0 0.785 0 0 0.79 0 0 0.795 0 0 0.8 0 0 0.805 0 0 0.81 0 0 0.815 0 0 0.82 0 0 0.825 0 0 0.83 0 0 0.835 0 0 0.84 0 0 0.845 0 0 0.85 0 0 0.855 0 0 0.86 0 0 0.865 0 0 0.87 0 0 0.875 0 0 0.88 0 0 0.885 0 0 0.89 0 0 0.895 0 0 0.9 0 0 0.905 0 0 0.91 0 0 0.915 0 0 0.92 0 0 0.925 0 0 0.93 0 0 0.935 0 0 0.94 0 0 0.945 0 0 0.95 0 0 0.955 0 0 0.96 0 0 0.965 0 0 0.97 0 0 0.975 0 0 0.98 0 0 0.985 0 0 0.99 0 0 0.995 0 0 1 0 0 0 0.02 0 0.005 0.02 0 0.01 0.02 0 0.015 0.02 0 0.02 0.02 0 0.025 0.02 0 0.03 0.02 0 0.035 0.02 0 0.04 0.02 0 0.045 0.02 0 0.05 0.02 0 0.055 0.02 0 0.06 0.02 0 0.065 0.02 0 0.07 0.02 0 0.075 0.02 0 0.08 0.02 0 0.085 0.02 0 0.09 0.02 0 0.095 0.02 0 0.1 0.02 0 0.105 0.02 0 0.11 0.02 0 0.115 0.02 0 0.12 0.02 0 0.125 0.02 0 0.13 0.02 0 0.135 0.02 0 0.14 0.02 0 0.145 0.02 0 0.15 0.02 0 0.155 0.02 0 0.16 0.02 0 0.165 0.02 0 0.17 0.02 0 0.175 0.02 0 0.18 0.02 0 0.185 0.02 0 0.19 0.02 0 0.195 0.02 0 0.2 0.02 0 0.205 0.02 0 0.21 0.02 0 0.215 0.02 0 0.22 0.02 0 0.225 0.02 0 0.23 0.02 0 0.235 0.02 0 0.24 0.02 0 0.245 0.02 0 0.25 0.02 0 0.255 0.02 0 0.26 0.02 0 0.265 0.02 0 0.27 0.02 0 0.275 0.02 0 0.28 0.02 0 0.285 0.02 0 0.29 0.02 0 0.295 0.02 0 0.3 0.02 0 0.305 0.02 0 0.31 0.02 0 0.315 0.02 0 0.32 0.02 0 0.325 0.02 0 0.33 0.02 0 0.335 0.02 0 0.34 0.02 0 0.345 0.02 0 0.35 0.02 0 0.355 0.02 0 0.36 0.02 0 0.365 0.02 0 0.37 0.02 0 0.375 0.02 0 0.38 0.02 0 0.385 0.02 0 0.39 0.02 0 0.395 0.02 0 0.4 0.02 0 0.405 0.02 0 0.41 0.02 0 0.415 0.02 0 0.42 0.02 0 0.425 0.02 0 0.43 0.02 0 0.435 0.02 0 0.44 0.02 0 0.445 0.02 0 0.45 0.02 0 0.455 0.02 0 0.46 0.02 0 0.465 0.02 0 0.47 0.02 0 0.475 0.02 0 0.48 0.02 0 0.485 0.02 0 0.49 0.02 0 0.495 0.02 0 0.5 0.02 0 0.505 0.02 0 0.51 0.02 0 0.515 0.02 0 0.52 0.02 0 0.525 0.02 0 0.53 0.02 0 0.535 0.02 0 0.54 0.02 0 0.545 0.02 0 0.55 0.02 0 0.555 0.02 0 0.56 0.02 0 0.565 0.02 0 0.57 0.02 0 0.575 0.02 0 0.58 0.02 0 0.585 0.02 0 0.59 0.02 0 0.595 0.02 0 0.6 0.02 0 0.605 0.02 0 0.61 0.02 0 0.615 0.02 0 0.62 0.02 0 0.625 0.02 0 0.63 0.02 0 0.635 0.02 0 0.64 0.02 0 0.645 0.02 0 0.65 0.02 0 0.655 0.02 0 0.66 0.02 0 0.665 0.02 0 0.67 0.02 0 0.675 0.02 0 0.68 0.02 0 0.685 0.02 0 0.69 0.02 0 0.695 0.02 0 0.7 0.02 0 0.705 0.02 0 0.71 0.02 0 0.715 0.02 0 0.72 0.02 0 0.725 0.02 0 0.73 0.02 0 0.735 0.02 0 0.74 0.02 0 0.745 0.02 0 0.75 0.02 0 0.755 0.02 0 0.76 0.02 0 0.765 0.02 0 0.77 0.02 0 0.775 0.02 0 0.78 0.02 0 0.785 0.02 0 0.79 0.02 0 0.795 0.02 0 0.8 0.02 0 0.805 0.02 0 0.81 0.02 0 0.815 0.02 0 0.82 0.02 0 0.825 0.02 0 0.83 0.02 0 0.835 0.02 0 0.84 0.02 0 0.845 0.02 0 0.85 0.02 0 0.855 0.02 0 0.86 0.02 0 0.865 0.02 0 0.87 0.02 0 0.875 0.02 0 0.88 0.02 0 0.885 0.02 0 0.89 0.02 0 0.895 0.02 0 0.9 0.02 0 0.905 0.02 0 0.91 0.02 0 0.915 0.02 0 0.92 0.02 0 0.925 0.02 0 0.93 0.02 0 0.935 0.02 0 0.94 0.02 0 0.945 0.02 0 0.95 0.02 0 0.955 0.02 0 0.96 0.02 0 0.965 0.02 0 0.97 0.02 0 0.975 0.02 0 0.98 0.02 0 0.985 0.02 0 0.99 0.02 0 0.995 0.02 0 1 0.02 0 0 0.04 0 0.005 0.04 0 0.01 0.04 0 0.015 0.04 0 0.02 0.04 0 0.025 0.04 0 0.03 0.04 0 0.035 0.04 0 0.04 0.04 0 0.045 0.04 0 0.05 0.04 0 0.055 0.04 0 0.06 0.04 0 0.065 0.04 0 0.07 0.04 0 0.075 0.04 0 0.08 0.04 0 0.085 0.04 0 0.09 0.04 0 0.095 0.04 0 0.1 0.04 0 0.105 0.04 0 0.11 0.04 0 0.115 0.04 0 0.12 0.04 0 0.125 0.04 0 0.13 0.04 0 0.135 0.04 0 0.14 0.04 0 0.145 0.04 0 0.15 0.04 0 0.155 0.04 0 0.16 0.04 0 0.165 0.04 0 0.17 0.04 0 0.175 0.04 0 0.18 0.04 0 0.185 0.04 0 0.19 0.04 0 0.195 0.04 0 0.2 0.04 0 0.205 0.04 0 0.21 0.04 0 0.215 0.04 0 0.22 0.04 0 0.225 0.04 0 0.23 0.04 0 0.235 0.04 0 0.24 0.04 0 0.245 0.04 0 0.25 0.04 0 0.255 0.04 0 0.26 0.04 0 0.265 0.04 0 0.27 0.04 0 0.275 0.04 0 0.28 0.04 0 0.285 0.04 0 0.29 0.04 0 0.295 0.04 0 0.3 0.04 0 0.305 0.04 0 0.31 0.04 0 0.315 0.04 0 0.32 0.04 0 0.325 0.04 0 0.33 0.04 0 0.335 0.04 0 0.34 0.04 0 0.345 0.04 0 0.35 0.04 0 0.355 0.04 0 0.36 0.04 0 0.365 0.04 0 0.37 0.04 0 0.375 0.04 0 0.38 0.04 0 0.385 0.04 0 0.39 0.04 0 0.395 0.04 0 0.4 0.04 0 0.405 0.04 0 0.41 0.04 0 0.415 0.04 0 0.42 0.04 0 0.425 0.04 0 0.43 0.04 0 0.435 0.04 0 0.44 0.04 0 0.445 0.04 0 0.45 0.04 0 0.455 0.04 0 0.46 0.04 0 0.465 0.04 0 0.47 0.04 0 0.475 0.04 0 0.48 0.04 0 0.485 0.04 0 0.49 0.04 0 0.495 0.04 0 0.5 0.04 0 0.505 0.04 0 0.51 0.04 0 0.515 0.04 0 0.52 0.04 0 0.525 0.04 0 0.53 0.04 0 0.535 0.04 0 0.54 0.04 0 0.545 0.04 0 0.55 0.04 0 0.555 0.04 0 0.56 0.04 0 0.565 0.04 0 0.57 0.04 0 0.575 0.04 0 0.58 0.04 0 0.585 0.04 0 0.59 0.04 0 0.595 0.04 0 0.6 0.04 0 0.605 0.04 0 0.61 0.04 0 0.615 0.04 0 0.62 0.04 0 0.625 0.04 0 0.63 0.04 0 0.635 0.04 0 0.64 0.04 0 0.645 0.04 0 0.65 0.04 0 0.655 0.04 0 0.66 0.04 0 0.665 0.04 0 0.67 0.04 0 0.675 0.04 0 0.68 0.04 0 0.685 0.04 0 0.69 0.04 0 0.695 0.04 0 0.7 0.04 0 0.705 0.04 0 0.71 0.04 0 0.715 0.04 0 0.72 0.04 0 0.725 0.04 0 0.73 0.04 0 0.735 0.04 0 0.74 0.04 0 0.745 0.04 0 0.75 0.04 0 0.755 0.04 0 0.76 0.04 0 0.765 0.04 0 0.77 0.04 0 0.775 0.04 0 0.78 0.04 0 0.785 0.04 0 0.79 0.04 0 0.795 0.04 0 0.8 0.04 0 0.805 0.04 0 0.81 0.04 0 0.815 0.04 0 0.82 0.04 0 0.825 0.04 0 0.83 0.04 0 0.835 0.04 0 0.84 0.04 0 0.845 0.04 0 0.85 0.04 0 0.855 0.04 0 0.86 0.04 0 0.865 0.04 0 0.87 0.04 0 0.875 0.04 0 0.88 0.04 0 0.885 0.04 0 0.89 0.04 0 0.895 0.04 0 0.9 0.04 0 0.905 0.04 0 0.91 0.04 0 0.915 0.04 0 0.92 0.04 0 0.925 0.04 0 0.93 0.04 0 0.935 0.04 0 0.94 0.04 0 0.945 0.04 0 0.95 0.04 0 0.955 0.04 0 0.96 0.04 0 0.965 0.04 0 0.97 0.04 0 0.975 0.04 0 0.98 0.04 0 0.985 0.04 0 0.99 0.04 0 0.995 0.04 0 1 0.04 0 0 0.06 0 0.005 0.06 0 0.01 0.06 0 0.015 0.06 0 0.02 0.06 0 0.025 0.06 0 0.03 0.06 0 0.035 0.06 0 0.04 0.06 0 0.045 0.06 0 0.05 0.06 0 0.055 0.06 0 0.06 0.06 0 0.065 0.06 0 0.07 0.06 0 0.075 0.06 0 0.08 0.06 0 0.085 0.06 0 0.09 0.06 0 0.095 0.06 0 0.1 0.06 0 0.105 0.06 0 0.11 0.06 0 0.115 0.06 0 0.12 0.06 0 0.125 0.06 0 0.13 0.06 0 0.135 0.06 0 0.14 0.06 0 0.145 0.06 0 0.15 0.06 0 0.155 0.06 0 0.16 0.06 0 0.165 0.06 0 0.17 0.06 0 0.175 0.06 0 0.18 0.06 0 0.185 0.06 0 0.19 0.06 0 0.195 0.06 0 0.2 0.06 0 0.205 0.06 0 0.21 0.06 0 0.215 0.06 0 0.22 0.06 0 0.225 0.06 0 0.23 0.06 0 0.235 0.06 0 0.24 0.06 0 0.245 0.06 0 0.25 0.06 0 0.255 0.06 0 0.26 0.06 0 0.265 0.06 0 0.27 0.06 0 0.275 0.06 0 0.28 0.06 0 0.285 0.06 0 0.29 0.06 0 0.295 0.06 0 0.3 0.06 0 0.305 0.06 0 0.31 0.06 0 0.315 0.06 0 0.32 0.06 0 0.325 0.06 0 0.33 0.06 0 0.335 0.06 0 0.34 0.06 0 0.345 0.06 0 0.35 0.06 0 0.355 0.06 0 0.36 0.06 0 0.365 0.06 0 0.37 0.06 0 0.375 0.06 0 0.38 0.06 0 0.385 0.06 0 0.39 0.06 0 0.395 0.06 0 0.4 0.06 0 0.405 0.06 0 0.41 0.06 0 0.415 0.06 0 0.42 0.06 0 0.425 0.06 0 0.43 0.06 0 0.435 0.06 0 0.44 0.06 0 0.445 0.06 0 0.45 0.06 0 0.455 0.06 0 0.46 0.06 0 0.465 0.06 0 0.47 0.06 0 0.475 0.06 0 0.48 0.06 0 0.485 0.06 0 0.49 0.06 0 0.495 0.06 0 0.5 0.06 0 0.505 0.06 0 0.51 0.06 0 0.515 0.06 0 0.52 0.06 0 0.525 0.06 0 0.53 0.06 0 0.535 0.06 0 0.54 0.06 0 0.545 0.06 0 0.55 0.06 0 0.555 0.06 0 0.56 0.06 0 0.565 0.06 0 0.57 0.06 0 0.575 0.06 0 0.58 0.06 0 0.585 0.06 0 0.59 0.06 0 0.595 0.06 0 0.6 0.06 0 0.605 0.06 0 0.61 0.06 0 0.615 0.06 0 0.62 0.06 0 0.625 0.06 0 0.63 0.06 0 0.635 0.06 0 0.64 0.06 0 0.645 0.06 0 0.65 0.06 0 0.655 0.06 0 0.66 0.06 0 0.665 0.06 0 0.67 0.06 0 0.675 0.06 0 0.68 0.06 0 0.685 0.06 0 0.69 0.06 0 0.695 0.06 0 0.7 0.06 0 0.705 0.06 0 0.71 0.06 0 0.715 0.06 0 0.72 0.06 0 0.725 0.06 0 0.73 0.06 0 0.735 0.06 0 0.74 0.06 0 0.745 0.06 0 0.75 0.06 0 0.755 0.06 0 0.76 0.06 0 0.765 0.06 0 0.77 0.06 0 0.775 0.06 0 0.78 0.06 0 0.785 0.06 0 0.79 0.06 0 0.795 0.06 0 0.8 0.06 0 0.805 0.06 0 0.81 0.06 0 0.815 0.06 0 0.82 0.06 0 0.825 0.06 0 0.83 0.06 0 0.835 0.06 0 0.84 0.06 0 0.845 0.06 0 0.85 0.06 0 0.855 0.06 0 0.86 0.06 0 0.865 0.06 0 0.87 0.06 0 0.875 0.06 0 0.88 0.06 0 0.885 0.06 0 0.89 0.06 0 0.895 0.06 0 0.9 0.06 0 0.905 0.06 0 0.91 0.06 0 0.915 0.06 0 0.92 0.06 0 0.925 0.06 0 0.93 0.06 0 0.935 0.06 0 0.94 0.06 0 0.945 0.06 0 0.95 0.06 0 0.955 0.06 0 0.96 0.06 0 0.965 0.06 0 0.97 0.06 0 0.975 0.06 0 0.98 0.06 0 0.985 0.06 0 0.99 0.06 0 0.995 0.06 0 1 0.06 0 0 0.08 0 0.005 0.08 0 0.01 0.08 0 0.015 0.08 0 0.02 0.08 0 0.025 0.08 0 0.03 0.08 0 0.035 0.08 0 0.04 0.08 0 0.045 0.08 0 0.05 0.08 0 0.055 0.08 0 0.06 0.08 0 0.065 0.08 0 0.07 0.08 0 0.075 0.08 0 0.08 0.08 0 0.085 0.08 0 0.09 0.08 0 0.095 0.08 0 0.1 0.08 0 0.105 0.08 0 0.11 0.08 0 0.115 0.08 0 0.12 0.08 0 0.125 0.08 0 0.13 0.08 0 0.135 0.08 0 0.14 0.08 0 0.145 0.08 0 0.15 0.08 0 0.155 0.08 0 0.16 0.08 0 0.165 0.08 0
[...]
			<PointData Scalars="VitesseX">
				<DataArray Name="VitesseX" type="Float32" format="ascii">
 0 -2.13315e-14 3.45734e-15 -6.27813e-14 -4.27323e-14 -6.14647e-15 2.71724e-14 -4.52653e-14 -8.41855e-14 -8.00895e-14 -5.10649e-14 2.68082e-14 -8.28127e-14 3.22467e-15 -1.13988e-13 -7.31659e-15 -2.81382e-14 -2.49765e-13 -5.71455e-14 3.25473e-14 -2.946e-14 -8.89773e-14 -2.75232e-14 9.54787e-14 1.37589e-13 -5.72356e-14 -1.42318e-13 -7.89173e-14 7.36512e-14 2.84207e-15 8.18641e-14 -2.70152e-13 -1.19356e-13 -6.51126e-14 1.15033e-13 -2.52501e-13 -2.51538e-13 1.0021e-13 -8.45797e-14 2.79023e-13 -1.98817e-13 -1.44413e-13 6.09665e-14 9.85465e-14 -2.42308e-13 -1.63009e-13 -5.46467e-13 1.0335e-13 -1.1811e-13 1.96396e-13 -7.13922e-14 -5.55652e-13 1.55547e-13 4.77285e-14 5.54544e-13 1.55087e-14 -3.59288e-13 2.07252e-13 -3.59531e-13 2.02615e-13 -3.80977e-13 -2.65866e-13 2.10663e-14 -2.62787e-14 -1.23947e-13 -4.28048e-14 -7.05468e-14 5.09359e-13 -1.84224e-13 -7.58448e-14 -1.09647e-13 -1.04833e-13 1.1361e-13 -6.12609e-13 -1.824e-13 -5.34351e-13 3.11212e-13 4.88926e-14 -4.17408e-13 3.54401e-12 4.85394e-11 7.66869e-10 1.07385e-08 1.32274e-07 1.41793e-06 1.30573e-05 0.000101634 0.000654846 0.00339892 0.0137514 0.0421513 0.0983537 0.180187 0.272032 0.360887 0.44598 0.526385 0.602224 0.673475 0.739717 0.800042 0.852762 0.896073 0.926038 0.948418 0.953149 0.949269 1.00655 1.00917 0.970965 0.936338 0.907442 0.861657 0.787163 0.679526 0.542595 0.390618 0.245355 0.129439 0.0561106 0.0204728 0.00667888 0.00203832 0.000595426 0.000167849 4.57679e-05 1.20773e-05 3.08428e-06 7.62278e-07 1.82337e-07 4.22182e-08 9.4645e-09 2.05429e-09 4.31482e-10 8.79148e-11 1.75502e-11 3.87244e-12 1.75241e-13 -3.51869e-13 1.74311e-13 -1.60109e-13 -1.50891e-13 1.14626e-12 -5.68856e-13 -7.6464e-13 -1.72653e-13 5.88162e-13 1.87574e-13 -5.58573e-13 -6.86047e-13 1.59116e-12 4.36427e-14 5.62879e-13 -2.37365e-13 -5.05109e-13 -6.3132e-14 6.37936e-13 -2.84113e-14 -1.2304e-12 -1.02097e-12 9.62231e-13 1.38849e-12 -6.57267e-13 -1.70935e-12 -6.99869e-13 1.22116e-12 7.92248e-13 -4.54854e-13 -2.68295e-13 6.19439e-13 -5.95622e-13 -3.05239e-13 9.39685e-13 4.50266e-13 4.71957e-13 -9.7708e-13 -4.52474e-13 9.65778e-13 4.50468e-13 -1.91034e-13 -1.05767e-12 -1.22324e-12 5.58869e-13 2.04943e-13 -3.2514e-13 -9.80194e-13 -5.70233e-13 1.23884e-12 9.20162e-13 1.35984e-13 -2.3125e-12 3.00526e-13 2.06619e-12 -7.26977e-13 -1.97029e-12 -8.79248e-13 1.23774e-12 1.11481e-12 -1.90328e-12 -1.83856e-12 0 0 7.22928e-15 -3.28691e-14 1.24597e-14 -1.06744e-14 -6.4721e-14 -8.0422e-14 -2.69904e-14 -6.24763e-15 1.86832e-14 -3.99393e-14 -9.69402e-14 1.77042e-15 -5.35783e-14 7.59866e-15 -9.15803e-14 -7.91205e-14 -6.29833e-15 -1.42678e-13 -1.93638e-13 -8.92139e-14 1.25818e-14 1.15763e-13 -8.04957e-14 -3.33966e-14 -3.65002e-14 -5.98162e-14 3.20561e-14 -1.31719e-13 3.34603e-14 -6.34513e-14 1.0321e-13 -9.29663e-14 -1.17579e-13 -2.78266e-13 -3.80515e-14 8.23187e-14 9.26677e-16 -4.54545e-14 -2.19688e-13 6.99968e-14 -6.07433e-14 -1.41909e-13 -2.77012e-13 -1.77624e-14 8.97736e-15 1.05489e-13 -4.4052e-13 -2.09846e-13 -4.21163e-13 7.6939e-14 3.83159e-13 1.47657e-13 -1.81542e-14 -1.6458e-13 3.25387e-14 1.59655e-13 -1.52009e-13 2.04558e-13 -4.18248e-13 -1.25636e-13 -7.72182e-14 -1.27645e-13 -1.48696e-13 4.84941e-14 4.53924e-14 1.95751e-14 -2.97787e-13 3.15112e-13 8.01803e-14 -6.16228e-14 -1.51982e-13 -3.92568e-13 3.6639e-14 -2.47689e-13 -9.89503e-14 -4.55103e-13 -1.95867e-13 5.49305e-13 2.84144e-12 4.90707e-11 7.67005e-10 1.07377e-08 1.32274e-07 1.41793e-06 1.30573e-05 0.000101634 0.000654846 0.00339892 0.0137514 0.0421513 0.0983537 0.180187 0.272032 0.360887 0.44598 0.526385 0.602224 0.673475 0.739717 0.800042 0.852762 0.896073 0.926038 0.948418 0.953149 0.949269 1.00655 1.00917 0.970965 0.936338 0.907442 0.861657 0.787163 0.679526 0.542595 0.390618 0.245355 0.129439 0.0561106 0.0204728 0.00667888 0.00203832 0.000595426 0.000167849 4.57679e-05 1.20773e-05 3.08428e-06 7.62279e-07 1.82337e-07 4.22182e-08 9.46355e-09 2.0545e-09 4.31959e-10 8.79973e-11 1.74295e-11 2.69239e-12 7.31087e-13 3.06315e-13 -3.97742e-13 -1.92273e-13 2.185e-13 -4.61416e-13 3.50061e-13 5.27116e-13 -3.43687e-13 -4.57343e-13 -3.21999e-13 3.15471e-13 9.34081e-13 -3.39837e-13 2.6151e-13 9.8059e-15 4.33583e-13 1.28613e-13 -2.01141e-13 -9.91698e-13 -3.78497e-14 4.28558e-13 2.46737e-13 -7.40927e-13 -1.30706e-12 3.01705e-13 9.96664e-13 1.65042e-13 -6.00335e-13 -5.5647e-13 2.74355e-13 4.43032e-13 -5.01178e-13 3.89601e-13 4.7656e-13 -2.23529e-13 1.28044e-13 -2.34939e-13 7.48372e-13 5.60867e-13 -3.67702e-13 -6.18722e-13 -6.94013e-13 4.33771e-13 1.69241e-13 -8.89185e-13 -5.59392e-13 -8.24775e-13 5.70662e-13 3.12788e-13 -3.354e-13 -4.16383e-13 -5.59798e-13 1.05979e-12 -2.20664e-13 -1.3468e-12 3.16456e-13 1.09315e-12 -1.63928e-13 -1.18299e-12 -1.4504e-12 6.40485e-13 7.32798e-13 0 0 -2.98015e-15 7.94499e-15 -3.97719e-15 -3.47962e-14 -3.73043e-14 -3.14173e-14 -4.36789e-14 -1.19768e-14 -2.33563e-14 -1.26465e-14 1.00721e-14 -5.23284e-14 -6.69692e-14 -6.25609e-14 -2.43106e-14 -6.3044e-14 -9.31735e-14 -1.192e-13 -1.21826e-13 -8.83873e-14 -1.12863e-14 -4.86666e-14 2.73076e-14 -1.30263e-13 -3.45757e-14 -7.32481e-15 -1.08336e-13 4.65488e-14 4.25205e-14 -5.61484e-14 -6.32281e-14 -8.66224e-14 -9.0552e-14 -1.52685e-14 -7.12035e-14 -9.01338e-14 -1.6977e-13 -3.12587e-14 5.63711e-14 1.66072e-14 -1.47823e-13 -1.51564e-13 -8.92709e-14 -2.55533e-13 -1.33956e-14 -6.97383e-14 -5.59493e-14 -2.27024e-13 -6.62624e-14 1.6132e-13 1.24143e-13 1.30289e-13 -1.70406e-13 -2.69815e-13 2.80262e-14 3.26932e-13 1.45908e-13 -2.04017e-13 -3.59212e-13 -4.23144e-13 -1.08101e-13 8.38112e-14 -1.62087e-13 7.89194e-14 -1.21339e-13 -9.74937e-14 2.94392e-13 3.82864e-13 -8.80585e-14 -7.56984e-14 -1.00525e-13 -8.27053e-14 -1.75829e-13 -1.62233e-13 -3.58785e-13 -9.0521e-15 4.66839e-14 3.19431e-13 3.00963e-12 4.86989e-11 7.66549e-10 1.07375e-08 1.32274e-07 1.41793e-06 1.30573e-05 0.000101634 0.000654846 0.00339892 0.0137514 0.0421513 0.0983537 0.180187 0.272032 0.360887 0.44598 0.526385 0.602224 0.673475 0.739717 0.800042 0.852762 0.896073 0.926038 0.948418 0.953149 0.949269 1.00655 1.00917 0.970965 0.936338 0.907442 0.861657 0.787163 0.679526 0.542595 0.390618 0.245355 0.129439 0.0561106 0.0204728 0.00667888 0.00203832 0.000595426 0.000167849 4.57679e-05 1.20773e-05 3.08428e-06 7.62279e-07 1.82337e-07 4.22179e-08 9.46389e-09 2.05431e-09 4.31917e-10 8.79735e-11 1.66741e-11 3.3398e-12 7.53108e-13 -4.56859e-13 -3.90188e-14 -2.57245e-13 -1.74912e-13 5.63018e-13 -5.25406e-13 -2.04491e-14 7.16391e-13 5.435e-14 1.95127e-13 -2.60817e-13 -5.89713e-13 6.44522e-13 5.23103e-13 3.41475e-13 -3.04042e-13 2.39061e-13 -3.83264e-13 -5.31062e-13 -6.4399e-13 -3.09264e-13 -2.30921e-13 -2.67015e-13 1.49313e-13 -1.27415e-13 2.63718e-13 -6.24449e-13 -1.91802e-13 2.77363e-13 6.72008e-13 -1.75406e-13 -9.00986e-14 -7.78056e-13 5.37764e-13 2.29431e-13 2.58185e-13 5.21708e-13 -3.28155e-13 1.07351e-13 2.04101e-13 -4.40352e-13 -2.15095e-14 -5.28479e-13 -2.02269e-13 -2.83245e-13 -1.20809e-12 2.57599e-13 -2.61751e-13 3.10683e-13 -2.55648e-13 -9.74855e-13 7.39367e-13 -2.84116e-13 2.25995e-13 4.22399e-14 -5.72643e-13 7.29898e-14 2.32154e-13 -1.8072e-13 -2.34524e-13 -6.50819e-13 -2.21562e-13 0 0 -6.55909e-15 -1.28749e-14 -5.8328e-14 -5.06319e-14 -4.74665e-17 4.10237e-14 -7.00567e-16 -3.99369e-14 5.26514e-15 -3.32126e-14 -1.35617e-14 -3.00554e-14 -9.92746e-14 -1.27428e-13 -2.68813e-14 -5.6306e-14 -2.03273e-13 8.87283e-15 -1.58617e-14 -7.26887e-14 -1.10039e-13 -9.79661e-14 -2.73985e-14 5.11238e-14 -1.29755e-13 -1.2481e-13 -5.5041e-14 2.75015e-14 5.13694e-14 1.0244e-13 -1.67743e-13 -5.13705e-14 3.65745e-14 -3.45467e-14 -1.85456e-14 -2.41243e-13 1.95707e-14 -2.66459e-14 5.32426e-14 -1.94258e-13 -1.27414e-13 -6.99088e-14 -5.57431e-14 -2.707e-13 -9.75678e-14 -3.42199e-13 9.24682e-14 2.13284e-14 3.24211e-13 -6.34587e-14 -3.26587e-13 2.08348e-13 3.80429e-14 -1.17514e-13 6.62995e-14 -1.30197e-13 3.2541e-14 -2.54583e-13 -1.96827e-13 -3.93762e-13 -4.563e-13 -5.44692e-15 -1.3852e-13 -1.10217e-13 1.52569e-13 4.36837e-13 5.98864e-13 -1.33369e-13 7.97954e-14 -1.10101e-13 2.61406e-13 1.04228e-14 -4.8101e-13 -1.10368e-13 -4.06051e-13 1.56474e-13 1.76305e-13 1.42324e-13 3.29202e-12 4.83522e-11 7.6674e-10 1.0738e-08 1.32274e-07 1.41793e-06 1.30573e-05 0.000101634 0.000654846 0.00339892 0.0137514 0.0421513 0.0983537 0.180187 0.272032 0.360887 0.44598 0.526385 0.602224 0.673475 0.739717 0.800042 0.852762 0.896073 0.926038 0.948418 0.953149 0.949269 1.00655 1.00917 0.970965 0.936338 0.907442 0.861657 0.787163 0.679526 0.542595 0.390618 0.245355 0.129439 0.0561106 0.0204728 0.00667888 0.00203832 0.000595426 0.000167849 4.57679e-05 1.20773e-05 3.08428e-06 7.62279e-07 1.82337e-07 4.22181e-08 9.46403e-09 2.05426e-09 4.31668e-10 8.73247e-11 1.72979e-11 3.54815e-12 2.17776e-14 4.69953e-13 -4.77393e-13 -3.32369e-14 4.08072e-13 4.97771e-13 -2.62766e-13 -8.09324e-14 3.70519e-13 1.04799e-12 2.2128e-13 -3.84668e-13 -4.93535e-13 6.10902e-13 -1.6057e-13 -3.23137e-13 -2.17149e-13 -5.48602e-13 2.39972e-13 -1.69248e-13 -3.32907e-13 -8.91084e-13 -1.3736e-12 -3.56979e-14 5.49157e-13 -1.76497e-13 -3.51484e-13 -5.8569e-13 7.69251e-14 -9.23577e-15 -6.19185e-13 -5.68365e-14 6.62788e-13 -2.80039e-13 3.19906e-13 4.39351e-13 1.04306e-12 5.21177e-14 -7.17583e-13 -3.9014e-13 2.59795e-13 5.25892e-13 5.96115e-13 -9.62128e-13 -1.21058e-12 -2.72258e-13 4.31659e-13 -1.0117e-13 -5.14372e-13 -1.21589e-13 -1.27783e-13 4.70953e-13 2.16582e-13 -8.22445e-13 5.02736e-13 9.80099e-13 -1.31305e-13 -7.29867e-13 -6.53053e-13 1.03781e-12 6.71735e-14 -8.35416e-13 -1.38276e-12 0 0 -3.99113e-16 -5.30389e-14 -1.64521e-14 3.9825e-15 -1.50598e-14 1.49677e-14 2.91461e-14 3.09813e-14 4.85431e-14 -4.55271e-14 -1.19473e-13 2.62178e-14 -1.06569e-13 -9.79192e-14 -1.3939e-13 -1.32463e-13 -4.4873e-14 -5.35223e-14 -1.77059e-13 -1.05723e-13 -5.55269e-14 3.22881e-14 -1.30766e-13 2.79838e-14 -1.09217e-13 -6.66194e-14 5.15996e-14 -1.65742e-13 5.98649e-14 9.75812e-14 1.34608e-13 -1.70565e-14 -7.59065e-14 -3.12989e-13 -1.22884e-13 7.01589e-14 1.7868e-13 -7.11369e-14 -2.76895e-13 -9.19842e-14 -7.74815e-14 -8.99456e-14 -2.97762e-13 -1.10315e-13 -1.3024e-13 -5.10583e-14 -4.53068e-13 -1.06008e-13 -1.60648e-13 1.15742e-13 1.737e-13 -9.85087e-15 6.8685e-14 -2.78249e-13 5.94826e-14 -1.76251e-13 -2.9842e-13 1.48769e-13 -2.04472e-13 -3.49755e-13 -3.87148e-13 -2.08947e-13 -1.17525e-14 1.42613e-13 4.05558e-13 6.13041e-13 1.4467e-14 1.56652e-13 2.1786e-13 -2.64719e-14 -2.82154e-13 -6.06899e-13 1.35897e-13 -1.51507e-13 1.7669e-14 -5.38509e-13 3.26227e-13 6.94632e-13 3.04794e-12 4.89126e-11 7.66891e-10 1.07377e-08 1.32274e-07 1.41793e-06 1.30573e-05 0.000101634 0.000654846 0.00339892 0.0137514 0.0421513 0.0983537 0.180187 0.272032 0.360887 0.44598 0.526385 0.602224 0.673475 0.739717 0.800042 0.852762 0.896073 0.926038 0.948418 0.953149 0.949269 1.00655 1.00917 0.970965 0.936338 0.907442 0.861657 0.787163 0.679526 0.542595 0.390618 0.245355 0.129439 0.0561106 0.0204728 0.00667888 0.00203832 0.000595426 0.000167849 4.57679e-05 1.20773e-05 3.08428e-06 7.62279e-07 1.82336e-07 4.22182e-08 9.46349e-09 2.05426e-09 4.31774e-10 8.73387e-11 1.7697e-11 2.48042e-12 3.12996e-13 9.33493e-13 -6.93319e-13 2.44515e-13 1.00739e-12 -6.48998e-13 7.00789e-13 8.28973e-13 -1.69703e-13 3.60905e-13 -2.04618e-13 8.67806e-13 9.94059e-13 -1.27505e-12 1.01008e-13 -7.34952e-13 2.07747e-14 -7.15309e-13 1.00758e-13 -1.25661e-12 -2.91919e-13 1.3595e-14 -8.97268e-13 -1.48463e-12 -1.097e-12 9.00284e-13 1.60707e-12 3.07597e-13 -3.04745e-13 -1.40941e-12 -9.1566e-13 3.9368e-13 -5.72318e-14 7.53816e-13 -4.67382e-14 -3.73917e-13 2.66142e-13 -2.2829e-13 7.5577e-13 2.97361e-13 -1.50447e-13 -6.62809e-14 -3.10549e-13 1.40013e-13 -6.82028e-13 -7.63035e-13 -1.36272e-13 -5.19709e-13 5.63953e-13 2.04015e-14 -4.23469e-14 5.27497e-13 -9.3084e-13 6.60385e-13 -1.18345e-13 -6.19451e-13 8.30501e-13 7.72413e-13 -7.47873e-13 -7.45666e-13 -1.39287e-12 1.13281e-13 1.64756e-13 0 0 -2.94304e-14 4.75758e-15 -1.19034e-14 1.8253e-14 1.86623e-14 7.307e-14 -1.8949e-14 4.61926e-14 -7.76125e-14 -2.11084e-14 2.90094e-14 -7.84641e-14 -3.81467e-14 -1.9529e-13 -9.77945e-14 -1.48299e-13 -1.06714e-13 -1.34981e-13 -1.46224e-13 -9.38764e-14 -2.76899e-14 -9.58746e-14 1.0435e-13 -1.02424e-13 -1.2309e-14 7.90468e-14 -1.4642e-13 4.37008e-14 3.79535e-14 8.67521e-14 1.67379e-15 -3.80402e-14 -2.3602e-13 8.41434e-14 -5.27483e-13 2.63608e-14 7.70356e-14 -1.4517e-13 1.70867e-13 -1.01048e-13 -2.18706e-13 1.58389e-15 -1.00097e-14 -3.9708e-13 -2.73098e-13 -3.1464e-13 -2.18581e-13 -4.07138e-13 -6.35192e-14 4.55773e-13 -7.31109e-14 -3.15588e-13 -1.95491e-13 2.26047e-14 -7.15014e-15 -1.16842e-13 1.41163e-13 -3.69976e-13 3.05397e-13 -8.8798e-13 -1.89328e-13 3.69787e-14 2.00473e-13 4.42564e-13 1.29708e-13 4.77235e-14 5.24924e-13 5.31323e-13 -1.36194e-13 2.94589e-14 -1.08904e-12 -5.01309e-13 1.9627e-13 -9.37626e-14 -2.06579e-13 -1.86653e-13 8.33838e-13 2.27459e-13 3.39222e-12 4.89166e-11 7.6626e-10 1.07377e-08 1.32275e-07 1.41793e-06 1.30573e-05 0.000101634 0.000654846 0.00339892 0.0137514 0.0421513 0.0983537 0.180187 0.272032 0.360887 0.44598 0.526385 0.602224 0.673475 0.739717 0.800042 0.852762 0.896073 0.926038 0.948418 0.953149 0.949269 1.00655 1.00917 0.970965 0.936338 0.907442 0.861657 0.787163 0.679526 0.542595 0.390618 0.245355 0.129439 0.0561106 0.0204728 0.00667888 0.00203832 0.000595426 0.000167849 4.57679e-05 1.20773e-05 3.08428e-06 7.62278e-07 1.82337e-07 4.22178e-08 9.46409e-09 2.05391e-09 4.31611e-10 8.78952e-11 1.68375e-11 3.03181e-12 8.01722e-13 -9.51137e-13 4.59905e-13 2.65452e-13 2.60912e-13 9.01589e-13 -3.92681e-13 -3.99604e-14 8.67059e-13 2.37372e-13 3.70032e-13 7.938e-13 -7.58446e-13 -2.12025e-13 1.08999e-12 4.02588e-13 -1.23677e-12 -6.17627e-13 -7.05806e-13 -6.1551e-13 -1.15872e-12 -8.96685e-13 -1.02363e-12 -9.87807e-13 1.00892e-12 6.38056e-13 7.4186e-13 -4.92278e-13 1.27489e-12 -3.40426e-13 -2.52502e-13 -6.04138e-13 1.55995e-15 -8.63225e-13 -9.16121e-13 2.19069e-13 -8.43281e-13 1.42444e-12 -1.83427e-13 1.54951e-14 1.2889e-12 -3.77137e-13 -6.59354e-13 -7.77884e-13 -9.09151e-13 7.89194e-13 -2.22831e-12 1.00253e-12 -4.88369e-13 -2.90463e-13 1.56921e-12 -8.36945e-14 4.3947e-13 -2.03466e-12 -4.83184e-14 1.64518e-12 -5.81563e-13 -1.00606e-12 -2.76725e-13 -3.24673e-13 6.26489e-13 -2.58849e-12 -6.52253e-13 0
				</DataArray>
				<DataArray Name="VitesseY" type="Float32" format="ascii">