<?xml version="1.0"?>
<VTKFile type="PolyData">
	<PolyData>
		<Piece NumberOfPoints="1206" NumberOfPolys="1000">
			<Points>
				<DataArray type="Float32" NumberOfComponents="3" format="ascii">
 0 0 0 0.005 0 0 0.01 0 0 0.015 0 0 0.02 0 0 0.025 0 0 0.03 0 0 0.035 0 0 0.04 0 0 0.045 0 0 0.05 0 0 0.055 0 0 0.06 0 0 0.065 0 0 0.07 0 0 0.075 0 0 0.08 0 0 0.085 0 0 0.09 0 0 0.095 0 0 0.1 0 0 0.105 0 0 0.11 0 0 0.115 0 0 0.12 0 0 0.125 0 0 0.13 0 0 0.135 0 0 0.14 0 0 0.145 0 0 0.15 0 0 0.155 0 0 0.16 0 0 0.165 0 0 0.17 0 0 0.175 0 0 0.18 0 0 0.185 0 0 0.19 0 0 0.195 0 0 0.2 0 0 0.205 0 0 0.21 0 0 0.215 0 0 0.22 0 0 0.225 0 0 0.23 0 0 0.235 0 0 0.24 0 0 0.245 0 0 0.25 0 0 0.255 0 0 0.26 0 0 0.265 0 0 0.27 0 0 0.275 0 0 0.28 0 0 0.285 0 0 0.29 0 0 0.295 0 0 0.3 0 0 0.305 0 0 0.31 0 0 0.315 0 0 0.32 0 0 0.325 0 0 0.33 0 0 0.335 0 0 0.34 0 0 0.345 0 0 0.35 0 0 0.355 0 0 0.36 0 0 0.365 0 0 0.37 0 0 0.375 0 0 0.38 0 0 0.385 0 0 0.39 0 0 0.395 0 0 0.4 0 0 0.405 0 0 0.41 0 0 0.415 0 0 0.42 0 0 0.425 0 0 0.43 0 0 0.435 0 0 0.44 0 0 0.445 0 0 0.45 0 0 0.455 0 0 0.46 0 0 0.465 0 0 0.47 0 0 0.475 0 0 0.48 0 0 0.485 0 0 0.49 0 0 0.495 0 0 0.5 0 0 0.505 0 0 0.51 0 0 0.515 0 0 0.52 0 0 0.525 0 0 0.53 0 0 0.535 0 0 0.54 0 0 0.545 0 0 0.55 0 0 0.555 0 0 0.56 0 0 0.565 0 0 0.57 0 0 0.575 0 0 0.58 0 0 0.585 0 0 0.59 0 0 0.595 0 0 0.6 0 0 0.605 0 0 0.61 0 0 0.615 0 0 0.62 0 0 0.625 0 0 0.63 0 0 0.635 0 0 0.64 0 0 0.645 0 0 0.65 0 0 0.655 0 0 0.66 0 0 0.665 0 0 0.67 0 0 0.675 0 0 0.68 0 0 0.685 0 0 0.69 0 0 0.695 0 0 0.7 0 0 0.705 0 0 0.71 0 0 0.715 0 0 0.72 0 0 0.725 0 0 0.73 0 0 0.735 0 0 0.74 0 0 0.745 0 0 0.75 0 0 0.755 0 0 0.76 0 0 0.765 0 0 0.77 0 0 0.775 0 0 0.78 0 0 0.785 0 0 0.79 0 0 0.795 0 0 0.8 0 0 0.805 0 0 0.81 0 0 0.815 0 0 0.82 0 0 0.825 0 0 0.83 0 0 0.835 0 0 0.84 0 0 0.845 0 0 0.85 0 0 0.855 0 0 0.86 0 0 0.865 0 0 0.87 0 0 0.875 0 0 0.88 0 0 0.885 0 0 0.89 0 0 0.895 0 0 0.9 0 0 0.905 0 0 0.91 0 0 0.915 0 0 0.92 0 0 0.925 0 0 0.93 0 0 0.935 0 0 0.94 0 0 0.945 0 0 0.95 0 0 0.955 0 0 0.96 0 0 0.965 0 0 0.97 0 0 0.975 0 0 0.98 0 0 0.985 0 0 0.99 0 0 0.995 0 0 1 0 0 0 0.02 0 0.005 0.02 0 0.01 0.02 0 0.015 0.02 0 0.02 0.02 0 0.025 0.02 0 0.03 0.02 0 0.035 0.02 0 0.04 0.02 0 0.045 0.02 0 0.05 0.02 0 0.055 0.02 0 0.06 0.02 0 0.065 0.02 0 0.07 0.02 0 0.075 0.02 0 0.08 0.02 0 0.085 0.02 0 0.09 0.02 0 0.095 0.02 0 0.1 0.02 0 0.105 0.02 0 0.11 0.02 0 0.115 0.02 0 0.12 0.02 0 0.125 0.02 0 0.13 0.02 0 0.135 0.02 0 0.14 0.02 0 0.145 0.02 0 0.15 0.02 0 0.155 0.02 0 0.16 0.02 0 0.165 0.02 0 0.17 0.02 0 0.175 0.02 0 0.18 0.02 0 0.185 0.02 0 0.19 0.02 0 0.195 0.02 0 0.2 0.02 0 0.205 0.02 0 0.21 0.02 0 0.215 0.02 0 0.22 0.02 0 0.225 0.02 0 0.23 0.02 0 0.235 0.02 0 0.24 0.02 0 0.245 0.02 0 0.25 0.02 0 0.255 0.02 0 0.26 0.02 0 0.265 0.02 0 0.27 0.02 0 0.275 0.02 0 0.28 0.02 0 0.285 0.02 0 0.29 0.02 0 0.295 0.02 0 0.3 0.02 0 0.305 0.02 0 0.31 0.02 0 0.315 0.02 0 0.32 0.02 0 0.325 0.02 0 0.33 0.02 0 0.335 0.02 0 0.34 0.02 0 0.345 0.02 0 0.35 0.02 0 0.355 0.02 0 0.36 0.02 0 0.365 0.02 0 0.37 0.02 0 0.375 0.02 0 0.38 0.02 0 0.385 0.02 0 0.39 0.02 0 0.395 0.02 0 0.4 0.02 0 0.405 0.02 0 0.41 0.02 0 0.415 0.02 0 0.42 0.02 0 0.425 0.02 0 0.43 0.02 0 0.435 0.02 0 0.44 0.02 0 0.445 0.02 0 0.45 0.02 0 0.455 0.02 0 0.46 0.02 0 0.465 0.02 0 0.47 0.02 0 0.475 0.02 0 0.48 0.02 0 0.485 0.02 0 0.49 0.02 0 0.495 0.02 0 0.5 0.02 0 0.505 0.02 0 0.51 0.02 0 0.515 0.02 0 0.52 0.02 0 0.525 0.02 0 0.53 0.02 0 0.535 0.02 0 0.54 0.02 0 0.545 0.02 0 0.55 0.02 0 0.555 0.02 0 0.56 0.02 0 0.565 0.02 0 0.57 0.02 0 0.575 0.02 0 0.58 0.02 0 0.585 0.02 0 0.59 0.02 0 0.595 0.02 0 0.6 0.02 0 0.605 0.02 0 0.61 0.02 0 0.615 0.02 0 0.62 0.02 0 0.625 0.02 0 0.63 0.02 0 0.635 0.02 0 0.64 0.02 0 0.645 0.02 0 0.65 0.02 0 0.655 0.02 0 0.66 0.02 0 0.665 0.02 0 0.67 0.02 0 0.675 0.02 0 0.68 0.02 0 0.685 0.02 0 0.69 0.02 0 0.695 0.02 0 0.7 0.02 0 0.705 0.02 0 0.71 0.02 0 0.715 0.02 0 0.72 0.02 0 0.725 0.02 0 0.73 0.02 0 0.735 0.02 0 0.74 0.02 0 0.745 0.02 0 0.75 0.02 0 0.755 0.02 0 0.76 0.02 0 0.765 0.02 0 0.77 0.02 0 0.775 0.02 0 0.78 0.02 0 0.785 0.02 0 0.79 0.02 0 0.795 0.02 0 0.8 0.02 0 0.805 0.02 0 0.81 0.02 0 0.815 0.02 0 0.82 0.02 0 0.825 0.02 0 0.83 0.02 0 0.835 0.02 0 0.84 0.02 0 0.845 0.02 0 0.85 0.02 0 0.855 0.02 0 0.86 0.02 0 0.865 0.02 0 0.87 0.02 0 0.875 0.02 0 0.88 0.02 0 0.885 0.02 0 0.89 0.02 0 0.895 0.02 0 0.9 0.02 0 0.905 0.02 0 0.91 0.02 0 0.915 0.02 0 0.92 0.02 0 0.925 0.02 0 0.93 0.02 0 0.935 0.02 0 0.94 0.02 0 0.945 0.02 0 0.95 0.02 0 0.955 0.02 0 0.96 0.02 0 0.965 0.02 0 0.97 0.02 0 0.975 0.02 0 0.98 0.02 0 0.985 0.02 0 0.99 0.02 0 0.995 0.02 0 1 0.02 0 0 0.04 0 0.005 0.04 0 0.01 0.04 0 0.015 0.04 0 0.02 0.04 0 0.025 0.04 0 0.03 0.04 0 0.035 0.04 0 0.04 0.04 0 0.045 0.04 0 0.05 0.04 0 0.055 0.04 0 0.06 0.04 0 0.065 0.04 0 0.07 0.04 0 0.075 0.04 0 0.08 0.04 0 0.085 0.04 0 0.09 0.04 0 0.095 0.04 0 0.1 0.04 0 0.105 0.04 0 0.11 0.04 0 0.115 0.04 0 0.12 0.04 0 0.125 0.04 0 0.13 0.04 0 0.135 0.04 0 0.14 0.04 0 0.145 0.04 0 0.15 0.04 0 0.155 0.04 0 0.16 0.04 0 0.165 0.04 0 0.17 0.04 0 0.175 0.04 0 0.18 0.04 0 0.185 0.04 0 0.19 0.04 0 0.195 0.04 0 0.2 0.04 0 0.205 0.04 0 0.21 0.04 0 0.215 0.04 0 0.22 0.04 0 0.225 0.04 0 0.23 0.04 0 0.235 0.04 0 0.24 0.04 0 0.245 0.04 0 0.25 0.04 0 0.255 0.04 0 0.26 0.04 0 0.265 0.04 0 0.27 0.04 0 0.275 0.04 0 0.28 0.04 0 0.285 0.04 0 0.29 0.04 0 0.295 0.04 0 0.3 0.04 0 0.305 0.04 0 0.31 0.04 0 0.315 0.04 0 0.32 0.04 0 0.325 0.04 0 0.33 0.04 0 0.335 0.04 0 0.34 0.04 0 0.345 0.04 0 0.35 0.04 0 0.355 0.04 0 0.36 0.04 0 0.365 0.04 0 0.37 0.04 0 0.375 0.04 0 0.38 0.04 0 0.385 0.04 0 0.39 0.04 0 0.395 0.04 0 0.4 0.04 0 0.405 0.04 0 0.41 0.04 0 0.415 0.04 0 0.42 0.04 0 0.425 0.04 0 0.43 0.04 0 0.435 0.04 0 0.44 0.04 0 0.445 0.04 0 0.45 0.04 0 0.455 0.04 0 0.46 0.04 0 0.465 0.04 0 0.47 0.04 0 0.475 0.04 0 0.48 0.04 0 0.485 0.04 0 0.49 0.04 0 0.495 0.04 0 0.5 0.04 0 0.505 0.04 0 0.51 0.04 0 0.515 0.04 0 0.52 0.04 0 0.525 0.04 0 0.53 0.04 0 0.535 0.04 0 0.54 0.04 0 0.545 0.04 0 0.55 0.04 0 0.555 0.04 0 0.56 0.04 0 0.565 0.04 0 0.57 0.04 0 0.575 0.04 0 0.58 0.04 0 0.585 0.04 0 0.59 0.04 0 0.595 0.04 0 0.6 0.04 0 0.605 0.04 0 0.61 0.04 0 0.615 0.04 0 0.62 0.04 0 0.625 0.04 0 0.63 0.04 0 0.635 0.04 0 0.64 0.04 0 0.645 0.04 0 0.65 0.04 0 0.655 0.04 0 0.66 0.04 0 0.665 0.04 0 0.67 0.04 0 0.675 0.04 0 0.68 0.04 0 0.685 0.04 0 0.69 0.04 0 0.695 0.04 0 0.7 0.04 0 0.705 0.04 0 0.71 0.04 0 0.715 0.04 0 0.72 0.04 0 0.725 0.04 0 0.73 0.04 0 0.735 0.04 0 0.74 0.04 0 0.745 0.04 0 0.75 0.04 0 0.755 0.04 0 0.76 0.04 0 0.765 0.04 0 0.77 0.04 0 0.775 0.04 0 0.78 0.04 0 0.785 0.04 0 0.79 0.04 0 0.795 0.04 0 0.8 0.04 0 0.805 0.04 0 0.81 0.04 0 0.815 0.04 0 0.82 0.04 0 0.825 0.04 0 0.83 0.04 0 0.835 0.04 0 0.84 0.04 0 0.845 0.04 0 0.85 0.04 0 0.855 0.04 0 0.86 0.04 0 0.865 0.04 0 0.87 0.04 0 0.875 0.04 0 0.88 0.04 0 0.885 0.04 0 0.89 0.04 0 0.895 0.04 0 0.9 0.04 0 0.905 0.04 0 0.91 0.04 0 0.915 0.04 0 0.92 0.04 0 0.925 0.04 0 0.93 0.04 0 0.935 0.04 0 0.94 0.04 0 0.945 0.04 0 0.95 0.04 0 0.955 0.04 0 0.96 0.04 0 0.965 0.04 0 0.97 0.04 0 0.975 0.04 0 0.98 0.04 0 0.985 0.04 0 0.99 0.04 0 0.995 0.04 0 1 0.04 0 0 0.06 0 0.005 0.06 0 0.01 0.06 0 0.015 0.06 0 0.02 0.06 0 0.025 0.06 0 0.03 0.06 0 0.035 0.06 0 0.04 0.06 0 0.045 0.06 0 0.05 0.06 0 0.055 0.06 0 0.06 0.06 0 0.065 0.06 0 0.07 0.06 0 0.075 0.06 0 0.08 0.06 0 0.085 0.06 0 0.09 0.06 0 0.095 0.06 0 0.1 0.06 0 0.105 0.06 0 0.11 0.06 0 0.115 0.06 0 0.12 0.06 0 0.125 0.06 0 0.13 0.06 0 0.135 0.06 0 0.14 0.06 0 0.145 0.06 0 0.15 0.06 0 0.155 0.06 0 0.16 0.06 0 0.165 0.06 0 0.17 0.06 0 0.175 0.06 0 0.18 0.06 0 0.185 0.06 0 0.19 0.06 0 0.195 0.06 0 0.2 0.06 0 0.205 0.06 0 0.21 0.06 0 0.215 0.06 0 0.22 0.06 0 0.225 0.06 0 0.23 0.06 0 0.235 0.06 0 0.24 0.06 0 0.245 0.06 0 0.25 0.06 0 0.255 0.06 0 0.26 0.06 0 0.265 0.06 0 0.27 0.06 0 0.275 0.06 0 0.28 0.06 0 0.285 0.06 0 0.29 0.06 0 0.295 0.06 0 0.3 0.06 0 0.305 0.06 0 0.31 0.06 0 0.315 0.06 0 0.32 0.06 0 0.325 0.06 0 0.33 0.06 0 0.335 0.06 0 0.34 0.06 0 0.345 0.06 0 0.35 0.06 0 0.355 0.06 0 0.36 0.06 0 0.365 0.06 0 0.37 0.06 0 0.375 0.06 0 0.38 0.06 0 0.385 0.06 0 0.39 0.06 0 0.395 0.06 0 0.4 0.06 0 0.405 0.06 0 0.41 0.06 0 0.415 0.06 0 0.42 0.06 0 0.425 0.06 0 0.43 0.06 0 0.435 0.06 0 0.44 0.06 0 0.445 0.06 0 0.45 0.06 0 0.455 0.06 0 0.46 0.06 0 0.465 0.06 0 0.47 0.06 0 0.475 0.06 0 0.48 0.06 0 0.485 0.06 0 0.49 0.06 0 0.495 0.06 0 0.5 0.06 0 0.505 0.06 0 0.51 0.06 0 0.515 0.06 0 0.52 0.06 0 0.525 0.06 0 0.53 0.06 0 0.535 0.06 0 0.54 0.06 0 0.545 0.06 0 0.55 0.06 0 0.555 0.06 0 0.56 0.06 0 0.565 0.06 0 0.57 0.06 0 0.575 0.06 0 0.58 0.06 0 0.585 0.06 0 0.59 0.06 0 0.595 0.06 0 0.6 0.06 0 0.605 0.06 0 0.61 0.06 0 0.615 0.06 0 0.62 0.06 0 0.625 0.06 0 0.63 0.06 0 0.635 0.06 0 0.64 0.06 0 0.645 0.06 0 0.65 0.06 0 0.655 0.06 0 0.66 0.06 0 0.665 0.06 0 0.67 0.06 0 0.675 0.06 0 0.68 0.06 0 0.685 0.06 0 0.69 0.06 0 0.695 0.06 0 0.7 0.06 0 0.705 0.06 0 0.71 0.06 0 0.715 0.06 0 0.72 0.06 0 0.725 0.06 0 0.73 0.06 0 0.735 0.06 0 0.74 0.06 0 0.745 0.06 0 0.75 0.06 0 0.755 0.06 0 0.76 0.06 0 0.765 0.06 0 0.77 0.06 0 0.775 0.06 0 0.78 0.06 0 0.785 0.06 0 0.79 0.06 0 0.795 0.06 0 0.8 0.06 0 0.805 0.06 0 0.81 0.06 0 0.815 0.06 0 0.82 0.06 0 0.825 0.06 0 0.83 0.06 0 0.835 0.06 0 0.84 0.06 0 0.845 0.06 0 0.85 0.06 0 0.855 0.06 0 0.86 0.06 0 0.865 0.06 0 0.87 0.06 0 0.875 0.06 0 0.88 0.06 0 0.885 0.06 0 0.89 0.06 0 0.895 0.06 0 0.9 0.06 0 0.905 0.06 0 0.91 0.06 0 0.915 0.06 0 0.92 0.06 0 0.925 0.06 0 0.93 0.06 0 0.935 0.06 0 0.94 0.06 0 0.945 0.06 0 0.95 0.06 0 0.955 0.06 0 0.96 0.06 0 0.965 0.06 0 0.97 0.06 0 0.975 0.06 0 0.98 0.06 0 0.985 0.06 0 0.99 0.06 0 0.995 0.06 0 1 0.06 0 0 0.08 0 0.005 0.08 0 0.01 0.08 0 0.015 0.08 0 0.02 0.08 0 0.025 0.08 0 0.03 0.08 0 0.035 0.08 0 0.04 0.08 0 0.045 0.08 0 0.05 0.08 0 0.055 0.08 0 0.06 0.08 0 0.065 0.08 0 0.07 0.08 0 0.075 0.08 0 0.08 0.08 0 0.085 0.08 0 0.09 0.08 0 0.095 0.08 0 0.1 0.08 0 0.105 0.08 0 0.11 0.08 0 0.115 0.08 0 0.12 0.08 0 0.125 0.08 0 0.13 0.08 0 0.135 0.08 0 0.14 0.08 0 0.145 0.08 0 0.15 0.08 0 0.155 0.08 0 0.16 0.08 0 0.165 0.08 0
[...]
			<PointData Scalars="VitesseX">
				<DataArray Name="VitesseX" type="Float32" format="ascii">
 0 -2.25913e-15 1.84599e-15 -1.72801e-14 -7.50907e-15 -3.90249e-14 -5.83992e-15 -4.50775e-14 -4.95547e-14 -2.33238e-14 -6.74092e-14 -7.69862e-14 -5.10292e-14 -2.95204e-14 -1.02853e-13 -5.32119e-14 -4.44084e-14 1.02921e-14 1.90022e-14 1.22222e-14 -9.56903e-14 1.80248e-14 3.36817e-14 -3.24417e-14 3.55049e-14 -8.62191e-14 -1.67767e-13 7.3677e-14 -6.08966e-14 -7.52059e-14 -7.36901e-14 -5.8683e-14 9.24978e-14 -1.73715e-13 1.53409e-13 -1.72312e-13 3.5971e-13 7.93541e-14 6.74809e-13 3.83929e-12 2.28946e-11 1.30023e-10 7.05158e-10 3.62942e-09 1.77231e-08 8.18894e-08 3.57098e-07 1.4655e-06 5.64163e-06 2.02961e-05 6.79361e-05 0.000210493 0.000600106 0.00156373 0.00369899 0.00789947 0.0151795 0.026264 0.0411801 0.0592143 0.0793076 0.100533 0.122304 0.144324 0.166451 0.188613 0.210769 0.232905 0.255011 0.277076 0.299095 0.32106 0.342966 0.36481 0.386586 0.408291 0.429921 0.451473 0.472942 0.494324 0.515615 0.536809 0.557899 0.57888 0.599741 0.620473 0.641064 0.661497 0.681753 0.701811 0.72164 0.741207 0.760468 0.779369 0.797847 0.815823 0.833199 0.849858 0.86566 0.880437 0.893996 0.906123 0.9166 0.925231 0.931884 0.936533 0.939339 0.939286 0.938963 0.938353 0.937591 0.93673 0.935821 0.93491 0.934024 0.93319 0.932429 0.931751 0.931162 0.930659 0.930236 0.929883 0.92959 0.929348 0.929146 0.928976 0.928831 0.928706 0.928597 0.928501 0.928397 0.928207 0.928192 0.927902 0.945741 0.945856 0.935646 0.929486 0.928155 0.927803 0.927699 0.927657 0.927633 0.927615 0.927601 0.927588 0.927579 0.927572 0.927566 0.927556 0.927534 0.927485 0.927371 0.927123 0.926607 0.925562 0.923524 0.919663 0.912545 0.899835 0.878034 0.842494 0.788037 0.710386 0.608387 0.486466 0.356058 0.232876 0.13304 0.0658702 0.0288336 0.0116648 0.00453109 0.00172747 0.000653109 0.000245887 9.23243e-05 3.45873e-05 1.29285e-05 4.82113e-06 1.79317e-06 6.65056e-07 2.45889e-07 9.06032e-08 3.32616e-08 1.21617e-08 4.42807e-09 1.60421e-09 5.78363e-10 2.07338e-10 7.41416e-11 2.58572e-11 9.13002e-12 2.93064e-12 9.79763e-13 1.70837e-13 2.23454e-13 -3.04829e-13 4.91877e-13 -2.47661e-13 0 0 -2.22008e-15 -6.94469e-15 -4.30965e-15 -3.26154e-14 -2.17408e-14 -3.92463e-14 -3.78442e-14 -3.77716e-14 -4.63484e-14 -5.17536e-14 -5.64787e-14 -4.92825e-14 -8.06524e-14 -3.15879e-14 -3.18387e-14 -3.11727e-14 -3.11206e-14 -2.72532e-14 -9.54502e-15 3.96411e-14 -3.19886e-14 -4.28093e-14 7.90345e-15 -4.32446e-14 -3.47302e-14 -2.08027e-14 -1.00329e-13 -1.13459e-13 4.61623e-15 -4.48463e-14 -4.71678e-14 -6.15192e-14 9.30805e-14 -1.51936e-13 7.73844e-14 -5.17682e-14 2.9835e-13 6.63404e-13 3.88545e-12 2.29261e-11 1.30127e-10 7.04895e-10 3.62953e-09 1.77234e-08 8.1889e-08 3.57098e-07 1.4655e-06 5.64163e-06 2.02961e-05 6.79361e-05 0.000210493 0.000600106 0.00156373 0.00369899 0.00789947 0.0151795 0.026264 0.0411801 0.0592143 0.0793076 0.100533 0.122304 0.144324 0.166451 0.188613 0.210769 0.232905 0.255011 0.277076 0.299095 0.32106 0.342966 0.36481 0.386586 0.408291 0.429921 0.451473 0.472942 0.494324 0.515615 0.536809 0.557899 0.57888 0.599741 0.620473 0.641064 0.661497 0.681753 0.701811 0.72164 0.741207 0.760468 0.779369 0.797847 0.815823 0.833199 0.849858 0.86566 0.880437 0.893996 0.906123 0.9166 0.925231 0.931884 0.936533 0.939339 0.939286 0.938963 0.938353 0.937591 0.93673 0.935821 0.93491 0.934024 0.93319 0.932429 0.931751 0.931162 0.930659 0.930236 0.929883 0.92959 0.929348 0.929146 0.928976 0.928831 0.928706 0.928597 0.928501 0.928397 0.928207 0.928192 0.927902 0.945741 0.945856 0.935646 0.929486 0.928155 0.927803 0.927699 0.927657 0.927633 0.927615 0.927601 0.927588 0.927579 0.927572 0.927566 0.927556 0.927534 0.927485 0.927371 0.927123 0.926607 0.925562 0.923524 0.919663 0.912545 0.899835 0.878034 0.842494 0.788037 0.710386 0.608387 0.486466 0.356058 0.232876 0.13304 0.0658702 0.0288336 0.0116648 0.00453109 0.00172747 0.000653109 0.000245887 9.23243e-05 3.45873e-05 1.29285e-05 4.82113e-06 1.79317e-06 6.65056e-07 2.45889e-07 9.06033e-08 3.32614e-08 1.21621e-08 4.42753e-09 1.60477e-09 5.78392e-10 2.074e-10 7.36774e-11 2.60732e-11 8.91327e-12 3.13776e-12 6.88846e-13 2.10163e-13 2.5837e-13 3.34987e-13 -4.57521e-13 -1.0172e-13 0 0 -9.22565e-15 -8.69189e-15 -2.40086e-14 -1.46419e-14 -3.86329e-14 -3.84031e-14 -5.24327e-14 -4.46693e-14 -5.88932e-14 -3.24496e-14 -5.46261e-14 -6.73475e-14 -3.05906e-14 -5.66376e-14 -1.96927e-14 7.43797e-15 -2.83028e-14 1.47985e-14 -9.11601e-14 -7.51466e-15 1.99538e-14 -3.8968e-14 1.91835e-14 -9.16059e-14 4.99007e-15 -5.80743e-14 -6.1144e-14 -1.37164e-13 -5.87531e-14 -9.72962e-14 4.21286e-14 -6.22514e-16 -6.4584e-14 6.45173e-14 -1.42616e-13 1.32123e-14 1.69846e-13 6.69264e-13 3.84702e-12 2.30034e-11 1.30243e-10 7.048e-10 3.62961e-09 1.77234e-08 8.18892e-08 3.57098e-07 1.4655e-06 5.64163e-06 2.02961e-05 6.79361e-05 0.000210493 0.000600106 0.00156373 0.00369899 0.00789947 0.0151795 0.026264 0.0411801 0.0592143 0.0793076 0.100533 0.122304 0.144324 0.166451 0.188613 0.210769 0.232905 0.255011 0.277076 0.299095 0.32106 0.342966 0.36481 0.386586 0.408291 0.429921 0.451473 0.472942 0.494324 0.515615 0.536809 0.557899 0.57888 0.599741 0.620473 0.641064 0.661497 0.681753 0.701811 0.72164 0.741207 0.760468 0.779369 0.797847 0.815823 0.833199 0.849858 0.86566 0.880437 0.893996 0.906123 0.9166 0.925231 0.931884 0.936533 0.939339 0.939286 0.938963 0.938353 0.937591 0.93673 0.935821 0.93491 0.934024 0.93319 0.932429 0.931751 0.931162 0.930659 0.930236 0.929883 0.92959 0.929348 0.929146 0.928976 0.928831 0.928706 0.928597 0.928501 0.928397 0.928207 0.928192 0.927902 0.945741 0.945856 0.935646 0.929486 0.928155 0.927803 0.927699 0.927657 0.927633 0.927615 0.927601 0.927588 0.927579 0.927572 0.927566 0.927556 0.927534 0.927485 0.927371 0.927123 0.926607 0.925562 0.923524 0.919663 0.912545 0.899835 0.878034 0.842494 0.788037 0.710386 0.608387 0.486466 0.356058 0.232876 0.13304 0.0658702 0.0288336 0.0116648 0.00453109 0.00172747 0.000653109 0.000245887 9.23243e-05 3.45873e-05 1.29285e-05 4.82113e-06 1.79317e-06 6.65056e-07 2.4589e-07 9.06032e-08 3.32613e-08 1.21622e-08 4.4277e-09 1.60481e-09 5.78653e-10 2.07254e-10 7.33956e-11 2.58535e-11 8.80475e-12 2.88111e-12 8.18659e-13 2.49233e-13 -1.70588e-13 2.75973e-15 3.32285e-13 -2.11303e-13 0 0 -1.89568e-15 -3.54561e-15 -1.31279e-14 -2.26431e-14 -4.91628e-14 -2.55409e-14 -5.46876e-14 -7.04881e-14 -6.2308e-14 -4.1184e-14 -2.82376e-14 -3.86875e-14 -3.09312e-14 -6.83534e-14 -1.71779e-14 8.99105e-16 -2.60676e-14 3.87759e-15 3.20811e-14 -1.02805e-13 -2.19039e-14 2.63595e-14 -5.30173e-14 1.05522e-14 -1.47597e-13 -1.38387e-13 2.67868e-14 -7.41436e-14 -4.46865e-14 -3.33278e-14 -6.37015e-14 6.1064e-14 -1.11451e-13 3.57114e-14 -1.67409e-13 1.48168e-13 -1.00105e-14 8.22211e-13 3.98571e-12 2.29283e-11 1.30218e-10 7.04928e-10 3.62954e-09 1.77232e-08 8.18893e-08 3.57098e-07 1.4655e-06 5.64163e-06 2.02961e-05 6.79361e-05 0.000210493 0.000600106 0.00156373 0.00369899 0.00789947 0.0151795 0.026264 0.0411801 0.0592143 0.0793076 0.100533 0.122304 0.144324 0.166451 0.188613 0.210769 0.232905 0.255011 0.277076 0.299095 0.32106 0.342966 0.36481 0.386586 0.408291 0.429921 0.451473 0.472942 0.494324 0.515615 0.536809 0.557899 0.57888 0.599741 0.620473 0.641064 0.661497 0.681753 0.701811 0.72164 0.741207 0.760468 0.779369 0.797847 0.815823 0.833199 0.849858 0.86566 0.880437 0.893996 0.906123 0.9166 0.925231 0.931884 0.936533 0.939339 0.939286 0.938963 0.938353 0.937591 0.93673 0.935821 0.93491 0.934024 0.93319 0.932429 0.931751 0.931162 0.930659 0.930236 0.929883 0.92959 0.929348 0.929146 0.928976 0.928831 0.928706 0.928597 0.928501 0.928397 0.928207 0.928192 0.927902 0.945741 0.945856 0.935646 0.929486 0.928155 0.927803 0.927699 0.927657 0.927633 0.927615 0.927601 0.927588 0.927579 0.927572 0.927566 0.927556 0.927534 0.927485 0.927371 0.927123 0.926607 0.925562 0.923524 0.919663 0.912545 0.899835 0.878034 0.842494 0.788037 0.710386 0.608387 0.486466 0.356058 0.232876 0.13304 0.0658702 0.0288336 0.0116648 0.00453109 0.00172747 0.000653109 0.000245887 9.23243e-05 3.45873e-05 1.29285e-05 4.82113e-06 1.79317e-06 6.65056e-07 2.4589e-07 9.06031e-08 3.32616e-08 1.21619e-08 4.4279e-09 1.6044e-09 5.7857e-10 2.07272e-10 7.37712e-11 2.55494e-11 9.00489e-12 2.77108e-12 5.63805e-13 -9.56841e-14 2.51899e-13 -8.47453e-14 1.54049e-13 2.01333e-13 0 0 4.94131e-15 -1.5498e-15 7.07613e-15 -4.73067e-14 -3.92086e-14 -3.68193e-14 -2.67292e-14 -4.66213e-14 -1.61163e-14 -7.62756e-14 -3.57777e-14 -1.42696e-14 -6.58138e-14 -6.50787e-15 -2.66734e-14 -2.58854e-15 -2.02246e-14 -2.69274e-14 3.08083e-14 -3.83602e-14 -7.17602e-14 -8.61103e-14 -9.34609e-14 -1.04004e-14 -1.44907e-13 -5.71642e-14 -7.16761e-14 -5.04682e-14 -2.07254e-14 -5.02982e-15 -5.78043e-14 -7.46567e-14 7.61819e-14 -1.6253e-13 1.21533e-13 5.56066e-15 2.69735e-13 7.72114e-13 4.02003e-12 2.29193e-11 1.30178e-10 7.04951e-10 3.62953e-09 1.77233e-08 8.18891e-08 3.57098e-07 1.4655e-06 5.64163e-06 2.02961e-05 6.79361e-05 0.000210493 0.000600106 0.00156373 0.00369899 0.00789947 0.0151795 0.026264 0.0411801 0.0592143 0.0793076 0.100533 0.122304 0.144324 0.166451 0.188613 0.210769 0.232905 0.255011 0.277076 0.299095 0.32106 0.342966 0.36481 0.386586 0.408291 0.429921 0.451473 0.472942 0.494324 0.515615 0.536809 0.557899 0.57888 0.599741 0.620473 0.641064 0.661497 0.681753 0.701811 0.72164 0.741207 0.760468 0.779369 0.797847 0.815823 0.833199 0.849858 0.86566 0.880437 0.893996 0.906123 0.9166 0.925231 0.931884 0.936533 0.939339 0.939286 0.938963 0.938353 0.937591 0.93673 0.935821 0.93491 0.934024 0.93319 0.932429 0.931751 0.931162 0.930659 0.930236 0.929883 0.92959 0.929348 0.929146 0.928976 0.928831 0.928706 0.928597 0.928501 0.928397 0.928207 0.928192 0.927902 0.945741 0.945856 0.935646 0.929486 0.928155 0.927803 0.927699 0.927657 0.927633 0.927615 0.927601 0.927588 0.927579 0.927572 0.927566 0.927556 0.927534 0.927485 0.927371 0.927123 0.926607 0.925562 0.923524 0.919663 0.912545 0.899835 0.878034 0.842494 0.788037 0.710386 0.608387 0.486466 0.356058 0.232876 0.13304 0.0658702 0.0288336 0.0116648 0.00453109 0.00172747 0.000653109 0.000245887 9.23243e-05 3.45873e-05 1.29285e-05 4.82113e-06 1.79317e-06 6.65057e-07 2.4589e-07 9.06033e-08 3.32616e-08 1.21621e-08 4.42767e-09 1.6044e-09 5.78508e-10 2.0711e-10 7.39251e-11 2.57375e-11 8.60923e-12 2.87917e-12 3.09943e-13 -4.12547e-14 2.85302e-13 2.35103e-13 -5.12695e-13 2.94474e-13 0 0 -2.59627e-15 2.3432e-15 -1.62699e-14 -2.08893e-14 -5.29006e-14 -2.67103e-14 -1.83377e-14 -1.56164e-14 4.397e-14 -9.89843e-14 -8.83611e-14 -3.83234e-14 8.37947e-16 -2.92617e-14 -4.79108e-14 2.58377e-14 2.76137e-14 4.14956e-14 -1.53553e-13 -6.11119e-14 2.21972e-14 -1.83575e-13 -9.07689e-14 -1.03123e-13 -1.39801e-15 -7.98645e-14 -4.48796e-14 -6.09556e-14 -1.54022e-13 -1.21994e-13 1.31704e-13 -5.715e-14 -1.13779e-13 1.89833e-13 -3.44298e-14 2.04457e-13 3.81839e-13 5.86335e-13 3.83107e-12 2.30313e-11 1.30175e-10 7.05013e-10 3.62957e-09 1.77233e-08 8.18893e-08 3.57098e-07 1.4655e-06 5.64163e-06 2.02961e-05 6.79361e-05 0.000210493 0.000600106 0.00156373 0.00369899 0.00789947 0.0151795 0.026264 0.0411801 0.0592143 0.0793076 0.100533 0.122304 0.144324 0.166451 0.188613 0.210769 0.232905 0.255011 0.277076 0.299095 0.32106 0.342966 0.36481 0.386586 0.408291 0.429921 0.451473 0.472942 0.494324 0.515615 0.536809 0.557899 0.57888 0.599741 0.620473 0.641064 0.661497 0.681753 0.701811 0.72164 0.741207 0.760468 0.779369 0.797847 0.815823 0.833199 0.849858 0.86566 0.880437 0.893996 0.906123 0.9166 0.925231 0.931884 0.936533 0.939339 0.939286 0.938963 0.938353 0.937591 0.93673 0.935821 0.93491 0.934024 0.93319 0.932429 0.931751 0.931162 0.930659 0.930236 0.929883 0.92959 0.929348 0.929146 0.928976 0.928831 0.928706 0.928597 0.928501 0.928397 0.928207 0.928192 0.927902 0.945741 0.945856 0.935646 0.929486 0.928155 0.927803 0.927699 0.927657 0.927633 0.927615 0.927601 0.927588 0.927579 0.927572 0.927566 0.927556 0.927534 0.927485 0.927371 0.927123 0.926607 0.925562 0.923524 0.919663 0.912545 0.899835 0.878034 0.842494 0.788037 0.710386 0.608387 0.486466 0.356058 0.232876 0.13304 0.0658702 0.0288336 0.0116648 0.00453109 0.00172747 0.000653109 0.000245887 9.23243e-05 3.45873e-05 1.29285e-05 4.82113e-06 1.79317e-06 6.65057e-07 2.45889e-07 9.06034e-08 3.32617e-08 1.21622e-08 4.42794e-09 1.6043e-09 5.78762e-10 2.06721e-10 7.38857e-11 2.57941e-11 8.12167e-12 2.63352e-12 7.31663e-13 3.57836e-13 -5.67654e-13 -3.29585e-13 7.38e-13 -2.80544e-13 0
				</DataArray>
				<DataArray Name="VitesseY" type="Float32" format="ascii">