<?xml version="1.0"?>
<VTKFile type="PolyData">
	<PolyData>
		<Piece NumberOfPoints="1206" NumberOfPolys="1000">
			<Points>
				<DataArray type="Float32" NumberOfComponents="3" format="ascii">
 0 0 0 0.005 0 0 0.01 0 0 0.015 0 0 0.02 0 0 0.025 0 0 0.03 0 0 0.035 0 0 0.04 0 0 0.045 0 0 0.05 0 0 0.055 0 0 0.06 0 0 0.065 0 0 0.07 0 0 0.075 0 0 0.08 0 0 0.085 0 0 0.09 0 0 0.095 0 0 0.1 0 0 0.105 0 0 0.11 0 0 0.115 0 0 0.12 0 0 0.125 0 0 0.13 0 0 0.135 0 0 0.14 0 0 0.145 0 0 0.15 0 0 0.155 0 0 0.16 0 0 0.165 0 0 0.17 0 0 0.175 0 0 0.18 0 0 0.185 0 0 0.19 0 0 0.195 0 0 0.2 0 0 0.205 0 0 0.21 0 0 0.215 0 0 0.22 0 0 0.225 0 0 0.23 0 0 0.235 0 0 0.24 0 0 0.245 0 0 0.25 0 0 0.255 0 0 0.26 0 0 0.265 0 0 0.27 0 0 0.275 0 0 0.28 0 0 0.285 0 0 0.29 0 0 0.295 0 0 0.3 0 0 0.305 0 0 0.31 0 0 0.315 0 0 0.32 0 0 0.325 0 0 0.33 0 0 0.335 0 0 0.34 0 0 0.345 0 0 0.35 0 0 0.355 0 0 0.36 0 0 0.365 0 0 0.37 0 0 0.375 0 0 0.38 0 0 0.385 0 0 0.39 0 0 0.395 0 0 0.4 0 0 0.405 0 0 0.41 0 0 0.415 0 0 0.42 0 0 0.425 0 0 0.43 0 0 0.435 0 0 0.44 0 0 0.445 0 0 0.45 0 0 0.455 0 0 0.46 0 0 0.465 0 0 0.47 0 0 0.475 0 0 0.48 0 0 0.485 0 0 0.49 0 0 0.495 0 0 0.5 0 0 0.505 0 0 0.51 0 0 0.515 0 0 0.52 0 0 0.525 0 0 0.53 0 0 0.535 0 0 0.54 0 0 0.545 0 0 0.55 0 0 0.555 0 0 0.56 0 0 0.565 0 0 0.57 0 0 0.575 0 0 0.58 0 0 0.585 0 0 0.59 0 0 0.595 0 0 0.6 0 0 0.605 0 0 0.61 0 0 0.615 0 0 0.62 0 0 0.625 0 0 0.63 0 0 0.635 0 0 0.64 0 0 0.645 0 0 0.65 0 0 0.655 0 0 0.66 0 0 0.665 0 0 0.67 0 0 0.675 0 0 0.68 0 0 0.685 0 0 0.69 0 0 0.695 0 0 0.7 0 0 0.705 0 0 0.71 0 0 0.715 0 0 0.72 0 0 0.725 0 0 0.73 0 0 0.735 0 0 0.74 0 0 0.745 0 0 0.75 0 0 0.755 0 0 0.76 0 0 0.765 0 0 0.77 0 0 0.775 0 0 0.78 0 0 0.785 0 0 0.79 0 0 0.795 0 0 0.8 0 0 0.805 0 0 0.81 0 0 0.815 0 0 0.82 0 0 0.825 0 0 0.83 0 0 0.835 0 0 0.84 0 0 0.845 0 0 0.85 0 0 0.855 0 0 0.86 0 0 0.865 0 0 0.87 0 0 0.875 0 0 0.88 0 0 0.885 0 0 0.89 0 0 0.895 0 0 0.9 0 0 0.905 0 0 0.91 0 0 0.915 0 0 0.92 0 0 0.925 0 0 0.93 0 0 0.935 0 0 0.94 0 0 0.945 0 0 0.95 0 0 0.955 0 0 0.96 0 0 0.965 0 0 0.97 0 0 0.975 0 0 0.98 0 0 0.985 0 0 0.99 0 0 0.995 0 0 1 0 0 0 0.02 0 0.005 0.02 0 0.01 0.02 0 0.015 0.02 0 0.02 0.02 0 0.025 0.02 0 0.03 0.02 0 0.035 0.02 0 0.04 0.02 0 0.045 0.02 0 0.05 0.02 0 0.055 0.02 0 0.06 0.02 0 0.065 0.02 0 0.07 0.02 0 0.075 0.02 0 0.08 0.02 0 0.085 0.02 0 0.09 0.02 0 0.095 0.02 0 0.1 0.02 0 0.105 0.02 0 0.11 0.02 0 0.115 0.02 0 0.12 0.02 0 0.125 0.02 0 0.13 0.02 0 0.135 0.02 0 0.14 0.02 0 0.145 0.02 0 0.15 0.02 0 0.155 0.02 0 0.16 0.02 0 0.165 0.02 0 0.17 0.02 0 0.175 0.02 0 0.18 0.02 0 0.185 0.02 0 0.19 0.02 0 0.195 0.02 0 0.2 0.02 0 0.205 0.02 0 0.21 0.02 0 0.215 0.02 0 0.22 0.02 0 0.225 0.02 0 0.23 0.02 0 0.235 0.02 0 0.24 0.02 0 0.245 0.02 0 0.25 0.02 0 0.255 0.02 0 0.26 0.02 0 0.265 0.02 0 0.27 0.02 0 0.275 0.02 0 0.28 0.02 0 0.285 0.02 0 0.29 0.02 0 0.295 0.02 0 0.3 0.02 0 0.305 0.02 0 0.31 0.02 0 0.315 0.02 0 0.32 0.02 0 0.325 0.02 0 0.33 0.02 0 0.335 0.02 0 0.34 0.02 0 0.345 0.02 0 0.35 0.02 0 0.355 0.02 0 0.36 0.02 0 0.365 0.02 0 0.37 0.02 0 0.375 0.02 0 0.38 0.02 0 0.385 0.02 0 0.39 0.02 0 0.395 0.02 0 0.4 0.02 0 0.405 0.02 0 0.41 0.02 0 0.415 0.02 0 0.42 0.02 0 0.425 0.02 0 0.43 0.02 0 0.435 0.02 0 0.44 0.02 0 0.445 0.02 0 0.45 0.02 0 0.455 0.02 0 0.46 0.02 0 0.465 0.02 0 0.47 0.02 0 0.475 0.02 0 0.48 0.02 0 0.485 0.02 0 0.49 0.02 0 0.495 0.02 0 0.5 0.02 0 0.505 0.02 0 0.51 0.02 0 0.515 0.02 0 0.52 0.02 0 0.525 0.02 0 0.53 0.02 0 0.535 0.02 0 0.54 0.02 0 0.545 0.02 0 0.55 0.02 0 0.555 0.02 0 0.56 0.02 0 0.565 0.02 0 0.57 0.02 0 0.575 0.02 0 0.58 0.02 0 0.585 0.02 0 0.59 0.02 0 0.595 0.02 0 0.6 0.02 0 0.605 0.02 0 0.61 0.02 0 0.615 0.02 0 0.62 0.02 0 0.625 0.02 0 0.63 0.02 0 0.635 0.02 0 0.64 0.02 0 0.645 0.02 0 0.65 0.02 0 0.655 0.02 0 0.66 0.02 0 0.665 0.02 0 0.67 0.02 0 0.675 0.02 0 0.68 0.02 0 0.685 0.02 0 0.69 0.02 0 0.695 0.02 0 0.7 0.02 0 0.705 0.02 0 0.71 0.02 0 0.715 0.02 0 0.72 0.02 0 0.725 0.02 0 0.73 0.02 0 0.735 0.02 0 0.74 0.02 0 0.745 0.02 0 0.75 0.02 0 0.755 0.02 0 0.76 0.02 0 0.765 0.02 0 0.77 0.02 0 0.775 0.02 0 0.78 0.02 0 0.785 0.02 0 0.79 0.02 0 0.795 0.02 0 0.8 0.02 0 0.805 0.02 0 0.81 0.02 0 0.815 0.02 0 0.82 0.02 0 0.825 0.02 0 0.83 0.02 0 0.835 0.02 0 0.84 0.02 0 0.845 0.02 0 0.85 0.02 0 0.855 0.02 0 0.86 0.02 0 0.865 0.02 0 0.87 0.02 0 0.875 0.02 0 0.88 0.02 0 0.885 0.02 0 0.89 0.02 0 0.895 0.02 0 0.9 0.02 0 0.905 0.02 0 0.91 0.02 0 0.915 0.02 0 0.92 0.02 0 0.925 0.02 0 0.93 0.02 0 0.935 0.02 0 0.94 0.02 0 0.945 0.02 0 0.95 0.02 0 0.955 0.02 0 0.96 0.02 0 0.965 0.02 0 0.97 0.02 0 0.975 0.02 0 0.98 0.02 0 0.985 0.02 0 0.99 0.02 0 0.995 0.02 0 1 0.02 0 0 0.04 0 0.005 0.04 0 0.01 0.04 0 0.015 0.04 0 0.02 0.04 0 0.025 0.04 0 0.03 0.04 0 0.035 0.04 0 0.04 0.04 0 0.045 0.04 0 0.05 0.04 0 0.055 0.04 0 0.06 0.04 0 0.065 0.04 0 0.07 0.04 0 0.075 0.04 0 0.08 0.04 0 0.085 0.04 0 0.09 0.04 0 0.095 0.04 0 0.1 0.04 0 0.105 0.04 0 0.11 0.04 0 0.115 0.04 0 0.12 0.04 0 0.125 0.04 0 0.13 0.04 0 0.135 0.04 0 0.14 0.04 0 0.145 0.04 0 0.15 0.04 0 0.155 0.04 0 0.16 0.04 0 0.165 0.04 0 0.17 0.04 0 0.175 0.04 0 0.18 0.04 0 0.185 0.04 0 0.19 0.04 0 0.195 0.04 0 0.2 0.04 0 0.205 0.04 0 0.21 0.04 0 0.215 0.04 0 0.22 0.04 0 0.225 0.04 0 0.23 0.04 0 0.235 0.04 0 0.24 0.04 0 0.245 0.04 0 0.25 0.04 0 0.255 0.04 0 0.26 0.04 0 0.265 0.04 0 0.27 0.04 0 0.275 0.04 0 0.28 0.04 0 0.285 0.04 0 0.29 0.04 0 0.295 0.04 0 0.3 0.04 0 0.305 0.04 0 0.31 0.04 0 0.315 0.04 0 0.32 0.04 0 0.325 0.04 0 0.33 0.04 0 0.335 0.04 0 0.34 0.04 0 0.345 0.04 0 0.35 0.04 0 0.355 0.04 0 0.36 0.04 0 0.365 0.04 0 0.37 0.04 0 0.375 0.04 0 0.38 0.04 0 0.385 0.04 0 0.39 0.04 0 0.395 0.04 0 0.4 0.04 0 0.405 0.04 0 0.41 0.04 0 0.415 0.04 0 0.42 0.04 0 0.425 0.04 0 0.43 0.04 0 0.435 0.04 0 0.44 0.04 0 0.445 0.04 0 0.45 0.04 0 0.455 0.04 0 0.46 0.04 0 0.465 0.04 0 0.47 0.04 0 0.475 0.04 0 0.48 0.04 0 0.485 0.04 0 0.49 0.04 0 0.495 0.04 0 0.5 0.04 0 0.505 0.04 0 0.51 0.04 0 0.515 0.04 0 0.52 0.04 0 0.525 0.04 0 0.53 0.04 0 0.535 0.04 0 0.54 0.04 0 0.545 0.04 0 0.55 0.04 0 0.555 0.04 0 0.56 0.04 0 0.565 0.04 0 0.57 0.04 0 0.575 0.04 0 0.58 0.04 0 0.585 0.04 0 0.59 0.04 0 0.595 0.04 0 0.6 0.04 0 0.605 0.04 0 0.61 0.04 0 0.615 0.04 0 0.62 0.04 0 0.625 0.04 0 0.63 0.04 0 0.635 0.04 0 0.64 0.04 0 0.645 0.04 0 0.65 0.04 0 0.655 0.04 0 0.66 0.04 0 0.665 0.04 0 0.67 0.04 0 0.675 0.04 0 0.68 0.04 0 0.685 0.04 0 0.69 0.04 0 0.695 0.04 0 0.7 0.04 0 0.705 0.04 0 0.71 0.04 0 0.715 0.04 0 0.72 0.04 0 0.725 0.04 0 0.73 0.04 0 0.735 0.04 0 0.74 0.04 0 0.745 0.04 0 0.75 0.04 0 0.755 0.04 0 0.76 0.04 0 0.765 0.04 0 0.77 0.04 0 0.775 0.04 0 0.78 0.04 0 0.785 0.04 0 0.79 0.04 0 0.795 0.04 0 0.8 0.04 0 0.805 0.04 0 0.81 0.04 0 0.815 0.04 0 0.82 0.04 0 0.825 0.04 0 0.83 0.04 0 0.835 0.04 0 0.84 0.04 0 0.845 0.04 0 0.85 0.04 0 0.855 0.04 0 0.86 0.04 0 0.865 0.04 0 0.87 0.04 0 0.875 0.04 0 0.88 0.04 0 0.885 0.04 0 0.89 0.04 0 0.895 0.04 0 0.9 0.04 0 0.905 0.04 0 0.91 0.04 0 0.915 0.04 0 0.92 0.04 0 0.925 0.04 0 0.93 0.04 0 0.935 0.04 0 0.94 0.04 0 0.945 0.04 0 0.95 0.04 0 0.955 0.04 0 0.96 0.04 0 0.965 0.04 0 0.97 0.04 0 0.975 0.04 0 0.98 0.04 0 0.985 0.04 0 0.99 0.04 0 0.995 0.04 0 1 0.04 0 0 0.06 0 0.005 0.06 0 0.01 0.06 0 0.015 0.06 0 0.02 0.06 0 0.025 0.06 0 0.03 0.06 0 0.035 0.06 0 0.04 0.06 0 0.045 0.06 0 0.05 0.06 0 0.055 0.06 0 0.06 0.06 0 0.065 0.06 0 0.07 0.06 0 0.075 0.06 0 0.08 0.06 0 0.085 0.06 0 0.09 0.06 0 0.095 0.06 0 0.1 0.06 0 0.105 0.06 0 0.11 0.06 0 0.115 0.06 0 0.12 0.06 0 0.125 0.06 0 0.13 0.06 0 0.135 0.06 0 0.14 0.06 0 0.145 0.06 0 0.15 0.06 0 0.155 0.06 0 0.16 0.06 0 0.165 0.06 0 0.17 0.06 0 0.175 0.06 0 0.18 0.06 0 0.185 0.06 0 0.19 0.06 0 0.195 0.06 0 0.2 0.06 0 0.205 0.06 0 0.21 0.06 0 0.215 0.06 0 0.22 0.06 0 0.225 0.06 0 0.23 0.06 0 0.235 0.06 0 0.24 0.06 0 0.245 0.06 0 0.25 0.06 0 0.255 0.06 0 0.26 0.06 0 0.265 0.06 0 0.27 0.06 0 0.275 0.06 0 0.28 0.06 0 0.285 0.06 0 0.29 0.06 0 0.295 0.06 0 0.3 0.06 0 0.305 0.06 0 0.31 0.06 0 0.315 0.06 0 0.32 0.06 0 0.325 0.06 0 0.33 0.06 0 0.335 0.06 0 0.34 0.06 0 0.345 0.06 0 0.35 0.06 0 0.355 0.06 0 0.36 0.06 0 0.365 0.06 0 0.37 0.06 0 0.375 0.06 0 0.38 0.06 0 0.385 0.06 0 0.39 0.06 0 0.395 0.06 0 0.4 0.06 0 0.405 0.06 0 0.41 0.06 0 0.415 0.06 0 0.42 0.06 0 0.425 0.06 0 0.43 0.06 0 0.435 0.06 0 0.44 0.06 0 0.445 0.06 0 0.45 0.06 0 0.455 0.06 0 0.46 0.06 0 0.465 0.06 0 0.47 0.06 0 0.475 0.06 0 0.48 0.06 0 0.485 0.06 0 0.49 0.06 0 0.495 0.06 0 0.5 0.06 0 0.505 0.06 0 0.51 0.06 0 0.515 0.06 0 0.52 0.06 0 0.525 0.06 0 0.53 0.06 0 0.535 0.06 0 0.54 0.06 0 0.545 0.06 0 0.55 0.06 0 0.555 0.06 0 0.56 0.06 0 0.565 0.06 0 0.57 0.06 0 0.575 0.06 0 0.58 0.06 0 0.585 0.06 0 0.59 0.06 0 0.595 0.06 0 0.6 0.06 0 0.605 0.06 0 0.61 0.06 0 0.615 0.06 0 0.62 0.06 0 0.625 0.06 0 0.63 0.06 0 0.635 0.06 0 0.64 0.06 0 0.645 0.06 0 0.65 0.06 0 0.655 0.06 0 0.66 0.06 0 0.665 0.06 0 0.67 0.06 0 0.675 0.06 0 0.68 0.06 0 0.685 0.06 0 0.69 0.06 0 0.695 0.06 0 0.7 0.06 0 0.705 0.06 0 0.71 0.06 0 0.715 0.06 0 0.72 0.06 0 0.725 0.06 0 0.73 0.06 0 0.735 0.06 0 0.74 0.06 0 0.745 0.06 0 0.75 0.06 0 0.755 0.06 0 0.76 0.06 0 0.765 0.06 0 0.77 0.06 0 0.775 0.06 0 0.78 0.06 0 0.785 0.06 0 0.79 0.06 0 0.795 0.06 0 0.8 0.06 0 0.805 0.06 0 0.81 0.06 0 0.815 0.06 0 0.82 0.06 0 0.825 0.06 0 0.83 0.06 0 0.835 0.06 0 0.84 0.06 0 0.845 0.06 0 0.85 0.06 0 0.855 0.06 0 0.86 0.06 0 0.865 0.06 0 0.87 0.06 0 0.875 0.06 0 0.88 0.06 0 0.885 0.06 0 0.89 0.06 0 0.895 0.06 0 0.9 0.06 0 0.905 0.06 0 0.91 0.06 0 0.915 0.06 0 0.92 0.06 0 0.925 0.06 0 0.93 0.06 0 0.935 0.06 0 0.94 0.06 0 0.945 0.06 0 0.95 0.06 0 0.955 0.06 0 0.96 0.06 0 0.965 0.06 0 0.97 0.06 0 0.975 0.06 0 0.98 0.06 0 0.985 0.06 0 0.99 0.06 0 0.995 0.06 0 1 0.06 0 0 0.08 0 0.005 0.08 0 0.01 0.08 0 0.015 0.08 0 0.02 0.08 0 0.025 0.08 0 0.03 0.08 0 0.035 0.08 0 0.04 0.08 0 0.045 0.08 0 0.05 0.08 0 0.055 0.08 0 0.06 0.08 0 0.065 0.08 0 0.07 0.08 0 0.075 0.08 0 0.08 0.08 0 0.085 0.08 0 0.09 0.08 0 0.095 0.08 0 0.1 0.08 0 0.105 0.08 0 0.11 0.08 0 0.115 0.08 0 0.12 0.08 0 0.125 0.08 0 0.13 0.08 0 0.135 0.08 0 0.14 0.08 0 0.145 0.08 0 0.15 0.08 0 0.155 0.08 0 0.16 0.08 0 0.165 0.08 0
[...]
			<PointData Scalars="VitesseX">
				<DataArray Name="VitesseX" type="Float32" format="ascii">
 0 -3.2648e-14 -9.74987e-15 -2.40289e-14 4.86616e-14 7.55616e-15 3.98224e-15 -4.05258e-14 -9.7467e-15 1.09553e-14 -9.75995e-15 7.76715e-14 -6.80691e-14 9.15789e-14 -9.84009e-14 -7.98664e-14 -2.65918e-14 -7.40528e-14 -2.41384e-14 -1.73025e-13 4.42587e-14 -2.71134e-14 -5.57954e-14 -8.96984e-14 3.9182e-14 -3.05942e-14 -1.80267e-13 -5.01693e-14 -1.86368e-13 -2.21862e-13 5.61974e-14 -1.79864e-13 -1.1021e-13 -2.43324e-13 -9.912e-14 -2.86971e-14 -2.92929e-13 1.03427e-13 -2.99107e-13 1.90222e-13 6.45614e-15 1.56653e-13 2.05252e-13 -1.44068e-13 -1.38656e-14 -5.94847e-14 -1.65795e-13 -1.34748e-13 -5.45442e-14 1.99919e-14 -6.41922e-14 -3.51599e-13 -9.626e-14 -6.03267e-14 1.22785e-13 -9.02478e-14 -2.34283e-13 -1.35174e-14 -2.2214e-13 -1.62195e-13 -1.3382e-13 2.12088e-14 -1.17588e-15 3.71229e-13 4.41937e-12 4.22057e-11 3.61533e-10 2.8807e-09 2.11947e-08 1.43481e-07 8.88958e-07 5.01102e-06 2.55203e-05 0.000116435 0.000471005 0.00166836 0.00510213 0.0133001 0.0294103 0.0553873 0.0902003 0.130517 0.173125 0.216222 0.25913 0.301752 0.343987 0.385779 0.427081 0.467853 0.508059 0.547661 0.586612 0.624855 0.662307 0.69885 0.734323 0.768501 0.801083 0.831678 0.859807 0.884915 0.906419 0.923788 0.936644 0.94498 0.945312 0.94478 0.943502 0.941824 0.939976 0.938123 0.936362 0.934755 0.933208 0.931626 0.933472 0.959866 0.957554 0.940218 0.931977 0.93026 0.929793 0.929448 0.92863 0.926635 0.922195 0.913013 0.895643 0.86529 0.816268 0.743462 0.644558 0.522726 0.388514 0.258231 0.14936 0.07407 0.0319068 0.0124847 0.00463097 0.00166972 0.000591902 0.000207151 7.16541e-05 2.44965e-05 8.27383e-06 2.75952e-06 9.08384e-07 2.94996e-07 9.44707e-08 2.98228e-08 9.2773e-09 2.84283e-09 8.5813e-10 2.54915e-10 7.45226e-11 2.11708e-11 5.74193e-12 1.3855e-12 -4.17984e-13 7.49913e-13 3.8508e-14 -5.53806e-13 -2.83308e-13 -4.67285e-13 2.88838e-13 -3.13329e-13 -1.16594e-13 -6.86791e-13 2.25175e-13 -4.00122e-13 -2.45075e-13 -3.72066e-13 1.71137e-13 -2.7403e-13 -2.44676e-13 6.15334e-13 3.83701e-13 -6.39812e-14 -4.76588e-14 -2.65393e-13 2.05796e-13 -3.60405e-13 -3.70703e-13 1.59724e-13 -2.76432e-13 -7.00099e-14 -6.10897e-13 5.2642e-13 -6.09726e-13 -5.12393e-13 8.40814e-13 5.17034e-13 -1.17757e-12 -4.63257e-14 1.01337e-12 7.24616e-13 -1.19705e-12 -6.40996e-13 0 0 9.29499e-15 -3.03454e-15 2.93217e-14 -1.92025e-14 -2.1816e-14 -1.70967e-14 -1.0791e-14 4.38798e-16 8.63869e-15 3.02282e-14 -4.69835e-14 9.99513e-14 -1.29193e-13 3.16422e-14 -2.92733e-14 -3.702e-14 -4.39947e-14 -1.07792e-13 -1.2705e-14 -7.33353e-14 -3.66658e-14 -3.58056e-14 -1.59977e-14 -1.31101e-13 -4.99018e-14 -3.13401e-14 -2.24182e-13 -6.01593e-14 -4.40093e-14 -1.43146e-13 -7.54582e-14 -1.96633e-13 -6.67408e-14 -1.66616e-13 -2.46758e-13 1.27549e-14 -2.26471e-13 1.97621e-13 -2.17213e-13 1.27777e-13 -2.90782e-14 -6.53271e-14 1.3112e-13 -3.62282e-14 -3.1744e-14 -3.9814e-14 -3.15629e-13 -2.66763e-13 -2.33694e-13 -5.32568e-14 4.8855e-14 -1.9195e-13 1.87507e-13 -3.22725e-13 -8.97517e-14 6.36546e-14 -2.46836e-13 1.02177e-13 -1.62114e-13 -8.31497e-14 -8.0401e-14 -8.28223e-14 5.81852e-13 4.61447e-12 4.21111e-11 3.62031e-10 2.87972e-09 2.11952e-08 1.43481e-07 8.88958e-07 5.01102e-06 2.55203e-05 0.000116435 0.000471005 0.00166836 0.00510213 0.0133001 0.0294103 0.0553873 0.0902003 0.130517 0.173125 0.216222 0.25913 0.301752 0.343987 0.385779 0.427081 0.467853 0.508059 0.547661 0.586612 0.624855 0.662307 0.69885 0.734323 0.768501 0.801083 0.831678 0.859807 0.884915 0.906419 0.923788 0.936644 0.94498 0.945312 0.94478 0.943502 0.941824 0.939976 0.938123 0.936362 0.934755 0.933208 0.931626 0.933472 0.959866 0.957554 0.940218 0.931977 0.93026 0.929793 0.929448 0.92863 0.926635 0.922195 0.913013 0.895643 0.86529 0.816268 0.743462 0.644558 0.522726 0.388514 0.258231 0.14936 0.07407 0.0319068 0.0124847 0.00463097 0.00166972 0.000591902 0.000207151 7.16541e-05 2.44965e-05 8.27383e-06 2.75952e-06 9.08385e-07 2.94996e-07 9.447e-08 2.98227e-08 9.27741e-09 2.84349e-09 8.57955e-10 2.54692e-10 7.43552e-11 2.12501e-11 5.92722e-12 1.43595e-12 5.56794e-13 -5.68836e-13 -1.49308e-13 2.00766e-13 -1.69299e-13 -2.31424e-13 -4.61574e-13 -4.38659e-14 -2.53182e-14 -2.10308e-13 -5.18295e-13 -2.39006e-13 -3.58494e-13 -5.97003e-14 -5.58889e-13 3.60307e-13 7.36477e-14 -7.19221e-16 -1.15371e-14 -1.11507e-13 1.58826e-13 4.17086e-13 -2.3363e-13 -1.4878e-13 -1.7465e-13 -2.10812e-13 2.29715e-13 -5.10013e-13 -3.10571e-13 -1.3739e-13 2.20824e-13 -1.88297e-13 -5.41067e-13 1.70248e-13 7.11056e-13 6.76733e-14 -5.23174e-13 -2.67479e-13 8.46306e-13 6.17825e-13 0 0 1.34955e-14 1.08074e-14 -1.31875e-14 -1.84651e-14 -3.02542e-14 -1.10637e-14 -2.98043e-14 8.51777e-16 -7.83576e-15 -1.67745e-14 2.92656e-14 -1.13591e-14 3.1587e-14 -2.75676e-14 -4.16151e-15 -6.79592e-14 -2.72769e-14 2.29623e-14 -3.96402e-14 -1.48948e-13 -1.79756e-14 -2.74741e-14 -4.15657e-14 -2.26271e-14 -5.39473e-14 -1.81909e-13 1.79263e-14 -1.0129e-13 -6.84908e-14 -2.23928e-13 -1.33905e-14 -6.56477e-14 -1.60093e-13 -2.37191e-13 -1.09749e-13 -1.28833e-13 5.6761e-14 -8.44089e-14 -1.00978e-14 -1.61514e-13 2.55274e-14 -5.62308e-14 8.41177e-14 -6.75364e-14 -1.78207e-13 -1.93579e-13 -1.25066e-13 -8.61748e-14 -4.6903e-14 -1.8318e-13 -5.7315e-14 -2.22526e-14 -3.74493e-13 1.14138e-13 -2.16722e-14 -1.32174e-13 1.98423e-14 -2.92034e-14 -7.66415e-15 -1.14015e-13 -1.78804e-13 2.019e-13 4.72613e-13 4.68587e-12 4.21338e-11 3.61759e-10 2.88026e-09 2.11952e-08 1.43481e-07 8.88958e-07 5.01102e-06 2.55203e-05 0.000116435 0.000471005 0.00166836 0.00510213 0.0133001 0.0294103 0.0553873 0.0902003 0.130517 0.173125 0.216222 0.25913 0.301752 0.343987 0.385779 0.427081 0.467853 0.508059 0.547661 0.586612 0.624855 0.662307 0.69885 0.734323 0.768501 0.801083 0.831678 0.859807 0.884915 0.906419 0.923788 0.936644 0.94498 0.945312 0.94478 0.943502 0.941824 0.939976 0.938123 0.936362 0.934755 0.933208 0.931626 0.933472 0.959866 0.957554 0.940218 0.931977 0.93026 0.929793 0.929448 0.92863 0.926635 0.922195 0.913013 0.895643 0.86529 0.816268 0.743462 0.644558 0.522726 0.388514 0.258231 0.14936 0.07407 0.0319068 0.0124847 0.00463097 0.00166972 0.000591902 0.000207151 7.16541e-05 2.44965e-05 8.27383e-06 2.75952e-06 9.08384e-07 2.94996e-07 9.44702e-08 2.98227e-08 9.27749e-09 2.84331e-09 8.58166e-10 2.54915e-10 7.44177e-11 2.14826e-11 5.81126e-12 1.60212e-12 4.13192e-13 -8.45128e-14 -4.0694e-13 4.2872e-14 7.17118e-14 -1.60741e-13 -5.97176e-13 3.94714e-14 -2.03796e-13 -2.19558e-13 -3.3629e-13 -3.92371e-13 -2.62676e-13 -1.33408e-13 -3.33642e-13 -9.80722e-14 1.5627e-13 -8.68072e-15 -2.60716e-13 -2.6954e-13 5.60671e-14 2.22537e-13 2.5322e-13 -2.51903e-13 2.18142e-13 -3.23631e-13 -3.23931e-13 -1.227e-13 2.7315e-13 -1.89716e-13 -7.17858e-13 -2.08701e-13 7.06459e-13 9.71087e-14 -4.04964e-13 -1.10407e-15 2.52928e-13 2.19147e-13 -2.61554e-13 -1.63457e-13 0 0 -3.08595e-14 -3.81555e-14 -4.42458e-14 -1.94884e-14 -2.87537e-14 -2.08172e-14 -1.57805e-14 -1.39376e-14 9.9638e-15 8.23333e-15 2.22442e-14 -7.99721e-15 3.64175e-14 -3.61269e-14 -3.46924e-14 -1.21909e-15 -2.89215e-14 1.35237e-14 -5.12872e-14 -2.712e-14 3.52761e-14 -8.76195e-15 -9.82273e-14 7.40471e-15 -7.32126e-16 -1.84017e-13 -5.24713e-14 -1.75348e-13 -1.03106e-13 -1.01811e-13 -6.84378e-14 -4.18857e-14 -1.7295e-13 -1.64048e-13 5.82321e-14 -1.731e-13 -1.25817e-13 -1.90122e-13 7.83021e-14 -8.63365e-14 1.84852e-13 4.84873e-14 -2.34048e-13 -4.27817e-14 -3.41654e-14 -1.10748e-13 -6.27956e-14 -5.23297e-14 -6.58612e-14 -1.03e-13 -1.70901e-13 -7.01823e-14 -2.38801e-13 1.59613e-13 -4.17173e-14 -8.22156e-14 -1.24094e-13 -7.16469e-14 -1.23682e-13 8.68244e-14 -9.92466e-14 -2.02581e-13 5.75274e-13 4.66043e-12 4.23284e-11 3.61756e-10 2.88048e-09 2.11951e-08 1.43481e-07 8.88958e-07 5.01102e-06 2.55203e-05 0.000116435 0.000471005 0.00166836 0.00510213 0.0133001 0.0294103 0.0553873 0.0902003 0.130517 0.173125 0.216222 0.25913 0.301752 0.343987 0.385779 0.427081 0.467853 0.508059 0.547661 0.586612 0.624855 0.662307 0.69885 0.734323 0.768501 0.801083 0.831678 0.859807 0.884915 0.906419 0.923788 0.936644 0.94498 0.945312 0.94478 0.943502 0.941824 0.939976 0.938123 0.936362 0.934755 0.933208 0.931626 0.933472 0.959866 0.957554 0.940218 0.931977 0.93026 0.929793 0.929448 0.92863 0.926635 0.922195 0.913013 0.895643 0.86529 0.816268 0.743462 0.644558 0.522726 0.388514 0.258231 0.14936 0.07407 0.0319068 0.0124847 0.00463097 0.00166972 0.000591902 0.000207151 7.16541e-05 2.44965e-05 8.27383e-06 2.75952e-06 9.08384e-07 2.94996e-07 9.44706e-08 2.98227e-08 9.27753e-09 2.84325e-09 8.58594e-10 2.5531e-10 7.44416e-11 2.10688e-11 5.95011e-12 1.43503e-12 4.5237e-13 5.84282e-13 4.37525e-13 -3.28147e-13 -3.51852e-13 -6.16275e-13 -2.86218e-13 -1.97401e-13 4.12e-14 -8.33727e-13 1.43973e-13 -1.42725e-13 -3.78843e-13 -4.7829e-13 2.37176e-13 -2.69759e-14 -8.94775e-14 -2.17651e-13 4.63523e-14 2.04444e-13 -5.89224e-13 -3.15198e-13 -2.55646e-13 1.78786e-13 -1.96854e-13 1.81849e-13 -2.97949e-13 -1.14706e-13 2.05906e-13 -3.04207e-13 -6.90963e-13 -5.09852e-13 2.93511e-13 1.96399e-13 -5.63231e-14 -1.21281e-13 7.72316e-13 -6.20226e-13 -3.95169e-13 -4.09085e-13 0 0 -2.35075e-14 -4.90458e-14 -2.01719e-14 -5.20443e-14 -3.76627e-14 -3.63436e-14 1.15423e-14 -1.90767e-14 1.7788e-15 2.43591e-14 -4.7806e-14 1.10339e-13 -1.22339e-13 5.58537e-14 1.51282e-14 6.71507e-14 7.27301e-15 -5.07798e-14 9.64482e-15 -2.93615e-14 -3.41656e-14 -4.13874e-14 -8.16677e-14 -1.50953e-13 -1.00406e-13 8.51702e-14 -2.42043e-13 -8.70658e-14 -8.43363e-14 -1.26914e-13 -7.16902e-14 -9.10721e-14 -2.51765e-14 -3.43623e-14 -1.0215e-13 6.92507e-14 -3.88328e-13 1.11654e-13 -1.01386e-13 1.41938e-13 -7.56048e-14 -5.2849e-14 -3.22301e-14 -5.52068e-14 1.20427e-14 6.14746e-14 -1.59683e-13 -3.06762e-13 -2.06515e-13 -2.5025e-14 1.01432e-13 -1.29337e-13 2.52327e-13 -2.65938e-13 -1.34486e-13 1.15877e-13 -3.33994e-13 3.85995e-14 -1.06587e-13 -6.60403e-15 -7.69987e-14 -1.98192e-13 7.34356e-13 4.78235e-12 4.24404e-11 3.62067e-10 2.87999e-09 2.11952e-08 1.43481e-07 8.88958e-07 5.01102e-06 2.55203e-05 0.000116435 0.000471005 0.00166836 0.00510213 0.0133001 0.0294103 0.0553873 0.0902003 0.130517 0.173125 0.216222 0.25913 0.301752 0.343987 0.385779 0.427081 0.467853 0.508059 0.547661 0.586612 0.624855 0.662307 0.69885 0.734323 0.768501 0.801083 0.831678 0.859807 0.884915 0.906419 0.923788 0.936644 0.94498 0.945312 0.94478 0.943502 0.941824 0.939976 0.938123 0.936362 0.934755 0.933208 0.931626 0.933472 0.959866 0.957554 0.940218 0.931977 0.93026 0.929793 0.929448 0.92863 0.926635 0.922195 0.913013 0.895643 0.86529 0.816268 0.743462 0.644558 0.522726 0.388514 0.258231 0.14936 0.07407 0.0319068 0.0124847 0.00463097 0.00166972 0.000591902 0.000207151 7.16541e-05 2.44965e-05 8.27383e-06 2.75952e-06 9.08385e-07 2.94997e-07 9.44703e-08 2.98227e-08 9.27782e-09 2.84383e-09 8.58581e-10 2.54793e-10 7.44645e-11 2.11586e-11 6.3713e-12 1.67249e-12 6.80705e-13 -3.16422e-13 2.63915e-13 -1.64642e-14 -5.195e-13 1.48321e-13 -5.60292e-13 -3.88359e-13 8.59133e-14 -4.06751e-13 -5.19398e-13 -2.42545e-13 -5.18558e-13 -2.42094e-13 -2.28328e-13 6.61017e-13 -8.78231e-14 -2.22435e-13 1.19086e-13 -1.67945e-14 -3.44151e-13 -1.61869e-13 -6.93166e-13 2.36948e-13 -2.31957e-13 1.57721e-13 2.6822e-13 -5.05693e-13 -1.51555e-13 -6.4743e-13 1.71471e-13 -1.56115e-14 -1.04926e-12 -6.9373e-14 1.46132e-12 1.47228e-13 -5.2298e-13 -1.09949e-12 8.67035e-13 5.89334e-13 0 0 -9.54288e-15 -3.84664e-15 -6.08994e-14 -1.49754e-14 -2.71383e-14 -1.50045e-14 -2.39069e-14 -1.91988e-14 -3.83636e-14 -7.15136e-14 9.00692e-14 -5.40177e-14 9.56253e-14 -3.28592e-14 6.99983e-14 4.82693e-14 3.17716e-14 1.08764e-13 -1.05031e-13 -1.11449e-13 -1.28616e-13 -1.04383e-13 -1.07715e-13 -6.05875e-14 -2.38033e-13 5.6968e-14 5.49037e-14 -9.20642e-14 -2.33287e-13 -1.55572e-13 -6.22331e-14 5.33878e-14 -1.34482e-13 1.91009e-14 -7.54429e-14 -9.14038e-14 1.44869e-13 -2.59615e-13 2.45076e-13 -1.15577e-13 -2.55049e-13 2.07718e-14 1.65564e-13 -1.01332e-13 -2.59995e-13 -1.2888e-13 5.26027e-14 -2.02233e-13 1.12267e-13 -1.68089e-13 -1.92733e-14 1.24826e-13 -2.0207e-13 1.45412e-13 -1.39627e-13 -2.29754e-13 1.00039e-13 -2.64408e-13 1.80895e-13 -3.82407e-13 -1.31102e-13 5.77048e-13 4.70915e-13 4.806e-12 4.24751e-11 3.6161e-10 2.88079e-09 2.11948e-08 1.4348e-07 8.88958e-07 5.01102e-06 2.55203e-05 0.000116435 0.000471005 0.00166836 0.00510213 0.0133001 0.0294103 0.0553873 0.0902003 0.130517 0.173125 0.216222 0.25913 0.301752 0.343987 0.385779 0.427081 0.467853 0.508059 0.547661 0.586612 0.624855 0.662307 0.69885 0.734323 0.768501 0.801083 0.831678 0.859807 0.884915 0.906419 0.923788 0.936644 0.94498 0.945312 0.94478 0.943502 0.941824 0.939976 0.938123 0.936362 0.934755 0.933208 0.931626 0.933472 0.959866 0.957554 0.940218 0.931977 0.93026 0.929793 0.929448 0.92863 0.926635 0.922195 0.913013 0.895643 0.86529 0.816268 0.743462 0.644558 0.522726 0.388514 0.258231 0.14936 0.07407 0.0319068 0.0124847 0.00463097 0.00166972 0.000591902 0.000207151 7.16541e-05 2.44965e-05 8.27383e-06 2.75952e-06 9.08384e-07 2.94997e-07 9.44704e-08 2.9823e-08 9.27803e-09 2.84365e-09 8.58525e-10 2.54327e-10 7.46934e-11 2.18154e-11 6.35238e-12 2.19277e-12 -2.48516e-13 -8.2848e-14 -8.23976e-13 -2.46229e-13 -1.36582e-13 1.20327e-12 -5.30517e-13 -5.28572e-13 -3.84123e-13 1.48661e-13 -7.37557e-13 -9.06492e-13 -3.32867e-13 -4.70894e-14 -3.09378e-13 1.85198e-13 -7.61236e-14 5.89843e-13 3.08109e-14 -8.22525e-13 2.3697e-13 -3.47834e-13 3.04455e-13 -4.50327e-13 3.44674e-13 -1.14168e-13 -2.51385e-13 -7.73593e-14 -1.5838e-13 -2.64677e-13 -7.62223e-13 4.3528e-13 6.50319e-13 -1.60788e-13 -3.74323e-13 3.53137e-13 -2.50189e-14 7.39346e-13 -8.88364e-13 -2.06724e-13 0
				</DataArray>
				<DataArray Name="VitesseY" type="Float32" format="ascii">