<?xml version="1.0"?>
<VTKFile type="PolyData">
	<PolyData>
		<Piece NumberOfPoints="1206" NumberOfPolys="1000">
			<Points>
				<DataArray type="Float32" NumberOfComponents="3" format="ascii">
 0 0 0 0.005 0 0 0.01 0 0 0.015 0 0 0.02 0 0 0.025 0 0 0.03 0 0 0.035 0 0 0.04 0 0 0.045 0 0 0.05 0 0 0.055 0 0 0.06 0 0 0.065 0 0 0.07 0 0 0.075 0 0 0.08 0 0 0.085 0 0 0.09 0 0 0.095 0 0 0.1 0 0 0.105 0 0 0.11 0 0 0.115 0 0 0.12 0 0 0.125 0 0 0.13 0 0 0.135 0 0 0.14 0 0 0.145 0 0 0.15 0 0 0.155 0 0 0.16 0 0 0.165 0 0 0.17 0 0 0.175 0 0 0.18 0 0 0.185 0 0 0.19 0 0 0.195 0 0 0.2 0 0 0.205 0 0 0.21 0 0 0.215 0 0 0.22 0 0 0.225 0 0 0.23 0 0 0.235 0 0 0.24 0 0 0.245 0 0 0.25 0 0 0.255 0 0 0.26 0 0 0.265 0 0 0.27 0 0 0.275 0 0 0.28 0 0 0.285 0 0 0.29 0 0 0.295 0 0 0.3 0 0 0.305 0 0 0.31 0 0 0.315 0 0 0.32 0 0 0.325 0 0 0.33 0 0 0.335 0 0 0.34 0 0 0.345 0 0 0.35 0 0 0.355 0 0 0.36 0 0 0.365 0 0 0.37 0 0 0.375 0 0 0.38 0 0 0.385 0 0 0.39 0 0 0.395 0 0 0.4 0 0 0.405 0 0 0.41 0 0 0.415 0 0 0.42 0 0 0.425 0 0 0.43 0 0 0.435 0 0 0.44 0 0 0.445 0 0 0.45 0 0 0.455 0 0 0.46 0 0 0.465 0 0 0.47 0 0 0.475 0 0 0.48 0 0 0.485 0 0 0.49 0 0 0.495 0 0 0.5 0 0 0.505 0 0 0.51 0 0 0.515 0 0 0.52 0 0 0.525 0 0 0.53 0 0 0.535 0 0 0.54 0 0 0.545 0 0 0.55 0 0 0.555 0 0 0.56 0 0 0.565 0 0 0.57 0 0 0.575 0 0 0.58 0 0 0.585 0 0 0.59 0 0 0.595 0 0 0.6 0 0 0.605 0 0 0.61 0 0 0.615 0 0 0.62 0 0 0.625 0 0 0.63 0 0 0.635 0 0 0.64 0 0 0.645 0 0 0.65 0 0 0.655 0 0 0.66 0 0 0.665 0 0 0.67 0 0 0.675 0 0 0.68 0 0 0.685 0 0 0.69 0 0 0.695 0 0 0.7 0 0 0.705 0 0 0.71 0 0 0.715 0 0 0.72 0 0 0.725 0 0 0.73 0 0 0.735 0 0 0.74 0 0 0.745 0 0 0.75 0 0 0.755 0 0 0.76 0 0 0.765 0 0 0.77 0 0 0.775 0 0 0.78 0 0 0.785 0 0 0.79 0 0 0.795 0 0 0.8 0 0 0.805 0 0 0.81 0 0 0.815 0 0 0.82 0 0 0.825 0 0 0.83 0 0 0.835 0 0 0.84 0 0 0.845 0 0 0.85 0 0 0.855 0 0 0.86 0 0 0.865 0 0 0.87 0 0 0.875 0 0 0.88 0 0 0.885 0 0 0.89 0 0 0.895 0 0 0.9 0 0 0.905 0 0 0.91 0 0 0.915 0 0 0.92 0 0 0.925 0 0 0.93 0 0 0.935 0 0 0.94 0 0 0.945 0 0 0.95 0 0 0.955 0 0 0.96 0 0 0.965 0 0 0.97 0 0 0.975 0 0 0.98 0 0 0.985 0 0 0.99 0 0 0.995 0 0 1 0 0 0 0.02 0 0.005 0.02 0 0.01 0.02 0 0.015 0.02 0 0.02 0.02 0 0.025 0.02 0 0.03 0.02 0 0.035 0.02 0 0.04 0.02 0 0.045 0.02 0 0.05 0.02 0 0.055 0.02 0 0.06 0.02 0 0.065 0.02 0 0.07 0.02 0 0.075 0.02 0 0.08 0.02 0 0.085 0.02 0 0.09 0.02 0 0.095 0.02 0 0.1 0.02 0 0.105 0.02 0 0.11 0.02 0 0.115 0.02 0 0.12 0.02 0 0.125 0.02 0 0.13 0.02 0 0.135 0.02 0 0.14 0.02 0 0.145 0.02 0 0.15 0.02 0 0.155 0.02 0 0.16 0.02 0 0.165 0.02 0 0.17 0.02 0 0.175 0.02 0 0.18 0.02 0 0.185 0.02 0 0.19 0.02 0 0.195 0.02 0 0.2 0.02 0 0.205 0.02 0 0.21 0.02 0 0.215 0.02 0 0.22 0.02 0 0.225 0.02 0 0.23 0.02 0 0.235 0.02 0 0.24 0.02 0 0.245 0.02 0 0.25 0.02 0 0.255 0.02 0 0.26 0.02 0 0.265 0.02 0 0.27 0.02 0 0.275 0.02 0 0.28 0.02 0 0.285 0.02 0 0.29 0.02 0 0.295 0.02 0 0.3 0.02 0 0.305 0.02 0 0.31 0.02 0 0.315 0.02 0 0.32 0.02 0 0.325 0.02 0 0.33 0.02 0 0.335 0.02 0 0.34 0.02 0 0.345 0.02 0 0.35 0.02 0 0.355 0.02 0 0.36 0.02 0 0.365 0.02 0 0.37 0.02 0 0.375 0.02 0 0.38 0.02 0 0.385 0.02 0 0.39 0.02 0 0.395 0.02 0 0.4 0.02 0 0.405 0.02 0 0.41 0.02 0 0.415 0.02 0 0.42 0.02 0 0.425 0.02 0 0.43 0.02 0 0.435 0.02 0 0.44 0.02 0 0.445 0.02 0 0.45 0.02 0 0.455 0.02 0 0.46 0.02 0 0.465 0.02 0 0.47 0.02 0 0.475 0.02 0 0.48 0.02 0 0.485 0.02 0 0.49 0.02 0 0.495 0.02 0 0.5 0.02 0 0.505 0.02 0 0.51 0.02 0 0.515 0.02 0 0.52 0.02 0 0.525 0.02 0 0.53 0.02 0 0.535 0.02 0 0.54 0.02 0 0.545 0.02 0 0.55 0.02 0 0.555 0.02 0 0.56 0.02 0 0.565 0.02 0 0.57 0.02 0 0.575 0.02 0 0.58 0.02 0 0.585 0.02 0 0.59 0.02 0 0.595 0.02 0 0.6 0.02 0 0.605 0.02 0 0.61 0.02 0 0.615 0.02 0 0.62 0.02 0 0.625 0.02 0 0.63 0.02 0 0.635 0.02 0 0.64 0.02 0 0.645 0.02 0 0.65 0.02 0 0.655 0.02 0 0.66 0.02 0 0.665 0.02 0 0.67 0.02 0 0.675 0.02 0 0.68 0.02 0 0.685 0.02 0 0.69 0.02 0 0.695 0.02 0 0.7 0.02 0 0.705 0.02 0 0.71 0.02 0 0.715 0.02 0 0.72 0.02 0 0.725 0.02 0 0.73 0.02 0 0.735 0.02 0 0.74 0.02 0 0.745 0.02 0 0.75 0.02 0 0.755 0.02 0 0.76 0.02 0 0.765 0.02 0 0.77 0.02 0 0.775 0.02 0 0.78 0.02 0 0.785 0.02 0 0.79 0.02 0 0.795 0.02 0 0.8 0.02 0 0.805 0.02 0 0.81 0.02 0 0.815 0.02 0 0.82 0.02 0 0.825 0.02 0 0.83 0.02 0 0.835 0.02 0 0.84 0.02 0 0.845 0.02 0 0.85 0.02 0 0.855 0.02 0 0.86 0.02 0 0.865 0.02 0 0.87 0.02 0 0.875 0.02 0 0.88 0.02 0 0.885 0.02 0 0.89 0.02 0 0.895 0.02 0 0.9 0.02 0 0.905 0.02 0 0.91 0.02 0 0.915 0.02 0 0.92 0.02 0 0.925 0.02 0 0.93 0.02 0 0.935 0.02 0 0.94 0.02 0 0.945 0.02 0 0.95 0.02 0 0.955 0.02 0 0.96 0.02 0 0.965 0.02 0 0.97 0.02 0 0.975 0.02 0 0.98 0.02 0 0.985 0.02 0 0.99 0.02 0 0.995 0.02 0 1 0.02 0 0 0.04 0 0.005 0.04 0 0.01 0.04 0 0.015 0.04 0 0.02 0.04 0 0.025 0.04 0 0.03 0.04 0 0.035 0.04 0 0.04 0.04 0 0.045 0.04 0 0.05 0.04 0 0.055 0.04 0 0.06 0.04 0 0.065 0.04 0 0.07 0.04 0 0.075 0.04 0 0.08 0.04 0 0.085 0.04 0 0.09 0.04 0 0.095 0.04 0 0.1 0.04 0 0.105 0.04 0 0.11 0.04 0 0.115 0.04 0 0.12 0.04 0 0.125 0.04 0 0.13 0.04 0 0.135 0.04 0 0.14 0.04 0 0.145 0.04 0 0.15 0.04 0 0.155 0.04 0 0.16 0.04 0 0.165 0.04 0 0.17 0.04 0 0.175 0.04 0 0.18 0.04 0 0.185 0.04 0 0.19 0.04 0 0.195 0.04 0 0.2 0.04 0 0.205 0.04 0 0.21 0.04 0 0.215 0.04 0 0.22 0.04 0 0.225 0.04 0 0.23 0.04 0 0.235 0.04 0 0.24 0.04 0 0.245 0.04 0 0.25 0.04 0 0.255 0.04 0 0.26 0.04 0 0.265 0.04 0 0.27 0.04 0 0.275 0.04 0 0.28 0.04 0 0.285 0.04 0 0.29 0.04 0 0.295 0.04 0 0.3 0.04 0 0.305 0.04 0 0.31 0.04 0 0.315 0.04 0 0.32 0.04 0 0.325 0.04 0 0.33 0.04 0 0.335 0.04 0 0.34 0.04 0 0.345 0.04 0 0.35 0.04 0 0.355 0.04 0 0.36 0.04 0 0.365 0.04 0 0.37 0.04 0 0.375 0.04 0 0.38 0.04 0 0.385 0.04 0 0.39 0.04 0 0.395 0.04 0 0.4 0.04 0 0.405 0.04 0 0.41 0.04 0 0.415 0.04 0 0.42 0.04 0 0.425 0.04 0 0.43 0.04 0 0.435 0.04 0 0.44 0.04 0 0.445 0.04 0 0.45 0.04 0 0.455 0.04 0 0.46 0.04 0 0.465 0.04 0 0.47 0.04 0 0.475 0.04 0 0.48 0.04 0 0.485 0.04 0 0.49 0.04 0 0.495 0.04 0 0.5 0.04 0 0.505 0.04 0 0.51 0.04 0 0.515 0.04 0 0.52 0.04 0 0.525 0.04 0 0.53 0.04 0 0.535 0.04 0 0.54 0.04 0 0.545 0.04 0 0.55 0.04 0 0.555 0.04 0 0.56 0.04 0 0.565 0.04 0 0.57 0.04 0 0.575 0.04 0 0.58 0.04 0 0.585 0.04 0 0.59 0.04 0 0.595 0.04 0 0.6 0.04 0 0.605 0.04 0 0.61 0.04 0 0.615 0.04 0 0.62 0.04 0 0.625 0.04 0 0.63 0.04 0 0.635 0.04 0 0.64 0.04 0 0.645 0.04 0 0.65 0.04 0 0.655 0.04 0 0.66 0.04 0 0.665 0.04 0 0.67 0.04 0 0.675 0.04 0 0.68 0.04 0 0.685 0.04 0 0.69 0.04 0 0.695 0.04 0 0.7 0.04 0 0.705 0.04 0 0.71 0.04 0 0.715 0.04 0 0.72 0.04 0 0.725 0.04 0 0.73 0.04 0 0.735 0.04 0 0.74 0.04 0 0.745 0.04 0 0.75 0.04 0 0.755 0.04 0 0.76 0.04 0 0.765 0.04 0 0.77 0.04 0 0.775 0.04 0 0.78 0.04 0 0.785 0.04 0 0.79 0.04 0 0.795 0.04 0 0.8 0.04 0 0.805 0.04 0 0.81 0.04 0 0.815 0.04 0 0.82 0.04 0 0.825 0.04 0 0.83 0.04 0 0.835 0.04 0 0.84 0.04 0 0.845 0.04 0 0.85 0.04 0 0.855 0.04 0 0.86 0.04 0 0.865 0.04 0 0.87 0.04 0 0.875 0.04 0 0.88 0.04 0 0.885 0.04 0 0.89 0.04 0 0.895 0.04 0 0.9 0.04 0 0.905 0.04 0 0.91 0.04 0 0.915 0.04 0 0.92 0.04 0 0.925 0.04 0 0.93 0.04 0 0.935 0.04 0 0.94 0.04 0 0.945 0.04 0 0.95 0.04 0 0.955 0.04 0 0.96 0.04 0 0.965 0.04 0 0.97 0.04 0 0.975 0.04 0 0.98 0.04 0 0.985 0.04 0 0.99 0.04 0 0.995 0.04 0 1 0.04 0 0 0.06 0 0.005 0.06 0 0.01 0.06 0 0.015 0.06 0 0.02 0.06 0 0.025 0.06 0 0.03 0.06 0 0.035 0.06 0 0.04 0.06 0 0.045 0.06 0 0.05 0.06 0 0.055 0.06 0 0.06 0.06 0 0.065 0.06 0 0.07 0.06 0 0.075 0.06 0 0.08 0.06 0 0.085 0.06 0 0.09 0.06 0 0.095 0.06 0 0.1 0.06 0 0.105 0.06 0 0.11 0.06 0 0.115 0.06 0 0.12 0.06 0 0.125 0.06 0 0.13 0.06 0 0.135 0.06 0 0.14 0.06 0 0.145 0.06 0 0.15 0.06 0 0.155 0.06 0 0.16 0.06 0 0.165 0.06 0 0.17 0.06 0 0.175 0.06 0 0.18 0.06 0 0.185 0.06 0 0.19 0.06 0 0.195 0.06 0 0.2 0.06 0 0.205 0.06 0 0.21 0.06 0 0.215 0.06 0 0.22 0.06 0 0.225 0.06 0 0.23 0.06 0 0.235 0.06 0 0.24 0.06 0 0.245 0.06 0 0.25 0.06 0 0.255 0.06 0 0.26 0.06 0 0.265 0.06 0 0.27 0.06 0 0.275 0.06 0 0.28 0.06 0 0.285 0.06 0 0.29 0.06 0 0.295 0.06 0 0.3 0.06 0 0.305 0.06 0 0.31 0.06 0 0.315 0.06 0 0.32 0.06 0 0.325 0.06 0 0.33 0.06 0 0.335 0.06 0 0.34 0.06 0 0.345 0.06 0 0.35 0.06 0 0.355 0.06 0 0.36 0.06 0 0.365 0.06 0 0.37 0.06 0 0.375 0.06 0 0.38 0.06 0 0.385 0.06 0 0.39 0.06 0 0.395 0.06 0 0.4 0.06 0 0.405 0.06 0 0.41 0.06 0 0.415 0.06 0 0.42 0.06 0 0.425 0.06 0 0.43 0.06 0 0.435 0.06 0 0.44 0.06 0 0.445 0.06 0 0.45 0.06 0 0.455 0.06 0 0.46 0.06 0 0.465 0.06 0 0.47 0.06 0 0.475 0.06 0 0.48 0.06 0 0.485 0.06 0 0.49 0.06 0 0.495 0.06 0 0.5 0.06 0 0.505 0.06 0 0.51 0.06 0 0.515 0.06 0 0.52 0.06 0 0.525 0.06 0 0.53 0.06 0 0.535 0.06 0 0.54 0.06 0 0.545 0.06 0 0.55 0.06 0 0.555 0.06 0 0.56 0.06 0 0.565 0.06 0 0.57 0.06 0 0.575 0.06 0 0.58 0.06 0 0.585 0.06 0 0.59 0.06 0 0.595 0.06 0 0.6 0.06 0 0.605 0.06 0 0.61 0.06 0 0.615 0.06 0 0.62 0.06 0 0.625 0.06 0 0.63 0.06 0 0.635 0.06 0 0.64 0.06 0 0.645 0.06 0 0.65 0.06 0 0.655 0.06 0 0.66 0.06 0 0.665 0.06 0 0.67 0.06 0 0.675 0.06 0 0.68 0.06 0 0.685 0.06 0 0.69 0.06 0 0.695 0.06 0 0.7 0.06 0 0.705 0.06 0 0.71 0.06 0 0.715 0.06 0 0.72 0.06 0 0.725 0.06 0 0.73 0.06 0 0.735 0.06 0 0.74 0.06 0 0.745 0.06 0 0.75 0.06 0 0.755 0.06 0 0.76 0.06 0 0.765 0.06 0 0.77 0.06 0 0.775 0.06 0 0.78 0.06 0 0.785 0.06 0 0.79 0.06 0 0.795 0.06 0 0.8 0.06 0 0.805 0.06 0 0.81 0.06 0 0.815 0.06 0 0.82 0.06 0 0.825 0.06 0 0.83 0.06 0 0.835 0.06 0 0.84 0.06 0 0.845 0.06 0 0.85 0.06 0 0.855 0.06 0 0.86 0.06 0 0.865 0.06 0 0.87 0.06 0 0.875 0.06 0 0.88 0.06 0 0.885 0.06 0 0.89 0.06 0 0.895 0.06 0 0.9 0.06 0 0.905 0.06 0 0.91 0.06 0 0.915 0.06 0 0.92 0.06 0 0.925 0.06 0 0.93 0.06 0 0.935 0.06 0 0.94 0.06 0 0.945 0.06 0 0.95 0.06 0 0.955 0.06 0 0.96 0.06 0 0.965 0.06 0 0.97 0.06 0 0.975 0.06 0 0.98 0.06 0 0.985 0.06 0 0.99 0.06 0 0.995 0.06 0 1 0.06 0 0 0.08 0 0.005 0.08 0 0.01 0.08 0 0.015 0.08 0 0.02 0.08 0 0.025 0.08 0 0.03 0.08 0 0.035 0.08 0 0.04 0.08 0 0.045 0.08 0 0.05 0.08 0 0.055 0.08 0 0.06 0.08 0 0.065 0.08 0 0.07 0.08 0 0.075 0.08 0 0.08 0.08 0 0.085 0.08 0 0.09 0.08 0 0.095 0.08 0 0.1 0.08 0 0.105 0.08 0 0.11 0.08 0 0.115 0.08 0 0.12 0.08 0 0.125 0.08 0 0.13 0.08 0 0.135 0.08 0 0.14 0.08 0 0.145 0.08 0 0.15 0.08 0 0.155 0.08 0 0.16 0.08 0 0.165 0.08 0
[...]
			<PointData Scalars="VitesseX">
				<DataArray Name="VitesseX" type="Float32" format="ascii">
 0 -1.82037e-14 -2.66189e-14 -2.78893e-14 -2.99659e-14 -3.82393e-14 -5.99815e-14 -7.13881e-14 -4.42994e-14 -4.36352e-14 -5.19986e-14 -6.55042e-14 -7.73425e-14 -1.20299e-14 -2.26931e-14 4.01832e-15 -1.22799e-14 2.46891e-14 -8.14707e-15 7.96806e-14 -1.05898e-13 5.93653e-14 -3.27659e-14 -3.27155e-14 -3.76945e-14 -5.79774e-14 -5.13012e-14 -9.1342e-14 -5.27637e-14 3.14894e-14 8.35401e-14 -5.11509e-14 1.01238e-13 5.8984e-14 1.43372e-13 3.93593e-13 2.29465e-12 1.34455e-11 7.42831e-11 3.98365e-10 2.02565e-09 9.80231e-09 4.49946e-08 1.9549e-07 8.01849e-07 3.09596e-06 1.12144e-05 3.79624e-05 0.000119552 0.000348415 0.000934002 0.00228817 0.00509209 0.0102483 0.01862 0.03063 0.0460047 0.0639139 0.083397 0.103715 0.124436 0.145345 0.166338 0.187361 0.20838 0.229383 0.250361 0.271307 0.292214 0.313076 0.33389 0.354651 0.375357 0.396003 0.416587 0.437105 0.457554 0.477932 0.498234 0.518455 0.538593 0.558641 0.578593 0.598443 0.618181 0.637796 0.657277 0.676608 0.69577 0.714741 0.733491 0.751988 0.770189 0.788044 0.80549 0.822453 0.838839 0.854538 0.869416 0.883318 0.896063 0.907459 0.917309 0.925442 0.931742 0.936185 0.938914 0.938891 0.938626 0.938079 0.937381 0.936581 0.935728 0.934865 0.934019 0.933215 0.932474 0.931807 0.931221 0.930715 0.930285 0.929924 0.929623 0.929373 0.929165 0.928991 0.928844 0.928718 0.928609 0.928512 0.928426 0.92835 0.928264 0.928054 0.927827 0.9289 0.94592 0.944813 0.934352 0.929187 0.928052 0.927748 0.92766 0.927624 0.927602 0.927585 0.92757 0.927557 0.927546 0.927537 0.927529 0.927522 0.927513 0.927494 0.927456 0.927371 0.927191 0.926819 0.926067 0.924599 0.921803 0.916605 0.907201 0.890755 0.863231 0.819653 0.755078 0.666411 0.55479 0.42767 0.29903 0.184819 0.0992365 0.0464161 0.0195418 0.00775065 0.00298555 0.0011353 0.000429215 0.000161773 6.08447e-05 2.28419e-05 8.55898e-06 3.20058e-06 1.19417e-06 4.4446e-07 1.64979e-07 6.10574e-08 2.25237e-08 8.28005e-09 3.03202e-09 1.10601e-09 4.0145e-10 1.45086e-10 5.23793e-11 1.84741e-11 6.13737e-12 2.48713e-12 1.36997e-12 -2.64352e-13 0 0 -9.90674e-15 -1.98097e-14 -3.31992e-14 -3.83265e-14 -5.46395e-14 -3.85719e-14 -4.45459e-14 -7.71492e-14 -4.85142e-14 -5.48535e-14 -4.19274e-14 -4.68653e-15 -7.07589e-14 -2.47002e-14 1.19977e-14 2.13828e-14 1.85465e-15 4.33735e-14 -2.90693e-14 5.97891e-14 -6.55698e-14 -2.97233e-14 -5.73111e-14 -2.99186e-14 -2.65077e-14 -6.54763e-14 -3.14596e-14 -1.19452e-14 -3.42872e-14 -5.47485e-14 6.56809e-14 1.18843e-15 8.02488e-14 1.58678e-13 4.21569e-13 2.30365e-12 1.32458e-11 7.46758e-11 3.97978e-10 2.02593e-09 9.8021e-09 4.49946e-08 1.9549e-07 8.01849e-07 3.09596e-06 1.12144e-05 3.79624e-05 0.000119552 0.000348415 0.000934002 0.00228817 0.00509209 0.0102483 0.01862 0.03063 0.0460047 0.0639139 0.083397 0.103715 0.124436 0.145345 0.166338 0.187361 0.20838 0.229383 0.250361 0.271307 0.292214 0.313076 0.33389 0.354651 0.375357 0.396003 0.416587 0.437105 0.457554 0.477932 0.498234 0.518455 0.538593 0.558641 0.578593 0.598443 0.618181 0.637796 0.657277 0.676608 0.69577 0.714741 0.733491 0.751988 0.770189 0.788044 0.80549 0.822453 0.838839 0.854538 0.869416 0.883318 0.896063 0.907459 0.917309 0.925442 0.931742 0.936185 0.938914 0.938891 0.938626 0.938079 0.937381 0.936581 0.935728 0.934865 0.934019 0.933215 0.932474 0.931807 0.931221 0.930715 0.930285 0.929924 0.929623 0.929373 0.929165 0.928991 0.928844 0.928718 0.928609 0.928512 0.928426 0.92835 0.928264 0.928054 0.927827 0.9289 0.94592 0.944813 0.934352 0.929187 0.928052 0.927748 0.92766 0.927624 0.927602 0.927585 0.92757 0.927557 0.927546 0.927537 0.927529 0.927522 0.927513 0.927494 0.927456 0.927371 0.927191 0.926819 0.926067 0.924599 0.921803 0.916605 0.907201 0.890755 0.863231 0.819653 0.755078 0.666411 0.55479 0.42767 0.29903 0.184819 0.0992365 0.0464161 0.0195418 0.00775065 0.00298555 0.0011353 0.000429215 0.000161773 6.08447e-05 2.28419e-05 8.55898e-06 3.20058e-06 1.19417e-06 4.4446e-07 1.64978e-07 6.10571e-08 2.25242e-08 8.27988e-09 3.03222e-09 1.10565e-09 4.01679e-10 1.45029e-10 5.19319e-11 1.86407e-11 6.83274e-12 1.93666e-12 1.92522e-13 4.22074e-13 0 0 -8.45654e-15 -2.30159e-14 -3.08852e-14 -4.70004e-14 -2.5975e-14 -4.837e-14 -6.8603e-14 -2.8044e-14 -4.53643e-14 -6.52612e-14 -7.10336e-15 -4.75442e-14 6.95162e-16 -4.25183e-14 -7.95015e-15 1.25488e-14 2.61263e-14 3.51492e-14 -5.737e-14 1.02799e-14 -2.63792e-14 -2.64793e-14 -1.9353e-14 -9.94355e-15 -8.84378e-14 -1.83889e-14 -2.08551e-14 -1.16116e-13 -5.99806e-14 5.66613e-14 -1.39939e-14 1.4394e-14 1.1768e-14 -6.4193e-15 5.43664e-13 2.48685e-12 1.32322e-11 7.44464e-11 3.98053e-10 2.0259e-09 9.80214e-09 4.49947e-08 1.9549e-07 8.01849e-07 3.09596e-06 1.12144e-05 3.79624e-05 0.000119552 0.000348415 0.000934002 0.00228817 0.00509209 0.0102483 0.01862 0.03063 0.0460047 0.0639139 0.083397 0.103715 0.124436 0.145345 0.166338 0.187361 0.20838 0.229383 0.250361 0.271307 0.292214 0.313076 0.33389 0.354651 0.375357 0.396003 0.416587 0.437105 0.457554 0.477932 0.498234 0.518455 0.538593 0.558641 0.578593 0.598443 0.618181 0.637796 0.657277 0.676608 0.69577 0.714741 0.733491 0.751988 0.770189 0.788044 0.80549 0.822453 0.838839 0.854538 0.869416 0.883318 0.896063 0.907459 0.917309 0.925442 0.931742 0.936185 0.938914 0.938891 0.938626 0.938079 0.937381 0.936581 0.935728 0.934865 0.934019 0.933215 0.932474 0.931807 0.931221 0.930715 0.930285 0.929924 0.929623 0.929373 0.929165 0.928991 0.928844 0.928718 0.928609 0.928512 0.928426 0.92835 0.928264 0.928054 0.927827 0.9289 0.94592 0.944813 0.934352 0.929187 0.928052 0.927748 0.92766 0.927624 0.927602 0.927585 0.92757 0.927557 0.927546 0.927537 0.927529 0.927522 0.927513 0.927494 0.927456 0.927371 0.927191 0.926819 0.926067 0.924599 0.921803 0.916605 0.907201 0.890755 0.863231 0.819653 0.755078 0.666411 0.55479 0.42767 0.29903 0.184819 0.0992365 0.0464161 0.0195418 0.00775065 0.00298555 0.0011353 0.000429215 0.000161773 6.08447e-05 2.28419e-05 8.55898e-06 3.20058e-06 1.19417e-06 4.4446e-07 1.64979e-07 6.10574e-08 2.2524e-08 8.28009e-09 3.03214e-09 1.10581e-09 4.01407e-10 1.45011e-10 5.19662e-11 1.83901e-11 6.33887e-12 2.31209e-12 4.76428e-13 4.2904e-13 0 0 -1.60849e-14 -2.48098e-14 -2.75666e-14 -3.83988e-14 -1.69287e-14 -4.01736e-14 -4.20736e-14 -4.32666e-14 -4.28042e-14 -4.28577e-14 -7.4574e-14 -1.33769e-14 2.24909e-14 1.48181e-14 -2.64677e-14 -2.95363e-14 -3.17577e-14 -2.86689e-14 9.3456e-14 -7.24533e-14 6.39637e-14 -1.50828e-14 -2.62577e-14 -1.22597e-13 4.37161e-16 -6.44438e-14 -1.69371e-13 -1.69088e-13 4.52938e-14 1.07111e-14 -1.33513e-14 6.70786e-14 3.69345e-14 1.20233e-13 5.38659e-13 2.33815e-12 1.34448e-11 7.44241e-11 3.98131e-10 2.02584e-09 9.80207e-09 4.49946e-08 1.9549e-07 8.01849e-07 3.09596e-06 1.12144e-05 3.79624e-05 0.000119552 0.000348415 0.000934002 0.00228817 0.00509209 0.0102483 0.01862 0.03063 0.0460047 0.0639139 0.083397 0.103715 0.124436 0.145345 0.166338 0.187361 0.20838 0.229383 0.250361 0.271307 0.292214 0.313076 0.33389 0.354651 0.375357 0.396003 0.416587 0.437105 0.457554 0.477932 0.498234 0.518455 0.538593 0.558641 0.578593 0.598443 0.618181 0.637796 0.657277 0.676608 0.69577 0.714741 0.733491 0.751988 0.770189 0.788044 0.80549 0.822453 0.838839 0.854538 0.869416 0.883318 0.896063 0.907459 0.917309 0.925442 0.931742 0.936185 0.938914 0.938891 0.938626 0.938079 0.937381 0.936581 0.935728 0.934865 0.934019 0.933215 0.932474 0.931807 0.931221 0.930715 0.930285 0.929924 0.929623 0.929373 0.929165 0.928991 0.928844 0.928718 0.928609 0.928512 0.928426 0.92835 0.928264 0.928054 0.927827 0.9289 0.94592 0.944813 0.934352 0.929187 0.928052 0.927748 0.92766 0.927624 0.927602 0.927585 0.92757 0.927557 0.927546 0.927537 0.927529 0.927522 0.927513 0.927494 0.927456 0.927371 0.927191 0.926819 0.926067 0.924599 0.921803 0.916605 0.907201 0.890755 0.863231 0.819653 0.755078 0.666411 0.55479 0.42767 0.29903 0.184819 0.0992365 0.0464161 0.0195418 0.00775065 0.00298555 0.0011353 0.000429215 0.000161773 6.08447e-05 2.28419e-05 8.55898e-06 3.20058e-06 1.19417e-06 4.4446e-07 1.64979e-07 6.10571e-08 2.25242e-08 8.28017e-09 3.03239e-09 1.10585e-09 4.01644e-10 1.45234e-10 5.25249e-11 1.86682e-11 6.34763e-12 2.15834e-12 2.8276e-13 -3.0975e-13 0 0 -1.57294e-14 -1.11553e-14 -3.65351e-14 -2.0966e-14 -3.69918e-14 -9.97665e-15 -2.0563e-14 -4.57516e-14 -4.80901e-14 -4.13418e-14 -7.69533e-14 1.84437e-14 -3.38595e-14 3.69441e-14 6.65407e-15 -5.81301e-15 -4.1253e-14 1.98079e-14 1.12418e-14 -1.25942e-15 -2.88236e-14 -1.96186e-14 -9.13943e-14 -1.55728e-13 4.75551e-14 -5.8966e-14 -1.64653e-13 -3.41331e-14 1.13092e-14 -5.72769e-14 7.75441e-15 6.21529e-14 1.23954e-13 2.60116e-13 4.69353e-13 2.15688e-12 1.34169e-11 7.46887e-11 3.98005e-10 2.02592e-09 9.80199e-09 4.49945e-08 1.9549e-07 8.0185e-07 3.09596e-06 1.12144e-05 3.79624e-05 0.000119552 0.000348415 0.000934002 0.00228817 0.00509209 0.0102483 0.01862 0.03063 0.0460047 0.0639139 0.083397 0.103715 0.124436 0.145345 0.166338 0.187361 0.20838 0.229383 0.250361 0.271307 0.292214 0.313076 0.33389 0.354651 0.375357 0.396003 0.416587 0.437105 0.457554 0.477932 0.498234 0.518455 0.538593 0.558641 0.578593 0.598443 0.618181 0.637796 0.657277 0.676608 0.69577 0.714741 0.733491 0.751988 0.770189 0.788044 0.80549 0.822453 0.838839 0.854538 0.869416 0.883318 0.896063 0.907459 0.917309 0.925442 0.931742 0.936185 0.938914 0.938891 0.938626 0.938079 0.937381 0.936581 0.935728 0.934865 0.934019 0.933215 0.932474 0.931807 0.931221 0.930715 0.930285 0.929924 0.929623 0.929373 0.929165 0.928991 0.928844 0.928718 0.928609 0.928512 0.928426 0.92835 0.928264 0.928054 0.927827 0.9289 0.94592 0.944813 0.934352 0.929187 0.928052 0.927748 0.92766 0.927624 0.927602 0.927585 0.92757 0.927557 0.927546 0.927537 0.927529 0.927522 0.927513 0.927494 0.927456 0.927371 0.927191 0.926819 0.926067 0.924599 0.921803 0.916605 0.907201 0.890755 0.863231 0.819653 0.755078 0.666411 0.55479 0.42767 0.29903 0.184819 0.0992365 0.0464161 0.0195418 0.00775065 0.00298555 0.0011353 0.000429215 0.000161773 6.08447e-05 2.28419e-05 8.55898e-06 3.20058e-06 1.19417e-06 4.4446e-07 1.64979e-07 6.1057e-08 2.25244e-08 8.2799e-09 3.03245e-09 1.10592e-09 4.01801e-10 1.45117e-10 5.23868e-11 1.88041e-11 6.58264e-12 2.16723e-12 -2.69923e-13 -2.6854e-14 0 0 -1.45924e-14 -5.72221e-15 -4.11981e-14 -1.24481e-14 -2.10364e-14 -1.91837e-14 -7.6481e-14 4.8941e-14 -4.79072e-14 -6.97824e-14 -6.14815e-16 -9.94165e-14 1.81775e-14 -1.40775e-14 3.03663e-14 1.74987e-14 5.42418e-14 7.23579e-14 -1.41349e-13 -6.25291e-14 -4.7828e-14 -3.53495e-14 -8.70728e-14 -6.40075e-14 -8.76018e-14 5.38293e-14 -6.06985e-14 8.80316e-15 -8.78665e-14 1.70384e-13 -1.68289e-13 1.17797e-13 9.60604e-14 9.29436e-14 4.99171e-13 2.29851e-12 1.33625e-11 7.43535e-11 3.98263e-10 2.02576e-09 9.80223e-09 4.49946e-08 1.9549e-07 8.01849e-07 3.09596e-06 1.12144e-05 3.79624e-05 0.000119552 0.000348415 0.000934002 0.00228817 0.00509209 0.0102483 0.01862 0.03063 0.0460047 0.0639139 0.083397 0.103715 0.124436 0.145345 0.166338 0.187361 0.20838 0.229383 0.250361 0.271307 0.292214 0.313076 0.33389 0.354651 0.375357 0.396003 0.416587 0.437105 0.457554 0.477932 0.498234 0.518455 0.538593 0.558641 0.578593 0.598443 0.618181 0.637796 0.657277 0.676608 0.69577 0.714741 0.733491 0.751988 0.770189 0.788044 0.80549 0.822453 0.838839 0.854538 0.869416 0.883318 0.896063 0.907459 0.917309 0.925442 0.931742 0.936185 0.938914 0.938891 0.938626 0.938079 0.937381 0.936581 0.935728 0.934865 0.934019 0.933215 0.932474 0.931807 0.931221 0.930715 0.930285 0.929924 0.929623 0.929373 0.929165 0.928991 0.928844 0.928718 0.928609 0.928512 0.928426 0.92835 0.928264 0.928054 0.927827 0.9289 0.94592 0.944813 0.934352 0.929187 0.928052 0.927748 0.92766 0.927624 0.927602 0.927585 0.92757 0.927557 0.927546 0.927537 0.927529 0.927522 0.927513 0.927494 0.927456 0.927371 0.927191 0.926819 0.926067 0.924599 0.921803 0.916605 0.907201 0.890755 0.863231 0.819653 0.755078 0.666411 0.55479 0.42767 0.29903 0.184819 0.0992365 0.0464161 0.0195418 0.00775065 0.00298555 0.0011353 0.000429215 0.000161773 6.08447e-05 2.28419e-05 8.55899e-06 3.20058e-06 1.19417e-06 4.4446e-07 1.64979e-07 6.10577e-08 2.25239e-08 8.27994e-09 3.03196e-09 1.10649e-09 4.01221e-10 1.44816e-10 5.21716e-11 1.82447e-11 5.61965e-12 3.25577e-12 8.32417e-13 3.15371e-13 0
				</DataArray>
				<DataArray Name="VitesseY" type="Float32" format="ascii">