<?xml version="1.0"?>
<VTKFile type="PolyData">
	<PolyData>
		<Piece NumberOfPoints="1206" NumberOfPolys="1000">
			<Points>
				<DataArray type="Float32" NumberOfComponents="3" format="ascii">
 0 0 0 0.005 0 0 0.01 0 0 0.015 0 0 0.02 0 0 0.025 0 0 0.03 0 0 0.035 0 0 0.04 0 0 0.045 0 0 0.05 0 0 0.055 0 0 0.06 0 0 0.065 0 0 0.07 0 0 0.075 0 0 0.08 0 0 0.085 0 0 0.09 0 0 0.095 0 0 0.1 0 0 0.105 0 0 0.11 0 0 0.115 0 0 0.12 0 0 0.125 0 0 0.13 0 0 0.135 0 0 0.14 0 0 0.145 0 0 0.15 0 0 0.155 0 0 0.16 0 0 0.165 0 0 0.17 0 0 0.175 0 0 0.18 0 0 0.185 0 0 0.19 0 0 0.195 0 0 0.2 0 0 0.205 0 0 0.21 0 0 0.215 0 0 0.22 0 0 0.225 0 0 0.23 0 0 0.235 0 0 0.24 0 0 0.245 0 0 0.25 0 0 0.255 0 0 0.26 0 0 0.265 0 0 0.27 0 0 0.275 0 0 0.28 0 0 0.285 0 0 0.29 0 0 0.295 0 0 0.3 0 0 0.305 0 0 0.31 0 0 0.315 0 0 0.32 0 0 0.325 0 0 0.33 0 0 0.335 0 0 0.34 0 0 0.345 0 0 0.35 0 0 0.355 0 0 0.36 0 0 0.365 0 0 0.37 0 0 0.375 0 0 0.38 0 0 0.385 0 0 0.39 0 0 0.395 0 0 0.4 0 0 0.405 0 0 0.41 0 0 0.415 0 0 0.42 0 0 0.425 0 0 0.43 0 0 0.435 0 0 0.44 0 0 0.445 0 0 0.45 0 0 0.455 0 0 0.46 0 0 0.465 0 0 0.47 0 0 0.475 0 0 0.48 0 0 0.485 0 0 0.49 0 0 0.495 0 0 0.5 0 0 0.505 0 0 0.51 0 0 0.515 0 0 0.52 0 0 0.525 0 0 0.53 0 0 0.535 0 0 0.54 0 0 0.545 0 0 0.55 0 0 0.555 0 0 0.56 0 0 0.565 0 0 0.57 0 0 0.575 0 0 0.58 0 0 0.585 0 0 0.59 0 0 0.595 0 0 0.6 0 0 0.605 0 0 0.61 0 0 0.615 0 0 0.62 0 0 0.625 0 0 0.63 0 0 0.635 0 0 0.64 0 0 0.645 0 0 0.65 0 0 0.655 0 0 0.66 0 0 0.665 0 0 0.67 0 0 0.675 0 0 0.68 0 0 0.685 0 0 0.69 0 0 0.695 0 0 0.7 0 0 0.705 0 0 0.71 0 0 0.715 0 0 0.72 0 0 0.725 0 0 0.73 0 0 0.735 0 0 0.74 0 0 0.745 0 0 0.75 0 0 0.755 0 0 0.76 0 0 0.765 0 0 0.77 0 0 0.775 0 0 0.78 0 0 0.785 0 0 0.79 0 0 0.795 0 0 0.8 0 0 0.805 0 0 0.81 0 0 0.815 0 0 0.82 0 0 0.825 0 0 0.83 0 0 0.835 0 0 0.84 0 0 0.845 0 0 0.85 0 0 0.855 0 0 0.86 0 0 0.865 0 0 0.87 0 0 0.875 0 0 0.88 0 0 0.885 0 0 0.89 0 0 0.895 0 0 0.9 0 0 0.905 0 0 0.91 0 0 0.915 0 0 0.92 0 0 0.925 0 0 0.93 0 0 0.935 0 0 0.94 0 0 0.945 0 0 0.95 0 0 0.955 0 0 0.96 0 0 0.965 0 0 0.97 0 0 0.975 0 0 0.98 0 0 0.985 0 0 0.99 0 0 0.995 0 0 1 0 0 0 0.02 0 0.005 0.02 0 0.01 0.02 0 0.015 0.02 0 0.02 0.02 0 0.025 0.02 0 0.03 0.02 0 0.035 0.02 0 0.04 0.02 0 0.045 0.02 0 0.05 0.02 0 0.055 0.02 0 0.06 0.02 0 0.065 0.02 0 0.07 0.02 0 0.075 0.02 0 0.08 0.02 0 0.085 0.02 0 0.09 0.02 0 0.095 0.02 0 0.1 0.02 0 0.105 0.02 0 0.11 0.02 0 0.115 0.02 0 0.12 0.02 0 0.125 0.02 0 0.13 0.02 0 0.135 0.02 0 0.14 0.02 0 0.145 0.02 0 0.15 0.02 0 0.155 0.02 0 0.16 0.02 0 0.165 0.02 0 0.17 0.02 0 0.175 0.02 0 0.18 0.02 0 0.185 0.02 0 0.19 0.02 0 0.195 0.02 0 0.2 0.02 0 0.205 0.02 0 0.21 0.02 0 0.215 0.02 0 0.22 0.02 0 0.225 0.02 0 0.23 0.02 0 0.235 0.02 0 0.24 0.02 0 0.245 0.02 0 0.25 0.02 0 0.255 0.02 0 0.26 0.02 0 0.265 0.02 0 0.27 0.02 0 0.275 0.02 0 0.28 0.02 0 0.285 0.02 0 0.29 0.02 0 0.295 0.02 0 0.3 0.02 0 0.305 0.02 0 0.31 0.02 0 0.315 0.02 0 0.32 0.02 0 0.325 0.02 0 0.33 0.02 0 0.335 0.02 0 0.34 0.02 0 0.345 0.02 0 0.35 0.02 0 0.355 0.02 0 0.36 0.02 0 0.365 0.02 0 0.37 0.02 0 0.375 0.02 0 0.38 0.02 0 0.385 0.02 0 0.39 0.02 0 0.395 0.02 0 0.4 0.02 0 0.405 0.02 0 0.41 0.02 0 0.415 0.02 0 0.42 0.02 0 0.425 0.02 0 0.43 0.02 0 0.435 0.02 0 0.44 0.02 0 0.445 0.02 0 0.45 0.02 0 0.455 0.02 0 0.46 0.02 0 0.465 0.02 0 0.47 0.02 0 0.475 0.02 0 0.48 0.02 0 0.485 0.02 0 0.49 0.02 0 0.495 0.02 0 0.5 0.02 0 0.505 0.02 0 0.51 0.02 0 0.515 0.02 0 0.52 0.02 0 0.525 0.02 0 0.53 0.02 0 0.535 0.02 0 0.54 0.02 0 0.545 0.02 0 0.55 0.02 0 0.555 0.02 0 0.56 0.02 0 0.565 0.02 0 0.57 0.02 0 0.575 0.02 0 0.58 0.02 0 0.585 0.02 0 0.59 0.02 0 0.595 0.02 0 0.6 0.02 0 0.605 0.02 0 0.61 0.02 0 0.615 0.02 0 0.62 0.02 0 0.625 0.02 0 0.63 0.02 0 0.635 0.02 0 0.64 0.02 0 0.645 0.02 0 0.65 0.02 0 0.655 0.02 0 0.66 0.02 0 0.665 0.02 0 0.67 0.02 0 0.675 0.02 0 0.68 0.02 0 0.685 0.02 0 0.69 0.02 0 0.695 0.02 0 0.7 0.02 0 0.705 0.02 0 0.71 0.02 0 0.715 0.02 0 0.72 0.02 0 0.725 0.02 0 0.73 0.02 0 0.735 0.02 0 0.74 0.02 0 0.745 0.02 0 0.75 0.02 0 0.755 0.02 0 0.76 0.02 0 0.765 0.02 0 0.77 0.02 0 0.775 0.02 0 0.78 0.02 0 0.785 0.02 0 0.79 0.02 0 0.795 0.02 0 0.8 0.02 0 0.805 0.02 0 0.81 0.02 0 0.815 0.02 0 0.82 0.02 0 0.825 0.02 0 0.83 0.02 0 0.835 0.02 0 0.84 0.02 0 0.845 0.02 0 0.85 0.02 0 0.855 0.02 0 0.86 0.02 0 0.865 0.02 0 0.87 0.02 0 0.875 0.02 0 0.88 0.02 0 0.885 0.02 0 0.89 0.02 0 0.895 0.02 0 0.9 0.02 0 0.905 0.02 0 0.91 0.02 0 0.915 0.02 0 0.92 0.02 0 0.925 0.02 0 0.93 0.02 0 0.935 0.02 0 0.94 0.02 0 0.945 0.02 0 0.95 0.02 0 0.955 0.02 0 0.96 0.02 0 0.965 0.02 0 0.97 0.02 0 0.975 0.02 0 0.98 0.02 0 0.985 0.02 0 0.99 0.02 0 0.995 0.02 0 1 0.02 0 0 0.04 0 0.005 0.04 0 0.01 0.04 0 0.015 0.04 0 0.02 0.04 0 0.025 0.04 0 0.03 0.04 0 0.035 0.04 0 0.04 0.04 0 0.045 0.04 0 0.05 0.04 0 0.055 0.04 0 0.06 0.04 0 0.065 0.04 0 0.07 0.04 0 0.075 0.04 0 0.08 0.04 0 0.085 0.04 0 0.09 0.04 0 0.095 0.04 0 0.1 0.04 0 0.105 0.04 0 0.11 0.04 0 0.115 0.04 0 0.12 0.04 0 0.125 0.04 0 0.13 0.04 0 0.135 0.04 0 0.14 0.04 0 0.145 0.04 0 0.15 0.04 0 0.155 0.04 0 0.16 0.04 0 0.165 0.04 0 0.17 0.04 0 0.175 0.04 0 0.18 0.04 0 0.185 0.04 0 0.19 0.04 0 0.195 0.04 0 0.2 0.04 0 0.205 0.04 0 0.21 0.04 0 0.215 0.04 0 0.22 0.04 0 0.225 0.04 0 0.23 0.04 0 0.235 0.04 0 0.24 0.04 0 0.245 0.04 0 0.25 0.04 0 0.255 0.04 0 0.26 0.04 0 0.265 0.04 0 0.27 0.04 0 0.275 0.04 0 0.28 0.04 0 0.285 0.04 0 0.29 0.04 0 0.295 0.04 0 0.3 0.04 0 0.305 0.04 0 0.31 0.04 0 0.315 0.04 0 0.32 0.04 0 0.325 0.04 0 0.33 0.04 0 0.335 0.04 0 0.34 0.04 0 0.345 0.04 0 0.35 0.04 0 0.355 0.04 0 0.36 0.04 0 0.365 0.04 0 0.37 0.04 0 0.375 0.04 0 0.38 0.04 0 0.385 0.04 0 0.39 0.04 0 0.395 0.04 0 0.4 0.04 0 0.405 0.04 0 0.41 0.04 0 0.415 0.04 0 0.42 0.04 0 0.425 0.04 0 0.43 0.04 0 0.435 0.04 0 0.44 0.04 0 0.445 0.04 0 0.45 0.04 0 0.455 0.04 0 0.46 0.04 0 0.465 0.04 0 0.47 0.04 0 0.475 0.04 0 0.48 0.04 0 0.485 0.04 0 0.49 0.04 0 0.495 0.04 0 0.5 0.04 0 0.505 0.04 0 0.51 0.04 0 0.515 0.04 0 0.52 0.04 0 0.525 0.04 0 0.53 0.04 0 0.535 0.04 0 0.54 0.04 0 0.545 0.04 0 0.55 0.04 0 0.555 0.04 0 0.56 0.04 0 0.565 0.04 0 0.57 0.04 0 0.575 0.04 0 0.58 0.04 0 0.585 0.04 0 0.59 0.04 0 0.595 0.04 0 0.6 0.04 0 0.605 0.04 0 0.61 0.04 0 0.615 0.04 0 0.62 0.04 0 0.625 0.04 0 0.63 0.04 0 0.635 0.04 0 0.64 0.04 0 0.645 0.04 0 0.65 0.04 0 0.655 0.04 0 0.66 0.04 0 0.665 0.04 0 0.67 0.04 0 0.675 0.04 0 0.68 0.04 0 0.685 0.04 0 0.69 0.04 0 0.695 0.04 0 0.7 0.04 0 0.705 0.04 0 0.71 0.04 0 0.715 0.04 0 0.72 0.04 0 0.725 0.04 0 0.73 0.04 0 0.735 0.04 0 0.74 0.04 0 0.745 0.04 0 0.75 0.04 0 0.755 0.04 0 0.76 0.04 0 0.765 0.04 0 0.77 0.04 0 0.775 0.04 0 0.78 0.04 0 0.785 0.04 0 0.79 0.04 0 0.795 0.04 0 0.8 0.04 0 0.805 0.04 0 0.81 0.04 0 0.815 0.04 0 0.82 0.04 0 0.825 0.04 0 0.83 0.04 0 0.835 0.04 0 0.84 0.04 0 0.845 0.04 0 0.85 0.04 0 0.855 0.04 0 0.86 0.04 0 0.865 0.04 0 0.87 0.04 0 0.875 0.04 0 0.88 0.04 0 0.885 0.04 0 0.89 0.04 0 0.895 0.04 0 0.9 0.04 0 0.905 0.04 0 0.91 0.04 0 0.915 0.04 0 0.92 0.04 0 0.925 0.04 0 0.93 0.04 0 0.935 0.04 0 0.94 0.04 0 0.945 0.04 0 0.95 0.04 0 0.955 0.04 0 0.96 0.04 0 0.965 0.04 0 0.97 0.04 0 0.975 0.04 0 0.98 0.04 0 0.985 0.04 0 0.99 0.04 0 0.995 0.04 0 1 0.04 0 0 0.06 0 0.005 0.06 0 0.01 0.06 0 0.015 0.06 0 0.02 0.06 0 0.025 0.06 0 0.03 0.06 0 0.035 0.06 0 0.04 0.06 0 0.045 0.06 0 0.05 0.06 0 0.055 0.06 0 0.06 0.06 0 0.065 0.06 0 0.07 0.06 0 0.075 0.06 0 0.08 0.06 0 0.085 0.06 0 0.09 0.06 0 0.095 0.06 0 0.1 0.06 0 0.105 0.06 0 0.11 0.06 0 0.115 0.06 0 0.12 0.06 0 0.125 0.06 0 0.13 0.06 0 0.135 0.06 0 0.14 0.06 0 0.145 0.06 0 0.15 0.06 0 0.155 0.06 0 0.16 0.06 0 0.165 0.06 0 0.17 0.06 0 0.175 0.06 0 0.18 0.06 0 0.185 0.06 0 0.19 0.06 0 0.195 0.06 0 0.2 0.06 0 0.205 0.06 0 0.21 0.06 0 0.215 0.06 0 0.22 0.06 0 0.225 0.06 0 0.23 0.06 0 0.235 0.06 0 0.24 0.06 0 0.245 0.06 0 0.25 0.06 0 0.255 0.06 0 0.26 0.06 0 0.265 0.06 0 0.27 0.06 0 0.275 0.06 0 0.28 0.06 0 0.285 0.06 0 0.29 0.06 0 0.295 0.06 0 0.3 0.06 0 0.305 0.06 0 0.31 0.06 0 0.315 0.06 0 0.32 0.06 0 0.325 0.06 0 0.33 0.06 0 0.335 0.06 0 0.34 0.06 0 0.345 0.06 0 0.35 0.06 0 0.355 0.06 0 0.36 0.06 0 0.365 0.06 0 0.37 0.06 0 0.375 0.06 0 0.38 0.06 0 0.385 0.06 0 0.39 0.06 0 0.395 0.06 0 0.4 0.06 0 0.405 0.06 0 0.41 0.06 0 0.415 0.06 0 0.42 0.06 0 0.425 0.06 0 0.43 0.06 0 0.435 0.06 0 0.44 0.06 0 0.445 0.06 0 0.45 0.06 0 0.455 0.06 0 0.46 0.06 0 0.465 0.06 0 0.47 0.06 0 0.475 0.06 0 0.48 0.06 0 0.485 0.06 0 0.49 0.06 0 0.495 0.06 0 0.5 0.06 0 0.505 0.06 0 0.51 0.06 0 0.515 0.06 0 0.52 0.06 0 0.525 0.06 0 0.53 0.06 0 0.535 0.06 0 0.54 0.06 0 0.545 0.06 0 0.55 0.06 0 0.555 0.06 0 0.56 0.06 0 0.565 0.06 0 0.57 0.06 0 0.575 0.06 0 0.58 0.06 0 0.585 0.06 0 0.59 0.06 0 0.595 0.06 0 0.6 0.06 0 0.605 0.06 0 0.61 0.06 0 0.615 0.06 0 0.62 0.06 0 0.625 0.06 0 0.63 0.06 0 0.635 0.06 0 0.64 0.06 0 0.645 0.06 0 0.65 0.06 0 0.655 0.06 0 0.66 0.06 0 0.665 0.06 0 0.67 0.06 0 0.675 0.06 0 0.68 0.06 0 0.685 0.06 0 0.69 0.06 0 0.695 0.06 0 0.7 0.06 0 0.705 0.06 0 0.71 0.06 0 0.715 0.06 0 0.72 0.06 0 0.725 0.06 0 0.73 0.06 0 0.735 0.06 0 0.74 0.06 0 0.745 0.06 0 0.75 0.06 0 0.755 0.06 0 0.76 0.06 0 0.765 0.06 0 0.77 0.06 0 0.775 0.06 0 0.78 0.06 0 0.785 0.06 0 0.79 0.06 0 0.795 0.06 0 0.8 0.06 0 0.805 0.06 0 0.81 0.06 0 0.815 0.06 0 0.82 0.06 0 0.825 0.06 0 0.83 0.06 0 0.835 0.06 0 0.84 0.06 0 0.845 0.06 0 0.85 0.06 0 0.855 0.06 0 0.86 0.06 0 0.865 0.06 0 0.87 0.06 0 0.875 0.06 0 0.88 0.06 0 0.885 0.06 0 0.89 0.06 0 0.895 0.06 0 0.9 0.06 0 0.905 0.06 0 0.91 0.06 0 0.915 0.06 0 0.92 0.06 0 0.925 0.06 0 0.93 0.06 0 0.935 0.06 0 0.94 0.06 0 0.945 0.06 0 0.95 0.06 0 0.955 0.06 0 0.96 0.06 0 0.965 0.06 0 0.97 0.06 0 0.975 0.06 0 0.98 0.06 0 0.985 0.06 0 0.99 0.06 0 0.995 0.06 0 1 0.06 0 0 0.08 0 0.005 0.08 0 0.01 0.08 0 0.015 0.08 0 0.02 0.08 0 0.025 0.08 0 0.03 0.08 0 0.035 0.08 0 0.04 0.08 0 0.045 0.08 0 0.05 0.08 0 0.055 0.08 0 0.06 0.08 0 0.065 0.08 0 0.07 0.08 0 0.075 0.08 0 0.08 0.08 0 0.085 0.08 0 0.09 0.08 0 0.095 0.08 0 0.1 0.08 0 0.105 0.08 0 0.11 0.08 0 0.115 0.08 0 0.12 0.08 0 0.125 0.08 0 0.13 0.08 0 0.135 0.08 0 0.14 0.08 0 0.145 0.08 0 0.15 0.08 0 0.155 0.08 0 0.16 0.08 0 0.165 0.08 0
[...]
			<PointData Scalars="VitesseX">
				<DataArray Name="VitesseX" type="Float32" format="ascii">
 0 -7.2242e-15 4.56554e-15 1.63253e-14 -2.49933e-14 -3.72406e-14 1.00193e-14 -3.42495e-14 -3.93463e-14 -4.22978e-14 -6.67069e-15 -6.32532e-14 2.68006e-14 -3.22761e-14 -3.91101e-14 1.45791e-14 -1.52463e-14 -3.52323e-14 7.5812e-14 -8.87021e-14 1.19462e-14 -9.11886e-14 -9.64475e-14 -2.78864e-14 -1.43014e-13 -3.94326e-15 -1.79901e-13 -1.67501e-13 -1.51516e-13 -1.91762e-13 -6.44617e-14 -5.00876e-14 1.66289e-14 -1.80721e-13 -6.84813e-14 5.38515e-14 -5.37835e-14 -8.02927e-14 -6.55408e-14 -2.95791e-13 -1.01034e-13 -5.16159e-14 -5.13173e-13 6.71541e-14 -2.05383e-14 -2.50081e-13 -7.94704e-14 -6.16152e-14 -1.82863e-13 -5.41509e-14 -3.51935e-14 -1.22253e-13 -9.78406e-14 2.81079e-13 -3.03963e-13 1.53939e-12 1.23663e-11 9.04939e-11 6.28585e-10 4.09427e-09 2.4925e-08 1.41334e-07 7.43587e-07 3.61365e-06 1.61373e-05 6.58122e-05 0.000243313 0.000808307 0.00238856 0.00621376 0.0141255 0.0280036 0.0486379 0.0750711 0.105228 0.137184 0.169802 0.202569 0.23528 0.267891 0.300359 0.332657 0.364763 0.396657 0.428325 0.45975 0.490918 0.521812 0.552413 0.5827 0.612643 0.642205 0.671339 0.69998 0.728046 0.755429 0.781988 0.807547 0.831885 0.854733 0.875772 0.89464 0.910941 0.924272 0.934266 0.940729 0.942758 0.94243 0.941614 0.940481 0.93917 0.937782 0.936404 0.935092 0.933897 0.932852 0.931967 0.931236 0.930649 0.930197 0.929571 0.927617 0.937714 0.954789 0.947074 0.934315 0.929714 0.92864 0.928385 0.928345 0.928347 0.928333 0.92824 0.927943 0.927191 0.925499 0.921951 0.914924 0.901871 0.878947 0.841152 0.783116 0.700737 0.593575 0.467333 0.334987 0.213011 0.117537 0.0560235 0.0236763 0.00929917 0.0035156 0.00130422 0.000478775 0.000174441 6.31336e-05 2.26962e-05 8.10177e-06 2.87045e-06 1.00893e-06 3.51655e-07 1.21485e-07 4.15817e-08 1.40959e-08 4.73025e-09 1.57095e-09 5.16042e-10 1.6734e-10 5.38137e-11 1.69874e-11 4.83814e-12 1.58271e-12 2.09454e-13 -9.77445e-14 7.60681e-14 -3.82095e-13 7.0924e-13 -9.23284e-13 -3.15779e-13 -2.50117e-13 -2.58719e-13 1.52638e-13 -3.44453e-13 5.18168e-13 -4.47343e-13 -2.33315e-13 7.59296e-13 -3.26531e-13 2.08815e-13 -1.37959e-13 8.66772e-14 4.69417e-14 4.08943e-13 -6.51382e-14 1.08468e-12 -2.46179e-13 2.037e-13 -3.45364e-13 3.02674e-13 4.83498e-13 0 0 2.27131e-15 -7.60427e-15 -8.09225e-15 9.27229e-15 2.57953e-15 -2.85837e-14 -3.83283e-14 -2.00074e-14 -1.77046e-14 -4.49621e-14 1.44826e-14 -4.28826e-14 -2.81003e-14 -2.71358e-14 1.15036e-14 -2.28209e-14 -4.18071e-15 -8.28637e-14 2.89182e-14 -8.48252e-14 -2.68858e-14 -1.1211e-14 -1.54649e-13 -2.66069e-14 -1.71981e-13 -6.84341e-14 -1.85813e-13 -1.81455e-13 -1.06737e-13 -9.42836e-14 -5.97866e-14 -7.2265e-14 -3.36284e-14 -3.03768e-14 -9.93807e-14 -6.65852e-14 -6.00724e-14 -1.68977e-13 3.4777e-14 -1.48098e-13 -3.0055e-13 1.00942e-13 -3.07443e-13 -1.23979e-13 -7.3661e-14 -1.69533e-13 6.21394e-14 1.12188e-13 -6.52111e-14 -8.72212e-14 -1.60458e-13 -1.34481e-13 -1.50454e-13 4.07661e-13 1.3925e-12 1.21214e-11 9.04655e-11 6.28715e-10 4.09421e-09 2.49247e-08 1.41334e-07 7.43587e-07 3.61365e-06 1.61373e-05 6.58122e-05 0.000243313 0.000808307 0.00238856 0.00621376 0.0141255 0.0280036 0.0486379 0.0750711 0.105228 0.137184 0.169802 0.202569 0.23528 0.267891 0.300359 0.332657 0.364763 0.396657 0.428325 0.45975 0.490918 0.521812 0.552413 0.5827 0.612643 0.642205 0.671339 0.69998 0.728046 0.755429 0.781988 0.807547 0.831885 0.854733 0.875772 0.89464 0.910941 0.924272 0.934266 0.940729 0.942758 0.94243 0.941614 0.940481 0.93917 0.937782 0.936404 0.935092 0.933897 0.932852 0.931967 0.931236 0.930649 0.930197 0.929571 0.927617 0.937714 0.954789 0.947074 0.934315 0.929714 0.92864 0.928385 0.928345 0.928347 0.928333 0.92824 0.927943 0.927191 0.925499 0.921951 0.914924 0.901871 0.878947 0.841152 0.783116 0.700737 0.593575 0.467333 0.334987 0.213011 0.117537 0.0560235 0.0236763 0.00929917 0.0035156 0.00130422 0.000478775 0.000174441 6.31336e-05 2.26962e-05 8.10177e-06 2.87045e-06 1.00893e-06 3.51655e-07 1.21485e-07 4.15818e-08 1.40952e-08 4.73061e-09 1.57097e-09 5.15785e-10 1.67888e-10 5.35084e-11 1.68115e-11 5.28118e-12 1.41843e-12 1.91173e-13 3.94773e-14 -2.32687e-13 4.37918e-14 -7.84508e-13 1.42588e-13 -2.24969e-13 -2.88699e-13 1.29805e-13 -1.75884e-13 -1.75871e-13 -2.51154e-13 -3.55918e-14 -1.40831e-13 -2.74363e-13 2.78075e-13 2.46097e-13 1.07366e-13 -7.64901e-14 2.43261e-13 -1.55473e-13 6.43364e-13 -3.21305e-13 2.47401e-13 2.96955e-13 1.72515e-13 -1.46656e-13 -3.44492e-13 0 0 2.48351e-15 2.43233e-15 1.15514e-14 7.32566e-15 -1.51853e-14 -1.09735e-14 -2.39107e-14 7.07146e-16 -1.79691e-15 5.54876e-15 -3.22916e-14 -2.37042e-14 -1.88119e-14 -2.74057e-14 -3.17535e-14 -3.20984e-14 -2.85504e-14 -5.67897e-15 -9.28696e-14 -6.92766e-14 -5.41808e-15 -4.58218e-14 -3.51028e-14 -1.81649e-13 -1.42218e-13 -1.08095e-13 -1.49569e-13 -1.20905e-13 -4.14282e-14 -6.04123e-14 -6.77941e-14 3.12978e-14 -5.84131e-14 -5.73671e-14 -1.45099e-13 -6.07841e-14 -1.39921e-13 -5.32904e-14 -1.19925e-13 -1.17873e-13 -5.57043e-14 -1.19755e-13 -1.69321e-13 -1.01325e-13 2.60505e-14 1.40436e-15 -1.01046e-13 -5.10373e-14 -8.72402e-14 -5.92339e-14 -2.24913e-14 -7.40389e-14 -3.93196e-14 1.10564e-13 1.65006e-12 1.22991e-11 9.0242e-11 6.28763e-10 4.09426e-09 2.49245e-08 1.41334e-07 7.43587e-07 3.61365e-06 1.61373e-05 6.58122e-05 0.000243313 0.000808307 0.00238856 0.00621376 0.0141255 0.0280036 0.0486379 0.0750711 0.105228 0.137184 0.169802 0.202569 0.23528 0.267891 0.300359 0.332657 0.364763 0.396657 0.428325 0.45975 0.490918 0.521812 0.552413 0.5827 0.612643 0.642205 0.671339 0.69998 0.728046 0.755429 0.781988 0.807547 0.831885 0.854733 0.875772 0.89464 0.910941 0.924272 0.934266 0.940729 0.942758 0.94243 0.941614 0.940481 0.93917 0.937782 0.936404 0.935092 0.933897 0.932852 0.931967 0.931236 0.930649 0.930197 0.929571 0.927617 0.937714 0.954789 0.947074 0.934315 0.929714 0.92864 0.928385 0.928345 0.928347 0.928333 0.92824 0.927943 0.927191 0.925499 0.921951 0.914924 0.901871 0.878947 0.841152 0.783116 0.700737 0.593575 0.467333 0.334987 0.213011 0.117537 0.0560235 0.0236763 0.00929917 0.0035156 0.00130422 0.000478775 0.000174441 6.31336e-05 2.26962e-05 8.10177e-06 2.87045e-06 1.00893e-06 3.51655e-07 1.21485e-07 4.15819e-08 1.40957e-08 4.73042e-09 1.57083e-09 5.16244e-10 1.67304e-10 5.39246e-11 1.67352e-11 5.06239e-12 1.55439e-12 4.18372e-13 -3.57121e-13 9.69897e-14 -2.47811e-13 -5.06559e-13 -1.17062e-13 -2.86802e-14 -2.20453e-13 -2.86937e-13 -7.71866e-14 -3.13344e-13 -3.27007e-13 7.35544e-14 -6.58337e-13 -3.28541e-14 2.45003e-13 -6.2656e-14 -2.15685e-14 8.16515e-14 -2.82013e-14 1.66384e-14 -1.73239e-13 5.34515e-13 1.60652e-14 6.03818e-13 -1.79002e-13 2.36046e-13 2.24312e-13 0 0 1.33785e-14 1.57332e-14 2.94784e-14 1.33877e-14 3.68362e-15 3.00646e-14 -1.47698e-14 -2.18839e-14 -1.01426e-14 -5.28452e-14 2.43331e-14 -2.16108e-15 -2.98577e-14 -8.86918e-14 3.96901e-14 -2.02548e-14 -8.00378e-14 -3.32887e-14 -5.18483e-14 -7.61169e-14 -1.3986e-13 -1.47515e-13 -1.52705e-14 -4.53203e-14 -1.92261e-14 -1.75777e-13 -1.02731e-13 -5.87368e-14 -5.50488e-14 2.9209e-14 1.43382e-14 -1.34396e-13 -8.76225e-14 -5.43007e-14 3.92614e-15 -1.22206e-13 -4.17373e-14 -6.57334e-14 -1.40299e-13 -6.16851e-14 -1.66232e-13 -2.75714e-13 -3.14784e-14 1.80845e-14 -2.17745e-13 -1.61403e-13 -1.35747e-14 -4.83573e-14 -3.7404e-14 -4.16002e-14 -1.73675e-13 -8.54119e-14 2.13188e-13 9.72368e-14 1.76444e-12 1.24791e-11 9.05437e-11 6.28524e-10 4.09428e-09 2.49249e-08 1.41334e-07 7.43587e-07 3.61365e-06 1.61373e-05 6.58122e-05 0.000243313 0.000808307 0.00238856 0.00621376 0.0141255 0.0280036 0.0486379 0.0750711 0.105228 0.137184 0.169802 0.202569 0.23528 0.267891 0.300359 0.332657 0.364763 0.396657 0.428325 0.45975 0.490918 0.521812 0.552413 0.5827 0.612643 0.642205 0.671339 0.69998 0.728046 0.755429 0.781988 0.807547 0.831885 0.854733 0.875772 0.89464 0.910941 0.924272 0.934266 0.940729 0.942758 0.94243 0.941614 0.940481 0.93917 0.937782 0.936404 0.935092 0.933897 0.932852 0.931967 0.931236 0.930649 0.930197 0.929571 0.927617 0.937714 0.954789 0.947074 0.934315 0.929714 0.92864 0.928385 0.928345 0.928347 0.928333 0.92824 0.927943 0.927191 0.925499 0.921951 0.914924 0.901871 0.878947 0.841152 0.783116 0.700737 0.593575 0.467333 0.334987 0.213011 0.117537 0.0560235 0.0236763 0.00929917 0.0035156 0.00130422 0.000478775 0.000174441 6.31336e-05 2.26962e-05 8.10177e-06 2.87045e-06 1.00893e-06 3.51655e-07 1.21485e-07 4.15816e-08 1.4096e-08 4.7305e-09 1.57093e-09 5.15989e-10 1.67567e-10 5.36325e-11 1.71721e-11 4.75196e-12 1.05899e-12 3.31521e-13 -1.76347e-13 4.95626e-13 -5.57373e-13 4.72302e-13 -5.52859e-13 -3.00945e-13 9.25399e-15 -3.07185e-13 -3.47572e-13 -2.30576e-13 -1.74365e-13 -1.2908e-13 -2.25236e-13 2.31455e-13 -2.95041e-13 -2.99735e-13 -2.1478e-13 2.41496e-13 1.86157e-13 9.04783e-13 -4.45321e-14 1.99512e-13 -2.23506e-13 1.90364e-13 6.56433e-14 -2.61383e-14 3.01827e-13 0 0 2.1106e-14 1.29234e-14 1.79895e-14 3.99144e-14 3.35961e-14 -2.33205e-15 -1.95038e-14 -1.78629e-14 2.11115e-15 -8.49433e-14 2.98588e-14 -3.00431e-14 -3.58132e-14 -8.42409e-14 -2.51149e-14 -6.48318e-15 -2.83421e-14 -9.96274e-14 3.54178e-14 -1.12374e-13 -1.04299e-13 -7.58014e-14 -1.07495e-13 7.46458e-14 -8.33639e-14 -7.51066e-14 -8.74542e-14 -8.57843e-14 -7.62412e-14 -5.84755e-14 6.19377e-15 -1.72237e-13 -4.45058e-15 1.60043e-14 -4.80889e-15 -7.34608e-14 -2.46606e-14 -1.84611e-13 1.1751e-14 -1.6452e-13 -2.93463e-13 1.61175e-13 -2.89138e-13 -1.42113e-13 -1.55827e-13 -2.03866e-13 5.44735e-15 6.18507e-14 -8.91958e-14 -1.3211e-13 -1.12473e-13 -1.11268e-13 -2.17058e-14 6.32079e-13 1.58649e-12 1.23027e-11 9.09003e-11 6.28679e-10 4.09438e-09 2.4925e-08 1.41334e-07 7.43587e-07 3.61365e-06 1.61373e-05 6.58122e-05 0.000243313 0.000808307 0.00238856 0.00621376 0.0141255 0.0280036 0.0486379 0.0750711 0.105228 0.137184 0.169802 0.202569 0.23528 0.267891 0.300359 0.332657 0.364763 0.396657 0.428325 0.45975 0.490918 0.521812 0.552413 0.5827 0.612643 0.642205 0.671339 0.69998 0.728046 0.755429 0.781988 0.807547 0.831885 0.854733 0.875772 0.89464 0.910941 0.924272 0.934266 0.940729 0.942758 0.94243 0.941614 0.940481 0.93917 0.937782 0.936404 0.935092 0.933897 0.932852 0.931967 0.931236 0.930649 0.930197 0.929571 0.927617 0.937714 0.954789 0.947074 0.934315 0.929714 0.92864 0.928385 0.928345 0.928347 0.928333 0.92824 0.927943 0.927191 0.925499 0.921951 0.914924 0.901871 0.878947 0.841152 0.783116 0.700737 0.593575 0.467333 0.334987 0.213011 0.117537 0.0560235 0.0236763 0.00929917 0.0035156 0.00130422 0.000478775 0.000174441 6.31336e-05 2.26962e-05 8.10177e-06 2.87045e-06 1.00893e-06 3.51655e-07 1.21485e-07 4.1582e-08 1.40954e-08 4.73057e-09 1.57119e-09 5.15808e-10 1.67964e-10 5.32567e-11 1.70387e-11 5.05085e-12 1.30595e-12 -1.09819e-13 3.59549e-13 -6.29262e-14 -6.86321e-14 -6.63738e-13 2.57081e-13 -2.15491e-13 -3.53553e-13 1.06881e-13 -6.57162e-13 1.76904e-13 -2.23109e-13 -1.77183e-13 6.23824e-14 -2.83333e-13 4.10245e-14 -2.59065e-13 -1.82979e-13 -9.38832e-14 8.05767e-13 2.35894e-13 7.82123e-13 -7.36568e-13 1.53668e-13 -8.21121e-14 2.67189e-13 -2.34704e-13 -6.18937e-13 0 0 8.6551e-15 1.90192e-14 3.26348e-14 2.4167e-14 -1.29454e-14 -1.95537e-14 -1.48824e-14 1.01248e-14 1.40251e-14 3.01548e-14 -1.4575e-13 9.39336e-15 -2.56104e-14 -3.07482e-14 -2.01545e-13 -6.25799e-15 1.94197e-14 9.75042e-14 -1.57745e-13 -2.94701e-14 2.28701e-14 -2.22422e-14 2.67576e-14 -2.13167e-13 -7.26932e-14 -5.788e-14 -6.44616e-14 -8.45117e-14 -1.03528e-13 -1.72088e-13 -8.23916e-14 1.48074e-13 -6.39463e-14 1.81481e-14 -5.50544e-14 5.53086e-14 -2.05837e-13 -7.19242e-14 -3.01095e-13 -2.46254e-13 1.83613e-13 -8.07886e-14 -1.71921e-13 -2.95626e-13 7.31772e-14 1.77478e-13 -3.49942e-13 -2.88897e-13 -2.01792e-13 -1.60238e-13 2.76083e-13 -2.86672e-14 3.35597e-14 1.71528e-13 1.6986e-12 1.23689e-11 9.07602e-11 6.2899e-10 4.09457e-09 2.49249e-08 1.41334e-07 7.43587e-07 3.61365e-06 1.61373e-05 6.58122e-05 0.000243313 0.000808307 0.00238856 0.00621376 0.0141255 0.0280036 0.0486379 0.0750711 0.105228 0.137184 0.169802 0.202569 0.23528 0.267891 0.300359 0.332657 0.364763 0.396657 0.428325 0.45975 0.490918 0.521812 0.552413 0.5827 0.612643 0.642205 0.671339 0.69998 0.728046 0.755429 0.781988 0.807547 0.831885 0.854733 0.875772 0.89464 0.910941 0.924272 0.934266 0.940729 0.942758 0.94243 0.941614 0.940481 0.93917 0.937782 0.936404 0.935092 0.933897 0.932852 0.931967 0.931236 0.930649 0.930197 0.929571 0.927617 0.937714 0.954789 0.947074 0.934315 0.929714 0.92864 0.928385 0.928345 0.928347 0.928333 0.92824 0.927943 0.927191 0.925499 0.921951 0.914924 0.901871 0.878947 0.841152 0.783116 0.700737 0.593575 0.467333 0.334987 0.213011 0.117537 0.0560235 0.0236763 0.00929917 0.0035156 0.00130422 0.000478775 0.000174441 6.31336e-05 2.26962e-05 8.10177e-06 2.87045e-06 1.00893e-06 3.51655e-07 1.21485e-07 4.15824e-08 1.40958e-08 4.73002e-09 1.57118e-09 5.16598e-10 1.66966e-10 5.38944e-11 1.65678e-11 4.99834e-12 2.34854e-12 -2.18826e-13 1.8085e-13 -3.81682e-13 1.21828e-14 -1.00694e-12 1.77298e-13 2.47706e-13 -8.3924e-13 -2.64071e-13 -2.69148e-13 1.95562e-13 2.68974e-13 -3.25257e-13 -6.93092e-13 2.12738e-13 2.79457e-13 -3.27351e-13 -3.32227e-13 -2.67799e-13 7.43238e-13 -5.84612e-13 -4.50354e-14 9.24157e-13 4.54973e-14 2.72474e-13 -6.45308e-13 6.50947e-13 -2.20421e-13 0
				</DataArray>
				<DataArray Name="VitesseY" type="Float32" format="ascii">