<?xml version="1.0"?>
<VTKFile type="PolyData">
	<PolyData>
		<Piece NumberOfPoints="1206" NumberOfPolys="1000">
			<Points>
				<DataArray type="Float32" NumberOfComponents="3" format="ascii">
 0 0 0 0.005 0 0 0.01 0 0 0.015 0 0 0.02 0 0 0.025 0 0 0.03 0 0 0.035 0 0 0.04 0 0 0.045 0 0 0.05 0 0 0.055 0 0 0.06 0 0 0.065 0 0 0.07 0 0 0.075 0 0 0.08 0 0 0.085 0 0 0.09 0 0 0.095 0 0 0.1 0 0 0.105 0 0 0.11 0 0 0.115 0 0 0.12 0 0 0.125 0 0 0.13 0 0 0.135 0 0 0.14 0 0 0.145 0 0 0.15 0 0 0.155 0 0 0.16 0 0 0.165 0 0 0.17 0 0 0.175 0 0 0.18 0 0 0.185 0 0 0.19 0 0 0.195 0 0 0.2 0 0 0.205 0 0 0.21 0 0 0.215 0 0 0.22 0 0 0.225 0 0 0.23 0 0 0.235 0 0 0.24 0 0 0.245 0 0 0.25 0 0 0.255 0 0 0.26 0 0 0.265 0 0 0.27 0 0 0.275 0 0 0.28 0 0 0.285 0 0 0.29 0 0 0.295 0 0 0.3 0 0 0.305 0 0 0.31 0 0 0.315 0 0 0.32 0 0 0.325 0 0 0.33 0 0 0.335 0 0 0.34 0 0 0.345 0 0 0.35 0 0 0.355 0 0 0.36 0 0 0.365 0 0 0.37 0 0 0.375 0 0 0.38 0 0 0.385 0 0 0.39 0 0 0.395 0 0 0.4 0 0 0.405 0 0 0.41 0 0 0.415 0 0 0.42 0 0 0.425 0 0 0.43 0 0 0.435 0 0 0.44 0 0 0.445 0 0 0.45 0 0 0.455 0 0 0.46 0 0 0.465 0 0 0.47 0 0 0.475 0 0 0.48 0 0 0.485 0 0 0.49 0 0 0.495 0 0 0.5 0 0 0.505 0 0 0.51 0 0 0.515 0 0 0.52 0 0 0.525 0 0 0.53 0 0 0.535 0 0 0.54 0 0 0.545 0 0 0.55 0 0 0.555 0 0 0.56 0 0 0.565 0 0 0.57 0 0 0.575 0 0 0.58 0 0 0.585 0 0 0.59 0 0 0.595 0 0 0.6 0 0 0.605 0 0 0.61 0 0 0.615 0 0 0.62 0 0 0.625 0 0 0.63 0 0 0.635 0 0 0.64 0 0 0.645 0 0 0.65 0 0 0.655 0 0 0.66 0 0 0.665 0 0 0.67 0 0 0.675 0 0 0.68 0 0 0.685 0 0 0.69 0 0 0.695 0 0 0.7 0 0 0.705 0 0 0.71 0 0 0.715 0 0 0.72 0 0 0.725 0 0 0.73 0 0 0.735 0 0 0.74 0 0 0.745 0 0 0.75 0 0 0.755 0 0 0.76 0 0 0.765 0 0 0.77 0 0 0.775 0 0 0.78 0 0 0.785 0 0 0.79 0 0 0.795 0 0 0.8 0 0 0.805 0 0 0.81 0 0 0.815 0 0 0.82 0 0 0.825 0 0 0.83 0 0 0.835 0 0 0.84 0 0 0.845 0 0 0.85 0 0 0.855 0 0 0.86 0 0 0.865 0 0 0.87 0 0 0.875 0 0 0.88 0 0 0.885 0 0 0.89 0 0 0.895 0 0 0.9 0 0 0.905 0 0 0.91 0 0 0.915 0 0 0.92 0 0 0.925 0 0 0.93 0 0 0.935 0 0 0.94 0 0 0.945 0 0 0.95 0 0 0.955 0 0 0.96 0 0 0.965 0 0 0.97 0 0 0.975 0 0 0.98 0 0 0.985 0 0 0.99 0 0 0.995 0 0 1 0 0 0 0.02 0 0.005 0.02 0 0.01 0.02 0 0.015 0.02 0 0.02 0.02 0 0.025 0.02 0 0.03 0.02 0 0.035 0.02 0 0.04 0.02 0 0.045 0.02 0 0.05 0.02 0 0.055 0.02 0 0.06 0.02 0 0.065 0.02 0 0.07 0.02 0 0.075 0.02 0 0.08 0.02 0 0.085 0.02 0 0.09 0.02 0 0.095 0.02 0 0.1 0.02 0 0.105 0.02 0 0.11 0.02 0 0.115 0.02 0 0.12 0.02 0 0.125 0.02 0 0.13 0.02 0 0.135 0.02 0 0.14 0.02 0 0.145 0.02 0 0.15 0.02 0 0.155 0.02 0 0.16 0.02 0 0.165 0.02 0 0.17 0.02 0 0.175 0.02 0 0.18 0.02 0 0.185 0.02 0 0.19 0.02 0 0.195 0.02 0 0.2 0.02 0 0.205 0.02 0 0.21 0.02 0 0.215 0.02 0 0.22 0.02 0 0.225 0.02 0 0.23 0.02 0 0.235 0.02 0 0.24 0.02 0 0.245 0.02 0 0.25 0.02 0 0.255 0.02 0 0.26 0.02 0 0.265 0.02 0 0.27 0.02 0 0.275 0.02 0 0.28 0.02 0 0.285 0.02 0 0.29 0.02 0 0.295 0.02 0 0.3 0.02 0 0.305 0.02 0 0.31 0.02 0 0.315 0.02 0 0.32 0.02 0 0.325 0.02 0 0.33 0.02 0 0.335 0.02 0 0.34 0.02 0 0.345 0.02 0 0.35 0.02 0 0.355 0.02 0 0.36 0.02 0 0.365 0.02 0 0.37 0.02 0 0.375 0.02 0 0.38 0.02 0 0.385 0.02 0 0.39 0.02 0 0.395 0.02 0 0.4 0.02 0 0.405 0.02 0 0.41 0.02 0 0.415 0.02 0 0.42 0.02 0 0.425 0.02 0 0.43 0.02 0 0.435 0.02 0 0.44 0.02 0 0.445 0.02 0 0.45 0.02 0 0.455 0.02 0 0.46 0.02 0 0.465 0.02 0 0.47 0.02 0 0.475 0.02 0 0.48 0.02 0 0.485 0.02 0 0.49 0.02 0 0.495 0.02 0 0.5 0.02 0 0.505 0.02 0 0.51 0.02 0 0.515 0.02 0 0.52 0.02 0 0.525 0.02 0 0.53 0.02 0 0.535 0.02 0 0.54 0.02 0 0.545 0.02 0 0.55 0.02 0 0.555 0.02 0 0.56 0.02 0 0.565 0.02 0 0.57 0.02 0 0.575 0.02 0 0.58 0.02 0 0.585 0.02 0 0.59 0.02 0 0.595 0.02 0 0.6 0.02 0 0.605 0.02 0 0.61 0.02 0 0.615 0.02 0 0.62 0.02 0 0.625 0.02 0 0.63 0.02 0 0.635 0.02 0 0.64 0.02 0 0.645 0.02 0 0.65 0.02 0 0.655 0.02 0 0.66 0.02 0 0.665 0.02 0 0.67 0.02 0 0.675 0.02 0 0.68 0.02 0 0.685 0.02 0 0.69 0.02 0 0.695 0.02 0 0.7 0.02 0 0.705 0.02 0 0.71 0.02 0 0.715 0.02 0 0.72 0.02 0 0.725 0.02 0 0.73 0.02 0 0.735 0.02 0 0.74 0.02 0 0.745 0.02 0 0.75 0.02 0 0.755 0.02 0 0.76 0.02 0 0.765 0.02 0 0.77 0.02 0 0.775 0.02 0 0.78 0.02 0 0.785 0.02 0 0.79 0.02 0 0.795 0.02 0 0.8 0.02 0 0.805 0.02 0 0.81 0.02 0 0.815 0.02 0 0.82 0.02 0 0.825 0.02 0 0.83 0.02 0 0.835 0.02 0 0.84 0.02 0 0.845 0.02 0 0.85 0.02 0 0.855 0.02 0 0.86 0.02 0 0.865 0.02 0 0.87 0.02 0 0.875 0.02 0 0.88 0.02 0 0.885 0.02 0 0.89 0.02 0 0.895 0.02 0 0.9 0.02 0 0.905 0.02 0 0.91 0.02 0 0.915 0.02 0 0.92 0.02 0 0.925 0.02 0 0.93 0.02 0 0.935 0.02 0 0.94 0.02 0 0.945 0.02 0 0.95 0.02 0 0.955 0.02 0 0.96 0.02 0 0.965 0.02 0 0.97 0.02 0 0.975 0.02 0 0.98 0.02 0 0.985 0.02 0 0.99 0.02 0 0.995 0.02 0 1 0.02 0 0 0.04 0 0.005 0.04 0 0.01 0.04 0 0.015 0.04 0 0.02 0.04 0 0.025 0.04 0 0.03 0.04 0 0.035 0.04 0 0.04 0.04 0 0.045 0.04 0 0.05 0.04 0 0.055 0.04 0 0.06 0.04 0 0.065 0.04 0 0.07 0.04 0 0.075 0.04 0 0.08 0.04 0 0.085 0.04 0 0.09 0.04 0 0.095 0.04 0 0.1 0.04 0 0.105 0.04 0 0.11 0.04 0 0.115 0.04 0 0.12 0.04 0 0.125 0.04 0 0.13 0.04 0 0.135 0.04 0 0.14 0.04 0 0.145 0.04 0 0.15 0.04 0 0.155 0.04 0 0.16 0.04 0 0.165 0.04 0 0.17 0.04 0 0.175 0.04 0 0.18 0.04 0 0.185 0.04 0 0.19 0.04 0 0.195 0.04 0 0.2 0.04 0 0.205 0.04 0 0.21 0.04 0 0.215 0.04 0 0.22 0.04 0 0.225 0.04 0 0.23 0.04 0 0.235 0.04 0 0.24 0.04 0 0.245 0.04 0 0.25 0.04 0 0.255 0.04 0 0.26 0.04 0 0.265 0.04 0 0.27 0.04 0 0.275 0.04 0 0.28 0.04 0 0.285 0.04 0 0.29 0.04 0 0.295 0.04 0 0.3 0.04 0 0.305 0.04 0 0.31 0.04 0 0.315 0.04 0 0.32 0.04 0 0.325 0.04 0 0.33 0.04 0 0.335 0.04 0 0.34 0.04 0 0.345 0.04 0 0.35 0.04 0 0.355 0.04 0 0.36 0.04 0 0.365 0.04 0 0.37 0.04 0 0.375 0.04 0 0.38 0.04 0 0.385 0.04 0 0.39 0.04 0 0.395 0.04 0 0.4 0.04 0 0.405 0.04 0 0.41 0.04 0 0.415 0.04 0 0.42 0.04 0 0.425 0.04 0 0.43 0.04 0 0.435 0.04 0 0.44 0.04 0 0.445 0.04 0 0.45 0.04 0 0.455 0.04 0 0.46 0.04 0 0.465 0.04 0 0.47 0.04 0 0.475 0.04 0 0.48 0.04 0 0.485 0.04 0 0.49 0.04 0 0.495 0.04 0 0.5 0.04 0 0.505 0.04 0 0.51 0.04 0 0.515 0.04 0 0.52 0.04 0 0.525 0.04 0 0.53 0.04 0 0.535 0.04 0 0.54 0.04 0 0.545 0.04 0 0.55 0.04 0 0.555 0.04 0 0.56 0.04 0 0.565 0.04 0 0.57 0.04 0 0.575 0.04 0 0.58 0.04 0 0.585 0.04 0 0.59 0.04 0 0.595 0.04 0 0.6 0.04 0 0.605 0.04 0 0.61 0.04 0 0.615 0.04 0 0.62 0.04 0 0.625 0.04 0 0.63 0.04 0 0.635 0.04 0 0.64 0.04 0 0.645 0.04 0 0.65 0.04 0 0.655 0.04 0 0.66 0.04 0 0.665 0.04 0 0.67 0.04 0 0.675 0.04 0 0.68 0.04 0 0.685 0.04 0 0.69 0.04 0 0.695 0.04 0 0.7 0.04 0 0.705 0.04 0 0.71 0.04 0 0.715 0.04 0 0.72 0.04 0 0.725 0.04 0 0.73 0.04 0 0.735 0.04 0 0.74 0.04 0 0.745 0.04 0 0.75 0.04 0 0.755 0.04 0 0.76 0.04 0 0.765 0.04 0 0.77 0.04 0 0.775 0.04 0 0.78 0.04 0 0.785 0.04 0 0.79 0.04 0 0.795 0.04 0 0.8 0.04 0 0.805 0.04 0 0.81 0.04 0 0.815 0.04 0 0.82 0.04 0 0.825 0.04 0 0.83 0.04 0 0.835 0.04 0 0.84 0.04 0 0.845 0.04 0 0.85 0.04 0 0.855 0.04 0 0.86 0.04 0 0.865 0.04 0 0.87 0.04 0 0.875 0.04 0 0.88 0.04 0 0.885 0.04 0 0.89 0.04 0 0.895 0.04 0 0.9 0.04 0 0.905 0.04 0 0.91 0.04 0 0.915 0.04 0 0.92 0.04 0 0.925 0.04 0 0.93 0.04 0 0.935 0.04 0 0.94 0.04 0 0.945 0.04 0 0.95 0.04 0 0.955 0.04 0 0.96 0.04 0 0.965 0.04 0 0.97 0.04 0 0.975 0.04 0 0.98 0.04 0 0.985 0.04 0 0.99 0.04 0 0.995 0.04 0 1 0.04 0 0 0.06 0 0.005 0.06 0 0.01 0.06 0 0.015 0.06 0 0.02 0.06 0 0.025 0.06 0 0.03 0.06 0 0.035 0.06 0 0.04 0.06 0 0.045 0.06 0 0.05 0.06 0 0.055 0.06 0 0.06 0.06 0 0.065 0.06 0 0.07 0.06 0 0.075 0.06 0 0.08 0.06 0 0.085 0.06 0 0.09 0.06 0 0.095 0.06 0 0.1 0.06 0 0.105 0.06 0 0.11 0.06 0 0.115 0.06 0 0.12 0.06 0 0.125 0.06 0 0.13 0.06 0 0.135 0.06 0 0.14 0.06 0 0.145 0.06 0 0.15 0.06 0 0.155 0.06 0 0.16 0.06 0 0.165 0.06 0 0.17 0.06 0 0.175 0.06 0 0.18 0.06 0 0.185 0.06 0 0.19 0.06 0 0.195 0.06 0 0.2 0.06 0 0.205 0.06 0 0.21 0.06 0 0.215 0.06 0 0.22 0.06 0 0.225 0.06 0 0.23 0.06 0 0.235 0.06 0 0.24 0.06 0 0.245 0.06 0 0.25 0.06 0 0.255 0.06 0 0.26 0.06 0 0.265 0.06 0 0.27 0.06 0 0.275 0.06 0 0.28 0.06 0 0.285 0.06 0 0.29 0.06 0 0.295 0.06 0 0.3 0.06 0 0.305 0.06 0 0.31 0.06 0 0.315 0.06 0 0.32 0.06 0 0.325 0.06 0 0.33 0.06 0 0.335 0.06 0 0.34 0.06 0 0.345 0.06 0 0.35 0.06 0 0.355 0.06 0 0.36 0.06 0 0.365 0.06 0 0.37 0.06 0 0.375 0.06 0 0.38 0.06 0 0.385 0.06 0 0.39 0.06 0 0.395 0.06 0 0.4 0.06 0 0.405 0.06 0 0.41 0.06 0 0.415 0.06 0 0.42 0.06 0 0.425 0.06 0 0.43 0.06 0 0.435 0.06 0 0.44 0.06 0 0.445 0.06 0 0.45 0.06 0 0.455 0.06 0 0.46 0.06 0 0.465 0.06 0 0.47 0.06 0 0.475 0.06 0 0.48 0.06 0 0.485 0.06 0 0.49 0.06 0 0.495 0.06 0 0.5 0.06 0 0.505 0.06 0 0.51 0.06 0 0.515 0.06 0 0.52 0.06 0 0.525 0.06 0 0.53 0.06 0 0.535 0.06 0 0.54 0.06 0 0.545 0.06 0 0.55 0.06 0 0.555 0.06 0 0.56 0.06 0 0.565 0.06 0 0.57 0.06 0 0.575 0.06 0 0.58 0.06 0 0.585 0.06 0 0.59 0.06 0 0.595 0.06 0 0.6 0.06 0 0.605 0.06 0 0.61 0.06 0 0.615 0.06 0 0.62 0.06 0 0.625 0.06 0 0.63 0.06 0 0.635 0.06 0 0.64 0.06 0 0.645 0.06 0 0.65 0.06 0 0.655 0.06 0 0.66 0.06 0 0.665 0.06 0 0.67 0.06 0 0.675 0.06 0 0.68 0.06 0 0.685 0.06 0 0.69 0.06 0 0.695 0.06 0 0.7 0.06 0 0.705 0.06 0 0.71 0.06 0 0.715 0.06 0 0.72 0.06 0 0.725 0.06 0 0.73 0.06 0 0.735 0.06 0 0.74 0.06 0 0.745 0.06 0 0.75 0.06 0 0.755 0.06 0 0.76 0.06 0 0.765 0.06 0 0.77 0.06 0 0.775 0.06 0 0.78 0.06 0 0.785 0.06 0 0.79 0.06 0 0.795 0.06 0 0.8 0.06 0 0.805 0.06 0 0.81 0.06 0 0.815 0.06 0 0.82 0.06 0 0.825 0.06 0 0.83 0.06 0 0.835 0.06 0 0.84 0.06 0 0.845 0.06 0 0.85 0.06 0 0.855 0.06 0 0.86 0.06 0 0.865 0.06 0 0.87 0.06 0 0.875 0.06 0 0.88 0.06 0 0.885 0.06 0 0.89 0.06 0 0.895 0.06 0 0.9 0.06 0 0.905 0.06 0 0.91 0.06 0 0.915 0.06 0 0.92 0.06 0 0.925 0.06 0 0.93 0.06 0 0.935 0.06 0 0.94 0.06 0 0.945 0.06 0 0.95 0.06 0 0.955 0.06 0 0.96 0.06 0 0.965 0.06 0 0.97 0.06 0 0.975 0.06 0 0.98 0.06 0 0.985 0.06 0 0.99 0.06 0 0.995 0.06 0 1 0.06 0 0 0.08 0 0.005 0.08 0 0.01 0.08 0 0.015 0.08 0 0.02 0.08 0 0.025 0.08 0 0.03 0.08 0 0.035 0.08 0 0.04 0.08 0 0.045 0.08 0 0.05 0.08 0 0.055 0.08 0 0.06 0.08 0 0.065 0.08 0 0.07 0.08 0 0.075 0.08 0 0.08 0.08 0 0.085 0.08 0 0.09 0.08 0 0.095 0.08 0 0.1 0.08 0 0.105 0.08 0 0.11 0.08 0 0.115 0.08 0 0.12 0.08 0 0.125 0.08 0 0.13 0.08 0 0.135 0.08 0 0.14 0.08 0 0.145 0.08 0 0.15 0.08 0 0.155 0.08 0 0.16 0.08 0 0.165 0.08 0
[...]
			<PointData Scalars="VitesseX">
				<DataArray Name="VitesseX" type="Float32" format="ascii">
 0 -1.1956e-14 -5.35946e-15 -8.88364e-14 3.94532e-14 2.57346e-15 -4.08561e-14 -6.96414e-14 2.67436e-14 -1.02947e-13 -7.16606e-14 1.03029e-13 -2.06235e-13 1.55296e-13 -2.1079e-13 -6.4644e-14 2.96822e-14 -2.82225e-13 4.06842e-14 -9.64451e-14 -6.49236e-14 6.35856e-14 5.10787e-14 -2.17904e-14 -3.67391e-13 -3.00368e-14 2.90032e-13 -2.4319e-13 -3.32595e-14 -2.72604e-15 -7.52855e-14 -1.53335e-13 1.23419e-13 3.64327e-14 -2.90374e-13 2.65845e-14 -1.9884e-13 1.17283e-13 -3.84705e-13 2.37168e-13 -2.19435e-13 7.13776e-14 -4.19686e-14 -3.36019e-13 -4.01227e-13 -5.80835e-15 -6.22882e-13 4.28458e-13 -1.59658e-13 1.24418e-13 -2.16997e-13 1.29348e-13 8.51084e-13 -9.72801e-13 1.15701e-13 -2.33653e-14 -3.85636e-13 2.08812e-13 -6.62685e-13 2.48819e-13 1.57275e-13 8.05247e-14 -4.76904e-14 -2.85658e-13 2.85525e-13 -1.21025e-13 -1.36396e-13 -5.85261e-14 -6.73056e-13 1.38158e-13 1.35843e-13 -5.48529e-13 2.03217e-13 -3.48525e-13 8.1566e-13 -2.04175e-13 4.2058e-12 6.93691e-11 8.91004e-10 1.04093e-08 1.08478e-07 1.00039e-06 8.08e-06 5.64431e-05 0.00033564 0.00166488 0.0067185 0.021501 0.0539972 0.108129 0.177965 0.252858 0.326285 0.397777 0.466778 0.53318 0.596879 0.657726 0.715439 0.769455 0.81885 0.862298 0.898168 0.924954 0.942068 0.951465 0.951159 0.950243 0.945987 0.9881 0.989333 0.960712 0.938514 0.925846 0.909256 0.87724 0.821935 0.737365 0.62242 0.483907 0.337969 0.205137 0.104949 0.0448731 0.0166293 0.00564365 0.00181954 0.000567078 0.000171897 5.07634e-05 1.4607e-05 4.09447e-06 1.11775e-06 2.9711e-07 7.6887e-08 1.93713e-08 4.75076e-09 1.13445e-09 2.64052e-10 5.91178e-11 1.33662e-11 3.16451e-12 -6.29207e-13 1.07424e-12 2.4946e-13 -6.91401e-13 1.04546e-12 -1.81911e-12 9.13333e-13 -5.10829e-13 -4.26215e-13 1.70547e-12 -1.22121e-12 8.35098e-13 -6.5725e-13 1.13288e-12 -8.09334e-13 -6.99536e-13 -6.46258e-14 -5.90765e-14 8.07672e-13 -3.56618e-13 -2.83333e-13 -2.0207e-13 -7.53691e-13 4.55642e-14 6.07385e-14 6.47898e-13 7.47107e-13 -1.01424e-12 2.98953e-13 2.79868e-13 -5.40656e-13 1.20662e-12 -7.25447e-13 5.08181e-13 -6.52935e-13 -6.47659e-13 1.40762e-12 -1.13887e-12 -1.88761e-13 -5.58701e-13 -9.21082e-13 1.1706e-12 -3.59568e-13 3.65297e-13 -2.2692e-14 -8.07487e-13 7.03327e-13 -1.21453e-12 3.99768e-13 6.73489e-13 -2.36881e-12 1.39428e-12 -8.1099e-13 -2.14201e-13 6.4909e-13 -2.23176e-12 8.0832e-13 -1.16037e-12 0 0 -6.01173e-15 -2.82123e-14 3.14465e-14 -7.36488e-14 -2.94426e-14 1.69295e-14 -2.96822e-15 -7.55405e-14 1.27411e-14 1.8416e-14 -1.05574e-13 1.3611e-13 -2.19383e-13 4.61535e-14 -9.14855e-14 -2.56886e-13 1.49903e-14 -1.50061e-13 5.04703e-15 3.61255e-14 -4.04846e-14 -1.34648e-13 -1.36328e-13 1.54567e-13 -8.45411e-14 -2.56822e-13 1.34133e-13 -1.55512e-13 -5.58752e-14 -4.94544e-14 1.30825e-13 -1.47686e-13 -2.52864e-14 3.74542e-16 -1.19504e-13 4.21058e-14 -3.10322e-13 2.2942e-13 -3.48528e-13 6.39432e-14 -2.35098e-13 -1.80206e-13 -1.42375e-14 -1.04855e-13 -4.66903e-13 1.20112e-13 -3.70865e-13 2.63752e-13 6.73672e-14 2.72529e-13 -4.03332e-14 -5.69148e-13 8.35816e-13 -2.94291e-13 -2.49011e-13 -8.648e-14 -5.94809e-13 3.54723e-13 -1.29921e-13 -5.04504e-14 -1.02789e-13 -6.88297e-14 1.61015e-13 -2.44255e-13 -1.10076e-13 3.35332e-14 -2.32036e-13 1.40763e-13 -3.42277e-13 -2.70405e-13 5.13335e-13 -2.61272e-13 2.19137e-13 -3.66336e-13 7.13795e-13 5.06221e-12 6.81059e-11 8.91636e-10 1.04079e-08 1.0848e-07 1.00039e-06 8.07999e-06 5.64431e-05 0.00033564 0.00166488 0.0067185 0.021501 0.0539972 0.108129 0.177965 0.252858 0.326285 0.397777 0.466778 0.53318 0.596879 0.657726 0.715439 0.769455 0.81885 0.862298 0.898168 0.924954 0.942068 0.951465 0.951159 0.950243 0.945987 0.9881 0.989333 0.960712 0.938514 0.925846 0.909256 0.87724 0.821935 0.737365 0.62242 0.483907 0.337969 0.205137 0.104949 0.0448731 0.0166293 0.00564365 0.00181954 0.000567078 0.000171897 5.07634e-05 1.4607e-05 4.09447e-06 1.11775e-06 2.97109e-07 7.6888e-08 1.93704e-08 4.75135e-09 1.13439e-09 2.63317e-10 5.98783e-11 1.28649e-11 2.38214e-12 1.43232e-12 -2.70907e-13 1.75858e-13 5.46078e-13 -1.21309e-12 7.9072e-13 -6.80894e-13 2.36752e-13 5.23918e-13 -1.05139e-12 1.13003e-12 -5.48268e-13 7.49632e-13 -1.04212e-12 2.02063e-13 -6.76535e-14 -1.69908e-13 5.92866e-14 -7.20847e-13 8.40185e-14 -2.72841e-13 -2.85907e-13 2.91261e-13 -9.98926e-14 -1.52373e-13 1.38858e-13 -4.70711e-13 1.08346e-12 -9.13208e-14 -1.18727e-13 2.57911e-13 -8.36879e-13 8.50715e-13 -1.98142e-13 2.04135e-13 1.78802e-14 -1.20534e-12 5.80816e-13 -7.16401e-13 -3.68071e-13 3.58767e-13 -7.12064e-13 2.72658e-13 -2.05575e-14 -2.23159e-15 3.93424e-13 -8.03221e-13 7.07293e-13 -6.1028e-13 -1.20647e-12 1.72425e-12 -1.27435e-12 -1.91361e-14 -9.02396e-14 -1.12669e-12 9.41734e-13 -1.68645e-12 1.41544e-13 0 0 5.9758e-15 1.12981e-14 -1.99738e-14 2.97609e-14 -3.43249e-14 -4.09331e-14 2.75546e-15 -1.94344e-15 4.23626e-14 -1.02092e-14 1.22651e-14 -1.19218e-13 2.74964e-14 -1.64737e-13 -1.15162e-13 -2.93965e-14 -1.50796e-13 -5.21953e-14 -1.50058e-14 -1.04887e-13 -6.82897e-15 -4.61095e-14 -7.91419e-14 -7.8837e-14 -1.03153e-13 -2.32247e-14 -1.78225e-14 -6.2951e-14 4.7379e-14 -4.37975e-14 -5.98448e-14 5.8201e-14 -1.76314e-13 4.08978e-14 -1.27768e-13 -1.59868e-13 1.00314e-13 -1.94419e-13 -6.42206e-14 -2.87718e-13 -6.42686e-14 -1.4996e-14 -1.98862e-13 -5.51751e-14 5.59146e-14 -2.18115e-13 3.16503e-14 -3.32262e-14 1.2795e-13 6.13286e-14 1.8463e-14 1.16369e-13 -4.3343e-13 3.32714e-13 -1.17945e-13 -3.1794e-13 3.97652e-14 -2.8677e-13 -8.09216e-14 -1.54904e-13 -1.13083e-13 -9.30575e-14 -5.67543e-14 6.1186e-15 -4.06873e-14 -8.35815e-14 2.89943e-14 -1.53216e-13 1.13247e-13 9.44861e-14 -1.94288e-13 1.50625e-13 -5.29276e-14 2.46537e-13 5.22979e-13 5.16529e-12 6.8943e-11 8.908e-10 1.0409e-08 1.08479e-07 1.00039e-06 8.08e-06 5.64431e-05 0.00033564 0.00166488 0.0067185 0.021501 0.0539972 0.108129 0.177965 0.252858 0.326285 0.397777 0.466778 0.53318 0.596879 0.657726 0.715439 0.769455 0.81885 0.862298 0.898168 0.924954 0.942068 0.951465 0.951159 0.950243 0.945987 0.9881 0.989333 0.960712 0.938514 0.925846 0.909256 0.87724 0.821935 0.737365 0.62242 0.483907 0.337969 0.205137 0.104949 0.0448731 0.0166293 0.00564365 0.00181954 0.000567078 0.000171897 5.07634e-05 1.4607e-05 4.09447e-06 1.11775e-06 2.97109e-07 7.68874e-08 1.93707e-08 4.75098e-09 1.13425e-09 2.6379e-10 5.94543e-11 1.29412e-11 2.9395e-12 3.95316e-13 4.24554e-13 1.68546e-13 -3.77587e-13 5.47595e-13 -1.88111e-13 1.70852e-13 4.96814e-14 -6.65441e-13 6.71062e-13 9.93936e-14 4.18435e-13 -6.98994e-13 -6.35634e-13 -3.07734e-13 -2.33843e-13 -3.01274e-13 -3.51242e-13 -2.06342e-13 -5.4648e-13 8.99067e-14 -7.69117e-14 -2.66801e-13 2.07816e-13 -2.52595e-13 1.65053e-13 2.99594e-13 -1.77922e-13 2.68755e-13 1.29862e-13 -3.84095e-13 1.35181e-13 1.39737e-13 3.25373e-13 1.2685e-13 -2.45139e-13 -3.07083e-13 -1.03939e-12 2.17387e-13 2.17876e-13 -2.77859e-13 -2.44585e-13 -3.38853e-13 3.31372e-13 -2.68757e-13 -2.0698e-13 3.48951e-13 -3.67012e-13 2.50475e-13 -2.70501e-14 -3.87386e-13 1.25338e-13 -6.76661e-13 -7.88542e-14 2.70966e-13 -1.08975e-12 6.08604e-15 -2.58566e-13 0 0 -5.58395e-15 -8.50643e-15 -1.02445e-14 6.54473e-14 3.84927e-14 6.95951e-15 -9.32005e-15 4.46993e-14 -2.82246e-14 -5.76522e-14 -3.58219e-14 -1.2903e-13 1.49718e-14 -1.78331e-13 -5.89625e-14 -4.21256e-14 -9.627e-14 1.34696e-15 -8.08547e-14 -7.98788e-14 -6.24687e-14 -8.72077e-14 -2.89516e-14 -2.35307e-13 3.08129e-14 6.17017e-14 -1.79665e-13 4.1555e-14 -4.04618e-14 1.441e-14 -5.70597e-14 9.8816e-14 -1.59499e-13 -1.79448e-13 -1.69531e-14 -7.20166e-14 -6.64077e-14 -2.8833e-13 6.31797e-14 3.5252e-14 -4.00202e-15 -1.82233e-13 -2.14469e-13 -3.15042e-13 -6.5067e-14 -1.31229e-13 8.27448e-14 2.15893e-14 1.67672e-13 -9.68627e-14 -1.79221e-15 7.10627e-14 -2.93834e-13 1.21953e-13 -1.74408e-13 -2.99419e-13 -8.64929e-14 -4.68766e-13 -7.63773e-14 8.54476e-14 2.42783e-13 -1.22396e-13 -1.26738e-13 2.25872e-13 1.94823e-14 -1.14348e-13 -7.03536e-14 -1.66325e-13 1.08825e-13 9.73706e-14 -2.74234e-13 1.17249e-13 -1.37415e-13 4.29345e-13 6.52816e-13 5.11198e-12 6.92635e-11 8.91368e-10 1.04083e-08 1.08479e-07 1.00039e-06 8.08e-06 5.64431e-05 0.00033564 0.00166488 0.0067185 0.021501 0.0539972 0.108129 0.177965 0.252858 0.326285 0.397777 0.466778 0.53318 0.596879 0.657726 0.715439 0.769455 0.81885 0.862298 0.898168 0.924954 0.942068 0.951465 0.951159 0.950243 0.945987 0.9881 0.989333 0.960712 0.938514 0.925846 0.909256 0.87724 0.821935 0.737365 0.62242 0.483907 0.337969 0.205137 0.104949 0.0448731 0.0166293 0.00564365 0.00181954 0.000567078 0.000171897 5.07634e-05 1.4607e-05 4.09447e-06 1.11775e-06 2.97109e-07 7.68872e-08 1.93708e-08 4.75107e-09 1.13452e-09 2.63821e-10 5.94161e-11 1.33301e-11 3.11757e-12 -1.21624e-13 6.20868e-13 4.25494e-13 -4.60065e-14 7.46166e-13 -2.25759e-13 5.41904e-13 -2.2925e-13 -7.25462e-13 3.00215e-13 -4.48479e-13 -5.8765e-14 -4.16041e-13 -2.45427e-13 -6.12628e-13 -5.40864e-13 -6.89629e-13 1.07836e-13 -7.20591e-14 -1.55056e-13 -5.15935e-13 -3.61314e-13 -1.57323e-13 -4.38266e-13 9.67994e-14 6.49903e-13 2.50104e-13 -1.10062e-12 -1.26339e-13 2.72366e-13 1.87508e-13 6.51791e-13 -2.8488e-13 4.90544e-13 -1.75648e-13 -5.46848e-13 7.07487e-13 -1.02746e-12 4.4237e-14 -5.41098e-13 1.3478e-14 1.44017e-13 1.20984e-13 3.68925e-13 8.22146e-14 -6.92664e-13 -1.02307e-13 -2.13141e-13 5.671e-13 5.21999e-13 -1.3444e-12 6.9166e-13 -5.02342e-13 6.66013e-15 7.79593e-13 -6.90295e-13 -6.81028e-13 -1.01683e-12 0 0 2.23683e-15 -6.36171e-15 8.14032e-14 -1.02893e-14 4.67058e-14 6.92141e-14 1.5289e-14 -1.96968e-14 1.30049e-14 -1.6455e-14 -1.67157e-13 7.08433e-14 -2.91488e-13 5.78253e-14 -5.13109e-14 -2.14301e-13 5.47654e-14 -1.02681e-13 -8.38243e-14 3.15944e-15 -1.1442e-13 -2.13643e-13 -1.19966e-13 1.33511e-13 8.59493e-14 -2.20695e-13 1.13748e-13 1.20573e-14 -8.16976e-14 -6.2877e-14 -1.77037e-14 -2.08124e-13 -1.82549e-13 -4.86546e-14 8.82627e-15 4.35314e-14 -3.8709e-13 1.86097e-13 -2.93169e-13 2.8627e-13 -2.94736e-13 -1.8277e-13 4.8404e-14 -1.68748e-13 -5.06188e-13 1.84891e-13 -4.31294e-13 1.81793e-13 8.62381e-14 1.53278e-13 6.59418e-14 -6.05966e-13 8.22227e-13 -5.87971e-13 -3.5548e-13 -1.90197e-13 -7.63578e-13 2.88809e-13 -3.42392e-13 2.1442e-13 1.05601e-13 5.00876e-14 1.79557e-13 -1.5915e-14 1.00314e-13 4.83268e-15 -2.32793e-13 1.86142e-13 -3.39039e-13 -2.87419e-13 2.40779e-13 -5.01543e-14 3.61687e-13 -3.10136e-13 1.12841e-12 5.44466e-12 6.83092e-11 8.9198e-10 1.04078e-08 1.0848e-07 1.00039e-06 8.07999e-06 5.64431e-05 0.00033564 0.00166488 0.0067185 0.021501 0.0539972 0.108129 0.177965 0.252858 0.326285 0.397777 0.466778 0.53318 0.596879 0.657726 0.715439 0.769455 0.81885 0.862298 0.898168 0.924954 0.942068 0.951465 0.951159 0.950243 0.945987 0.9881 0.989333 0.960712 0.938514 0.925846 0.909256 0.87724 0.821935 0.737365 0.62242 0.483907 0.337969 0.205137 0.104949 0.0448731 0.0166293 0.00564365 0.00181954 0.000567078 0.000171897 5.07634e-05 1.4607e-05 4.09447e-06 1.11775e-06 2.97108e-07 7.68879e-08 1.93704e-08 4.75126e-09 1.13468e-09 2.63427e-10 6.01364e-11 1.32675e-11 2.66732e-12 1.4722e-12 -2.87108e-13 -1.76975e-13 1.34227e-12 -8.92531e-13 1.19814e-12 -3.74713e-13 -1.57485e-13 4.13377e-13 -1.83749e-12 4.94139e-13 -5.74684e-13 7.35287e-13 -1.20158e-12 -2.17433e-13 -5.17426e-13 -7.56712e-13 2.89001e-14 -6.13082e-13 3.10682e-13 -7.00711e-13 -8.1938e-14 7.16789e-13 -1.79505e-13 4.36865e-15 7.04722e-14 -6.15437e-13 3.31103e-13 -4.57035e-13 -2.86569e-13 7.22401e-13 -9.55072e-13 3.82575e-13 -2.62976e-13 1.5765e-13 -1.71637e-13 -7.34457e-13 7.53414e-13 -8.68985e-13 -9.50807e-13 7.41914e-13 -5.2784e-13 7.01685e-13 2.39444e-13 2.49148e-13 1.32644e-13 -1.26999e-12 1.00867e-12 -3.75592e-13 -1.06327e-12 1.51713e-12 -1.03968e-12 5.60994e-13 -9.02552e-14 -8.19952e-13 7.45642e-13 -2.04492e-12 -2.55516e-13 0 0 2.76606e-14 7.79508e-14 -8.38145e-15 9.4799e-14 9.23509e-15 -3.20721e-14 -8.97595e-15 4.51457e-14 3.87549e-14 -4.65167e-14 7.60353e-14 -3.17144e-13 3.61349e-14 -1.60258e-13 -9.66932e-14 1.40309e-13 -3.11727e-13 2.83615e-14 -1.4249e-13 -1.80872e-13 2.6995e-14 -2.47153e-14 -8.94487e-14 -9.65628e-14 4.30118e-14 1.92433e-13 3.97254e-14 9.28662e-14 1.21311e-13 -2.18546e-13 -4.55962e-13 -7.86857e-14 -3.11722e-13 5.22597e-14 6.16159e-14 -3.71692e-13 2.97191e-13 -2.83528e-13 9.30856e-14 -4.20721e-13 -1.68431e-13 2.87378e-13 -1.79522e-13 -9.27785e-15 1.57584e-13 -6.67096e-13 2.05412e-13 -4.33207e-13 8.27168e-14 -1.39117e-13 3.82408e-13 8.68059e-13 -1.27917e-12 -5.01364e-14 -1.23377e-13 -6.30111e-13 1.23791e-13 -4.30522e-13 -1.85212e-13 2.06313e-13 -2.14428e-13 2.48821e-13 -1.08605e-13 3.02698e-13 1.79416e-13 -1.32263e-13 1.38656e-13 -5.56079e-13 1.53477e-13 9.60461e-14 -9.33747e-13 6.92206e-13 1.05549e-13 5.62441e-13 3.65386e-13 5.07735e-12 6.91346e-11 8.90556e-10 1.04105e-08 1.08478e-07 1.00039e-06 8.08e-06 5.64431e-05 0.00033564 0.00166488 0.0067185 0.021501 0.0539972 0.108129 0.177965 0.252858 0.326285 0.397777 0.466778 0.53318 0.596879 0.657726 0.715439 0.769455 0.81885 0.862298 0.898168 0.924954 0.942068 0.951465 0.951159 0.950243 0.945987 0.9881 0.989333 0.960712 0.938514 0.925846 0.909256 0.87724 0.821935 0.737365 0.62242 0.483907 0.337969 0.205137 0.104949 0.0448731 0.0166293 0.00564365 0.00181954 0.000567078 0.000171897 5.07634e-05 1.4607e-05 4.09447e-06 1.11775e-06 2.97109e-07 7.68873e-08 1.93712e-08 4.7504e-09 1.1345e-09 2.64211e-10 5.97103e-11 1.33936e-11 3.37872e-12 4.84443e-13 6.4921e-13 -9.70102e-13 2.37824e-13 1.28944e-12 -9.28982e-13 7.83588e-13 -7.4144e-13 -5.27255e-13 8.74963e-13 -1.39725e-12 1.73666e-12 -1.25185e-12 3.35513e-14 -1.03854e-12 -9.85039e-13 -4.61524e-13 -1.038e-12 7.54638e-13 -6.8614e-13 7.26113e-14 7.74672e-13 -1.2159e-13 1.1785e-12 -3.24568e-13 -4.58574e-13 5.56633e-13 -6.73556e-13 3.57711e-13 -3.40825e-13 -7.54882e-13 -6.29896e-14 -8.12496e-13 4.81714e-14 -1.40909e-13 -4.23273e-13 3.20246e-13 -8.17519e-13 -1.47629e-13 -2.06225e-13 -7.37463e-13 7.61846e-13 -4.21187e-13 8.10194e-13 -2.21876e-13 -3.57679e-13 6.72312e-13 -9.19517e-13 2.35893e-13 -1.38211e-13 -8.6902e-13 7.30975e-13 6.33329e-16 -3.85261e-13 2.45309e-13 -3.42286e-12 1.46561e-12 -4.37963e-13 0
				</DataArray>
				<DataArray Name="VitesseY" type="Float32" format="ascii">