<?xml version="1.0"?>
<VTKFile type="PolyData">
	<PolyData>
		<Piece NumberOfPoints="1206" NumberOfPolys="1000">
			<Points>
				<DataArray type="Float32" NumberOfComponents="3" format="ascii">
 0 0 0 0.005 0 0 0.01 0 0 0.015 0 0 0.02 0 0 0.025 0 0 0.03 0 0 0.035 0 0 0.04 0 0 0.045 0 0 0.05 0 0 0.055 0 0 0.06 0 0 0.065 0 0 0.07 0 0 0.075 0 0 0.08 0 0 0.085 0 0 0.09 0 0 0.095 0 0 0.1 0 0 0.105 0 0 0.11 0 0 0.115 0 0 0.12 0 0 0.125 0 0 0.13 0 0 0.135 0 0 0.14 0 0 0.145 0 0 0.15 0 0 0.155 0 0 0.16 0 0 0.165 0 0 0.17 0 0 0.175 0 0 0.18 0 0 0.185 0 0 0.19 0 0 0.195 0 0 0.2 0 0 0.205 0 0 0.21 0 0 0.215 0 0 0.22 0 0 0.225 0 0 0.23 0 0 0.235 0 0 0.24 0 0 0.245 0 0 0.25 0 0 0.255 0 0 0.26 0 0 0.265 0 0 0.27 0 0 0.275 0 0 0.28 0 0 0.285 0 0 0.29 0 0 0.295 0 0 0.3 0 0 0.305 0 0 0.31 0 0 0.315 0 0 0.32 0 0 0.325 0 0 0.33 0 0 0.335 0 0 0.34 0 0 0.345 0 0 0.35 0 0 0.355 0 0 0.36 0 0 0.365 0 0 0.37 0 0 0.375 0 0 0.38 0 0 0.385 0 0 0.39 0 0 0.395 0 0 0.4 0 0 0.405 0 0 0.41 0 0 0.415 0 0 0.42 0 0 0.425 0 0 0.43 0 0 0.435 0 0 0.44 0 0 0.445 0 0 0.45 0 0 0.455 0 0 0.46 0 0 0.465 0 0 0.47 0 0 0.475 0 0 0.48 0 0 0.485 0 0 0.49 0 0 0.495 0 0 0.5 0 0 0.505 0 0 0.51 0 0 0.515 0 0 0.52 0 0 0.525 0 0 0.53 0 0 0.535 0 0 0.54 0 0 0.545 0 0 0.55 0 0 0.555 0 0 0.56 0 0 0.565 0 0 0.57 0 0 0.575 0 0 0.58 0 0 0.585 0 0 0.59 0 0 0.595 0 0 0.6 0 0 0.605 0 0 0.61 0 0 0.615 0 0 0.62 0 0 0.625 0 0 0.63 0 0 0.635 0 0 0.64 0 0 0.645 0 0 0.65 0 0 0.655 0 0 0.66 0 0 0.665 0 0 0.67 0 0 0.675 0 0 0.68 0 0 0.685 0 0 0.69 0 0 0.695 0 0 0.7 0 0 0.705 0 0 0.71 0 0 0.715 0 0 0.72 0 0 0.725 0 0 0.73 0 0 0.735 0 0 0.74 0 0 0.745 0 0 0.75 0 0 0.755 0 0 0.76 0 0 0.765 0 0 0.77 0 0 0.775 0 0 0.78 0 0 0.785 0 0 0.79 0 0 0.795 0 0 0.8 0 0 0.805 0 0 0.81 0 0 0.815 0 0 0.82 0 0 0.825 0 0 0.83 0 0 0.835 0 0 0.84 0 0 0.845 0 0 0.85 0 0 0.855 0 0 0.86 0 0 0.865 0 0 0.87 0 0 0.875 0 0 0.88 0 0 0.885 0 0 0.89 0 0 0.895 0 0 0.9 0 0 0.905 0 0 0.91 0 0 0.915 0 0 0.92 0 0 0.925 0 0 0.93 0 0 0.935 0 0 0.94 0 0 0.945 0 0 0.95 0 0 0.955 0 0 0.96 0 0 0.965 0 0 0.97 0 0 0.975 0 0 0.98 0 0 0.985 0 0 0.99 0 0 0.995 0 0 1 0 0 0 0.02 0 0.005 0.02 0 0.01 0.02 0 0.015 0.02 0 0.02 0.02 0 0.025 0.02 0 0.03 0.02 0 0.035 0.02 0 0.04 0.02 0 0.045 0.02 0 0.05 0.02 0 0.055 0.02 0 0.06 0.02 0 0.065 0.02 0 0.07 0.02 0 0.075 0.02 0 0.08 0.02 0 0.085 0.02 0 0.09 0.02 0 0.095 0.02 0 0.1 0.02 0 0.105 0.02 0 0.11 0.02 0 0.115 0.02 0 0.12 0.02 0 0.125 0.02 0 0.13 0.02 0 0.135 0.02 0 0.14 0.02 0 0.145 0.02 0 0.15 0.02 0 0.155 0.02 0 0.16 0.02 0 0.165 0.02 0 0.17 0.02 0 0.175 0.02 0 0.18 0.02 0 0.185 0.02 0 0.19 0.02 0 0.195 0.02 0 0.2 0.02 0 0.205 0.02 0 0.21 0.02 0 0.215 0.02 0 0.22 0.02 0 0.225 0.02 0 0.23 0.02 0 0.235 0.02 0 0.24 0.02 0 0.245 0.02 0 0.25 0.02 0 0.255 0.02 0 0.26 0.02 0 0.265 0.02 0 0.27 0.02 0 0.275 0.02 0 0.28 0.02 0 0.285 0.02 0 0.29 0.02 0 0.295 0.02 0 0.3 0.02 0 0.305 0.02 0 0.31 0.02 0 0.315 0.02 0 0.32 0.02 0 0.325 0.02 0 0.33 0.02 0 0.335 0.02 0 0.34 0.02 0 0.345 0.02 0 0.35 0.02 0 0.355 0.02 0 0.36 0.02 0 0.365 0.02 0 0.37 0.02 0 0.375 0.02 0 0.38 0.02 0 0.385 0.02 0 0.39 0.02 0 0.395 0.02 0 0.4 0.02 0 0.405 0.02 0 0.41 0.02 0 0.415 0.02 0 0.42 0.02 0 0.425 0.02 0 0.43 0.02 0 0.435 0.02 0 0.44 0.02 0 0.445 0.02 0 0.45 0.02 0 0.455 0.02 0 0.46 0.02 0 0.465 0.02 0 0.47 0.02 0 0.475 0.02 0 0.48 0.02 0 0.485 0.02 0 0.49 0.02 0 0.495 0.02 0 0.5 0.02 0 0.505 0.02 0 0.51 0.02 0 0.515 0.02 0 0.52 0.02 0 0.525 0.02 0 0.53 0.02 0 0.535 0.02 0 0.54 0.02 0 0.545 0.02 0 0.55 0.02 0 0.555 0.02 0 0.56 0.02 0 0.565 0.02 0 0.57 0.02 0 0.575 0.02 0 0.58 0.02 0 0.585 0.02 0 0.59 0.02 0 0.595 0.02 0 0.6 0.02 0 0.605 0.02 0 0.61 0.02 0 0.615 0.02 0 0.62 0.02 0 0.625 0.02 0 0.63 0.02 0 0.635 0.02 0 0.64 0.02 0 0.645 0.02 0 0.65 0.02 0 0.655 0.02 0 0.66 0.02 0 0.665 0.02 0 0.67 0.02 0 0.675 0.02 0 0.68 0.02 0 0.685 0.02 0 0.69 0.02 0 0.695 0.02 0 0.7 0.02 0 0.705 0.02 0 0.71 0.02 0 0.715 0.02 0 0.72 0.02 0 0.725 0.02 0 0.73 0.02 0 0.735 0.02 0 0.74 0.02 0 0.745 0.02 0 0.75 0.02 0 0.755 0.02 0 0.76 0.02 0 0.765 0.02 0 0.77 0.02 0 0.775 0.02 0 0.78 0.02 0 0.785 0.02 0 0.79 0.02 0 0.795 0.02 0 0.8 0.02 0 0.805 0.02 0 0.81 0.02 0 0.815 0.02 0 0.82 0.02 0 0.825 0.02 0 0.83 0.02 0 0.835 0.02 0 0.84 0.02 0 0.845 0.02 0 0.85 0.02 0 0.855 0.02 0 0.86 0.02 0 0.865 0.02 0 0.87 0.02 0 0.875 0.02 0 0.88 0.02 0 0.885 0.02 0 0.89 0.02 0 0.895 0.02 0 0.9 0.02 0 0.905 0.02 0 0.91 0.02 0 0.915 0.02 0 0.92 0.02 0 0.925 0.02 0 0.93 0.02 0 0.935 0.02 0 0.94 0.02 0 0.945 0.02 0 0.95 0.02 0 0.955 0.02 0 0.96 0.02 0 0.965 0.02 0 0.97 0.02 0 0.975 0.02 0 0.98 0.02 0 0.985 0.02 0 0.99 0.02 0 0.995 0.02 0 1 0.02 0 0 0.04 0 0.005 0.04 0 0.01 0.04 0 0.015 0.04 0 0.02 0.04 0 0.025 0.04 0 0.03 0.04 0 0.035 0.04 0 0.04 0.04 0 0.045 0.04 0 0.05 0.04 0 0.055 0.04 0 0.06 0.04 0 0.065 0.04 0 0.07 0.04 0 0.075 0.04 0 0.08 0.04 0 0.085 0.04 0 0.09 0.04 0 0.095 0.04 0 0.1 0.04 0 0.105 0.04 0 0.11 0.04 0 0.115 0.04 0 0.12 0.04 0 0.125 0.04 0 0.13 0.04 0 0.135 0.04 0 0.14 0.04 0 0.145 0.04 0 0.15 0.04 0 0.155 0.04 0 0.16 0.04 0 0.165 0.04 0 0.17 0.04 0 0.175 0.04 0 0.18 0.04 0 0.185 0.04 0 0.19 0.04 0 0.195 0.04 0 0.2 0.04 0 0.205 0.04 0 0.21 0.04 0 0.215 0.04 0 0.22 0.04 0 0.225 0.04 0 0.23 0.04 0 0.235 0.04 0 0.24 0.04 0 0.245 0.04 0 0.25 0.04 0 0.255 0.04 0 0.26 0.04 0 0.265 0.04 0 0.27 0.04 0 0.275 0.04 0 0.28 0.04 0 0.285 0.04 0 0.29 0.04 0 0.295 0.04 0 0.3 0.04 0 0.305 0.04 0 0.31 0.04 0 0.315 0.04 0 0.32 0.04 0 0.325 0.04 0 0.33 0.04 0 0.335 0.04 0 0.34 0.04 0 0.345 0.04 0 0.35 0.04 0 0.355 0.04 0 0.36 0.04 0 0.365 0.04 0 0.37 0.04 0 0.375 0.04 0 0.38 0.04 0 0.385 0.04 0 0.39 0.04 0 0.395 0.04 0 0.4 0.04 0 0.405 0.04 0 0.41 0.04 0 0.415 0.04 0 0.42 0.04 0 0.425 0.04 0 0.43 0.04 0 0.435 0.04 0 0.44 0.04 0 0.445 0.04 0 0.45 0.04 0 0.455 0.04 0 0.46 0.04 0 0.465 0.04 0 0.47 0.04 0 0.475 0.04 0 0.48 0.04 0 0.485 0.04 0 0.49 0.04 0 0.495 0.04 0 0.5 0.04 0 0.505 0.04 0 0.51 0.04 0 0.515 0.04 0 0.52 0.04 0 0.525 0.04 0 0.53 0.04 0 0.535 0.04 0 0.54 0.04 0 0.545 0.04 0 0.55 0.04 0 0.555 0.04 0 0.56 0.04 0 0.565 0.04 0 0.57 0.04 0 0.575 0.04 0 0.58 0.04 0 0.585 0.04 0 0.59 0.04 0 0.595 0.04 0 0.6 0.04 0 0.605 0.04 0 0.61 0.04 0 0.615 0.04 0 0.62 0.04 0 0.625 0.04 0 0.63 0.04 0 0.635 0.04 0 0.64 0.04 0 0.645 0.04 0 0.65 0.04 0 0.655 0.04 0 0.66 0.04 0 0.665 0.04 0 0.67 0.04 0 0.675 0.04 0 0.68 0.04 0 0.685 0.04 0 0.69 0.04 0 0.695 0.04 0 0.7 0.04 0 0.705 0.04 0 0.71 0.04 0 0.715 0.04 0 0.72 0.04 0 0.725 0.04 0 0.73 0.04 0 0.735 0.04 0 0.74 0.04 0 0.745 0.04 0 0.75 0.04 0 0.755 0.04 0 0.76 0.04 0 0.765 0.04 0 0.77 0.04 0 0.775 0.04 0 0.78 0.04 0 0.785 0.04 0 0.79 0.04 0 0.795 0.04 0 0.8 0.04 0 0.805 0.04 0 0.81 0.04 0 0.815 0.04 0 0.82 0.04 0 0.825 0.04 0 0.83 0.04 0 0.835 0.04 0 0.84 0.04 0 0.845 0.04 0 0.85 0.04 0 0.855 0.04 0 0.86 0.04 0 0.865 0.04 0 0.87 0.04 0 0.875 0.04 0 0.88 0.04 0 0.885 0.04 0 0.89 0.04 0 0.895 0.04 0 0.9 0.04 0 0.905 0.04 0 0.91 0.04 0 0.915 0.04 0 0.92 0.04 0 0.925 0.04 0 0.93 0.04 0 0.935 0.04 0 0.94 0.04 0 0.945 0.04 0 0.95 0.04 0 0.955 0.04 0 0.96 0.04 0 0.965 0.04 0 0.97 0.04 0 0.975 0.04 0 0.98 0.04 0 0.985 0.04 0 0.99 0.04 0 0.995 0.04 0 1 0.04 0 0 0.06 0 0.005 0.06 0 0.01 0.06 0 0.015 0.06 0 0.02 0.06 0 0.025 0.06 0 0.03 0.06 0 0.035 0.06 0 0.04 0.06 0 0.045 0.06 0 0.05 0.06 0 0.055 0.06 0 0.06 0.06 0 0.065 0.06 0 0.07 0.06 0 0.075 0.06 0 0.08 0.06 0 0.085 0.06 0 0.09 0.06 0 0.095 0.06 0 0.1 0.06 0 0.105 0.06 0 0.11 0.06 0 0.115 0.06 0 0.12 0.06 0 0.125 0.06 0 0.13 0.06 0 0.135 0.06 0 0.14 0.06 0 0.145 0.06 0 0.15 0.06 0 0.155 0.06 0 0.16 0.06 0 0.165 0.06 0 0.17 0.06 0 0.175 0.06 0 0.18 0.06 0 0.185 0.06 0 0.19 0.06 0 0.195 0.06 0 0.2 0.06 0 0.205 0.06 0 0.21 0.06 0 0.215 0.06 0 0.22 0.06 0 0.225 0.06 0 0.23 0.06 0 0.235 0.06 0 0.24 0.06 0 0.245 0.06 0 0.25 0.06 0 0.255 0.06 0 0.26 0.06 0 0.265 0.06 0 0.27 0.06 0 0.275 0.06 0 0.28 0.06 0 0.285 0.06 0 0.29 0.06 0 0.295 0.06 0 0.3 0.06 0 0.305 0.06 0 0.31 0.06 0 0.315 0.06 0 0.32 0.06 0 0.325 0.06 0 0.33 0.06 0 0.335 0.06 0 0.34 0.06 0 0.345 0.06 0 0.35 0.06 0 0.355 0.06 0 0.36 0.06 0 0.365 0.06 0 0.37 0.06 0 0.375 0.06 0 0.38 0.06 0 0.385 0.06 0 0.39 0.06 0 0.395 0.06 0 0.4 0.06 0 0.405 0.06 0 0.41 0.06 0 0.415 0.06 0 0.42 0.06 0 0.425 0.06 0 0.43 0.06 0 0.435 0.06 0 0.44 0.06 0 0.445 0.06 0 0.45 0.06 0 0.455 0.06 0 0.46 0.06 0 0.465 0.06 0 0.47 0.06 0 0.475 0.06 0 0.48 0.06 0 0.485 0.06 0 0.49 0.06 0 0.495 0.06 0 0.5 0.06 0 0.505 0.06 0 0.51 0.06 0 0.515 0.06 0 0.52 0.06 0 0.525 0.06 0 0.53 0.06 0 0.535 0.06 0 0.54 0.06 0 0.545 0.06 0 0.55 0.06 0 0.555 0.06 0 0.56 0.06 0 0.565 0.06 0 0.57 0.06 0 0.575 0.06 0 0.58 0.06 0 0.585 0.06 0 0.59 0.06 0 0.595 0.06 0 0.6 0.06 0 0.605 0.06 0 0.61 0.06 0 0.615 0.06 0 0.62 0.06 0 0.625 0.06 0 0.63 0.06 0 0.635 0.06 0 0.64 0.06 0 0.645 0.06 0 0.65 0.06 0 0.655 0.06 0 0.66 0.06 0 0.665 0.06 0 0.67 0.06 0 0.675 0.06 0 0.68 0.06 0 0.685 0.06 0 0.69 0.06 0 0.695 0.06 0 0.7 0.06 0 0.705 0.06 0 0.71 0.06 0 0.715 0.06 0 0.72 0.06 0 0.725 0.06 0 0.73 0.06 0 0.735 0.06 0 0.74 0.06 0 0.745 0.06 0 0.75 0.06 0 0.755 0.06 0 0.76 0.06 0 0.765 0.06 0 0.77 0.06 0 0.775 0.06 0 0.78 0.06 0 0.785 0.06 0 0.79 0.06 0 0.795 0.06 0 0.8 0.06 0 0.805 0.06 0 0.81 0.06 0 0.815 0.06 0 0.82 0.06 0 0.825 0.06 0 0.83 0.06 0 0.835 0.06 0 0.84 0.06 0 0.845 0.06 0 0.85 0.06 0 0.855 0.06 0 0.86 0.06 0 0.865 0.06 0 0.87 0.06 0 0.875 0.06 0 0.88 0.06 0 0.885 0.06 0 0.89 0.06 0 0.895 0.06 0 0.9 0.06 0 0.905 0.06 0 0.91 0.06 0 0.915 0.06 0 0.92 0.06 0 0.925 0.06 0 0.93 0.06 0 0.935 0.06 0 0.94 0.06 0 0.945 0.06 0 0.95 0.06 0 0.955 0.06 0 0.96 0.06 0 0.965 0.06 0 0.97 0.06 0 0.975 0.06 0 0.98 0.06 0 0.985 0.06 0 0.99 0.06 0 0.995 0.06 0 1 0.06 0 0 0.08 0 0.005 0.08 0 0.01 0.08 0 0.015 0.08 0 0.02 0.08 0 0.025 0.08 0 0.03 0.08 0 0.035 0.08 0 0.04 0.08 0 0.045 0.08 0 0.05 0.08 0 0.055 0.08 0 0.06 0.08 0 0.065 0.08 0 0.07 0.08 0 0.075 0.08 0 0.08 0.08 0 0.085 0.08 0 0.09 0.08 0 0.095 0.08 0 0.1 0.08 0 0.105 0.08 0 0.11 0.08 0 0.115 0.08 0 0.12 0.08 0 0.125 0.08 0 0.13 0.08 0 0.135 0.08 0 0.14 0.08 0 0.145 0.08 0 0.15 0.08 0 0.155 0.08 0 0.16 0.08 0 0.165 0.08 0
[...]
			<PointData Scalars="VitesseX">
				<DataArray Name="VitesseX" type="Float32" format="ascii">
 0 -8.93181e-15 -3.97995e-15 -8.62714e-14 4.96437e-14 9.85118e-16 -4.07724e-14 -6.77447e-14 1.61109e-14 -7.26964e-14 -6.94148e-14 8.48529e-14 -1.90399e-13 1.53381e-13 -1.96883e-13 -5.212e-14 3.3982e-14 -2.96777e-13 3.68533e-14 -1.05484e-13 -5.07831e-14 9.07504e-14 7.04771e-14 -4.55143e-14 -3.67144e-13 -2.05818e-14 2.0843e-13 -1.29063e-13 -2.80227e-15 -1.15579e-13 6.23106e-14 -2.02798e-13 1.54214e-13 5.21117e-14 -3.25536e-13 3.64726e-14 -1.70691e-13 1.37309e-13 -4.66817e-13 2.34575e-13 -1.31304e-13 -5.56369e-14 8.371e-14 -5.19837e-13 -2.99835e-13 -1.98248e-14 -3.94499e-13 3.02405e-13 -1.45134e-13 1.12904e-13 -2.9213e-13 1.9278e-13 7.56158e-13 -9.41106e-13 2.02631e-13 -1.08528e-13 -3.41153e-13 2.26295e-13 -5.17034e-13 4.50768e-14 1.41229e-13 2.81693e-13 2.12224e-14 -3.26761e-13 1.32554e-13 -4.12859e-14 -2.13785e-13 -6.86325e-14 -5.52647e-13 1.95018e-13 1.34823e-13 -6.00484e-13 2.05847e-13 -3.99735e-13 9.88169e-13 -1.49533e-13 4.22275e-12 7.33982e-11 9.3708e-10 1.09126e-08 1.13349e-07 1.04177e-06 8.38479e-06 5.83584e-05 0.000345693 0.0017077 0.00686096 0.0218565 0.0546552 0.109039 0.178941 0.25375 0.327066 0.398446 0.46734 0.533636 0.597233 0.657981 0.715602 0.769535 0.818861 0.862265 0.898119 0.924916 0.94207 0.951504 0.951216 0.950337 0.945721 0.987879 0.989423 0.961081 0.938743 0.926012 0.909605 0.877955 0.823231 0.739462 0.625465 0.487818 0.34228 0.209105 0.107814 0.0464392 0.0172956 0.00588734 0.00190169 0.000593551 0.000180164 5.3276e-05 1.53507e-05 4.30889e-06 1.17793e-06 3.13551e-07 8.12577e-08 2.05022e-08 5.03516e-09 1.20413e-09 2.81122e-10 6.28282e-11 1.41526e-11 3.09349e-12 2.48894e-14 1.04884e-12 1.84183e-13 -7.19249e-13 6.86613e-13 -1.49944e-12 8.62083e-13 -2.81736e-13 -2.76849e-13 1.65375e-12 -1.21421e-12 7.79313e-13 -5.65567e-13 1.08405e-12 -7.13392e-13 -8.57024e-13 1.14459e-13 -2.91541e-13 8.58928e-13 -4.00832e-14 -5.44458e-13 2.91713e-14 -8.28082e-13 1.42547e-13 3.30293e-16 6.02421e-13 7.49295e-13 -8.20968e-13 3.43502e-13 -9.43371e-15 -4.84869e-13 9.65618e-13 -5.81696e-13 3.11322e-13 -5.89339e-13 -6.26719e-13 1.205e-12 -1.14021e-12 -1.93567e-13 -6.64753e-13 -5.61789e-13 1.00646e-12 -4.47115e-13 4.34472e-13 1.74501e-13 -1.02278e-12 7.93032e-13 -1.30564e-12 3.80307e-13 5.32717e-13 -2.49964e-12 1.44297e-12 -6.77333e-13 -3.27601e-13 4.47477e-13 -1.92942e-12 7.34556e-13 -1.24731e-12 0 0 -9.29031e-15 -2.5175e-14 3.41794e-14 -7.33479e-14 -2.70912e-14 1.43633e-14 -1.75789e-15 -6.37798e-14 5.71059e-15 3.62644e-14 -1.07035e-13 1.37598e-13 -2.16134e-13 4.12285e-14 -7.57581e-14 -2.69329e-13 3.43682e-14 -1.6239e-13 3.3438e-14 6.05309e-14 -4.53609e-14 -1.53552e-13 -9.32018e-14 1.21095e-13 -7.94088e-14 -1.85928e-13 3.98208e-14 -9.9232e-14 6.16819e-14 -1.309e-13 8.85688e-14 -6.79941e-14 -7.31827e-14 9.70818e-14 -1.75758e-13 3.83557e-14 -3.54515e-13 2.16425e-13 -3.06142e-13 6.38319e-16 -1.33719e-13 -2.87061e-13 1.05008e-13 -1.55764e-13 -4.4051e-13 1.04085e-13 -3.09488e-13 2.58673e-13 3.76465e-14 2.52848e-13 -7.99966e-14 -5.00127e-13 8.50069e-13 -2.24959e-13 -3.27889e-13 -2.72912e-14 -5.7419e-13 3.11678e-13 -1.19816e-13 -1.92743e-14 -1.60094e-13 5.80127e-14 1.46665e-13 -1.84325e-13 -2.12799e-13 8.43333e-14 -2.15041e-13 1.2024e-13 -3.54919e-13 -2.39292e-13 4.92484e-13 -3.23763e-13 3.75065e-13 -5.4565e-13 8.13059e-13 5.34589e-12 7.19353e-11 9.37742e-10 1.09113e-08 1.13352e-07 1.04177e-06 8.38478e-06 5.83584e-05 0.000345693 0.0017077 0.00686096 0.0218565 0.0546552 0.109039 0.178941 0.25375 0.327066 0.398446 0.46734 0.533636 0.597233 0.657981 0.715602 0.769535 0.818861 0.862265 0.898119 0.924916 0.94207 0.951504 0.951216 0.950337 0.945721 0.987879 0.989423 0.961081 0.938743 0.926012 0.909605 0.877955 0.823231 0.739462 0.625465 0.487818 0.34228 0.209105 0.107814 0.0464392 0.0172956 0.00588734 0.00190169 0.000593551 0.000180164 5.3276e-05 1.53507e-05 4.30889e-06 1.17794e-06 3.1355e-07 8.12589e-08 2.05009e-08 5.03603e-09 1.20436e-09 2.79572e-10 6.38421e-11 1.35751e-11 3.05942e-12 1.32508e-12 -2.54246e-13 2.22748e-13 2.63661e-13 -8.71883e-13 7.1554e-13 -7.29096e-13 2.63501e-13 4.8337e-13 -7.64831e-13 1.14787e-12 -3.40997e-13 4.95178e-13 -1.18968e-12 2.4441e-13 3.898e-15 -3.55261e-13 3.43725e-13 -7.77686e-13 -2.80392e-15 -2.41771e-13 -1.17852e-13 5.72419e-13 -2.75003e-13 -1.26663e-13 -4.65732e-14 -5.77863e-13 1.21217e-12 -2.3576e-13 9.22374e-14 2.27233e-13 -7.87114e-13 8.786e-13 -3.27517e-13 3.50453e-13 -7.01526e-14 -1.12166e-12 2.69399e-13 -4.8246e-13 -2.33423e-13 1.81023e-13 -8.36409e-13 5.88642e-13 -4.11613e-13 -2.79176e-14 4.02026e-13 -1.01173e-12 7.89129e-13 -6.00993e-13 -1.33672e-12 1.40623e-12 -9.14621e-13 -7.73508e-14 -5.56072e-14 -1.15818e-12 6.63766e-13 -1.7447e-12 3.61127e-13 0 0 1.88178e-15 1.43542e-14 -1.8992e-14 2.51985e-14 -3.15732e-14 -5.13589e-14 8.85058e-15 2.01043e-15 4.90374e-14 2.41677e-15 4.24315e-15 -1.12229e-13 4.68708e-14 -1.47392e-13 -1.41553e-13 -1.88325e-14 -1.45847e-13 -2.66885e-14 9.79898e-15 -8.82857e-14 -6.3184e-15 -8.81373e-14 -5.59043e-14 -9.08647e-14 -9.17056e-14 -5.04101e-14 -1.1546e-13 1.94286e-14 3.65377e-14 3.80284e-14 -6.77936e-14 -7.69519e-15 -8.19834e-14 6.86516e-14 -6.55684e-14 -1.70121e-13 3.59527e-14 -2.0297e-13 5.25699e-14 -2.42863e-13 -2.23746e-13 5.83545e-14 -8.62169e-14 -1.61981e-13 2.89282e-14 -2.28594e-13 -1.39555e-15 -6.01008e-14 1.7057e-13 1.15797e-13 5.8033e-14 2.32307e-13 -4.51771e-13 2.40248e-13 4.03413e-14 -3.73624e-13 6.55921e-14 -1.82757e-13 -9.80497e-14 -2.56807e-13 -1.12338e-13 -1.88125e-13 -1.28656e-13 1.24003e-13 7.75921e-14 -1.30589e-13 -3.70968e-14 -6.91817e-14 3.47499e-14 1.3807e-13 -2.09787e-13 1.30196e-13 -1.2273e-13 2.25272e-13 5.53883e-13 5.59363e-12 7.25134e-11 9.3699e-10 1.09124e-08 1.1335e-07 1.04177e-06 8.38478e-06 5.83584e-05 0.000345693 0.0017077 0.00686096 0.0218565 0.0546552 0.109039 0.178941 0.25375 0.327066 0.398446 0.46734 0.533636 0.597233 0.657981 0.715602 0.769535 0.818861 0.862265 0.898119 0.924916 0.94207 0.951504 0.951216 0.950337 0.945721 0.987879 0.989423 0.961081 0.938743 0.926012 0.909605 0.877955 0.823231 0.739462 0.625465 0.487818 0.34228 0.209105 0.107814 0.0464392 0.0172956 0.00588734 0.00190169 0.000593551 0.000180164 5.3276e-05 1.53507e-05 4.30889e-06 1.17793e-06 3.1355e-07 8.12581e-08 2.05016e-08 5.03546e-09 1.20414e-09 2.80406e-10 6.32916e-11 1.3911e-11 3.29547e-12 3.48258e-13 3.70515e-13 -2.46324e-14 7.16083e-15 2.75423e-13 -3.26765e-14 2.53384e-13 -2.9664e-16 -7.08962e-13 6.08085e-13 1.00494e-13 6.76474e-13 -6.22375e-13 -6.05899e-13 -6.76201e-13 1.94289e-13 -2.19387e-13 -7.56784e-13 1.44042e-13 -2.81075e-13 -1.97294e-13 -2.91274e-13 -8.9753e-14 1.60954e-13 -1.58801e-13 1.49204e-13 2.97218e-13 -1.66587e-13 2.86888e-13 -2.71556e-13 1.99647e-14 2.45524e-13 -7.43519e-14 3.15911e-13 2.28585e-13 -3.13742e-13 -6.88815e-13 -5.31077e-13 2.17277e-13 -8.27275e-14 -2.02909e-13 1.31307e-13 -5.32103e-13 -1.3536e-13 -1.02529e-13 -2.40511e-13 2.56747e-13 -4.54476e-13 2.41832e-13 3.42112e-13 -4.99682e-13 -4.78585e-14 -7.60389e-13 -2.22802e-13 -8.65016e-14 -8.29918e-13 -6.84581e-16 -1.90794e-14 0 0 -4.29766e-15 -1.00726e-14 -9.35809e-15 6.15203e-14 3.92196e-14 8.60179e-15 -1.39899e-14 2.94668e-14 -2.79946e-14 -4.09734e-14 -2.20118e-14 -1.37269e-13 2.17543e-14 -1.41237e-13 -3.8345e-14 -2.84394e-14 -8.01373e-14 4.43368e-14 -1.02097e-13 -1.29134e-13 -4.40507e-14 -9.2784e-14 -4.15669e-14 -1.96963e-13 3.62758e-14 5.81697e-14 -1.59483e-13 4.02349e-15 -4.47261e-14 6.493e-14 -6.75551e-14 7.33388e-15 -2.07134e-14 -1.80542e-13 8.94673e-15 -6.76671e-14 -6.70779e-14 -1.63111e-13 8.33257e-14 4.99841e-14 -1.78377e-13 -9.57269e-14 -2.58165e-13 -2.80606e-13 -1.39974e-13 -6.89241e-14 2.52711e-14 1.30229e-13 1.47622e-13 -3.28789e-14 7.1217e-14 1.42819e-14 -2.74944e-13 2.43782e-13 -1.34524e-13 -3.74169e-13 -8.58944e-14 -1.69499e-13 -3.29437e-13 1.2822e-13 1.5114e-13 -1.539e-13 8.02505e-14 -5.32664e-14 1.18709e-13 -1.61224e-13 -1.57622e-14 -3.45383e-13 1.99188e-13 7.24601e-14 -1.88864e-13 1.44692e-13 -9.38538e-14 4.20281e-13 7.31859e-13 5.23821e-12 7.29769e-11 9.37562e-10 1.09117e-08 1.1335e-07 1.04177e-06 8.38478e-06 5.83584e-05 0.000345693 0.0017077 0.00686096 0.0218565 0.0546552 0.109039 0.178941 0.25375 0.327066 0.398446 0.46734 0.533636 0.597233 0.657981 0.715602 0.769535 0.818861 0.862265 0.898119 0.924916 0.94207 0.951504 0.951216 0.950337 0.945721 0.987879 0.989423 0.961081 0.938743 0.926012 0.909605 0.877955 0.823231 0.739462 0.625465 0.487818 0.34228 0.209105 0.107814 0.0464392 0.0172956 0.00588734 0.00190169 0.000593551 0.000180164 5.3276e-05 1.53507e-05 4.30889e-06 1.17793e-06 3.1355e-07 8.12578e-08 2.05017e-08 5.03557e-09 1.2045e-09 2.80683e-10 6.3434e-11 1.42027e-11 3.03158e-12 4.38473e-13 2.63764e-13 -3.81291e-14 8.10664e-14 1.03861e-12 -1.12059e-13 4.3329e-13 -2.58539e-13 -1.0697e-12 9.30989e-13 -3.54748e-13 -6.79446e-14 -7.18491e-13 1.60253e-13 -6.42097e-13 -4.68622e-13 -3.17292e-13 -6.59838e-13 2.27068e-13 1.33354e-13 -4.21908e-13 -1.50412e-13 -1.25606e-12 2.47904e-14 7.17594e-13 6.52569e-13 -2.70943e-13 -1.08161e-12 -7.02892e-15 -3.77194e-14 3.27756e-13 7.50162e-13 -2.44735e-13 -1.96552e-13 -2.25613e-13 5.41376e-14 1.82686e-13 -7.65884e-14 -5.08308e-13 -4.12531e-13 -6.0622e-13 5.32892e-13 1.75877e-13 7.35094e-13 -3.03461e-13 -8.18322e-13 -2.8231e-13 -5.23976e-13 6.98898e-13 3.03581e-13 -8.81387e-13 6.67131e-13 -6.77861e-13 1.78684e-13 5.19233e-13 -4.64354e-13 -5.34909e-13 -8.55409e-13 0 0 2.73956e-15 -3.23224e-15 8.47645e-14 -1.88247e-14 5.53543e-14 7.20998e-14 8.88496e-15 9.75414e-16 -6.49088e-15 6.43635e-15 -1.43589e-13 4.23403e-14 -3.03577e-13 6.46195e-14 1.3158e-14 -2.17153e-13 8.57063e-14 -6.6606e-14 -7.16579e-14 -2.99675e-14 -1.11826e-13 -1.94435e-13 -9.8706e-14 1.31619e-13 7.52717e-14 -4.59658e-14 5.9619e-14 -6.44021e-14 6.58508e-14 -1.32248e-13 -8.26537e-14 -1.84433e-13 -1.24092e-13 -8.17277e-15 -1.42655e-13 2.27964e-13 -3.75972e-13 2.52286e-13 -4.14202e-13 1.53271e-13 -1.35513e-13 -2.98213e-13 5.64023e-14 -1.56843e-13 -4.08464e-13 1.25723e-13 -3.54335e-13 3.53182e-13 -1.71006e-14 1.48919e-13 -1.46322e-14 -6.20856e-13 9.23601e-13 -3.84717e-13 -4.56655e-13 -1.56001e-13 -7.77855e-13 1.25176e-13 -2.04125e-13 3.58813e-13 -2.83364e-14 2.11693e-14 4.28526e-13 -2.53233e-13 -8.62319e-14 1.53073e-13 -1.10079e-13 4.68925e-14 -3.526e-13 -3.68856e-13 6.22439e-13 -9.97947e-14 4.24857e-13 -3.62195e-13 1.36148e-12 5.3971e-12 7.20992e-11 9.38111e-10 1.09112e-08 1.13352e-07 1.04177e-06 8.38478e-06 5.83584e-05 0.000345693 0.0017077 0.00686096 0.0218565 0.0546552 0.109039 0.178941 0.25375 0.327066 0.398446 0.46734 0.533636 0.597233 0.657981 0.715602 0.769535 0.818861 0.862265 0.898119 0.924916 0.94207 0.951504 0.951216 0.950337 0.945721 0.987879 0.989423 0.961081 0.938743 0.926012 0.909605 0.877955 0.823231 0.739462 0.625465 0.487818 0.34228 0.209105 0.107814 0.0464392 0.0172956 0.00588734 0.00190169 0.000593551 0.000180164 5.3276e-05 1.53507e-05 4.30889e-06 1.17793e-06 3.13549e-07 8.12589e-08 2.0501e-08 5.03614e-09 1.20447e-09 2.79928e-10 6.4186e-11 1.40888e-11 3.17964e-12 1.45853e-12 -2.09871e-13 2.63862e-13 5.39991e-13 -4.64677e-14 3.03372e-13 -3.41159e-13 -1.92288e-14 3.16223e-14 -1.20833e-12 5.38926e-13 -5.39762e-13 3.35249e-13 -6.83093e-13 -5.65e-14 -7.05576e-13 -7.79234e-13 3.13055e-13 -9.03014e-13 8.83741e-14 -1.43055e-13 -1.31517e-13 7.00624e-13 -3.09038e-13 4.2738e-13 -2.40277e-13 -8.92304e-13 2.94846e-13 -7.94047e-13 1.78194e-13 8.42461e-13 -6.62437e-13 5.15862e-13 -8.65705e-13 1.71566e-13 1.51478e-13 -2.89991e-13 6.93156e-13 -1.29109e-12 -7.19944e-13 -1.30926e-13 -5.60358e-13 1.16756e-12 8.14237e-14 -1.59906e-13 1.93491e-13 -1.32952e-12 9.97809e-13 -6.18765e-13 -1.03433e-12 1.8424e-12 -1.06092e-12 1.67425e-13 1.6557e-13 -7.14799e-13 5.37733e-13 -2.16933e-12 1.46272e-13 0 0 2.74868e-14 8.87591e-14 -4.3692e-15 8.60464e-14 2.42907e-14 -4.52207e-14 -7.7815e-16 9.07086e-14 5.69647e-14 -4.22905e-14 6.42546e-14 -3.30834e-13 2.87278e-14 -1.62411e-13 -8.07045e-14 1.57547e-13 -3.25521e-13 8.63707e-14 -9.18842e-14 -1.50084e-13 3.3285e-14 -1.99385e-15 -8.51973e-14 -1.339e-13 3.28162e-14 2.71195e-13 -1.42012e-15 9.76677e-14 5.52866e-14 5.81274e-15 -5.4572e-13 -1.08723e-13 -1.72246e-13 -3.76582e-14 -4.63514e-14 3.61778e-15 3.00455e-13 -4.74812e-13 -4.30557e-14 -4.11732e-13 -1.49963e-13 3.6957e-13 -2.73152e-13 -6.47421e-14 3.82072e-13 -6.70563e-13 1.59378e-13 -3.36774e-13 4.93057e-14 -2.02635e-13 2.97141e-13 9.5075e-13 -1.14769e-12 -1.23953e-13 -1.63281e-14 -5.97481e-13 1.21939e-13 -9.16555e-13 3.39231e-13 1.27349e-13 1.82528e-14 -1.20916e-13 -1.80852e-13 3.49275e-13 1.29614e-13 -1.50355e-14 9.86209e-14 -1.46939e-13 -1.29219e-13 6.9142e-15 -3.82421e-13 6.24792e-13 -3.57903e-13 9.6506e-13 5.91354e-13 5.03601e-12 7.27989e-11 9.36673e-10 1.09139e-08 1.1335e-07 1.04177e-06 8.38479e-06 5.83584e-05 0.000345693 0.0017077 0.00686096 0.0218565 0.0546552 0.109039 0.178941 0.25375 0.327066 0.398446 0.46734 0.533636 0.597233 0.657981 0.715602 0.769535 0.818861 0.862265 0.898119 0.924916 0.94207 0.951504 0.951216 0.950337 0.945721 0.987879 0.989423 0.961081 0.938743 0.926012 0.909605 0.877955 0.823231 0.739462 0.625465 0.487818 0.34228 0.209105 0.107814 0.0464392 0.0172956 0.00588734 0.00190169 0.000593551 0.000180164 5.3276e-05 1.53507e-05 4.30889e-06 1.17793e-06 3.1355e-07 8.12582e-08 2.05021e-08 5.03515e-09 1.20364e-09 2.81278e-10 6.32311e-11 1.45966e-11 3.86172e-12 1.11358e-13 1.35109e-12 2.93404e-13 -3.14401e-13 8.11062e-13 -2.16501e-12 1.27815e-12 -3.3071e-13 -4.58871e-13 1.20935e-13 -1.52162e-12 1.87062e-12 -6.93194e-13 5.6492e-13 -1.38342e-12 -9.50151e-13 -5.37678e-13 -5.46771e-13 4.42219e-13 -6.86584e-13 1.02202e-13 -2.79882e-13 1.76095e-12 3.46805e-13 -6.44374e-13 -7.91716e-13 1.25673e-12 -8.2556e-13 -1.85238e-13 -3.05193e-13 1.30003e-13 2.05696e-13 -9.66407e-13 2.59871e-13 -3.87173e-14 -9.19217e-13 1.12534e-12 -1.20167e-12 -3.59648e-13 -9.78189e-13 -3.79065e-13 7.5539e-13 -7.05236e-13 -3.20361e-13 3.12388e-13 -2.84223e-13 1.23557e-12 -7.49277e-13 -5.69369e-13 1.21455e-12 -8.63902e-13 -2.79605e-13 -3.52837e-13 -6.88219e-13 1.22761e-13 -2.91261e-12 9.53738e-13 -4.35543e-15 0
				</DataArray>
				<DataArray Name="VitesseY" type="Float32" format="ascii">