<?xml version="1.0"?>
<VTKFile type="PolyData">
	<PolyData>
		<Piece NumberOfPoints="1206" NumberOfPolys="1000">
			<Points>
				<DataArray type="Float32" NumberOfComponents="3" format="ascii">
 0 0 0 0.005 0 0 0.01 0 0 0.015 0 0 0.02 0 0 0.025 0 0 0.03 0 0 0.035 0 0 0.04 0 0 0.045 0 0 0.05 0 0 0.055 0 0 0.06 0 0 0.065 0 0 0.07 0 0 0.075 0 0 0.08 0 0 0.085 0 0 0.09 0 0 0.095 0 0 0.1 0 0 0.105 0 0 0.11 0 0 0.115 0 0 0.12 0 0 0.125 0 0 0.13 0 0 0.135 0 0 0.14 0 0 0.145 0 0 0.15 0 0 0.155 0 0 0.16 0 0 0.165 0 0 0.17 0 0 0.175 0 0 0.18 0 0 0.185 0 0 0.19 0 0 0.195 0 0 0.2 0 0 0.205 0 0 0.21 0 0 0.215 0 0 0.22 0 0 0.225 0 0 0.23 0 0 0.235 0 0 0.24 0 0 0.245 0 0 0.25 0 0 0.255 0 0 0.26 0 0 0.265 0 0 0.27 0 0 0.275 0 0 0.28 0 0 0.285 0 0 0.29 0 0 0.295 0 0 0.3 0 0 0.305 0 0 0.31 0 0 0.315 0 0 0.32 0 0 0.325 0 0 0.33 0 0 0.335 0 0 0.34 0 0 0.345 0 0 0.35 0 0 0.355 0 0 0.36 0 0 0.365 0 0 0.37 0 0 0.375 0 0 0.38 0 0 0.385 0 0 0.39 0 0 0.395 0 0 0.4 0 0 0.405 0 0 0.41 0 0 0.415 0 0 0.42 0 0 0.425 0 0 0.43 0 0 0.435 0 0 0.44 0 0 0.445 0 0 0.45 0 0 0.455 0 0 0.46 0 0 0.465 0 0 0.47 0 0 0.475 0 0 0.48 0 0 0.485 0 0 0.49 0 0 0.495 0 0 0.5 0 0 0.505 0 0 0.51 0 0 0.515 0 0 0.52 0 0 0.525 0 0 0.53 0 0 0.535 0 0 0.54 0 0 0.545 0 0 0.55 0 0 0.555 0 0 0.56 0 0 0.565 0 0 0.57 0 0 0.575 0 0 0.58 0 0 0.585 0 0 0.59 0 0 0.595 0 0 0.6 0 0 0.605 0 0 0.61 0 0 0.615 0 0 0.62 0 0 0.625 0 0 0.63 0 0 0.635 0 0 0.64 0 0 0.645 0 0 0.65 0 0 0.655 0 0 0.66 0 0 0.665 0 0 0.67 0 0 0.675 0 0 0.68 0 0 0.685 0 0 0.69 0 0 0.695 0 0 0.7 0 0 0.705 0 0 0.71 0 0 0.715 0 0 0.72 0 0 0.725 0 0 0.73 0 0 0.735 0 0 0.74 0 0 0.745 0 0 0.75 0 0 0.755 0 0 0.76 0 0 0.765 0 0 0.77 0 0 0.775 0 0 0.78 0 0 0.785 0 0 0.79 0 0 0.795 0 0 0.8 0 0 0.805 0 0 0.81 0 0 0.815 0 0 0.82 0 0 0.825 0 0 0.83 0 0 0.835 0 0 0.84 0 0 0.845 0 0 0.85 0 0 0.855 0 0 0.86 0 0 0.865 0 0 0.87 0 0 0.875 0 0 0.88 0 0 0.885 0 0 0.89 0 0 0.895 0 0 0.9 0 0 0.905 0 0 0.91 0 0 0.915 0 0 0.92 0 0 0.925 0 0 0.93 0 0 0.935 0 0 0.94 0 0 0.945 0 0 0.95 0 0 0.955 0 0 0.96 0 0 0.965 0 0 0.97 0 0 0.975 0 0 0.98 0 0 0.985 0 0 0.99 0 0 0.995 0 0 1 0 0 0 0.02 0 0.005 0.02 0 0.01 0.02 0 0.015 0.02 0 0.02 0.02 0 0.025 0.02 0 0.03 0.02 0 0.035 0.02 0 0.04 0.02 0 0.045 0.02 0 0.05 0.02 0 0.055 0.02 0 0.06 0.02 0 0.065 0.02 0 0.07 0.02 0 0.075 0.02 0 0.08 0.02 0 0.085 0.02 0 0.09 0.02 0 0.095 0.02 0 0.1 0.02 0 0.105 0.02 0 0.11 0.02 0 0.115 0.02 0 0.12 0.02 0 0.125 0.02 0 0.13 0.02 0 0.135 0.02 0 0.14 0.02 0 0.145 0.02 0 0.15 0.02 0 0.155 0.02 0 0.16 0.02 0 0.165 0.02 0 0.17 0.02 0 0.175 0.02 0 0.18 0.02 0 0.185 0.02 0 0.19 0.02 0 0.195 0.02 0 0.2 0.02 0 0.205 0.02 0 0.21 0.02 0 0.215 0.02 0 0.22 0.02 0 0.225 0.02 0 0.23 0.02 0 0.235 0.02 0 0.24 0.02 0 0.245 0.02 0 0.25 0.02 0 0.255 0.02 0 0.26 0.02 0 0.265 0.02 0 0.27 0.02 0 0.275 0.02 0 0.28 0.02 0 0.285 0.02 0 0.29 0.02 0 0.295 0.02 0 0.3 0.02 0 0.305 0.02 0 0.31 0.02 0 0.315 0.02 0 0.32 0.02 0 0.325 0.02 0 0.33 0.02 0 0.335 0.02 0 0.34 0.02 0 0.345 0.02 0 0.35 0.02 0 0.355 0.02 0 0.36 0.02 0 0.365 0.02 0 0.37 0.02 0 0.375 0.02 0 0.38 0.02 0 0.385 0.02 0 0.39 0.02 0 0.395 0.02 0 0.4 0.02 0 0.405 0.02 0 0.41 0.02 0 0.415 0.02 0 0.42 0.02 0 0.425 0.02 0 0.43 0.02 0 0.435 0.02 0 0.44 0.02 0 0.445 0.02 0 0.45 0.02 0 0.455 0.02 0 0.46 0.02 0 0.465 0.02 0 0.47 0.02 0 0.475 0.02 0 0.48 0.02 0 0.485 0.02 0 0.49 0.02 0 0.495 0.02 0 0.5 0.02 0 0.505 0.02 0 0.51 0.02 0 0.515 0.02 0 0.52 0.02 0 0.525 0.02 0 0.53 0.02 0 0.535 0.02 0 0.54 0.02 0 0.545 0.02 0 0.55 0.02 0 0.555 0.02 0 0.56 0.02 0 0.565 0.02 0 0.57 0.02 0 0.575 0.02 0 0.58 0.02 0 0.585 0.02 0 0.59 0.02 0 0.595 0.02 0 0.6 0.02 0 0.605 0.02 0 0.61 0.02 0 0.615 0.02 0 0.62 0.02 0 0.625 0.02 0 0.63 0.02 0 0.635 0.02 0 0.64 0.02 0 0.645 0.02 0 0.65 0.02 0 0.655 0.02 0 0.66 0.02 0 0.665 0.02 0 0.67 0.02 0 0.675 0.02 0 0.68 0.02 0 0.685 0.02 0 0.69 0.02 0 0.695 0.02 0 0.7 0.02 0 0.705 0.02 0 0.71 0.02 0 0.715 0.02 0 0.72 0.02 0 0.725 0.02 0 0.73 0.02 0 0.735 0.02 0 0.74 0.02 0 0.745 0.02 0 0.75 0.02 0 0.755 0.02 0 0.76 0.02 0 0.765 0.02 0 0.77 0.02 0 0.775 0.02 0 0.78 0.02 0 0.785 0.02 0 0.79 0.02 0 0.795 0.02 0 0.8 0.02 0 0.805 0.02 0 0.81 0.02 0 0.815 0.02 0 0.82 0.02 0 0.825 0.02 0 0.83 0.02 0 0.835 0.02 0 0.84 0.02 0 0.845 0.02 0 0.85 0.02 0 0.855 0.02 0 0.86 0.02 0 0.865 0.02 0 0.87 0.02 0 0.875 0.02 0 0.88 0.02 0 0.885 0.02 0 0.89 0.02 0 0.895 0.02 0 0.9 0.02 0 0.905 0.02 0 0.91 0.02 0 0.915 0.02 0 0.92 0.02 0 0.925 0.02 0 0.93 0.02 0 0.935 0.02 0 0.94 0.02 0 0.945 0.02 0 0.95 0.02 0 0.955 0.02 0 0.96 0.02 0 0.965 0.02 0 0.97 0.02 0 0.975 0.02 0 0.98 0.02 0 0.985 0.02 0 0.99 0.02 0 0.995 0.02 0 1 0.02 0 0 0.04 0 0.005 0.04 0 0.01 0.04 0 0.015 0.04 0 0.02 0.04 0 0.025 0.04 0 0.03 0.04 0 0.035 0.04 0 0.04 0.04 0 0.045 0.04 0 0.05 0.04 0 0.055 0.04 0 0.06 0.04 0 0.065 0.04 0 0.07 0.04 0 0.075 0.04 0 0.08 0.04 0 0.085 0.04 0 0.09 0.04 0 0.095 0.04 0 0.1 0.04 0 0.105 0.04 0 0.11 0.04 0 0.115 0.04 0 0.12 0.04 0 0.125 0.04 0 0.13 0.04 0 0.135 0.04 0 0.14 0.04 0 0.145 0.04 0 0.15 0.04 0 0.155 0.04 0 0.16 0.04 0 0.165 0.04 0 0.17 0.04 0 0.175 0.04 0 0.18 0.04 0 0.185 0.04 0 0.19 0.04 0 0.195 0.04 0 0.2 0.04 0 0.205 0.04 0 0.21 0.04 0 0.215 0.04 0 0.22 0.04 0 0.225 0.04 0 0.23 0.04 0 0.235 0.04 0 0.24 0.04 0 0.245 0.04 0 0.25 0.04 0 0.255 0.04 0 0.26 0.04 0 0.265 0.04 0 0.27 0.04 0 0.275 0.04 0 0.28 0.04 0 0.285 0.04 0 0.29 0.04 0 0.295 0.04 0 0.3 0.04 0 0.305 0.04 0 0.31 0.04 0 0.315 0.04 0 0.32 0.04 0 0.325 0.04 0 0.33 0.04 0 0.335 0.04 0 0.34 0.04 0 0.345 0.04 0 0.35 0.04 0 0.355 0.04 0 0.36 0.04 0 0.365 0.04 0 0.37 0.04 0 0.375 0.04 0 0.38 0.04 0 0.385 0.04 0 0.39 0.04 0 0.395 0.04 0 0.4 0.04 0 0.405 0.04 0 0.41 0.04 0 0.415 0.04 0 0.42 0.04 0 0.425 0.04 0 0.43 0.04 0 0.435 0.04 0 0.44 0.04 0 0.445 0.04 0 0.45 0.04 0 0.455 0.04 0 0.46 0.04 0 0.465 0.04 0 0.47 0.04 0 0.475 0.04 0 0.48 0.04 0 0.485 0.04 0 0.49 0.04 0 0.495 0.04 0 0.5 0.04 0 0.505 0.04 0 0.51 0.04 0 0.515 0.04 0 0.52 0.04 0 0.525 0.04 0 0.53 0.04 0 0.535 0.04 0 0.54 0.04 0 0.545 0.04 0 0.55 0.04 0 0.555 0.04 0 0.56 0.04 0 0.565 0.04 0 0.57 0.04 0 0.575 0.04 0 0.58 0.04 0 0.585 0.04 0 0.59 0.04 0 0.595 0.04 0 0.6 0.04 0 0.605 0.04 0 0.61 0.04 0 0.615 0.04 0 0.62 0.04 0 0.625 0.04 0 0.63 0.04 0 0.635 0.04 0 0.64 0.04 0 0.645 0.04 0 0.65 0.04 0 0.655 0.04 0 0.66 0.04 0 0.665 0.04 0 0.67 0.04 0 0.675 0.04 0 0.68 0.04 0 0.685 0.04 0 0.69 0.04 0 0.695 0.04 0 0.7 0.04 0 0.705 0.04 0 0.71 0.04 0 0.715 0.04 0 0.72 0.04 0 0.725 0.04 0 0.73 0.04 0 0.735 0.04 0 0.74 0.04 0 0.745 0.04 0 0.75 0.04 0 0.755 0.04 0 0.76 0.04 0 0.765 0.04 0 0.77 0.04 0 0.775 0.04 0 0.78 0.04 0 0.785 0.04 0 0.79 0.04 0 0.795 0.04 0 0.8 0.04 0 0.805 0.04 0 0.81 0.04 0 0.815 0.04 0 0.82 0.04 0 0.825 0.04 0 0.83 0.04 0 0.835 0.04 0 0.84 0.04 0 0.845 0.04 0 0.85 0.04 0 0.855 0.04 0 0.86 0.04 0 0.865 0.04 0 0.87 0.04 0 0.875 0.04 0 0.88 0.04 0 0.885 0.04 0 0.89 0.04 0 0.895 0.04 0 0.9 0.04 0 0.905 0.04 0 0.91 0.04 0 0.915 0.04 0 0.92 0.04 0 0.925 0.04 0 0.93 0.04 0 0.935 0.04 0 0.94 0.04 0 0.945 0.04 0 0.95 0.04 0 0.955 0.04 0 0.96 0.04 0 0.965 0.04 0 0.97 0.04 0 0.975 0.04 0 0.98 0.04 0 0.985 0.04 0 0.99 0.04 0 0.995 0.04 0 1 0.04 0 0 0.06 0 0.005 0.06 0 0.01 0.06 0 0.015 0.06 0 0.02 0.06 0 0.025 0.06 0 0.03 0.06 0 0.035 0.06 0 0.04 0.06 0 0.045 0.06 0 0.05 0.06 0 0.055 0.06 0 0.06 0.06 0 0.065 0.06 0 0.07 0.06 0 0.075 0.06 0 0.08 0.06 0 0.085 0.06 0 0.09 0.06 0 0.095 0.06 0 0.1 0.06 0 0.105 0.06 0 0.11 0.06 0 0.115 0.06 0 0.12 0.06 0 0.125 0.06 0 0.13 0.06 0 0.135 0.06 0 0.14 0.06 0 0.145 0.06 0 0.15 0.06 0 0.155 0.06 0 0.16 0.06 0 0.165 0.06 0 0.17 0.06 0 0.175 0.06 0 0.18 0.06 0 0.185 0.06 0 0.19 0.06 0 0.195 0.06 0 0.2 0.06 0 0.205 0.06 0 0.21 0.06 0 0.215 0.06 0 0.22 0.06 0 0.225 0.06 0 0.23 0.06 0 0.235 0.06 0 0.24 0.06 0 0.245 0.06 0 0.25 0.06 0 0.255 0.06 0 0.26 0.06 0 0.265 0.06 0 0.27 0.06 0 0.275 0.06 0 0.28 0.06 0 0.285 0.06 0 0.29 0.06 0 0.295 0.06 0 0.3 0.06 0 0.305 0.06 0 0.31 0.06 0 0.315 0.06 0 0.32 0.06 0 0.325 0.06 0 0.33 0.06 0 0.335 0.06 0 0.34 0.06 0 0.345 0.06 0 0.35 0.06 0 0.355 0.06 0 0.36 0.06 0 0.365 0.06 0 0.37 0.06 0 0.375 0.06 0 0.38 0.06 0 0.385 0.06 0 0.39 0.06 0 0.395 0.06 0 0.4 0.06 0 0.405 0.06 0 0.41 0.06 0 0.415 0.06 0 0.42 0.06 0 0.425 0.06 0 0.43 0.06 0 0.435 0.06 0 0.44 0.06 0 0.445 0.06 0 0.45 0.06 0 0.455 0.06 0 0.46 0.06 0 0.465 0.06 0 0.47 0.06 0 0.475 0.06 0 0.48 0.06 0 0.485 0.06 0 0.49 0.06 0 0.495 0.06 0 0.5 0.06 0 0.505 0.06 0 0.51 0.06 0 0.515 0.06 0 0.52 0.06 0 0.525 0.06 0 0.53 0.06 0 0.535 0.06 0 0.54 0.06 0 0.545 0.06 0 0.55 0.06 0 0.555 0.06 0 0.56 0.06 0 0.565 0.06 0 0.57 0.06 0 0.575 0.06 0 0.58 0.06 0 0.585 0.06 0 0.59 0.06 0 0.595 0.06 0 0.6 0.06 0 0.605 0.06 0 0.61 0.06 0 0.615 0.06 0 0.62 0.06 0 0.625 0.06 0 0.63 0.06 0 0.635 0.06 0 0.64 0.06 0 0.645 0.06 0 0.65 0.06 0 0.655 0.06 0 0.66 0.06 0 0.665 0.06 0 0.67 0.06 0 0.675 0.06 0 0.68 0.06 0 0.685 0.06 0 0.69 0.06 0 0.695 0.06 0 0.7 0.06 0 0.705 0.06 0 0.71 0.06 0 0.715 0.06 0 0.72 0.06 0 0.725 0.06 0 0.73 0.06 0 0.735 0.06 0 0.74 0.06 0 0.745 0.06 0 0.75 0.06 0 0.755 0.06 0 0.76 0.06 0 0.765 0.06 0 0.77 0.06 0 0.775 0.06 0 0.78 0.06 0 0.785 0.06 0 0.79 0.06 0 0.795 0.06 0 0.8 0.06 0 0.805 0.06 0 0.81 0.06 0 0.815 0.06 0 0.82 0.06 0 0.825 0.06 0 0.83 0.06 0 0.835 0.06 0 0.84 0.06 0 0.845 0.06 0 0.85 0.06 0 0.855 0.06 0 0.86 0.06 0 0.865 0.06 0 0.87 0.06 0 0.875 0.06 0 0.88 0.06 0 0.885 0.06 0 0.89 0.06 0 0.895 0.06 0 0.9 0.06 0 0.905 0.06 0 0.91 0.06 0 0.915 0.06 0 0.92 0.06 0 0.925 0.06 0 0.93 0.06 0 0.935 0.06 0 0.94 0.06 0 0.945 0.06 0 0.95 0.06 0 0.955 0.06 0 0.96 0.06 0 0.965 0.06 0 0.97 0.06 0 0.975 0.06 0 0.98 0.06 0 0.985 0.06 0 0.99 0.06 0 0.995 0.06 0 1 0.06 0 0 0.08 0 0.005 0.08 0 0.01 0.08 0 0.015 0.08 0 0.02 0.08 0 0.025 0.08 0 0.03 0.08 0 0.035 0.08 0 0.04 0.08 0 0.045 0.08 0 0.05 0.08 0 0.055 0.08 0 0.06 0.08 0 0.065 0.08 0 0.07 0.08 0 0.075 0.08 0 0.08 0.08 0 0.085 0.08 0 0.09 0.08 0 0.095 0.08 0 0.1 0.08 0 0.105 0.08 0 0.11 0.08 0 0.115 0.08 0 0.12 0.08 0 0.125 0.08 0 0.13 0.08 0 0.135 0.08 0 0.14 0.08 0 0.145 0.08 0 0.15 0.08 0 0.155 0.08 0 0.16 0.08 0 0.165 0.08 0
[...]
			<PointData Scalars="VitesseX">
				<DataArray Name="VitesseX" type="Float32" format="ascii">
 0 -3.77421e-15 5.88987e-14 -1.86631e-13 9.8764e-14 1.9752e-14 -7.85967e-14 -9.44265e-14 7.07023e-14 -6.18461e-14 -1.47514e-13 3.26217e-13 -6.01266e-13 6.00776e-13 -4.05052e-13 -2.84107e-14 2.96645e-13 -4.2212e-13 3.82156e-13 -3.25227e-13 2.19643e-14 1.15395e-13 1.97771e-13 1.42162e-14 -4.23437e-13 -1.95064e-13 2.86546e-13 -3.12619e-13 7.78081e-14 -2.8911e-13 5.44663e-13 -4.10071e-13 4.04273e-13 6.58042e-15 -5.81669e-13 4.26001e-13 -5.98881e-13 8.67915e-13 -8.85653e-13 5.76988e-13 -4.35847e-13 4.30771e-13 1.4059e-14 -6.38843e-13 -1.46065e-13 8.91012e-13 -1.21788e-12 1.34464e-12 -7.4792e-13 1.39221e-13 1.88172e-14 -1.91484e-14 1.57079e-12 -2.4278e-12 6.90519e-13 -3.02806e-13 -1.20463e-12 1.90521e-12 -2.23448e-12 1.06235e-12 8.15061e-13 5.99599e-13 1.5997e-14 -8.71631e-13 7.66543e-13 1.16301e-13 -2.08615e-13 -4.21341e-13 -1.84239e-12 1.13296e-12 1.06843e-12 -2.26808e-12 1.46567e-12 -8.66195e-13 2.60078e-12 -1.01137e-12 -5.72549e-13 8.94675e-13 -1.30873e-12 1.81747e-12 -2.39708e-12 4.7355e-13 1.1787e-12 -2.22243e-12 4.40496e-13 1.9321e-12 -8.3157e-13 -3.08418e-13 7.77262e-13 -1.42189e-12 3.41898e-12 8.82553e-11 5.37427e-09 2.5112e-07 8.82293e-06 0.000221834 0.00370522 0.0366181 0.185999 0.481378 0.613546 0.974125 0.962368 0.745595 0.506344 0.284551 0.116737 0.0317744 0.00623716 0.00101577 0.000147532 1.94936e-05 2.35774e-06 2.61985e-07 2.68298e-08 2.53952e-09 2.21644e-10 1.74686e-11 4.01602e-12 -1.58291e-12 2.71858e-12 -1.56563e-12 -5.44818e-13 2.23078e-12 -2.58912e-12 2.39997e-12 -1.44461e-12 -7.21663e-13 2.2385e-12 -2.42792e-12 2.31239e-12 -1.21687e-12 -6.74845e-13 2.06745e-12 -2.3787e-12 2.18663e-12 -1.60885e-12 -1.02641e-12 7.11598e-13 -2.29781e-12 1.83638e-12 6.40707e-14 -2.73768e-12 3.38802e-12 1.1127e-12 -1.85315e-12 2.71271e-12 -3.60262e-12 2.80066e-12 2.95488e-13 -2.00544e-12 2.53825e-12 -3.49164e-12 3.25706e-12 -2.45456e-12 2.38207e-12 -2.12781e-12 -2.28636e-13 1.22908e-12 -4.02478e-13 1.10748e-12 -1.58926e-12 8.35533e-14 7.21017e-13 -1.12603e-12 -1.4076e-13 -6.6881e-13 3.62493e-13 2.13541e-12 -2.31142e-12 2.0419e-12 1.6458e-13 -2.04295e-12 2.8194e-12 -2.57819e-12 1.78853e-12 -1.77179e-13 -1.69552e-12 2.41326e-12 -2.33358e-12 1.43382e-12 5.0135e-13 -2.15077e-12 2.82638e-12 -2.73252e-12 1.79124e-12 1.23049e-13 -2.71259e-12 1.67105e-12 -4.07095e-12 1.35673e-12 3.51383e-12 -7.43057e-12 4.97286e-12 4.45311e-13 1.00153e-12 1.9974e-12 -4.76864e-12 4.34531e-12 -1.24333e-12 0 0 -1.95925e-15 -4.43519e-14 4.84121e-14 -1.35284e-13 -2.12678e-15 3.38453e-14 1.84593e-14 -1.22825e-13 -1.33552e-13 1.44742e-13 -1.37775e-13 1.8814e-13 -4.26218e-13 3.10382e-13 -1.33778e-13 -3.06703e-13 3.91744e-13 -3.55081e-13 2.54208e-13 1.02477e-13 -7.74577e-14 -1.3604e-13 7.72442e-14 2.08125e-13 -8.62715e-14 -5.7814e-13 -3.94602e-14 2.43951e-13 8.46243e-14 -2.49382e-13 4.14538e-13 -3.76995e-13 -1.34489e-13 4.00136e-13 -1.44019e-13 3.82755e-14 -8.00378e-13 7.96962e-13 -3.76124e-13 3.36291e-13 -7.67473e-14 -3.91787e-13 2.08228e-13 1.61741e-13 -5.89376e-13 5.53803e-13 -5.87548e-13 6.06094e-13 2.36619e-14 1.2382e-13 1.01455e-13 -8.67392e-13 8.85693e-13 -1.20039e-12 -5.13359e-13 8.10808e-13 -4.75571e-13 4.59655e-13 -6.90139e-13 4.52651e-13 6.27349e-13 1.98561e-13 2.81763e-13 -5.20362e-13 3.91623e-14 5.78547e-14 -7.20431e-13 -2.50493e-14 -4.19469e-13 -2.11623e-13 6.99044e-13 -7.10824e-13 1.27487e-12 -6.47994e-13 8.07165e-13 8.10292e-14 -6.38606e-13 6.52339e-13 -1.40144e-12 1.09149e-12 -9.79654e-13 -9.13471e-13 1.4882e-12 -1.1324e-13 -1.27252e-12 1.0547e-12 7.10932e-13 -3.73459e-13 7.31927e-13 -2.18361e-13 9.06078e-11 5.37435e-09 2.5112e-07 8.82293e-06 0.000221834 0.00370522 0.0366181 0.185999 0.481378 0.613546 0.974125 0.962368 0.745595 0.506344 0.284551 0.116737 0.0317744 0.00623716 0.00101577 0.000147532 1.94936e-05 2.35774e-06 2.61985e-07 2.68275e-08 2.54e-09 2.23087e-10 1.87126e-11 5.17219e-13 1.81603e-12 -1.40769e-12 1.67934e-12 1.68316e-13 -1.47009e-12 1.23866e-12 -1.55046e-12 1.45231e-12 5.63938e-13 -1.79657e-12 1.32294e-12 -1.38191e-12 1.49356e-12 2.23316e-13 -1.4331e-12 1.23752e-12 -1.50116e-12 1.22748e-12 -3.18754e-13 -2.31276e-12 4.19374e-13 2.53711e-14 -9.41139e-13 2.69367e-12 -1.05517e-12 -2.49049e-13 1.56129e-12 -1.2686e-12 2.66326e-12 -1.87885e-12 -5.47585e-13 1.28291e-12 -1.122e-12 2.3913e-12 -2.49128e-12 1.10564e-12 -1.39218e-12 1.31212e-12 4.13141e-14 -1.18687e-12 1.6194e-13 3.48328e-14 2.08354e-12 -7.46092e-13 -1.88637e-12 -8.4141e-13 1.17151e-13 1.82888e-12 -2.66429e-13 -9.75548e-13 2.12959e-12 -1.61982e-12 -4.1783e-13 1.97972e-12 -1.56848e-12 1.96628e-12 -2.08393e-12 1.3511e-13 1.44625e-12 -1.27767e-12 1.4946e-12 -1.47873e-12 -5.76972e-13 1.97628e-12 -1.66348e-12 1.96132e-12 -1.98423e-12 -2.80414e-13 1.19445e-12 -2.40911e-12 9.71281e-13 -2.43411e-12 3.59775e-13 3.34321e-12 -3.18323e-12 3.31647e-13 8.35277e-13 4.30477e-13 4.14074e-12 -3.6701e-12 -3.28614e-13 0 0 4.15493e-15 -1.8097e-14 -4.05796e-15 -3.27234e-14 -1.21918e-13 -1.01359e-13 8.52328e-14 -6.51643e-14 -9.37002e-15 -6.88658e-14 -1.90047e-14 -5.64571e-14 -1.32832e-13 -1.89478e-14 -1.49873e-13 1.42697e-14 2.00308e-13 -6.34697e-14 -8.93611e-14 6.03378e-14 -4.75816e-14 2.06219e-13 -8.35194e-14 -1.75212e-13 -5.87297e-14 -3.27224e-14 1.69672e-14 2.38551e-14 -2.44287e-13 -3.45299e-14 1.58324e-13 6.97883e-14 -9.38172e-14 -2.7026e-13 -3.17854e-14 1.47172e-13 3.34265e-14 -4.58965e-14 -1.81298e-13 3.68026e-14 9.81708e-14 -1.25324e-13 -2.96586e-13 1.70411e-13 1.44873e-13 2.28344e-13 -2.85898e-13 -2.33939e-13 -2.69486e-13 -1.10335e-13 4.67028e-13 2.15941e-13 -2.60543e-13 -1.34081e-12 -3.63762e-13 8.8685e-13 1.00741e-13 -2.36708e-15 -5.39884e-13 4.53285e-13 5.79772e-13 -6.5233e-15 2.46941e-13 -1.84232e-13 1.52199e-13 1.11206e-13 -7.60197e-13 -2.93067e-13 -1.06705e-13 -9.44765e-14 -1.67864e-13 -7.83052e-13 9.88739e-13 6.18543e-13 -2.23773e-13 -4.07562e-13 -3.19778e-13 7.58523e-13 -4.02665e-13 -6.95697e-13 4.17469e-13 -2.35916e-13 1.09354e-13 -9.58485e-13 1.07768e-12 6.25011e-13 -4.3402e-13 3.19801e-13 3.15009e-13 2.10113e-12 8.95874e-11 5.37269e-09 2.51121e-07 8.82293e-06 0.000221834 0.00370522 0.0366181 0.185999 0.481378 0.613546 0.974125 0.962368 0.745595 0.506344 0.284551 0.116737 0.0317744 0.00623716 0.00101577 0.000147532 1.94936e-05 2.35774e-06 2.61985e-07 2.68291e-08 2.53897e-09 2.21932e-10 1.90512e-11 1.6885e-12 -2.23232e-14 3.87076e-13 -8.32038e-13 1.37391e-12 2.15947e-14 -6.23588e-13 2.148e-14 -1.02617e-12 1.37337e-12 -8.96877e-14 -3.9877e-13 1.63467e-13 -9.56315e-13 1.31734e-12 6.81579e-14 -3.36328e-13 1.3569e-13 -1.02317e-12 7.44459e-13 -4.96725e-13 -1.47081e-12 6.09532e-13 5.38929e-14 1.65168e-13 3.44604e-13 6.24106e-13 -7.83031e-13 3.85597e-13 7.52203e-13 -3.79698e-13 6.98225e-13 -1.37564e-12 4.33208e-13 9.93623e-13 -6.69647e-13 -2.79413e-13 4.37623e-13 -9.36188e-13 1.33446e-12 -1.49315e-14 6.32435e-13 -6.29909e-13 -1.90586e-12 7.73042e-13 4.03627e-13 1.42995e-13 -6.1578e-13 -1.1449e-12 5.5317e-13 2.19962e-13 1.12305e-13 6.73016e-13 2.2426e-13 7.98186e-14 -6.63488e-13 -2.47593e-13 1.09542e-12 -1.27344e-13 2.64284e-13 -1.06588e-12 -2.26064e-13 8.23901e-13 1.52798e-13 -5.9753e-14 -7.5924e-13 -7.05059e-14 8.55656e-13 -1.69613e-13 -3.34673e-13 -1.86352e-12 -9.45747e-13 1.05681e-12 3.5614e-13 -1.28956e-12 -8.8674e-13 1.8705e-12 5.97972e-13 3.63537e-14 -1.34419e-13 -8.54927e-14 8.03316e-13 0 0 -1.86781e-14 4.17662e-14 -9.08398e-14 -1.40041e-14 -6.16877e-14 -4.15836e-14 2.63238e-14 -1.50622e-13 -1.04901e-13 -1.72219e-13 1.71484e-13 -2.2256e-13 1.87239e-13 -3.50251e-13 -7.32288e-14 3.14007e-13 -2.39727e-13 1.54065e-13 -1.23955e-13 8.38072e-14 -1.55805e-13 6.2785e-14 2.95858e-14 -1.63331e-13 -1.65008e-13 9.84813e-16 -9.82964e-14 1.35024e-13 -1.76935e-13 1.05304e-13 -7.1901e-14 1.61095e-13 -8.92355e-14 -3.21872e-13 2.11226e-15 -3.59181e-13 6.31849e-13 -6.75621e-13 2.95234e-13 6.3429e-15 3.36681e-13 -1.56514e-13 -2.93945e-13 -2.57609e-13 2.56365e-13 -7.91301e-13 8.17775e-13 -5.25044e-13 -4.97499e-14 -2.92617e-13 -2.68121e-13 1.17326e-12 -9.05746e-13 -8.22792e-13 -3.86918e-13 6.58289e-13 7.31689e-13 -6.60582e-13 -3.18951e-13 3.82621e-13 6.58264e-13 3.90081e-13 6.24752e-13 -4.31027e-13 -2.66653e-13 -1.66477e-13 -3.12042e-13 -4.70877e-13 -9.06499e-13 7.93699e-13 -8.02368e-13 -1.92146e-13 3.89537e-13 9.1542e-13 -1.1482e-12 5.59873e-13 -4.41293e-14 2.38782e-13 4.43199e-13 -2.61641e-12 -2.6077e-13 1.60419e-12 -7.0388e-13 -2.6353e-13 1.51955e-12 -5.71445e-13 3.96931e-16 1.1037e-12 -8.78315e-13 3.46449e-12 8.80593e-11 5.37392e-09 2.5112e-07 8.82293e-06 0.000221834 0.00370522 0.0366181 0.185999 0.481378 0.613546 0.974125 0.962368 0.745595 0.506344 0.284551 0.116737 0.0317744 0.00623716 0.00101577 0.000147532 1.94936e-05 2.35774e-06 2.61985e-07 2.68296e-08 2.53884e-09 2.21917e-10 1.87389e-11 1.89366e-12 -1.24527e-12 1.82954e-12 -1.63722e-12 1.19167e-12 3.2329e-13 -1.44083e-12 1.7725e-12 -1.84993e-12 1.01198e-12 3.42516e-13 -1.36666e-12 1.73864e-12 -1.62161e-12 1.43816e-12 3.22048e-13 -1.85685e-12 1.89335e-12 -2.20683e-12 9.64816e-13 -1.13864e-13 -1.69272e-12 -4.35756e-15 4.76046e-13 -9.10509e-14 1.5011e-13 1.12299e-13 -1.28141e-12 2.30001e-12 -2.20727e-13 -3.94584e-13 -6.93495e-13 -1.13832e-12 2.62735e-12 -1.05843e-13 2.67379e-13 -1.72466e-12 2.42079e-12 -1.84865e-12 1.23612e-12 -8.18868e-13 -7.20426e-13 1.57735e-12 -1.02059e-12 7.90279e-13 -1.69016e-12 -4.93762e-13 7.28879e-13 -1.34698e-12 1.329e-12 8.00181e-13 -5.71478e-13 7.17593e-13 -1.13769e-12 -6.98492e-13 2.34927e-12 -1.34525e-12 9.4936e-13 -1.40219e-12 -1.75849e-13 1.82799e-12 -1.02768e-12 2.59681e-13 -1.19792e-12 -6.09896e-13 2.4116e-12 -1.36263e-12 5.32723e-13 -1.07691e-12 -7.11355e-13 6.5476e-13 -2.77888e-12 -7.88842e-13 2.20917e-12 -9.70215e-13 3.28576e-13 -9.84179e-13 -2.12496e-13 2.2927e-12 4.94532e-13 -2.35931e-13 -2.42828e-12 0 0 -1.96286e-14 -2.63109e-15 2.32261e-14 -1.62697e-13 -3.37198e-14 1.09314e-14 -7.60729e-14 -1.57714e-13 -1.83711e-13 5.52948e-14 -2.37057e-13 1.99392e-13 -2.91631e-13 1.05535e-13 -9.37038e-14 5.37031e-14 3.5525e-13 -2.73891e-13 5.60067e-14 -1.13962e-14 -2.54749e-13 -4.22693e-13 1.39133e-13 1.36467e-13 -1.76094e-13 -4.71136e-13 9.51151e-14 1.64363e-13 2.13829e-13 -2.34815e-13 2.59477e-13 -2.9069e-13 -1.24508e-13 2.63018e-13 -4.15316e-14 2.85293e-13 -2.27033e-13 2.64419e-13 -4.77728e-13 1.14693e-13 -8.77277e-14 -3.6672e-13 8.26717e-14 -7.41014e-14 -4.41615e-13 1.37871e-13 -2.83028e-13 1.66924e-13 1.95368e-14 1.71749e-14 1.24751e-13 -2.12505e-13 4.35811e-13 -1.17853e-12 -5.39677e-13 6.83166e-13 -8.66589e-14 3.67252e-13 -4.59795e-13 5.56137e-13 5.12999e-13 4.01886e-13 4.40772e-13 -5.92731e-13 -3.01241e-13 -8.71576e-14 -4.68612e-13 -1.62613e-13 -9.24169e-13 1.25939e-13 4.56064e-13 -2.52632e-13 1.92199e-12 -5.91448e-13 -6.53098e-15 -5.21748e-13 -9.66205e-13 1.2967e-13 -7.06927e-13 3.522e-14 -2.84766e-12 4.31495e-13 1.60907e-12 2.43941e-13 -1.82025e-12 2.4807e-13 1.36154e-12 -4.64985e-13 1.37132e-12 3.46959e-13 8.94666e-11 5.37578e-09 2.51119e-07 8.82293e-06 0.000221834 0.00370522 0.0366181 0.185999 0.481378 0.613546 0.974125 0.962368 0.745595 0.506344 0.284551 0.116737 0.0317744 0.00623716 0.00101577 0.000147532 1.94936e-05 2.35774e-06 2.61986e-07 2.68277e-08 2.53994e-09 2.23295e-10 1.79069e-11 9.52539e-13 1.66672e-12 -1.42958e-12 1.80207e-12 -9.55873e-13 -1.02297e-12 1.7706e-12 -1.40939e-12 1.46948e-12 -3.75636e-13 -1.25411e-12 1.50931e-12 -1.36579e-12 1.59666e-12 -4.59289e-13 -9.52497e-13 1.22783e-12 -1.33736e-12 9.16874e-13 -7.351e-13 -2.17323e-12 1.16215e-12 -1.24555e-12 -1.28799e-12 3.31901e-12 -1.68186e-12 -1.19083e-12 2.04215e-12 -1.21108e-12 3.71238e-12 -1.89317e-12 -8.05785e-13 1.72674e-12 -2.29619e-12 1.75087e-12 -2.47779e-12 1.47046e-12 -8.12437e-13 2.54763e-12 -4.88627e-13 -1.5425e-12 -1.35106e-12 7.87158e-13 3.49661e-12 -2.9153e-12 -2.94132e-12 -1.35206e-13 3.88273e-13 1.72915e-12 -3.31636e-12 3.06243e-13 4.35617e-12 -1.93937e-12 -1.54499e-12 1.21261e-12 7.78684e-13 3.13085e-12 -4.04613e-12 -5.75179e-13 1.0324e-12 1.82078e-13 3.25063e-12 -3.15047e-12 -2.19173e-12 1.36976e-12 7.92315e-13 3.11108e-12 -3.96059e-12 -7.23322e-13 9.08217e-13 -8.78827e-13 6.24236e-13 -6.29557e-12 1.43202e-12 6.45408e-12 -3.33728e-12 -1.84019e-12 5.8129e-13 1.77172e-12 6.34997e-12 -5.38563e-12 -2.58232e-12 0 0 6.55321e-15 2.26139e-14 -6.34396e-14 6.4979e-15 -1.63895e-13 -2.43975e-13 -1.65673e-13 1.71839e-13 2.88989e-14 -1.19702e-13 -2.53323e-13 -2.46556e-13 2.29809e-13 -1.52139e-13 -1.01551e-13 4.17984e-13 3.84962e-13 1.09468e-13 -6.52441e-13 -2.5272e-13 -2.27413e-14 -8.8667e-14 -8.82163e-14 -5.90515e-13 -1.62153e-13 4.33139e-13 1.87059e-13 -3.03706e-13 -1.65404e-13 2.94129e-13 -2.59742e-13 3.94268e-13 1.73794e-14 -7.52682e-13 5.63182e-13 9.07859e-13 8.17758e-13 -6.91291e-13 -5.79284e-13 -8.18125e-13 -6.82112e-14 1.26573e-13 -8.95237e-13 2.38289e-13 9.63549e-13 -1.04517e-14 -2.53672e-13 -1.04405e-12 -3.08502e-13 1.70091e-13 1.49774e-12 9.65914e-13 -2.03716e-12 -3.01791e-13 -3.09131e-13 -1.00279e-12 1.42113e-12 -1.10286e-12 1.08117e-12 1.16336e-12 2.13916e-13 -3.70563e-13 -1.30924e-12 1.11539e-12 2.73199e-13 5.67261e-14 -8.14014e-13 -1.7619e-12 1.72315e-12 -3.2795e-14 -1.48504e-12 1.20024e-12 1.62644e-12 2.12012e-12 -7.89918e-13 -3.71297e-12 -3.11821e-13 -1.31458e-12 1.51476e-12 -6.68181e-13 -1.90599e-12 1.88431e-13 -3.54228e-13 -2.35052e-13 -4.7082e-14 -5.1915e-14 1.23966e-13 -9.73583e-13 2.24354e-12 1.8229e-12 8.90292e-11 5.37467e-09 2.51118e-07 8.82294e-06 0.000221834 0.00370522 0.0366181 0.185999 0.481378 0.613546 0.974125 0.962368 0.745595 0.506344 0.284551 0.116737 0.0317744 0.00623716 0.00101577 0.000147532 1.94936e-05 2.35774e-06 2.61986e-07 2.68295e-08 2.53965e-09 2.22091e-10 1.64816e-11 4.47634e-12 5.64348e-13 -2.10124e-13 2.90198e-13 -2.4287e-12 2.52164e-12 1.09248e-13 -8.19938e-13 2.37244e-13 -1.87803e-12 2.45902e-12 -1.19408e-13 -8.05725e-13 3.19934e-13 -2.2817e-12 2.52086e-12 6.42972e-13 -1.00108e-12 1.37244e-13 -2.29982e-12 2.24929e-13 -3.68435e-13 5.22322e-13 -1.47395e-12 -9.74544e-13 2.52363e-12 2.52741e-13 1.05346e-13 -1.00107e-12 4.41476e-13 2.80179e-12 2.56253e-12 -1.59241e-12 -4.19841e-12 -2.57358e-12 1.41e-12 1.16557e-12 -4.24782e-13 2.16813e-12 -1.09184e-12 2.1257e-12 -7.22759e-13 -1.80237e-12 -5.33662e-13 -4.28933e-12 2.79869e-12 1.55989e-12 -2.28784e-12 -4.64119e-13 -7.28903e-12 3.53856e-12 3.5093e-12 1.31367e-12 6.34144e-13 -2.02054e-12 1.4882e-12 1.94625e-12 -1.84374e-12 9.51934e-13 -1.64295e-12 -4.54971e-13 2.78171e-12 -7.81219e-13 -2.67365e-14 -2.2635e-12 1.39628e-12 2.15126e-12 -1.51562e-12 1.05183e-12 -2.53169e-12 -3.04945e-13 -1.09879e-12 -2.67489e-12 1.95226e-12 -1.84752e-12 2.23413e-12 1.81099e-12 2.1145e-12 1.67193e-13 -1.60808e-12 1.21512e-12 7.12457e-13 0
				</DataArray>
				<DataArray Name="VitesseY" type="Float32" format="ascii">