<?xml version="1.0"?>
<VTKFile type="PolyData">
	<PolyData>
		<Piece NumberOfPoints="1206" NumberOfPolys="1000">
			<Points>
				<DataArray type="Float32" NumberOfComponents="3" format="ascii">
 0 0 0 0.005 0 0 0.01 0 0 0.015 0 0 0.02 0 0 0.025 0 0 0.03 0 0 0.035 0 0 0.04 0 0 0.045 0 0 0.05 0 0 0.055 0 0 0.06 0 0 0.065 0 0 0.07 0 0 0.075 0 0 0.08 0 0 0.085 0 0 0.09 0 0 0.095 0 0 0.1 0 0 0.105 0 0 0.11 0 0 0.115 0 0 0.12 0 0 0.125 0 0 0.13 0 0 0.135 0 0 0.14 0 0 0.145 0 0 0.15 0 0 0.155 0 0 0.16 0 0 0.165 0 0 0.17 0 0 0.175 0 0 0.18 0 0 0.185 0 0 0.19 0 0 0.195 0 0 0.2 0 0 0.205 0 0 0.21 0 0 0.215 0 0 0.22 0 0 0.225 0 0 0.23 0 0 0.235 0 0 0.24 0 0 0.245 0 0 0.25 0 0 0.255 0 0 0.26 0 0 0.265 0 0 0.27 0 0 0.275 0 0 0.28 0 0 0.285 0 0 0.29 0 0 0.295 0 0 0.3 0 0 0.305 0 0 0.31 0 0 0.315 0 0 0.32 0 0 0.325 0 0 0.33 0 0 0.335 0 0 0.34 0 0 0.345 0 0 0.35 0 0 0.355 0 0 0.36 0 0 0.365 0 0 0.37 0 0 0.375 0 0 0.38 0 0 0.385 0 0 0.39 0 0 0.395 0 0 0.4 0 0 0.405 0 0 0.41 0 0 0.415 0 0 0.42 0 0 0.425 0 0 0.43 0 0 0.435 0 0 0.44 0 0 0.445 0 0 0.45 0 0 0.455 0 0 0.46 0 0 0.465 0 0 0.47 0 0 0.475 0 0 0.48 0 0 0.485 0 0 0.49 0 0 0.495 0 0 0.5 0 0 0.505 0 0 0.51 0 0 0.515 0 0 0.52 0 0 0.525 0 0 0.53 0 0 0.535 0 0 0.54 0 0 0.545 0 0 0.55 0 0 0.555 0 0 0.56 0 0 0.565 0 0 0.57 0 0 0.575 0 0 0.58 0 0 0.585 0 0 0.59 0 0 0.595 0 0 0.6 0 0 0.605 0 0 0.61 0 0 0.615 0 0 0.62 0 0 0.625 0 0 0.63 0 0 0.635 0 0 0.64 0 0 0.645 0 0 0.65 0 0 0.655 0 0 0.66 0 0 0.665 0 0 0.67 0 0 0.675 0 0 0.68 0 0 0.685 0 0 0.69 0 0 0.695 0 0 0.7 0 0 0.705 0 0 0.71 0 0 0.715 0 0 0.72 0 0 0.725 0 0 0.73 0 0 0.735 0 0 0.74 0 0 0.745 0 0 0.75 0 0 0.755 0 0 0.76 0 0 0.765 0 0 0.77 0 0 0.775 0 0 0.78 0 0 0.785 0 0 0.79 0 0 0.795 0 0 0.8 0 0 0.805 0 0 0.81 0 0 0.815 0 0 0.82 0 0 0.825 0 0 0.83 0 0 0.835 0 0 0.84 0 0 0.845 0 0 0.85 0 0 0.855 0 0 0.86 0 0 0.865 0 0 0.87 0 0 0.875 0 0 0.88 0 0 0.885 0 0 0.89 0 0 0.895 0 0 0.9 0 0 0.905 0 0 0.91 0 0 0.915 0 0 0.92 0 0 0.925 0 0 0.93 0 0 0.935 0 0 0.94 0 0 0.945 0 0 0.95 0 0 0.955 0 0 0.96 0 0 0.965 0 0 0.97 0 0 0.975 0 0 0.98 0 0 0.985 0 0 0.99 0 0 0.995 0 0 1 0 0 0 0.02 0 0.005 0.02 0 0.01 0.02 0 0.015 0.02 0 0.02 0.02 0 0.025 0.02 0 0.03 0.02 0 0.035 0.02 0 0.04 0.02 0 0.045 0.02 0 0.05 0.02 0 0.055 0.02 0 0.06 0.02 0 0.065 0.02 0 0.07 0.02 0 0.075 0.02 0 0.08 0.02 0 0.085 0.02 0 0.09 0.02 0 0.095 0.02 0 0.1 0.02 0 0.105 0.02 0 0.11 0.02 0 0.115 0.02 0 0.12 0.02 0 0.125 0.02 0 0.13 0.02 0 0.135 0.02 0 0.14 0.02 0 0.145 0.02 0 0.15 0.02 0 0.155 0.02 0 0.16 0.02 0 0.165 0.02 0 0.17 0.02 0 0.175 0.02 0 0.18 0.02 0 0.185 0.02 0 0.19 0.02 0 0.195 0.02 0 0.2 0.02 0 0.205 0.02 0 0.21 0.02 0 0.215 0.02 0 0.22 0.02 0 0.225 0.02 0 0.23 0.02 0 0.235 0.02 0 0.24 0.02 0 0.245 0.02 0 0.25 0.02 0 0.255 0.02 0 0.26 0.02 0 0.265 0.02 0 0.27 0.02 0 0.275 0.02 0 0.28 0.02 0 0.285 0.02 0 0.29 0.02 0 0.295 0.02 0 0.3 0.02 0 0.305 0.02 0 0.31 0.02 0 0.315 0.02 0 0.32 0.02 0 0.325 0.02 0 0.33 0.02 0 0.335 0.02 0 0.34 0.02 0 0.345 0.02 0 0.35 0.02 0 0.355 0.02 0 0.36 0.02 0 0.365 0.02 0 0.37 0.02 0 0.375 0.02 0 0.38 0.02 0 0.385 0.02 0 0.39 0.02 0 0.395 0.02 0 0.4 0.02 0 0.405 0.02 0 0.41 0.02 0 0.415 0.02 0 0.42 0.02 0 0.425 0.02 0 0.43 0.02 0 0.435 0.02 0 0.44 0.02 0 0.445 0.02 0 0.45 0.02 0 0.455 0.02 0 0.46 0.02 0 0.465 0.02 0 0.47 0.02 0 0.475 0.02 0 0.48 0.02 0 0.485 0.02 0 0.49 0.02 0 0.495 0.02 0 0.5 0.02 0 0.505 0.02 0 0.51 0.02 0 0.515 0.02 0 0.52 0.02 0 0.525 0.02 0 0.53 0.02 0 0.535 0.02 0 0.54 0.02 0 0.545 0.02 0 0.55 0.02 0 0.555 0.02 0 0.56 0.02 0 0.565 0.02 0 0.57 0.02 0 0.575 0.02 0 0.58 0.02 0 0.585 0.02 0 0.59 0.02 0 0.595 0.02 0 0.6 0.02 0 0.605 0.02 0 0.61 0.02 0 0.615 0.02 0 0.62 0.02 0 0.625 0.02 0 0.63 0.02 0 0.635 0.02 0 0.64 0.02 0 0.645 0.02 0 0.65 0.02 0 0.655 0.02 0 0.66 0.02 0 0.665 0.02 0 0.67 0.02 0 0.675 0.02 0 0.68 0.02 0 0.685 0.02 0 0.69 0.02 0 0.695 0.02 0 0.7 0.02 0 0.705 0.02 0 0.71 0.02 0 0.715 0.02 0 0.72 0.02 0 0.725 0.02 0 0.73 0.02 0 0.735 0.02 0 0.74 0.02 0 0.745 0.02 0 0.75 0.02 0 0.755 0.02 0 0.76 0.02 0 0.765 0.02 0 0.77 0.02 0 0.775 0.02 0 0.78 0.02 0 0.785 0.02 0 0.79 0.02 0 0.795 0.02 0 0.8 0.02 0 0.805 0.02 0 0.81 0.02 0 0.815 0.02 0 0.82 0.02 0 0.825 0.02 0 0.83 0.02 0 0.835 0.02 0 0.84 0.02 0 0.845 0.02 0 0.85 0.02 0 0.855 0.02 0 0.86 0.02 0 0.865 0.02 0 0.87 0.02 0 0.875 0.02 0 0.88 0.02 0 0.885 0.02 0 0.89 0.02 0 0.895 0.02 0 0.9 0.02 0 0.905 0.02 0 0.91 0.02 0 0.915 0.02 0 0.92 0.02 0 0.925 0.02 0 0.93 0.02 0 0.935 0.02 0 0.94 0.02 0 0.945 0.02 0 0.95 0.02 0 0.955 0.02 0 0.96 0.02 0 0.965 0.02 0 0.97 0.02 0 0.975 0.02 0 0.98 0.02 0 0.985 0.02 0 0.99 0.02 0 0.995 0.02 0 1 0.02 0 0 0.04 0 0.005 0.04 0 0.01 0.04 0 0.015 0.04 0 0.02 0.04 0 0.025 0.04 0 0.03 0.04 0 0.035 0.04 0 0.04 0.04 0 0.045 0.04 0 0.05 0.04 0 0.055 0.04 0 0.06 0.04 0 0.065 0.04 0 0.07 0.04 0 0.075 0.04 0 0.08 0.04 0 0.085 0.04 0 0.09 0.04 0 0.095 0.04 0 0.1 0.04 0 0.105 0.04 0 0.11 0.04 0 0.115 0.04 0 0.12 0.04 0 0.125 0.04 0 0.13 0.04 0 0.135 0.04 0 0.14 0.04 0 0.145 0.04 0 0.15 0.04 0 0.155 0.04 0 0.16 0.04 0 0.165 0.04 0 0.17 0.04 0 0.175 0.04 0 0.18 0.04 0 0.185 0.04 0 0.19 0.04 0 0.195 0.04 0 0.2 0.04 0 0.205 0.04 0 0.21 0.04 0 0.215 0.04 0 0.22 0.04 0 0.225 0.04 0 0.23 0.04 0 0.235 0.04 0 0.24 0.04 0 0.245 0.04 0 0.25 0.04 0 0.255 0.04 0 0.26 0.04 0 0.265 0.04 0 0.27 0.04 0 0.275 0.04 0 0.28 0.04 0 0.285 0.04 0 0.29 0.04 0 0.295 0.04 0 0.3 0.04 0 0.305 0.04 0 0.31 0.04 0 0.315 0.04 0 0.32 0.04 0 0.325 0.04 0 0.33 0.04 0 0.335 0.04 0 0.34 0.04 0 0.345 0.04 0 0.35 0.04 0 0.355 0.04 0 0.36 0.04 0 0.365 0.04 0 0.37 0.04 0 0.375 0.04 0 0.38 0.04 0 0.385 0.04 0 0.39 0.04 0 0.395 0.04 0 0.4 0.04 0 0.405 0.04 0 0.41 0.04 0 0.415 0.04 0 0.42 0.04 0 0.425 0.04 0 0.43 0.04 0 0.435 0.04 0 0.44 0.04 0 0.445 0.04 0 0.45 0.04 0 0.455 0.04 0 0.46 0.04 0 0.465 0.04 0 0.47 0.04 0 0.475 0.04 0 0.48 0.04 0 0.485 0.04 0 0.49 0.04 0 0.495 0.04 0 0.5 0.04 0 0.505 0.04 0 0.51 0.04 0 0.515 0.04 0 0.52 0.04 0 0.525 0.04 0 0.53 0.04 0 0.535 0.04 0 0.54 0.04 0 0.545 0.04 0 0.55 0.04 0 0.555 0.04 0 0.56 0.04 0 0.565 0.04 0 0.57 0.04 0 0.575 0.04 0 0.58 0.04 0 0.585 0.04 0 0.59 0.04 0 0.595 0.04 0 0.6 0.04 0 0.605 0.04 0 0.61 0.04 0 0.615 0.04 0 0.62 0.04 0 0.625 0.04 0 0.63 0.04 0 0.635 0.04 0 0.64 0.04 0 0.645 0.04 0 0.65 0.04 0 0.655 0.04 0 0.66 0.04 0 0.665 0.04 0 0.67 0.04 0 0.675 0.04 0 0.68 0.04 0 0.685 0.04 0 0.69 0.04 0 0.695 0.04 0 0.7 0.04 0 0.705 0.04 0 0.71 0.04 0 0.715 0.04 0 0.72 0.04 0 0.725 0.04 0 0.73 0.04 0 0.735 0.04 0 0.74 0.04 0 0.745 0.04 0 0.75 0.04 0 0.755 0.04 0 0.76 0.04 0 0.765 0.04 0 0.77 0.04 0 0.775 0.04 0 0.78 0.04 0 0.785 0.04 0 0.79 0.04 0 0.795 0.04 0 0.8 0.04 0 0.805 0.04 0 0.81 0.04 0 0.815 0.04 0 0.82 0.04 0 0.825 0.04 0 0.83 0.04 0 0.835 0.04 0 0.84 0.04 0 0.845 0.04 0 0.85 0.04 0 0.855 0.04 0 0.86 0.04 0 0.865 0.04 0 0.87 0.04 0 0.875 0.04 0 0.88 0.04 0 0.885 0.04 0 0.89 0.04 0 0.895 0.04 0 0.9 0.04 0 0.905 0.04 0 0.91 0.04 0 0.915 0.04 0 0.92 0.04 0 0.925 0.04 0 0.93 0.04 0 0.935 0.04 0 0.94 0.04 0 0.945 0.04 0 0.95 0.04 0 0.955 0.04 0 0.96 0.04 0 0.965 0.04 0 0.97 0.04 0 0.975 0.04 0 0.98 0.04 0 0.985 0.04 0 0.99 0.04 0 0.995 0.04 0 1 0.04 0 0 0.06 0 0.005 0.06 0 0.01 0.06 0 0.015 0.06 0 0.02 0.06 0 0.025 0.06 0 0.03 0.06 0 0.035 0.06 0 0.04 0.06 0 0.045 0.06 0 0.05 0.06 0 0.055 0.06 0 0.06 0.06 0 0.065 0.06 0 0.07 0.06 0 0.075 0.06 0 0.08 0.06 0 0.085 0.06 0 0.09 0.06 0 0.095 0.06 0 0.1 0.06 0 0.105 0.06 0 0.11 0.06 0 0.115 0.06 0 0.12 0.06 0 0.125 0.06 0 0.13 0.06 0 0.135 0.06 0 0.14 0.06 0 0.145 0.06 0 0.15 0.06 0 0.155 0.06 0 0.16 0.06 0 0.165 0.06 0 0.17 0.06 0 0.175 0.06 0 0.18 0.06 0 0.185 0.06 0 0.19 0.06 0 0.195 0.06 0 0.2 0.06 0 0.205 0.06 0 0.21 0.06 0 0.215 0.06 0 0.22 0.06 0 0.225 0.06 0 0.23 0.06 0 0.235 0.06 0 0.24 0.06 0 0.245 0.06 0 0.25 0.06 0 0.255 0.06 0 0.26 0.06 0 0.265 0.06 0 0.27 0.06 0 0.275 0.06 0 0.28 0.06 0 0.285 0.06 0 0.29 0.06 0 0.295 0.06 0 0.3 0.06 0 0.305 0.06 0 0.31 0.06 0 0.315 0.06 0 0.32 0.06 0 0.325 0.06 0 0.33 0.06 0 0.335 0.06 0 0.34 0.06 0 0.345 0.06 0 0.35 0.06 0 0.355 0.06 0 0.36 0.06 0 0.365 0.06 0 0.37 0.06 0 0.375 0.06 0 0.38 0.06 0 0.385 0.06 0 0.39 0.06 0 0.395 0.06 0 0.4 0.06 0 0.405 0.06 0 0.41 0.06 0 0.415 0.06 0 0.42 0.06 0 0.425 0.06 0 0.43 0.06 0 0.435 0.06 0 0.44 0.06 0 0.445 0.06 0 0.45 0.06 0 0.455 0.06 0 0.46 0.06 0 0.465 0.06 0 0.47 0.06 0 0.475 0.06 0 0.48 0.06 0 0.485 0.06 0 0.49 0.06 0 0.495 0.06 0 0.5 0.06 0 0.505 0.06 0 0.51 0.06 0 0.515 0.06 0 0.52 0.06 0 0.525 0.06 0 0.53 0.06 0 0.535 0.06 0 0.54 0.06 0 0.545 0.06 0 0.55 0.06 0 0.555 0.06 0 0.56 0.06 0 0.565 0.06 0 0.57 0.06 0 0.575 0.06 0 0.58 0.06 0 0.585 0.06 0 0.59 0.06 0 0.595 0.06 0 0.6 0.06 0 0.605 0.06 0 0.61 0.06 0 0.615 0.06 0 0.62 0.06 0 0.625 0.06 0 0.63 0.06 0 0.635 0.06 0 0.64 0.06 0 0.645 0.06 0 0.65 0.06 0 0.655 0.06 0 0.66 0.06 0 0.665 0.06 0 0.67 0.06 0 0.675 0.06 0 0.68 0.06 0 0.685 0.06 0 0.69 0.06 0 0.695 0.06 0 0.7 0.06 0 0.705 0.06 0 0.71 0.06 0 0.715 0.06 0 0.72 0.06 0 0.725 0.06 0 0.73 0.06 0 0.735 0.06 0 0.74 0.06 0 0.745 0.06 0 0.75 0.06 0 0.755 0.06 0 0.76 0.06 0 0.765 0.06 0 0.77 0.06 0 0.775 0.06 0 0.78 0.06 0 0.785 0.06 0 0.79 0.06 0 0.795 0.06 0 0.8 0.06 0 0.805 0.06 0 0.81 0.06 0 0.815 0.06 0 0.82 0.06 0 0.825 0.06 0 0.83 0.06 0 0.835 0.06 0 0.84 0.06 0 0.845 0.06 0 0.85 0.06 0 0.855 0.06 0 0.86 0.06 0 0.865 0.06 0 0.87 0.06 0 0.875 0.06 0 0.88 0.06 0 0.885 0.06 0 0.89 0.06 0 0.895 0.06 0 0.9 0.06 0 0.905 0.06 0 0.91 0.06 0 0.915 0.06 0 0.92 0.06 0 0.925 0.06 0 0.93 0.06 0 0.935 0.06 0 0.94 0.06 0 0.945 0.06 0 0.95 0.06 0 0.955 0.06 0 0.96 0.06 0 0.965 0.06 0 0.97 0.06 0 0.975 0.06 0 0.98 0.06 0 0.985 0.06 0 0.99 0.06 0 0.995 0.06 0 1 0.06 0 0 0.08 0 0.005 0.08 0 0.01 0.08 0 0.015 0.08 0 0.02 0.08 0 0.025 0.08 0 0.03 0.08 0 0.035 0.08 0 0.04 0.08 0 0.045 0.08 0 0.05 0.08 0 0.055 0.08 0 0.06 0.08 0 0.065 0.08 0 0.07 0.08 0 0.075 0.08 0 0.08 0.08 0 0.085 0.08 0 0.09 0.08 0 0.095 0.08 0 0.1 0.08 0 0.105 0.08 0 0.11 0.08 0 0.115 0.08 0 0.12 0.08 0 0.125 0.08 0 0.13 0.08 0 0.135 0.08 0 0.14 0.08 0 0.145 0.08 0 0.15 0.08 0 0.155 0.08 0 0.16 0.08 0 0.165 0.08 0
[...]
			<PointData Scalars="VitesseX">
				<DataArray Name="VitesseX" type="Float32" format="ascii">
 0 4.38869e-15 -1.41398e-14 -3.14286e-15 4.93746e-14 -5.01913e-14 -1.02337e-13 3.02774e-14 -2.04743e-15 6.06724e-14 -7.40921e-14 -4.51491e-14 -1.28022e-13 9.56962e-16 -1.08162e-13 -1.18425e-13 6.51382e-14 -4.27617e-14 -2.94851e-14 -1.19918e-13 -1.30652e-13 -3.89116e-14 2.57072e-14 -1.65528e-13 -1.9057e-13 -9.54037e-14 1.39388e-14 -9.31042e-14 -1.27659e-13 6.12633e-14 -1.24676e-13 2.26977e-14 5.80597e-14 -1.62427e-13 -3.93683e-14 -2.32331e-14 -4.98965e-14 -1.41953e-14 -1.06258e-13 -3.62441e-13 -9.1468e-14 -1.59564e-13 -1.36703e-13 -5.9285e-13 -8.29771e-14 1.36705e-13 1.29122e-13 -7.16605e-14 -1.74246e-13 -1.91764e-13 4.92474e-14 7.16044e-13 7.91495e-14 -7.26431e-13 -2.62337e-13 -2.38859e-13 -4.20938e-14 -9.34063e-14 3.21727e-14 -2.74033e-13 2.00771e-13 6.86467e-14 9.83995e-14 -9.88704e-14 1.16603e-14 1.03647e-14 -2.02882e-13 -5.57836e-13 -1.40487e-13 -5.95792e-14 -4.48535e-14 -3.89154e-13 6.6091e-13 6.4638e-12 7.47576e-11 8.38946e-10 8.57089e-09 7.90622e-08 6.53698e-07 4.80429e-06 3.10696e-05 0.00017461 0.000839448 0.00338558 0.0112084 0.0299664 0.064907 0.115856 0.176418 0.239634 0.302044 0.363357 0.423238 0.481567 0.538241 0.593161 0.646206 0.697161 0.745668 0.79117 0.832858 0.869674 0.900419 0.924082 0.940302 0.949772 0.949432 0.948083 0.945648 0.943309 0.939552 0.975678 0.976791 0.953852 0.937617 0.930928 0.925016 0.913134 0.88979 0.84829 0.782102 0.687242 0.565264 0.425809 0.286376 0.166478 0.0818235 0.0341966 0.0127236 0.00442266 0.00147825 0.000481245 0.000153262 4.77975e-05 1.45968e-05 4.36345e-06 1.27629e-06 3.6515e-07 1.02159e-07 2.79426e-08 7.47163e-09 1.95312e-09 4.9804e-10 1.25218e-10 3.08156e-11 6.74783e-12 2.00289e-12 -5.16612e-13 3.51485e-13 5.87301e-13 -1.58057e-12 6.76599e-13 -9.60643e-13 7.20711e-13 -2.17536e-13 4.80901e-13 -9.04111e-13 -2.8023e-14 6.98334e-13 2.60035e-13 -3.61421e-13 -1.50543e-12 5.77008e-13 1.15802e-12 -6.3911e-13 -5.04471e-13 -3.68834e-13 4.04553e-13 7.12698e-13 -1.04657e-12 5.38751e-13 5.87224e-13 -5.1402e-13 2.25597e-13 -7.28625e-13 2.50799e-13 -9.21259e-14 -4.04194e-13 -3.30777e-13 -1.00227e-12 6.67311e-13 6.9546e-13 -1.04565e-12 4.80909e-13 -3.13613e-13 1.10027e-12 -6.92656e-14 -1.19864e-12 -2.78062e-13 -1.05295e-12 1.22309e-12 -2.61571e-13 -2.12153e-12 -9.67397e-14 1.27335e-12 1.26708e-13 -8.20608e-13 -2.50124e-12 1.82705e-12 1.08032e-12 0 0 -1.53352e-14 1.40119e-15 -2.27594e-16 -4.92967e-14 2.00126e-14 5.43586e-14 -2.98869e-14 3.31531e-16 -7.12325e-14 1.49413e-14 -3.93642e-14 -1.80952e-14 -1.08688e-13 -8.80925e-14 -1.44571e-14 -1.40964e-13 -1.42535e-14 -8.27577e-14 1.7004e-14 -9.88166e-15 -1.30378e-13 -1.94545e-13 -2.07866e-14 5.74057e-14 -9.10008e-14 -2.35595e-13 -8.12538e-14 4.72662e-14 -1.07644e-13 6.09418e-14 -3.52446e-14 -1.50913e-13 -2.31972e-15 6.01906e-14 -4.73976e-14 -9.15153e-14 -2.14549e-13 -1.13759e-13 -1.52348e-14 -1.9978e-13 -2.54709e-13 -2.38544e-13 5.23313e-14 -9.17786e-14 -2.36668e-13 -7.20408e-14 6.09063e-14 1.7107e-13 3.0206e-13 1.24794e-13 -4.18554e-13 -2.17044e-13 1.44083e-13 -1.33003e-13 -2.93371e-13 -1.83713e-13 -1.0336e-13 -1.32485e-13 1.21706e-13 -2.32881e-13 1.1647e-13 8.69463e-14 -9.57727e-14 -1.08552e-13 -1.72102e-13 -2.568e-13 1.29628e-13 -1.61682e-13 -3.27221e-13 -2.87858e-13 4.55794e-13 8.44608e-13 6.18173e-12 7.46184e-11 8.38998e-10 8.57139e-09 7.90621e-08 6.53698e-07 4.80429e-06 3.10696e-05 0.00017461 0.000839448 0.00338558 0.0112084 0.0299664 0.064907 0.115856 0.176418 0.239634 0.302044 0.363357 0.423238 0.481567 0.538241 0.593161 0.646206 0.697161 0.745668 0.79117 0.832858 0.869674 0.900419 0.924082 0.940302 0.949772 0.949432 0.948083 0.945648 0.943309 0.939552 0.975678 0.976791 0.953852 0.937617 0.930928 0.925016 0.913134 0.88979 0.84829 0.782102 0.687242 0.565264 0.425809 0.286376 0.166478 0.0818235 0.0341966 0.0127236 0.00442266 0.00147825 0.000481245 0.000153262 4.77975e-05 1.45968e-05 4.36345e-06 1.27629e-06 3.6515e-07 1.02158e-07 2.79433e-08 7.47149e-09 1.95281e-09 4.9971e-10 1.24074e-10 3.00418e-11 7.65086e-12 1.3967e-12 1.00668e-12 -6.83768e-13 -6.70288e-13 7.07801e-13 -7.42399e-13 2.2014e-13 -7.59787e-13 3.45556e-13 -4.19232e-13 7.71227e-13 -2.15615e-13 -5.13924e-13 -4.17838e-13 -1.66313e-13 8.68205e-13 -5.20964e-13 -9.50605e-13 -1.38799e-13 1.72417e-13 3.62993e-13 -3.40715e-13 -2.80336e-13 9.31306e-13 -1.98475e-13 -2.37759e-13 7.34601e-13 -6.43329e-13 3.27581e-13 -9.08082e-13 -2.65373e-13 -3.83302e-14 -1.00287e-13 2.96582e-13 -6.51779e-13 -6.40033e-13 9.48152e-13 -1.87581e-13 5.01343e-13 -7.03362e-13 9.74449e-14 3.57113e-13 -1.40082e-13 4.74223e-13 -1.49362e-12 -6.21809e-13 1.15257e-12 -7.34019e-13 -7.96081e-13 -5.90471e-13 8.59384e-14 1.31977e-12 -1.58059e-12 -1.79053e-13 0 0 1.24708e-14 3.04374e-15 9.3022e-15 -6.15225e-15 2.60294e-14 1.9776e-14 2.03922e-14 -1.25512e-14 -7.54874e-15 -2.89839e-14 -1.68993e-14 -6.86763e-14 -4.40068e-14 -7.81745e-14 -9.14442e-14 -3.21624e-14 -1.7237e-13 7.06051e-14 -8.79086e-14 -1.08088e-13 -4.48134e-14 -2.68737e-14 -7.0628e-14 -1.36504e-13 -6.52119e-14 5.78918e-14 -6.22891e-14 -1.32265e-13 8.94992e-14 -7.7534e-14 -1.2584e-13 -9.29497e-15 5.62766e-15 -1.44254e-13 -1.27099e-13 -8.63454e-15 -5.00788e-14 -8.51712e-14 -3.53974e-13 -1.4457e-13 -8.00825e-14 -1.49885e-13 -2.31937e-14 9.25124e-15 6.14239e-14 -6.09585e-14 -4.22528e-15 -1.08179e-14 2.53082e-14 -1.95136e-13 1.34721e-13 2.12823e-14 -1.37339e-13 -1.87789e-13 -1.21951e-13 -1.01633e-13 -1.92786e-13 -3.79172e-14 -6.10017e-14 1.30179e-13 -6.66729e-14 -1.51332e-13 -1.20417e-13 -8.19142e-14 -1.33252e-13 -1.29925e-14 -2.14037e-13 -2.59225e-13 7.14646e-14 4.8479e-14 1.56808e-13 8.64553e-13 6.55605e-12 7.50797e-11 8.38959e-10 8.57082e-09 7.90621e-08 6.53699e-07 4.80429e-06 3.10696e-05 0.00017461 0.000839448 0.00338558 0.0112084 0.0299664 0.064907 0.115856 0.176418 0.239634 0.302044 0.363357 0.423238 0.481567 0.538241 0.593161 0.646206 0.697161 0.745668 0.79117 0.832858 0.869674 0.900419 0.924082 0.940302 0.949772 0.949432 0.948083 0.945648 0.943309 0.939552 0.975678 0.976791 0.953852 0.937617 0.930928 0.925016 0.913134 0.88979 0.84829 0.782102 0.687242 0.565264 0.425809 0.286376 0.166478 0.0818235 0.0341966 0.0127236 0.00442266 0.00147825 0.000481245 0.000153262 4.77975e-05 1.45968e-05 4.36345e-06 1.27629e-06 3.6515e-07 1.02158e-07 2.7943e-08 7.47158e-09 1.95318e-09 4.9876e-10 1.2482e-10 3.04361e-11 6.93178e-12 1.81821e-12 -1.30425e-13 2.99797e-13 1.16143e-13 -2.24555e-13 1.55333e-13 -8.00658e-13 -1.43857e-14 -6.51431e-13 2.5665e-13 -3.62816e-13 -1.55068e-13 -2.05582e-13 -4.12939e-13 -2.64447e-13 -4.94496e-13 -2.5057e-13 -2.44895e-13 1.68483e-13 -2.10088e-13 -2.4173e-13 -3.61275e-13 1.9141e-13 5.7223e-13 4.39954e-13 -1.86379e-13 4.58308e-14 -2.62691e-13 -3.23376e-13 1.3969e-13 -2.50446e-13 -5.27266e-13 -1.54706e-14 -1.77721e-13 2.74856e-13 -4.30948e-14 -1.35312e-13 8.22587e-13 -4.60862e-13 -1.29492e-13 -8.88586e-14 3.85139e-13 4.55694e-13 -8.6761e-13 -2.50679e-13 -2.11375e-13 -6.14637e-13 3.0674e-13 2.4006e-13 -5.98604e-13 -5.33416e-13 -6.32065e-13 9.98077e-13 5.41634e-13 0 0 9.08567e-15 3.79555e-14 4.95921e-14 7.80034e-14 7.65368e-15 -1.14082e-14 3.55937e-14 -1.65937e-14 -1.12718e-14 -7.3701e-14 -6.3318e-14 -4.26915e-14 -2.76648e-14 -6.55226e-14 -9.10724e-14 -2.17637e-14 -3.24982e-14 -9.51522e-14 -1.20572e-13 -1.01526e-13 -6.0886e-14 -1.76043e-14 -1.45348e-13 -2.70633e-14 -3.34131e-14 -3.61436e-14 7.49438e-14 -1.65914e-13 -5.70532e-14 -6.19158e-14 -1.76088e-14 -8.42527e-14 -1.04924e-13 -1.26409e-13 -1.61293e-13 -4.71897e-14 -6.9343e-14 -5.92928e-14 -4.61631e-14 -7.90322e-14 -1.07585e-13 -9.02201e-14 -3.43947e-13 3.78032e-14 -9.60492e-14 8.95222e-14 1.70112e-14 -1.23962e-13 -2.9842e-13 2.50603e-14 3.39295e-13 -9.54343e-14 -3.83645e-13 -2.73833e-13 -1.70912e-13 -9.75499e-14 -1.21496e-13 1.69626e-13 -2.68442e-14 2.6486e-14 1.53238e-14 1.37794e-13 1.2429e-13 -1.16278e-13 -2.12879e-13 -1.13173e-13 -4.79607e-13 -5.76075e-14 -9.97872e-14 1.02057e-13 -9.74296e-14 7.52388e-13 6.87626e-12 7.51846e-11 8.39023e-10 8.57111e-09 7.90621e-08 6.53698e-07 4.80429e-06 3.10696e-05 0.00017461 0.000839448 0.00338558 0.0112084 0.0299664 0.064907 0.115856 0.176418 0.239634 0.302044 0.363357 0.423238 0.481567 0.538241 0.593161 0.646206 0.697161 0.745668 0.79117 0.832858 0.869674 0.900419 0.924082 0.940302 0.949772 0.949432 0.948083 0.945648 0.943309 0.939552 0.975678 0.976791 0.953852 0.937617 0.930928 0.925016 0.913134 0.88979 0.84829 0.782102 0.687242 0.565264 0.425809 0.286376 0.166478 0.0818235 0.0341966 0.0127236 0.00442266 0.00147825 0.000481245 0.000153262 4.77975e-05 1.45968e-05 4.36345e-06 1.27629e-06 3.6515e-07 1.02158e-07 2.79432e-08 7.47165e-09 1.95294e-09 4.98725e-10 1.24941e-10 3.04948e-11 7.11399e-12 1.57322e-12 -1.06438e-13 2.36323e-13 4.89311e-13 -3.75344e-13 -2.87322e-13 -8.16741e-13 -3.85903e-14 -1.46659e-13 -5.9433e-14 -7.20361e-13 -4.14549e-13 2.28128e-13 7.92462e-14 -4.72591e-13 -1.06171e-12 -2.56872e-13 4.8575e-13 -3.48541e-13 -9.1339e-14 -3.8556e-13 8.12084e-13 1.79126e-13 -9.72767e-13 2.35853e-13 -9.03e-14 -4.41621e-13 -3.00397e-13 7.23738e-14 5.95167e-13 -1.03805e-13 -3.62807e-14 -6.38961e-13 -7.1711e-13 2.99266e-14 7.29471e-13 -7.72195e-14 1.32675e-13 -6.25972e-14 5.66018e-13 -2.03478e-13 3.12485e-13 -6.93026e-13 -2.15665e-13 2.18163e-13 -6.12033e-13 -6.12039e-13 1.3346e-14 4.93034e-13 1.91688e-13 -1.28827e-12 -9.21414e-13 8.93396e-13 1.0031e-12 0 0 1.60586e-14 6.27958e-14 5.54403e-14 2.17642e-14 3.07057e-14 6.31239e-14 -1.93176e-14 6.20335e-15 -9.02556e-14 -3.92455e-14 -7.13971e-14 1.94876e-14 -7.80368e-14 -9.02598e-14 -1.76213e-14 -1.24373e-13 7.32705e-14 -1.78402e-13 3.92128e-15 -2.4159e-14 -1.11445e-13 -2.10409e-13 -2.58077e-14 1.39751e-13 2.21189e-14 -1.84717e-13 -4.72736e-15 2.66772e-14 -2.77491e-13 -7.12392e-14 -6.87956e-14 -1.64713e-13 -6.12047e-14 6.98242e-14 -7.03028e-14 -2.85166e-13 -1.26894e-13 -1.20447e-13 1.99406e-13 -1.8221e-13 -1.40218e-13 -1.20488e-13 -6.10138e-14 -6.11545e-14 -2.56261e-13 5.97089e-14 8.99283e-14 1.61688e-13 9.46445e-14 1.23407e-13 -5.49044e-13 -3.04102e-13 8.37991e-14 -1.60343e-13 -3.41533e-13 -3.57341e-13 -1.66688e-13 -9.82315e-14 3.00814e-13 -1.80735e-13 1.05328e-13 2.48372e-13 1.59547e-13 -1.16431e-13 -3.09106e-13 -2.53402e-13 -4.73211e-14 -2.20734e-13 -3.82201e-13 -4.77014e-14 6.82264e-13 9.30153e-13 6.46583e-12 7.51241e-11 8.39025e-10 8.57164e-09 7.90622e-08 6.53698e-07 4.80429e-06 3.10696e-05 0.00017461 0.000839448 0.00338558 0.0112084 0.0299664 0.064907 0.115856 0.176418 0.239634 0.302044 0.363357 0.423238 0.481567 0.538241 0.593161 0.646206 0.697161 0.745668 0.79117 0.832858 0.869674 0.900419 0.924082 0.940302 0.949772 0.949432 0.948083 0.945648 0.943309 0.939552 0.975678 0.976791 0.953852 0.937617 0.930928 0.925016 0.913134 0.88979 0.84829 0.782102 0.687242 0.565264 0.425809 0.286376 0.166478 0.0818235 0.0341966 0.0127236 0.00442266 0.00147825 0.000481245 0.000153262 4.77975e-05 1.45968e-05 4.36345e-06 1.2763e-06 3.6515e-07 1.02158e-07 2.79434e-08 7.47177e-09 1.95266e-09 4.99913e-10 1.2394e-10 3.03532e-11 7.58787e-12 1.10984e-12 8.15807e-13 -4.93794e-13 -8.13267e-13 8.39428e-13 -1.00491e-12 2.47675e-13 -7.38593e-13 2.24247e-13 -7.16844e-13 3.21644e-13 -3.5953e-13 -5.40831e-13 -1.82773e-13 2.25133e-13 5.71184e-13 -8.93985e-13 -7.41341e-13 -7.07242e-14 7.44417e-14 8.17985e-13 2.87484e-13 -4.90046e-13 -3.04674e-14 -3.65126e-13 -4.17207e-13 2.04522e-13 -7.02656e-13 3.19866e-13 -7.51611e-13 -4.63401e-13 2.61449e-13 -5.97833e-13 -6.59753e-14 -8.75181e-13 -9.75206e-14 1.21224e-12 -2.4769e-13 7.61489e-13 -4.31269e-13 -1.60005e-13 3.89833e-13 -5.44706e-13 5.30882e-13 -9.20356e-13 -6.46285e-13 1.14555e-12 -7.39326e-13 -1.01479e-12 -3.62641e-14 -2.0627e-13 1.78108e-12 -1.52567e-12 -2.82497e-13 0 0 7.39465e-14 3.8826e-14 2.76131e-14 2.31851e-14 7.94634e-15 -2.2438e-14 2.10128e-14 1.77812e-14 3.00724e-14 -9.30314e-14 -1.63775e-14 -1.04826e-13 2.95752e-14 -1.37801e-13 -1.25497e-13 7.75241e-14 -1.47457e-13 1.10741e-13 -8.07575e-14 -1.7233e-13 3.11009e-14 -2.4559e-14 -2.6131e-14 -2.44762e-13 6.7238e-14 3.03765e-13 -2.14517e-13 -1.01539e-13 1.46747e-14 -4.20274e-13 -2.60866e-13 1.80374e-13 -5.90925e-14 -5.57912e-14 -6.5617e-16 -3.60088e-13 1.99643e-13 -1.71389e-13 -5.4878e-13 -1.87405e-13 1.24424e-13 -1.99211e-14 -1.78033e-13 -7.88329e-14 4.12466e-13 9.16596e-14 -5.60895e-14 3.32775e-14 4.08627e-14 -3.93919e-13 4.59156e-14 1.38467e-13 -3.54388e-13 -1.4493e-13 -2.37261e-13 -3.97517e-13 -3.62641e-13 -3.14406e-13 1.58666e-14 5.12452e-13 -1.17631e-13 -1.57e-13 -7.76442e-14 6.4629e-14 -1.04389e-13 4.27647e-15 -3.80595e-13 -6.61827e-13 1.72964e-13 3.28304e-13 5.72263e-13 1.05633e-12 6.39159e-12 7.55591e-11 8.38872e-10 8.57081e-09 7.90624e-08 6.53699e-07 4.80429e-06 3.10696e-05 0.00017461 0.000839448 0.00338558 0.0112084 0.0299664 0.064907 0.115856 0.176418 0.239634 0.302044 0.363357 0.423238 0.481567 0.538241 0.593161 0.646206 0.697161 0.745668 0.79117 0.832858 0.869674 0.900419 0.924082 0.940302 0.949772 0.949432 0.948083 0.945648 0.943309 0.939552 0.975678 0.976791 0.953852 0.937617 0.930928 0.925016 0.913134 0.88979 0.84829 0.782102 0.687242 0.565264 0.425809 0.286376 0.166478 0.0818235 0.0341966 0.0127236 0.00442266 0.00147825 0.000481245 0.000153262 4.77975e-05 1.45968e-05 4.36345e-06 1.27629e-06 3.6515e-07 1.02159e-07 2.79425e-08 7.47205e-09 1.95327e-09 4.98515e-10 1.24708e-10 3.1321e-11 6.25742e-12 1.91918e-12 -9.46322e-13 8.58381e-13 -4.44994e-13 -1.01574e-12 1.03688e-12 -8.73406e-13 8.11508e-13 -1.4697e-12 5.17845e-13 -1.08819e-12 2.03108e-13 -2.229e-13 -2.54206e-13 8.37758e-13 -9.65038e-13 -1.5643e-13 1.15258e-13 5.31088e-13 -9.37921e-13 8.28809e-13 -6.85766e-13 3.17847e-13 1.19881e-13 6.13652e-13 3.61684e-14 -5.99274e-13 1.82355e-13 -1.53556e-12 -3.47215e-13 -7.81465e-13 -7.86606e-13 -7.88873e-14 -6.48603e-13 7.10365e-13 2.35353e-13 -6.33661e-13 1.74051e-12 -5.89852e-13 2.53437e-13 -3.54926e-13 -9.87891e-13 1.21013e-12 -2.24353e-12 1.43193e-12 4.9079e-13 -2.14077e-12 4.79432e-13 3.29979e-13 -3.45463e-13 1.04691e-13 -9.9993e-13 2.14625e-12 -4.9503e-14 0
				</DataArray>
				<DataArray Name="VitesseY" type="Float32" format="ascii">