<?xml version="1.0"?>
<VTKFile type="PolyData">
	<PolyData>
		<Piece NumberOfPoints="1206" NumberOfPolys="1000">
			<Points>
				<DataArray type="Float32" NumberOfComponents="3" format="ascii">
 0 0 0 0.005 0 0 0.01 0 0 0.015 0 0 0.02 0 0 0.025 0 0 0.03 0 0 0.035 0 0 0.04 0 0 0.045 0 0 0.05 0 0 0.055 0 0 0.06 0 0 0.065 0 0 0.07 0 0 0.075 0 0 0.08 0 0 0.085 0 0 0.09 0 0 0.095 0 0 0.1 0 0 0.105 0 0 0.11 0 0 0.115 0 0 0.12 0 0 0.125 0 0 0.13 0 0 0.135 0 0 0.14 0 0 0.145 0 0 0.15 0 0 0.155 0 0 0.16 0 0 0.165 0 0 0.17 0 0 0.175 0 0 0.18 0 0 0.185 0 0 0.19 0 0 0.195 0 0 0.2 0 0 0.205 0 0 0.21 0 0 0.215 0 0 0.22 0 0 0.225 0 0 0.23 0 0 0.235 0 0 0.24 0 0 0.245 0 0 0.25 0 0 0.255 0 0 0.26 0 0 0.265 0 0 0.27 0 0 0.275 0 0 0.28 0 0 0.285 0 0 0.29 0 0 0.295 0 0 0.3 0 0 0.305 0 0 0.31 0 0 0.315 0 0 0.32 0 0 0.325 0 0 0.33 0 0 0.335 0 0 0.34 0 0 0.345 0 0 0.35 0 0 0.355 0 0 0.36 0 0 0.365 0 0 0.37 0 0 0.375 0 0 0.38 0 0 0.385 0 0 0.39 0 0 0.395 0 0 0.4 0 0 0.405 0 0 0.41 0 0 0.415 0 0 0.42 0 0 0.425 0 0 0.43 0 0 0.435 0 0 0.44 0 0 0.445 0 0 0.45 0 0 0.455 0 0 0.46 0 0 0.465 0 0 0.47 0 0 0.475 0 0 0.48 0 0 0.485 0 0 0.49 0 0 0.495 0 0 0.5 0 0 0.505 0 0 0.51 0 0 0.515 0 0 0.52 0 0 0.525 0 0 0.53 0 0 0.535 0 0 0.54 0 0 0.545 0 0 0.55 0 0 0.555 0 0 0.56 0 0 0.565 0 0 0.57 0 0 0.575 0 0 0.58 0 0 0.585 0 0 0.59 0 0 0.595 0 0 0.6 0 0 0.605 0 0 0.61 0 0 0.615 0 0 0.62 0 0 0.625 0 0 0.63 0 0 0.635 0 0 0.64 0 0 0.645 0 0 0.65 0 0 0.655 0 0 0.66 0 0 0.665 0 0 0.67 0 0 0.675 0 0 0.68 0 0 0.685 0 0 0.69 0 0 0.695 0 0 0.7 0 0 0.705 0 0 0.71 0 0 0.715 0 0 0.72 0 0 0.725 0 0 0.73 0 0 0.735 0 0 0.74 0 0 0.745 0 0 0.75 0 0 0.755 0 0 0.76 0 0 0.765 0 0 0.77 0 0 0.775 0 0 0.78 0 0 0.785 0 0 0.79 0 0 0.795 0 0 0.8 0 0 0.805 0 0 0.81 0 0 0.815 0 0 0.82 0 0 0.825 0 0 0.83 0 0 0.835 0 0 0.84 0 0 0.845 0 0 0.85 0 0 0.855 0 0 0.86 0 0 0.865 0 0 0.87 0 0 0.875 0 0 0.88 0 0 0.885 0 0 0.89 0 0 0.895 0 0 0.9 0 0 0.905 0 0 0.91 0 0 0.915 0 0 0.92 0 0 0.925 0 0 0.93 0 0 0.935 0 0 0.94 0 0 0.945 0 0 0.95 0 0 0.955 0 0 0.96 0 0 0.965 0 0 0.97 0 0 0.975 0 0 0.98 0 0 0.985 0 0 0.99 0 0 0.995 0 0 1 0 0 0 0.02 0 0.005 0.02 0 0.01 0.02 0 0.015 0.02 0 0.02 0.02 0 0.025 0.02 0 0.03 0.02 0 0.035 0.02 0 0.04 0.02 0 0.045 0.02 0 0.05 0.02 0 0.055 0.02 0 0.06 0.02 0 0.065 0.02 0 0.07 0.02 0 0.075 0.02 0 0.08 0.02 0 0.085 0.02 0 0.09 0.02 0 0.095 0.02 0 0.1 0.02 0 0.105 0.02 0 0.11 0.02 0 0.115 0.02 0 0.12 0.02 0 0.125 0.02 0 0.13 0.02 0 0.135 0.02 0 0.14 0.02 0 0.145 0.02 0 0.15 0.02 0 0.155 0.02 0 0.16 0.02 0 0.165 0.02 0 0.17 0.02 0 0.175 0.02 0 0.18 0.02 0 0.185 0.02 0 0.19 0.02 0 0.195 0.02 0 0.2 0.02 0 0.205 0.02 0 0.21 0.02 0 0.215 0.02 0 0.22 0.02 0 0.225 0.02 0 0.23 0.02 0 0.235 0.02 0 0.24 0.02 0 0.245 0.02 0 0.25 0.02 0 0.255 0.02 0 0.26 0.02 0 0.265 0.02 0 0.27 0.02 0 0.275 0.02 0 0.28 0.02 0 0.285 0.02 0 0.29 0.02 0 0.295 0.02 0 0.3 0.02 0 0.305 0.02 0 0.31 0.02 0 0.315 0.02 0 0.32 0.02 0 0.325 0.02 0 0.33 0.02 0 0.335 0.02 0 0.34 0.02 0 0.345 0.02 0 0.35 0.02 0 0.355 0.02 0 0.36 0.02 0 0.365 0.02 0 0.37 0.02 0 0.375 0.02 0 0.38 0.02 0 0.385 0.02 0 0.39 0.02 0 0.395 0.02 0 0.4 0.02 0 0.405 0.02 0 0.41 0.02 0 0.415 0.02 0 0.42 0.02 0 0.425 0.02 0 0.43 0.02 0 0.435 0.02 0 0.44 0.02 0 0.445 0.02 0 0.45 0.02 0 0.455 0.02 0 0.46 0.02 0 0.465 0.02 0 0.47 0.02 0 0.475 0.02 0 0.48 0.02 0 0.485 0.02 0 0.49 0.02 0 0.495 0.02 0 0.5 0.02 0 0.505 0.02 0 0.51 0.02 0 0.515 0.02 0 0.52 0.02 0 0.525 0.02 0 0.53 0.02 0 0.535 0.02 0 0.54 0.02 0 0.545 0.02 0 0.55 0.02 0 0.555 0.02 0 0.56 0.02 0 0.565 0.02 0 0.57 0.02 0 0.575 0.02 0 0.58 0.02 0 0.585 0.02 0 0.59 0.02 0 0.595 0.02 0 0.6 0.02 0 0.605 0.02 0 0.61 0.02 0 0.615 0.02 0 0.62 0.02 0 0.625 0.02 0 0.63 0.02 0 0.635 0.02 0 0.64 0.02 0 0.645 0.02 0 0.65 0.02 0 0.655 0.02 0 0.66 0.02 0 0.665 0.02 0 0.67 0.02 0 0.675 0.02 0 0.68 0.02 0 0.685 0.02 0 0.69 0.02 0 0.695 0.02 0 0.7 0.02 0 0.705 0.02 0 0.71 0.02 0 0.715 0.02 0 0.72 0.02 0 0.725 0.02 0 0.73 0.02 0 0.735 0.02 0 0.74 0.02 0 0.745 0.02 0 0.75 0.02 0 0.755 0.02 0 0.76 0.02 0 0.765 0.02 0 0.77 0.02 0 0.775 0.02 0 0.78 0.02 0 0.785 0.02 0 0.79 0.02 0 0.795 0.02 0 0.8 0.02 0 0.805 0.02 0 0.81 0.02 0 0.815 0.02 0 0.82 0.02 0 0.825 0.02 0 0.83 0.02 0 0.835 0.02 0 0.84 0.02 0 0.845 0.02 0 0.85 0.02 0 0.855 0.02 0 0.86 0.02 0 0.865 0.02 0 0.87 0.02 0 0.875 0.02 0 0.88 0.02 0 0.885 0.02 0 0.89 0.02 0 0.895 0.02 0 0.9 0.02 0 0.905 0.02 0 0.91 0.02 0 0.915 0.02 0 0.92 0.02 0 0.925 0.02 0 0.93 0.02 0 0.935 0.02 0 0.94 0.02 0 0.945 0.02 0 0.95 0.02 0 0.955 0.02 0 0.96 0.02 0 0.965 0.02 0 0.97 0.02 0 0.975 0.02 0 0.98 0.02 0 0.985 0.02 0 0.99 0.02 0 0.995 0.02 0 1 0.02 0 0 0.04 0 0.005 0.04 0 0.01 0.04 0 0.015 0.04 0 0.02 0.04 0 0.025 0.04 0 0.03 0.04 0 0.035 0.04 0 0.04 0.04 0 0.045 0.04 0 0.05 0.04 0 0.055 0.04 0 0.06 0.04 0 0.065 0.04 0 0.07 0.04 0 0.075 0.04 0 0.08 0.04 0 0.085 0.04 0 0.09 0.04 0 0.095 0.04 0 0.1 0.04 0 0.105 0.04 0 0.11 0.04 0 0.115 0.04 0 0.12 0.04 0 0.125 0.04 0 0.13 0.04 0 0.135 0.04 0 0.14 0.04 0 0.145 0.04 0 0.15 0.04 0 0.155 0.04 0 0.16 0.04 0 0.165 0.04 0 0.17 0.04 0 0.175 0.04 0 0.18 0.04 0 0.185 0.04 0 0.19 0.04 0 0.195 0.04 0 0.2 0.04 0 0.205 0.04 0 0.21 0.04 0 0.215 0.04 0 0.22 0.04 0 0.225 0.04 0 0.23 0.04 0 0.235 0.04 0 0.24 0.04 0 0.245 0.04 0 0.25 0.04 0 0.255 0.04 0 0.26 0.04 0 0.265 0.04 0 0.27 0.04 0 0.275 0.04 0 0.28 0.04 0 0.285 0.04 0 0.29 0.04 0 0.295 0.04 0 0.3 0.04 0 0.305 0.04 0 0.31 0.04 0 0.315 0.04 0 0.32 0.04 0 0.325 0.04 0 0.33 0.04 0 0.335 0.04 0 0.34 0.04 0 0.345 0.04 0 0.35 0.04 0 0.355 0.04 0 0.36 0.04 0 0.365 0.04 0 0.37 0.04 0 0.375 0.04 0 0.38 0.04 0 0.385 0.04 0 0.39 0.04 0 0.395 0.04 0 0.4 0.04 0 0.405 0.04 0 0.41 0.04 0 0.415 0.04 0 0.42 0.04 0 0.425 0.04 0 0.43 0.04 0 0.435 0.04 0 0.44 0.04 0 0.445 0.04 0 0.45 0.04 0 0.455 0.04 0 0.46 0.04 0 0.465 0.04 0 0.47 0.04 0 0.475 0.04 0 0.48 0.04 0 0.485 0.04 0 0.49 0.04 0 0.495 0.04 0 0.5 0.04 0 0.505 0.04 0 0.51 0.04 0 0.515 0.04 0 0.52 0.04 0 0.525 0.04 0 0.53 0.04 0 0.535 0.04 0 0.54 0.04 0 0.545 0.04 0 0.55 0.04 0 0.555 0.04 0 0.56 0.04 0 0.565 0.04 0 0.57 0.04 0 0.575 0.04 0 0.58 0.04 0 0.585 0.04 0 0.59 0.04 0 0.595 0.04 0 0.6 0.04 0 0.605 0.04 0 0.61 0.04 0 0.615 0.04 0 0.62 0.04 0 0.625 0.04 0 0.63 0.04 0 0.635 0.04 0 0.64 0.04 0 0.645 0.04 0 0.65 0.04 0 0.655 0.04 0 0.66 0.04 0 0.665 0.04 0 0.67 0.04 0 0.675 0.04 0 0.68 0.04 0 0.685 0.04 0 0.69 0.04 0 0.695 0.04 0 0.7 0.04 0 0.705 0.04 0 0.71 0.04 0 0.715 0.04 0 0.72 0.04 0 0.725 0.04 0 0.73 0.04 0 0.735 0.04 0 0.74 0.04 0 0.745 0.04 0 0.75 0.04 0 0.755 0.04 0 0.76 0.04 0 0.765 0.04 0 0.77 0.04 0 0.775 0.04 0 0.78 0.04 0 0.785 0.04 0 0.79 0.04 0 0.795 0.04 0 0.8 0.04 0 0.805 0.04 0 0.81 0.04 0 0.815 0.04 0 0.82 0.04 0 0.825 0.04 0 0.83 0.04 0 0.835 0.04 0 0.84 0.04 0 0.845 0.04 0 0.85 0.04 0 0.855 0.04 0 0.86 0.04 0 0.865 0.04 0 0.87 0.04 0 0.875 0.04 0 0.88 0.04 0 0.885 0.04 0 0.89 0.04 0 0.895 0.04 0 0.9 0.04 0 0.905 0.04 0 0.91 0.04 0 0.915 0.04 0 0.92 0.04 0 0.925 0.04 0 0.93 0.04 0 0.935 0.04 0 0.94 0.04 0 0.945 0.04 0 0.95 0.04 0 0.955 0.04 0 0.96 0.04 0 0.965 0.04 0 0.97 0.04 0 0.975 0.04 0 0.98 0.04 0 0.985 0.04 0 0.99 0.04 0 0.995 0.04 0 1 0.04 0 0 0.06 0 0.005 0.06 0 0.01 0.06 0 0.015 0.06 0 0.02 0.06 0 0.025 0.06 0 0.03 0.06 0 0.035 0.06 0 0.04 0.06 0 0.045 0.06 0 0.05 0.06 0 0.055 0.06 0 0.06 0.06 0 0.065 0.06 0 0.07 0.06 0 0.075 0.06 0 0.08 0.06 0 0.085 0.06 0 0.09 0.06 0 0.095 0.06 0 0.1 0.06 0 0.105 0.06 0 0.11 0.06 0 0.115 0.06 0 0.12 0.06 0 0.125 0.06 0 0.13 0.06 0 0.135 0.06 0 0.14 0.06 0 0.145 0.06 0 0.15 0.06 0 0.155 0.06 0 0.16 0.06 0 0.165 0.06 0 0.17 0.06 0 0.175 0.06 0 0.18 0.06 0 0.185 0.06 0 0.19 0.06 0 0.195 0.06 0 0.2 0.06 0 0.205 0.06 0 0.21 0.06 0 0.215 0.06 0 0.22 0.06 0 0.225 0.06 0 0.23 0.06 0 0.235 0.06 0 0.24 0.06 0 0.245 0.06 0 0.25 0.06 0 0.255 0.06 0 0.26 0.06 0 0.265 0.06 0 0.27 0.06 0 0.275 0.06 0 0.28 0.06 0 0.285 0.06 0 0.29 0.06 0 0.295 0.06 0 0.3 0.06 0 0.305 0.06 0 0.31 0.06 0 0.315 0.06 0 0.32 0.06 0 0.325 0.06 0 0.33 0.06 0 0.335 0.06 0 0.34 0.06 0 0.345 0.06 0 0.35 0.06 0 0.355 0.06 0 0.36 0.06 0 0.365 0.06 0 0.37 0.06 0 0.375 0.06 0 0.38 0.06 0 0.385 0.06 0 0.39 0.06 0 0.395 0.06 0 0.4 0.06 0 0.405 0.06 0 0.41 0.06 0 0.415 0.06 0 0.42 0.06 0 0.425 0.06 0 0.43 0.06 0 0.435 0.06 0 0.44 0.06 0 0.445 0.06 0 0.45 0.06 0 0.455 0.06 0 0.46 0.06 0 0.465 0.06 0 0.47 0.06 0 0.475 0.06 0 0.48 0.06 0 0.485 0.06 0 0.49 0.06 0 0.495 0.06 0 0.5 0.06 0 0.505 0.06 0 0.51 0.06 0 0.515 0.06 0 0.52 0.06 0 0.525 0.06 0 0.53 0.06 0 0.535 0.06 0 0.54 0.06 0 0.545 0.06 0 0.55 0.06 0 0.555 0.06 0 0.56 0.06 0 0.565 0.06 0 0.57 0.06 0 0.575 0.06 0 0.58 0.06 0 0.585 0.06 0 0.59 0.06 0 0.595 0.06 0 0.6 0.06 0 0.605 0.06 0 0.61 0.06 0 0.615 0.06 0 0.62 0.06 0 0.625 0.06 0 0.63 0.06 0 0.635 0.06 0 0.64 0.06 0 0.645 0.06 0 0.65 0.06 0 0.655 0.06 0 0.66 0.06 0 0.665 0.06 0 0.67 0.06 0 0.675 0.06 0 0.68 0.06 0 0.685 0.06 0 0.69 0.06 0 0.695 0.06 0 0.7 0.06 0 0.705 0.06 0 0.71 0.06 0 0.715 0.06 0 0.72 0.06 0 0.725 0.06 0 0.73 0.06 0 0.735 0.06 0 0.74 0.06 0 0.745 0.06 0 0.75 0.06 0 0.755 0.06 0 0.76 0.06 0 0.765 0.06 0 0.77 0.06 0 0.775 0.06 0 0.78 0.06 0 0.785 0.06 0 0.79 0.06 0 0.795 0.06 0 0.8 0.06 0 0.805 0.06 0 0.81 0.06 0 0.815 0.06 0 0.82 0.06 0 0.825 0.06 0 0.83 0.06 0 0.835 0.06 0 0.84 0.06 0 0.845 0.06 0 0.85 0.06 0 0.855 0.06 0 0.86 0.06 0 0.865 0.06 0 0.87 0.06 0 0.875 0.06 0 0.88 0.06 0 0.885 0.06 0 0.89 0.06 0 0.895 0.06 0 0.9 0.06 0 0.905 0.06 0 0.91 0.06 0 0.915 0.06 0 0.92 0.06 0 0.925 0.06 0 0.93 0.06 0 0.935 0.06 0 0.94 0.06 0 0.945 0.06 0 0.95 0.06 0 0.955 0.06 0 0.96 0.06 0 0.965 0.06 0 0.97 0.06 0 0.975 0.06 0 0.98 0.06 0 0.985 0.06 0 0.99 0.06 0 0.995 0.06 0 1 0.06 0 0 0.08 0 0.005 0.08 0 0.01 0.08 0 0.015 0.08 0 0.02 0.08 0 0.025 0.08 0 0.03 0.08 0 0.035 0.08 0 0.04 0.08 0 0.045 0.08 0 0.05 0.08 0 0.055 0.08 0 0.06 0.08 0 0.065 0.08 0 0.07 0.08 0 0.075 0.08 0 0.08 0.08 0 0.085 0.08 0 0.09 0.08 0 0.095 0.08 0 0.1 0.08 0 0.105 0.08 0 0.11 0.08 0 0.115 0.08 0 0.12 0.08 0 0.125 0.08 0 0.13 0.08 0 0.135 0.08 0 0.14 0.08 0 0.145 0.08 0 0.15 0.08 0 0.155 0.08 0 0.16 0.08 0 0.165 0.08 0
[...]
			<PointData Scalars="VitesseX">
				<DataArray Name="VitesseX" type="Float32" format="ascii">
 0 2.97913e-14 -5.11655e-15 6.97421e-14 -5.257e-14 -3.36213e-14 2.59388e-14 -2.30853e-15 -1.43169e-14 3.10673e-14 -2.36617e-14 -1.28133e-13 4.50799e-14 -1.76504e-13 3.81821e-14 -2.22638e-14 -6.76484e-14 -9.9561e-15 -3.25167e-14 -9.21535e-14 -1.5813e-13 -8.88774e-14 -1.3042e-13 -9.78982e-14 -8.66495e-14 -1.53169e-13 -6.58626e-14 -7.45804e-14 -1.89184e-13 2.53528e-14 2.53111e-14 -7.80774e-14 -8.51787e-14 9.06056e-14 -1.09866e-13 -2.05586e-13 8.25837e-14 -1.96374e-13 1.72101e-13 -5.78186e-13 -2.48635e-13 -1.09411e-13 -4.21331e-13 1.05206e-13 1.99653e-15 4.06756e-14 2.6933e-13 -2.99892e-13 9.83681e-14 -1.38759e-13 3.92863e-14 -4.88535e-14 -4.6112e-13 2.75736e-13 -3.5507e-13 -2.7331e-13 1.34696e-13 -4.76601e-13 3.36861e-13 -4.80918e-14 -8.56589e-14 -1.14249e-13 -1.97704e-13 2.95833e-13 -2.42511e-13 -1.87361e-13 7.15141e-15 -3.69031e-13 6.81823e-14 5.95709e-13 6.08886e-12 6.81289e-11 6.81803e-10 6.29681e-09 5.29445e-08 4.03202e-07 2.7616e-06 1.68708e-05 9.10036e-05 0.000428041 0.00172851 0.00588489 0.0166044 0.0385855 0.0744449 0.121766 0.175012 0.229716 0.283946 0.337508 0.390189 0.441893 0.492537 0.542049 0.590357 0.63736 0.682902 0.726748 0.76854 0.807771 0.843756 0.875659 0.902583 0.923763 0.938806 0.948043 0.947895 0.946861 0.944958 0.942692 0.940136 0.937967 0.935838 0.967636 0.967945 0.948013 0.935456 0.931951 0.929626 0.925521 0.916933 0.899676 0.868383 0.816759 0.739419 0.634439 0.506251 0.36747 0.236041 0.130428 0.0612251 0.0249364 0.00926984 0.00327286 0.00112186 0.000376724 0.000124292 4.03136e-05 1.28514e-05 4.02485e-06 1.2378e-06 3.73659e-07 1.10681e-07 3.21602e-08 9.16497e-09 2.56111e-09 7.00879e-10 1.88869e-10 4.93624e-11 1.296e-11 2.65428e-12 -3.92742e-13 4.30503e-13 -2.43869e-13 6.79548e-14 -6.55788e-13 -9.92723e-14 4.05707e-13 4.30825e-13 2.42934e-13 -9.90445e-13 -4.01078e-13 2.84542e-14 5.11129e-13 7.25063e-13 -6.64428e-13 -8.21114e-13 4.60271e-14 -2.82531e-13 6.19485e-13 -1.21953e-14 -2.48406e-14 -2.20135e-14 -1.01727e-12 1.08445e-13 2.66982e-14 3.11048e-13 -6.20671e-13 -1.33185e-12 4.1971e-13 3.7853e-13 6.09351e-13 2.89415e-13 -6.54427e-13 9.06543e-14 -1.28843e-13 3.02785e-13 -6.21336e-13 -2.4053e-13 -5.30881e-13 -7.32279e-15 -7.17087e-13 -1.98469e-13 -3.90252e-13 1.86116e-13 2.15518e-13 -1.27032e-12 1.17887e-13 7.17739e-13 7.48138e-13 0 0 -8.46106e-15 1.91988e-14 -3.2688e-14 5.63622e-14 1.70078e-14 9.65305e-15 -1.53693e-14 -1.07528e-14 -3.62388e-14 -5.73113e-14 1.08694e-14 -1.41975e-13 2.69637e-14 -8.82633e-14 -1.44053e-14 2.10228e-14 -1.06103e-13 -4.93823e-14 -6.06041e-14 -6.24224e-14 -1.09657e-13 -7.57448e-14 -1.12234e-13 -1.28349e-13 -2.23177e-14 -1.60454e-13 -7.90556e-14 -3.04117e-15 -6.59653e-14 -1.96671e-14 -5.4203e-14 -6.00882e-14 -7.84622e-14 -5.61655e-14 -3.68456e-14 -1.81533e-13 -5.86915e-14 -3.16364e-13 9.02655e-14 -2.92581e-13 -2.18009e-13 -4.95472e-14 2.06062e-14 1.08025e-14 -3.60377e-14 -1.81519e-13 2.28913e-13 -2.98202e-14 5.46428e-14 -8.80441e-14 -3.58369e-13 1.57112e-13 -5.23619e-13 4.34226e-14 -1.24186e-13 -3.71332e-13 3.26732e-13 -3.67206e-13 9.88705e-14 -3.09559e-14 -1.03327e-13 1.15847e-13 -2.00843e-13 -1.60279e-15 -2.36784e-13 -2.00196e-13 1.17328e-13 -1.69041e-13 5.62061e-13 6.58664e-12 6.75413e-11 6.82497e-10 6.29627e-09 5.29453e-08 4.03201e-07 2.7616e-06 1.68708e-05 9.10036e-05 0.000428041 0.00172851 0.00588489 0.0166044 0.0385855 0.0744449 0.121766 0.175012 0.229716 0.283946 0.337508 0.390189 0.441893 0.492537 0.542049 0.590357 0.63736 0.682902 0.726748 0.76854 0.807771 0.843756 0.875659 0.902583 0.923763 0.938806 0.948043 0.947895 0.946861 0.944958 0.942692 0.940136 0.937967 0.935838 0.967636 0.967945 0.948013 0.935456 0.931951 0.929626 0.925521 0.916933 0.899676 0.868383 0.816759 0.739419 0.634439 0.506251 0.36747 0.236041 0.130428 0.0612251 0.0249364 0.00926984 0.00327286 0.00112186 0.000376724 0.000124292 4.03136e-05 1.28514e-05 4.02485e-06 1.2378e-06 3.7366e-07 1.10681e-07 3.21603e-08 9.16448e-09 2.56089e-09 7.02193e-10 1.88095e-10 4.95292e-11 1.2116e-11 2.99582e-12 9.71113e-13 -7.2414e-13 -1.19423e-13 -6.26704e-13 3.09487e-13 1.73401e-13 -8.3792e-14 -6.54589e-13 -3.02687e-13 3.34258e-13 2.37788e-13 -3.14766e-13 -5.39833e-13 -4.9362e-13 2.5201e-13 2.6954e-13 -7.14236e-14 2.0339e-13 -6.06259e-13 -1.67412e-14 -5.27383e-15 -6.06637e-16 3.84911e-13 -4.82335e-13 -4.40063e-13 -9.18517e-13 2.13906e-13 2.6799e-13 -1.47377e-13 -1.64704e-13 6.75356e-15 3.06157e-13 3.64587e-13 2.15993e-14 -8.14274e-14 -4.37473e-13 3.16626e-13 -2.15068e-13 -2.94596e-13 -5.01101e-13 -2.12639e-13 -2.3215e-13 6.71321e-14 -1.2446e-12 -1.70639e-13 9.32863e-13 5.54205e-13 -4.94834e-13 -1.08365e-12 0 0 -5.14444e-15 -9.554e-15 2.15484e-14 3.69099e-14 2.22712e-14 1.69781e-14 -1.60824e-14 1.17204e-14 -2.94343e-14 -5.7878e-15 -9.82095e-14 -4.38063e-14 -4.36767e-14 -4.51645e-14 -2.64477e-14 -4.78046e-14 8.43125e-15 -1.14022e-13 -8.90636e-14 -5.99281e-14 -3.5937e-14 -7.65635e-14 -6.13122e-14 -9.08971e-14 -2.82157e-14 -6.12366e-14 -8.15294e-14 -3.74451e-14 -1.19243e-13 -1.16462e-13 -3.98144e-15 -1.78433e-14 -1.64855e-13 -1.98752e-13 3.48841e-14 -5.42308e-15 -1.79198e-13 -1.39611e-13 -2.46333e-13 -5.05508e-14 -1.80965e-13 5.61115e-14 3.04056e-14 -6.86701e-15 -7.1379e-14 5.69769e-14 -1.7874e-13 -9.47677e-14 -1.40229e-13 -4.33013e-14 2.43412e-14 -1.80104e-13 -5.65513e-14 -1.98032e-13 -1.29963e-13 7.75723e-15 -2.6089e-13 1.47713e-13 -1.18123e-13 9.24925e-14 1.18533e-13 -1.6549e-13 -1.10244e-13 -1.67741e-13 -1.05334e-13 -2.79594e-14 -2.86426e-13 -2.16814e-14 7.39086e-13 6.34371e-12 6.81941e-11 6.82421e-10 6.29669e-09 5.29446e-08 4.03201e-07 2.7616e-06 1.68708e-05 9.10036e-05 0.000428041 0.00172851 0.00588489 0.0166044 0.0385855 0.0744449 0.121766 0.175012 0.229716 0.283946 0.337508 0.390189 0.441893 0.492537 0.542049 0.590357 0.63736 0.682902 0.726748 0.76854 0.807771 0.843756 0.875659 0.902583 0.923763 0.938806 0.948043 0.947895 0.946861 0.944958 0.942692 0.940136 0.937967 0.935838 0.967636 0.967945 0.948013 0.935456 0.931951 0.929626 0.925521 0.916933 0.899676 0.868383 0.816759 0.739419 0.634439 0.506251 0.36747 0.236041 0.130428 0.0612251 0.0249364 0.00926984 0.00327286 0.00112186 0.000376724 0.000124292 4.03136e-05 1.28514e-05 4.02485e-06 1.2378e-06 3.73659e-07 1.10681e-07 3.21602e-08 9.16494e-09 2.56098e-09 7.01257e-10 1.88443e-10 4.93499e-11 1.27039e-11 2.89879e-12 2.66186e-13 -9.87227e-14 -7.20078e-13 -1.27324e-13 -1.00319e-13 -1.60023e-13 -1.21252e-13 -3.55325e-13 -2.90778e-14 -1.05463e-13 -4.99693e-13 -3.76673e-13 6.86822e-14 -2.36613e-13 -4.40679e-13 -3.37732e-13 2.8174e-13 1.45597e-13 5.37464e-14 -1.46193e-13 3.07484e-13 -2.48728e-13 -5.77756e-14 -2.20435e-13 -6.73347e-13 -6.50045e-13 -1.02932e-13 1.18004e-13 6.49349e-13 3.47279e-13 -1.57365e-13 -1.16997e-13 2.87141e-13 1.93251e-13 1.29486e-13 2.16944e-13 -3.97501e-13 -4.15871e-13 1.07439e-13 -7.2283e-14 -1.67178e-13 -3.56482e-13 -1.08396e-12 1.67131e-13 -1.5504e-15 2.3148e-13 3.3337e-13 2.80769e-13 -2.57818e-13 0 0 3.46697e-14 3.63208e-14 4.94956e-14 -1.78218e-14 1.05566e-15 3.38846e-14 -3.58793e-14 -2.28035e-14 -2.85562e-14 -2.072e-14 -1.63069e-14 -9.19001e-15 -5.71707e-14 -3.18603e-14 1.43823e-14 -7.85381e-14 -9.22951e-14 -9.65192e-14 -6.78791e-14 -7.42743e-14 -5.90554e-14 -6.79135e-14 -7.92759e-14 8.20558e-14 -1.24963e-13 -1.76055e-15 -7.87707e-14 -1.13461e-13 -6.40852e-14 -6.62449e-14 -1.09825e-13 -1.80457e-13 -4.65247e-14 -1.79199e-13 -1.20458e-13 1.01375e-13 -1.57835e-13 -5.67978e-14 -1.84617e-13 -1.41711e-13 -1.12823e-13 -7.7385e-14 8.35612e-14 -7.23644e-14 7.37061e-14 -9.95081e-14 -2.26077e-13 4.2261e-14 -2.10559e-13 -6.02922e-14 2.39513e-14 -2.97648e-13 -6.73867e-14 -3.13241e-13 -1.4389e-13 9.99322e-14 -1.38899e-13 2.44882e-13 1.41314e-13 -1.47202e-13 -2.63203e-14 1.16384e-13 3.67131e-14 -1.59903e-13 -2.37821e-13 -3.58757e-13 -4.27058e-14 -4.62395e-17 6.8514e-13 6.10354e-12 6.83444e-11 6.82584e-10 6.29665e-09 5.29448e-08 4.03201e-07 2.7616e-06 1.68708e-05 9.10036e-05 0.000428041 0.00172851 0.00588489 0.0166044 0.0385855 0.0744449 0.121766 0.175012 0.229716 0.283946 0.337508 0.390189 0.441893 0.492537 0.542049 0.590357 0.63736 0.682902 0.726748 0.76854 0.807771 0.843756 0.875659 0.902583 0.923763 0.938806 0.948043 0.947895 0.946861 0.944958 0.942692 0.940136 0.937967 0.935838 0.967636 0.967945 0.948013 0.935456 0.931951 0.929626 0.925521 0.916933 0.899676 0.868383 0.816759 0.739419 0.634439 0.506251 0.36747 0.236041 0.130428 0.0612251 0.0249364 0.00926984 0.00327286 0.00112186 0.000376724 0.000124292 4.03136e-05 1.28514e-05 4.02485e-06 1.2378e-06 3.73659e-07 1.10681e-07 3.21601e-08 9.16475e-09 2.56082e-09 7.01252e-10 1.88426e-10 4.93408e-11 1.24834e-11 2.97001e-12 4.98601e-14 1.57587e-13 -3.12558e-13 -2.7794e-13 -4.1739e-13 4.41304e-14 -1.94984e-13 6.06486e-13 -7.47999e-13 -2.26714e-13 -2.47439e-13 -4.44193e-14 -9.76765e-14 6.38574e-14 -2.69992e-13 -6.25996e-13 -2.99845e-13 1.08567e-13 7.68334e-13 -7.18332e-13 2.22045e-13 -4.77102e-13 -6.6162e-13 -5.0925e-14 -3.55989e-13 3.69398e-13 -7.95023e-13 -2.21499e-13 3.57169e-13 2.79842e-13 1.78995e-13 4.38553e-13 -6.68403e-13 2.12787e-13 2.58161e-13 1.98178e-13 -1.50049e-13 7.09744e-14 -3.79469e-13 -3.26729e-13 -5.28802e-13 2.89609e-13 -5.72367e-13 -5.42533e-13 -1.83616e-13 -1.05717e-13 -2.2417e-13 7.65073e-13 7.34151e-13 0 0 -3.7041e-16 3.8996e-14 -2.73864e-14 3.36701e-14 2.05408e-14 -3.64694e-16 -3.95019e-14 -4.65796e-14 -3.80916e-14 -6.75557e-14 7.68886e-14 -1.06109e-13 7.41017e-14 -6.40752e-14 -1.18825e-14 1.32837e-14 -1.55945e-13 3.32802e-15 -3.39934e-14 -4.07892e-14 -1.03256e-13 -8.20289e-16 -8.68351e-14 2.90768e-14 -8.168e-14 -1.61246e-13 -7.19314e-14 -1.76264e-13 -1.54417e-14 -5.62426e-14 -1.13514e-13 -1.60428e-13 -2.51047e-14 -1.33621e-14 -8.1518e-14 -1.71367e-13 -5.49737e-14 -3.0761e-13 1.14539e-13 -2.15489e-13 -1.88181e-13 -1.2837e-14 2.01611e-14 6.87098e-14 1.10418e-13 -2.44502e-13 2.82657e-13 2.31624e-14 -3.73504e-14 -1.61146e-13 -3.15109e-13 -2.01499e-14 -5.3791e-13 -4.24205e-14 -5.74043e-14 -2.75427e-13 4.94008e-13 -3.75289e-13 1.09498e-13 -1.30217e-13 -1.23281e-13 9.12112e-14 -2.51165e-13 2.45515e-14 -2.4335e-13 -3.67741e-13 1.75873e-13 1.23936e-13 5.86318e-13 6.62461e-12 6.78456e-11 6.82913e-10 6.29653e-09 5.29454e-08 4.03201e-07 2.7616e-06 1.68708e-05 9.10036e-05 0.000428041 0.00172851 0.00588489 0.0166044 0.0385855 0.0744449 0.121766 0.175012 0.229716 0.283946 0.337508 0.390189 0.441893 0.492537 0.542049 0.590357 0.63736 0.682902 0.726748 0.76854 0.807771 0.843756 0.875659 0.902583 0.923763 0.938806 0.948043 0.947895 0.946861 0.944958 0.942692 0.940136 0.937967 0.935838 0.967636 0.967945 0.948013 0.935456 0.931951 0.929626 0.925521 0.916933 0.899676 0.868383 0.816759 0.739419 0.634439 0.506251 0.36747 0.236041 0.130428 0.0612251 0.0249364 0.00926984 0.00327286 0.00112186 0.000376724 0.000124292 4.03136e-05 1.28514e-05 4.02485e-06 1.2378e-06 3.73659e-07 1.10681e-07 3.216e-08 9.16437e-09 2.56077e-09 7.0203e-10 1.87605e-10 4.93494e-11 1.20449e-11 2.82687e-12 1.13311e-12 -2.33592e-13 -2.33242e-13 -8.09554e-13 8.63609e-14 1.79917e-13 2.34492e-13 -6.53434e-14 -2.39417e-13 3.01734e-13 1.48244e-13 -1.28096e-13 -6.00819e-13 -8.09483e-13 3.2792e-13 3.01686e-13 -2.04713e-13 2.58412e-13 -1.9944e-13 -4.11939e-13 -1.91478e-13 -2.9892e-13 -2.10576e-13 -6.01932e-13 -5.40936e-13 -2.34595e-13 -4.91631e-13 3.95094e-13 -5.72113e-13 -3.03405e-13 4.12199e-14 5.89704e-13 4.39196e-13 -1.09355e-13 -1.73747e-13 -3.01784e-13 6.26248e-13 -5.09493e-14 -4.37211e-13 -6.0978e-13 -3.20164e-13 2.40131e-13 3.04211e-13 -1.57889e-12 -2.12457e-13 1.09394e-12 1.89644e-13 -1.61861e-13 9.29402e-14 0 0 -3.36555e-14 -5.72718e-14 2.44508e-14 1.15092e-14 1.58755e-14 -2.79095e-14 -1.09799e-14 -1.69226e-14 2.56055e-14 -1.42861e-14 -1.599e-13 4.75783e-14 -5.52405e-14 5.99497e-14 -9.88781e-14 -2.16596e-14 9.18137e-14 3.78977e-14 -8.1301e-14 -8.61707e-14 -2.98382e-14 2.12872e-15 -1.11737e-14 -1.17704e-13 -7.83988e-14 -1.86398e-13 -6.58494e-14 -3.83598e-13 1.60849e-14 -1.48274e-13 1.49884e-14 3.93675e-14 -3.93397e-14 -6.3364e-14 1.57538e-14 -1.1068e-13 -2.31664e-13 2.39832e-14 -6.53069e-13 8.78707e-14 -1.86038e-13 -8.0918e-14 -1.99538e-15 2.48806e-13 4.34163e-14 4.56335e-13 -9.77296e-14 -6.97243e-14 -1.82084e-13 -7.29349e-14 3.84463e-14 -5.80555e-13 2.68825e-13 -2.96338e-13 -1.11894e-13 1.42156e-13 -3.86031e-13 1.26356e-13 -5.45711e-13 1.95207e-13 1.3555e-13 -8.10725e-13 -9.87266e-14 -2.05878e-13 6.44816e-14 3.33656e-13 -7.39382e-13 6.10867e-13 7.52111e-13 6.64515e-12 6.84371e-11 6.82309e-10 6.29742e-09 5.29444e-08 4.03202e-07 2.7616e-06 1.68708e-05 9.10036e-05 0.000428041 0.00172851 0.00588489 0.0166044 0.0385855 0.0744449 0.121766 0.175012 0.229716 0.283946 0.337508 0.390189 0.441893 0.492537 0.542049 0.590357 0.63736 0.682902 0.726748 0.76854 0.807771 0.843756 0.875659 0.902583 0.923763 0.938806 0.948043 0.947895 0.946861 0.944958 0.942692 0.940136 0.937967 0.935838 0.967636 0.967945 0.948013 0.935456 0.931951 0.929626 0.925521 0.916933 0.899676 0.868383 0.816759 0.739419 0.634439 0.506251 0.36747 0.236041 0.130428 0.0612251 0.0249364 0.00926984 0.00327286 0.00112186 0.000376724 0.000124292 4.03136e-05 1.28514e-05 4.02485e-06 1.2378e-06 3.73659e-07 1.10681e-07 3.216e-08 9.16513e-09 2.56119e-09 7.00562e-10 1.87922e-10 4.9021e-11 1.32588e-11 2.17391e-12 3.63908e-13 8.9898e-13 -1.28655e-12 3.48779e-15 -4.67898e-13 -4.94547e-13 1.18974e-12 -3.14305e-13 1.80732e-12 -8.12991e-13 -1.08468e-12 -2.62714e-13 7.21876e-13 -5.07604e-13 -8.53982e-13 -1.80295e-13 9.42618e-13 -9.84276e-14 3.94793e-15 3.41686e-13 -2.26371e-13 -1.61892e-13 -1.00055e-12 -4.69768e-13 -8.09763e-13 -3.59993e-13 -6.47563e-13 -3.98642e-13 1.54599e-13 2.36e-13 5.56364e-15 -2.54592e-13 1.40588e-12 -2.10326e-13 -5.70831e-13 6.11693e-13 -4.96994e-13 -8.85984e-13 1.57705e-13 2.8421e-13 -2.08889e-13 -5.46088e-13 -9.39278e-13 9.36854e-13 4.96014e-13 -2.7377e-13 5.03845e-13 4.15078e-13 1.11738e-12 0
				</DataArray>
				<DataArray Name="VitesseY" type="Float32" format="ascii">