<?xml version="1.0"?>
<VTKFile type="PolyData">
	<PolyData>
		<Piece NumberOfPoints="1206" NumberOfPolys="1000">
			<Points>
				<DataArray type="Float32" NumberOfComponents="3" format="ascii">
 0 0 0 0.005 0 0 0.01 0 0 0.015 0 0 0.02 0 0 0.025 0 0 0.03 0 0 0.035 0 0 0.04 0 0 0.045 0 0 0.05 0 0 0.055 0 0 0.06 0 0 0.065 0 0 0.07 0 0 0.075 0 0 0.08 0 0 0.085 0 0 0.09 0 0 0.095 0 0 0.1 0 0 0.105 0 0 0.11 0 0 0.115 0 0 0.12 0 0 0.125 0 0 0.13 0 0 0.135 0 0 0.14 0 0 0.145 0 0 0.15 0 0 0.155 0 0 0.16 0 0 0.165 0 0 0.17 0 0 0.175 0 0 0.18 0 0 0.185 0 0 0.19 0 0 0.195 0 0 0.2 0 0 0.205 0 0 0.21 0 0 0.215 0 0 0.22 0 0 0.225 0 0 0.23 0 0 0.235 0 0 0.24 0 0 0.245 0 0 0.25 0 0 0.255 0 0 0.26 0 0 0.265 0 0 0.27 0 0 0.275 0 0 0.28 0 0 0.285 0 0 0.29 0 0 0.295 0 0 0.3 0 0 0.305 0 0 0.31 0 0 0.315 0 0 0.32 0 0 0.325 0 0 0.33 0 0 0.335 0 0 0.34 0 0 0.345 0 0 0.35 0 0 0.355 0 0 0.36 0 0 0.365 0 0 0.37 0 0 0.375 0 0 0.38 0 0 0.385 0 0 0.39 0 0 0.395 0 0 0.4 0 0 0.405 0 0 0.41 0 0 0.415 0 0 0.42 0 0 0.425 0 0 0.43 0 0 0.435 0 0 0.44 0 0 0.445 0 0 0.45 0 0 0.455 0 0 0.46 0 0 0.465 0 0 0.47 0 0 0.475 0 0 0.48 0 0 0.485 0 0 0.49 0 0 0.495 0 0 0.5 0 0 0.505 0 0 0.51 0 0 0.515 0 0 0.52 0 0 0.525 0 0 0.53 0 0 0.535 0 0 0.54 0 0 0.545 0 0 0.55 0 0 0.555 0 0 0.56 0 0 0.565 0 0 0.57 0 0 0.575 0 0 0.58 0 0 0.585 0 0 0.59 0 0 0.595 0 0 0.6 0 0 0.605 0 0 0.61 0 0 0.615 0 0 0.62 0 0 0.625 0 0 0.63 0 0 0.635 0 0 0.64 0 0 0.645 0 0 0.65 0 0 0.655 0 0 0.66 0 0 0.665 0 0 0.67 0 0 0.675 0 0 0.68 0 0 0.685 0 0 0.69 0 0 0.695 0 0 0.7 0 0 0.705 0 0 0.71 0 0 0.715 0 0 0.72 0 0 0.725 0 0 0.73 0 0 0.735 0 0 0.74 0 0 0.745 0 0 0.75 0 0 0.755 0 0 0.76 0 0 0.765 0 0 0.77 0 0 0.775 0 0 0.78 0 0 0.785 0 0 0.79 0 0 0.795 0 0 0.8 0 0 0.805 0 0 0.81 0 0 0.815 0 0 0.82 0 0 0.825 0 0 0.83 0 0 0.835 0 0 0.84 0 0 0.845 0 0 0.85 0 0 0.855 0 0 0.86 0 0 0.865 0 0 0.87 0 0 0.875 0 0 0.88 0 0 0.885 0 0 0.89 0 0 0.895 0 0 0.9 0 0 0.905 0 0 0.91 0 0 0.915 0 0 0.92 0 0 0.925 0 0 0.93 0 0 0.935 0 0 0.94 0 0 0.945 0 0 0.95 0 0 0.955 0 0 0.96 0 0 0.965 0 0 0.97 0 0 0.975 0 0 0.98 0 0 0.985 0 0 0.99 0 0 0.995 0 0 1 0 0 0 0.02 0 0.005 0.02 0 0.01 0.02 0 0.015 0.02 0 0.02 0.02 0 0.025 0.02 0 0.03 0.02 0 0.035 0.02 0 0.04 0.02 0 0.045 0.02 0 0.05 0.02 0 0.055 0.02 0 0.06 0.02 0 0.065 0.02 0 0.07 0.02 0 0.075 0.02 0 0.08 0.02 0 0.085 0.02 0 0.09 0.02 0 0.095 0.02 0 0.1 0.02 0 0.105 0.02 0 0.11 0.02 0 0.115 0.02 0 0.12 0.02 0 0.125 0.02 0 0.13 0.02 0 0.135 0.02 0 0.14 0.02 0 0.145 0.02 0 0.15 0.02 0 0.155 0.02 0 0.16 0.02 0 0.165 0.02 0 0.17 0.02 0 0.175 0.02 0 0.18 0.02 0 0.185 0.02 0 0.19 0.02 0 0.195 0.02 0 0.2 0.02 0 0.205 0.02 0 0.21 0.02 0 0.215 0.02 0 0.22 0.02 0 0.225 0.02 0 0.23 0.02 0 0.235 0.02 0 0.24 0.02 0 0.245 0.02 0 0.25 0.02 0 0.255 0.02 0 0.26 0.02 0 0.265 0.02 0 0.27 0.02 0 0.275 0.02 0 0.28 0.02 0 0.285 0.02 0 0.29 0.02 0 0.295 0.02 0 0.3 0.02 0 0.305 0.02 0 0.31 0.02 0 0.315 0.02 0 0.32 0.02 0 0.325 0.02 0 0.33 0.02 0 0.335 0.02 0 0.34 0.02 0 0.345 0.02 0 0.35 0.02 0 0.355 0.02 0 0.36 0.02 0 0.365 0.02 0 0.37 0.02 0 0.375 0.02 0 0.38 0.02 0 0.385 0.02 0 0.39 0.02 0 0.395 0.02 0 0.4 0.02 0 0.405 0.02 0 0.41 0.02 0 0.415 0.02 0 0.42 0.02 0 0.425 0.02 0 0.43 0.02 0 0.435 0.02 0 0.44 0.02 0 0.445 0.02 0 0.45 0.02 0 0.455 0.02 0 0.46 0.02 0 0.465 0.02 0 0.47 0.02 0 0.475 0.02 0 0.48 0.02 0 0.485 0.02 0 0.49 0.02 0 0.495 0.02 0 0.5 0.02 0 0.505 0.02 0 0.51 0.02 0 0.515 0.02 0 0.52 0.02 0 0.525 0.02 0 0.53 0.02 0 0.535 0.02 0 0.54 0.02 0 0.545 0.02 0 0.55 0.02 0 0.555 0.02 0 0.56 0.02 0 0.565 0.02 0 0.57 0.02 0 0.575 0.02 0 0.58 0.02 0 0.585 0.02 0 0.59 0.02 0 0.595 0.02 0 0.6 0.02 0 0.605 0.02 0 0.61 0.02 0 0.615 0.02 0 0.62 0.02 0 0.625 0.02 0 0.63 0.02 0 0.635 0.02 0 0.64 0.02 0 0.645 0.02 0 0.65 0.02 0 0.655 0.02 0 0.66 0.02 0 0.665 0.02 0 0.67 0.02 0 0.675 0.02 0 0.68 0.02 0 0.685 0.02 0 0.69 0.02 0 0.695 0.02 0 0.7 0.02 0 0.705 0.02 0 0.71 0.02 0 0.715 0.02 0 0.72 0.02 0 0.725 0.02 0 0.73 0.02 0 0.735 0.02 0 0.74 0.02 0 0.745 0.02 0 0.75 0.02 0 0.755 0.02 0 0.76 0.02 0 0.765 0.02 0 0.77 0.02 0 0.775 0.02 0 0.78 0.02 0 0.785 0.02 0 0.79 0.02 0 0.795 0.02 0 0.8 0.02 0 0.805 0.02 0 0.81 0.02 0 0.815 0.02 0 0.82 0.02 0 0.825 0.02 0 0.83 0.02 0 0.835 0.02 0 0.84 0.02 0 0.845 0.02 0 0.85 0.02 0 0.855 0.02 0 0.86 0.02 0 0.865 0.02 0 0.87 0.02 0 0.875 0.02 0 0.88 0.02 0 0.885 0.02 0 0.89 0.02 0 0.895 0.02 0 0.9 0.02 0 0.905 0.02 0 0.91 0.02 0 0.915 0.02 0 0.92 0.02 0 0.925 0.02 0 0.93 0.02 0 0.935 0.02 0 0.94 0.02 0 0.945 0.02 0 0.95 0.02 0 0.955 0.02 0 0.96 0.02 0 0.965 0.02 0 0.97 0.02 0 0.975 0.02 0 0.98 0.02 0 0.985 0.02 0 0.99 0.02 0 0.995 0.02 0 1 0.02 0 0 0.04 0 0.005 0.04 0 0.01 0.04 0 0.015 0.04 0 0.02 0.04 0 0.025 0.04 0 0.03 0.04 0 0.035 0.04 0 0.04 0.04 0 0.045 0.04 0 0.05 0.04 0 0.055 0.04 0 0.06 0.04 0 0.065 0.04 0 0.07 0.04 0 0.075 0.04 0 0.08 0.04 0 0.085 0.04 0 0.09 0.04 0 0.095 0.04 0 0.1 0.04 0 0.105 0.04 0 0.11 0.04 0 0.115 0.04 0 0.12 0.04 0 0.125 0.04 0 0.13 0.04 0 0.135 0.04 0 0.14 0.04 0 0.145 0.04 0 0.15 0.04 0 0.155 0.04 0 0.16 0.04 0 0.165 0.04 0 0.17 0.04 0 0.175 0.04 0 0.18 0.04 0 0.185 0.04 0 0.19 0.04 0 0.195 0.04 0 0.2 0.04 0 0.205 0.04 0 0.21 0.04 0 0.215 0.04 0 0.22 0.04 0 0.225 0.04 0 0.23 0.04 0 0.235 0.04 0 0.24 0.04 0 0.245 0.04 0 0.25 0.04 0 0.255 0.04 0 0.26 0.04 0 0.265 0.04 0 0.27 0.04 0 0.275 0.04 0 0.28 0.04 0 0.285 0.04 0 0.29 0.04 0 0.295 0.04 0 0.3 0.04 0 0.305 0.04 0 0.31 0.04 0 0.315 0.04 0 0.32 0.04 0 0.325 0.04 0 0.33 0.04 0 0.335 0.04 0 0.34 0.04 0 0.345 0.04 0 0.35 0.04 0 0.355 0.04 0 0.36 0.04 0 0.365 0.04 0 0.37 0.04 0 0.375 0.04 0 0.38 0.04 0 0.385 0.04 0 0.39 0.04 0 0.395 0.04 0 0.4 0.04 0 0.405 0.04 0 0.41 0.04 0 0.415 0.04 0 0.42 0.04 0 0.425 0.04 0 0.43 0.04 0 0.435 0.04 0 0.44 0.04 0 0.445 0.04 0 0.45 0.04 0 0.455 0.04 0 0.46 0.04 0 0.465 0.04 0 0.47 0.04 0 0.475 0.04 0 0.48 0.04 0 0.485 0.04 0 0.49 0.04 0 0.495 0.04 0 0.5 0.04 0 0.505 0.04 0 0.51 0.04 0 0.515 0.04 0 0.52 0.04 0 0.525 0.04 0 0.53 0.04 0 0.535 0.04 0 0.54 0.04 0 0.545 0.04 0 0.55 0.04 0 0.555 0.04 0 0.56 0.04 0 0.565 0.04 0 0.57 0.04 0 0.575 0.04 0 0.58 0.04 0 0.585 0.04 0 0.59 0.04 0 0.595 0.04 0 0.6 0.04 0 0.605 0.04 0 0.61 0.04 0 0.615 0.04 0 0.62 0.04 0 0.625 0.04 0 0.63 0.04 0 0.635 0.04 0 0.64 0.04 0 0.645 0.04 0 0.65 0.04 0 0.655 0.04 0 0.66 0.04 0 0.665 0.04 0 0.67 0.04 0 0.675 0.04 0 0.68 0.04 0 0.685 0.04 0 0.69 0.04 0 0.695 0.04 0 0.7 0.04 0 0.705 0.04 0 0.71 0.04 0 0.715 0.04 0 0.72 0.04 0 0.725 0.04 0 0.73 0.04 0 0.735 0.04 0 0.74 0.04 0 0.745 0.04 0 0.75 0.04 0 0.755 0.04 0 0.76 0.04 0 0.765 0.04 0 0.77 0.04 0 0.775 0.04 0 0.78 0.04 0 0.785 0.04 0 0.79 0.04 0 0.795 0.04 0 0.8 0.04 0 0.805 0.04 0 0.81 0.04 0 0.815 0.04 0 0.82 0.04 0 0.825 0.04 0 0.83 0.04 0 0.835 0.04 0 0.84 0.04 0 0.845 0.04 0 0.85 0.04 0 0.855 0.04 0 0.86 0.04 0 0.865 0.04 0 0.87 0.04 0 0.875 0.04 0 0.88 0.04 0 0.885 0.04 0 0.89 0.04 0 0.895 0.04 0 0.9 0.04 0 0.905 0.04 0 0.91 0.04 0 0.915 0.04 0 0.92 0.04 0 0.925 0.04 0 0.93 0.04 0 0.935 0.04 0 0.94 0.04 0 0.945 0.04 0 0.95 0.04 0 0.955 0.04 0 0.96 0.04 0 0.965 0.04 0 0.97 0.04 0 0.975 0.04 0 0.98 0.04 0 0.985 0.04 0 0.99 0.04 0 0.995 0.04 0 1 0.04 0 0 0.06 0 0.005 0.06 0 0.01 0.06 0 0.015 0.06 0 0.02 0.06 0 0.025 0.06 0 0.03 0.06 0 0.035 0.06 0 0.04 0.06 0 0.045 0.06 0 0.05 0.06 0 0.055 0.06 0 0.06 0.06 0 0.065 0.06 0 0.07 0.06 0 0.075 0.06 0 0.08 0.06 0 0.085 0.06 0 0.09 0.06 0 0.095 0.06 0 0.1 0.06 0 0.105 0.06 0 0.11 0.06 0 0.115 0.06 0 0.12 0.06 0 0.125 0.06 0 0.13 0.06 0 0.135 0.06 0 0.14 0.06 0 0.145 0.06 0 0.15 0.06 0 0.155 0.06 0 0.16 0.06 0 0.165 0.06 0 0.17 0.06 0 0.175 0.06 0 0.18 0.06 0 0.185 0.06 0 0.19 0.06 0 0.195 0.06 0 0.2 0.06 0 0.205 0.06 0 0.21 0.06 0 0.215 0.06 0 0.22 0.06 0 0.225 0.06 0 0.23 0.06 0 0.235 0.06 0 0.24 0.06 0 0.245 0.06 0 0.25 0.06 0 0.255 0.06 0 0.26 0.06 0 0.265 0.06 0 0.27 0.06 0 0.275 0.06 0 0.28 0.06 0 0.285 0.06 0 0.29 0.06 0 0.295 0.06 0 0.3 0.06 0 0.305 0.06 0 0.31 0.06 0 0.315 0.06 0 0.32 0.06 0 0.325 0.06 0 0.33 0.06 0 0.335 0.06 0 0.34 0.06 0 0.345 0.06 0 0.35 0.06 0 0.355 0.06 0 0.36 0.06 0 0.365 0.06 0 0.37 0.06 0 0.375 0.06 0 0.38 0.06 0 0.385 0.06 0 0.39 0.06 0 0.395 0.06 0 0.4 0.06 0 0.405 0.06 0 0.41 0.06 0 0.415 0.06 0 0.42 0.06 0 0.425 0.06 0 0.43 0.06 0 0.435 0.06 0 0.44 0.06 0 0.445 0.06 0 0.45 0.06 0 0.455 0.06 0 0.46 0.06 0 0.465 0.06 0 0.47 0.06 0 0.475 0.06 0 0.48 0.06 0 0.485 0.06 0 0.49 0.06 0 0.495 0.06 0 0.5 0.06 0 0.505 0.06 0 0.51 0.06 0 0.515 0.06 0 0.52 0.06 0 0.525 0.06 0 0.53 0.06 0 0.535 0.06 0 0.54 0.06 0 0.545 0.06 0 0.55 0.06 0 0.555 0.06 0 0.56 0.06 0 0.565 0.06 0 0.57 0.06 0 0.575 0.06 0 0.58 0.06 0 0.585 0.06 0 0.59 0.06 0 0.595 0.06 0 0.6 0.06 0 0.605 0.06 0 0.61 0.06 0 0.615 0.06 0 0.62 0.06 0 0.625 0.06 0 0.63 0.06 0 0.635 0.06 0 0.64 0.06 0 0.645 0.06 0 0.65 0.06 0 0.655 0.06 0 0.66 0.06 0 0.665 0.06 0 0.67 0.06 0 0.675 0.06 0 0.68 0.06 0 0.685 0.06 0 0.69 0.06 0 0.695 0.06 0 0.7 0.06 0 0.705 0.06 0 0.71 0.06 0 0.715 0.06 0 0.72 0.06 0 0.725 0.06 0 0.73 0.06 0 0.735 0.06 0 0.74 0.06 0 0.745 0.06 0 0.75 0.06 0 0.755 0.06 0 0.76 0.06 0 0.765 0.06 0 0.77 0.06 0 0.775 0.06 0 0.78 0.06 0 0.785 0.06 0 0.79 0.06 0 0.795 0.06 0 0.8 0.06 0 0.805 0.06 0 0.81 0.06 0 0.815 0.06 0 0.82 0.06 0 0.825 0.06 0 0.83 0.06 0 0.835 0.06 0 0.84 0.06 0 0.845 0.06 0 0.85 0.06 0 0.855 0.06 0 0.86 0.06 0 0.865 0.06 0 0.87 0.06 0 0.875 0.06 0 0.88 0.06 0 0.885 0.06 0 0.89 0.06 0 0.895 0.06 0 0.9 0.06 0 0.905 0.06 0 0.91 0.06 0 0.915 0.06 0 0.92 0.06 0 0.925 0.06 0 0.93 0.06 0 0.935 0.06 0 0.94 0.06 0 0.945 0.06 0 0.95 0.06 0 0.955 0.06 0 0.96 0.06 0 0.965 0.06 0 0.97 0.06 0 0.975 0.06 0 0.98 0.06 0 0.985 0.06 0 0.99 0.06 0 0.995 0.06 0 1 0.06 0 0 0.08 0 0.005 0.08 0 0.01 0.08 0 0.015 0.08 0 0.02 0.08 0 0.025 0.08 0 0.03 0.08 0 0.035 0.08 0 0.04 0.08 0 0.045 0.08 0 0.05 0.08 0 0.055 0.08 0 0.06 0.08 0 0.065 0.08 0 0.07 0.08 0 0.075 0.08 0 0.08 0.08 0 0.085 0.08 0 0.09 0.08 0 0.095 0.08 0 0.1 0.08 0 0.105 0.08 0 0.11 0.08 0 0.115 0.08 0 0.12 0.08 0 0.125 0.08 0 0.13 0.08 0 0.135 0.08 0 0.14 0.08 0 0.145 0.08 0 0.15 0.08 0 0.155 0.08 0 0.16 0.08 0 0.165 0.08 0
[...]
			<PointData Scalars="VitesseX">
				<DataArray Name="VitesseX" type="Float32" format="ascii">
 0 -5.61025e-15 2.15526e-14 4.68403e-15 -1.70059e-14 3.11102e-14 5.92768e-14 -4.5863e-14 -1.95454e-14 -8.11823e-14 4.6619e-14 -5.55307e-14 8.77348e-14 -8.70674e-14 -1.97878e-14 7.11719e-15 -1.56939e-13 -9.01665e-15 -1.05614e-13 -6.25452e-14 -6.33972e-14 -1.04324e-13 -2.44596e-13 -3.13572e-14 1.53974e-14 -7.69435e-14 -2.08546e-13 -1.24304e-13 -1.22636e-14 -9.15081e-14 -1.05594e-13 1.50847e-16 -6.12591e-14 -1.28092e-13 -1.65613e-13 -9.33873e-14 -7.45062e-14 -1.85281e-13 -2.03467e-13 -8.56249e-14 -1.29257e-13 -7.93217e-14 -7.49018e-14 2.51245e-13 1.35709e-14 -2.02093e-13 5.81444e-15 -8.57416e-14 -1.8887e-14 6.10348e-14 -2.23639e-13 -3.61536e-13 -4.19218e-13 3.59964e-13 -8.4691e-14 -1.09796e-13 -2.70434e-14 -2.46008e-13 -9.67876e-14 3.18885e-14 -1.46422e-13 4.53409e-14 -2.94052e-13 -2.58445e-13 -7.25547e-14 3.62519e-15 6.37925e-13 5.59712e-12 5.48173e-11 5.03311e-10 4.28683e-09 3.3524e-08 2.39431e-07 1.55278e-06 9.08065e-06 4.74881e-05 0.000219828 0.000889527 0.00309942 0.00915191 0.0226443 0.0469862 0.0826391 0.126334 0.17372 0.221945 0.269878 0.317383 0.364317 0.410605 0.456186 0.501006 0.545016 0.588156 0.63035 0.671486 0.711398 0.749851 0.786512 0.820932 0.85254 0.880663 0.904593 0.923703 0.937603 0.946454 0.946478 0.945756 0.944176 0.942234 0.940154 0.938089 0.936005 0.934142 0.934163 0.962845 0.961875 0.943422 0.933406 0.931265 0.930272 0.929005 0.926144 0.919925 0.907215 0.883696 0.843719 0.781439 0.692835 0.578398 0.445664 0.309844 0.18878 0.0986147 0.0441599 0.0175649 0.00651525 0.00232632 0.000812391 0.000279164 9.45675e-05 3.15868e-05 1.03993e-05 3.37315e-06 1.07742e-06 3.38737e-07 1.04784e-07 3.18825e-08 9.53803e-09 2.80534e-09 8.11397e-10 2.29406e-10 6.44588e-11 1.66274e-11 4.82643e-12 3.95168e-13 3.68863e-13 1.96373e-13 -4.99054e-13 1.65329e-13 -1.16385e-13 2.59557e-13 -3.18812e-13 -5.51705e-13 4.64229e-13 -7.67093e-15 -3.42041e-13 -7.23078e-13 -2.84634e-13 7.92454e-13 -2.41351e-13 -3.97321e-13 1.90993e-14 -1.05281e-12 2.47793e-13 -2.62764e-13 2.77816e-14 -3.83033e-13 -1.34025e-13 6.48677e-13 -1.97602e-13 -1.40556e-13 3.11161e-13 -1.37859e-13 2.28258e-13 -6.65372e-13 1.40776e-15 1.22983e-13 -3.36042e-13 6.06481e-13 -1.63923e-12 -1.73911e-13 8.54629e-13 -6.89833e-13 -2.76527e-13 -2.82942e-13 4.68709e-14 9.02906e-13 -6.10785e-13 3.93909e-13 0 0 1.83226e-14 9.49691e-15 1.48421e-14 2.64157e-14 7.96418e-15 -3.21608e-14 5.22061e-15 -3.8239e-14 1.48836e-14 -9.90791e-14 2.21881e-14 -5.1433e-14 5.67776e-14 -8.80237e-14 -3.04982e-14 3.3396e-14 -1.46442e-13 -2.91989e-14 -9.04894e-14 -9.38598e-14 -9.24197e-14 2.69716e-14 -1.68003e-13 -1.70253e-13 -8.54527e-14 5.28865e-14 -1.18134e-13 -1.84213e-13 2.40644e-14 -7.46242e-14 -9.96896e-14 -5.566e-14 -1.50541e-13 -6.30155e-14 -2.91334e-13 -1.30364e-13 -7.07043e-14 -1.29445e-13 -1.41888e-13 -2.85372e-14 -6.22601e-14 1.32889e-13 -1.81259e-13 -4.60812e-14 1.22866e-13 -6.60608e-14 -6.67273e-14 -1.36507e-13 -2.49533e-13 -2.61155e-13 -5.81798e-14 1.40456e-13 -4.82519e-13 -8.98637e-15 -2.5529e-14 -1.16757e-13 5.25619e-15 -4.82373e-14 -9.84829e-14 -2.61651e-14 -1.56891e-13 -1.15051e-13 -5.28884e-14 -8.67087e-14 5.3096e-14 5.13863e-13 5.5791e-12 5.46339e-11 5.03641e-10 4.28719e-09 3.35231e-08 2.39431e-07 1.55278e-06 9.08065e-06 4.74881e-05 0.000219828 0.000889527 0.00309942 0.00915191 0.0226443 0.0469862 0.0826391 0.126334 0.17372 0.221945 0.269878 0.317383 0.364317 0.410605 0.456186 0.501006 0.545016 0.588156 0.63035 0.671486 0.711398 0.749851 0.786512 0.820932 0.85254 0.880663 0.904593 0.923703 0.937603 0.946454 0.946478 0.945756 0.944176 0.942234 0.940154 0.938089 0.936005 0.934142 0.934163 0.962845 0.961875 0.943422 0.933406 0.931265 0.930272 0.929005 0.926144 0.919925 0.907215 0.883696 0.843719 0.781439 0.692835 0.578398 0.445664 0.309844 0.18878 0.0986147 0.0441599 0.0175649 0.00651525 0.00232632 0.000812391 0.000279164 9.45675e-05 3.15868e-05 1.03993e-05 3.37315e-06 1.07742e-06 3.38736e-07 1.04785e-07 3.18814e-08 9.53875e-09 2.80533e-09 8.10384e-10 2.30642e-10 6.3579e-11 1.76328e-11 3.95447e-12 1.23945e-12 -3.96615e-13 -2.49157e-13 2.68697e-13 -3.57577e-13 3.27045e-13 -4.89738e-13 1.75151e-13 -1.53656e-13 -5.79782e-13 5.88833e-14 -2.83806e-14 -8.09405e-14 2.23702e-13 -6.41506e-13 -5.30863e-14 -2.02075e-13 -5.32787e-13 2.53931e-13 -5.71364e-13 1.7107e-13 -2.61917e-13 -6.18017e-14 1.76047e-13 -3.93192e-13 2.77305e-13 3.6079e-13 -3.17887e-13 4.21894e-13 -2.33207e-13 1.05594e-13 2.75124e-14 -4.48532e-13 3.13432e-13 -1.12186e-12 6.13449e-14 -1.50937e-13 -6.7639e-13 4.51744e-13 -3.95419e-14 2.27627e-13 4.26788e-13 -8.50066e-13 4.52048e-13 1.30309e-13 0 0 -4.39287e-15 2.4983e-15 2.24341e-14 2.54845e-15 -7.70504e-15 -7.25315e-15 -1.16631e-14 -1.77682e-14 -6.60282e-15 -4.72148e-14 -4.29404e-14 -1.92055e-14 -3.18735e-14 3.93503e-15 -2.6644e-14 -6.679e-14 9.45018e-15 -3.5865e-14 -1.01417e-13 -9.99837e-14 1.78463e-14 -1.45227e-13 -3.34229e-14 -4.42561e-14 -8.75848e-14 -1.28867e-13 -6.41546e-14 -1.06793e-13 -1.16094e-13 -3.24373e-14 -8.99835e-15 -1.29466e-13 -1.13761e-13 -2.26824e-13 -1.42112e-13 -1.54572e-13 -1.09936e-13 -1.83525e-14 -6.22684e-14 -1.21119e-13 1.44505e-13 -1.41184e-13 -8.60691e-15 -8.12611e-14 -1.83573e-13 -5.04583e-14 -7.27499e-14 3.32756e-14 -3.37862e-13 -6.04425e-14 -1.15841e-13 -3.63501e-13 5.07449e-14 -3.71629e-15 -6.35323e-14 -1.06361e-13 -1.13845e-14 -4.384e-14 -8.12001e-14 4.75371e-14 -1.39513e-13 1.30847e-14 -1.16539e-13 -1.68855e-14 9.40438e-14 4.10772e-13 5.64356e-12 5.47793e-11 5.03422e-10 4.28723e-09 3.35235e-08 2.39431e-07 1.55278e-06 9.08065e-06 4.74881e-05 0.000219828 0.000889527 0.00309942 0.00915191 0.0226443 0.0469862 0.0826391 0.126334 0.17372 0.221945 0.269878 0.317383 0.364317 0.410605 0.456186 0.501006 0.545016 0.588156 0.63035 0.671486 0.711398 0.749851 0.786512 0.820932 0.85254 0.880663 0.904593 0.923703 0.937603 0.946454 0.946478 0.945756 0.944176 0.942234 0.940154 0.938089 0.936005 0.934142 0.934163 0.962845 0.961875 0.943422 0.933406 0.931265 0.930272 0.929005 0.926144 0.919925 0.907215 0.883696 0.843719 0.781439 0.692835 0.578398 0.445664 0.309844 0.18878 0.0986147 0.0441599 0.0175649 0.00651525 0.00232632 0.000812391 0.000279164 9.45675e-05 3.15868e-05 1.03993e-05 3.37315e-06 1.07742e-06 3.38737e-07 1.04784e-07 3.18819e-08 9.53828e-09 2.80529e-09 8.1083e-10 2.2976e-10 6.41419e-11 1.7381e-11 4.50562e-12 6.33488e-13 -1.33149e-13 -1.4982e-13 2.04893e-13 2.70318e-14 -4.8419e-13 1.99023e-13 -3.49163e-13 -6.22516e-14 -2.43275e-13 -2.51566e-13 -6.39982e-13 3.0822e-13 -2.6958e-13 -2.12168e-13 9.70696e-14 -3.02471e-13 -2.76464e-13 -1.2075e-13 -3.87593e-13 -4.22427e-13 2.97498e-13 1.11108e-13 -2.41649e-13 2.06102e-13 1.44802e-13 1.32853e-14 2.93491e-13 -2.52401e-13 2.51184e-13 4.47051e-13 -6.08752e-13 -7.77399e-14 -5.9511e-13 3.64549e-14 2.18613e-13 -2.53494e-13 -2.33748e-13 -2.90032e-13 3.00649e-13 1.2469e-13 -3.51954e-13 6.51116e-14 1.19318e-13 2.90187e-13 0 0 -1.24661e-14 -1.50575e-14 -2.4947e-14 -2.27842e-14 -8.95126e-15 -8.72266e-15 -3.20879e-14 -3.169e-14 -3.66936e-14 4.20832e-14 2.26531e-15 3.7776e-14 -9.09778e-14 8.8447e-15 -3.23426e-14 -5.2873e-14 -4.88271e-14 -1.16707e-13 2.12859e-14 -2.6559e-14 -5.66512e-14 -7.90313e-14 -3.01441e-14 -2.50161e-14 -3.58578e-14 -1.41535e-13 -1.66298e-13 -5.19814e-14 6.03026e-14 -1.41736e-13 -1.74874e-13 -1.5085e-13 -1.04865e-13 -1.75754e-13 -1.92665e-14 -1.76564e-13 -5.42542e-14 -9.73251e-14 -8.05897e-14 -9.72397e-14 3.20543e-14 -6.55985e-14 9.62439e-14 -2.74096e-14 -1.65181e-13 -6.85784e-14 -1.10128e-13 -1.54723e-13 1.29693e-13 -2.23909e-13 -3.56825e-13 -8.44014e-14 6.57355e-14 -1.6486e-13 -2.5824e-13 5.9305e-14 5.5158e-14 -2.45161e-15 9.50027e-16 -1.66701e-13 1.73433e-13 -1.3198e-13 -3.8546e-13 1.59408e-14 1.69677e-13 7.25277e-13 5.42231e-12 5.47925e-11 5.03481e-10 4.28759e-09 3.35236e-08 2.39431e-07 1.55278e-06 9.08065e-06 4.74881e-05 0.000219828 0.000889527 0.00309942 0.00915191 0.0226443 0.0469862 0.0826391 0.126334 0.17372 0.221945 0.269878 0.317383 0.364317 0.410605 0.456186 0.501006 0.545016 0.588156 0.63035 0.671486 0.711398 0.749851 0.786512 0.820932 0.85254 0.880663 0.904593 0.923703 0.937603 0.946454 0.946478 0.945756 0.944176 0.942234 0.940154 0.938089 0.936005 0.934142 0.934163 0.962845 0.961875 0.943422 0.933406 0.931265 0.930272 0.929005 0.926144 0.919925 0.907215 0.883696 0.843719 0.781439 0.692835 0.578398 0.445664 0.309844 0.18878 0.0986147 0.0441599 0.0175649 0.00651525 0.00232632 0.000812391 0.000279164 9.45675e-05 3.15868e-05 1.03993e-05 3.37315e-06 1.07742e-06 3.38737e-07 1.04784e-07 3.18819e-08 9.5382e-09 2.80507e-09 8.10768e-10 2.30107e-10 6.4424e-11 1.71039e-11 4.53755e-12 9.2977e-13 2.90552e-13 1.48119e-13 -3.29542e-13 1.69365e-14 -2.92421e-13 4.36469e-13 -1.04878e-13 -3.46035e-13 3.48257e-14 -5.35927e-13 -1.84477e-13 -8.76801e-13 -1.98151e-13 2.74806e-13 -4.57624e-15 -5.90372e-13 1.19524e-13 -8.15592e-13 6.61403e-15 -6.84406e-13 -2.29308e-13 5.63523e-13 -2.27305e-13 3.46237e-13 6.76457e-14 -1.33749e-13 2.80349e-14 -2.38178e-13 -1.34211e-13 2.24221e-13 9.21397e-14 -2.25104e-13 -3.33808e-13 6.08483e-14 -3.73958e-13 -4.56979e-14 -3.07121e-13 8.60923e-14 -2.29177e-13 -2.48815e-13 -2.26331e-13 5.16672e-13 1.88039e-13 -2.02439e-13 0 0 -4.64436e-15 -3.26698e-14 -4.24032e-14 -2.05656e-14 -3.61921e-14 -6.23505e-14 -6.3259e-16 -3.76238e-14 2.35558e-14 -3.83424e-14 3.12204e-14 -3.06781e-14 3.91463e-14 -5.1908e-14 9.76656e-15 6.03113e-14 -1.36193e-13 -4.39942e-15 1.90586e-14 -3.41883e-14 -9.42734e-14 1.09546e-13 -1.90548e-13 -2.00988e-13 -4.32476e-14 -6.11798e-14 -1.73283e-13 -1.84561e-13 8.78051e-14 -1.33289e-13 -1.80044e-13 -7.69064e-14 -5.62697e-14 4.09236e-14 -1.0677e-13 -1.04151e-13 -7.61562e-14 -1.76331e-13 -1.69946e-13 -5.1951e-14 -1.75382e-13 1.75046e-13 -6.98922e-14 -2.55183e-14 1.54875e-13 5.33157e-14 -7.28747e-14 -2.18677e-13 -1.61325e-14 -2.95552e-13 -1.53878e-13 3.36271e-13 -4.46361e-13 -1.09613e-13 -1.28767e-13 -1.21552e-13 1.25228e-13 3.37196e-14 -4.96254e-14 -1.33943e-13 -2.49559e-13 -1.88546e-13 -1.34699e-13 -2.13341e-13 1.57612e-13 8.88122e-13 5.69301e-12 5.48082e-11 5.03832e-10 4.28766e-09 3.35231e-08 2.39431e-07 1.55278e-06 9.08065e-06 4.74881e-05 0.000219828 0.000889527 0.00309942 0.00915191 0.0226443 0.0469862 0.0826391 0.126334 0.17372 0.221945 0.269878 0.317383 0.364317 0.410605 0.456186 0.501006 0.545016 0.588156 0.63035 0.671486 0.711398 0.749851 0.786512 0.820932 0.85254 0.880663 0.904593 0.923703 0.937603 0.946454 0.946478 0.945756 0.944176 0.942234 0.940154 0.938089 0.936005 0.934142 0.934163 0.962845 0.961875 0.943422 0.933406 0.931265 0.930272 0.929005 0.926144 0.919925 0.907215 0.883696 0.843719 0.781439 0.692835 0.578398 0.445664 0.309844 0.18878 0.0986147 0.0441599 0.0175649 0.00651525 0.00232632 0.000812391 0.000279164 9.45675e-05 3.15868e-05 1.03993e-05 3.37315e-06 1.07742e-06 3.38736e-07 1.04785e-07 3.18814e-08 9.5388e-09 2.80511e-09 8.1055e-10 2.30476e-10 6.36691e-11 1.76581e-11 4.21335e-12 1.39971e-12 -2.76423e-13 2.64327e-13 6.2317e-13 -9.08599e-14 1.4376e-13 -4.67402e-13 2.34924e-13 -4.3736e-14 -7.05418e-13 -4.62037e-13 2.64459e-13 -6.45981e-13 3.21188e-13 -4.41783e-13 -1.12639e-13 -1.99182e-13 -6.36883e-13 -2.4184e-13 -3.46689e-13 -8.47393e-14 -6.56204e-13 2.64112e-13 1.67092e-13 -3.84287e-13 1.86946e-13 1.18069e-13 -6.73948e-13 2.29825e-13 -2.1561e-13 8.60503e-14 3.78392e-13 -5.02255e-13 5.19217e-13 -1.20377e-12 1.15739e-13 -2.52956e-13 -1.07982e-12 1.23615e-12 -1.03903e-13 1.31966e-13 4.51681e-13 -2.91312e-13 4.55083e-13 -7.13167e-13 0 0 -3.53979e-14 -2.76693e-14 -1.50444e-14 -6.03033e-14 -5.47099e-14 1.83635e-15 -1.67198e-14 9.52873e-15 -3.65633e-15 -1.05036e-14 -1.27878e-13 1.52814e-14 -4.12157e-15 4.26243e-14 9.90439e-14 -1.30942e-13 1.28036e-13 1.05669e-13 -8.88555e-14 -9.09035e-14 4.09633e-14 -2.11838e-13 -8.30052e-14 -8.45513e-14 -9.59874e-14 -4.11343e-13 -3.03157e-14 -1.22584e-13 -3.16819e-13 -4.32592e-15 1.71194e-13 -6.09847e-14 4.26566e-14 -5.98744e-14 3.0051e-14 2.19048e-14 -3.07548e-13 -1.39294e-13 -1.051e-13 -2.23843e-13 -8.06658e-14 -1.41758e-13 2.64277e-13 -5.30065e-14 -1.74862e-13 2.80808e-13 -2.32796e-14 1.92771e-13 -4.07272e-13 3.44984e-14 -7.09646e-14 -5.85788e-13 4.02297e-13 3.63442e-14 7.31432e-14 -3.67965e-13 -1.39149e-13 -1.56506e-14 -3.46966e-14 6.64994e-14 -7.65886e-13 -1.50913e-13 1.15777e-13 -3.91472e-13 6.13906e-14 7.57433e-13 6.26744e-12 5.51395e-11 5.03574e-10 4.28705e-09 3.35238e-08 2.39431e-07 1.55278e-06 9.08065e-06 4.74881e-05 0.000219828 0.000889527 0.00309942 0.00915191 0.0226443 0.0469862 0.0826391 0.126334 0.17372 0.221945 0.269878 0.317383 0.364317 0.410605 0.456186 0.501006 0.545016 0.588156 0.63035 0.671486 0.711398 0.749851 0.786512 0.820932 0.85254 0.880663 0.904593 0.923703 0.937603 0.946454 0.946478 0.945756 0.944176 0.942234 0.940154 0.938089 0.936005 0.934142 0.934163 0.962845 0.961875 0.943422 0.933406 0.931265 0.930272 0.929005 0.926144 0.919925 0.907215 0.883696 0.843719 0.781439 0.692835 0.578398 0.445664 0.309844 0.18878 0.0986147 0.0441599 0.0175649 0.00651525 0.00232632 0.000812391 0.000279164 9.45675e-05 3.15868e-05 1.03993e-05 3.37315e-06 1.07742e-06 3.38737e-07 1.04784e-07 3.18825e-08 9.53828e-09 2.80535e-09 8.11853e-10 2.28379e-10 6.40749e-11 1.72322e-11 5.28034e-12 1.23126e-13 -2.38155e-13 6.27461e-13 1.27876e-12 7.18955e-13 -8.66492e-13 -1.70662e-13 -6.87836e-13 2.35702e-13 -3.43246e-13 -4.80789e-13 -6.67371e-13 5.16883e-13 -2.3252e-13 2.17952e-13 -1.57166e-13 1.84264e-13 -9.8107e-13 -6.54669e-13 -9.12721e-14 -2.50426e-13 2.92818e-13 -6.36034e-13 -1.80622e-13 3.86216e-13 -2.24008e-13 -3.31929e-13 1.29952e-13 -5.50442e-13 1.03424e-12 -2.58797e-13 -6.98616e-13 3.10266e-13 -4.47078e-13 3.93873e-13 -3.45297e-13 -7.93542e-13 1.94516e-13 1.26737e-13 6.54402e-13 2.72746e-13 -1.54589e-13 1.11729e-12 -7.42156e-13 -3.0779e-13 0
				</DataArray>
				<DataArray Name="VitesseY" type="Float32" format="ascii">