<?xml version="1.0"?>
<VTKFile type="PolyData">
	<PolyData>
		<Piece NumberOfPoints="1206" NumberOfPolys="1000">
			<Points>
				<DataArray type="Float32" NumberOfComponents="3" format="ascii">
 0 0 0 0.005 0 0 0.01 0 0 0.015 0 0 0.02 0 0 0.025 0 0 0.03 0 0 0.035 0 0 0.04 0 0 0.045 0 0 0.05 0 0 0.055 0 0 0.06 0 0 0.065 0 0 0.07 0 0 0.075 0 0 0.08 0 0 0.085 0 0 0.09 0 0 0.095 0 0 0.1 0 0 0.105 0 0 0.11 0 0 0.115 0 0 0.12 0 0 0.125 0 0 0.13 0 0 0.135 0 0 0.14 0 0 0.145 0 0 0.15 0 0 0.155 0 0 0.16 0 0 0.165 0 0 0.17 0 0 0.175 0 0 0.18 0 0 0.185 0 0 0.19 0 0 0.195 0 0 0.2 0 0 0.205 0 0 0.21 0 0 0.215 0 0 0.22 0 0 0.225 0 0 0.23 0 0 0.235 0 0 0.24 0 0 0.245 0 0 0.25 0 0 0.255 0 0 0.26 0 0 0.265 0 0 0.27 0 0 0.275 0 0 0.28 0 0 0.285 0 0 0.29 0 0 0.295 0 0 0.3 0 0 0.305 0 0 0.31 0 0 0.315 0 0 0.32 0 0 0.325 0 0 0.33 0 0 0.335 0 0 0.34 0 0 0.345 0 0 0.35 0 0 0.355 0 0 0.36 0 0 0.365 0 0 0.37 0 0 0.375 0 0 0.38 0 0 0.385 0 0 0.39 0 0 0.395 0 0 0.4 0 0 0.405 0 0 0.41 0 0 0.415 0 0 0.42 0 0 0.425 0 0 0.43 0 0 0.435 0 0 0.44 0 0 0.445 0 0 0.45 0 0 0.455 0 0 0.46 0 0 0.465 0 0 0.47 0 0 0.475 0 0 0.48 0 0 0.485 0 0 0.49 0 0 0.495 0 0 0.5 0 0 0.505 0 0 0.51 0 0 0.515 0 0 0.52 0 0 0.525 0 0 0.53 0 0 0.535 0 0 0.54 0 0 0.545 0 0 0.55 0 0 0.555 0 0 0.56 0 0 0.565 0 0 0.57 0 0 0.575 0 0 0.58 0 0 0.585 0 0 0.59 0 0 0.595 0 0 0.6 0 0 0.605 0 0 0.61 0 0 0.615 0 0 0.62 0 0 0.625 0 0 0.63 0 0 0.635 0 0 0.64 0 0 0.645 0 0 0.65 0 0 0.655 0 0 0.66 0 0 0.665 0 0 0.67 0 0 0.675 0 0 0.68 0 0 0.685 0 0 0.69 0 0 0.695 0 0 0.7 0 0 0.705 0 0 0.71 0 0 0.715 0 0 0.72 0 0 0.725 0 0 0.73 0 0 0.735 0 0 0.74 0 0 0.745 0 0 0.75 0 0 0.755 0 0 0.76 0 0 0.765 0 0 0.77 0 0 0.775 0 0 0.78 0 0 0.785 0 0 0.79 0 0 0.795 0 0 0.8 0 0 0.805 0 0 0.81 0 0 0.815 0 0 0.82 0 0 0.825 0 0 0.83 0 0 0.835 0 0 0.84 0 0 0.845 0 0 0.85 0 0 0.855 0 0 0.86 0 0 0.865 0 0 0.87 0 0 0.875 0 0 0.88 0 0 0.885 0 0 0.89 0 0 0.895 0 0 0.9 0 0 0.905 0 0 0.91 0 0 0.915 0 0 0.92 0 0 0.925 0 0 0.93 0 0 0.935 0 0 0.94 0 0 0.945 0 0 0.95 0 0 0.955 0 0 0.96 0 0 0.965 0 0 0.97 0 0 0.975 0 0 0.98 0 0 0.985 0 0 0.99 0 0 0.995 0 0 1 0 0 0 0.02 0 0.005 0.02 0 0.01 0.02 0 0.015 0.02 0 0.02 0.02 0 0.025 0.02 0 0.03 0.02 0 0.035 0.02 0 0.04 0.02 0 0.045 0.02 0 0.05 0.02 0 0.055 0.02 0 0.06 0.02 0 0.065 0.02 0 0.07 0.02 0 0.075 0.02 0 0.08 0.02 0 0.085 0.02 0 0.09 0.02 0 0.095 0.02 0 0.1 0.02 0 0.105 0.02 0 0.11 0.02 0 0.115 0.02 0 0.12 0.02 0 0.125 0.02 0 0.13 0.02 0 0.135 0.02 0 0.14 0.02 0 0.145 0.02 0 0.15 0.02 0 0.155 0.02 0 0.16 0.02 0 0.165 0.02 0 0.17 0.02 0 0.175 0.02 0 0.18 0.02 0 0.185 0.02 0 0.19 0.02 0 0.195 0.02 0 0.2 0.02 0 0.205 0.02 0 0.21 0.02 0 0.215 0.02 0 0.22 0.02 0 0.225 0.02 0 0.23 0.02 0 0.235 0.02 0 0.24 0.02 0 0.245 0.02 0 0.25 0.02 0 0.255 0.02 0 0.26 0.02 0 0.265 0.02 0 0.27 0.02 0 0.275 0.02 0 0.28 0.02 0 0.285 0.02 0 0.29 0.02 0 0.295 0.02 0 0.3 0.02 0 0.305 0.02 0 0.31 0.02 0 0.315 0.02 0 0.32 0.02 0 0.325 0.02 0 0.33 0.02 0 0.335 0.02 0 0.34 0.02 0 0.345 0.02 0 0.35 0.02 0 0.355 0.02 0 0.36 0.02 0 0.365 0.02 0 0.37 0.02 0 0.375 0.02 0 0.38 0.02 0 0.385 0.02 0 0.39 0.02 0 0.395 0.02 0 0.4 0.02 0 0.405 0.02 0 0.41 0.02 0 0.415 0.02 0 0.42 0.02 0 0.425 0.02 0 0.43 0.02 0 0.435 0.02 0 0.44 0.02 0 0.445 0.02 0 0.45 0.02 0 0.455 0.02 0 0.46 0.02 0 0.465 0.02 0 0.47 0.02 0 0.475 0.02 0 0.48 0.02 0 0.485 0.02 0 0.49 0.02 0 0.495 0.02 0 0.5 0.02 0 0.505 0.02 0 0.51 0.02 0 0.515 0.02 0 0.52 0.02 0 0.525 0.02 0 0.53 0.02 0 0.535 0.02 0 0.54 0.02 0 0.545 0.02 0 0.55 0.02 0 0.555 0.02 0 0.56 0.02 0 0.565 0.02 0 0.57 0.02 0 0.575 0.02 0 0.58 0.02 0 0.585 0.02 0 0.59 0.02 0 0.595 0.02 0 0.6 0.02 0 0.605 0.02 0 0.61 0.02 0 0.615 0.02 0 0.62 0.02 0 0.625 0.02 0 0.63 0.02 0 0.635 0.02 0 0.64 0.02 0 0.645 0.02 0 0.65 0.02 0 0.655 0.02 0 0.66 0.02 0 0.665 0.02 0 0.67 0.02 0 0.675 0.02 0 0.68 0.02 0 0.685 0.02 0 0.69 0.02 0 0.695 0.02 0 0.7 0.02 0 0.705 0.02 0 0.71 0.02 0 0.715 0.02 0 0.72 0.02 0 0.725 0.02 0 0.73 0.02 0 0.735 0.02 0 0.74 0.02 0 0.745 0.02 0 0.75 0.02 0 0.755 0.02 0 0.76 0.02 0 0.765 0.02 0 0.77 0.02 0 0.775 0.02 0 0.78 0.02 0 0.785 0.02 0 0.79 0.02 0 0.795 0.02 0 0.8 0.02 0 0.805 0.02 0 0.81 0.02 0 0.815 0.02 0 0.82 0.02 0 0.825 0.02 0 0.83 0.02 0 0.835 0.02 0 0.84 0.02 0 0.845 0.02 0 0.85 0.02 0 0.855 0.02 0 0.86 0.02 0 0.865 0.02 0 0.87 0.02 0 0.875 0.02 0 0.88 0.02 0 0.885 0.02 0 0.89 0.02 0 0.895 0.02 0 0.9 0.02 0 0.905 0.02 0 0.91 0.02 0 0.915 0.02 0 0.92 0.02 0 0.925 0.02 0 0.93 0.02 0 0.935 0.02 0 0.94 0.02 0 0.945 0.02 0 0.95 0.02 0 0.955 0.02 0 0.96 0.02 0 0.965 0.02 0 0.97 0.02 0 0.975 0.02 0 0.98 0.02 0 0.985 0.02 0 0.99 0.02 0 0.995 0.02 0 1 0.02 0 0 0.04 0 0.005 0.04 0 0.01 0.04 0 0.015 0.04 0 0.02 0.04 0 0.025 0.04 0 0.03 0.04 0 0.035 0.04 0 0.04 0.04 0 0.045 0.04 0 0.05 0.04 0 0.055 0.04 0 0.06 0.04 0 0.065 0.04 0 0.07 0.04 0 0.075 0.04 0 0.08 0.04 0 0.085 0.04 0 0.09 0.04 0 0.095 0.04 0 0.1 0.04 0 0.105 0.04 0 0.11 0.04 0 0.115 0.04 0 0.12 0.04 0 0.125 0.04 0 0.13 0.04 0 0.135 0.04 0 0.14 0.04 0 0.145 0.04 0 0.15 0.04 0 0.155 0.04 0 0.16 0.04 0 0.165 0.04 0 0.17 0.04 0 0.175 0.04 0 0.18 0.04 0 0.185 0.04 0 0.19 0.04 0 0.195 0.04 0 0.2 0.04 0 0.205 0.04 0 0.21 0.04 0 0.215 0.04 0 0.22 0.04 0 0.225 0.04 0 0.23 0.04 0 0.235 0.04 0 0.24 0.04 0 0.245 0.04 0 0.25 0.04 0 0.255 0.04 0 0.26 0.04 0 0.265 0.04 0 0.27 0.04 0 0.275 0.04 0 0.28 0.04 0 0.285 0.04 0 0.29 0.04 0 0.295 0.04 0 0.3 0.04 0 0.305 0.04 0 0.31 0.04 0 0.315 0.04 0 0.32 0.04 0 0.325 0.04 0 0.33 0.04 0 0.335 0.04 0 0.34 0.04 0 0.345 0.04 0 0.35 0.04 0 0.355 0.04 0 0.36 0.04 0 0.365 0.04 0 0.37 0.04 0 0.375 0.04 0 0.38 0.04 0 0.385 0.04 0 0.39 0.04 0 0.395 0.04 0 0.4 0.04 0 0.405 0.04 0 0.41 0.04 0 0.415 0.04 0 0.42 0.04 0 0.425 0.04 0 0.43 0.04 0 0.435 0.04 0 0.44 0.04 0 0.445 0.04 0 0.45 0.04 0 0.455 0.04 0 0.46 0.04 0 0.465 0.04 0 0.47 0.04 0 0.475 0.04 0 0.48 0.04 0 0.485 0.04 0 0.49 0.04 0 0.495 0.04 0 0.5 0.04 0 0.505 0.04 0 0.51 0.04 0 0.515 0.04 0 0.52 0.04 0 0.525 0.04 0 0.53 0.04 0 0.535 0.04 0 0.54 0.04 0 0.545 0.04 0 0.55 0.04 0 0.555 0.04 0 0.56 0.04 0 0.565 0.04 0 0.57 0.04 0 0.575 0.04 0 0.58 0.04 0 0.585 0.04 0 0.59 0.04 0 0.595 0.04 0 0.6 0.04 0 0.605 0.04 0 0.61 0.04 0 0.615 0.04 0 0.62 0.04 0 0.625 0.04 0 0.63 0.04 0 0.635 0.04 0 0.64 0.04 0 0.645 0.04 0 0.65 0.04 0 0.655 0.04 0 0.66 0.04 0 0.665 0.04 0 0.67 0.04 0 0.675 0.04 0 0.68 0.04 0 0.685 0.04 0 0.69 0.04 0 0.695 0.04 0 0.7 0.04 0 0.705 0.04 0 0.71 0.04 0 0.715 0.04 0 0.72 0.04 0 0.725 0.04 0 0.73 0.04 0 0.735 0.04 0 0.74 0.04 0 0.745 0.04 0 0.75 0.04 0 0.755 0.04 0 0.76 0.04 0 0.765 0.04 0 0.77 0.04 0 0.775 0.04 0 0.78 0.04 0 0.785 0.04 0 0.79 0.04 0 0.795 0.04 0 0.8 0.04 0 0.805 0.04 0 0.81 0.04 0 0.815 0.04 0 0.82 0.04 0 0.825 0.04 0 0.83 0.04 0 0.835 0.04 0 0.84 0.04 0 0.845 0.04 0 0.85 0.04 0 0.855 0.04 0 0.86 0.04 0 0.865 0.04 0 0.87 0.04 0 0.875 0.04 0 0.88 0.04 0 0.885 0.04 0 0.89 0.04 0 0.895 0.04 0 0.9 0.04 0 0.905 0.04 0 0.91 0.04 0 0.915 0.04 0 0.92 0.04 0 0.925 0.04 0 0.93 0.04 0 0.935 0.04 0 0.94 0.04 0 0.945 0.04 0 0.95 0.04 0 0.955 0.04 0 0.96 0.04 0 0.965 0.04 0 0.97 0.04 0 0.975 0.04 0 0.98 0.04 0 0.985 0.04 0 0.99 0.04 0 0.995 0.04 0 1 0.04 0 0 0.06 0 0.005 0.06 0 0.01 0.06 0 0.015 0.06 0 0.02 0.06 0 0.025 0.06 0 0.03 0.06 0 0.035 0.06 0 0.04 0.06 0 0.045 0.06 0 0.05 0.06 0 0.055 0.06 0 0.06 0.06 0 0.065 0.06 0 0.07 0.06 0 0.075 0.06 0 0.08 0.06 0 0.085 0.06 0 0.09 0.06 0 0.095 0.06 0 0.1 0.06 0 0.105 0.06 0 0.11 0.06 0 0.115 0.06 0 0.12 0.06 0 0.125 0.06 0 0.13 0.06 0 0.135 0.06 0 0.14 0.06 0 0.145 0.06 0 0.15 0.06 0 0.155 0.06 0 0.16 0.06 0 0.165 0.06 0 0.17 0.06 0 0.175 0.06 0 0.18 0.06 0 0.185 0.06 0 0.19 0.06 0 0.195 0.06 0 0.2 0.06 0 0.205 0.06 0 0.21 0.06 0 0.215 0.06 0 0.22 0.06 0 0.225 0.06 0 0.23 0.06 0 0.235 0.06 0 0.24 0.06 0 0.245 0.06 0 0.25 0.06 0 0.255 0.06 0 0.26 0.06 0 0.265 0.06 0 0.27 0.06 0 0.275 0.06 0 0.28 0.06 0 0.285 0.06 0 0.29 0.06 0 0.295 0.06 0 0.3 0.06 0 0.305 0.06 0 0.31 0.06 0 0.315 0.06 0 0.32 0.06 0 0.325 0.06 0 0.33 0.06 0 0.335 0.06 0 0.34 0.06 0 0.345 0.06 0 0.35 0.06 0 0.355 0.06 0 0.36 0.06 0 0.365 0.06 0 0.37 0.06 0 0.375 0.06 0 0.38 0.06 0 0.385 0.06 0 0.39 0.06 0 0.395 0.06 0 0.4 0.06 0 0.405 0.06 0 0.41 0.06 0 0.415 0.06 0 0.42 0.06 0 0.425 0.06 0 0.43 0.06 0 0.435 0.06 0 0.44 0.06 0 0.445 0.06 0 0.45 0.06 0 0.455 0.06 0 0.46 0.06 0 0.465 0.06 0 0.47 0.06 0 0.475 0.06 0 0.48 0.06 0 0.485 0.06 0 0.49 0.06 0 0.495 0.06 0 0.5 0.06 0 0.505 0.06 0 0.51 0.06 0 0.515 0.06 0 0.52 0.06 0 0.525 0.06 0 0.53 0.06 0 0.535 0.06 0 0.54 0.06 0 0.545 0.06 0 0.55 0.06 0 0.555 0.06 0 0.56 0.06 0 0.565 0.06 0 0.57 0.06 0 0.575 0.06 0 0.58 0.06 0 0.585 0.06 0 0.59 0.06 0 0.595 0.06 0 0.6 0.06 0 0.605 0.06 0 0.61 0.06 0 0.615 0.06 0 0.62 0.06 0 0.625 0.06 0 0.63 0.06 0 0.635 0.06 0 0.64 0.06 0 0.645 0.06 0 0.65 0.06 0 0.655 0.06 0 0.66 0.06 0 0.665 0.06 0 0.67 0.06 0 0.675 0.06 0 0.68 0.06 0 0.685 0.06 0 0.69 0.06 0 0.695 0.06 0 0.7 0.06 0 0.705 0.06 0 0.71 0.06 0 0.715 0.06 0 0.72 0.06 0 0.725 0.06 0 0.73 0.06 0 0.735 0.06 0 0.74 0.06 0 0.745 0.06 0 0.75 0.06 0 0.755 0.06 0 0.76 0.06 0 0.765 0.06 0 0.77 0.06 0 0.775 0.06 0 0.78 0.06 0 0.785 0.06 0 0.79 0.06 0 0.795 0.06 0 0.8 0.06 0 0.805 0.06 0 0.81 0.06 0 0.815 0.06 0 0.82 0.06 0 0.825 0.06 0 0.83 0.06 0 0.835 0.06 0 0.84 0.06 0 0.845 0.06 0 0.85 0.06 0 0.855 0.06 0 0.86 0.06 0 0.865 0.06 0 0.87 0.06 0 0.875 0.06 0 0.88 0.06 0 0.885 0.06 0 0.89 0.06 0 0.895 0.06 0 0.9 0.06 0 0.905 0.06 0 0.91 0.06 0 0.915 0.06 0 0.92 0.06 0 0.925 0.06 0 0.93 0.06 0 0.935 0.06 0 0.94 0.06 0 0.945 0.06 0 0.95 0.06 0 0.955 0.06 0 0.96 0.06 0 0.965 0.06 0 0.97 0.06 0 0.975 0.06 0 0.98 0.06 0 0.985 0.06 0 0.99 0.06 0 0.995 0.06 0 1 0.06 0 0 0.08 0 0.005 0.08 0 0.01 0.08 0 0.015 0.08 0 0.02 0.08 0 0.025 0.08 0 0.03 0.08 0 0.035 0.08 0 0.04 0.08 0 0.045 0.08 0 0.05 0.08 0 0.055 0.08 0 0.06 0.08 0 0.065 0.08 0 0.07 0.08 0 0.075 0.08 0 0.08 0.08 0 0.085 0.08 0 0.09 0.08 0 0.095 0.08 0 0.1 0.08 0 0.105 0.08 0 0.11 0.08 0 0.115 0.08 0 0.12 0.08 0 0.125 0.08 0 0.13 0.08 0 0.135 0.08 0 0.14 0.08 0 0.145 0.08 0 0.15 0.08 0 0.155 0.08 0 0.16 0.08 0 0.165 0.08 0
[...]
			<PointData Scalars="VitesseX">
				<DataArray Name="VitesseX" type="Float32" format="ascii">
 0 4.59055e-15 -8.83527e-15 -1.23637e-15 4.03563e-14 -3.62905e-14 -1.06433e-13 4.17633e-14 -4.97656e-15 8.32966e-14 -8.31431e-14 -4.52176e-14 -1.24045e-13 2.87161e-15 -8.41531e-14 -1.41123e-13 7.45273e-14 2.50043e-19 -8.205e-14 -8.65367e-14 -1.40488e-13 -8.89721e-15 7.82891e-15 -1.52024e-13 -1.76265e-13 -9.53053e-14 1.15465e-13 -1.13566e-13 -1.36809e-13 -4.52757e-14 2.38642e-14 5.47921e-14 3.58458e-14 -1.5801e-13 -6.13219e-14 -7.48407e-14 -6.39615e-14 5.43817e-14 -2.19033e-13 -2.43558e-13 -1.92359e-13 -1.51858e-13 -1.43727e-13 -4.89423e-13 -1.53926e-13 1.77018e-13 1.02488e-13 -2.46213e-14 -1.68792e-13 -1.80801e-13 1.3591e-13 6.67568e-13 1.0601e-13 -6.67904e-13 -4.95682e-13 1.09715e-13 -2.35925e-13 -1.72725e-14 -6.51939e-14 -1.20399e-13 1.08128e-13 2.01894e-13 1.12549e-13 -2.34779e-13 1.56617e-13 1.0037e-13 -3.38154e-13 -6.84805e-13 -3.96652e-15 -1.59062e-13 -6.89184e-14 -2.14691e-13 5.76418e-13 6.79551e-12 7.85324e-11 8.78811e-10 8.95421e-09 8.2363e-08 6.79025e-07 4.97552e-06 3.2077e-05 0.000179682 0.000860832 0.00345891 0.011406 0.0303755 0.0655582 0.116663 0.177246 0.240399 0.302733 0.363969 0.423774 0.482027 0.538625 0.593472 0.646444 0.697329 0.745772 0.791217 0.832861 0.869648 0.900383 0.924058 0.940305 0.949812 0.94948 0.948138 0.945719 0.943484 0.939268 0.975428 0.976832 0.954157 0.937768 0.931004 0.925137 0.91339 0.89031 0.849243 0.78369 0.689652 0.568564 0.429788 0.290512 0.170002 0.0841704 0.0353975 0.0132215 0.00460611 0.00154179 0.000502506 0.000160203 5.00154e-05 1.52907e-05 4.57597e-06 1.33998e-06 3.83815e-07 1.07507e-07 2.94407e-08 7.88175e-09 2.0627e-09 5.26731e-10 1.32576e-10 3.25018e-11 7.51207e-12 2.02869e-12 -6.04213e-13 6.16588e-13 4.97403e-13 -1.38737e-12 4.1082e-13 -6.32851e-13 6.85408e-13 -5.92397e-14 3.78942e-13 -9.3666e-13 -1.39398e-13 7.99268e-13 -1.41413e-13 1.18938e-13 -1.22979e-12 4.24983e-13 6.76715e-13 -1.44283e-13 -7.00773e-13 -2.13595e-13 3.37841e-13 9.7221e-13 -1.00867e-12 4.36442e-13 3.28458e-13 -6.87662e-13 6.14761e-13 -9.16934e-13 5.35585e-13 -2.35246e-13 -7.65789e-13 -2.51606e-13 -8.03675e-13 7.48e-13 1.63672e-13 -8.2083e-13 5.7e-13 -5.98778e-13 9.02021e-13 4.1956e-13 -1.20565e-12 -4.18832e-13 -1.11915e-12 7.9976e-13 8.53185e-14 -2.06393e-12 -2.52511e-13 1.40841e-12 8.32115e-14 -8.23909e-13 -2.708e-12 1.63351e-12 1.26875e-12 0 0 -1.08752e-14 -3.14486e-15 -5.04423e-15 -4.6077e-14 1.54299e-14 6.66598e-14 -3.65756e-14 7.54083e-15 -6.6926e-14 1.2446e-14 -1.48542e-14 -1.77193e-14 -1.13577e-13 -7.44006e-14 -1.09627e-14 -1.2468e-13 -2.35598e-14 -3.11227e-14 -1.14401e-14 -4.17593e-14 -1.12822e-13 -1.57153e-13 -3.17343e-14 5.40115e-14 -5.20527e-14 -2.85744e-13 -2.42513e-14 3.55107e-14 -3.79992e-14 -5.91084e-14 3.14365e-14 -8.28277e-14 4.6064e-14 -3.75821e-14 -4.62904e-14 -7.41201e-14 -1.94843e-13 -8.52277e-14 -1.29322e-13 -1.33411e-13 -2.04605e-13 -2.05429e-13 8.84688e-14 -2.07609e-13 -2.4593e-13 4.07045e-14 -1.34427e-14 2.02447e-13 2.98627e-13 1.6555e-13 -3.84602e-13 -2.44475e-13 1.90029e-13 -3.62234e-14 -3.9569e-13 -1.19981e-13 -1.12731e-13 -1.24534e-13 1.09371e-13 -2.1782e-13 1.08992e-13 1.11607e-13 9.1297e-14 -3.16439e-13 -1.61226e-13 -1.82779e-13 1.31312e-13 -2.37876e-13 -4.01702e-13 -1.86969e-13 3.32966e-13 8.53776e-13 6.70544e-12 7.82079e-11 8.7889e-10 8.95447e-09 8.23634e-08 6.79024e-07 4.97552e-06 3.2077e-05 0.000179682 0.000860832 0.00345891 0.011406 0.0303755 0.0655582 0.116663 0.177246 0.240399 0.302733 0.363969 0.423774 0.482027 0.538625 0.593472 0.646444 0.697329 0.745772 0.791217 0.832861 0.869648 0.900383 0.924058 0.940305 0.949812 0.94948 0.948138 0.945719 0.943484 0.939268 0.975428 0.976832 0.954157 0.937768 0.931004 0.925137 0.91339 0.89031 0.849243 0.78369 0.689652 0.568564 0.429788 0.290512 0.170002 0.0841704 0.0353975 0.0132215 0.00460611 0.00154179 0.000502506 0.000160203 5.00154e-05 1.52907e-05 4.57597e-06 1.33998e-06 3.83814e-07 1.07506e-07 2.94413e-08 7.88141e-09 2.06263e-09 5.28376e-10 1.31354e-10 3.19315e-11 8.05429e-12 1.5669e-12 1.15503e-12 -7.78069e-13 -4.65087e-13 7.23448e-13 -3.85686e-13 9.78577e-14 -7.0074e-13 2.21704e-13 -1.93871e-13 3.00007e-13 2.65771e-13 -8.57078e-13 -2.63227e-13 -2.06778e-13 5.73879e-13 -1.5941e-13 -6.04174e-13 -3.26052e-13 2.41273e-13 2.28569e-13 -2.38808e-13 -4.97342e-13 9.77216e-13 -2.36344e-13 -8.66711e-14 4.21123e-13 -7.20808e-13 6.81418e-13 -8.30384e-13 -2.10237e-13 2.38809e-13 -5.38671e-13 2.53497e-13 -8.5994e-13 -4.67064e-14 7.14141e-13 -5.75455e-13 6.10862e-13 -2.96467e-13 -4.87637e-13 4.67567e-13 -1.30394e-13 9.63719e-14 -1.28746e-12 -6.79335e-13 1.62315e-12 -7.65065e-13 -1.32984e-12 -3.10102e-13 -7.94304e-14 1.23819e-12 -1.64432e-12 -6.48309e-13 0 0 1.02533e-14 6.06302e-15 5.43984e-15 -6.79358e-15 2.01414e-14 1.9578e-14 3.01727e-14 -4.23946e-15 1.10661e-14 -2.18327e-14 -4.243e-14 -5.01734e-14 -3.29932e-14 -6.90277e-14 -5.94869e-14 -3.05019e-14 -1.66242e-13 8.69262e-14 -9.89796e-14 -8.79034e-14 -2.93187e-14 -1.24277e-14 -9.15165e-14 -1.43931e-13 -5.89281e-14 -8.46993e-15 -1.16179e-13 -6.30433e-14 -1.51956e-14 -4.69558e-14 8.86422e-15 5.96898e-14 4.96689e-14 -8.81852e-14 -7.07967e-14 -1.37651e-13 -3.20459e-14 -8.27414e-14 -1.80775e-13 -1.8169e-13 -9.81982e-14 -1.06834e-13 -3.94269e-14 2.54089e-14 -4.11705e-14 -3.67616e-14 -4.23365e-14 1.81241e-14 -3.41666e-14 -1.46026e-13 1.26143e-13 2.89924e-14 -5.3546e-14 -2.20785e-13 -6.90641e-15 -1.35396e-13 -2.70334e-13 -1.44846e-13 9.60994e-14 1.24501e-13 -1.11013e-13 -1.36058e-13 -1.29051e-13 -6.70415e-15 -1.44202e-13 2.07342e-13 -2.69611e-13 -3.96289e-13 -4.72485e-14 -1.80907e-14 2.45211e-13 7.38172e-13 6.80216e-12 7.88502e-11 8.79219e-10 8.95369e-09 8.23635e-08 6.79025e-07 4.97552e-06 3.2077e-05 0.000179682 0.000860832 0.00345891 0.011406 0.0303755 0.0655582 0.116663 0.177246 0.240399 0.302733 0.363969 0.423774 0.482027 0.538625 0.593472 0.646444 0.697329 0.745772 0.791217 0.832861 0.869648 0.900383 0.924058 0.940305 0.949812 0.94948 0.948138 0.945719 0.943484 0.939268 0.975428 0.976832 0.954157 0.937768 0.931004 0.925137 0.91339 0.89031 0.849243 0.78369 0.689652 0.568564 0.429788 0.290512 0.170002 0.0841704 0.0353975 0.0132215 0.00460611 0.00154179 0.000502506 0.000160203 5.00154e-05 1.52907e-05 4.57597e-06 1.33998e-06 3.83815e-07 1.07507e-07 2.94409e-08 7.8818e-09 2.06272e-09 5.27325e-10 1.32384e-10 3.23742e-11 7.40903e-12 1.79623e-12 -2.20371e-13 3.33762e-13 4.63734e-13 -1.65968e-15 1.04201e-13 -7.60007e-13 5.86691e-14 -6.46961e-13 2.93225e-13 -3.39954e-14 -7.5984e-13 1.00214e-13 -2.94738e-13 -2.67204e-13 -7.36507e-13 -4.64355e-13 2.58011e-13 2.06313e-13 1.08451e-13 -7.07079e-13 -4.77451e-13 4.48194e-13 2.64682e-13 2.3066e-13 1.06039e-13 -1.72859e-13 -1.35368e-13 -2.41593e-13 1.95768e-13 -1.99508e-13 -2.31814e-13 -2.54548e-13 -3.95781e-13 -1.54588e-13 2.9275e-13 1.52893e-13 2.77387e-13 -2.88554e-13 -2.16831e-13 -5.83568e-14 2.77742e-13 2.86038e-13 -7.27071e-13 -8.4675e-14 -1.32396e-13 -2.58904e-13 -1.54889e-14 -2.12895e-13 -4.79961e-13 -4.34025e-13 -7.48397e-13 1.23894e-12 1.00388e-13 0 0 3.05165e-15 4.27603e-14 5.90008e-14 6.78583e-14 1.57777e-14 -2.3683e-14 4.85642e-14 -2.08589e-14 1.61589e-14 -7.74989e-14 -7.22573e-14 -2.21956e-14 7.16377e-16 -6.07943e-14 -7.7713e-14 -4.28104e-15 -3.71296e-14 -1.23723e-13 -8.597e-14 -4.10936e-14 -6.90312e-14 -2.9014e-14 -9.75641e-14 -8.68111e-14 -3.10482e-14 2.66987e-14 -9.80966e-14 -9.45283e-14 1.01308e-14 -4.92535e-14 3.99069e-14 -9.47723e-14 -1.17585e-13 -2.88654e-14 -4.81963e-14 -7.3194e-14 -2.66376e-14 -8.11813e-14 -1.49988e-13 -5.07209e-14 -8.91742e-14 -8.95594e-14 -2.52023e-13 -6.01676e-15 -3.04963e-14 -3.96704e-14 -1.06643e-14 -1.43559e-13 -2.2628e-13 3.3314e-15 3.29186e-13 -6.2889e-14 -3.62034e-13 -2.50041e-13 -5.75329e-14 -4.84022e-14 -2.77923e-13 1.42102e-13 -7.52054e-14 -7.51144e-14 2.39173e-13 2.75997e-13 -4.21302e-14 7.22454e-14 -1.27101e-13 -2.09615e-13 -5.33807e-13 -4.91459e-14 -2.95467e-13 2.00746e-13 -4.36056e-14 6.89574e-13 7.05291e-12 7.91258e-11 8.78964e-10 8.95414e-09 8.23635e-08 6.79024e-07 4.97552e-06 3.2077e-05 0.000179682 0.000860832 0.00345891 0.011406 0.0303755 0.0655582 0.116663 0.177246 0.240399 0.302733 0.363969 0.423774 0.482027 0.538625 0.593472 0.646444 0.697329 0.745772 0.791217 0.832861 0.869648 0.900383 0.924058 0.940305 0.949812 0.94948 0.948138 0.945719 0.943484 0.939268 0.975428 0.976832 0.954157 0.937768 0.931004 0.925137 0.91339 0.89031 0.849243 0.78369 0.689652 0.568564 0.429788 0.290512 0.170002 0.0841704 0.0353975 0.0132215 0.00460611 0.00154179 0.000502506 0.000160203 5.00154e-05 1.52907e-05 4.57597e-06 1.33998e-06 3.83815e-07 1.07507e-07 2.94411e-08 7.88178e-09 2.06252e-09 5.27427e-10 1.322e-10 3.26615e-11 7.63663e-12 1.42565e-12 -1.92498e-13 3.80419e-13 3.36622e-13 6.56527e-14 -6.05907e-13 -2.35614e-13 -1.03549e-13 7.07611e-14 -4.2689e-13 -7.65167e-13 -4.59975e-13 6.06799e-13 4.49694e-14 6.47952e-14 -1.36768e-12 1.62011e-13 -1.7481e-14 -2.32182e-13 -5.08308e-13 8.60854e-14 1.6926e-13 7.42606e-13 -7.58174e-13 4.0506e-14 -2.37469e-13 -2.64129e-13 -6.30291e-14 3.23013e-15 -1.55137e-13 2.53612e-14 -3.84663e-13 -1.15274e-13 -6.74992e-13 4.47305e-13 2.87053e-13 -1.62708e-13 1.19939e-13 -3.23015e-13 -4.32516e-14 2.30748e-13 2.38174e-13 -4.16117e-13 -1.05146e-13 1.88911e-14 -7.02154e-13 -8.1549e-13 -2.74467e-13 7.2051e-13 2.00512e-13 -1.06946e-12 -6.40271e-13 1.07191e-12 1.25316e-12 0 0 1.44566e-14 5.75552e-14 6.10351e-14 3.96475e-14 2.21942e-14 6.88178e-14 -2.95317e-14 -1.24164e-15 -9.60293e-14 -3.70105e-14 -4.52853e-14 3.89743e-14 -6.83372e-14 -3.63948e-14 -2.01554e-14 -9.13142e-14 5.56865e-15 -1.3567e-13 -3.06044e-14 -1.76967e-14 -1.37714e-13 -1.47376e-13 2.36582e-15 1.54583e-13 4.51491e-14 -1.52553e-13 3.57005e-15 -2.29818e-14 -7.33113e-14 -1.84919e-13 -6.88954e-14 -1.71719e-13 -5.58286e-14 2.79363e-14 -2.41813e-14 -1.2302e-13 -1.88378e-13 -1.01575e-13 -4.46169e-14 9.16261e-15 -1.37679e-13 -9.55253e-14 4.41662e-14 -1.79853e-13 -2.68145e-13 3.64039e-14 7.04326e-14 8.51238e-14 2.10773e-13 1.62496e-13 -4.57711e-13 -1.71787e-13 1.86959e-14 -6.885e-14 -4.70248e-13 -1.05343e-13 -1.92237e-13 -1.23547e-13 -1.47432e-14 -2.72607e-13 3.58669e-13 3.84534e-13 2.42839e-13 -2.56419e-13 -2.16487e-13 -4.25498e-13 -4.25852e-15 -2.00434e-13 -3.65526e-13 1.39144e-13 4.86952e-13 1.16725e-12 6.94118e-12 7.87385e-11 8.78538e-10 8.95455e-09 8.23637e-08 6.79024e-07 4.97552e-06 3.2077e-05 0.000179682 0.000860832 0.00345891 0.011406 0.0303755 0.0655582 0.116663 0.177246 0.240399 0.302733 0.363969 0.423774 0.482027 0.538625 0.593472 0.646444 0.697329 0.745772 0.791217 0.832861 0.869648 0.900383 0.924058 0.940305 0.949812 0.94948 0.948138 0.945719 0.943484 0.939268 0.975428 0.976832 0.954157 0.937768 0.931004 0.925137 0.91339 0.89031 0.849243 0.78369 0.689652 0.568564 0.429788 0.290512 0.170002 0.0841704 0.0353975 0.0132215 0.00460611 0.00154179 0.000502506 0.000160203 5.00154e-05 1.52907e-05 4.57597e-06 1.33998e-06 3.83815e-07 1.07507e-07 2.94417e-08 7.88165e-09 2.06251e-09 5.28399e-10 1.31418e-10 3.21198e-11 8.12834e-12 1.16855e-12 1.20786e-12 -9.56864e-13 -4.43509e-13 4.66693e-13 -9.89484e-13 2.42783e-13 -9.04441e-13 1.15144e-12 -6.9416e-13 -2.7491e-13 5.07401e-13 -1.97219e-13 -9.91989e-14 -2.62358e-13 2.41948e-13 -1.57388e-13 -5.73702e-13 -7.94079e-13 1.14737e-14 6.85714e-13 3.40842e-13 -6.66124e-13 3.85138e-13 -2.98072e-14 -5.51224e-13 4.06456e-13 -8.30341e-13 8.05469e-13 -1.32766e-12 -4.03593e-13 -1.12192e-13 -6.96402e-13 -2.8598e-14 -2.11143e-13 -1.59598e-13 6.27431e-13 -3.17881e-13 5.63844e-13 -4.47083e-13 -5.62464e-13 6.83076e-13 -2.93925e-13 3.70144e-13 -1.08335e-12 -6.78591e-13 1.05265e-12 -6.54747e-13 -1.21136e-12 1.21815e-13 -2.40001e-13 1.9694e-12 -1.56287e-12 -1.66174e-13 0 0 6.96576e-14 3.91703e-14 2.38004e-14 6.25015e-14 -1.40344e-14 -1.55947e-14 1.90682e-14 1.06975e-14 1.49045e-14 -7.07236e-14 -4.64251e-14 -6.66131e-14 2.59327e-14 -2.46082e-14 -1.23056e-13 8.88174e-14 -1.99967e-13 1.30154e-13 -1.50884e-13 -1.85982e-13 2.07445e-14 6.05563e-14 -7.17284e-14 -8.93628e-14 4.33387e-14 3.1151e-13 -9.40887e-14 -1.90824e-13 -1.66553e-13 -2.23162e-13 -2.07957e-13 1.66987e-13 -2.72881e-14 -4.89247e-14 -7.58232e-14 -2.90677e-13 5.64958e-14 -2.54848e-13 -1.35721e-13 -1.6915e-13 -3.60554e-14 4.15318e-14 -1.52835e-13 -3.55627e-14 1.11239e-13 9.97046e-14 7.97851e-14 -8.00721e-14 2.77172e-14 -1.68914e-13 1.15263e-13 4.35149e-13 -3.93594e-13 -5.02422e-13 6.18526e-14 -3.80637e-13 -1.61108e-13 -6.37115e-13 -2.60171e-14 3.97784e-13 8.78121e-16 -1.65709e-13 -1.05538e-13 1.18759e-13 -4.4354e-14 1.03222e-14 -4.27552e-13 -6.2337e-13 4.09726e-13 1.45633e-13 6.70914e-13 1.30055e-12 6.76548e-12 7.90423e-11 8.78615e-10 8.95347e-09 8.23637e-08 6.79025e-07 4.97552e-06 3.2077e-05 0.000179682 0.000860832 0.00345891 0.011406 0.0303755 0.0655582 0.116663 0.177246 0.240399 0.302733 0.363969 0.423774 0.482027 0.538625 0.593472 0.646444 0.697329 0.745772 0.791217 0.832861 0.869648 0.900383 0.924058 0.940305 0.949812 0.94948 0.948138 0.945719 0.943484 0.939268 0.975428 0.976832 0.954157 0.937768 0.931004 0.925137 0.91339 0.89031 0.849243 0.78369 0.689652 0.568564 0.429788 0.290512 0.170002 0.0841704 0.0353975 0.0132215 0.00460611 0.00154179 0.000502506 0.000160203 5.00154e-05 1.52907e-05 4.57597e-06 1.33998e-06 3.83815e-07 1.07507e-07 2.94411e-08 7.88226e-09 2.06288e-09 5.26575e-10 1.33072e-10 3.23038e-11 7.20496e-12 1.97315e-12 -5.54294e-13 1.65684e-13 7.94782e-13 -2.03551e-12 6.23441e-13 -1.39179e-12 6.02444e-13 3.64795e-13 8.18595e-13 -6.24152e-13 -2.55866e-13 1.10582e-12 -4.92772e-13 -6.56219e-13 -6.31307e-13 -8.23705e-13 1.28864e-12 -2.03346e-13 7.31463e-14 -8.85635e-13 2.03718e-13 4.58227e-14 -1.47117e-13 1.22982e-12 8.63699e-14 -5.34457e-13 2.51018e-13 -1.15848e-12 2.42837e-13 -1.0717e-12 -1.16209e-12 -8.45616e-13 -8.09444e-13 8.41807e-13 -5.07168e-14 -3.63046e-13 1.40004e-12 -6.23893e-13 2.53629e-13 -3.08302e-13 -6.95498e-13 6.58414e-13 -1.81546e-12 1.00084e-12 1.22632e-12 -2.09175e-12 4.86081e-13 -2.2144e-13 -4.13899e-13 1.25828e-13 -1.46182e-12 2.13046e-12 -7.25117e-14 0
				</DataArray>
				<DataArray Name="VitesseY" type="Float32" format="ascii">