<?xml version="1.0"?>
<VTKFile type="PolyData">
	<PolyData>
		<Piece NumberOfPoints="1206" NumberOfPolys="1000">
			<Points>
				<DataArray type="Float32" NumberOfComponents="3" format="ascii">
 0 0 0 0.005 0 0 0.01 0 0 0.015 0 0 0.02 0 0 0.025 0 0 0.03 0 0 0.035 0 0 0.04 0 0 0.045 0 0 0.05 0 0 0.055 0 0 0.06 0 0 0.065 0 0 0.07 0 0 0.075 0 0 0.08 0 0 0.085 0 0 0.09 0 0 0.095 0 0 0.1 0 0 0.105 0 0 0.11 0 0 0.115 0 0 0.12 0 0 0.125 0 0 0.13 0 0 0.135 0 0 0.14 0 0 0.145 0 0 0.15 0 0 0.155 0 0 0.16 0 0 0.165 0 0 0.17 0 0 0.175 0 0 0.18 0 0 0.185 0 0 0.19 0 0 0.195 0 0 0.2 0 0 0.205 0 0 0.21 0 0 0.215 0 0 0.22 0 0 0.225 0 0 0.23 0 0 0.235 0 0 0.24 0 0 0.245 0 0 0.25 0 0 0.255 0 0 0.26 0 0 0.265 0 0 0.27 0 0 0.275 0 0 0.28 0 0 0.285 0 0 0.29 0 0 0.295 0 0 0.3 0 0 0.305 0 0 0.31 0 0 0.315 0 0 0.32 0 0 0.325 0 0 0.33 0 0 0.335 0 0 0.34 0 0 0.345 0 0 0.35 0 0 0.355 0 0 0.36 0 0 0.365 0 0 0.37 0 0 0.375 0 0 0.38 0 0 0.385 0 0 0.39 0 0 0.395 0 0 0.4 0 0 0.405 0 0 0.41 0 0 0.415 0 0 0.42 0 0 0.425 0 0 0.43 0 0 0.435 0 0 0.44 0 0 0.445 0 0 0.45 0 0 0.455 0 0 0.46 0 0 0.465 0 0 0.47 0 0 0.475 0 0 0.48 0 0 0.485 0 0 0.49 0 0 0.495 0 0 0.5 0 0 0.505 0 0 0.51 0 0 0.515 0 0 0.52 0 0 0.525 0 0 0.53 0 0 0.535 0 0 0.54 0 0 0.545 0 0 0.55 0 0 0.555 0 0 0.56 0 0 0.565 0 0 0.57 0 0 0.575 0 0 0.58 0 0 0.585 0 0 0.59 0 0 0.595 0 0 0.6 0 0 0.605 0 0 0.61 0 0 0.615 0 0 0.62 0 0 0.625 0 0 0.63 0 0 0.635 0 0 0.64 0 0 0.645 0 0 0.65 0 0 0.655 0 0 0.66 0 0 0.665 0 0 0.67 0 0 0.675 0 0 0.68 0 0 0.685 0 0 0.69 0 0 0.695 0 0 0.7 0 0 0.705 0 0 0.71 0 0 0.715 0 0 0.72 0 0 0.725 0 0 0.73 0 0 0.735 0 0 0.74 0 0 0.745 0 0 0.75 0 0 0.755 0 0 0.76 0 0 0.765 0 0 0.77 0 0 0.775 0 0 0.78 0 0 0.785 0 0 0.79 0 0 0.795 0 0 0.8 0 0 0.805 0 0 0.81 0 0 0.815 0 0 0.82 0 0 0.825 0 0 0.83 0 0 0.835 0 0 0.84 0 0 0.845 0 0 0.85 0 0 0.855 0 0 0.86 0 0 0.865 0 0 0.87 0 0 0.875 0 0 0.88 0 0 0.885 0 0 0.89 0 0 0.895 0 0 0.9 0 0 0.905 0 0 0.91 0 0 0.915 0 0 0.92 0 0 0.925 0 0 0.93 0 0 0.935 0 0 0.94 0 0 0.945 0 0 0.95 0 0 0.955 0 0 0.96 0 0 0.965 0 0 0.97 0 0 0.975 0 0 0.98 0 0 0.985 0 0 0.99 0 0 0.995 0 0 1 0 0 0 0.02 0 0.005 0.02 0 0.01 0.02 0 0.015 0.02 0 0.02 0.02 0 0.025 0.02 0 0.03 0.02 0 0.035 0.02 0 0.04 0.02 0 0.045 0.02 0 0.05 0.02 0 0.055 0.02 0 0.06 0.02 0 0.065 0.02 0 0.07 0.02 0 0.075 0.02 0 0.08 0.02 0 0.085 0.02 0 0.09 0.02 0 0.095 0.02 0 0.1 0.02 0 0.105 0.02 0 0.11 0.02 0 0.115 0.02 0 0.12 0.02 0 0.125 0.02 0 0.13 0.02 0 0.135 0.02 0 0.14 0.02 0 0.145 0.02 0 0.15 0.02 0 0.155 0.02 0 0.16 0.02 0 0.165 0.02 0 0.17 0.02 0 0.175 0.02 0 0.18 0.02 0 0.185 0.02 0 0.19 0.02 0 0.195 0.02 0 0.2 0.02 0 0.205 0.02 0 0.21 0.02 0 0.215 0.02 0 0.22 0.02 0 0.225 0.02 0 0.23 0.02 0 0.235 0.02 0 0.24 0.02 0 0.245 0.02 0 0.25 0.02 0 0.255 0.02 0 0.26 0.02 0 0.265 0.02 0 0.27 0.02 0 0.275 0.02 0 0.28 0.02 0 0.285 0.02 0 0.29 0.02 0 0.295 0.02 0 0.3 0.02 0 0.305 0.02 0 0.31 0.02 0 0.315 0.02 0 0.32 0.02 0 0.325 0.02 0 0.33 0.02 0 0.335 0.02 0 0.34 0.02 0 0.345 0.02 0 0.35 0.02 0 0.355 0.02 0 0.36 0.02 0 0.365 0.02 0 0.37 0.02 0 0.375 0.02 0 0.38 0.02 0 0.385 0.02 0 0.39 0.02 0 0.395 0.02 0 0.4 0.02 0 0.405 0.02 0 0.41 0.02 0 0.415 0.02 0 0.42 0.02 0 0.425 0.02 0 0.43 0.02 0 0.435 0.02 0 0.44 0.02 0 0.445 0.02 0 0.45 0.02 0 0.455 0.02 0 0.46 0.02 0 0.465 0.02 0 0.47 0.02 0 0.475 0.02 0 0.48 0.02 0 0.485 0.02 0 0.49 0.02 0 0.495 0.02 0 0.5 0.02 0 0.505 0.02 0 0.51 0.02 0 0.515 0.02 0 0.52 0.02 0 0.525 0.02 0 0.53 0.02 0 0.535 0.02 0 0.54 0.02 0 0.545 0.02 0 0.55 0.02 0 0.555 0.02 0 0.56 0.02 0 0.565 0.02 0 0.57 0.02 0 0.575 0.02 0 0.58 0.02 0 0.585 0.02 0 0.59 0.02 0 0.595 0.02 0 0.6 0.02 0 0.605 0.02 0 0.61 0.02 0 0.615 0.02 0 0.62 0.02 0 0.625 0.02 0 0.63 0.02 0 0.635 0.02 0 0.64 0.02 0 0.645 0.02 0 0.65 0.02 0 0.655 0.02 0 0.66 0.02 0 0.665 0.02 0 0.67 0.02 0 0.675 0.02 0 0.68 0.02 0 0.685 0.02 0 0.69 0.02 0 0.695 0.02 0 0.7 0.02 0 0.705 0.02 0 0.71 0.02 0 0.715 0.02 0 0.72 0.02 0 0.725 0.02 0 0.73 0.02 0 0.735 0.02 0 0.74 0.02 0 0.745 0.02 0 0.75 0.02 0 0.755 0.02 0 0.76 0.02 0 0.765 0.02 0 0.77 0.02 0 0.775 0.02 0 0.78 0.02 0 0.785 0.02 0 0.79 0.02 0 0.795 0.02 0 0.8 0.02 0 0.805 0.02 0 0.81 0.02 0 0.815 0.02 0 0.82 0.02 0 0.825 0.02 0 0.83 0.02 0 0.835 0.02 0 0.84 0.02 0 0.845 0.02 0 0.85 0.02 0 0.855 0.02 0 0.86 0.02 0 0.865 0.02 0 0.87 0.02 0 0.875 0.02 0 0.88 0.02 0 0.885 0.02 0 0.89 0.02 0 0.895 0.02 0 0.9 0.02 0 0.905 0.02 0 0.91 0.02 0 0.915 0.02 0 0.92 0.02 0 0.925 0.02 0 0.93 0.02 0 0.935 0.02 0 0.94 0.02 0 0.945 0.02 0 0.95 0.02 0 0.955 0.02 0 0.96 0.02 0 0.965 0.02 0 0.97 0.02 0 0.975 0.02 0 0.98 0.02 0 0.985 0.02 0 0.99 0.02 0 0.995 0.02 0 1 0.02 0 0 0.04 0 0.005 0.04 0 0.01 0.04 0 0.015 0.04 0 0.02 0.04 0 0.025 0.04 0 0.03 0.04 0 0.035 0.04 0 0.04 0.04 0 0.045 0.04 0 0.05 0.04 0 0.055 0.04 0 0.06 0.04 0 0.065 0.04 0 0.07 0.04 0 0.075 0.04 0 0.08 0.04 0 0.085 0.04 0 0.09 0.04 0 0.095 0.04 0 0.1 0.04 0 0.105 0.04 0 0.11 0.04 0 0.115 0.04 0 0.12 0.04 0 0.125 0.04 0 0.13 0.04 0 0.135 0.04 0 0.14 0.04 0 0.145 0.04 0 0.15 0.04 0 0.155 0.04 0 0.16 0.04 0 0.165 0.04 0 0.17 0.04 0 0.175 0.04 0 0.18 0.04 0 0.185 0.04 0 0.19 0.04 0 0.195 0.04 0 0.2 0.04 0 0.205 0.04 0 0.21 0.04 0 0.215 0.04 0 0.22 0.04 0 0.225 0.04 0 0.23 0.04 0 0.235 0.04 0 0.24 0.04 0 0.245 0.04 0 0.25 0.04 0 0.255 0.04 0 0.26 0.04 0 0.265 0.04 0 0.27 0.04 0 0.275 0.04 0 0.28 0.04 0 0.285 0.04 0 0.29 0.04 0 0.295 0.04 0 0.3 0.04 0 0.305 0.04 0 0.31 0.04 0 0.315 0.04 0 0.32 0.04 0 0.325 0.04 0 0.33 0.04 0 0.335 0.04 0 0.34 0.04 0 0.345 0.04 0 0.35 0.04 0 0.355 0.04 0 0.36 0.04 0 0.365 0.04 0 0.37 0.04 0 0.375 0.04 0 0.38 0.04 0 0.385 0.04 0 0.39 0.04 0 0.395 0.04 0 0.4 0.04 0 0.405 0.04 0 0.41 0.04 0 0.415 0.04 0 0.42 0.04 0 0.425 0.04 0 0.43 0.04 0 0.435 0.04 0 0.44 0.04 0 0.445 0.04 0 0.45 0.04 0 0.455 0.04 0 0.46 0.04 0 0.465 0.04 0 0.47 0.04 0 0.475 0.04 0 0.48 0.04 0 0.485 0.04 0 0.49 0.04 0 0.495 0.04 0 0.5 0.04 0 0.505 0.04 0 0.51 0.04 0 0.515 0.04 0 0.52 0.04 0 0.525 0.04 0 0.53 0.04 0 0.535 0.04 0 0.54 0.04 0 0.545 0.04 0 0.55 0.04 0 0.555 0.04 0 0.56 0.04 0 0.565 0.04 0 0.57 0.04 0 0.575 0.04 0 0.58 0.04 0 0.585 0.04 0 0.59 0.04 0 0.595 0.04 0 0.6 0.04 0 0.605 0.04 0 0.61 0.04 0 0.615 0.04 0 0.62 0.04 0 0.625 0.04 0 0.63 0.04 0 0.635 0.04 0 0.64 0.04 0 0.645 0.04 0 0.65 0.04 0 0.655 0.04 0 0.66 0.04 0 0.665 0.04 0 0.67 0.04 0 0.675 0.04 0 0.68 0.04 0 0.685 0.04 0 0.69 0.04 0 0.695 0.04 0 0.7 0.04 0 0.705 0.04 0 0.71 0.04 0 0.715 0.04 0 0.72 0.04 0 0.725 0.04 0 0.73 0.04 0 0.735 0.04 0 0.74 0.04 0 0.745 0.04 0 0.75 0.04 0 0.755 0.04 0 0.76 0.04 0 0.765 0.04 0 0.77 0.04 0 0.775 0.04 0 0.78 0.04 0 0.785 0.04 0 0.79 0.04 0 0.795 0.04 0 0.8 0.04 0 0.805 0.04 0 0.81 0.04 0 0.815 0.04 0 0.82 0.04 0 0.825 0.04 0 0.83 0.04 0 0.835 0.04 0 0.84 0.04 0 0.845 0.04 0 0.85 0.04 0 0.855 0.04 0 0.86 0.04 0 0.865 0.04 0 0.87 0.04 0 0.875 0.04 0 0.88 0.04 0 0.885 0.04 0 0.89 0.04 0 0.895 0.04 0 0.9 0.04 0 0.905 0.04 0 0.91 0.04 0 0.915 0.04 0 0.92 0.04 0 0.925 0.04 0 0.93 0.04 0 0.935 0.04 0 0.94 0.04 0 0.945 0.04 0 0.95 0.04 0 0.955 0.04 0 0.96 0.04 0 0.965 0.04 0 0.97 0.04 0 0.975 0.04 0 0.98 0.04 0 0.985 0.04 0 0.99 0.04 0 0.995 0.04 0 1 0.04 0 0 0.06 0 0.005 0.06 0 0.01 0.06 0 0.015 0.06 0 0.02 0.06 0 0.025 0.06 0 0.03 0.06 0 0.035 0.06 0 0.04 0.06 0 0.045 0.06 0 0.05 0.06 0 0.055 0.06 0 0.06 0.06 0 0.065 0.06 0 0.07 0.06 0 0.075 0.06 0 0.08 0.06 0 0.085 0.06 0 0.09 0.06 0 0.095 0.06 0 0.1 0.06 0 0.105 0.06 0 0.11 0.06 0 0.115 0.06 0 0.12 0.06 0 0.125 0.06 0 0.13 0.06 0 0.135 0.06 0 0.14 0.06 0 0.145 0.06 0 0.15 0.06 0 0.155 0.06 0 0.16 0.06 0 0.165 0.06 0 0.17 0.06 0 0.175 0.06 0 0.18 0.06 0 0.185 0.06 0 0.19 0.06 0 0.195 0.06 0 0.2 0.06 0 0.205 0.06 0 0.21 0.06 0 0.215 0.06 0 0.22 0.06 0 0.225 0.06 0 0.23 0.06 0 0.235 0.06 0 0.24 0.06 0 0.245 0.06 0 0.25 0.06 0 0.255 0.06 0 0.26 0.06 0 0.265 0.06 0 0.27 0.06 0 0.275 0.06 0 0.28 0.06 0 0.285 0.06 0 0.29 0.06 0 0.295 0.06 0 0.3 0.06 0 0.305 0.06 0 0.31 0.06 0 0.315 0.06 0 0.32 0.06 0 0.325 0.06 0 0.33 0.06 0 0.335 0.06 0 0.34 0.06 0 0.345 0.06 0 0.35 0.06 0 0.355 0.06 0 0.36 0.06 0 0.365 0.06 0 0.37 0.06 0 0.375 0.06 0 0.38 0.06 0 0.385 0.06 0 0.39 0.06 0 0.395 0.06 0 0.4 0.06 0 0.405 0.06 0 0.41 0.06 0 0.415 0.06 0 0.42 0.06 0 0.425 0.06 0 0.43 0.06 0 0.435 0.06 0 0.44 0.06 0 0.445 0.06 0 0.45 0.06 0 0.455 0.06 0 0.46 0.06 0 0.465 0.06 0 0.47 0.06 0 0.475 0.06 0 0.48 0.06 0 0.485 0.06 0 0.49 0.06 0 0.495 0.06 0 0.5 0.06 0 0.505 0.06 0 0.51 0.06 0 0.515 0.06 0 0.52 0.06 0 0.525 0.06 0 0.53 0.06 0 0.535 0.06 0 0.54 0.06 0 0.545 0.06 0 0.55 0.06 0 0.555 0.06 0 0.56 0.06 0 0.565 0.06 0 0.57 0.06 0 0.575 0.06 0 0.58 0.06 0 0.585 0.06 0 0.59 0.06 0 0.595 0.06 0 0.6 0.06 0 0.605 0.06 0 0.61 0.06 0 0.615 0.06 0 0.62 0.06 0 0.625 0.06 0 0.63 0.06 0 0.635 0.06 0 0.64 0.06 0 0.645 0.06 0 0.65 0.06 0 0.655 0.06 0 0.66 0.06 0 0.665 0.06 0 0.67 0.06 0 0.675 0.06 0 0.68 0.06 0 0.685 0.06 0 0.69 0.06 0 0.695 0.06 0 0.7 0.06 0 0.705 0.06 0 0.71 0.06 0 0.715 0.06 0 0.72 0.06 0 0.725 0.06 0 0.73 0.06 0 0.735 0.06 0 0.74 0.06 0 0.745 0.06 0 0.75 0.06 0 0.755 0.06 0 0.76 0.06 0 0.765 0.06 0 0.77 0.06 0 0.775 0.06 0 0.78 0.06 0 0.785 0.06 0 0.79 0.06 0 0.795 0.06 0 0.8 0.06 0 0.805 0.06 0 0.81 0.06 0 0.815 0.06 0 0.82 0.06 0 0.825 0.06 0 0.83 0.06 0 0.835 0.06 0 0.84 0.06 0 0.845 0.06 0 0.85 0.06 0 0.855 0.06 0 0.86 0.06 0 0.865 0.06 0 0.87 0.06 0 0.875 0.06 0 0.88 0.06 0 0.885 0.06 0 0.89 0.06 0 0.895 0.06 0 0.9 0.06 0 0.905 0.06 0 0.91 0.06 0 0.915 0.06 0 0.92 0.06 0 0.925 0.06 0 0.93 0.06 0 0.935 0.06 0 0.94 0.06 0 0.945 0.06 0 0.95 0.06 0 0.955 0.06 0 0.96 0.06 0 0.965 0.06 0 0.97 0.06 0 0.975 0.06 0 0.98 0.06 0 0.985 0.06 0 0.99 0.06 0 0.995 0.06 0 1 0.06 0 0 0.08 0 0.005 0.08 0 0.01 0.08 0 0.015 0.08 0 0.02 0.08 0 0.025 0.08 0 0.03 0.08 0 0.035 0.08 0 0.04 0.08 0 0.045 0.08 0 0.05 0.08 0 0.055 0.08 0 0.06 0.08 0 0.065 0.08 0 0.07 0.08 0 0.075 0.08 0 0.08 0.08 0 0.085 0.08 0 0.09 0.08 0 0.095 0.08 0 0.1 0.08 0 0.105 0.08 0 0.11 0.08 0 0.115 0.08 0 0.12 0.08 0 0.125 0.08 0 0.13 0.08 0 0.135 0.08 0 0.14 0.08 0 0.145 0.08 0 0.15 0.08 0 0.155 0.08 0 0.16 0.08 0 0.165 0.08 0
[...]
			<PointData Scalars="VitesseX">
				<DataArray Name="VitesseX" type="Float32" format="ascii">
 0 -4.00571e-15 -4.50349e-15 -1.98872e-14 7.50308e-15 -1.28644e-14 -2.67186e-15 -4.33731e-14 6.10208e-15 -8.21665e-15 -4.13134e-14 1.44711e-14 -3.12592e-14 -2.64647e-14 -2.42719e-14 -8.75898e-14 -2.98355e-15 -2.76581e-14 -1.31203e-13 -9.80466e-16 -8.49739e-14 -9.05466e-14 -4.48927e-14 -1.16608e-13 -2.61681e-14 -1.83889e-13 -2.81025e-14 -1.88885e-14 -6.09715e-14 2.07148e-14 4.99113e-14 -9.36077e-14 4.31077e-14 -9.05529e-14 2.50924e-15 -2.48177e-13 -1.19351e-13 -1.79834e-13 -2.19946e-13 -6.12865e-14 -1.94723e-13 -1.85507e-13 1.23136e-13 -1.95009e-13 -2.28061e-13 1.21575e-13 -1.20075e-13 7.86533e-14 1.90209e-14 7.42605e-13 4.84547e-12 3.291e-11 2.15016e-10 1.32388e-09 7.67675e-09 4.17992e-08 2.131e-07 1.01367e-06 4.48101e-06 1.83238e-05 6.89375e-05 0.000237073 0.000739571 0.00207482 0.00518875 0.0114915 0.0224778 0.0389447 0.060423 0.0854451 0.112422 0.140269 0.168441 0.196695 0.224923 0.253095 0.281186 0.309177 0.337054 0.364804 0.392418 0.419885 0.447197 0.474344 0.501317 0.528105 0.554696 0.581074 0.607222 0.633116 0.658727 0.684017 0.708939 0.733431 0.757418 0.7808 0.803457 0.825238 0.845959 0.865396 0.883289 0.899337 0.913207 0.924563 0.933105 0.938653 0.941555 0.941294 0.940637 0.939712 0.938627 0.937456 0.936269 0.935114 0.934033 0.933058 0.932208 0.931486 0.930886 0.930395 0.929998 0.929672 0.929402 0.929211 0.928899 0.926451 0.941871 0.951384 0.941991 0.932209 0.928938 0.928194 0.928004 0.927951 0.927936 0.927937 0.927938 0.927927 0.927873 0.927713 0.927317 0.92643 0.924569 0.920826 0.913701 0.900708 0.878156 0.841201 0.784565 0.704089 0.59905 0.474629 0.343166 0.220797 0.123639 0.0599032 0.0257105 0.0102362 0.00392028 0.00147392 0.000549021 0.000203314 7.49352e-05 2.74922e-05 1.0038e-05 3.64629e-06 1.31719e-06 4.72998e-07 1.68776e-07 5.98174e-08 2.10499e-08 7.35184e-09 2.54741e-09 8.75589e-10 2.98048e-10 1.0015e-10 3.3085e-11 1.09418e-11 3.32832e-12 5.22237e-13 2.23621e-13 -3.38718e-13 -1.95177e-13 7.09997e-13 -4.33285e-13 2.25506e-13 -3.77668e-13 2.85009e-13 -2.64266e-13 3.44456e-13 2.56867e-13 -6.00581e-13 3.80021e-13 4.38176e-14 -1.16499e-13 4.32511e-13 1.11855e-13 1.77823e-13 2.36834e-13 -4.08127e-14 0 0 -6.16231e-15 -1.97536e-15 1.5588e-14 -2.21372e-14 -1.4187e-14 7.15727e-15 -1.63064e-14 -2.9889e-14 -1.60379e-14 2.18499e-15 -2.01179e-14 6.21018e-15 -5.59069e-14 -7.52434e-14 2.8941e-14 -6.92389e-14 -8.4345e-14 1.00251e-14 -1.11433e-13 -8.53981e-14 -6.55973e-14 -8.15404e-14 -8.30424e-14 -1.28543e-13 5.05959e-14 -8.63282e-14 -4.95376e-14 -2.84769e-14 2.19824e-14 -6.14809e-14 6.35043e-14 -9.44007e-14 -6.82816e-14 -1.94934e-13 -1.47466e-15 -1.32306e-13 -1.10833e-13 -1.80811e-13 -1.82859e-13 -1.02914e-13 -1.58415e-14 -2.51903e-13 -1.20238e-14 6.70703e-14 -1.81564e-13 -3.49922e-14 -1.5183e-13 1.3044e-13 6.90405e-13 4.85412e-12 3.30118e-11 2.15208e-10 1.32398e-09 7.67606e-09 4.17994e-08 2.13101e-07 1.01367e-06 4.48101e-06 1.83238e-05 6.89375e-05 0.000237073 0.000739571 0.00207482 0.00518875 0.0114915 0.0224778 0.0389447 0.060423 0.0854451 0.112422 0.140269 0.168441 0.196695 0.224923 0.253095 0.281186 0.309177 0.337054 0.364804 0.392418 0.419885 0.447197 0.474344 0.501317 0.528105 0.554696 0.581074 0.607222 0.633116 0.658727 0.684017 0.708939 0.733431 0.757418 0.7808 0.803457 0.825238 0.845959 0.865396 0.883289 0.899337 0.913207 0.924563 0.933105 0.938653 0.941555 0.941294 0.940637 0.939712 0.938627 0.937456 0.936269 0.935114 0.934033 0.933058 0.932208 0.931486 0.930886 0.930395 0.929998 0.929672 0.929402 0.929211 0.928899 0.926451 0.941871 0.951384 0.941991 0.932209 0.928938 0.928194 0.928004 0.927951 0.927936 0.927937 0.927938 0.927927 0.927873 0.927713 0.927317 0.92643 0.924569 0.920826 0.913701 0.900708 0.878156 0.841201 0.784565 0.704089 0.59905 0.474629 0.343166 0.220797 0.123639 0.0599032 0.0257105 0.0102362 0.00392028 0.00147392 0.000549021 0.000203314 7.49352e-05 2.74922e-05 1.0038e-05 3.64629e-06 1.31719e-06 4.72998e-07 1.68776e-07 5.98175e-08 2.10495e-08 7.35201e-09 2.54775e-09 8.75231e-10 2.98057e-10 1.00471e-10 3.33689e-11 1.05736e-11 3.14173e-12 6.05851e-13 1.15651e-13 -2.49552e-13 4.10601e-14 -1.63027e-13 4.02243e-13 -2.91639e-13 3.14645e-13 -1.17651e-13 -8.10482e-14 -1.25829e-13 -8.79702e-14 3.65037e-13 -2.09855e-13 2.63581e-13 7.06022e-13 -2.47359e-13 2.567e-13 -9.92312e-15 1.81919e-13 1.78651e-14 0 0 -1.92545e-15 4.22174e-15 -1.07028e-14 2.27128e-14 2.98449e-14 -1.45654e-14 -2.91849e-14 1.55708e-14 1.58536e-15 -3.82706e-14 -8.45475e-15 -4.69601e-14 -1.69609e-14 -8.93208e-14 -3.69058e-14 -1.03723e-14 -6.51597e-14 -8.65312e-14 -3.92175e-14 -8.17542e-14 -9.11978e-14 -1.3675e-13 -7.57493e-14 -3.91197e-14 -3.875e-14 -5.66295e-14 2.39537e-14 -5.99501e-14 -1.79714e-14 -1.46381e-14 -1.84297e-14 -4.70398e-14 -3.47689e-14 -5.89239e-14 -2.96932e-13 -3.29146e-14 -7.51335e-14 -6.99207e-14 -6.44459e-14 -1.15693e-13 -1.71267e-13 -6.08649e-14 4.43717e-14 -1.64482e-13 -6.24902e-15 -1.2043e-13 -1.39281e-13 1.1762e-13 7.3016e-13 4.98138e-12 3.29266e-11 2.15211e-10 1.32385e-09 7.67651e-09 4.17993e-08 2.13101e-07 1.01367e-06 4.48101e-06 1.83238e-05 6.89375e-05 0.000237073 0.000739571 0.00207482 0.00518875 0.0114915 0.0224778 0.0389447 0.060423 0.0854451 0.112422 0.140269 0.168441 0.196695 0.224923 0.253095 0.281186 0.309177 0.337054 0.364804 0.392418 0.419885 0.447197 0.474344 0.501317 0.528105 0.554696 0.581074 0.607222 0.633116 0.658727 0.684017 0.708939 0.733431 0.757418 0.7808 0.803457 0.825238 0.845959 0.865396 0.883289 0.899337 0.913207 0.924563 0.933105 0.938653 0.941555 0.941294 0.940637 0.939712 0.938627 0.937456 0.936269 0.935114 0.934033 0.933058 0.932208 0.931486 0.930886 0.930395 0.929998 0.929672 0.929402 0.929211 0.928899 0.926451 0.941871 0.951384 0.941991 0.932209 0.928938 0.928194 0.928004 0.927951 0.927936 0.927937 0.927938 0.927927 0.927873 0.927713 0.927317 0.92643 0.924569 0.920826 0.913701 0.900708 0.878156 0.841201 0.784565 0.704089 0.59905 0.474629 0.343166 0.220797 0.123639 0.0599032 0.0257105 0.0102362 0.00392028 0.00147392 0.000549021 0.000203314 7.49352e-05 2.74922e-05 1.0038e-05 3.64629e-06 1.31719e-06 4.72998e-07 1.68776e-07 5.98176e-08 2.10498e-08 7.3519e-09 2.54761e-09 8.75337e-10 2.98272e-10 1.00426e-10 3.33289e-11 1.07775e-11 3.07428e-12 1.03449e-12 -5.82253e-13 1.47686e-13 -2.80364e-13 -9.85842e-15 -1.53539e-13 1.4193e-13 -1.96614e-13 1.41321e-13 9.74613e-14 -2.43337e-13 -3.56405e-14 -1.22898e-13 4.06043e-13 -6.24698e-14 1.61149e-13 2.65052e-13 8.22169e-14 2.47407e-13 4.51952e-13 2.53145e-13 0 0 -7.25793e-15 -1.19729e-14 -7.76657e-15 8.00713e-15 5.48216e-16 1.11712e-15 -4.53099e-15 9.98065e-15 3.91138e-14 -4.25596e-14 -5.58489e-14 -9.79674e-15 -3.08055e-14 -6.3271e-14 -9.93712e-14 -8.1585e-14 -5.81869e-14 -1.36868e-13 5.7267e-15 -9.77467e-14 -2.44443e-14 2.68304e-14 -1.2441e-13 -2.5322e-14 -5.41081e-14 -3.05662e-14 -5.42887e-14 -1.00513e-13 5.91941e-14 -5.61807e-14 -5.77824e-14 -8.98839e-14 -5.60377e-14 -9.92788e-14 -1.2192e-13 -6.96065e-14 -1.11122e-13 -1.26258e-13 -3.83685e-14 -1.94464e-13 -5.72756e-14 -2.54933e-14 -5.25931e-14 -2.04418e-13 -4.68293e-14 -5.99593e-14 2.24825e-15 2.62885e-15 8.66769e-13 4.82512e-12 3.31592e-11 2.15153e-10 1.3241e-09 7.67629e-09 4.17993e-08 2.13101e-07 1.01367e-06 4.48101e-06 1.83238e-05 6.89375e-05 0.000237073 0.000739571 0.00207482 0.00518875 0.0114915 0.0224778 0.0389447 0.060423 0.0854451 0.112422 0.140269 0.168441 0.196695 0.224923 0.253095 0.281186 0.309177 0.337054 0.364804 0.392418 0.419885 0.447197 0.474344 0.501317 0.528105 0.554696 0.581074 0.607222 0.633116 0.658727 0.684017 0.708939 0.733431 0.757418 0.7808 0.803457 0.825238 0.845959 0.865396 0.883289 0.899337 0.913207 0.924563 0.933105 0.938653 0.941555 0.941294 0.940637 0.939712 0.938627 0.937456 0.936269 0.935114 0.934033 0.933058 0.932208 0.931486 0.930886 0.930395 0.929998 0.929672 0.929402 0.929211 0.928899 0.926451 0.941871 0.951384 0.941991 0.932209 0.928938 0.928194 0.928004 0.927951 0.927936 0.927937 0.927938 0.927927 0.927873 0.927713 0.927317 0.92643 0.924569 0.920826 0.913701 0.900708 0.878156 0.841201 0.784565 0.704089 0.59905 0.474629 0.343166 0.220797 0.123639 0.0599032 0.0257105 0.0102362 0.00392028 0.00147392 0.000549021 0.000203314 7.49352e-05 2.74922e-05 1.0038e-05 3.64629e-06 1.31719e-06 4.72998e-07 1.68776e-07 5.98174e-08 2.10499e-08 7.35186e-09 2.54765e-09 8.7545e-10 2.98057e-10 1.00652e-10 3.31199e-11 1.07496e-11 3.46191e-12 8.52089e-13 -1.00055e-13 -2.2608e-13 -2.69554e-13 1.77056e-13 7.22631e-14 -2.34763e-13 -2.60211e-13 1.06523e-13 -7.33092e-14 1.89873e-13 -4.01379e-13 2.03108e-13 -2.45623e-13 -1.44975e-13 1.88517e-13 3.10766e-13 3.54647e-13 -3.98962e-13 1.42938e-14 -7.10991e-14 0 0 -1.09283e-14 -1.30741e-14 1.20358e-14 -2.74904e-14 -3.69293e-14 9.94767e-15 2.08774e-14 -1.7477e-14 -1.13836e-14 -5.19143e-15 -7.97947e-14 2.25061e-14 -5.41649e-14 -4.9348e-14 -3.47629e-14 -9.15288e-14 -1.49848e-13 3.22631e-14 -1.07876e-13 -8.90656e-14 8.23855e-15 3.63171e-14 -7.54509e-14 -1.43236e-13 7.91852e-14 -1.38618e-14 -9.02118e-14 -6.39114e-14 4.69296e-15 -6.46604e-14 -2.35623e-14 -1.0928e-13 -6.13913e-14 -2.66144e-13 4.08738e-14 -6.65701e-14 -1.77149e-13 -1.64233e-13 -2.17203e-13 -1.13366e-13 5.07399e-14 -1.84293e-13 -5.94534e-14 1.02631e-13 -1.97745e-13 3.25999e-14 -7.99857e-14 1.02069e-13 8.47305e-13 4.80929e-12 3.32371e-11 2.15172e-10 1.32422e-09 7.67607e-09 4.17993e-08 2.13101e-07 1.01367e-06 4.48101e-06 1.83238e-05 6.89375e-05 0.000237073 0.000739571 0.00207482 0.00518875 0.0114915 0.0224778 0.0389447 0.060423 0.0854451 0.112422 0.140269 0.168441 0.196695 0.224923 0.253095 0.281186 0.309177 0.337054 0.364804 0.392418 0.419885 0.447197 0.474344 0.501317 0.528105 0.554696 0.581074 0.607222 0.633116 0.658727 0.684017 0.708939 0.733431 0.757418 0.7808 0.803457 0.825238 0.845959 0.865396 0.883289 0.899337 0.913207 0.924563 0.933105 0.938653 0.941555 0.941294 0.940637 0.939712 0.938627 0.937456 0.936269 0.935114 0.934033 0.933058 0.932208 0.931486 0.930886 0.930395 0.929998 0.929672 0.929402 0.929211 0.928899 0.926451 0.941871 0.951384 0.941991 0.932209 0.928938 0.928194 0.928004 0.927951 0.927936 0.927937 0.927938 0.927927 0.927873 0.927713 0.927317 0.92643 0.924569 0.920826 0.913701 0.900708 0.878156 0.841201 0.784565 0.704089 0.59905 0.474629 0.343166 0.220797 0.123639 0.0599032 0.0257105 0.0102362 0.00392028 0.00147392 0.000549021 0.000203314 7.49352e-05 2.74922e-05 1.0038e-05 3.64629e-06 1.31719e-06 4.72998e-07 1.68776e-07 5.98175e-08 2.10496e-08 7.35201e-09 2.5476e-09 8.75342e-10 2.98068e-10 1.00381e-10 3.37019e-11 1.06629e-11 2.85886e-12 5.45657e-13 4.87019e-13 -5.60285e-14 8.36337e-14 -5.35645e-13 4.3105e-13 -6.94529e-13 3.79655e-13 2.17536e-13 -1.88737e-13 -1.35992e-13 -5.12876e-13 6.94808e-13 -9.16972e-13 3.30984e-13 6.83943e-13 -2.94123e-13 1.23107e-13 -3.32615e-13 -2.75375e-13 -1.38678e-13 0 0 -2.87275e-15 5.68833e-15 -3.28641e-14 2.62081e-14 2.44332e-16 -2.8456e-14 -1.83135e-14 4.21063e-14 -7.39649e-14 -4.74883e-14 -1.0094e-14 -7.2994e-14 4.70857e-15 -2.45808e-14 -9.00666e-14 9.48622e-14 -1.72609e-13 1.39457e-14 -8.37555e-14 -6.0324e-14 -7.63818e-14 -1.36338e-13 -4.10297e-15 -8.31499e-14 -9.59939e-14 6.47037e-14 5.6248e-14 -5.07152e-14 -1.68195e-13 1.26637e-13 -1.89036e-13 9.90364e-14 -3.42345e-14 -5.92014e-14 -5.13504e-13 8.55049e-14 -2.40488e-13 -7.41161e-14 -1.82128e-13 -5.80881e-14 -2.80328e-13 1.87611e-13 -9.59381e-14 -7.70696e-14 1.70374e-13 -1.05833e-13 -6.07157e-14 1.92261e-13 7.83189e-13 5.06836e-12 3.28955e-11 2.15059e-10 1.32385e-09 7.67722e-09 4.17992e-08 2.13101e-07 1.01367e-06 4.48101e-06 1.83238e-05 6.89375e-05 0.000237073 0.000739571 0.00207482 0.00518875 0.0114915 0.0224778 0.0389447 0.060423 0.0854451 0.112422 0.140269 0.168441 0.196695 0.224923 0.253095 0.281186 0.309177 0.337054 0.364804 0.392418 0.419885 0.447197 0.474344 0.501317 0.528105 0.554696 0.581074 0.607222 0.633116 0.658727 0.684017 0.708939 0.733431 0.757418 0.7808 0.803457 0.825238 0.845959 0.865396 0.883289 0.899337 0.913207 0.924563 0.933105 0.938653 0.941555 0.941294 0.940637 0.939712 0.938627 0.937456 0.936269 0.935114 0.934033 0.933058 0.932208 0.931486 0.930886 0.930395 0.929998 0.929672 0.929402 0.929211 0.928899 0.926451 0.941871 0.951384 0.941991 0.932209 0.928938 0.928194 0.928004 0.927951 0.927936 0.927937 0.927938 0.927927 0.927873 0.927713 0.927317 0.92643 0.924569 0.920826 0.913701 0.900708 0.878156 0.841201 0.784565 0.704089 0.59905 0.474629 0.343166 0.220797 0.123639 0.0599032 0.0257105 0.0102362 0.00392028 0.00147392 0.000549021 0.000203314 7.49352e-05 2.74922e-05 1.0038e-05 3.64629e-06 1.31719e-06 4.72998e-07 1.68776e-07 5.98177e-08 2.10498e-08 7.35189e-09 2.54704e-09 8.75583e-10 2.985e-10 9.95178e-11 3.41691e-11 1.1176e-11 1.98732e-12 7.66653e-13 1.96051e-15 7.95863e-13 -1.31648e-13 -4.09067e-13 -8.27274e-13 1.73113e-13 -1.20454e-13 1.02498e-12 -1.38103e-13 -5.4229e-13 1.38531e-13 -5.9305e-13 2.69119e-13 3.43632e-13 -2.15393e-13 2.47556e-13 -7.00192e-13 8.25178e-13 1.97562e-13 2.9459e-13 0
				</DataArray>
				<DataArray Name="VitesseY" type="Float32" format="ascii">