<?xml version="1.0"?>
<VTKFile type="PolyData">
	<PolyData>
		<Piece NumberOfPoints="1206" NumberOfPolys="1000">
			<Points>
				<DataArray type="Float32" NumberOfComponents="3" format="ascii">
 0 0 0 0.005 0 0 0.01 0 0 0.015 0 0 0.02 0 0 0.025 0 0 0.03 0 0 0.035 0 0 0.04 0 0 0.045 0 0 0.05 0 0 0.055 0 0 0.06 0 0 0.065 0 0 0.07 0 0 0.075 0 0 0.08 0 0 0.085 0 0 0.09 0 0 0.095 0 0 0.1 0 0 0.105 0 0 0.11 0 0 0.115 0 0 0.12 0 0 0.125 0 0 0.13 0 0 0.135 0 0 0.14 0 0 0.145 0 0 0.15 0 0 0.155 0 0 0.16 0 0 0.165 0 0 0.17 0 0 0.175 0 0 0.18 0 0 0.185 0 0 0.19 0 0 0.195 0 0 0.2 0 0 0.205 0 0 0.21 0 0 0.215 0 0 0.22 0 0 0.225 0 0 0.23 0 0 0.235 0 0 0.24 0 0 0.245 0 0 0.25 0 0 0.255 0 0 0.26 0 0 0.265 0 0 0.27 0 0 0.275 0 0 0.28 0 0 0.285 0 0 0.29 0 0 0.295 0 0 0.3 0 0 0.305 0 0 0.31 0 0 0.315 0 0 0.32 0 0 0.325 0 0 0.33 0 0 0.335 0 0 0.34 0 0 0.345 0 0 0.35 0 0 0.355 0 0 0.36 0 0 0.365 0 0 0.37 0 0 0.375 0 0 0.38 0 0 0.385 0 0 0.39 0 0 0.395 0 0 0.4 0 0 0.405 0 0 0.41 0 0 0.415 0 0 0.42 0 0 0.425 0 0 0.43 0 0 0.435 0 0 0.44 0 0 0.445 0 0 0.45 0 0 0.455 0 0 0.46 0 0 0.465 0 0 0.47 0 0 0.475 0 0 0.48 0 0 0.485 0 0 0.49 0 0 0.495 0 0 0.5 0 0 0.505 0 0 0.51 0 0 0.515 0 0 0.52 0 0 0.525 0 0 0.53 0 0 0.535 0 0 0.54 0 0 0.545 0 0 0.55 0 0 0.555 0 0 0.56 0 0 0.565 0 0 0.57 0 0 0.575 0 0 0.58 0 0 0.585 0 0 0.59 0 0 0.595 0 0 0.6 0 0 0.605 0 0 0.61 0 0 0.615 0 0 0.62 0 0 0.625 0 0 0.63 0 0 0.635 0 0 0.64 0 0 0.645 0 0 0.65 0 0 0.655 0 0 0.66 0 0 0.665 0 0 0.67 0 0 0.675 0 0 0.68 0 0 0.685 0 0 0.69 0 0 0.695 0 0 0.7 0 0 0.705 0 0 0.71 0 0 0.715 0 0 0.72 0 0 0.725 0 0 0.73 0 0 0.735 0 0 0.74 0 0 0.745 0 0 0.75 0 0 0.755 0 0 0.76 0 0 0.765 0 0 0.77 0 0 0.775 0 0 0.78 0 0 0.785 0 0 0.79 0 0 0.795 0 0 0.8 0 0 0.805 0 0 0.81 0 0 0.815 0 0 0.82 0 0 0.825 0 0 0.83 0 0 0.835 0 0 0.84 0 0 0.845 0 0 0.85 0 0 0.855 0 0 0.86 0 0 0.865 0 0 0.87 0 0 0.875 0 0 0.88 0 0 0.885 0 0 0.89 0 0 0.895 0 0 0.9 0 0 0.905 0 0 0.91 0 0 0.915 0 0 0.92 0 0 0.925 0 0 0.93 0 0 0.935 0 0 0.94 0 0 0.945 0 0 0.95 0 0 0.955 0 0 0.96 0 0 0.965 0 0 0.97 0 0 0.975 0 0 0.98 0 0 0.985 0 0 0.99 0 0 0.995 0 0 1 0 0 0 0.02 0 0.005 0.02 0 0.01 0.02 0 0.015 0.02 0 0.02 0.02 0 0.025 0.02 0 0.03 0.02 0 0.035 0.02 0 0.04 0.02 0 0.045 0.02 0 0.05 0.02 0 0.055 0.02 0 0.06 0.02 0 0.065 0.02 0 0.07 0.02 0 0.075 0.02 0 0.08 0.02 0 0.085 0.02 0 0.09 0.02 0 0.095 0.02 0 0.1 0.02 0 0.105 0.02 0 0.11 0.02 0 0.115 0.02 0 0.12 0.02 0 0.125 0.02 0 0.13 0.02 0 0.135 0.02 0 0.14 0.02 0 0.145 0.02 0 0.15 0.02 0 0.155 0.02 0 0.16 0.02 0 0.165 0.02 0 0.17 0.02 0 0.175 0.02 0 0.18 0.02 0 0.185 0.02 0 0.19 0.02 0 0.195 0.02 0 0.2 0.02 0 0.205 0.02 0 0.21 0.02 0 0.215 0.02 0 0.22 0.02 0 0.225 0.02 0 0.23 0.02 0 0.235 0.02 0 0.24 0.02 0 0.245 0.02 0 0.25 0.02 0 0.255 0.02 0 0.26 0.02 0 0.265 0.02 0 0.27 0.02 0 0.275 0.02 0 0.28 0.02 0 0.285 0.02 0 0.29 0.02 0 0.295 0.02 0 0.3 0.02 0 0.305 0.02 0 0.31 0.02 0 0.315 0.02 0 0.32 0.02 0 0.325 0.02 0 0.33 0.02 0 0.335 0.02 0 0.34 0.02 0 0.345 0.02 0 0.35 0.02 0 0.355 0.02 0 0.36 0.02 0 0.365 0.02 0 0.37 0.02 0 0.375 0.02 0 0.38 0.02 0 0.385 0.02 0 0.39 0.02 0 0.395 0.02 0 0.4 0.02 0 0.405 0.02 0 0.41 0.02 0 0.415 0.02 0 0.42 0.02 0 0.425 0.02 0 0.43 0.02 0 0.435 0.02 0 0.44 0.02 0 0.445 0.02 0 0.45 0.02 0 0.455 0.02 0 0.46 0.02 0 0.465 0.02 0 0.47 0.02 0 0.475 0.02 0 0.48 0.02 0 0.485 0.02 0 0.49 0.02 0 0.495 0.02 0 0.5 0.02 0 0.505 0.02 0 0.51 0.02 0 0.515 0.02 0 0.52 0.02 0 0.525 0.02 0 0.53 0.02 0 0.535 0.02 0 0.54 0.02 0 0.545 0.02 0 0.55 0.02 0 0.555 0.02 0 0.56 0.02 0 0.565 0.02 0 0.57 0.02 0 0.575 0.02 0 0.58 0.02 0 0.585 0.02 0 0.59 0.02 0 0.595 0.02 0 0.6 0.02 0 0.605 0.02 0 0.61 0.02 0 0.615 0.02 0 0.62 0.02 0 0.625 0.02 0 0.63 0.02 0 0.635 0.02 0 0.64 0.02 0 0.645 0.02 0 0.65 0.02 0 0.655 0.02 0 0.66 0.02 0 0.665 0.02 0 0.67 0.02 0 0.675 0.02 0 0.68 0.02 0 0.685 0.02 0 0.69 0.02 0 0.695 0.02 0 0.7 0.02 0 0.705 0.02 0 0.71 0.02 0 0.715 0.02 0 0.72 0.02 0 0.725 0.02 0 0.73 0.02 0 0.735 0.02 0 0.74 0.02 0 0.745 0.02 0 0.75 0.02 0 0.755 0.02 0 0.76 0.02 0 0.765 0.02 0 0.77 0.02 0 0.775 0.02 0 0.78 0.02 0 0.785 0.02 0 0.79 0.02 0 0.795 0.02 0 0.8 0.02 0 0.805 0.02 0 0.81 0.02 0 0.815 0.02 0 0.82 0.02 0 0.825 0.02 0 0.83 0.02 0 0.835 0.02 0 0.84 0.02 0 0.845 0.02 0 0.85 0.02 0 0.855 0.02 0 0.86 0.02 0 0.865 0.02 0 0.87 0.02 0 0.875 0.02 0 0.88 0.02 0 0.885 0.02 0 0.89 0.02 0 0.895 0.02 0 0.9 0.02 0 0.905 0.02 0 0.91 0.02 0 0.915 0.02 0 0.92 0.02 0 0.925 0.02 0 0.93 0.02 0 0.935 0.02 0 0.94 0.02 0 0.945 0.02 0 0.95 0.02 0 0.955 0.02 0 0.96 0.02 0 0.965 0.02 0 0.97 0.02 0 0.975 0.02 0 0.98 0.02 0 0.985 0.02 0 0.99 0.02 0 0.995 0.02 0 1 0.02 0 0 0.04 0 0.005 0.04 0 0.01 0.04 0 0.015 0.04 0 0.02 0.04 0 0.025 0.04 0 0.03 0.04 0 0.035 0.04 0 0.04 0.04 0 0.045 0.04 0 0.05 0.04 0 0.055 0.04 0 0.06 0.04 0 0.065 0.04 0 0.07 0.04 0 0.075 0.04 0 0.08 0.04 0 0.085 0.04 0 0.09 0.04 0 0.095 0.04 0 0.1 0.04 0 0.105 0.04 0 0.11 0.04 0 0.115 0.04 0 0.12 0.04 0 0.125 0.04 0 0.13 0.04 0 0.135 0.04 0 0.14 0.04 0 0.145 0.04 0 0.15 0.04 0 0.155 0.04 0 0.16 0.04 0 0.165 0.04 0 0.17 0.04 0 0.175 0.04 0 0.18 0.04 0 0.185 0.04 0 0.19 0.04 0 0.195 0.04 0 0.2 0.04 0 0.205 0.04 0 0.21 0.04 0 0.215 0.04 0 0.22 0.04 0 0.225 0.04 0 0.23 0.04 0 0.235 0.04 0 0.24 0.04 0 0.245 0.04 0 0.25 0.04 0 0.255 0.04 0 0.26 0.04 0 0.265 0.04 0 0.27 0.04 0 0.275 0.04 0 0.28 0.04 0 0.285 0.04 0 0.29 0.04 0 0.295 0.04 0 0.3 0.04 0 0.305 0.04 0 0.31 0.04 0 0.315 0.04 0 0.32 0.04 0 0.325 0.04 0 0.33 0.04 0 0.335 0.04 0 0.34 0.04 0 0.345 0.04 0 0.35 0.04 0 0.355 0.04 0 0.36 0.04 0 0.365 0.04 0 0.37 0.04 0 0.375 0.04 0 0.38 0.04 0 0.385 0.04 0 0.39 0.04 0 0.395 0.04 0 0.4 0.04 0 0.405 0.04 0 0.41 0.04 0 0.415 0.04 0 0.42 0.04 0 0.425 0.04 0 0.43 0.04 0 0.435 0.04 0 0.44 0.04 0 0.445 0.04 0 0.45 0.04 0 0.455 0.04 0 0.46 0.04 0 0.465 0.04 0 0.47 0.04 0 0.475 0.04 0 0.48 0.04 0 0.485 0.04 0 0.49 0.04 0 0.495 0.04 0 0.5 0.04 0 0.505 0.04 0 0.51 0.04 0 0.515 0.04 0 0.52 0.04 0 0.525 0.04 0 0.53 0.04 0 0.535 0.04 0 0.54 0.04 0 0.545 0.04 0 0.55 0.04 0 0.555 0.04 0 0.56 0.04 0 0.565 0.04 0 0.57 0.04 0 0.575 0.04 0 0.58 0.04 0 0.585 0.04 0 0.59 0.04 0 0.595 0.04 0 0.6 0.04 0 0.605 0.04 0 0.61 0.04 0 0.615 0.04 0 0.62 0.04 0 0.625 0.04 0 0.63 0.04 0 0.635 0.04 0 0.64 0.04 0 0.645 0.04 0 0.65 0.04 0 0.655 0.04 0 0.66 0.04 0 0.665 0.04 0 0.67 0.04 0 0.675 0.04 0 0.68 0.04 0 0.685 0.04 0 0.69 0.04 0 0.695 0.04 0 0.7 0.04 0 0.705 0.04 0 0.71 0.04 0 0.715 0.04 0 0.72 0.04 0 0.725 0.04 0 0.73 0.04 0 0.735 0.04 0 0.74 0.04 0 0.745 0.04 0 0.75 0.04 0 0.755 0.04 0 0.76 0.04 0 0.765 0.04 0 0.77 0.04 0 0.775 0.04 0 0.78 0.04 0 0.785 0.04 0 0.79 0.04 0 0.795 0.04 0 0.8 0.04 0 0.805 0.04 0 0.81 0.04 0 0.815 0.04 0 0.82 0.04 0 0.825 0.04 0 0.83 0.04 0 0.835 0.04 0 0.84 0.04 0 0.845 0.04 0 0.85 0.04 0 0.855 0.04 0 0.86 0.04 0 0.865 0.04 0 0.87 0.04 0 0.875 0.04 0 0.88 0.04 0 0.885 0.04 0 0.89 0.04 0 0.895 0.04 0 0.9 0.04 0 0.905 0.04 0 0.91 0.04 0 0.915 0.04 0 0.92 0.04 0 0.925 0.04 0 0.93 0.04 0 0.935 0.04 0 0.94 0.04 0 0.945 0.04 0 0.95 0.04 0 0.955 0.04 0 0.96 0.04 0 0.965 0.04 0 0.97 0.04 0 0.975 0.04 0 0.98 0.04 0 0.985 0.04 0 0.99 0.04 0 0.995 0.04 0 1 0.04 0 0 0.06 0 0.005 0.06 0 0.01 0.06 0 0.015 0.06 0 0.02 0.06 0 0.025 0.06 0 0.03 0.06 0 0.035 0.06 0 0.04 0.06 0 0.045 0.06 0 0.05 0.06 0 0.055 0.06 0 0.06 0.06 0 0.065 0.06 0 0.07 0.06 0 0.075 0.06 0 0.08 0.06 0 0.085 0.06 0 0.09 0.06 0 0.095 0.06 0 0.1 0.06 0 0.105 0.06 0 0.11 0.06 0 0.115 0.06 0 0.12 0.06 0 0.125 0.06 0 0.13 0.06 0 0.135 0.06 0 0.14 0.06 0 0.145 0.06 0 0.15 0.06 0 0.155 0.06 0 0.16 0.06 0 0.165 0.06 0 0.17 0.06 0 0.175 0.06 0 0.18 0.06 0 0.185 0.06 0 0.19 0.06 0 0.195 0.06 0 0.2 0.06 0 0.205 0.06 0 0.21 0.06 0 0.215 0.06 0 0.22 0.06 0 0.225 0.06 0 0.23 0.06 0 0.235 0.06 0 0.24 0.06 0 0.245 0.06 0 0.25 0.06 0 0.255 0.06 0 0.26 0.06 0 0.265 0.06 0 0.27 0.06 0 0.275 0.06 0 0.28 0.06 0 0.285 0.06 0 0.29 0.06 0 0.295 0.06 0 0.3 0.06 0 0.305 0.06 0 0.31 0.06 0 0.315 0.06 0 0.32 0.06 0 0.325 0.06 0 0.33 0.06 0 0.335 0.06 0 0.34 0.06 0 0.345 0.06 0 0.35 0.06 0 0.355 0.06 0 0.36 0.06 0 0.365 0.06 0 0.37 0.06 0 0.375 0.06 0 0.38 0.06 0 0.385 0.06 0 0.39 0.06 0 0.395 0.06 0 0.4 0.06 0 0.405 0.06 0 0.41 0.06 0 0.415 0.06 0 0.42 0.06 0 0.425 0.06 0 0.43 0.06 0 0.435 0.06 0 0.44 0.06 0 0.445 0.06 0 0.45 0.06 0 0.455 0.06 0 0.46 0.06 0 0.465 0.06 0 0.47 0.06 0 0.475 0.06 0 0.48 0.06 0 0.485 0.06 0 0.49 0.06 0 0.495 0.06 0 0.5 0.06 0 0.505 0.06 0 0.51 0.06 0 0.515 0.06 0 0.52 0.06 0 0.525 0.06 0 0.53 0.06 0 0.535 0.06 0 0.54 0.06 0 0.545 0.06 0 0.55 0.06 0 0.555 0.06 0 0.56 0.06 0 0.565 0.06 0 0.57 0.06 0 0.575 0.06 0 0.58 0.06 0 0.585 0.06 0 0.59 0.06 0 0.595 0.06 0 0.6 0.06 0 0.605 0.06 0 0.61 0.06 0 0.615 0.06 0 0.62 0.06 0 0.625 0.06 0 0.63 0.06 0 0.635 0.06 0 0.64 0.06 0 0.645 0.06 0 0.65 0.06 0 0.655 0.06 0 0.66 0.06 0 0.665 0.06 0 0.67 0.06 0 0.675 0.06 0 0.68 0.06 0 0.685 0.06 0 0.69 0.06 0 0.695 0.06 0 0.7 0.06 0 0.705 0.06 0 0.71 0.06 0 0.715 0.06 0 0.72 0.06 0 0.725 0.06 0 0.73 0.06 0 0.735 0.06 0 0.74 0.06 0 0.745 0.06 0 0.75 0.06 0 0.755 0.06 0 0.76 0.06 0 0.765 0.06 0 0.77 0.06 0 0.775 0.06 0 0.78 0.06 0 0.785 0.06 0 0.79 0.06 0 0.795 0.06 0 0.8 0.06 0 0.805 0.06 0 0.81 0.06 0 0.815 0.06 0 0.82 0.06 0 0.825 0.06 0 0.83 0.06 0 0.835 0.06 0 0.84 0.06 0 0.845 0.06 0 0.85 0.06 0 0.855 0.06 0 0.86 0.06 0 0.865 0.06 0 0.87 0.06 0 0.875 0.06 0 0.88 0.06 0 0.885 0.06 0 0.89 0.06 0 0.895 0.06 0 0.9 0.06 0 0.905 0.06 0 0.91 0.06 0 0.915 0.06 0 0.92 0.06 0 0.925 0.06 0 0.93 0.06 0 0.935 0.06 0 0.94 0.06 0 0.945 0.06 0 0.95 0.06 0 0.955 0.06 0 0.96 0.06 0 0.965 0.06 0 0.97 0.06 0 0.975 0.06 0 0.98 0.06 0 0.985 0.06 0 0.99 0.06 0 0.995 0.06 0 1 0.06 0 0 0.08 0 0.005 0.08 0 0.01 0.08 0 0.015 0.08 0 0.02 0.08 0 0.025 0.08 0 0.03 0.08 0 0.035 0.08 0 0.04 0.08 0 0.045 0.08 0 0.05 0.08 0 0.055 0.08 0 0.06 0.08 0 0.065 0.08 0 0.07 0.08 0 0.075 0.08 0 0.08 0.08 0 0.085 0.08 0 0.09 0.08 0 0.095 0.08 0 0.1 0.08 0 0.105 0.08 0 0.11 0.08 0 0.115 0.08 0 0.12 0.08 0 0.125 0.08 0 0.13 0.08 0 0.135 0.08 0 0.14 0.08 0 0.145 0.08 0 0.15 0.08 0 0.155 0.08 0 0.16 0.08 0 0.165 0.08 0
[...]
			<PointData Scalars="VitesseX">
				<DataArray Name="VitesseX" type="Float32" format="ascii">
 0 -5.75178e-15 -1.59825e-15 3.68945e-15 -8.95314e-15 -2.12178e-14 7.30123e-15 -5.31219e-14 -1.78283e-14 -3.0348e-14 3.99789e-14 -4.41781e-14 2.16791e-17 -3.52847e-15 1.87596e-14 1.20782e-14 -3.09367e-14 -4.10456e-14 -3.1297e-14 -7.06477e-14 4.27853e-14 -9.32608e-14 -1.35153e-13 -4.73709e-14 -8.87828e-18 -5.18671e-14 -2.70395e-13 4.82456e-15 -1.76118e-13 -1.06979e-14 1.20317e-13 -3.12214e-14 -5.1594e-14 3.00174e-14 -2.78129e-14 -1.15087e-13 -5.92477e-14 -7.14088e-14 -2.46524e-13 -1.83329e-13 -8.19661e-14 -1.73362e-13 -1.67265e-13 -3.69976e-14 -9.19297e-14 -2.579e-13 2.7857e-13 -2.20791e-13 -6.81623e-14 -1.43513e-13 2.06709e-13 -5.49197e-14 1.10489e-12 7.78397e-12 5.71793e-11 3.82478e-10 2.4142e-09 1.42976e-08 7.92165e-08 4.09171e-07 1.9626e-06 8.70214e-06 3.54793e-05 0.000132169 0.000446486 0.00135573 0.00366469 0.0087428 0.0183243 0.0337496 0.0550708 0.0809406 0.109487 0.13926 0.169483 0.199811 0.2301 0.260314 0.290422 0.3204 0.350231 0.379899 0.409393 0.4387 0.467808 0.496706 0.525381 0.553816 0.581995 0.609894 0.637484 0.664728 0.691579 0.717973 0.74383 0.769049 0.793498 0.817016 0.839402 0.860414 0.879765 0.897127 0.912138 0.924427 0.933659 0.939641 0.94217 0.941878 0.941147 0.940125 0.938933 0.937657 0.936378 0.935144 0.934003 0.93299 0.932118 0.931389 0.93079 0.930303 0.92991 0.929623 0.929143 0.926975 0.939445 0.953157 0.944513 0.933277 0.929305 0.928388 0.928161 0.928109 0.928107 0.928111 0.928099 0.92803 0.927815 0.927277 0.926068 0.923529 0.918451 0.908883 0.891721 0.862618 0.81635 0.747956 0.65473 0.53872 0.408714 0.279667 0.168126 0.0873921 0.0395624 0.0162045 0.00627896 0.00236676 0.000880094 0.000324694 0.000119078 4.34305e-05 1.57509e-05 5.67822e-06 2.03392e-06 7.23565e-07 2.55539e-07 8.95548e-08 3.11315e-08 1.07306e-08 3.66618e-09 1.24126e-09 4.16082e-10 1.38248e-10 4.51044e-11 1.40485e-11 5.21754e-12 5.57234e-13 -8.53409e-14 2.42603e-13 -6.85961e-13 4.6028e-13 -7.40807e-13 -2.30617e-13 1.80139e-13 -2.45363e-13 1.01955e-13 1.25918e-13 -1.06784e-13 2.86797e-13 -2.61748e-13 3.88602e-13 1.98089e-13 -2.16155e-13 3.26105e-13 -4.61488e-14 9.93059e-13 -5.1199e-13 6.33829e-13 -1.99805e-13 4.60433e-13 2.32257e-13 0 0 1.66596e-14 3.4927e-15 8.07358e-15 -8.22906e-16 -1.28598e-14 -3.72925e-14 -3.49842e-15 -2.99336e-14 -9.22322e-15 -5.20802e-14 2.08208e-14 1.78259e-14 -3.06915e-14 -2.51971e-14 1.27678e-14 2.87683e-14 -2.21462e-14 -8.00107e-14 1.33304e-15 -1.16246e-13 -1.23536e-14 -6.90247e-14 -6.46505e-14 -1.01161e-13 -1.10023e-13 3.65556e-14 -2.18732e-13 -9.59356e-15 -3.54165e-14 -9.65707e-14 5.9376e-14 3.27032e-14 -4.94702e-14 -6.10186e-14 -6.81366e-14 -1.35073e-13 -6.42774e-14 -5.57192e-14 -6.85845e-14 -2.37936e-13 -2.10652e-13 -3.7851e-14 -6.92441e-14 -3.16154e-14 1.39129e-14 -2.36997e-13 2.33472e-14 9.86904e-14 4.5831e-14 -1.63123e-13 2.18003e-13 9.1985e-13 8.1544e-12 5.66522e-11 3.82681e-10 2.41412e-09 1.42978e-08 7.92165e-08 4.09171e-07 1.9626e-06 8.70214e-06 3.54793e-05 0.000132169 0.000446486 0.00135573 0.00366469 0.0087428 0.0183243 0.0337496 0.0550708 0.0809406 0.109487 0.13926 0.169483 0.199811 0.2301 0.260314 0.290422 0.3204 0.350231 0.379899 0.409393 0.4387 0.467808 0.496706 0.525381 0.553816 0.581995 0.609894 0.637484 0.664728 0.691579 0.717973 0.74383 0.769049 0.793498 0.817016 0.839402 0.860414 0.879765 0.897127 0.912138 0.924427 0.933659 0.939641 0.94217 0.941878 0.941147 0.940125 0.938933 0.937657 0.936378 0.935144 0.934003 0.93299 0.932118 0.931389 0.93079 0.930303 0.92991 0.929623 0.929143 0.926975 0.939445 0.953157 0.944513 0.933277 0.929305 0.928388 0.928161 0.928109 0.928107 0.928111 0.928099 0.92803 0.927815 0.927277 0.926068 0.923529 0.918451 0.908883 0.891721 0.862618 0.81635 0.747956 0.65473 0.53872 0.408714 0.279667 0.168126 0.0873921 0.0395624 0.0162045 0.00627896 0.00236676 0.000880094 0.000324694 0.000119078 4.34305e-05 1.57509e-05 5.67822e-06 2.03392e-06 7.23565e-07 2.55539e-07 8.95551e-08 3.11315e-08 1.07308e-08 3.66616e-09 1.24097e-09 4.16175e-10 1.37932e-10 4.52919e-11 1.49884e-11 4.01045e-12 1.39407e-12 -7.4129e-14 -3.1682e-13 2.27321e-13 -8.14334e-13 2.47358e-13 -4.53516e-13 -4.88138e-13 -4.58658e-14 1.05923e-13 3.26074e-14 9.21365e-14 7.77793e-14 3.81853e-13 -2.03133e-13 -1.35519e-13 1.95544e-13 2.25835e-13 2.13793e-13 -2.3512e-13 4.52708e-13 4.03392e-14 2.42224e-13 3.63317e-14 1.61224e-13 0 0 1.50408e-14 2.18602e-14 1.12377e-14 -2.68317e-15 1.19409e-14 2.19055e-15 -3.84052e-14 4.06109e-15 8.28459e-15 -2.799e-14 -1.81534e-14 2.59462e-15 -3.57225e-14 -3.33947e-14 -5.10865e-14 -2.79295e-14 1.78324e-14 2.91209e-14 -8.93598e-14 -2.56741e-15 -1.21386e-13 -8.81378e-14 -3.53162e-14 -7.96726e-14 -8.5235e-14 -1.22523e-13 4.08716e-14 -1.286e-13 -7.68015e-15 -5.55932e-14 -2.14128e-14 -3.95125e-14 -9.41287e-14 -7.60579e-14 -6.69173e-14 -4.30304e-14 -7.27744e-14 -5.86192e-14 -1.45736e-13 -5.58649e-14 -8.24559e-16 -9.73116e-14 -1.46058e-13 -2.96291e-14 7.29271e-14 -6.68866e-14 -4.7769e-14 -6.96168e-14 4.67262e-14 -2.7786e-14 8.5229e-14 1.0952e-12 7.97683e-12 5.71207e-11 3.82451e-10 2.41394e-09 1.42981e-08 7.92165e-08 4.09171e-07 1.9626e-06 8.70214e-06 3.54793e-05 0.000132169 0.000446486 0.00135573 0.00366469 0.0087428 0.0183243 0.0337496 0.0550708 0.0809406 0.109487 0.13926 0.169483 0.199811 0.2301 0.260314 0.290422 0.3204 0.350231 0.379899 0.409393 0.4387 0.467808 0.496706 0.525381 0.553816 0.581995 0.609894 0.637484 0.664728 0.691579 0.717973 0.74383 0.769049 0.793498 0.817016 0.839402 0.860414 0.879765 0.897127 0.912138 0.924427 0.933659 0.939641 0.94217 0.941878 0.941147 0.940125 0.938933 0.937657 0.936378 0.935144 0.934003 0.93299 0.932118 0.931389 0.93079 0.930303 0.92991 0.929623 0.929143 0.926975 0.939445 0.953157 0.944513 0.933277 0.929305 0.928388 0.928161 0.928109 0.928107 0.928111 0.928099 0.92803 0.927815 0.927277 0.926068 0.923529 0.918451 0.908883 0.891721 0.862618 0.81635 0.747956 0.65473 0.53872 0.408714 0.279667 0.168126 0.0873921 0.0395624 0.0162045 0.00627896 0.00236676 0.000880094 0.000324694 0.000119078 4.34305e-05 1.57509e-05 5.67822e-06 2.03392e-06 7.23565e-07 2.55539e-07 8.9555e-08 3.11316e-08 1.07307e-08 3.66635e-09 1.24122e-09 4.15967e-10 1.38178e-10 4.53391e-11 1.44055e-11 4.60163e-12 1.21673e-12 -7.10734e-14 -1.12975e-13 -2.66405e-13 2.48022e-13 -7.42344e-13 -2.6936e-13 -5.34722e-13 -7.1254e-14 -3.37975e-13 4.30491e-14 5.4944e-14 5.08928e-13 2.10044e-14 -1.45763e-13 -5.84225e-15 2.64672e-13 7.52963e-14 -6.68791e-13 7.67208e-13 3.33274e-13 -2.29855e-13 5.27479e-13 5.37499e-13 2.38561e-13 0 0 7.73529e-15 1.83338e-14 2.14517e-14 1.02144e-14 6.56321e-15 2.59294e-14 -1.51788e-14 -1.05358e-14 -3.1006e-14 1.22354e-14 2.25442e-14 2.63138e-14 -5.7571e-14 -9.95773e-14 -1.24089e-14 -5.33742e-14 -5.57602e-14 -2.06915e-14 -4.50759e-14 -1.07395e-13 -5.82281e-14 -8.83067e-14 -7.62817e-14 1.25344e-14 -3.2521e-15 9.61121e-15 -1.24321e-13 -1.11897e-13 -3.34839e-14 1.82331e-14 2.63869e-14 -1.34672e-13 -1.62231e-14 -7.39282e-14 -1.36963e-14 -6.01802e-14 -4.86534e-14 -2.26114e-13 -1.26763e-13 4.82695e-14 -1.91446e-13 -6.15112e-14 -3.38721e-14 -1.08765e-13 -1.41549e-13 -8.01351e-15 -6.87667e-14 3.89051e-14 -9.47849e-14 -8.98744e-15 5.59335e-14 1.34948e-12 7.85988e-12 5.71591e-11 3.82518e-10 2.41421e-09 1.42978e-08 7.92168e-08 4.09171e-07 1.9626e-06 8.70214e-06 3.54793e-05 0.000132169 0.000446486 0.00135573 0.00366469 0.0087428 0.0183243 0.0337496 0.0550708 0.0809406 0.109487 0.13926 0.169483 0.199811 0.2301 0.260314 0.290422 0.3204 0.350231 0.379899 0.409393 0.4387 0.467808 0.496706 0.525381 0.553816 0.581995 0.609894 0.637484 0.664728 0.691579 0.717973 0.74383 0.769049 0.793498 0.817016 0.839402 0.860414 0.879765 0.897127 0.912138 0.924427 0.933659 0.939641 0.94217 0.941878 0.941147 0.940125 0.938933 0.937657 0.936378 0.935144 0.934003 0.93299 0.932118 0.931389 0.93079 0.930303 0.92991 0.929623 0.929143 0.926975 0.939445 0.953157 0.944513 0.933277 0.929305 0.928388 0.928161 0.928109 0.928107 0.928111 0.928099 0.92803 0.927815 0.927277 0.926068 0.923529 0.918451 0.908883 0.891721 0.862618 0.81635 0.747956 0.65473 0.53872 0.408714 0.279667 0.168126 0.0873921 0.0395624 0.0162045 0.00627896 0.00236676 0.000880094 0.000324694 0.000119078 4.34305e-05 1.57509e-05 5.67822e-06 2.03392e-06 7.23566e-07 2.55539e-07 8.95551e-08 3.11316e-08 1.07309e-08 3.66642e-09 1.24152e-09 4.15958e-10 1.38022e-10 4.49919e-11 1.45566e-11 4.90692e-12 7.97408e-13 3.88051e-13 2.00137e-13 -5.50751e-13 2.75117e-13 -9.09643e-13 -5.03988e-13 2.09501e-15 -2.64395e-13 -9.19496e-14 3.10806e-13 -3.85194e-14 5.23848e-14 -1.66633e-13 4.52764e-13 -1.36736e-13 -5.81113e-13 3.35931e-13 4.94464e-15 6.86456e-13 -4.00012e-13 3.09678e-13 7.07148e-13 1.47014e-13 -6.9177e-14 0 0 1.33024e-14 3.45728e-15 1.8406e-14 1.23406e-14 1.57222e-14 -4.53289e-15 1.61251e-14 -1.9942e-14 -1.12584e-14 -4.99258e-14 4.17556e-14 1.67704e-14 -3.51723e-14 -8.63495e-14 -5.04849e-14 -6.35936e-14 -3.44309e-14 -5.32183e-14 6.25446e-15 -2.08114e-13 3.34117e-14 -1.0608e-14 -1.33177e-13 -3.15509e-14 -4.82651e-14 1.75743e-13 -3.25625e-13 5.10216e-14 -4.16412e-14 -3.80818e-14 9.15954e-14 -1.01165e-14 5.35987e-14 -1.5744e-14 -1.60269e-14 -9.17036e-14 -1.0942e-13 -1.42308e-13 -9.14856e-14 -2.08549e-13 -3.26731e-13 -3.407e-15 -3.34281e-15 -8.45711e-14 -4.75367e-14 -2.55006e-13 7.64317e-14 -1.49351e-14 -5.8457e-14 -1.32376e-13 3.11978e-13 1.20165e-12 8.15688e-12 5.67654e-11 3.8277e-10 2.41448e-09 1.42978e-08 7.92167e-08 4.09171e-07 1.9626e-06 8.70214e-06 3.54793e-05 0.000132169 0.000446486 0.00135573 0.00366469 0.0087428 0.0183243 0.0337496 0.0550708 0.0809406 0.109487 0.13926 0.169483 0.199811 0.2301 0.260314 0.290422 0.3204 0.350231 0.379899 0.409393 0.4387 0.467808 0.496706 0.525381 0.553816 0.581995 0.609894 0.637484 0.664728 0.691579 0.717973 0.74383 0.769049 0.793498 0.817016 0.839402 0.860414 0.879765 0.897127 0.912138 0.924427 0.933659 0.939641 0.94217 0.941878 0.941147 0.940125 0.938933 0.937657 0.936378 0.935144 0.934003 0.93299 0.932118 0.931389 0.93079 0.930303 0.92991 0.929623 0.929143 0.926975 0.939445 0.953157 0.944513 0.933277 0.929305 0.928388 0.928161 0.928109 0.928107 0.928111 0.928099 0.92803 0.927815 0.927277 0.926068 0.923529 0.918451 0.908883 0.891721 0.862618 0.81635 0.747956 0.65473 0.53872 0.408714 0.279667 0.168126 0.0873921 0.0395624 0.0162045 0.00627896 0.00236676 0.000880094 0.000324694 0.000119078 4.34305e-05 1.57509e-05 5.67822e-06 2.03392e-06 7.23566e-07 2.55539e-07 8.95553e-08 3.11318e-08 1.07311e-08 3.6661e-09 1.24099e-09 4.16212e-10 1.37916e-10 4.53664e-11 1.52516e-11 4.1419e-12 1.54658e-12 2.16105e-13 -2.30326e-13 -2.13979e-13 -4.63569e-13 4.06824e-13 -4.82141e-13 -1.20699e-13 -3.1107e-13 6.16987e-14 -1.00768e-13 2.34063e-13 -5.9957e-13 2.04263e-13 -4.34972e-14 -2.12913e-13 -2.56467e-13 1.93507e-14 6.25479e-13 -3.54912e-13 2.28621e-13 3.13401e-13 2.27745e-13 -2.64094e-13 -1.54434e-13 0 0 2.14484e-15 5.38389e-15 3.92626e-15 -8.42144e-15 4.67017e-14 2.53427e-14 -6.03277e-14 3.13486e-14 4.41628e-14 -3.61631e-14 -8.37037e-14 -4.95278e-14 3.12069e-14 2.88198e-14 -1.91782e-13 -1.64771e-13 8.15704e-14 1.21912e-13 -1.49373e-13 6.87067e-14 -1.28045e-13 -1.79815e-14 -1.02492e-13 -4.52027e-14 -9.2316e-14 -2.56288e-13 1.21425e-13 -8.82942e-14 2.84602e-14 8.96422e-14 -6.2382e-14 5.3086e-14 8.03441e-14 5.84769e-14 -1.1731e-13 6.17916e-14 -2.09936e-13 -8.47133e-14 -2.67076e-13 -2.31461e-13 -2.42761e-14 -1.69978e-13 -1.29567e-13 -3.95687e-14 4.81534e-14 1.24805e-13 -7.26262e-14 -5.12457e-13 -6.90668e-14 2.30606e-13 1.91621e-13 1.15995e-12 8.02283e-12 5.73289e-11 3.82523e-10 2.41438e-09 1.42982e-08 7.92163e-08 4.09171e-07 1.9626e-06 8.70214e-06 3.54793e-05 0.000132169 0.000446486 0.00135573 0.00366469 0.0087428 0.0183243 0.0337496 0.0550708 0.0809406 0.109487 0.13926 0.169483 0.199811 0.2301 0.260314 0.290422 0.3204 0.350231 0.379899 0.409393 0.4387 0.467808 0.496706 0.525381 0.553816 0.581995 0.609894 0.637484 0.664728 0.691579 0.717973 0.74383 0.769049 0.793498 0.817016 0.839402 0.860414 0.879765 0.897127 0.912138 0.924427 0.933659 0.939641 0.94217 0.941878 0.941147 0.940125 0.938933 0.937657 0.936378 0.935144 0.934003 0.93299 0.932118 0.931389 0.93079 0.930303 0.92991 0.929623 0.929143 0.926975 0.939445 0.953157 0.944513 0.933277 0.929305 0.928388 0.928161 0.928109 0.928107 0.928111 0.928099 0.92803 0.927815 0.927277 0.926068 0.923529 0.918451 0.908883 0.891721 0.862618 0.81635 0.747956 0.65473 0.53872 0.408714 0.279667 0.168126 0.0873921 0.0395624 0.0162045 0.00627896 0.00236676 0.000880094 0.000324694 0.000119078 4.34305e-05 1.57509e-05 5.67822e-06 2.03392e-06 7.23565e-07 2.5554e-07 8.95549e-08 3.11321e-08 1.07307e-08 3.66593e-09 1.24069e-09 4.16174e-10 1.38526e-10 4.59478e-11 1.42727e-11 4.86984e-12 1.7009e-12 -4.23122e-13 -2.10635e-13 -9.99872e-13 1.10762e-12 -8.72757e-14 1.81389e-13 -1.58618e-13 -3.89488e-13 -4.78545e-13 -6.76346e-13 3.63996e-13 -1.54815e-13 -2.41655e-13 -4.89182e-13 3.05089e-13 5.71395e-13 -6.08134e-13 -5.70248e-13 9.1498e-13 5.06408e-13 1.00887e-13 -5.881e-13 6.40551e-13 2.16416e-13 0
				</DataArray>
				<DataArray Name="VitesseY" type="Float32" format="ascii">